ITEM: TIMESTEP
0
ITEM: NUMBER OF ATOMS
350
ITEM: BOX BOUNDS xy xz yz pp pp pp
-6.8559279999999996e+00 1.5238200000000001e+01 -6.4077279999999996e+00
-6.4200000000000002e-01 1.4502800000000001e+01 -4.4819999999999999e-01
0.0000000000000000e+00 1.7008500000000002e+01 -6.4200000000000002e-01
ITEM: ATOMS id type x y z
7 4 -0.726308 2.37227 3.64558
316 2 2.87203 1.1787 0.144158
14 4 0.257227 4.73306 2.05585
321 2 -0.269202 2.5963 8.15454
26 4 4.27489 1.4889 3.15709
34 4 5.3137 3.73202 6.90356
33 4 1.20561 6.48091 4.10461
318 2 1.29732 0.676875 1.19259
36 4 4.19513 5.91637 5.1496
57 1 1.19456 0.154652 6.12886
62 1 2.92356 2.54219 3.91514
77 2 0.924414 2.65918 4.04314
195 3 3.93553 4.47152 5.81392
79 2 -0.297137 6.29518 8.38425
82 2 4.55731 2.16567 1.53554
180 3 3.66182 0.00735983 2.89998
103 2 0.733974 1.15702 6.34395
315 1 1.66797 1.0541 0.192249
117 2 2.37492 1.60948 4.40624
118 2 2.29284 3.09013 3.10451
119 2 3.38104 3.33513 4.70554
164 3 -1.19347 3.52882 2.68469
165 3 1.1624 3.71149 1.14926
166 3 -0.207179 6.05761 1.17441
167 3 -2.29362 6.37787 6.56712
182 3 5.64335 1.55625 4.09934
200 3 2.42824 6.79786 8.33454
189 3 0.854865 5.15407 3.42631
190 3 0.357886 6.93811 5.69987
191 3 4.83807 2.69845 8.02893
194 3 2.77411 6.45909 4.29996
105 2 1.82217 0.156431 5.14787
185 3 5.18914 2.80056 0.202145
9 4 2.58772 -0.212003 7.30588
8 4 0.8907 2.26857 16.772
11 4 3.01712 -0.0344182 13.5021
13 4 0.885448 1.57823 11.8625
18 4 -0.817659 3.87567 13.0153
19 4 -1.40063 6.24693 10.834
28 4 4.07108 1.90439 9.15888
31 4 3.80311 2.32744 15.3943
35 4 1.82263 5.98783 9.55742
322 2 -0.368972 3.18048 9.97704
63 1 3.23524 3.29283 10.3852
64 1 4.51659 3.68592 14.3798
67 1 1.52337 5.76527 13.9051
83 2 1.75322 2.07078 10.4665
198 3 2.70752 6.38203 10.8194
85 2 -0.0339002 4.61478 14.3434
317 2 0.850269 -0.161476 16.2837
336 2 -2.32373 6.32553 16.3156
120 2 3.90448 2.97687 11.2788
121 2 2.28527 3.76911 10.8309
122 2 3.81173 4.15186 9.66368
123 2 4.44233 3.2437 13.3078
125 2 3.77804 4.56637 14.553
324 2 0.47128 0.183376 14.552
132 2 1.66769 4.8137 14.5322
133 2 2.391 6.00807 13.1936
134 2 0.522077 6.008 13.4301
161 3 -0.392547 2.17082 15.7637
162 3 -0.32151 0.814841 11.2229
163 3 1.92089 0.767586 12.6772
59 1 -2.73492 5.48526 9.82091
169 3 0.470287 2.95749 12.5198
170 3 -1.16079 5.16089 11.9804
84 2 2.07869 4.36629 9.17996
184 3 3.80205 1.14178 14.2754
110 2 -2.19348 5.09933 8.85295
186 3 2.34167 2.60128 15.8877
187 3 5.11236 1.34729 10.258
319 1 -0.927182 2.68653 9.11892
193 3 0.264705 6.01703 9.77332
272 2 4.78488 4.6567 16.8067
181 3 2.83113 1.07511 8.52415
1 4 -3.70759 13.3502 2.33866
2 1 -4.73669 12.1533 3.5784
3 2 -3.54692 11.5415 3.54138
5 2 -5.1885 12.3373 4.61306
6 3 -3.66323 13.0097 0.855552
111 2 -3.1255 8.15157 1.07571
20 4 -1.74335 10.0243 1.40164
22 4 -2.08249 9.73254 7.79824
138 2 -0.0465416 14.295 3.47312
39 4 -0.621352 11.7145 4.09082
40 4 2.88524 7.71994 7.10642
42 4 1.76923 11.175 5.75991
60 1 -3.4335 9.16388 1.46634
61 1 -3.56954 10.2028 6.57444
69 1 0.300157 13.2995 3.02713
70 1 -1.8788 12.5965 5.18319
87 2 0.897739 7.79369 3.0209
88 2 1.54886 8.02777 6.11939
100 2 1.79164 10.1554 7.14611
287 2 2.59701 8.73378 4.32692
112 2 -3.98113 9.74181 0.592723
104 2 -6.01254 13.8371 6.15642
115 2 -2.84678 10.281 5.64826
116 2 -3.83718 11.2903 6.95482
78 2 -2.26513 13.959 6.5828
139 2 -0.0467584 13.141 1.98128
140 2 1.39421 13.0362 3.23963
141 2 -1.42152 12.2568 6.21294
142 2 -2.99181 12.5498 5.1891
143 2 -1.5659 13.7003 4.83513
171 3 -0.634555 8.65793 1.04104
172 3 -1.96932 11.0457 0.158645
173 3 -1.19859 8.58305 7.26392
174 3 -4.26058 12.9599 8.00017
337 2 -3.47484 8.50764 5.50132
199 3 -1.31743 10.718 2.8058
202 3 -1.31122 10.9588 8.32925
203 3 0.103011 13.1781 7.98279
205 3 0.410586 11.0562 5.03363
334 2 -5.37583 13.7625 2.68833
278 1 2.3025 9.11397 3.31342
285 2 2.42786 8.23303 2.50929
286 2 1.31398 9.57308 3.27502
290 3 2.13011 11.1698 1.42765
17 4 -0.942133 7.0667 6.92049
16 4 -0.447094 7.31379 0.240859
114 2 -4.44996 9.60808 6.47576
80 2 -3.2795 9.13085 8.93266
23 4 -4.8392 12.4624 9.38072
24 4 -2.87833 9.17647 11.7363
25 4 -2.53694 12.4569 11.3917
197 3 0.271357 6.94048 16.1822
37 4 1.53484 7.23891 15.2456
41 4 -0.498548 12.1327 9.04687
43 4 2.48624 9.4602 13.3171
44 4 -0.414603 12.5445 15.3454
45 4 1.75448 11.3352 11.0639
72 1 -3.47153 8.93582 13.5065
73 1 -0.630274 10.7811 14.5583
213 3 1.43356 10.0753 12.0163
339 2 -4.31498 13.6424 14.7262
21 4 -3.17395 11.7707 16.5778
147 2 -2.70732 8.12559 13.8262
38 4 3.68301 7.55067 11.1755
149 2 -3.32516 10.0229 13.9689
150 2 -0.512024 10.075 15.4476
151 2 0.183439 10.5562 13.7166
152 2 -1.69195 10.7667 14.1309
175 3 -1.9566 7.88263 11.4215
176 3 -4.25495 11.4921 15.4223
177 3 -3.94107 12.5342 10.6913
178 3 -2.39517 10.6313 11.7599
179 3 -2.50789 13.346 12.7688
196 3 2.90726 6.96778 16.0762
81 2 -4.21908 9.16288 10.4561
323 1 -6.2473 13.6098 14.5108
204 3 -1.38918 12.889 10.2652
207 3 1.56283 8.66453 14.4468
209 3 0.432612 12.557 16.6921
210 3 0.319139 13.3233 14.1623
211 3 -1.92945 12.7707 15.8665
212 3 0.860092 11.4085 9.73695
208 3 3.31763 8.35569 12.476
146 2 2.64475 9.36802 8.79587
344 2 -6.40806 13.3213 13.3975
15 4 11.5713 6.82847 5.78627
46 4 9.75136 2.28568 3.75516
49 4 12.1918 1.85678 5.63536
50 4 11.0948 5.02589 3.2093
51 4 7.10722 6.07323 4.30371
52 4 9.67868 6.48408 0.969547
53 4 10.5546 3.32502 7.76548
54 4 8.88575 5.76416 6.82915
66 1 5.86812 5.04325 8.12918
91 2 9.71991 1.47059 2.20306
94 2 12.6208 4.31741 2.83685
95 2 8.04747 4.98214 3.38091
29 4 7.03611 1.72028 5.17129
280 2 5.23419 6.95125 0.809862
268 1 6.37625 5.44929 0.174585
129 2 5.92999 6.0188 7.54231
192 3 6.53915 3.10308 6.00091
215 3 8.40518 1.93491 4.35678
219 3 13.6124 2.26967 4.94447
220 3 10.9524 1.5503 4.43831
221 3 12.6086 0.436273 6.44468
222 3 10.1415 3.73737 3.3837
223 3 11.3267 5.98751 4.43275
224 3 5.54032 5.67252 4.21062
225 3 10.7624 5.61569 1.73183
98 2 8.19677 6.36169 8.33944
227 3 11.7678 2.91458 6.81583
228 3 10.1358 6.71199 6.61124
229 3 7.73946 5.97273 5.75081
230 3 9.43525 4.27097 7.17301
271 2 6.39649 5.76913 1.2122
294 4 13.8698 0.293057 1.47384
347 2 8.23787 0.364361 1.29543
296 3 14.5867 1.05065 2.66028
297 3 12.4232 0.805713 0.968351
130 2 6.86467 4.6744 8.47622
340 2 12.7601 3.48835 1.0131
267 4 6.52451 3.51115 0.567577
96 2 8.30628 5.51277 0.651316
269 2 6.74232 3.486 2.24299
183 3 7.17241 0.512844 6.15825
217 3 8.82536 -0.245323 8.33592
298 4 12.0408 2.21482 0.143533
312 3 10.4922 2.40247 0.0848612
295 2 15.0949 0.276012 0.191302
10 4 13.8535 1.02374 9.85556
335 2 14.0242 0.359119 13.7712
32 4 6.60206 1.64282 10.9568
48 4 9.00626 1.06925 9.13323
58 1 11.9226 0.63582 10.6545
65 1 6.65693 3.40432 11.709
68 1 5.52751 6.76786 11.4349
93 2 9.99687 0.550841 10.4868
128 2 5.53293 3.67275 11.4657
313 3 7.44744 2.45538 16.8987
107 2 11.6853 1.69002 10.0553
108 2 11.5268 0.672848 11.7538
126 2 7.3835 4.03248 11.1645
127 2 6.91269 3.28204 12.8425
109 2 12.1141 4.70894 10.5668
106 2 11.5641 -0.287157 10.1277
131 2 5.06923 5.11518 8.97008
135 2 6.5566 6.63791 11.0138
188 3 7.32697 0.600208 12.2362
247 2 8.82878 6.55625 14.6011
270 2 6.73267 5.37032 16.4494
218 3 7.75453 1.71933 9.78858
243 1 8.54288 6.52064 10.2919
245 2 6.5119 6.13082 14.2403
248 2 8.27045 5.40008 15.8704
256 2 7.62199 5.90983 10.0306
257 2 8.79057 6.51229 11.4029
258 2 9.50196 6.24333 9.75039
124 2 5.59624 3.91635 14.7273
299 4 8.77602 1.94267 16.1357
300 4 9.38577 3.98561 13.718
301 1 9.8917 3.28097 12.0305
302 1 10.9972 4.91952 14.2434
303 2 8.47919 0.435273 15.4529
304 2 8.15516 5.23604 13.6074
305 2 11.0202 3.16014 12.2774
306 2 9.65095 3.84653 11.1196
307 2 9.2741 2.27043 12.2847
308 2 10.8951 5.78019 13.5055
309 2 11.8565 4.22967 13.9593
310 2 11.0465 5.26189 15.2695
311 3 12.3443 1.43345 15.6967
99 2 9.59031 6.28994 16.3908
342 2 11.8427 6.52744 9.62207
314 3 9.12312 2.94828 14.9187
240 1 7.97826 6.31052 15.2405
329 2 9.77646 0.752881 13.9923
328 1 9.47748 -0.357826 13.9531
97 2 11.1953 4.23769 9.06389
12 4 13.6164 1.73518 14.7146
216 3 14.2499 -0.305771 8.55346
136 2 5.05686 5.71289 11.6313
320 2 13.2196 3.0566 8.88566
168 3 13.2705 3.03246 13.6988
226 3 9.9704 2.08237 8.51953
279 1 2.60257 14.1946 1.67918
47 4 6.86562 13.7353 7.35202
55 4 8.43497 8.4527 2.88918
332 2 7.72622 12.4948 1.3934
74 1 7.64761 10.2355 2.44945
75 1 9.88872 8.99345 4.05021
327 2 9.54507 11.1901 0.153453
71 1 3.48696 9.33412 7.9756
288 2 2.49006 13.8342 2.71264
144 2 3.53609 10.3399 7.43637
153 2 6.63839 10.5536 3.00952
154 2 7.4153 9.94824 1.38448
155 2 8.46381 11.0894 2.52876
4 2 9.75576 11.6548 2.87575
157 2 9.53404 8.74476 5.09389
158 2 9.99733 10.1635 3.95072
92 2 5.54913 12.9626 8.2819
231 3 7.317 7.49876 3.70938
232 3 9.10815 7.79209 1.52617
331 2 7.17511 12.82 3.24274
293 3 7.6606 12.5908 6.39743
274 4 3.24446 10.3425 2.01765
275 4 2.21606 12.7642 0.365098
276 4 4.71432 12.3234 3.92945
277 4 6.98556 11.4147 5.6384
333 2 5.92136 12.7725 1.80427
206 3 2.10836 12.672 5.92264
281 2 5.53269 13.7062 3.24378
282 2 3.4943 13.0946 4.86148
283 2 7.95964 10.7614 4.34263
284 2 6.85384 9.99261 6.53003
252 2 10.5721 9.36313 7.99154
289 3 4.01916 9.21849 1.00892
330 1 6.98935 13.0563 2.11644
291 3 4.13701 11.3588 2.84709
292 3 5.59042 11.6614 5.04284
156 2 10.8296 8.36842 3.79972
346 2 3.63019 14.3618 1.23921
254 2 6.76937 8.35349 8.1117
27 4 1.27257 13.7957 7.12877
201 3 4.21128 7.24448 6.36045
113 2 11.1011 9.09983 2.43059
89 2 2.91959 10.3316 4.75866
145 2 4.67034 9.10373 8.43022
250 2 8.51846 9.76322 8.62973
56 4 4.07491 11.0965 15.4237
76 1 5.62237 12.0662 15.0814
341 2 6.50266 14.02 11.9096
90 2 3.33665 10.982 10.4324
101 2 5.53832 10.4777 16.206
349 2 3.06409 13.7105 14.9985
345 2 8.03144 12.0795 16.8279
159 2 5.33486 13.1446 15.2984
160 2 5.75248 11.7566 13.9285
86 2 3.72849 8.67767 9.8264
233 3 3.48556 10.5452 14.0825
234 3 3.10571 11.9168 16.3908
273 4 4.0624 7.55534 16.9032
236 4 6.55884 7.86959 15.0285
237 4 8.34301 8.52808 9.97802
238 4 7.72392 9.9225 12.7345
239 4 6.14311 12.3901 11.2943
148 2 10.6696 8.68034 13.286
241 1 10.0717 8.84088 8.93297
242 1 6.53132 8.78433 9.17258
244 1 4.95786 11.8961 9.79988
246 2 6.75945 12.449 9.6236
251 2 9.96608 7.717 8.73649
249 2 7.95603 7.8998 16.1913
343 2 8.06075 13.3526 15.2883
137 2 5.62473 7.36385 12.4608
253 2 6.05822 7.98099 9.98221
235 4 9.36269 11.5287 14.8446
255 2 6.16465 9.8708 9.27324
259 2 4.23779 12.3372 9.15823
260 2 4.26741 12.4762 11.3494
261 2 5.16611 10.7777 9.64201
262 3 5.21805 7.89109 15.9329
263 3 6.86347 8.89545 13.7217
264 3 8.33743 9.01491 11.5236
265 3 8.86319 10.6863 13.6336
266 3 6.82264 11.1737 12.0986
102 2 8.85639 13.2168 9.59343
325 1 8.38434 10.988 16.4474
326 2 7.533 10.3401 16.3339
350 2 6.70455 11.7914 15.5852
214 3 1.81963 12.6513 11.9523
30 4 1.40552 13.7913 13.0105
348 2 3.78342 13.55 13.3152
338 2 10.0117 10.8071 9.20189
ITEM: TIMESTEP
100
ITEM: NUMBER OF ATOMS
350
ITEM: BOX BOUNDS xy xz yz pp pp pp
-6.8559279999999996e+00 1.5238200000000001e+01 -6.4077279999999996e+00
-6.4200000000000002e-01 1.4502800000000001e+01 -4.4819999999999999e-01
0.0000000000000000e+00 1.7008500000000002e+01 -6.4200000000000002e-01
ITEM: ATOMS id type x y z
7 4 -0.646767 2.51791 3.62832
295 2 -0.100477 0.465503 0.372275
14 4 0.296337 4.82062 1.97699
321 2 -0.804176 2.70251 7.95313
26 4 4.25879 1.41092 3.12686
34 4 5.27503 3.73758 6.99042
33 4 1.32995 6.41197 4.14432
318 2 1.436 0.708651 1.04501
36 4 4.11222 5.94415 5.20157
57 1 1.32801 0.20553 6.13574
62 1 3.00623 2.52578 3.95155
77 2 1.02882 2.8797 3.99577
195 3 3.98918 4.49921 5.892
79 2 -0.0480637 6.7326 8.29465
82 2 4.65808 2.00111 1.53133
180 3 3.6718 -0.101671 3.02888
103 2 0.852029 1.12277 6.5868
315 1 1.74943 1.08802 0.0687945
117 2 2.30987 1.78464 4.49136
118 2 2.57229 2.9847 3.04423
119 2 3.29763 3.30666 4.69293
164 3 -1.19492 3.61616 2.47725
165 3 1.27925 3.82484 1.05062
166 3 -0.138461 6.14634 1.15304
167 3 -2.25893 6.38166 6.67388
182 3 5.5275 1.60577 4.11638
200 3 2.35283 6.81094 8.39169
189 3 0.87524 5.09378 3.41442
190 3 0.259763 6.87313 5.52172
191 3 4.62934 2.73736 8.09016
194 3 2.84702 6.45624 4.35789
105 2 1.74481 0.369806 5.09993
185 3 5.21251 2.7436 0.133851
9 4 2.69922 -0.149655 7.37063
272 2 5.26711 5.16025 0.0962492
316 2 2.9101 1.09076 0.0363995
8 4 0.874891 2.29695 16.6348
11 4 2.98858 0.0184331 13.5081
13 4 0.846157 1.61019 11.7339
18 4 -0.644058 3.90764 13.1137
19 4 -1.40736 6.28142 10.9563
28 4 4.07954 1.83344 9.27493
31 4 3.76392 2.17379 15.4521
35 4 1.86866 5.82587 9.56919
322 2 -0.323947 3.17865 9.7377
63 1 3.19255 3.17966 10.5674
64 1 4.41404 3.77549 14.729
67 1 1.91058 5.8735 13.8375
83 2 1.61118 2.18185 10.2253
198 3 2.79689 6.14778 10.7881
85 2 0.314231 4.74319 14.3144
317 2 0.842877 -0.143158 16.1178
336 2 -2.36185 6.27931 16.389
120 2 3.82003 2.61934 11.4988
121 2 2.31734 3.7553 11.021
122 2 3.85732 4.01527 10.0308
123 2 4.36154 3.6505 13.6563
125 2 3.71083 4.60608 15.1676
324 2 0.50334 0.0827217 14.4426
132 2 2.06294 4.85856 14.2561
133 2 2.75642 6.23336 13.1162
134 2 0.855362 6.02664 13.3692
161 3 -0.391259 2.15053 15.7564
162 3 -0.424798 0.713137 11.2709
163 3 1.925 0.838353 12.7213
59 1 -2.8106 5.67439 9.84693
169 3 0.428362 2.95367 12.439
170 3 -1.20337 5.07114 12.0565
84 2 2.1086 4.15172 9.24417
184 3 4.04607 0.957804 14.4034
110 2 -2.3909 5.41145 8.85052
186 3 2.18344 2.74025 15.7628
187 3 5.17472 1.13078 10.137
319 1 -1.07161 2.63352 9.0533
193 3 0.201936 6.16853 9.79033
181 3 2.85366 0.951489 8.54067
128 2 5.36156 3.5871 11.3182
168 3 -1.91938 3.0514 13.7623
1 4 -3.69401 13.3356 2.33591
2 1 -4.81352 12.1079 3.66973
3 2 -3.66954 11.5969 3.34995
5 2 -5.07162 12.0412 4.72777
6 3 -3.57789 13.0428 0.734991
111 2 -3.46498 8.24713 0.926047
20 4 -1.93265 9.99214 1.38985
22 4 -2.07474 9.70675 7.7589
138 2 -0.0701035 14.1958 3.4295
39 4 -0.770507 11.7035 3.98045
40 4 2.88649 7.68602 7.29565
42 4 1.84377 11.1732 5.69107
60 1 -3.6379 9.3243 1.39582
61 1 -3.51371 10.1892 6.54
69 1 0.140777 13.1018 3.05845
70 1 -2.00621 12.5753 5.20367
87 2 1.24675 7.68937 2.97051
88 2 1.64798 8.16093 6.29043
100 2 1.94844 10.1161 7.00537
287 2 2.46248 8.78524 4.46202
112 2 -4.16092 10.0573 0.707485
104 2 -5.79164 13.8306 6.15137
115 2 -2.82721 10.3178 5.5953
116 2 -3.83465 11.1817 6.98298
78 2 -2.37457 14.2011 6.19463
139 2 -0.288698 12.9643 2.0866
140 2 1.2156 12.9514 3.00274
141 2 -1.77203 12.1038 6.20763
142 2 -3.08901 12.4178 4.71338
143 2 -1.50674 13.5984 4.97696
171 3 -0.902541 8.69452 1.08246
172 3 -1.9361 11.0905 0.175535
173 3 -1.11477 8.72803 6.93422
174 3 -4.0664 12.9134 8.05058
337 2 -3.26764 8.47648 5.54038
199 3 -1.63097 10.8321 3.06346
202 3 -1.40175 11.0292 8.44833
203 3 0.0251808 13.169 7.77587
205 3 0.533974 10.9795 4.78359
334 2 -5.33021 13.7326 2.83935
278 1 2.58348 9.12332 3.38596
285 2 2.94326 8.13899 2.80149
286 2 1.43922 9.51305 2.9664
290 3 1.92455 11.4227 1.40974
17 4 -0.825906 7.20395 6.77886
16 4 -0.464067 7.33798 0.220305
114 2 -4.41682 9.46777 6.28123
201 3 4.12495 7.22337 6.55319
80 2 -3.11111 8.90168 8.9284
23 4 -4.85139 12.5008 9.37428
24 4 -2.78501 9.26964 11.6805
25 4 -2.57234 12.392 11.3588
197 3 0.252347 6.86334 16.123
37 4 1.5697 7.16893 15.2872
41 4 -0.459595 12.1737 9.11698
43 4 2.51586 9.4419 13.2826
44 4 -0.489958 12.4583 15.4561
45 4 1.75853 11.2805 11.108
72 1 -3.5174 8.93641 13.3515
73 1 -0.374508 10.6834 14.8294
213 3 1.39764 10.1365 12.2958
339 2 -4.3096 13.5677 14.6382
21 4 -3.18137 11.7784 16.4825
147 2 -3.00363 7.9563 13.7011
38 4 3.66446 7.51317 11.0102
149 2 -3.47716 9.80996 14.0439
150 2 0.375037 10.2824 15.6191
151 2 -0.0677152 10.6416 13.7839
152 2 -1.42772 10.253 14.9797
175 3 -1.96844 7.70582 11.4213
176 3 -4.22971 11.295 15.2687
177 3 -4.04568 12.4433 10.6794
178 3 -2.17429 10.6575 11.8339
179 3 -2.70895 13.4603 12.5777
196 3 2.95815 6.78685 16.0998
81 2 -4.22486 9.46547 10.4627
323 1 -6.22797 13.4712 14.4578
204 3 -1.26557 12.8541 10.3703
207 3 1.51341 8.58564 14.4973
209 3 0.500136 12.4559 16.7155
210 3 0.342049 13.2771 14.1597
211 3 -2.15559 12.8116 15.8932
212 3 0.868449 11.4122 9.7707
146 2 2.78666 9.59604 8.78834
102 2 -6.24215 13.4172 9.64187
208 3 3.35451 8.36569 12.2985
15 4 11.693 6.78923 5.78285
46 4 9.8191 2.3375 3.83618
49 4 12.1909 1.7208 5.66176
50 4 11.1268 5.01375 3.24856
51 4 7.03872 6.07009 4.23948
52 4 9.62831 6.43822 1.08873
53 4 10.538 3.40426 7.6447
54 4 8.97846 5.76272 6.67164
66 1 5.96303 5.15236 8.0684
91 2 9.65409 1.51789 2.33043
94 2 12.6842 4.30104 2.98982
95 2 7.3675 4.81206 3.17511
29 4 6.87436 1.8367 5.21282
280 2 5.4892 6.93361 0.837232
268 1 6.47638 5.32606 0.359424
129 2 6.25114 5.94713 7.27727
192 3 6.47785 2.96104 6.22133
215 3 8.41526 2.11233 4.37319
219 3 13.659 2.37047 4.85726
220 3 10.9328 1.55622 4.58898
221 3 12.5523 0.372779 6.50574
222 3 10.0542 3.93364 3.52502
223 3 11.4337 6.03148 4.4152
224 3 5.45318 6.05564 4.34632
225 3 10.8652 5.83064 1.74519
98 2 8.18365 6.30094 8.11314
227 3 11.6672 2.84519 6.71477
228 3 10.242 6.77495 6.71757
229 3 7.85217 5.92832 5.60494
230 3 9.43842 4.27401 6.88629
271 2 6.63938 5.67068 1.46516
294 4 13.9253 0.375841 1.6258
347 2 8.69413 0.55688 1.1577
217 3 8.80501 -0.170073 8.11496
297 3 12.5696 1.00982 1.01463
298 4 11.8871 2.2198 0.0998571
340 2 12.1921 3.72383 0.782769
267 4 6.5578 3.39221 0.673325
96 2 8.35151 5.34856 0.980848
269 2 6.73981 3.18441 2.40878
183 3 7.21481 0.509581 6.03784
296 3 14.648 1.04314 2.89732
10 4 13.8841 1.00851 9.90717
335 2 13.9734 0.326875 14.1773
32 4 6.71745 1.56305 10.9495
48 4 9.10046 1.00579 9.11551
58 1 11.9149 0.810455 10.6973
65 1 6.35147 3.28044 11.7713
68 1 5.36866 6.74907 11.4851
93 2 9.94355 0.382937 10.4818
216 3 14.1287 -0.31239 8.52779
313 3 7.42629 2.30148 16.8536
107 2 11.719 1.74569 10.0301
108 2 11.7001 1.01911 11.7269
126 2 7.15828 3.95218 11.4763
127 2 6.25296 3.07947 12.9026
109 2 12.0823 4.79682 10.6018
106 2 11.5208 -0.103561 10.1955
131 2 5.15029 5.51892 8.77553
135 2 6.4845 6.63049 10.9881
188 3 7.27605 0.599286 12.0803
226 3 9.89015 2.25079 8.50717
270 2 6.78625 5.36454 16.5021
218 3 7.84837 1.78099 9.68146
243 1 8.27147 6.43556 10.0853
245 2 6.53649 6.11573 14.1353
248 2 8.02188 5.29452 15.7132
256 2 7.34704 6.01556 9.56892
257 2 8.26931 6.35199 11.2053
258 2 9.13615 5.97797 9.55494
124 2 5.49402 3.83937 15.1414
299 4 8.62104 1.90668 15.949
300 4 9.40407 4.03823 13.6588
301 1 9.65878 3.0313 12.077
302 1 10.9735 5.15809 14.0862
303 2 8.28299 0.430685 15.1436
304 2 8.18049 5.33322 13.4753
305 2 10.7512 2.98005 11.9764
306 2 9.15914 3.61812 11.2431
307 2 9.08095 2.06892 12.2802
308 2 10.909 6.1158 13.5043
309 2 11.939 4.65031 13.8015
310 2 10.9506 5.39664 15.1799
311 3 12.1253 1.49939 15.6451
99 2 9.44749 6.05667 16.4399
342 2 11.7174 6.62216 9.92305
314 3 9.05998 3.00899 14.8206
240 1 7.93713 6.26047 15.1702
329 2 9.73762 0.800905 13.7965
328 1 9.39312 -0.298731 13.6799
97 2 11.4352 4.34907 8.74631
12 4 13.5226 1.8605 14.8434
130 2 6.84064 4.69947 8.60717
136 2 4.86611 5.70978 11.7782
320 2 13.0876 3.07342 9.28562
247 2 8.9097 6.57781 14.581
312 3 9.90624 1.55645 16.9046
279 1 2.70002 14.2297 1.71559
47 4 6.7892 13.6827 7.28671
55 4 8.4869 8.45453 2.99138
332 2 8.05733 12.6364 1.55496
74 1 7.5761 10.2558 2.54069
75 1 9.98151 8.94922 4.12681
327 2 9.83443 11.2462 0.183701
71 1 3.57737 9.42386 7.92683
288 2 2.17967 14.0435 2.73586
144 2 3.63821 10.1339 7.07858
153 2 6.66087 10.2899 3.10228
154 2 7.41678 9.98588 1.43436
155 2 8.33633 11.0945 2.65627
4 2 9.54407 11.6887 3.00858
157 2 9.55309 8.64554 5.1514
158 2 10.1996 10.0967 4.05713
92 2 5.5445 12.835 8.25361
231 3 7.5332 7.43108 3.63882
232 3 9.09459 7.76858 1.66605
331 2 7.57158 13.077 3.32975
293 3 7.63868 12.6656 6.3132
274 4 3.34328 10.309 2.00818
275 4 2.2985 12.7057 0.534203
276 4 4.72904 12.2914 3.9993
277 4 6.98277 11.3481 5.68068
333 2 6.11274 12.6583 2.08638
206 3 2.38161 12.594 6.0805
281 2 5.6194 13.6358 3.37209
282 2 3.44546 13.1239 4.78236
283 2 8.05276 10.8986 4.37424
284 2 7.00797 10.0541 6.76836
252 2 10.7002 9.47391 8.10023
289 3 4.03557 9.32521 0.879007
330 1 7.1854 13.1381 2.26281
291 3 4.25573 11.3207 2.87232
292 3 5.53362 11.5642 5.09956
156 2 10.867 8.29998 3.89225
89 2 3.06707 10.4248 4.8273
254 2 6.51757 8.4608 8.22561
27 4 1.30345 13.7524 7.03458
346 2 3.79049 14.0593 1.75115
145 2 4.69494 9.22377 8.3909
250 2 8.59964 9.60056 8.36029
113 2 11.0545 9.20177 2.44302
344 2 8.48659 13.1824 13.4783
56 4 4.03301 11.2074 15.3236
76 1 5.72354 12.0739 15.3127
341 2 6.22206 14.0154 11.9678
90 2 3.29532 10.8948 10.3779
101 2 5.42808 10.3073 16.0016
349 2 2.96929 13.6904 14.7121
345 2 8.07082 11.8489 16.8844
159 2 5.24862 13.0977 15.8491
160 2 5.80008 12.3779 14.2028
86 2 3.96363 8.68207 9.77337
233 3 3.45621 10.532 13.9945
234 3 3.10834 11.7641 16.4951
273 4 4.19895 7.5591 16.9101
236 4 6.48438 7.8426 14.9816
237 4 8.36426 8.52595 9.91345
238 4 7.71119 10.0351 12.7706
239 4 5.96043 12.405 11.3072
148 2 10.5916 8.74666 12.8578
241 1 10.1699 9.0261 9.0445
242 1 6.51666 8.83866 9.23688
244 1 4.8784 11.8573 9.76016
246 2 6.63047 12.3524 9.5972
251 2 10.1431 7.71435 8.88027
249 2 7.89367 7.78192 16.1657
343 2 8.29165 13.2464 15.3952
137 2 5.47419 7.42316 12.373
253 2 6.00776 8.00515 10.1051
235 4 9.451 11.3715 14.8807
255 2 6.14045 9.93416 9.36262
259 2 4.23434 12.2054 8.80381
260 2 4.07167 12.3568 11.2743
261 2 4.98574 10.7042 9.73155
262 3 5.30948 8.05619 15.9478
263 3 6.93739 8.9937 13.8513
264 3 8.36823 9.27364 11.3785
265 3 8.92944 10.5839 13.6413
266 3 6.69289 11.2022 12.2164
338 2 9.69058 10.9535 9.02385
325 1 8.49584 10.8921 16.5084
326 2 7.73338 10.0666 16.3956
350 2 6.79243 11.7191 15.7453
214 3 1.80104 12.6474 11.8572
30 4 1.30941 13.7643 12.8553
348 2 3.66248 13.6846 12.8849
ITEM: TIMESTEP
200
ITEM: NUMBER OF ATOMS
350
ITEM: BOX BOUNDS xy xz yz pp pp pp
-6.8559279999999996e+00 1.5238200000000001e+01 -6.4077279999999996e+00
-6.4200000000000002e-01 1.4502800000000001e+01 -4.4819999999999999e-01
0.0000000000000000e+00 1.7008500000000002e+01 -6.4200000000000002e-01
ITEM: ATOMS id type x y z
7 4 -0.76043 2.61142 3.57549
183 3 6.94517 0.33409 6.0065
14 4 0.300049 4.79611 1.87526
321 2 -1.31603 2.7621 8.07589
26 4 4.25906 1.48916 3.22083
34 4 5.38846 3.7544 7.07014
33 4 1.18765 6.42544 4.20618
318 2 1.21343 0.694308 1.22817
36 4 4.08963 5.89513 5.32585
57 1 1.49721 0.39285 6.19596
62 1 2.8231 2.34765 4.0874
77 2 0.904604 2.90287 4.114
195 3 4.06391 4.31176 5.91965
79 2 -0.108165 6.31988 8.11954
82 2 4.63969 2.10963 1.64383
316 2 2.80853 1.13713 0.237454
103 2 1.31119 1.49536 6.46038
315 1 1.63949 1.06514 0.199065
117 2 2.23038 1.60519 4.75437
118 2 2.27433 2.72839 3.08322
119 2 3.4265 3.14772 4.68369
164 3 -1.19537 3.67143 2.38335
165 3 1.34777 3.87084 0.994795
166 3 -0.22029 6.13403 1.18877
167 3 -2.15155 6.29253 6.53029
182 3 5.67571 1.54575 4.04817
200 3 2.16516 6.76756 8.37599
189 3 0.818601 5.14453 3.3123
190 3 0.383347 6.67182 5.49536
191 3 4.6091 3.02795 8.23333
194 3 2.66601 6.37497 4.60473
105 2 1.6894 0.271119 5.07512
185 3 5.14536 2.69499 0.135724
9 4 2.72364 -0.20935 7.49108
272 2 5.19587 5.18935 0.115081
180 3 3.60941 0.0385624 2.93456
296 3 -0.57546 1.21366 2.77724
8 4 0.898881 2.28159 16.6591
11 4 3.02649 0.0359979 13.3766
13 4 0.875654 1.66666 11.7635
18 4 -0.672926 4.04796 13.0703
19 4 -1.34811 6.23768 10.9665
28 4 3.96128 2.0347 9.30424
31 4 3.85053 2.32908 15.3865
35 4 1.70213 5.81558 9.60904
322 2 -0.254493 3.08614 9.55812
63 1 3.00462 3.28463 10.5957
64 1 4.64436 3.84769 14.6093
67 1 1.96029 5.78508 13.9276
83 2 1.50964 2.10996 10.2018
198 3 2.53653 6.09576 10.9771
85 2 0.174767 4.98751 14.2305
317 2 0.809784 -0.2022 16.2371
336 2 -2.25979 6.11283 16.1954
120 2 3.47473 2.66161 11.5006
121 2 2.09915 3.76132 11.0317
122 2 3.69916 4.13772 10.3096
123 2 4.38886 3.8606 13.5305
125 2 4.163 4.74383 15.2148
324 2 0.632737 0.000293802 14.5349
132 2 1.94682 4.76114 14.4165
133 2 2.87758 5.95281 13.2911
134 2 1.055 6.01014 13.2848
161 3 -0.514853 2.10508 16.1171
162 3 -0.369799 0.798323 11.2872
163 3 1.92858 0.852969 12.5272
59 1 -2.84909 5.73625 9.91968
169 3 0.351695 3.01513 12.4473
170 3 -1.22989 5.14721 12.0499
84 2 1.92119 4.19036 9.20242
184 3 3.83895 1.22849 14.2962
110 2 -2.31107 5.53648 8.91729
186 3 2.21601 2.62042 15.7959
187 3 5.10511 1.27808 10.144
319 1 -1.26422 2.70425 9.15576
193 3 0.120917 6.14815 9.74139
181 3 2.8112 1.00541 8.53334
128 2 5.2255 3.52789 11.5951
168 3 -1.77352 3.15696 13.8314
342 2 -3.40371 6.77162 10.0263
1 4 -3.73597 13.3803 2.2804
2 1 -4.75369 12.3667 3.60791
3 2 -3.55514 11.4606 3.15868
5 2 -4.62653 12.6473 4.71511
6 3 -3.82912 13.0609 0.748614
111 2 -3.47252 8.22044 0.994911
20 4 -1.87446 9.94249 1.27746
22 4 -1.99559 9.60927 7.56352
138 2 -0.341232 14.0426 3.12798
39 4 -0.726878 11.667 4.04687
40 4 2.95145 7.59029 7.34281
42 4 1.8421 11.2529 5.70775
60 1 -3.628 9.24298 1.32386
61 1 -3.56441 10.181 6.5112
69 1 0.13604 13.005 2.89461
70 1 -1.98003 12.5658 5.27491
87 2 0.988189 7.83517 3.22901
88 2 1.94559 8.55695 6.4104
100 2 2.00905 10.2551 7.16441
287 2 2.29533 9.14687 4.48855
112 2 -4.18836 9.89224 0.593794
104 2 -5.77244 14.224 6.53623
115 2 -2.87302 10.4945 5.67655
116 2 -3.89336 11.0541 7.15884
78 2 -2.16738 14.0101 6.60845
139 2 -0.115721 12.6538 1.79605
140 2 1.31585 13.0552 3.08208
141 2 -1.84942 12.2 6.3808
142 2 -3.0871 12.3466 4.66953
143 2 -1.5284 13.5994 4.94672
171 3 -1.05141 8.64361 0.860656
172 3 -1.96238 11.1412 0.164883
173 3 -0.989095 8.57362 6.82417
174 3 -4.18222 12.8144 8.01623
337 2 -3.26806 8.50597 5.5091
199 3 -1.465 10.6354 2.93339
202 3 -1.28443 10.7908 8.33311
203 3 0.0962682 13.0049 7.92531
205 3 0.363302 11.1233 5.12122
334 2 -5.38415 13.8827 2.74079
278 1 2.40361 9.23627 3.37897
285 2 2.78111 8.22482 2.87494
286 2 1.35786 9.66664 2.87365
290 3 2.29654 11.2081 1.35682
17 4 -0.626295 7.06577 6.66297
16 4 -0.561628 7.26224 0.145498
113 2 -4.13098 9.31891 2.3966
27 4 1.20251 13.8268 7.0479
80 2 -3.10962 8.76221 8.62408
23 4 -4.88151 12.2903 9.30302
24 4 -2.80333 9.21876 11.6828
25 4 -2.56133 12.3638 11.3569
197 3 0.260812 6.93396 16.1439
37 4 1.71441 7.12801 15.31
41 4 -0.429612 11.9353 9.05158
43 4 2.41 9.42943 13.3483
44 4 -0.44498 12.3979 15.3097
45 4 1.71846 11.265 11.0862
72 1 -3.89275 8.86927 13.1074
73 1 -0.28142 10.562 15.0272
213 3 1.19018 10.2248 12.2215
339 2 -4.31881 13.6746 14.4735
21 4 -3.16268 11.7548 16.4949
147 2 -3.22753 7.90661 13.5447
38 4 3.59904 7.44049 11.1963
149 2 -3.89742 9.85478 13.7431
150 2 0.398909 10.1535 15.829
151 2 0.219455 10.3821 13.9989
152 2 -1.34458 10.1735 15.134
175 3 -1.77608 8.02825 11.2698
176 3 -4.1853 11.2163 15.2808
177 3 -3.99796 12.3399 10.5937
178 3 -2.31678 10.7187 11.8746
179 3 -2.5168 13.505 12.5674
196 3 2.96586 6.80006 16.3141
81 2 -4.26011 9.31009 10.3396
323 1 -6.29242 13.4964 14.4869
204 3 -1.48513 12.6836 10.1618
207 3 1.83426 8.62408 14.6157
209 3 0.65268 12.7856 16.7785
210 3 0.295918 13.0741 14.0178
211 3 -2.02679 12.6937 15.8647
212 3 0.836537 11.1909 9.7688
146 2 2.70057 9.60244 8.9401
208 3 3.11144 8.37542 12.3228
15 4 11.8206 6.78263 5.68674
46 4 9.76312 2.37945 3.84331
49 4 12.2425 1.83917 5.5367
50 4 11.1577 5.02009 3.15363
51 4 7.10647 6.16632 4.31267
52 4 9.6165 6.48231 1.05639
53 4 10.6779 3.42307 7.54801
54 4 9.11688 5.8683 6.67522
66 1 6.25746 5.14581 8.08381
91 2 9.40462 1.60668 2.38814
94 2 12.6826 4.29296 2.87098
95 2 7.6474 5.06252 3.20497
29 4 6.91904 1.73686 5.25473
280 2 5.56271 7.09416 0.916572
268 1 6.31052 5.31633 0.465924
129 2 6.20917 6.00575 7.33569
192 3 6.46381 2.87282 6.27599
215 3 8.34496 2.27822 4.56815
219 3 13.5249 2.44653 4.87573
220 3 10.963 1.62029 4.47913
221 3 12.5237 0.323742 6.54157
222 3 10.3206 3.81518 3.52014
223 3 11.5008 6.06395 4.2907
224 3 5.53482 5.95148 4.44616
225 3 10.7882 5.81423 1.72677
98 2 8.42326 6.33071 8.15933
227 3 11.899 3.03003 6.64024
228 3 10.4 6.80959 6.58893
229 3 8.01945 6.05289 5.55086
230 3 9.48278 4.38002 6.92293
271 2 6.41936 5.43031 1.57919
294 4 13.8862 0.466972 1.56184
347 2 8.71582 0.571294 1.32881
217 3 8.60965 0.0333728 8.09664
297 3 12.5359 1.10064 1.07185
130 2 7.3483 4.78918 8.26073
340 2 12.1643 3.73289 0.623445
267 4 6.56246 3.32295 0.600391
96 2 8.15762 5.59567 1.06925
269 2 6.80247 3.1626 2.1992
226 3 9.94505 2.21626 8.28594
295 2 15.0132 0.480227 0.210299
10 4 13.8713 0.976028 9.90278
335 2 14.1621 0.571906 14.0697
32 4 6.5138 1.48385 10.9309
48 4 9.03274 1.16921 9.05542
58 1 11.9432 0.692172 10.6556
65 1 6.30382 3.28088 11.7175
68 1 5.38528 6.80233 11.5854
93 2 10.027 0.455199 10.2453
247 2 8.83025 6.35194 14.7768
313 3 7.37065 2.43541 16.7582
107 2 11.6473 1.62807 10.0323
108 2 11.4463 0.766433 11.7006
126 2 6.98275 3.98712 11.2134
127 2 6.63104 3.13101 12.7873
109 2 11.9691 4.83381 10.4318
106 2 11.5424 -0.232484 10.1599
131 2 5.73994 5.40382 9.0486
135 2 6.39673 6.76619 10.9863
188 3 6.96312 0.570874 12.1424
136 2 5.01438 5.76549 11.8913
270 2 6.58888 5.31132 16.5797
218 3 7.79387 1.86039 9.83316
243 1 8.20507 6.48043 10.1369
245 2 6.54743 6.04795 14.2376
248 2 7.95795 5.11789 15.8341
256 2 7.39804 6.03996 9.48768
257 2 8.21803 6.17885 11.2595
258 2 9.22123 6.18705 9.71241
124 2 5.81897 3.64055 14.8497
299 4 8.64616 1.94264 16.028
300 4 9.31308 3.92939 13.5715
301 1 9.57864 3.01664 12.0108
302 1 10.9878 4.9882 13.9224
303 2 8.16584 0.497087 15.2176
304 2 8.19007 5.31028 13.6162
305 2 10.7291 3.25573 11.9073
306 2 8.8729 3.62318 11.2855
307 2 9.40669 1.90084 12.1198
308 2 11.0631 5.6039 12.9829
309 2 11.7662 4.19388 14.0729
310 2 10.9187 5.61352 14.8437
311 3 12.1787 1.55698 15.589
99 2 9.4932 6.18084 16.3943
298 4 11.3921 1.572 16.9959
314 3 9.08308 2.97853 14.8444
240 1 7.83553 6.13491 15.3185
329 2 9.21776 0.960116 13.7523
328 1 9.24113 -0.168752 13.7197
97 2 11.46 4.46658 8.71183
12 4 13.6051 1.92808 14.9511
320 2 13.0794 3.20594 9.63358
312 3 9.81358 1.35275 16.9893
279 1 2.84842 14.1966 1.75316
47 4 6.75505 13.6506 7.43046
55 4 8.5098 8.52264 2.93272
332 2 8.00326 12.7349 1.44539
74 1 7.6666 10.241 2.65666
75 1 9.99407 9.19557 4.11822
201 3 4.25829 7.0675 6.70143
71 1 3.50267 9.32812 8.12706
288 2 2.48876 13.7928 2.77267
144 2 3.60663 10.0551 7.28058
153 2 6.63961 10.3785 3.18808
154 2 7.59965 10.1458 1.52263
155 2 8.412 11.1273 2.9635