ITEM: TIMESTEP
0
ITEM: NUMBER OF ATOMS
350
ITEM: BOX BOUNDS xy xz yz pp pp pp
-6.7780090000000000e+00 1.5390582000000000e+01 -6.3253269999999997e+00
-6.4200000000000002e-01 1.4502800000000001e+01 -4.5268199999999997e-01
0.0000000000000000e+00 1.7008500000000002e+01 -6.4200000000000002e-01
ITEM: ATOMS id type x y z
7 4 -0.875596 2.57643 3.53103
180 3 3.42971 0.364842 3.31548
14 4 0.00838234 4.96588 1.8811
17 4 -0.65654 6.08822 6.41842
26 4 4.6601 1.43259 3.50131
318 2 0.81408 0.936741 0.121661
33 4 1.73179 5.99197 4.28636
9 4 2.80821 -0.269371 7.26265
36 4 4.62853 5.65276 5.45878
57 1 1.4122 0.856422 6.60227
62 1 4.6763 3.14643 2.50079
77 2 0.742866 2.58898 3.92147
201 3 4.20616 6.83926 6.63898
79 2 -0.541409 4.9055 7.66473
82 2 5.14589 1.58433 1.73915
181 3 3.55366 0.588184 8.43716
104 2 1.75137 0.893652 5.50814
105 2 1.49877 1.85557 7.14463
117 2 3.66178 3.10413 3.84539
118 2 4.03984 3.83504 1.7786
119 2 5.63266 3.66626 2.87749
164 3 -1.36562 3.83636 2.6436
165 3 0.912873 4.09886 0.705157
166 3 -0.781141 6.20963 1.18219
167 3 -2.08084 6.03785 5.61685
182 3 5.92478 1.14793 4.49814
320 2 -1.09613 2.98277 7.38939
189 3 1.01114 5.34299 3.0678
190 3 0.768824 5.91362 5.55134
191 3 5.48054 2.37223 8.09758
194 3 3.35035 5.50055 4.44735
195 3 4.83149 4.321 6.36451
334 2 1.02671 0.544246 1.93267
316 2 1.98069 1.99681 1.33433
315 1 1.76984 1.49409 0.318285
103 2 0.446487 0.328286 6.7877
271 2 5.14754 5.08124 1.22827
269 2 6.29835 2.92323 1.41687
8 4 0.763243 2.50356 16.4514
324 2 0.572556 -0.399603 14.8176
13 4 0.859164 1.65326 11.1931
18 4 -0.419054 3.94219 12.7541
19 4 -1.42121 6.22633 10.9298
28 4 4.40497 1.78086 9.09569
31 4 3.51636 1.95611 14.6464
35 4 1.49132 6.00094 9.96904
11 4 2.6243 -0.372228 12.9509
63 1 3.1809 3.32481 9.3541
64 1 3.92077 2.81882 13.024
67 1 2.34416 5.67476 14.5696
83 2 1.60333 2.16038 9.72625
319 1 -0.91406 3.11119 8.54395
85 2 0.65625 4.70307 13.9142
121 2 2.32122 3.32307 8.60281
110 2 -2.51177 5.76754 8.8194
120 2 2.79762 3.21737 10.4175
200 3 2.39212 6.50325 8.77738
122 2 3.87067 4.20384 9.25867
123 2 2.98713 3.42578 12.8221
124 2 4.28039 2.25644 12.1435
125 2 4.82524 3.47658 13.4569
132 2 2.18288 4.58878 14.8039
133 2 3.46598 5.87482 14.5013
134 2 1.78828 5.93618 13.5134
161 3 -0.60066 2.18144 15.621
162 3 -0.426533 0.771253 10.5392
163 3 1.8637 0.663093 11.9518
168 3 -1.58159 3.08271 13.4087
169 3 0.493781 2.96663 11.8756
170 3 -1.17351 5.19231 12.0163
84 2 1.533 4.31126 9.79443
184 3 3.2044 0.429679 14.2478
185 3 4.78302 2.26934 15.7912
186 3 1.95962 2.88933 15.4529
187 3 5.01217 1.49226 10.552
135 2 4.63414 4.8752 11.6068
193 3 -0.0860704 6.41436 9.89887
198 3 2.19361 6.27248 11.3146
322 2 -1.56581 4.02886 9.02431
321 2 0.139399 3.12282 8.85167
272 2 4.52563 5.22328 16.4408
197 3 0.289062 6.62929 16.1206
336 2 -2.37435 6.47505 15.9498
317 2 2.21356 0.413999 16.9032
1 4 -4.07396 13.9873 2.51752
2 1 -4.73265 12.7036 3.72599
3 2 -4.53881 12.8039 4.83312
114 2 -3.9055 9.60263 5.72248
6 3 -3.47659 13.3172 1.19016
111 2 -2.49897 9.14586 3.38185
20 4 -1.54382 9.88449 1.40681
22 4 -1.30215 9.04356 7.36997
80 2 -3.06176 8.87188 7.83159
39 4 -0.235879 11.6322 3.84406
40 4 3.18567 7.44692 7.67671
42 4 1.76698 10.8821 6.23929
60 1 -2.77334 8.71183 2.37891
61 1 -2.93618 9.84848 6.44894
69 1 0.83155 13.1507 3.19697
70 1 -1.70536 12.4653 4.87113
87 2 1.89445 7.6925 3.98675
88 2 1.92083 8.18025 6.60519
100 2 0.745915 10.3525 7.59164
78 2 -2.50048 14.0129 5.80778
71 1 2.83302 9.52188 7.69764
287 2 2.50489 8.22357 2.21558
115 2 -1.57739 9.92922 5.65886
116 2 -3.12439 10.8526 6.83548
138 2 0.661148 13.1897 2.10659
89 2 3.07087 9.64231 5.84473
140 2 0.460874 14.1077 3.68963
141 2 -1.47684 11.9245 5.86001
142 2 -2.81117 12.5397 4.56124
143 2 -1.12804 13.5136 4.9405
171 3 -0.609833 8.84402 0.622211
172 3 -2.6132 10.8893 0.368826
173 3 -0.78599 7.55521 7.16262
174 3 -4.11736 12.8356 7.83197
4 2 -4.34189 11.7693 3.21867
199 3 -0.835682 10.6965 2.64459
202 3 -0.546354 10.3094 8.38902
203 3 0.483137 13.1057 8.30622
205 3 0.695082 10.8522 4.92237
337 2 -2.88824 8.43007 5.04851
278 1 2.03404 9.12733 2.66533
285 2 1.16818 9.54578 2.05519
286 2 1.84764 9.1123 3.79793
113 2 -3.85219 9.04978 2.06586
16 4 -0.568557 7.32315 0.0107579
112 2 -2.44316 7.64369 2.23491
99 2 -3.40093 8.0318 0.599813
146 2 2.14261 9.8214 8.46683
45 4 2.06939 11.387 11.6625
23 4 -4.55702 11.9323 9.01321
24 4 -3.04254 9.00631 11.8771
25 4 -2.39331 11.8774 11.1935
30 4 0.990694 13.7633 13.2939
37 4 1.7246 7.14596 15.6851
41 4 0.117909 11.8891 9.30929
43 4 2.71372 9.22113 13.6267
44 4 -0.509604 11.9804 15.6135
210 3 -0.188738 13.2209 14.2951
72 1 -3.83557 8.62832 13.5123
73 1 -0.823538 10.2978 14.8588
213 3 1.85874 9.94362 12.3167
339 2 -5.05709 13.1978 13.4177
211 3 -1.79007 12.3774 16.5414
147 2 -3.65757 7.48071 14.0482
38 4 3.68473 7.07403 11.7324
149 2 -3.39746 9.36584 14.1809
150 2 0.095161 9.62305 14.8158
151 2 -1.29557 10.4956 13.7955
152 2 -1.5704 9.85685 15.6011
175 3 -2.2473 7.66641 11.4433
176 3 -4.26249 11.8103 15.7028
177 3 -3.58089 11.5893 10.1829
178 3 -2.09384 10.4501 12.1263
179 3 -2.78721 13.0601 12.2837
209 3 0.86788 11.9417 16.481
196 3 2.9617 7.06767 16.7377
212 3 1.49901 11.3873 10.163
204 3 -0.992705 12.3627 10.2468
207 3 1.68076 8.59221 14.6852
21 4 -3.28456 11.7751 16.9584
81 2 -4.4378 9.26381 10.7325
15 4 11.9644 6.77708 5.25616
46 4 9.72371 2.4145 3.28341
49 4 12.045 1.79797 5.17194
50 4 10.9956 5.10108 2.85726
51 4 7.46178 6.33406 4.65106
228 3 10.6943 6.86546 6.27101
53 4 10.6556 3.42124 7.51404
54 4 9.44212 6.18202 6.94969
346 2 9.77104 0.549166 0.565217
91 2 9.62527 1.77347 1.67518
94 2 12.4179 4.09394 2.66058
95 2 8.38464 5.16806 3.8052
34 4 6.01796 3.51855 7.12071
347 2 7.81907 0.578955 0.901534
297 3 12.4265 1.63115 0.599284
129 2 6.67885 5.76261 8.09908
192 3 7.17247 3.02614 6.10756
215 3 8.63821 1.80754 4.22487
219 3 13.7276 2.54755 4.95575
220 3 11.1522 1.95551 3.8316
221 3 12.3281 0.242625 5.59843
222 3 9.4876 4.13866 3.21448
223 3 11.3975 6.28416 3.81237
224 3 5.97387 5.98595 4.49699
225 3 10.7492 5.70487 1.4101
268 1 5.69839 5.34009 0.207389
227 3 11.358 2.65351 6.3628
226 3 9.8482 2.39059 8.42665
229 3 7.97843 6.3643 6.22003
230 3 9.85473 4.73879 7.21112
216 3 13.1193 0.526778 8.15138
294 4 13.0156 0.581799 1.68701
183 3 7.79047 0.353958 6.34338
296 3 14.267 1.15289 2.70185
29 4 7.4603 1.60166 5.3259
280 2 5.49189 7.05115 1.19052
279 1 8.87236 0.0255431 1.11093
270 2 6.77844 5.8296 0.314849
52 4 10.4988 7.1427 0.873449
333 2 11.4618 -0.0957184 2.60283
340 2 12.7595 4.10516 0.0359674
10 4 13.7644 1.54659 9.33756
310 2 11.4686 6.53065 15.1238
32 4 6.75789 1.4041 11.1004
48 4 9.41852 1.10026 9.30825
58 1 12.325 2.22318 10.5559
65 1 7.2325 3.20231 11.4156
68 1 5.07228 5.7965 12.2406
93 2 10.7143 1.07476 10.4537
188 3 6.96936 0.590781 12.5199
106 2 12.1556 1.20751 11.1346
107 2 11.3881 2.70056 10.1039
108 2 12.877 2.97537 11.2131
126 2 8.32115 3.3566 11.7325
127 2 6.49943 3.56101 12.2259
128 2 6.99087 3.74114 10.3184
342 2 11.603 5.88861 10.2756
136 2 4.92209 5.61119 13.3405
12 4 13.702 1.81861 14.4478
109 2 12.477 4.17956 10.0672
96 2 9.52017 6.48066 16.2505
130 2 7.73057 4.28268 8.75628
218 3 8.00613 1.22609 10.1082
243 1 8.21186 6.07114 11.0851
131 2 5.96933 4.56583 9.43483
248 2 7.99878 6.52068 14.8476
256 2 7.64687 5.55115 10.1812
257 2 8.09303 5.42504 12.0214
258 2 9.41903 6.17741 10.6976
298 4 11.4967 2.06562 16.5263
299 4 8.77632 2.9629 15.5838
300 4 10.0618 5.00964 13.6389
301 1 10.3197 3.67984 12.207
302 1 11.8129 5.57108 14.5894
303 2 8.62893 1.85152 14.3246
304 2 9.13518 6.30093 12.8087
305 2 9.73454 2.74478 12.467
306 2 11.4764 3.69803 12.3311
307 2 9.93425 4.28816 11.2978
349 2 8.02652 0.562585 15.2132
309 2 12.159 4.74017 15.2811
137 2 6.30435 5.93546 11.8293
311 3 12.1809 1.58675 15.0294
312 3 10.0094 2.46371 16.5006
313 3 7.3013 3.00105 16.182
314 3 9.10059 4.42491 14.6812
328 1 8.70861 -0.0939242 14.5435
329 2 9.39871 0.410952 13.7876
335 2 14.0109 0.248703 13.8503
267 4 5.8739 2.95951 16.8
66 1 6.66715 4.7173 8.60031
59 1 12.5188 5.38415 9.82382
308 2 12.3133 5.66484 13.5693
97 2 11.9135 4.05299 8.53662
156 2 11.1197 9.12656 3.69041
144 2 3.83659 10.0813 7.90597
55 4 8.61384 8.7436 3.13003
332 2 5.65448 12.3322 1.71216
74 1 7.63413 10.5234 2.81817
75 1 10.0255 9.28722 4.31213
206 3 2.43297 12.2342 6.59541
92 2 4.76956 13.6335 7.58059
47 4 6.28209 14.0261 7.02171
139 2 1.93804 12.944 3.43829
153 2 6.97889 10.7138 1.89491
154 2 8.38148 11.3597 2.94865
155 2 6.89977 10.4242 3.66141
345 2 9.87616 11.1198 0.426286
157 2 9.79445 8.60688 5.21391
158 2 9.6814 10.3797 4.46759
275 4 2.64474 12.8036 0.327662
27 4 1.75438 13.7428 7.50965
232 3 9.49144 8.07134 1.69739
330 1 6.24729 13.1885 2.01243
273 4 4.84652 8.36104 0.286205
274 4 3.59456 10.336 2.22248
250 2 9.2045 9.01219 8.36689
276 4 4.80468 11.6776 4.74794
277 4 7.32165 11.3895 6.09933
331 2 6.91268 12.9752 2.99359
295 2 7.22239 13.393 0.688696
281 2 5.52917 13.0048 3.83309
282 2 3.70918 12.7004 5.52404
283 2 8.09582 11.4468 4.49582
284 2 8.08865 10.0686 6.85864
98 2 9.34656 7.02396 8.45121
289 3 4.62616 9.50991 1.32098
231 3 7.79119 7.60428 3.83483
291 3 4.08583 10.7682 3.6836
292 3 5.73197 10.9255 5.84501
293 3 7.32631 12.7855 6.8294
290 3 2.93403 11.7229 1.45673
338 2 10.118 10.4333 8.46921
288 2 2.68503 14.3167 2.21257
217 3 3.01833 14.1482 8.40731
5 2 9.50503 12.8951 3.41304
344 2 8.36396 13.2255 13.6824
56 4 4.59466 11.385 15.1951
76 1 5.58006 12.5568 14.1376
86 2 4.40759 7.84251 10.3658
90 2 3.85148 11.5545 11.3527
101 2 5.78785 10.5524 16.0939
254 2 6.35154 8.12263 8.68981
252 2 9.82479 9.76593 9.96509
159 2 5.41867 12.0457 13.1385
160 2 6.74053 12.6961 14.4737
214 3 1.71025 12.6254 12.5221
233 3 3.78036 10.4799 14.2081
234 3 3.61761 12.2568 16.1626
235 4 9.5219 11.4084 15.1394
236 4 6.33945 8.19958 14.8476
237 4 8.01629 8.00486 10.741
238 4 7.81242 10.1653 12.9858
239 4 6.77758 12.5169 10.971
240 1 7.98288 7.44338 15.4731
241 1 9.67501 8.77653 9.36112
242 1 6.31932 8.07221 9.80122
244 1 5.14549 12.0122 10.0541
246 2 6.72164 12.1643 9.14575
247 2 8.84742 8.16503 15.2128
326 2 7.7507 11.1728 16.8756
251 2 10.6928 8.16557 9.21816
343 2 7.91684 13.434 15.4694
253 2 6.086 6.92088 10.2192
323 1 8.7842 13.2916 14.7263
255 2 5.84771 8.95112 10.3238
259 2 4.37681 12.2526 9.37633
260 2 4.99354 13.0289 11.5008
261 2 5.15861 10.9148 10.3974
262 3 5.39532 8.07913 16.1036
263 3 6.74195 9.70507 14.2321
264 3 8.08866 8.84828 12.0725
265 3 9.32719 10.658 13.7782
266 3 7.34539 11.4208 11.9641
245 2 5.75399 7.14286 13.5345
350 2 4.94805 13.4676 14.37
341 2 7.78788 13.9115 10.8159
348 2 2.83413 13.4583 15.1353
145 2 4.13021 8.56363 8.76679
148 2 10.4404 8.87958 13.3122
249 2 7.82366 7.2197 16.6379
327 2 8.31313 9.48249 16.1578
325 1 8.63936 10.5588 16.582
208 3 3.72012 8.04428 12.9448
102 2 9.33572 12.4288 9.55357
ITEM: TIMESTEP
100
ITEM: NUMBER OF ATOMS
350
ITEM: BOX BOUNDS xy xz yz pp pp pp
-6.7780090000000000e+00 1.5390582000000000e+01 -6.3253269999999997e+00
-6.4200000000000002e-01 1.4502800000000001e+01 -4.5268199999999997e-01
0.0000000000000000e+00 1.7008500000000002e+01 -6.4200000000000002e-01
ITEM: ATOMS id type x y z
7 4 -0.859531 2.70471 3.52127
180 3 3.17794 0.525363 3.38932
14 4 0.178284 4.96808 1.79728
17 4 -0.710338 6.15721 6.40316
26 4 4.65259 1.45566 3.67117
318 2 0.866804 0.72961 0.252782
33 4 1.56625 6.03793 4.2743
319 1 -1.02084 3.14931 8.38818
36 4 4.53067 5.57195 5.45108
57 1 1.37527 0.720687 6.75219
62 1 4.85853 2.99853 2.5441
77 2 0.73891 3.00411 3.91909
201 3 4.19752 6.79215 6.51138
79 2 -0.48212 4.98424 7.68545
82 2 4.60249 1.88197 1.60064
181 3 3.56681 0.653667 8.43093
104 2 1.61138 0.71443 5.6468
105 2 1.47647 1.74354 7.25697
117 2 4.06285 3.06803 4.25068
118 2 4.36939 3.86344 2.11884
119 2 5.96559 3.20407 2.75565
164 3 -1.29155 3.83603 2.43498
165 3 1.0727 4.07197 0.719829
166 3 -0.476233 6.2456 1.12959
167 3 -2.13173 5.81684 5.72671
182 3 6.0076 1.03653 4.30524
320 2 -1.15873 3.11437 7.25806
189 3 1.13954 5.19313 3.00853
190 3 0.505352 6.06551 5.39343
191 3 5.55202 2.28524 8.1344
194 3 3.06867 5.40989 4.71026
195 3 4.75332 4.16001 6.38244
334 2 0.896318 0.640872 1.93921
316 2 1.97593 1.83205 1.36256
315 1 1.80225 1.37148 0.331187
103 2 0.47842 0.121395 7.02549
269 2 6.32061 2.77313 1.19234
272 2 4.76138 5.59494 0.0107868
8 4 0.748292 2.4144 16.4648
324 2 0.2582 -0.305029 14.7674
13 4 0.836899 1.59872 11.1079
18 4 -0.477114 3.83233 12.8135
19 4 -1.37623 6.20127 10.8378
28 4 4.57072 1.64813 9.17771
31 4 3.42623 1.99025 14.6823
35 4 1.48765 5.90133 9.96188
11 4 2.57024 -0.306283 12.9356
63 1 3.30278 3.17856 9.26594
64 1 3.83654 3.09734 13.2103
67 1 2.26889 5.47695 14.4261
83 2 1.67184 2.13984 9.6505
317 2 2.28274 0.23078 16.8775
85 2 0.517828 4.5265 14.0676
308 2 -2.80648 6.52036 14.048
110 2 -2.62323 5.47734 8.79771
120 2 3.09466 3.04757 10.3704
200 3 2.21626 6.57486 8.74212
122 2 3.90348 4.10867 8.99669
123 2 2.86178 3.54676 13.0105
124 2 4.21806 2.45987 12.3077
125 2 4.57831 3.77628 13.5755
132 2 2.0319 4.46759 15.0118
133 2 3.42874 5.66582 14.2996
134 2 1.71402 5.56895 13.3552
161 3 -0.634067 2.03303 15.8373
162 3 -0.396863 0.707607 10.572
163 3 1.81254 0.607874 11.9894
168 3 -1.69779 3.10419 13.5011
169 3 0.412241 2.86492 11.9008
170 3 -1.04667 5.07668 11.9056
84 2 1.6368 4.19644 9.80377
184 3 3.23962 0.497297 14.128
185 3 4.67819 2.3261 15.676
186 3 1.81609 2.74981 15.4142
187 3 5.22301 1.43109 10.6198
135 2 4.63871 4.86027 11.6079
193 3 -0.0891933 6.30365 9.88415
198 3 2.31945 6.33874 11.2163
322 2 -1.62414 3.95615 8.93978
321 2 0.0934102 3.04635 8.69884
121 2 2.458 2.97918 8.54839
197 3 0.479362 6.56685 16.2502
336 2 -2.0414 6.10207 15.8214
1 4 -4.13905 14.0768 2.54916
2 1 -4.64922 12.74 3.70714
3 2 -4.44219 12.7401 4.74475
114 2 -3.83201 9.60876 5.78999
6 3 -3.60301 13.2896 1.26395
111 2 -2.40361 9.06314 3.38215
20 4 -1.69815 9.99087 1.31275
22 4 -1.42186 9.13222 7.38637
80 2 -3.05539 8.75443 8.00347
39 4 -0.307804 11.6313 3.76574
40 4 2.9847 7.39315 7.57561
42 4 1.8622 10.9773 6.09122
60 1 -2.76133 8.70215 2.34643
61 1 -2.91117 9.81347 6.44389
69 1 0.516894 13.1445 2.96174
70 1 -1.64825 12.4262 4.93486
87 2 1.67268 7.70609 3.83224
88 2 1.77557 8.1443 6.44664
100 2 0.6153 10.5712 7.43606
78 2 -2.48651 13.7597 6.06398
71 1 2.38157 9.41585 7.61421
287 2 2.54908 8.21594 2.23639
115 2 -1.55109 9.80139 5.51763
116 2 -3.08017 10.7131 7.06219
138 2 0.070776 13.2209 1.90754
89 2 3.12357 9.74276 5.88077
140 2 0.215495 14.0971 3.61384
141 2 -1.7621 11.8201 5.87169
142 2 -2.7002 12.7001 4.49096
143 2 -1.01582 13.3896 5.03518
171 3 -0.935148 8.75319 0.481016
172 3 -2.70697 10.8628 0.477855
173 3 -0.832181 7.68537 7.05968
174 3 -4.15438 12.733 7.88635
4 2 -4.40262 11.7757 3.28162
199 3 -1.00038 10.818 2.60263
202 3 -0.404224 10.4737 8.44167
203 3 0.530393 13.1347 8.28079
205 3 0.769168 10.8845 4.75494
337 2 -2.75917 8.41907 5.05931
278 1 1.88406 9.13297 2.49872
285 2 1.08209 9.40515 1.77068
286 2 1.69159 9.32062 3.62337
139 2 1.67516 12.907 2.94744
113 2 -3.77598 9.21798 2.03712
112 2 -2.6944 7.57496 2.14683
9 4 -3.53169 14.1523 7.3984
21 4 -2.87543 12.357 0.0400907
45 4 2.05852 11.3822 11.572
23 4 -4.65266 11.9162 9.06002
24 4 -2.91904 8.99154 11.7586
25 4 -2.31369 12.0071 11.1991
30 4 0.958835 13.7057 13.443
37 4 1.81988 6.96704 15.551
41 4 0.146675 12.0262 9.35452
43 4 2.59283 9.22923 13.6207
44 4 -0.530746 12.0998 15.624
210 3 -0.279972 13.1539 14.443
72 1 -3.97683 8.4831 13.2128
73 1 -0.762379 10.4098 14.6867
213 3 1.78139 9.96386 12.2786
339 2 -5.0478 13.3556 13.7424
211 3 -1.86049 12.4019 16.5371
214 3 1.55633 12.5729 12.5182
38 4 3.637 7.03804 11.6676
149 2 -3.68203 9.33481 13.928
150 2 0.210781 9.77389 14.6561
151 2 -1.31186 10.5193 13.6762
152 2 -1.50255 9.94534 15.4271
175 3 -2.06115 7.61438 11.2682
176 3 -4.36815 11.7359 15.6917
177 3 -3.51982 11.6638 10.074
178 3 -2.15895 10.3876 12.0553
179 3 -2.8672 13.1767 12.1108
209 3 0.826564 11.9575 16.6103
196 3 2.92154 7.19451 16.6192
212 3 1.64638 11.5114 10.0053
204 3 -0.858838 12.4102 10.4488
207 3 1.54758 8.54698 14.6135
208 3 3.53978 8.0886 12.7986
81 2 -4.33549 9.26882 10.7747
147 2 -3.77654 7.4472 13.687
16 4 -0.910273 6.69363 16.9755
146 2 1.57545 9.43495 8.50704
15 4 12.043 6.8099 5.23526
46 4 9.76106 2.49948 3.46998
49 4 12.166 1.93656 5.203
50 4 11.0765 5.19592 2.76742
51 4 7.47936 6.31093 4.8217
228 3 10.8608 6.91624 6.37669
53 4 10.5247 3.4555 7.49651
54 4 9.54217 6.25583 6.99031
346 2 9.65501 0.528697 0.526945
91 2 9.42163 1.8211 1.90057
94 2 12.5517 4.34703 2.45354
95 2 8.38413 5.07438 4.09233
34 4 6.042 3.5013 7.1063
347 2 7.7488 0.355035 1.11856
297 3 12.2728 1.71208 0.762097
129 2 6.84662 5.65764 7.86285
192 3 7.18701 3.00004 6.08137
215 3 8.52974 1.89212 4.25959
219 3 13.5935 2.6837 4.89451
220 3 11.2079 1.94124 3.8588
221 3 12.4673 0.222891 5.72134
222 3 9.82224 4.18723 3.48946
223 3 11.4532 6.31762 3.83602
224 3 5.96175 5.85436 4.72936
225 3 10.704 5.80393 1.38377
268 1 5.87115 5.24299 0.0996903
227 3 11.3913 2.68465 6.40081
226 3 9.75969 2.37052 8.43425
229 3 8.14213 6.60859 6.23623
230 3 9.72231 4.70959 7.14892
216 3 13.278 0.575519 8.1877
294 4 13.1531 0.692476 1.73664
183 3 7.761 0.402113 6.43903
296 3 14.3017 1.2477 2.6182
29 4 7.47082 1.54413 5.36642
280 2 5.4198 6.97557 0.959906
279 1 8.8683 -0.0178878 1.20222
271 2 6.23329 5.25075 1.15534
52 4 10.3276 7.21263 0.774524
340 2 12.6455 4.3427 0.0655629
10 4 13.8265 1.58539 9.35629
310 2 11.6436 5.90863 15.563
32 4 6.93257 1.52739 11.1783
48 4 9.48748 1.07984 9.30553
58 1 12.4192 2.12195 10.6423
65 1 7.30668 3.33314 11.4868
68 1 5.03459 5.80979 12.1117
93 2 10.8075 0.964714 10.3596
270 2 6.17734 5.26814 16.4607
106 2 12.1261 1.15666 11.1609
107 2 11.5813 2.60746 10.0308
108 2 12.8367 2.87725 11.4239
126 2 8.43203 3.4658 11.861
127 2 6.57296 3.5526 12.2834
128 2 7.10183 3.88903 10.3613
342 2 11.7292 5.96323 10.3476
136 2 5.00702 5.68096 13.2286
12 4 13.7113 1.81674 14.6112
109 2 12.5536 4.11752 10.2206
96 2 9.38536 6.22744 16.1482
130 2 7.76864 4.19631 8.77264
218 3 8.16592 1.26874 10.2058
243 1 8.1294 6.05309 11.1598
131 2 5.94406 4.86909 9.37861
248 2 7.80545 6.34421 14.9851
256 2 7.58891 5.51405 10.2005
257 2 8.00231 5.51752 12.0887
258 2 9.36782 6.21707 10.9076
298 4 11.5384 2.18024 16.6244
299 4 8.86784 2.90979 15.3584
300 4 10.2115 5.12568 13.593
301 1 10.4019 3.72789 12.2891
302 1 11.9242 5.66412 14.5196
303 2 8.68538 1.7523 14.0612
304 2 9.35457 6.37503 12.7077
305 2 9.95288 2.72451 12.5309
306 2 11.6169 3.71743 12.5058
307 2 10.127 4.15616 11.2763
349 2 8.24143 0.579817 15.2979
309 2 12.4145 4.62527 14.2732
137 2 6.22119 5.95377 11.811
311 3 12.1313 1.71106 15.2272
312 3 10.0505 2.50768 16.3568
313 3 7.41426 2.96555 16.0224
314 3 9.28731 4.39606 14.6201
328 1 8.72665 -0.161345 14.5575
329 2 9.49216 0.362098 13.8954
335 2 14.2759 0.416302 13.858
267 4 5.94081 2.8576 16.641
66 1 6.78236 4.7333 8.54471
59 1 12.5691 5.2978 9.88346
97 2 11.5624 4.19069 8.65373
188 3 6.92882 0.518919 12.582
156 2 11.127 9.19834 3.6035
144 2 3.21248 10.1012 7.91816
55 4 8.71712 8.77484 3.1625
332 2 5.91458 12.265 1.71105
74 1 7.73232 10.4867 2.78661
75 1 10.12 9.44637 4.25649
206 3 2.47731 12.3514 6.37145
92 2 5.03722 13.5379 7.63944
47 4 6.45398 14.1177 7.06719
5 2 9.50992 13.1177 3.54103
153 2 7.3764 10.2297 1.75498
154 2 8.34988 11.3987 2.65437
155 2 6.85532 10.5841 3.55502
345 2 9.7961 11.054 0.42328
157 2 10.0239 8.73576 5.21107
158 2 9.71144 10.5528 4.29878
275 4 2.69487 12.7717 0.364355
27 4 1.81798 13.7548 7.46654
232 3 9.29286 8.05696 1.53871
330 1 6.47663 13.252 2.02425
273 4 4.71463 8.30804 0.202514
274 4 3.44993 10.3335 2.24702
250 2 9.17785 8.89559 8.43529
276 4 4.86301 11.7554 4.67669
277 4 7.15592 11.2813 6.16375
331 2 7.32501 13.0022 2.69587
295 2 7.35353 13.6084 0.6869
281 2 5.77267 12.9217 3.82444
282 2 3.69117 12.9037 5.27284
283 2 8.02969 11.1151 4.64289
284 2 7.9484 10.1669 7.25624
99 2 11.7878 8.14103 0.639692
289 3 4.59029 9.41865 1.3353
231 3 7.88989 7.68974 3.96652
291 3 4.03855 10.7727 3.69508
292 3 5.61174 11.052 5.85082
293 3 7.34748 12.7288 6.92407
290 3 2.9205 11.6736 1.52783
217 3 3.15182 14.1337 8.40079
288 2 2.93046 14.3806 2.2361
333 2 5.37634 14.321 2.76414
338 2 10.2451 10.3772 8.43872
344 2 8.00658 13.1786 13.7707
56 4 4.51819 11.354 15.3566
76 1 5.46803 12.5651 14.2912
86 2 4.59016 7.62744 10.2342
90 2 3.81529 11.6069 11.3775
101 2 5.65951 10.5208 16.3293
254 2 6.26244 8.74372 8.72354
252 2 9.71716 9.72842 10.0152
159 2 5.34851 12.0636 13.2671
160 2 6.59173 12.7804 14.6037
325 1 8.57295 10.4627 16.5411
233 3 3.5548 10.3513 14.4053
234 3 3.68663 12.3522 16.273
235 4 9.54592 11.4337 15.1616
236 4 6.32167 8.09925 14.7326
237 4 7.93928 7.96739 10.7468
238 4 7.87863 10.0789 13.048
239 4 6.8684 12.4089 11.0957
240 1 7.99557 7.45963 15.4051
241 1 9.64427 8.73983 9.47886
242 1 6.34819 8.29497 9.73948
244 1 5.25025 11.951 10.1108
246 2 6.66704 11.8848 9.23928
247 2 8.86013 7.96542 14.9017
326 2 7.75212 11.2399 16.6178
251 2 10.5443 8.10407 9.5038
343 2 8.11881 13.1939 15.7568
253 2 6.10594 7.10188 9.76819
323 1 8.66169 13.3058 14.7331
255 2 5.90015 8.93341 10.6075
259 2 4.36135 12.1637 9.32685
260 2 5.11378 13.1303 11.3628
261 2 5.03079 10.8957 10.5163
262 3 5.32023 7.92197 15.9561
263 3 6.79505 9.56235 14.3101
264 3 8.09986 8.71704 12.1244
265 3 9.28065 10.5765 13.8218
266 3 7.25435 11.2708 12.1399
245 2 5.85721 7.0968 13.3661
350 2 4.75651 13.4976 14.4054
341 2 7.82956 13.85 11.1188
348 2 2.91647 13.51 15.2222
102 2 9.39104 12.6076 9.73325
148 2 10.3715 8.58645 12.734
249 2 8.09422 7.50255 16.5362
327 2 8.26262 9.34154 16.1959
145 2 3.72961 8.59275 8.65844
98 2 9.37917 6.95802 8.59641
ITEM: TIMESTEP
200
ITEM: NUMBER OF ATOMS
350
ITEM: BOX BOUNDS xy xz yz pp pp pp
-6.7780090000000000e+00 1.5390582000000000e+01 -6.3253269999999997e+00
-6.4200000000000002e-01 1.4502800000000001e+01 -4.5268199999999997e-01
0.0000000000000000e+00 1.7008500000000002e+01 -6.4200000000000002e-01
ITEM: ATOMS id type x y z
7 4 -0.849331 2.83503 3.40777
180 3 3.45195 0.433791 3.37334
14 4 0.199096 5.05844 1.78255
17 4 -0.694848 6.1479 6.45248
26 4 4.65791 1.49555 3.70409
318 2 0.802011 0.733898 0.278344
33 4 1.62024 6.03087 4.24129
319 1 -0.864093 3.19763 8.41843
36 4 4.41998 5.59351 5.65942
57 1 1.29088 0.61443 6.78857
62 1 5.06671 3.02911 2.46626
77 2 0.81451 2.92137 3.89427
201 3 4.18703 6.79115 6.70146
79 2 -0.445583 5.00091 7.72695
82 2 5.31814 1.61926 1.79694
103 2 0.368365 -0.027896 7.07504
104 2 1.54239 0.610943 5.63208
105 2 1.26557 1.58924 7.25116
117 2 4.09179 3.1602 4.06754
118 2 4.42286 3.78101 1.83036
315 1 1.79937 1.37072 0.281558
164 3 -1.36058 4.05774 2.46082
165 3 0.938523 4.09759 0.590941
166 3 -0.460792 6.3593 1.29394
167 3 -2.13674 5.74066 5.88282
182 3 5.85507 1.10598 4.63464
320 2 -1.01019 3.1185 7.29552
189 3 1.15671 5.1479 3.05501
190 3 0.529427 6.08097 5.4793
191 3 5.54391 2.12308 8.10062
194 3 3.06214 5.52734 4.78708
195 3 4.68145 4.14662 6.50945
334 2 1.2073 0.576151 1.9715
316 2 2.07641 1.87308 1.29733
119 2 6.01596 3.42783 2.98209
200 3 2.15572 6.37047 8.47072
8 4 0.752538 2.38663 16.4094
181 3 3.64905 0.487774 8.59346
13 4 0.881924 1.54288 11.1038
18 4 -0.431822 3.81454 12.8437
19 4 -1.28798 6.08863 10.8554
28 4 4.57022 1.66259 9.21406
31 4 3.52414 2.08352 14.5448
35 4 1.53547 5.84276 9.7978
11 4 2.55169 -0.320284 12.9895
63 1 3.44095 3.26087 9.45763
64 1 3.94984 3.02654 12.9757
67 1 2.31119 5.56086 14.4294
83 2 1.80367 2.25511 9.8984
317 2 2.19414 0.263803 16.7453
85 2 0.61808 4.48548 13.9587
308 2 -2.64844 6.34036 13.6421
110 2 -2.34103 5.76604 8.75791
120 2 3.18465 3.2789 10.5282
59 1 -2.72015 5.39773 9.82808
122 2 3.98438 4.22052 9.14916
123 2 2.96312 3.58138 12.8612
124 2 4.2066 2.38521 12.1455
125 2 4.76492 3.70082 13.2995
132 2 2.08687 4.47815 14.9499
133 2 3.44489 5.73652 14.2857
134 2 1.77009 5.73298 13.4577
161 3 -0.643075 1.91852 15.8085
162 3 -0.31413 0.631713 10.4055
163 3 1.87115 0.672299 11.879
168 3 -1.4805 2.98627 13.667
169 3 0.248901 2.79738 11.908
170 3 -1.11853 5.0291 12.0879
84 2 1.68846 4.15155 9.7972
184 3 3.28069 0.561267 14.0398
185 3 4.66179 2.40029 15.6901
186 3 1.89584 2.75964 15.3544
187 3 5.44481 1.45736 10.5618
135 2 4.84397 5.02279 11.2951
193 3 -0.0423039 6.11798 9.86078
198 3 2.4574 6.34017 10.9795
322 2 -1.5369 4.05184 8.93503
321 2 0.23158 3.13899 8.83462
336 2 -2.31965 6.03443 16.0286
197 3 0.297498 6.53596 16.0683
121 2 2.5817 3.0119 8.79399
272 2 4.54928 4.96463 16.8523
1 4 -3.94109 13.9381 2.64409
2 1 -4.71091 12.7837 3.85926
3 2 -4.51319 12.6577 5.03603
114 2 -3.78895 9.7315 5.68972
6 3 -3.41148 13.1336 1.38342
111 2 -2.64886 9.00219 3.33528
20 4 -1.73208 9.84224 1.20899
22 4 -1.29425 9.21019 7.28323
80 2 -3.09958 9.05819 7.85918
39 4 -0.327449 11.6284 3.62049
40 4 2.85182 7.38719 7.5344
42 4 1.69487 11.0948 5.95436
60 1 -2.92339 8.72313 2.30333
61 1 -2.86123 9.92121 6.34593
69 1 0.315576 13.2501 2.91733
70 1 -1.76976 12.3636 4.86338
87 2 1.76863 7.70271 3.77474
88 2 1.65224 8.30901 6.48181
100 2 0.522659 10.9076 7.33185
78 2 -2.53047 13.8729 5.96537
71 1 2.47989 9.6622 7.62159
287 2 2.24818 8.09297 1.93115
115 2 -1.35409 9.87424 5.49451
116 2 -3.02447 10.9982 6.74166
138 2 -0.0986622 13.3145 1.84078
89 2 2.90871 9.6143 5.90896
140 2 0.15259 14.1779 3.52145
141 2 -1.67439 11.688 5.75978
142 2 -2.82316 12.5367 4.51813
143 2 -1.19206 13.2989 5.01435
171 3 -0.726687 8.7963 0.390809
172 3 -2.68556 10.7596 0.406887
173 3 -0.89178 7.64183 7.20529
174 3 -4.2008 12.766 7.8165
4 2 -4.63961 11.7789 3.28766
199 3 -0.893998 10.6923 2.41692
202 3 -0.451882 10.6699 8.31661
203 3 0.611622 13.1602 8.25543
205 3 0.801446 11.0512 4.67157
337 2 -2.72647 8.36083 5.15898
278 1 1.97239 9.07939 2.34009
285 2 1.10013 9.57764 1.7958
286 2 1.98818 9.30323 3.50348
139 2 1.41734 12.8916 2.94054
146 2 1.47008 9.37959 7.93005
112 2 -2.76498 7.61018 2.2393
9 4 -3.5727 14.1011 7.37788
5 2 -5.84388 13.246 3.6446
16 4 -0.54869 7.31167 0.00641341
113 2 -3.97376 9.01441 2.06554
21 4 -2.85603 12.291 0.00200899
324 2 -6.08774 13.8574 15.2558
23 4 -4.60429 11.9072 9.13215
24 4 -2.72664 9.05944 11.7347
25 4 -2.27294 11.9668 11.2224
30 4 0.878992 13.8339 13.4563
37 4 1.77703 7.04274 15.4944
41 4 0.180046 12.1157 9.34181
43 4 2.58535 9.23872 13.5338
44 4 -0.582449 12.0245 15.654
210 3 -0.160141 13.0933 14.4443
72 1 -4.01243 8.6275 13.0491
73 1 -0.950416 10.3312 14.882
213 3 2.0162 10.154 12.2759
339 2 -5.05091 13.4067 13.7986
211 3 -1.8965 12.3322 16.4491
214 3 1.5191 12.7679 12.4204
38 4 3.67448 7.10016 11.67
149 2 -3.89018 9.45194 13.854
150 2 -0.0795931 9.56452 14.7674
151 2 -1.45511 10.4932 13.8459
152 2 -1.74495 9.91837 15.5947
175 3 -2.03738 7.67939 11.3913
176 3 -4.52079 11.8536 15.8245
177 3 -3.42141 11.4972 10.1017
178 3 -1.95718 10.4809 12.0482
179 3 -2.94067 13.0673 12.2288
209 3 0.683085 12.1273 16.7106
196 3 2.9793 7.20004 16.5004
212 3 1.61017 11.5112 10.1023
204 3 -0.92696 12.3779 10.3397
207 3 1.35983 8.55669 14.4393
208 3 3.53117 7.89982 12.9734
81 2 -4.22817 9.31133 10.7977
147 2 -3.77242 7.56815 13.3794
15 4 12.0792 6.73381 5.32349
46 4 9.79236 2.45925 3.54625
49 4 12.1208 1.96934 5.33236
50 4 11.0642 5.16909 2.82248
51 4 7.49481 6.40245 4.84847
228 3 10.8273 6.80408 6.39206
53 4 10.5523 3.43393 7.60642
54 4 9.51303 6.20609 7.02586
346 2 10.0287 0.468878 0.693977
91 2 9.74074 1.92266 1.90888
94 2 12.456 4.14718 2.69187
95 2 8.47339 5.21358 4.12085
34 4 6.01808 3.4393 7.1619
347 2 8.13539 0.517153 1.2074
297 3 12.1968 1.63176 0.787899
129 2 6.80744 5.63392 7.82565
192 3 7.11037 2.94082 6.08281
215 3 8.61921 1.773 4.28432
219 3 13.6532 2.72347 4.76205
220 3 11.193 1.85986 3.95876
221 3 12.5091 0.430002 5.85398
222 3 9.75679 4.2151 3.40541
223 3 11.5552 6.29856 3.87589
224 3 6.01755 5.91361 4.88769
225 3 10.6878 5.79464 1.42019
268 1 6.07975 5.31169 0.105236
227 3 11.3844 2.79039 6.48632
226 3 9.71072 2.38208 8.40329
229 3 8.12073 6.71842 6.2963
230 3 9.64992 4.66907 7.26647
216 3 13.3282 0.622595 8.24072
294 4 13.0454 0.723311 1.7462
183 3 7.80342 0.355678 6.3278
296 3 14.4673 1.51455 2.57582
29 4 7.42692 1.50656 5.32597
280 2 5.18614 6.85209 0.983103
279 1 9.18534 0.00519092 1.41331
271 2 6.38224 5.0624 1.27517
340 2 12.6157 4.1757 0.245834
217 3 9.61144 -0.303491 8.3864
269 2 6.49593 2.70839 1.14449
52 4 10.3169 7.20202 0.904272
10 4 13.8908 1.58868 9.2621
310 2 11.5879 6.47702 15.1442
32 4 6.91194 1.4327 11.2517
48 4 9.45141 0.990111 9.19752
58 1 12.4345 2.16174 10.4835
65 1 7.39406 3.28976 11.3662
68 1 5.15751 5.91759 11.9904
93 2 10.8593 0.953376 10.1385
270 2 6.41559 5.15856 16.3708
106 2 12.1489 1.16727 11.0775
107 2 11.56 2.59645 9.86729
108 2 13.0058 2.90863 11.1336
126 2 8.58821 3.44365 11.726
127 2 6.65526 3.59398 12.2242
128 2 7.17356 3.82773 10.2941
342 2 11.8266 6.04329 10.2669
136 2 4.98654 5.64731 13.068
12 4 13.671 1.81383 14.686
109 2 12.5747 4.15221 10.1155
96 2 9.3893 6.34657 16.3069
130 2 7.85007 4.31049 8.69344
218 3 8.17435 1.00635 10.3163
243 1 8.25108 6.09898 11.1698
131 2 6.23487 4.81242 9.41507
248 2 7.83052 6.41188 14.7371
256 2 7.76884 5.49155 10.156
257 2 7.89571 5.62873 12.2057
258 2 9.43517 6.14044 10.9166
298 4 11.3573 2.14969 16.693
299 4 8.83547 2.88692 15.3834
300 4 10.2352 5.06195 13.5861
301 1 10.5437 3.90235 12.1368
302 1 12.0264 5.81204 14.3167
303 2 8.88148 1.63391 14.1994
304 2 9.50361 6.38263 12.6866
305 2 10.1766 2.83139 12.2935
306 2 11.7424 3.98871 12.1817
307 2 10.1186 4.35066 11.2007
349 2 8.27797 0.385999 15.3025
309 2 12.3445 4.73269 14.6622
137 2 6.3326 6.13986 11.8295
311 3 12.0358 1.69926 15.3178
312 3 9.7517 2.4528 16.5689
313 3 7.38792 2.92708 15.8537
314 3 9.25177 4.34525 14.6789
328 1 8.78573 -0.317511 14.5738
329 2 9.61686 0.166309 13.9416
335 2 13.8678 0.2585 14.0605
267 4 5.98574 2.88574 16.5589
66 1 6.83534 4.71684 8.51545
188 3 7.04182 0.792957 12.779
97 2 11.8053 4.19678 8.57499
156 2 11.0378 9.14917 3.8182
144 2 2.78685 10.6154 8.11323
55 4 8.5973 8.74593 3.13089
332 2 5.83104 12.4844 1.56673
74 1 7.59364 10.4661 2.93382
75 1 9.98957 9.17612 4.40883
206 3 2.50675 12.3222 6.30232
92 2 4.77647 13.8329 7.58192
47 4 6.34024 14.0711 7.07588
333 2 5.57244 14.2242 2.94352
153 2 7.07794 10.1127 1.9401