ITEM: TIMESTEP
0
ITEM: NUMBER OF ATOMS
350
ITEM: BOX BOUNDS xy xz yz pp pp pp
-6.7108999999999996e+00 1.5238200000000001e+01 -6.2626999999999997e+00
-6.4842000000000000e-01 1.4647828000000001e+01 -4.4819999999999999e-01
0.0000000000000000e+00 1.7008500000000002e+01 -6.4842000000000000e-01
ITEM: ATOMS id type x y z
7 4 -0.866927 2.6022 3.53103
180 3 3.39575 0.368491 3.31548
14 4 0.00829935 5.01554 1.8811
17 4 -0.65004 6.1491 6.41842
26 4 4.61396 1.44692 3.50131
318 2 0.80602 0.946109 0.121661
33 4 1.71464 6.05189 4.28636
9 4 2.78041 -0.272065 7.26265
36 4 4.5827 5.70929 5.45878
57 1 1.39822 0.864986 6.60227
62 1 4.63 3.1779 2.50079
77 2 0.735511 2.61487 3.92147
201 3 4.16451 6.90765 6.63898
79 2 -0.536048 4.95456 7.66473
82 2 5.09494 1.60017 1.73915
181 3 3.51848 0.594066 8.43716
104 2 1.73403 0.902588 5.50814
105 2 1.48393 1.87413 7.14463
117 2 3.62552 3.13517 3.84539
118 2 3.99984 3.87339 1.7786
119 2 5.5769 3.70293 2.87749
164 3 -1.3521 3.87472 2.6436
165 3 0.903834 4.13985 0.705157
166 3 -0.773407 6.27173 1.18219
167 3 -2.06024 6.09823 5.61685
182 3 5.86612 1.15941 4.49814
320 2 -1.08528 3.0126 7.38939
189 3 1.00113 5.39642 3.0678
190 3 0.761212 5.97275 5.55134
191 3 5.42628 2.39595 8.09758
194 3 3.31718 5.55555 4.44735
195 3 4.78366 4.36421 6.36451
334 2 1.01655 0.549688 1.93267
316 2 1.96108 2.01678 1.33433
315 1 1.75232 1.50903 0.318285
103 2 0.442066 0.331569 6.7877
271 2 5.09658 5.13205 1.22827
269 2 6.23599 2.95246 1.41687
8 4 0.755686 2.5286 16.4514
324 2 0.566887 -0.403599 14.8176
13 4 0.850657 1.6698 11.1931
18 4 -0.414905 3.98161 12.7541
19 4 -1.40714 6.28859 10.9298
28 4 4.36135 1.79867 9.09569
31 4 3.48154 1.97567 14.6464
35 4 1.47655 6.06095 9.96904
11 4 2.59832 -0.375951 12.9509
63 1 3.1494 3.35806 9.3541
64 1 3.88195 2.84701 13.024
67 1 2.32095 5.73151 14.5696
83 2 1.58745 2.18198 9.72625
319 1 -0.90501 3.14231 8.54395
85 2 0.649752 4.7501 13.9142
121 2 2.29824 3.3563 8.60281
110 2 -2.48691 5.82522 8.8194
120 2 2.76992 3.24954 10.4175
200 3 2.36844 6.56829 8.77738
122 2 3.83234 4.24588 9.25867
123 2 2.95755 3.46003 12.8221
124 2 4.23801 2.279 12.1435
125 2 4.77747 3.51134 13.4569
132 2 2.16127 4.63467 14.8039
133 2 3.43166 5.93357 14.5013
134 2 1.77057 5.99554 13.5134
161 3 -0.594713 2.20325 15.621
162 3 -0.42231 0.778966 10.5392
163 3 1.84525 0.669724 11.9518
168 3 -1.56593 3.11354 13.4087
169 3 0.488893 2.99629 11.8756
170 3 -1.1619 5.24424 12.0163
84 2 1.51782 4.35438 9.79443
184 3 3.17268 0.433976 14.2478
185 3 4.73566 2.29204 15.7912
186 3 1.94022 2.91823 15.4529
187 3 4.96255 1.50718 10.552
135 2 4.58826 4.92395 11.6068
193 3 -0.0852182 6.4785 9.89887
198 3 2.17189 6.33521 11.3146
322 2 -1.55031 4.06914 9.02431
321 2 0.138019 3.15405 8.85167
272 2 4.48083 5.27552 16.4408
197 3 0.2862 6.69558 16.1206
336 2 -2.35084 6.5398 15.9498
317 2 2.19164 0.418139 16.9032
1 4 -4.03362 14.1272 2.51752
2 1 -4.68579 12.8307 3.72599
3 2 -4.49387 12.9319 4.83312
114 2 -3.86683 9.69866 5.72248
6 3 -3.44217 13.4503 1.19016
111 2 -2.47423 9.23731 3.38185
20 4 -1.52853 9.98333 1.40681
22 4 -1.28926 9.13399 7.36997
80 2 -3.03145 8.96059 7.83159
39 4 -0.233544 11.7486 3.84406
40 4 3.15413 7.52139 7.67671
42 4 1.74948 10.9909 6.23929
60 1 -2.74588 8.79895 2.37891
61 1 -2.90711 9.94697 6.44894
69 1 0.823317 13.2823 3.19697
70 1 -1.68847 12.5899 4.87113
87 2 1.8757 7.76942 3.98675
88 2 1.90182 8.26206 6.60519
100 2 0.73853 10.456 7.59164
78 2 -2.47573 14.153 5.80778
71 1 2.80497 9.6171 7.69764
287 2 2.48009 8.30581 2.21558
115 2 -1.56177 10.0285 5.65886
116 2 -3.09346 10.9611 6.83548
138 2 0.654602 13.3216 2.10659
89 2 3.04046 9.73873 5.84473
140 2 0.456311 14.2488 3.68963
141 2 -1.46221 12.0437 5.86001
142 2 -2.78334 12.6651 4.56124
143 2 -1.11687 13.6488 4.9405
171 3 -0.603795 8.93246 0.622211
172 3 -2.58733 10.9982 0.368826
173 3 -0.778207 7.63076 7.16262
174 3 -4.0766 12.964 7.83197
4 2 -4.2989 11.887 3.21867
199 3 -0.827408 10.8034 2.64459
202 3 -0.540945 10.4125 8.38902
203 3 0.478354 13.2368 8.30622
205 3 0.6882 10.9607 4.92237
337 2 -2.85965 8.51437 5.04851
278 1 2.01391 9.2186 2.66533
285 2 1.15662 9.64124 2.05519
286 2 1.82934 9.20343 3.79793
113 2 -3.81405 9.14028 2.06586
16 4 -0.562928 7.39639 0.0107579
112 2 -2.41897 7.72013 2.23491
99 2 -3.36726 8.11212 0.599813
146 2 2.1214 9.91961 8.46683
45 4 2.0489 11.5009 11.6625
23 4 -4.5119 12.0516 9.01321
24 4 -3.01241 9.09637 11.8771
25 4 -2.36962 11.9961 11.1935
30 4 0.980885 13.9009 13.2939
37 4 1.70752 7.21742 15.6851
41 4 0.116742 12.008 9.30929
43 4 2.68685 9.31334 13.6267
44 4 -0.504559 12.1002 15.6135
210 3 -0.186869 13.3532 14.2951
72 1 -3.7976 8.7146 13.5123
73 1 -0.815384 10.4008 14.8588
213 3 1.84033 10.0431 12.3167
339 2 -5.00702 13.3297 13.4177
211 3 -1.77234 12.5011 16.5414
147 2 -3.62135 7.55551 14.0482
38 4 3.64824 7.14477 11.7324
149 2 -3.36383 9.4595 14.1809
150 2 0.0942188 9.71928 14.8158
151 2 -1.28274 10.6006 13.7955
152 2 -1.55485 9.95542 15.6011
175 3 -2.22505 7.74307 11.4433
176 3 -4.22029 11.9284 15.7028
177 3 -3.54544 11.7052 10.1829
178 3 -2.07311 10.5546 12.1263
179 3 -2.75962 13.1907 12.2837
209 3 0.859287 12.0611 16.481
196 3 2.93238 7.13834 16.7377
212 3 1.48416 11.5011 10.163
204 3 -0.982876 12.4863 10.2468
207 3 1.66411 8.67814 14.6852
21 4 -3.25204 11.8928 16.9584
81 2 -4.39386 9.35645 10.7325
15 4 11.846 6.84485 5.25616
46 4 9.62743 2.43864 3.28341
49 4 11.9257 1.81595 5.17194
50 4 10.8868 5.15209 2.85726
51 4 7.3879 6.3974 4.65106
228 3 10.5884 6.93412 6.27101
53 4 10.5501 3.45545 7.51404
54 4 9.34863 6.24384 6.94969
346 2 9.6743 0.554657 0.565217
91 2 9.52997 1.7912 1.67518
94 2 12.2949 4.13488 2.66058
95 2 8.30163 5.21974 3.8052
34 4 5.95837 3.55374 7.12071
347 2 7.74166 0.584745 0.901534
297 3 12.3034 1.64746 0.599284
129 2 6.61272 5.82024 8.09908
192 3 7.10145 3.0564 6.10756
215 3 8.55268 1.82562 4.22487
219 3 13.5917 2.57303 4.95575
220 3 11.0418 1.97506 3.8316
221 3 12.206 0.245052 5.59843
222 3 9.39366 4.18005 3.21448
223 3 11.2847 6.347 3.81237
224 3 5.91472 6.04581 4.49699
225 3 10.6427 5.76192 1.4101
268 1 5.64197 5.39349 0.207389
227 3 11.2456 2.68005 6.3628
226 3 9.75069 2.4145 8.42665
229 3 7.89943 6.42795 6.22003
230 3 9.75716 4.78618 7.21112
216 3 12.9894 0.532046 8.15138
294 4 12.8867 0.587617 1.68701
183 3 7.71334 0.357497 6.34338
296 3 14.1257 1.16442 2.70185
29 4 7.38644 1.61768 5.3259
280 2 5.43752 7.12166 1.19052
279 1 8.78451 0.0257986 1.11093
270 2 6.71133 5.88789 0.314849
52 4 10.3948 7.21413 0.873449
333 2 11.3483 -0.0966756 2.60283
340 2 12.6331 4.14621 0.0359674
10 4 13.6281 1.56205 9.33756
310 2 11.355 6.59596 15.1238
32 4 6.69098 1.41814 11.1004
48 4 9.32526 1.11126 9.30825
58 1 12.203 2.24541 10.5559
65 1 7.16089 3.23434 11.4156
68 1 5.02206 5.85447 12.2406
93 2 10.6082 1.08551 10.4537
188 3 6.90035 0.596689 12.5199
106 2 12.0353 1.21959 11.1346
107 2 11.2753 2.72756 10.1039
108 2 12.7495 3.00513 11.2131
126 2 8.23876 3.39016 11.7325
127 2 6.43508 3.59662 12.2259
128 2 6.92165 3.77855 10.3184
342 2 11.4881 5.9475 10.2756
136 2 4.87336 5.6673 13.3405
12 4 13.5663 1.8368 14.4478
109 2 12.3535 4.22136 10.0672
96 2 9.42591 6.54546 16.2505
130 2 7.65403 4.32551 8.75628
218 3 7.92686 1.23835 10.1082
243 1 8.13055 6.13185 11.0851
131 2 5.91023 4.61149 9.43483
248 2 7.91958 6.58588 14.8476
256 2 7.57116 5.60667 10.1812
257 2 8.0129 5.47929 12.0214
258 2 9.32577 6.23918 10.6976
298 4 11.3829 2.08628 16.5263
299 4 8.68942 2.99252 15.5838
300 4 9.96218 5.05973 13.6389
301 1 10.2175 3.71664 12.207
302 1 11.6959 5.62679 14.5894
303 2 8.54349 1.87004 14.3246
304 2 9.04473 6.36394 12.8087
305 2 9.63815 2.77223 12.467
306 2 11.3627 3.73501 12.3311
307 2 9.83589 4.33105 11.2978
349 2 7.94705 0.568211 15.2132
309 2 12.0386 4.78757 15.2811
137 2 6.24193 5.99482 11.8293
311 3 12.0603 1.60262 15.0294
312 3 9.91026 2.48835 16.5006
313 3 7.22901 3.03107 16.182
314 3 9.01049 4.46916 14.6812
328 1 8.62238 -0.0948635 14.5435
329 2 9.30566 0.415062 13.7876
335 2 13.8721 0.25119 13.8503
267 4 5.81575 2.98911 16.8
66 1 6.60114 4.76447 8.60031
59 1 12.3949 5.43799 9.82382
308 2 12.1914 5.72149 13.5693
97 2 11.7956 4.09352 8.53662
156 2 11.0096 9.21783 3.69041
144 2 3.79861 10.1821 7.90597
55 4 8.52856 8.83103 3.13003
332 2 5.5985 12.4556 1.71216
74 1 7.55855 10.6287 2.81817
75 1 9.92628 9.38009 4.31213
206 3 2.40888 12.3565 6.59541
92 2 4.72234 13.7699 7.58059
47 4 6.2199 14.1663 7.02171
139 2 1.91885 13.0734 3.43829
153 2 6.90979 10.821 1.89491
154 2 8.2985 11.4733 2.94865
155 2 6.83145 10.5284 3.66141
345 2 9.77838 11.231 0.426286
157 2 9.69748 8.69294 5.21391
158 2 9.58554 10.4835 4.46759
275 4 2.61855 12.9316 0.327662
27 4 1.73701 13.8803 7.50965
232 3 9.39747 8.15205 1.69739
330 1 6.18544 13.3203 2.01243
273 4 4.79853 8.44465 0.286205
274 4 3.55897 10.4393 2.22248
250 2 9.11336 9.10231 8.36689
276 4 4.75711 11.7944 4.74794
277 4 7.24916 11.5034 6.09933
331 2 6.84424 13.105 2.99359
295 2 7.15088 13.5269 0.688696
281 2 5.47442 13.1349 3.83309
282 2 3.67246 12.8274 5.52404
283 2 8.01567 11.5613 4.49582
284 2 8.00856 10.1693 6.85864
98 2 9.25402 7.0942 8.45121
289 3 4.58035 9.60501 1.32098
231 3 7.71405 7.68032 3.83483
291 3 4.04538 10.8759 3.6836
292 3 5.67522 11.0348 5.84501
293 3 7.25377 12.9134 6.8294
290 3 2.90498 11.8401 1.45673
338 2 10.0178 10.5377 8.46921
288 2 2.65844 14.4598 2.21257
217 3 2.98845 14.2897 8.40731
5 2 9.41092 13.024 3.41304
344 2 8.28115 13.3577 13.6824
56 4 4.54917 11.4988 15.1951
76 1 5.52481 12.6824 14.1376
86 2 4.36395 7.92093 10.3658
90 2 3.81335 11.6701 11.3527
101 2 5.73054 10.6579 16.0939
254 2 6.28866 8.20385 8.68981
252 2 9.72752 9.86358 9.96509
159 2 5.36502 12.1662 13.1385
160 2 6.6738 12.8231 14.4737
214 3 1.69332 12.7517 12.5221
233 3 3.74293 10.5847 14.2081
234 3 3.58179 12.3793 16.1626
235 4 9.42762 11.5225 15.1394
236 4 6.27668 8.28158 14.8476
237 4 7.93692 8.08491 10.741
238 4 7.73507 10.267 12.9858
239 4 6.71047 12.642 10.971
240 1 7.90384 7.51782 15.4731
241 1 9.57922 8.8643 9.36112
242 1 6.25675 8.15293 9.80122
244 1 5.09455 12.1324 10.0541
246 2 6.65508 12.2859 9.14575
247 2 8.75982 8.24668 15.2128
326 2 7.67396 11.2845 16.8756
251 2 10.5869 8.24722 9.21816
343 2 7.83845 13.5683 15.4694
253 2 6.02574 6.99009 10.2192
323 1 8.69723 13.4245 14.7263
255 2 5.78981 9.04064 10.3238
259 2 4.33347 12.3752 9.37633
260 2 4.9441 13.1592 11.5008
261 2 5.10753 11.0239 10.3974
262 3 5.3419 8.15992 16.1036
263 3 6.6752 9.80213 14.2321
264 3 8.00857 8.93676 12.0725
265 3 9.23484 10.7646 13.7782
266 3 7.27266 11.535 11.9641
245 2 5.69702 7.21428 13.5345
350 2 4.89906 13.6023 14.37
341 2 7.71077 14.0506 10.8159
348 2 2.80607 13.5929 15.1353
145 2 4.08931 8.64926 8.76679
148 2 10.337 8.96837 13.3122
249 2 7.74619 7.2919 16.6379
327 2 8.23083 9.57732 16.1578
325 1 8.55383 10.6644 16.582
208 3 3.68329 8.12472 12.9448
102 2 9.24328 12.5531 9.55357
ITEM: TIMESTEP
100
ITEM: NUMBER OF ATOMS
350
ITEM: BOX BOUNDS xy xz yz pp pp pp
-6.7108999999999996e+00 1.5238200000000001e+01 -6.2626999999999997e+00
-6.4842000000000000e-01 1.4647828000000001e+01 -4.4819999999999999e-01
0.0000000000000000e+00 1.7008500000000002e+01 -6.4842000000000000e-01
ITEM: ATOMS id type x y z
7 4 -0.829206 2.73165 3.51484
180 3 3.12236 0.527284 3.37796
14 4 0.166432 5.00964 1.7847
17 4 -0.696219 6.21714 6.41366
26 4 4.59517 1.46615 3.67154
318 2 0.869631 0.767436 0.225154
33 4 1.55246 6.09473 4.2675
319 1 -1.0146 3.17546 8.38831
36 4 4.48807 5.62999 5.45159
57 1 1.34639 0.692205 6.74354
62 1 4.79484 3.01606 2.56808
77 2 0.783674 3.03923 3.89066
201 3 4.14971 6.86607 6.49608
79 2 -0.470975 5.06736 7.7018
82 2 4.6096 1.88431 1.59854
181 3 3.5232 0.65998 8.43444
104 2 1.54391 0.691218 5.63364
105 2 1.44531 1.72327 7.24434
117 2 3.99777 3.07628 4.28095
118 2 4.29812 3.86193 2.13289
119 2 5.90967 3.26786 2.7828
164 3 -1.28917 3.85981 2.4165
165 3 1.07251 4.12273 0.725018
166 3 -0.479555 6.3049 1.13186
167 3 -2.10671 5.87954 5.72477
182 3 5.95502 1.02682 4.32105
320 2 -1.13747 3.1364 7.24862
189 3 1.11368 5.25159 3.00749
190 3 0.510674 6.12048 5.40588
191 3 5.49533 2.31109 8.13444
194 3 3.03732 5.47076 4.70284
195 3 4.70175 4.21561 6.40295
334 2 0.857502 0.620257 1.89585
316 2 1.94449 1.85687 1.37309
315 1 1.80007 1.40133 0.332867
103 2 0.452338 0.0849113 7.04561
269 2 6.25065 2.79808 1.2123
272 2 4.70187 5.66426 0.0051921
8 4 0.747312 2.45001 16.4725
324 2 0.335387 -0.356729 14.9459
13 4 0.82468 1.60535 11.1157
18 4 -0.4691 3.86222 12.8147
19 4 -1.38814 6.24056 10.8387
28 4 4.52894 1.65975 9.16554
31 4 3.39172 2.00565 14.6746
35 4 1.46772 5.9711 9.95334
11 4 2.53557 -0.319377 12.945
63 1 3.26399 3.20396 9.25515
64 1 3.79248 3.11983 13.2018
67 1 2.26124 5.53035 14.4351
83 2 1.6881 2.08598 9.65386
121 2 2.4291 3.02929 8.51849
85 2 0.515742 4.56968 14.0578
308 2 -2.7043 6.53239 14.0061
110 2 -2.6099 5.5018 8.80392
120 2 3.01816 3.05968 10.346
200 3 2.1899 6.66217 8.73404
122 2 3.88173 4.12882 9.03504
123 2 2.81458 3.57516 13.0038
124 2 4.17028 2.51537 12.2879
125 2 4.54788 3.796 13.577
132 2 2.03615 4.52727 15.0032
133 2 3.4253 5.76081 14.382
134 2 1.76619 5.58299 13.3422
161 3 -0.642095 2.07838 15.8482
162 3 -0.425843 0.724268 10.594
163 3 1.79387 0.609254 11.9989
168 3 -1.69619 3.12618 13.5039
169 3 0.413652 2.8869 11.8833
170 3 -1.03772 5.11716 11.9022
84 2 1.64243 4.27418 9.80059
184 3 3.21091 0.50693 14.1256
185 3 4.6252 2.34642 15.6859
186 3 1.7979 2.7856 15.4122
187 3 5.1795 1.43606 10.6054
135 2 4.54099 5.00032 11.6261
193 3 -0.105147 6.34755 9.87115
198 3 2.27344 6.4016 11.2164
322 2 -1.60664 3.96216 8.92506
321 2 0.0882718 3.08682 8.69622
317 2 2.30471 0.274078 16.8971
197 3 0.454696 6.6333 16.2346
336 2 -2.03804 6.17263 15.8755
1 4 -4.12119 14.2154 2.53789
2 1 -4.63569 12.8901 3.711
3 2 -4.40254 12.8767 4.74909
114 2 -3.77181 9.68237 5.75863
6 3 -3.58315 13.4045 1.26435
111 2 -2.31693 9.14191 3.37718
20 4 -1.67852 10.1042 1.31427
22 4 -1.4003 9.20257 7.41144
80 2 -3.03033 8.85045 8.02705
39 4 -0.299638 11.7456 3.76429
40 4 2.95397 7.47729 7.56902
42 4 1.86614 11.0928 6.09595
60 1 -2.68574 8.78298 2.35733
61 1 -2.86307 9.89333 6.42988
69 1 0.525392 13.2649 2.9764
70 1 -1.65464 12.5626 4.92557
87 2 1.63341 7.77009 3.84827
88 2 1.74205 8.25753 6.45453
100 2 0.621809 10.6842 7.44247
78 2 -2.47197 13.9101 6.06146
71 1 2.36905 9.51067 7.62475
287 2 2.51999 8.30796 2.27033
115 2 -1.50073 9.86588 5.48052
116 2 -3.06593 10.7693 7.06302
138 2 0.0473143 13.2101 1.96261
89 2 3.1338 9.87982 5.87413
140 2 0.193047 14.2177 3.6005
141 2 -1.79179 11.963 5.86095
142 2 -2.68605 12.8725 4.4776
143 2 -0.97647 13.5376 5.04726
171 3 -0.91052 8.83601 0.507786
172 3 -2.68953 10.9636 0.490339
173 3 -0.831757 7.76305 7.08864
174 3 -4.11708 12.8641 7.90536
4 2 -4.36921 11.9356 3.2833
199 3 -0.984822 10.9289 2.6055
202 3 -0.401119 10.5691 8.4417
203 3 0.525333 13.2549 8.28167
205 3 0.790797 10.9934 4.75442
337 2 -2.70971 8.47171 5.07268
278 1 1.86727 9.2183 2.5289
285 2 1.07769 9.50731 1.80431
286 2 1.64975 9.36818 3.63944
139 2 1.63602 13.0476 2.98501
21 4 -2.86297 12.4709 0.0384656
112 2 -2.69768 7.65165 2.196
9 4 -3.49916 14.2811 7.41603
113 2 -3.69571 9.39428 1.99157
45 4 2.04793 11.501 11.5795
23 4 -4.62272 12.0198 9.05183
24 4 -2.89299 9.08326 11.7677
25 4 -2.30678 12.1284 11.2112
30 4 0.95463 13.8469 13.4367
37 4 1.79437 7.03711 15.5416
41 4 0.155168 12.1435 9.35621
43 4 2.551 9.32414 13.6212
44 4 -0.528466 12.2212 15.6112
210 3 -0.281119 13.2873 14.4358
72 1 -3.94336 8.56737 13.2044
73 1 -0.759026 10.5379 14.6861
213 3 1.73849 10.0828 12.2932
339 2 -5.03925 13.4787 13.6764
211 3 -1.85017 12.5087 16.5372
214 3 1.5464 12.7046 12.5202
38 4 3.60174 7.11947 11.682
149 2 -3.65804 9.44433 13.9311
150 2 0.221649 9.87376 14.6642
151 2 -1.29383 10.6324 13.6667
152 2 -1.5163 10.0789 15.4062
175 3 -2.05551 7.69004 11.284
176 3 -4.2855 11.8606 15.7042
177 3 -3.5045 11.7901 10.0889
178 3 -2.13295 10.5021 12.0604
179 3 -2.84319 13.3135 12.1204
209 3 0.839094 12.0844 16.6015
196 3 2.87826 7.27246 16.6345
212 3 1.6586 11.6352 10.0131
204 3 -0.851032 12.5387 10.4644
207 3 1.52024 8.6126 14.6071
147 2 -3.74272 7.53215 13.7374
81 2 -4.33755 9.3388 10.8197
208 3 3.50189 8.19346 12.7898
16 4 -0.911614 6.75738 16.9926
146 2 1.58994 9.5888 8.53305
15 4 11.9217 6.87763 5.23697
46 4 9.67479 2.52437 3.4531
49 4 12.0568 1.95482 5.20222
50 4 10.9639 5.26005 2.77277
51 4 7.40564 6.39167 4.81828
228 3 10.749 6.97921 6.37929
53 4 10.4161 3.48222 7.49887
54 4 9.44275 6.31259 7.00558
346 2 9.59996 0.537589 0.521385
91 2 9.33778 1.79339 1.91035
94 2 12.4404 4.43856 2.47803
95 2 8.31914 5.17506 4.06621
34 4 5.98919 3.53991 7.11082
347 2 7.66388 0.260106 1.08956
297 3 12.1374 1.70957 0.76613
129 2 6.79552 5.69858 7.88764
192 3 7.11876 3.02356 6.0942
215 3 8.44742 1.92164 4.25625
219 3 13.4918 2.70148 4.90222
220 3 11.1024 1.9534 3.85737
221 3 12.353 0.24359 5.71659
222 3 9.7347 4.17782 3.46448
223 3 11.3155 6.38233 3.83527
224 3 5.91285 5.90471 4.71658
225 3 10.5759 5.86105 1.38927
268 1 5.79641 5.29648 0.101942
227 3 11.2735 2.70278 6.40042
226 3 9.64262 2.39942 8.41991
229 3 8.0579 6.66135 6.24364
230 3 9.6351 4.7698 7.19022
216 3 13.1547 0.597594 8.17538
294 4 13.0249 0.705618 1.7462
183 3 7.68352 0.400622 6.43605
296 3 14.1692 1.28115 2.62434
29 4 7.38934 1.55179 5.37075
280 2 5.41583 7.04296 0.938665
279 1 8.80812 -0.0319005 1.222
271 2 6.14592 5.32443 1.16689
52 4 10.2161 7.27031 0.768914
340 2 12.6163 4.31946 0.051802
288 2 9.18215 -0.0797292 2.25539
10 4 13.6897 1.61035 9.33262
310 2 11.5804 6.01281 15.5546
32 4 6.85857 1.5429 11.1823
48 4 9.40072 1.09476 9.27198
58 1 12.2978 2.15305 10.6372
65 1 7.24402 3.3522 11.4883
68 1 4.96591 5.87988 12.1523
93 2 10.705 0.979058 10.3619
270 2 6.13525 5.31438 16.4598
106 2 12.0319 1.17789 11.1428
107 2 11.4458 2.62263 10.0274
108 2 12.7193 2.90145 11.4157
126 2 8.3506 3.4811 11.8661
127 2 6.49895 3.57694 12.2844
128 2 7.05192 3.9054 10.3801
342 2 11.5937 5.98763 10.3428
136 2 4.94269 5.69649 13.2785
12 4 13.6021 1.84324 14.5893
109 2 12.4076 4.14825 10.2019
96 2 9.29315 6.30443 16.1387
130 2 7.74174 4.23552 8.76327
218 3 8.09461 1.27719 10.1995
243 1 8.06736 6.12828 11.158
131 2 5.90537 4.88209 9.39106
248 2 7.80528 6.45596 14.9591
256 2 7.56171 5.58129 10.2078
257 2 7.88928 5.61108 12.1011
258 2 9.30154 6.27183 10.9445
298 4 11.4337 2.17708 16.6195
299 4 8.78921 2.9283 15.3599
300 4 10.105 5.16321 13.5963
301 1 10.3211 3.78115 12.2871
302 1 11.8233 5.729 14.5108
303 2 8.63064 1.76437 14.0836
304 2 9.29194 6.40576 12.7256
305 2 9.90506 2.76782 12.5293
306 2 11.5303 3.80723 12.4589
307 2 9.98928 4.20542 11.2878
349 2 8.18942 0.570409 15.2975
309 2 12.2489 4.62299 14.3177
137 2 6.14706 6.00124 11.7894
311 3 11.9955 1.68681 15.2218
312 3 9.96447 2.57209 16.376
313 3 7.32986 2.99444 16.0063
314 3 9.1868 4.41223 14.5923
328 1 8.6619 -0.164938 14.5776
329 2 9.43396 0.33587 13.9437
335 2 14.265 0.496377 13.8376
267 4 5.86502 2.90765 16.654
66 1 6.73915 4.75683 8.55174
59 1 12.4306 5.32278 9.89453
97 2 11.4783 4.16368 8.62361
188 3 6.86731 0.507672 12.5693
156 2 11.0078 9.25589 3.61519
144 2 3.25892 10.1542 7.85946
55 4 8.61842 8.85745 3.15856
332 2 5.88475 12.433 1.69157
74 1 7.63072 10.5879 2.81521
75 1 10.006 9.53375 4.23652
206 3 2.47456 12.4726 6.38848
92 2 4.96406 13.7357 7.64108
47 4 6.39104 14.2821 7.07322
5 2 9.37759 13.2503 3.55668
153 2 7.27094 10.2865 1.73824
154 2 8.24733 11.5079 2.66795
155 2 6.7871 10.7009 3.56457
345 2 9.68895 11.1615 0.39755
157 2 9.8436 8.81454 5.2075
158 2 9.67906 10.6409 4.29791
275 4 2.68404 12.9062 0.367964
27 4 1.80127 13.8864 7.47412
232 3 9.18804 8.1271 1.53214
330 1 6.43992 13.4124 2.02393
273 4 4.6757 8.38427 0.208274
274 4 3.41806 10.4286 2.24645
250 2 9.0232 8.9656 8.44088
276 4 4.80261 11.8692 4.67581
277 4 7.08975 11.4322 6.16516
331 2 7.30629 13.1531 2.68586
295 2 7.33462 13.7548 0.684494
281 2 5.71205 13.0376 3.80724
282 2 3.61869 12.9842 5.2625
283 2 7.96421 11.235 4.65127
284 2 7.92018 10.3325 7.24064
99 2 11.6658 8.17986 0.676007
289 3 4.55514 9.49048 1.34515
231 3 7.79232 7.78046 3.97267
291 3 3.99709 10.8736 3.68461
292 3 5.5381 11.1841 5.87075
293 3 7.26674 12.891 6.91769
290 3 2.89286 11.7758 1.52793
217 3 3.15349 14.2787 8.3875
338 2 10.1897 10.4915 8.40473
333 2 5.33713 14.4544 2.78807
344 2 8.19576 13.4432 13.697
56 4 4.45915 11.453 15.3462
76 1 5.38082 12.6646 14.2492
86 2 4.52205 7.66106 10.224
90 2 3.81506 11.6984 11.4812
101 2 5.60009 10.6271 16.33
254 2 6.20501 8.83269 8.70362
252 2 9.62282 9.82087 9.98234
159 2 5.16821 12.0589 13.2562
160 2 6.55633 12.8982 14.4778
102 2 9.22124 12.644 9.70543
233 3 3.51971 10.4507 14.4217
234 3 3.6565 12.4793 16.2715
235 4 9.43601 11.5481 15.1502
236 4 6.26219 8.19629 14.7215
237 4 7.87823 8.05051 10.7361
238 4 7.80708 10.1763 13.034
239 4 6.80919 12.5395 11.093
240 1 7.96574 7.58988 15.3982
241 1 9.55662 8.8359 9.45778
242 1 6.28636 8.37797 9.72355
244 1 5.18675 12.0714 10.0966
246 2 6.59642 12.0301 9.22226
247 2 8.83487 8.13345 14.924
326 2 7.6741 11.5526 16.55
251 2 10.4722 8.23778 9.44732
343 2 7.76153 13.5936 15.5627
253 2 6.04032 7.16471 9.73148
323 1 8.5648 13.4766 14.7836
255 2 5.79299 8.99545 10.5905
259 2 4.29557 12.2967 9.30656
260 2 5.05548 13.2308 11.3747
261 2 4.9721 11.0251 10.5037
262 3 5.27098 8.00189 15.9436
263 3 6.7193 9.65661 14.2883
264 3 8.02526 8.82282 12.1047
265 3 9.22171 10.678 13.8173
266 3 7.19155 11.3906 12.1167
245 2 5.78774 7.1815 13.3819
350 2 4.73107 13.6564 14.2822
341 2 7.76863 13.9837 11.1435
348 2 2.90794 13.6504 15.2505
145 2 3.7209 8.63966 8.64967
148 2 10.2522 8.66962 12.7517
249 2 7.96615 7.67784 16.5299
327 2 8.22147 9.50765 16.1779
325 1 8.5418 10.5907 16.5038
98 2 9.25281 7.03846 8.59729
ITEM: TIMESTEP
200
ITEM: NUMBER OF ATOMS
350
ITEM: BOX BOUNDS xy xz yz pp pp pp
-6.7108999999999996e+00 1.5238200000000001e+01 -6.2626999999999997e+00
-6.4842000000000000e-01 1.4647828000000001e+01 -4.4819999999999999e-01
0.0000000000000000e+00 1.7008500000000002e+01 -6.4842000000000000e-01
ITEM: ATOMS id type x y z
7 4 -0.809613 2.87196 3.38965
180 3 3.39756 0.434433 3.34769
14 4 0.20396 5.12344 1.77825
17 4 -0.683709 6.20878 6.46938
26 4 4.57496 1.48064 3.70744
318 2 0.819202 0.803414 0.17684
33 4 1.62467 6.10067 4.24594
319 1 -0.861408 3.26045 8.45154
36 4 4.38076 5.65973 5.65303
57 1 1.21121 0.567049 6.77643
62 1 4.98968 3.01528 2.52044
77 2 0.857036 2.9763 3.85227
201 3 4.12455 6.86425 6.66617
79 2 -0.349657 5.07806 7.76007
82 2 5.22386 1.75461 1.71163
103 2 0.303611 -0.101399 7.014
104 2 1.51358 0.574653 5.69557
105 2 1.14543 1.52919 7.24583
117 2 3.97547 3.06955 4.16481
118 2 4.21742 3.77583 2.04519
315 1 1.80646 1.43428 0.286777
164 3 -1.33699 4.09515 2.42958
165 3 0.998778 4.18512 0.607527
166 3 -0.463405 6.42582 1.28977
167 3 -2.11993 5.80613 5.88145
182 3 5.7919 1.04365 4.61511
320 2 -0.960806 3.1163 7.33242
189 3 1.12954 5.21842 3.06573
190 3 0.541482 6.1533 5.49707
191 3 5.47116 2.15824 8.06861
194 3 3.05902 5.51423 4.76563
195 3 4.65931 4.20321 6.53611
334 2 1.1737 0.538584 1.89523
316 2 2.02109 1.87267 1.31201
119 2 5.95624 3.42581 3.02909
200 3 2.11351 6.48157 8.47023
8 4 0.751935 2.44181 16.4258
197 3 0.247571 6.55436 16.05
13 4 0.867646 1.52726 11.1147
18 4 -0.422969 3.87248 12.8399
19 4 -1.31135 6.12606 10.8544
28 4 4.51851 1.68316 9.20386
31 4 3.48217 2.10196 14.5362
35 4 1.49945 5.92431 9.80543
11 4 2.49782 -0.350906 13.0018
63 1 3.4222 3.31795 9.51893
64 1 3.91017 3.04049 12.9657
67 1 2.33586 5.61657 14.4425
83 2 1.83195 2.15807 9.87964
336 2 -2.38303 6.16904 16.0321
85 2 0.600966 4.65639 13.9367
308 2 -2.79351 5.96458 13.4051
110 2 -2.30663 5.7802 8.75084
120 2 2.94933 3.33275 10.5663
272 2 4.41271 5.02481 16.8619
122 2 4.07854 4.21448 9.3508
123 2 2.9562 3.61733 12.8628
124 2 4.15066 2.4164 12.0956
125 2 4.74678 3.69332 13.3064
132 2 2.08637 4.53755 14.9111
133 2 3.44667 5.79762 14.3539
134 2 1.80968 5.81661 13.4626
161 3 -0.671121 1.98061 15.846
162 3 -0.346344 0.660687 10.4233
163 3 1.82922 0.648512 11.9289
168 3 -1.45286 3.00911 13.6702
169 3 0.324958 2.85624 11.8559
170 3 -1.12768 5.07023 12.0573
84 2 1.6672 4.19933 9.75154
184 3 3.21628 0.564552 14.0735
185 3 4.60283 2.41138 15.6908
186 3 1.86144 2.80872 15.3191
187 3 5.38096 1.47306 10.5408
135 2 4.71894 5.00185 11.3567
193 3 -0.0887897 6.17342 9.83909
198 3 2.39795 6.41048 11.001
322 2 -1.48781 4.07588 8.89873
321 2 0.216287 3.16525 8.85954
317 2 2.22856 0.348977 16.7626
121 2 2.6837 3.1432 8.66404
181 3 3.59579 0.528733 8.60428
1 4 -3.94861 14.0654 2.63464
2 1 -4.71223 12.9312 3.85856
3 2 -4.42296 12.8789 4.99887
114 2 -3.74372 9.83579 5.67681
6 3 -3.39895 13.2316 1.38051
111 2 -2.48216 9.16759 3.3096
20 4 -1.70157 9.94268 1.19721
22 4 -1.26703 9.2825 7.31163
80 2 -3.05871 9.1402 7.89224
39 4 -0.303419 11.7759 3.64441
40 4 2.8361 7.51113 7.53729
42 4 1.68636 11.1905 5.96673
60 1 -2.91829 8.79289 2.33187
61 1 -2.82369 9.97837 6.35967
69 1 0.351674 13.3937 2.96486
70 1 -1.74235 12.5053 4.85133
87 2 1.78936 7.74082 3.77151
88 2 1.65988 8.41727 6.52385
100 2 0.605359 10.9555 7.37671
78 2 -2.479 13.9649 6.04483
71 1 2.54384 9.7613 7.59354
287 2 2.2159 8.21031 1.95039
115 2 -1.33927 9.93966 5.57393
116 2 -2.94043 11.0592 6.72719
138 2 -0.0702695 13.3723 1.88981
146 2 1.57366 9.71106 8.03371
140 2 0.144488 14.3522 3.60789
141 2 -1.6317 11.8161 5.71079
142 2 -2.82072 12.6049 4.43484
143 2 -1.23392 13.4743 5.08396
171 3 -0.693113 8.87505 0.403482
172 3 -2.67525 10.8697 0.404016
173 3 -0.874508 7.7306 7.21744
174 3 -4.15895 12.9149 7.88316
4 2 -4.6773 11.9139 3.23664
199 3 -0.852838 10.8152 2.42352
202 3 -0.40312 10.7564 8.34378
203 3 0.6085 13.2856 8.26109
205 3 0.773268 11.1907 4.68777
337 2 -2.70236 8.37458 5.18743
278 1 1.92924 9.16184 2.39125
285 2 1.11225 9.6931 1.82675
286 2 1.95542 9.35136 3.53034
139 2 1.45419 13.0083 2.98684
21 4 -2.83016 12.4047 0.0173263
112 2 -2.84352 7.6675 2.32689
9 4 -3.55142 14.2164 7.40392
89 2 2.81469 9.76093 5.82109
5 2 -5.8043 13.439 3.69466
16 4 -0.581523 7.37461 0.00833702
113 2 -3.99208 9.17483 2.16563
324 2 -5.95784 13.9886 15.0668
23 4 -4.57387 11.9902 9.11453
24 4 -2.73302 9.10849 11.73
25 4 -2.29097 12.068 11.2373
30 4 0.883732 13.9752 13.4633
37 4 1.73466 7.09949 15.4858
41 4 0.17504 12.2241 9.34875
43 4 2.53524 9.33549 13.5464
44 4 -0.555413 12.153 15.6653
210 3 -0.166212 13.2301 14.4353
72 1 -3.95683 8.69006 13.0533
73 1 -0.929493 10.4503 14.8953
213 3 1.93188 10.2763 12.3102
339 2 -5.09555 13.5126 13.7598
211 3 -1.85919 12.4293 16.5093
214 3 1.55116 12.9132 12.4342
38 4 3.60721 7.18377 11.6704
149 2 -3.60105 9.54959 13.7961
150 2 -0.0669822 9.67647 14.7516
151 2 -1.41677 10.6628 13.8372
152 2 -1.72751 9.9921 15.5657
175 3 -1.99607 7.73619 11.4667
176 3 -4.43986 11.9944 15.7813
177 3 -3.40982 11.6277 10.1294
178 3 -1.97033 10.5718 11.9913
179 3 -2.9306 13.1842 12.2784
209 3 0.711757 12.2728 16.714
196 3 2.94078 7.30335 16.4892
212 3 1.61601 11.6377 10.1384
204 3 -0.93119 12.4985 10.3553
207 3 1.31964 8.5975 14.4391
208 3 3.48848 8.02608 12.9445
81 2 -4.1511 9.24452 10.7331
310 2 -3.45203 6.82531 14.9128
15 4 11.9465 6.78858 5.32998
46 4 9.68798 2.48681 3.54665
49 4 12.0038 2.01483 5.32345
50 4 10.9315 5.21447 2.8183
51 4 7.40248 6.46187 4.85097
228 3 10.7229 6.87957 6.41908
53 4 10.4647 3.47058 7.61573
54 4 9.41884 6.25569 7.04503
346 2 10.0049 0.556818 0.781302
91 2 9.62395 1.90689 1.92852
94 2 12.3198 4.21875 2.67645
95 2 8.39636 5.25748 4.15843
34 4 5.97311 3.4654 7.15307
347 2 8.21269 0.457261 1.32864
297 3 12.0544 1.60034 0.79784
129 2 6.85193 5.62569 7.78258
192 3 7.01732 2.94012 6.05864
215 3 8.53653 1.77266 4.29577
219 3 13.5698 2.78051 4.75322
220 3 11.1005 1.91713 3.93665
221 3 12.3974 0.475614 5.83371
222 3 9.63264 4.2362 3.39309
223 3 11.4075 6.33935 3.86481
224 3 5.96068 5.95403 4.85966
225 3 10.52 5.84714 1.42917
268 1 5.97041 5.35775 0.0881113
227 3 11.2515 2.84993 6.45725
226 3 9.60716 2.39977 8.36904
229 3 8.04303 6.7388 6.28154
230 3 9.58187 4.72162 7.29574
216 3 13.1717 0.668537 8.22454
294 4 12.9236 0.72821 1.76538
183 3 7.73274 0.350914 6.3294
296 3 14.3593 1.54046 2.57766
29 4 7.35255 1.50042 5.31773
280 2 5.15774 6.92893 0.974184
279 1 9.17217 -0.0162279 1.39596
271 2 6.27891 5.18906 1.20597
340 2 12.603 4.11319 0.204892
269 2 6.40137 2.76228 1.16154
52 4 10.1829 7.26138 0.927147
217 3 9.50802 -0.312747 8.37153
10 4 13.7411 1.63967 9.24481
188 3 6.98364 0.763722 12.8074
32 4 6.84812 1.47776 11.218
48 4 9.33672 1.0067 9.18103
58 1 12.2888 2.21293 10.4959
65 1 7.36067 3.3089 11.342
68 1 5.07041 6.0023 11.9908
93 2 10.8268 0.917439 10.0408
270 2 6.30743 5.22959 16.3254
106 2 12.0262 1.22619 11.129
107 2 11.4024 2.604 9.93205
108 2 12.8407 3.00835 11.1246
126 2 8.54442 3.50993 11.7011
127 2 6.64445 3.61421 12.1933
128 2 7.13153 3.86319 10.2964
342 2 11.6146 6.018 10.2002
136 2 4.86391 5.76967 13.1064
12 4 13.5715 1.82921 14.6706
109 2 12.4358 4.1883 10.1238
96 2 9.30239 6.30882 16.3101
130 2 7.77589 4.27616 8.72877
218 3 8.08197 1.01097 10.2601
243 1 8.1549 6.18674 11.1423
131 2 6.19408 4.87814 9.37353
248 2 7.76874 6.53004 14.7707
256 2 7.71526 5.58553 10.168
257 2 7.78736 5.70988 12.1412
258 2 9.35325 6.24113 10.961
298 4 11.2748 2.11557 16.6864
299 4 8.77124 2.92043 15.3951
300 4 10.1587 5.11919 13.5929
301 1 10.4913 3.9983 12.1137
302 1 11.8623 5.85108 14.3492
303 2 8.74945 1.6136 14.2476
304 2 9.41015 6.44254 12.6826
305 2 10.1653 2.90139 12.2637
306 2 11.698 4.11992 12.137
307 2 10.0503 4.4464 11.2014
349 2 8.16662 0.368362 15.327
309 2 12.2074 4.95433 14.9576
137 2 6.2303 6.22003 11.8272
311 3 11.8913 1.62713 15.2903
312 3 9.69565 2.51844 16.5575
313 3 7.33454 2.96315 15.8715
314 3 9.195 4.35341 14.6435
328 1 8.71393 -0.322423 14.6145
329 2 9.52727 0.146362 13.9647
335 2 13.7995 0.25746 13.9749
267 4 5.91568 2.91708 16.5805
66 1 6.80158 4.72149 8.50891
59 1 12.4949 5.41372 9.83367
97 2 11.7881 4.02297 8.62977
156 2 10.9366 9.14536 3.78607
144 2 3.10082 10.5852 8.05756
55 4 8.48606 8.83049 3.1595
332 2 5.85639 12.6142 1.58505
74 1 7.46323 10.5494 2.97603
75 1 9.89907 9.29335 4.41812
206 3 2.48618 12.4396 6.2813
92 2 4.74833 13.8945 7.5182
47 4 6.299 14.2598 7.05836
288 2 3.16315 14.2271 2.43238
153 2 6.97721 10.1588 1.99062
154 2 7.96477 11.6001 2.91008
155 2 6.71707 10.3829 3.85562