ITEM: TIMESTEP
0
ITEM: NUMBER OF ATOMS
350
ITEM: BOX BOUNDS xy xz yz pp pp pp
-6.7252000273622814e+00 1.5083142194053744e+01 -6.7181261655161881e+00
-9.2236853537990759e-01 1.4228599782302123e+01 -9.8042760768633219e-03
-2.1607667323829638e-01 1.7224576673238090e+01 -1.1965687530777740e+00
ITEM: ATOMS id type x y z
7 4 -0.935477 2.81443 3.51659
14 4 0.0383627 5.21121 1.83326
164 3 -1.32782 4.14213 2.64176
166 3 -0.608376 6.38143 0.912119
79 2 -1.77981 4.71326 7.33457
17 4 -1.04397 5.9726 6.35723
78 2 0.0828108 1.90241 6.20501
167 3 -2.21822 6.66697 5.46633
77 2 0.613301 2.93636 4.18064
190 3 0.25921 5.38719 5.64556
57 1 1.0035 2.51715 6.11329
105 2 0.662344 3.71712 5.91604
165 3 1.00708 4.27437 0.894917
189 3 0.855881 5.97136 2.95795
26 4 3.99696 2.28855 3.35516
315 1 1.55196 1.36009 0.231218
33 4 1.16598 6.26797 4.54093
270 2 7.14408 1.00884 -0.0403903
62 1 3.08872 3.92428 2.97804
82 2 3.81568 4.78482 2.9666
117 2 2.32205 4.10283 2.19602
118 2 2.50497 3.77965 4.10153
119 2 4.3698 3.09458 1.81586
182 3 5.20013 2.29618 4.40415
183 3 6.32939 0.427332 5.86695
194 3 2.721 6.298 4.78489
195 3 4.56127 5.00455 6.33435
268 1 6.4333 1.816 1.40634
272 2 5.39989 1.35866 1.54381
180 3 3.32357 0.91889 2.99358
143 2 1.03635 0.573811 6.60828
280 2 4.47401 6.10934 0.344532
318 2 1.38724 1.82036 1.37036
104 2 1.63079 2.46577 7.07535
181 3 3.22432 0.721435 8.19779
103 2 1.63222 2.17348 5.20633
191 3 4.40751 3.12581 8.30301
36 4 4.27223 6.36142 5.48446
316 2 2.65917 1.25917 0.0486342
34 4 5.40059 3.95869 7.40367
317 2 1.0001 0.362289 0.0196263
18 4 -0.0577125 3.11147 12.7234
19 4 -0.593111 5.43327 10.8872
161 3 -0.220418 1.58778 15.9412
170 3 -0.684298 4.05276 11.5755
110 2 -1.53214 5.27158 9.44635
133 2 -0.357296 6.07335 14.3846
168 3 -1.20376 2.69376 13.6925
67 1 0.703193 5.74997 14.4789
132 2 1.3095 5.83745 13.5243
169 3 0.676669 1.82496 12.1409
134 2 0.771604 4.82162 15.0612
193 3 0.839943 5.69025 10.4394
85 2 1.11923 4.00999 13.5595
84 2 2.27038 3.92436 9.44386
8 4 1.12955 1.78611 16.8753
13 4 0.97748 0.305079 11.5554
28 4 4.12658 1.75764 9.08576
31 4 3.84292 1.77741 15.2853
35 4 2.33315 5.53248 10.0397
63 1 2.94468 2.40337 10.5146
64 1 4.30226 3.44851 14.423
83 2 2.23622 0.47142 10.4659
120 2 1.90592 2.21922 10.1821
121 2 3.17242 3.53488 10.8952
122 2 3.30478 1.63624 11.3011
123 2 4.2235 3.18104 13.3266
210 3 7.31203 -0.743209 14.6699
125 2 3.45303 4.06613 14.86
184 3 3.63339 0.605589 14.0584
185 3 5.14365 1.59615 16.2913
186 3 2.48486 2.10998 16.2305
187 3 5.32149 1.38991 9.95459
198 3 3.26814 5.59455 11.2948
188 3 6.78815 0.463988 12.3411
86 2 4.48643 5.28973 13.8195
308 2 -3.25784 6.31134 10.9887
126 2 5.37432 3.79487 11.1071
200 3 2.876 6.54283 8.76434
60 1 -4.55823 9.66288 4.7643
141 2 -3.64303 12.7456 5.33281
142 2 -2.04103 13.5227 6.2386
295 2 -5.92919 13.5956 2.21188
3 2 -2.80911 11.885 6.81785
70 1 -3.01547 12.8929 6.28316
1 4 -4.06731 13.4096 2.47599
6 3 -3.50661 12.9464 1.10461
16 4 -0.263584 7.96828 0.720419
20 4 -2.3647 10.093 1.08785
22 4 -0.419904 8.89951 7.11281
39 4 -1.05706 11.6779 3.55953
138 2 -1.12556 13.0354 1.63663
115 2 -2.30758 12.3869 4.52138
285 2 2.20646 7.96221 2.42962
171 3 -1.5925 8.75256 0.914481
173 3 -0.658535 7.29872 7.30928
199 3 -1.76002 10.8712 2.37238
202 3 -0.817785 10.0011 8.15453
80 2 -0.498921 9.37902 5.35377
69 1 -0.535439 13.2104 2.67749
111 2 -3.95801 9.58542 1.4508
2 1 -5.46025 12.6032 3.55924
205 3 0.176818 11.2003 4.35346
334 2 -3.97974 11.8131 3.67919
203 3 0.0371885 12.5721 7.99197
4 2 -5.46279 13.2793 4.40399
112 2 -3.47114 8.81222 4.55796
139 2 0.604741 13.4865 2.35594
337 2 -4.18974 10.636 5.21443
174 3 -5.05984 12.4589 8.26589
286 2 1.36508 9.35135 3.49127
252 2 -4.59756 9.8904 6.821
99 2 0.660588 8.46114 2.11449
87 2 0.724725 7.91048 4.85768
241 1 -4.65071 9.74904 8.06125
61 1 1.09478 9.26419 6.24815
116 2 2.03527 8.70948 5.86741
40 4 3.49814 7.79084 8.01721
42 4 1.50815 11.1156 5.18204
88 2 2.26466 8.99887 7.80441
100 2 1.56367 10.7343 7.12302
278 1 2.2979 8.90496 3.09156
290 3 2.17428 10.9764 1.1563
287 2 3.17805 8.79303 3.84155
140 2 -1.08492 13.9545 3.44273
9 4 -4.35376 13.6675 7.31845
27 4 0.73218 13.5548 6.91508
214 3 1.04816 12.025 12.2065
163 3 -5.16823 13.2908 12.736
149 2 -3.46412 6.64712 13.6598
213 3 1.48084 9.34572 12.0475
196 3 2.91656 6.19369 16.1244
45 4 1.6385 10.7777 11.3608
208 3 3.39703 7.63882 13.0957
175 3 -1.04904 6.69912 11.6785
21 4 -2.97763 11.3755 17.0912
258 2 -3.80911 8.5855 10.8403
339 2 -3.65633 12.025 14.4936
23 4 -5.02306 11.1266 9.19821
24 4 -1.47862 8.03984 12.5273
25 4 -2.42158 11.3848 11.1029
41 4 -0.292328 11.3254 8.91325
44 4 -0.294231 11.841 15.7385
73 1 -0.489931 10.4562 14.5534
150 2 -1.47998 9.98447 14.8837
151 2 0.404043 9.68581 14.6689
176 3 -4.36866 11.2794 15.8286
177 3 -3.78624 11.0894 10.2103
178 3 -2.0644 9.84785 11.8015
179 3 -2.65968 12.6792 12.119
204 3 -1.47102 11.6629 9.97959
211 3 -1.86423 12.2599 16.3461
72 1 -2.78461 7.53542 13.9646
81 2 -2.3424 7.33532 14.9525
147 2 -0.962657 8.06747 14.196
102 2 -0.619179 9.51758 11.9467
152 2 -0.441787 10.8411 13.4191
207 3 1.70613 8.49104 14.7469
148 2 -3.3544 8.53413 13.8812
197 3 0.510027 7.16277 16.8646
43 4 2.57558 8.93571 13.4642
37 4 1.61416 7.06033 15.6615
209 3 0.675811 11.4448 17.0159
212 3 1.15683 10.8889 9.75775
11 4 -3.62724 13.2058 13.2891
38 4 4.0172 6.38663 12.497
250 2 -3.73707 9.32563 8.52157
172 3 -2.53532 9.76712 17.2098
229 3 7.97178 5.93793 5.4722
192 3 6.3751 3.10035 6.50102
271 2 6.41179 3.46761 1.4587
331 2 12.2137 0.302892 3.24432
95 2 7.25181 4.96892 3.24948
51 4 7.09387 6.30336 4.20759
130 2 7.59564 4.83135 8.21321
342 2 11.8197 5.41833 8.37656
215 3 7.96995 2.06359 4.49425
269 2 7.00232 1.59874 2.28248
219 3 13.1859 2.40514 4.72262
46 4 9.38406 2.35943 3.86696
49 4 11.8557 1.94411 5.41006
50 4 10.6679 4.96575 2.8416
53 4 10.4725 3.65652 7.59986
91 2 9.26182 1.6483 2.29136
94 2 12.1236 4.21765 2.55941
220 3 10.5662 1.48142 4.32919
221 3 12.1972 0.581374 6.3061
222 3 9.86361 3.81055 3.49653
223 3 11.1037 6.24001 3.63609
225 3 9.82241 5.16872 1.54491
227 3 11.3258 3.23859 6.34619
230 3 9.39224 4.87257 7.5176
217 3 8.39101 0.691351 7.57544
294 4 13.2479 1.02458 1.33896
297 3 12.1682 2.00771 0.664039
52 4 9.13315 5.74583 0.189246
54 4 9.03561 6.06061 6.54873
232 3 8.375 7.10955 0.563766
288 2 8.04674 0.701131 1.4062
224 3 5.52507 6.64964 4.49682
296 3 14.1509 1.60387 2.39398
29 4 6.55293 1.96325 5.3273
347 2 9.88453 0.368992 0.838094
97 2 12.8531 3.74559 8.1982
310 2 11.6033 6.06973 -0.185012
162 3 14.7888 -0.0573822 10.6895
128 2 6.43197 3.15004 12.661
30 4 7.73962 -0.604346 13.0533
131 2 6.48905 4.33271 9.71016
321 2 13.8027 2.14787 9.33917
12 4 13.6759 1.45695 14.8636
65 1 6.35127 3.40491 11.5126
137 2 5.90609 6.50941 10.5073
226 3 10.0599 2.45197 8.7651
249 2 6.65885 4.99898 13.7323
127 2 7.28062 3.96001 11.2704
240 1 7.53271 5.21667 14.4898
245 2 7.55727 4.41595 15.3176
93 2 10.9507 -0.084321 9.51861
218 3 7.95514 1.56848 10.1449
107 2 9.67741 -0.149302 10.9421
323 1 13.682 -0.149933 13.7616
256 2 10.0687 5.95682 10.2977
340 2 11.5703 3.25376 17.2117
303 2 7.7794 0.678999 15.232
247 2 8.60922 5.18309 13.88
96 2 10.387 5.93943 16.2376
129 2 6.15613 5.922 8.64874
298 4 11.4697 1.55327 16.886
312 3 9.7992 1.11879 16.8557
335 2 14.7387 -0.485648 13.9498
320 2 12.8565 2.48989 11.1539
336 2 10.668 4.00023 15.7764
313 3 7.83056 3.21623 16.9064
109 2 11.8319 4.0925 9.91174
319 1 12.2833 1.66287 10.5563
348 2 9.30595 0.877144 12.2812
10 4 13.6228 0.499528 9.76561
48 4 8.97016 1.25687 8.95499
58 1 9.8476 -0.270943 9.76644
299 4 8.84702 1.90671 15.8142
300 4 10.3286 3.23841 13.1472
301 1 10.396 5.15635 13.045
302 1 10.6477 4.8524 16.6063
304 2 9.13425 4.21709 12.1203
305 2 11.8293 4.2625 13.5126
306 2 11.0674 2.12156 12.0149
307 2 10.6125 5.78545 12.0507
309 2 9.99821 5.74319 13.9013
311 3 12.2097 1.29595 15.508
314 3 9.60361 2.64606 14.4266
322 2 11.9418 0.762624 11.3081
349 2 9.87227 0.318506 14.001
328 1 9.54833 -0.0257648 12.9571
108 2 11.3826 2.04565 9.86537
343 2 13.5085 0.156157 12.7015
59 1 11.9951 4.29636 8.68616
66 1 6.57308 4.85407 8.65361
32 4 6.59905 1.6054 10.8989
135 2 6.31237 6.09693 12.3299
267 4 6.44613 1.54913 17.1668
124 2 5.34222 3.8346 14.7758
157 2 10.1376 8.54763 2.43207
156 2 8.45082 11.1959 6.10482
281 2 4.2387 13.8513 1.89443
251 2 9.39142 9.1793 8.34549
47 4 5.46918 13.2816 7.31573
155 2 9.48217 10.9577 2.4157
92 2 3.93189 13.153 8.02114
201 3 4.25169 7.58625 6.61222
206 3 1.71823 12.489 5.8724
274 4 3.35036 9.85571 1.65263
276 4 5.41745 11.6829 3.03158
277 4 6.7591 11.0762 5.72821
282 2 4.43181 12.9762 3.72814
98 2 8.23019 7.03802 7.72579
289 3 3.85019 8.71842 0.620204
5 2 8.71125 11.8732 3.63774
291 3 4.45359 10.5617 2.52884
292 3 6.54589 11.2528 4.17412
293 3 5.89449 11.9058 6.70814
330 1 5.32776 13.8091 2.18959
333 2 6.31338 12.4044 1.57779
332 2 7.44624 14.0464 0.166398
275 4 2.03811 12.2561 0.17884
153 2 7.57869 9.85968 1.62942
326 2 9.06769 12.0995 0.522922
75 1 7.63429 9.48553 6.39896
158 2 6.59618 8.93806 6.40426
283 2 8.03156 9.4654 7.40343
114 2 10.0458 9.83314 3.71788
55 4 8.37396 8.06896 1.92713
154 2 9.48855 10.0588 0.719288
113 2 9.8101 9.23759 5.43075
74 1 9.24808 9.96179 1.78931
231 3 7.79587 7.44968 3.26609
284 2 8.36965 9.00271 5.63763
346 2 2.63645 13.3575 2.29695
279 1 2.31186 13.8709 1.35617
15 4 11.426 6.96829 4.93832
89 2 2.7811 10.4895 4.31601
228 3 10.2366 6.89078 5.94991
262 3 5.48621 6.54363 16.1926
237 4 9.59372 8.00077 10.9905
324 2 6.18518 13.0775 14.2142
329 2 3.65845 13.1686 12.4684
68 1 5.68449 6.76739 11.5966
273 4 4.21294 6.3818 17.0032
236 4 6.83327 6.82492 15.1685
265 3 8.44363 10.0275 14.4286
235 4 9.15319 11.0709 15.6802
136 2 5.66303 7.94025 11.8585
325 1 8.23052 11.1931 17.1846
145 2 3.89959 9.492 9.63994
144 2 5.02359 7.9729 10.1279
106 2 2.66035 12.7336 9.34079
71 1 4.61469 8.66401 9.24098
350 2 6.10962 11.5017 14.3923
341 2 4.6373 11.1367 12.3609
56 4 3.80752 11.2668 15.1205
76 1 5.63188 11.1909 15.3666
90 2 3.27203 11.1247 11.3751
101 2 6.05236 11.7726 16.2786
159 2 3.34038 12.8968 14.5411
160 2 5.74028 10.0075 15.5073
233 3 3.47454 10.1502 14.0046
234 3 3.22069 11.1252 16.559
239 4 7.06807 11.1573 11.3192
244 1 5.06474 11.9767 11.7076
260 2 5.7843 11.4093 10.0627
261 2 4.35 12.5644 10.9831
263 3 6.91829 7.947 14.0857
246 2 5.64364 12.7677 12.4356
266 3 7.09258 9.84651 12.0847
254 2 7.13807 7.32599 10.3927
344 2 7.49029 12.5202 12.3444
238 4 7.91535 9.0103 13.3449
248 2 8.39712 6.48744 15.7118
242 1 7.96499 7.60905 9.62551
243 1 11.0662 6.74517 10.3384
259 2 8.68456 9.27734 10.0254
264 3 9.03425 7.9428 12.5132
327 2 8.23923 12.6418 15.9464
338 2 8.54806 11.1167 10.2217
345 2 7.39766 10.3687 17.0248
253 2 8.66904 6.6886 9.44991
255 2 7.42031 7.92637 8.70609
216 3 6.28112 13.6055 8.6079
257 2 11.4655 7.11706 9.3038
146 2 5.50289 9.06582 8.55404
ITEM: TIMESTEP
100
ITEM: NUMBER OF ATOMS
350
ITEM: BOX BOUNDS xy xz yz pp pp pp
-6.7252000273622814e+00 1.5083142194053744e+01 -6.7181261655161881e+00
-9.2236853537990759e-01 1.4228599782302123e+01 -9.8042760768633219e-03
-2.1607667323829638e-01 1.7224576673238090e+01 -1.1965687530777740e+00
ITEM: ATOMS id type x y z
7 4 -0.878338 2.84047 3.51257
14 4 0.0151286 5.16683 1.82787
164 3 -1.39147 4.14924 2.71099
166 3 -0.679486 6.23653 0.83648
79 2 -1.63974 4.91185 7.47056
17 4 -1.02998 6.11728 6.38646
78 2 0.0623635 1.89087 5.69008
167 3 -2.27075 6.65618 5.43907
77 2 0.643659 3.11054 4.13821
190 3 0.325164 5.42774 5.40821
57 1 0.977753 2.55703 6.05676
105 2 0.784126 3.60968 5.82266
165 3 0.82294 4.03192 0.975906
189 3 0.849612 5.86165 2.94354
26 4 3.93051 2.15689 3.35413
315 1 1.37402 1.33261 0.468031
33 4 1.15359 6.31026 4.46921
9 4 2.41441 -0.222398 7.4567
62 1 3.08852 3.80859 3.04276
82 2 3.68741 4.79375 2.98215
117 2 2.29176 3.75861 2.27716
118 2 2.62874 3.71063 4.30612
119 2 4.28951 2.93573 1.79003
182 3 5.32938 2.08537 4.19738
183 3 6.28074 0.21986 6.04411
194 3 2.72442 6.36358 4.82607
195 3 4.87604 5.18746 6.42612
268 1 6.39778 1.80154 1.28687
272 2 5.45655 1.24746 1.16615
180 3 3.0354 0.869656 3.07168
143 2 1.12486 0.677688 6.69137
280 2 4.373 6.22002 0.516109
318 2 1.11614 1.76214 1.56202
104 2 1.02963 2.48011 7.18408
181 3 3.17635 0.786403 8.37625
103 2 1.99349 2.20906 5.65729
191 3 4.44865 3.10943 8.1563
29 4 6.54595 1.92341 5.30342
316 2 2.49399 1.18542 0.286077
34 4 5.45657 3.96665 7.28225
18 4 -0.19791 3.18259 12.6893
19 4 -0.526914 5.474 10.8225
161 3 -0.175185 1.43889 15.9165
170 3 -0.686677 4.06852 11.5093
110 2 -1.66864 5.50839 9.5431
133 2 -0.502313 6.1239 14.4726
168 3 -1.35698 2.77143 13.8218
67 1 0.576968 5.75865 14.5176
132 2 1.05875 5.79155 13.5218
169 3 0.622382 1.90935 12.279
134 2 0.733475 4.81675 15.094
193 3 0.840218 5.58537 10.0699
85 2 1.01157 4.09067 13.5407
84 2 2.5269 3.86583 9.23991
8 4 1.05404 1.67988 16.9335
13 4 0.950035 0.500897 11.652
28 4 4.12437 1.80922 9.14025
31 4 3.84092 1.7128 15.1602
35 4 2.33942 5.44926 9.9424
63 1 3.14515 2.60457 10.6338
64 1 4.30933 3.43205 14.4527
83 2 2.20736 0.876802 10.5226
120 2 1.95517 2.70337 10.6191
121 2 3.50614 3.65793 10.8609
122 2 3.52235 1.94667 11.4498
123 2 4.43603 3.12521 13.3892
196 3 3.06312 6.07322 15.9568
125 2 3.36665 4.04353 14.6246
184 3 3.70681 0.645933 13.9227
185 3 5.1586 1.58813 16.2036
186 3 2.41026 1.95815 16.1138
187 3 5.30942 1.23532 9.93743
198 3 3.20474 5.50006 11.3273
163 3 1.67699 -0.520312 12.6856
86 2 4.26286 5.34529 13.8216
124 2 5.21843 3.73818 14.974
38 4 4.09291 6.31958 12.4065
200 3 3.07029 6.5105 8.89385
60 1 -4.57717 9.63431 4.89095
141 2 -3.69735 13.2642 5.34213
142 2 -2.06583 13.4596 6.20855
295 2 -6.16126 13.3657 2.39807
3 2 -3.08533 11.7848 6.59335
70 1 -3.10363 12.9512 6.29276
1 4 -4.23175 13.4549 2.38683
6 3 -3.70483 12.9888 0.870943
16 4 -0.222725 7.91563 0.858706
20 4 -2.43245 10.025 0.99937
22 4 -0.401596 8.94243 7.12331
39 4 -1.172 11.6403 3.47163
138 2 -0.797816 12.7316 1.46526
115 2 -2.4429 12.1953 4.5779
285 2 2.45201 7.8706 2.44975
171 3 -1.61518 8.65481 0.850381
173 3 -0.54701 7.25649 7.46735
199 3 -1.78855 10.7218 2.3628
202 3 -0.60885 10.1362 8.11277
80 2 -0.668645 9.38293 5.40386
69 1 -0.498411 13.0758 2.46338
111 2 -4.10997 9.61902 1.35153
2 1 -5.56594 12.7199 3.69329
205 3 0.151853 11.1616 4.25907
334 2 -4.02056 11.9605 3.44854
203 3 -0.0784033 12.5672 8.06461
4 2 -5.37545 13.5683 4.49218
112 2 -3.58311 8.85163 4.62072
139 2 0.654813 13.2633 2.72604
337 2 -4.23231 10.5647 5.34868
174 3 -4.95152 12.4921 8.21787
286 2 1.46757 9.14465 3.68224
252 2 -4.62478 9.74291 6.90976
99 2 0.756848 8.36014 2.15682
87 2 0.605142 7.95304 4.59777
241 1 -4.64119 9.67346 8.17953
61 1 1.0496 9.11355 6.14983
116 2 1.94164 8.57646 5.69016
40 4 3.47786 7.83578 8.14386
42 4 1.53332 11.023 5.23977
88 2 2.01712 8.79129 7.77756
100 2 1.68627 10.4758 7.06712
278 1 2.46111 8.8817 3.13295
290 3 2.15854 10.9614 1.14535
27 4 0.635853 13.5252 6.99919
140 2 -1.21506 13.8704 2.90332
317 2 -5.9442 14.1595 0.219303
214 3 1.04594 11.8222 12.2687
172 3 -2.33891 9.74914 17.1848
149 2 -3.50613 6.86256 13.5772
213 3 1.57697 9.39792 12.2799
11 4 -3.63506 13.2076 13.2816
45 4 1.77569 10.8108 11.3817
208 3 3.47715 7.72193 12.8692
175 3 -1.09091 6.73771 11.7293
21 4 -3.00331 11.2504 16.9645
258 2 -3.85532 8.6514 10.8436
339 2 -3.87343 12.1169 14.6242
23 4 -4.98812 11.1561 9.15922
24 4 -1.48129 8.11262 12.5974
25 4 -2.47985 11.3266 11.2367
41 4 -0.21222 11.3921 9.09687
44 4 -0.383375 11.9295 15.7489
73 1 -0.583407 10.3597 14.6602
150 2 -1.56886 9.97718 14.997
151 2 0.305549 9.58396 14.7916
176 3 -4.46762 11.1622 15.7756
177 3 -4.01636 11.118 10.4323
178 3 -2.18061 9.90623 11.9612
179 3 -2.64208 12.4725 12.3288
204 3 -1.28273 11.7187 10.2668
211 3 -1.91309 12.3282 16.3063
72 1 -2.96059 7.80645 13.8347
81 2 -2.7385 7.90507 14.9637
147 2 -1.13188 7.91408 14.331
102 2 -0.604186 9.5908 12.0615
152 2 -0.68778 10.8847 13.6848
207 3 1.68719 8.32188 14.8635
148 2 -3.53771 8.73914 13.4408
197 3 0.630492 6.98094 16.9862
43 4 2.56178 8.93672 13.4888
37 4 1.54902 6.96899 15.7322
209 3 0.586554 11.4328 16.9355
212 3 1.21541 10.9582 9.7138
250 2 -3.72729 9.23103 8.70395
210 3 0.506666 13.1983 14.5762
308 2 -3.08617 6.54274 11.0769
229 3 7.90679 6.09892 5.35465
192 3 6.49566 3.05163 6.41837
271 2 6.14084 3.47519 1.47121
331 2 12.4171 0.243797 3.4964
95 2 6.80703 4.76565 3.41453
51 4 6.98575 6.24393 4.13928
130 2 7.58137 4.74661 8.20132
342 2 11.9163 5.54216 8.38883
215 3 7.94479 2.1109 4.35147
270 2 7.36031 1.24899 -0.0507756
219 3 13.1086 2.4892 4.59715
46 4 9.34443 2.33694 3.69536
49 4 11.8033 1.86549 5.47146
50 4 10.589 4.89645 2.91572
53 4 10.5415 3.66562 7.64566
91 2 9.17285 1.82493 2.08273
94 2 12.125 4.08277 2.57915
220 3 10.5672 1.44982 4.21597
221 3 12.0653 0.62633 6.37844
222 3 9.70025 3.89816 3.68501
223 3 10.9886 6.2957 3.51177
225 3 9.94846 5.13357 1.356
227 3 11.1886 3.11312 6.32519
230 3 9.40647 4.88548 7.29934
217 3 8.30928 0.595941 7.70282
294 4 13.1847 0.969742 1.48246
297 3 12.1712 1.95744 0.72955
52 4 9.1713 5.84034 0.149133
54 4 9.05449 6.17242 6.5227
269 2 6.89324 1.48625 2.24667
288 2 8.02611 0.66032 1.41542
224 3 5.42114 6.78521 4.39734
296 3 14.3218 1.58204 2.38942
347 2 9.9332 0.532845 0.749555
36 4 4.41343 6.49323 5.61285
97 2 12.962 3.89319 8.35755
226 3 10.168 2.35703 8.47776
162 3 14.778 -0.113021 10.8617
128 2 6.58516 3.27024 12.7313
321 2 13.7283 2.17064 9.49286
131 2 6.54038 4.25114 9.78403
137 2 6.00406 6.37729 10.6036
12 4 13.6466 1.43879 14.8092
65 1 6.60658 3.37384 11.6148
267 4 6.44902 1.73635 17.1177
340 2 11.6494 3.43688 17.1015
249 2 6.60307 5.00263 13.9336
127 2 7.50563 3.91217 11.1111
240 1 7.56248 5.2455 14.5923
245 2 7.62769 4.4961 15.3955
310 2 11.5024 5.28063 16.977
218 3 8.07289 1.85052 10.0328
107 2 9.83668 -0.228052 10.859
323 1 13.5797 -0.230918 13.7587
256 2 10.2944 5.92169 10.4046
135 2 6.40707 6.12392 12.4888
303 2 7.82706 0.714968 15.0745
247 2 8.6244 5.256 13.9725
96 2 10.0857 5.8127 15.7936
129 2 6.18378 5.83461 8.69303
298 4 11.4895 1.71913 16.8786
312 3 9.98222 1.34336 16.5819
32 4 6.76843 1.58594 10.9268
320 2 12.5107 2.66681 11.22
336 2 10.8275 4.15426 15.6323
313 3 7.90721 3.23086 16.8678
109 2 11.8338 4.23874 9.72778
319 1 12.2404 1.75638 10.6053
348 2 9.33622 0.691036 12.0978
10 4 13.5792 0.446491 9.89533
48 4 9.03198 1.24456 8.91036
126 2 5.6291 3.85059 11.3098
299 4 8.85271 1.95118 15.6247
300 4 10.2691 3.3364 13.2309
301 1 10.4465 5.23735 13.1278
302 1 10.5571 4.90167 16.4016
304 2 9.04863 4.24811 12.282
305 2 11.7447 4.56218 13.8086
306 2 11.087 2.23402 12.1952
307 2 10.6894 5.78283 12.1517
309 2 9.94859 5.99675 13.8376
311 3 12.3154 1.43053 15.5867
314 3 9.44637 2.68079 14.3912
322 2 11.894 0.718564 11.338
349 2 9.92341 0.425448 13.8026
328 1 9.57978 -0.150021 12.8549
108 2 11.4855 2.02491 9.86874
343 2 13.5184 0.0498335 12.686
59 1 12.0165 4.40502 8.69066
66 1 6.55963 4.79529 8.71229
188 3 7.08193 0.579233 12.206
324 2 12.6384 -0.67184 14.1797
58 1 10.0389 -0.324894 9.69255
93 2 11.1619 -0.267726 9.46004
157 2 10.0109 8.60827 2.5997
156 2 8.46282 10.9316 6.37099
281 2 4.27197 13.7813 2.00644
325 1 8.31367 12.3156 -0.15495
47 4 5.43523 13.3322 7.29361
155 2 9.34351 11.009 2.60126
92 2 3.85472 12.9894 7.87875
201 3 4.33195 7.68394 6.78679
206 3 1.76229 12.339 6.0263
274 4 3.30713 9.84677 1.56746
276 4 5.62363 11.5248 2.94511
277 4 6.86231 11.0594 5.75966
282 2 4.59771 12.7225 3.77172
98 2 8.3993 7.1112 7.77836
289 3 3.72326 8.67448 0.576582
5 2 8.83401 11.955 4.09525
291 3 4.59607 10.6336 2.17077
292 3 6.68411 11.1918 4.16851
293 3 5.90057 11.9607 6.63181
330 1 5.43672 13.7404 2.37338
333 2 6.4969 12.3634 1.62495
332 2 7.15647 13.6551 0.346199
275 4 2.12905 12.3678 0.311978
153 2 7.58309 9.8954 1.67321
251 2 9.47951 9.12042 8.43151
75 1 7.43229 9.31641 6.43544
158 2 6.4286 8.82763 5.88769
283 2 7.47313 9.03016 7.54277
114 2 9.96286 9.84848 3.81603
55 4 8.3574 8.07557 1.92587
154 2 9.39735 10.2793 0.862315
113 2 9.72312 9.04341 5.57011
74 1 9.14956 10.0501 1.95989
231 3 7.57417 7.34187 3.09925
284 2 8.31033 8.9042 5.84819
346 2 2.65627 13.4515 2.37987
279 1 2.38586 13.9668 1.36966
15 4 11.3968 7.03208 4.89628
89 2 2.85761 10.3853 4.27301
228 3 10.3828 6.86973 6.16146
326 2 9.17502 12.1936 0.504142
232 3 8.55805 7.30848 0.518579
287 2 3.37681 8.84203 3.77141
262 3 5.51107 6.71065 16.2819
237 4 9.63899 7.95016 11.1399
30 4 0.9724 13.2774 12.9823
329 2 3.64534 13.0287 12.4724
68 1 5.81051 6.73327 11.665
273 4 4.2069 6.3909 16.9883
236 4 6.70196 6.88517 15.1681
265 3 8.32511 10.0073 14.5073
235 4 8.97188 11.0311 15.5678
136 2 5.87106 7.92028 11.7345
146 2 5.46174 9.09355 8.65936
145 2 3.89296 9.49613 9.66368
144 2 5.08639 7.91115 10.195
106 2 2.77211 12.7186 9.3014
71 1 4.65319 8.64698 9.33565
350 2 6.22885 11.2306 14.3407
341 2 4.75544 11.1683 12.3449
56 4 3.9466 11.2787 15.0138
76 1 5.71828 10.8543 15.2667
90 2 3.48489 11.1709 11.3418
101 2 6.32667 11.1123 16.1992
159 2 3.71596 12.8906 14.4071
160 2 5.64777 9.72108 15.1706
233 3 3.42932 10.2652 13.9244
234 3 3.21878 11.2801 16.5595
239 4 7.12552 11.0674 11.3502
244 1 5.24812 11.9733 11.6705
260 2 5.86991 11.0477 10.0986
261 2 4.54285 12.6072 10.9584
263 3 6.70336 8.03432 14.1496
246 2 5.82766 12.7681 12.3628
266 3 7.11766 9.73286 12.1392
254 2 7.12352 7.44753 10.322
344 2 7.52724 12.38 12.5065
238 4 7.79219 9.01306 13.3785
248 2 8.31897 6.66182 15.6947
242 1 7.91184 7.80558 9.59143
243 1 11.0735 6.76707 10.4134
259 2 8.7105 9.273 10.1274
264 3 9.14299 8.03338 12.6605
327 2 8.06492 12.4956 16.0702
338 2 8.57345 11.1387 10.142
335 2 7.83022 13.1003 14.0281
253 2 8.67178 6.91099 9.39991
255 2 7.39012 8.15336 8.61501
216 3 6.31032 13.6103 8.64976
257 2 11.3423 7.04866 9.35769
345 2 7.69071 10.0906 17.1949
ITEM: TIMESTEP
200
ITEM: NUMBER OF ATOMS
350
ITEM: BOX BOUNDS xy xz yz pp pp pp
-6.7252000273622814e+00 1.5083142194053744e+01 -6.7181261655161881e+00
-9.2236853537990759e-01 1.4228599782302123e+01 -9.8042760768633219e-03
-2.1607667323829638e-01 1.7224576673238090e+01 -1.1965687530777740e+00
ITEM: ATOMS id type x y z
7 4 -0.947052 2.73262 3.54579
14 4 0.15267 5.12454 2.00646
164 3 -1.29484 4.3088 2.85564
166 3 -0.552524 6.25372 1.0379
79 2 -1.79595 4.70257 7.24812
17 4 -1.04729 5.97578 6.31302
78 2 0.0139338 1.88293 5.85689
167 3 -2.14576 6.57688 5.3038
77 2 0.550929 2.71878 4.34723
190 3 0.371058 5.45111 5.57072
57 1 0.937861 2.49501 6.30433
105 2 0.883078 3.56591 5.977
165 3 0.962289 3.98007 1.05078
189 3 1.13886 5.83689 3.03844
26 4 3.87214 2.15471 3.31101
315 1 1.61198 1.09453 0.204131
33 4 1.3061 6.35975 4.62821
9 4 2.33435 -0.251841 7.52003
62 1 3.02253 3.81097 3.03144
82 2 3.56193 4.74717 3.16434
117 2 2.19397 3.84348 2.18312
118 2 2.44365 3.51659 4.27285
119 2 4.23755 3.04036 1.77918
182 3 5.19016 2.03446 4.19399
183 3 6.42686 0.25121 5.7875
194 3 2.82666 6.24887 5.14287
195 3 4.83067 5.05548 6.40912
268 1 6.38146 1.80084 1.18383
272 2 5.39625 1.23977 1.21998
180 3 3.14694 0.805047 2.94307
143 2 0.995135 0.595449 6.96439
280 2 4.1405 6.13546 0.413998
318 2 1.58376 1.42589 1.3726
104 2 0.882141 2.51766 7.47804
181 3 3.31782 0.784331 8.30258
103 2 1.91965 2.03084 6.0489
191 3 4.60839 3.10065 8.21609
36 4 4.29212 6.43509 5.66789
316 2 2.70541 1.06528 -0.185012
29 4 6.57466 1.74987 5.23936
18 4 -0.254328 3.31593 12.5419
19 4 -0.619757 5.64162 10.7603
161 3 -0.1229 1.3263 16.0202
170 3 -0.895328 4.26119 11.466
110 2 -1.70615 5.60545 9.40543
133 2 -0.676004 5.95614 14.7233
168 3 -1.32292 2.86364 13.7389
67 1 0.360742 5.64548 14.5555
132 2 0.795878 5.88885 13.5466
169 3 0.493863 2.00007 12.0614
134 2 0.534805 4.59159 14.9698
193 3 0.798524 5.6735 10.1753
85 2 0.979604 4.21669 13.3628
84 2 2.68157 4.00321 9.37838
8 4 1.17837 1.5349 16.9549
13 4 0.970882 0.522603 11.6139
28 4 4.35608 1.78074 9.11965
31 4 3.92501 1.82484 15.1307
35 4 2.32834 5.60403 9.95241
63 1 3.22061 2.49661 10.558
64 1 3.9182 3.40228 14.065
83 2 2.18609 0.788106 10.4253
120 2 2.07328 2.39785 10.3895
121 2 3.62276 3.51437 10.6825
122 2 3.69829 1.73519 11.3675
123 2 3.82526 3.13886 12.9458
321 2 -1.20079 2.19623 9.62638
125 2 3.00362 3.99147 14.5846
184 3 3.75844 0.681015 13.9559
185 3 5.16997 1.8692 16.1813
186 3 2.40267 1.85891 16.0124
187 3 5.67722 1.37557 9.84693
198 3 3.09138 5.70914 11.4032
163 3 1.67737 -0.424483 12.7786
86 2 3.98904 5.33466 13.9191
124 2 4.9428 3.76194 14.3565
38 4 3.98911 6.37007 12.4513
126 2 5.37176 3.80827 11.1686
210 3 7.23527 -0.652918 14.649
317 2 -5.85869 14.0751 -0.0325282
141 2 -3.90603 13.4236 5.30644
142 2 -2.07746 13.6144 6.0445
295 2 -6.16992 13.5892 2.14623
3 2 -3.27185 12.0569 6.29806
70 1 -3.18356 13.1454 6.10134
1 4 -4.30733 13.3983 2.46673
6 3 -3.73372 12.8757 1.02136
16 4 -0.281907 7.79259 0.840378
20 4 -2.47891 9.94068 1.06398
22 4 -0.434399 8.80784 7.1231
39 4 -1.23113 11.6807 3.43148
138 2 -0.361201 12.823 1.45855
115 2 -2.53033 12.204 4.50268
285 2 2.17582 7.91481 2.34751
171 3 -1.64758 8.63436 0.792786
173 3 -0.755784 7.16186 7.37211
199 3 -2.0135 10.7071 2.47734
202 3 -0.843583 9.93307 8.32566
80 2 -0.704513 9.49632 5.5771
69 1 -0.53379 13.2106 2.52745
111 2 -4.10661 9.36702 1.31312
2 1 -5.84651 12.6939 3.45949
205 3 0.0268206 11.14 4.25269
334 2 -4.31259 11.8226 3.58955
203 3 0.0232807 12.5499 8.11823
4 2 -5.86683 13.4325 4.39586
112 2 -3.83332 8.98425 4.80152
139 2 0.430563 13.6019 3.00934
337 2 -4.39147 10.8159 5.21081
174 3 -5.02006 12.4738 8.3635
286 2 1.45117 9.5648 2.91882
252 2 -4.6084 9.86762 6.90491
99 2 0.583796 8.34286 2.20667
87 2 0.84959 8.07271 4.68259
241 1 -4.59165 9.84083 8.10944
61 1 1.14124 9.24313 6.25347
116 2 1.9761 8.63281 5.9051
250 2 -3.55871 9.46149 8.47359
42 4 1.44163 11.0332 5.16837
88 2 2.15 9.02925 7.90707
100 2 1.65537 10.4828 7.15858
278 1 2.34393 8.87863 2.89184
287 2 2.91691 8.63468 3.8476
27 4 0.85004 13.4314 6.91193
140 2 -1.41742 13.9724 2.70223
214 3 1.30684 12.0911 12.2986
172 3 -2.50253 9.58796 17.1555
149 2 -3.50606 6.92479 13.6983
213 3 1.5258 9.38393 11.9944
11 4 -3.62693 13.2902 13.4078
45 4 1.78755 10.8187 11.3924
212 3 1.22512 10.852 9.66605
175 3 -1.03622 6.76703 11.8535
21 4 -3.08465 11.1348 17.0291
258 2 -3.90867 8.78634 10.8199
339 2 -3.91106 12.4715 14.8403
23 4 -4.92076 11.2408 9.27748
24 4 -1.41731 8.10371 12.6987
25 4 -2.39526 11.2729 11.3003
41 4 -0.215885 11.2809 9.13229
44 4 -0.427823 11.9366 15.7258
73 1 -0.548415 10.4641 14.5853
150 2 -1.63307 10.0658 14.8391
151 2 0.220856 9.58275 14.6773
176 3 -4.45439 11.1105 15.7233
177 3 -3.63916 11.2414 10.3197
178 3 -1.92857 9.86188 11.987
179 3 -2.69274 12.3213 12.5695
204 3 -1.24982 11.6929 10.2509
211 3 -1.90887 12.1363 16.4013
72 1 -2.92687 7.86858 14.0241
81 2 -2.77902 7.95463 15.1316
147 2 -1.13233 7.89312 14.4891
102 2 -0.381997 9.45759 12.2682
152 2 -0.416627 11.1489 13.5701
207 3 1.39918 8.21622 14.7407
148 2 -3.43799 8.77134 13.6338
197 3 0.684367 6.87049 16.9821
43 4 2.45659 8.89041 13.4328
37 4 1.46785 6.86745 15.62
209 3 0.666624 11.5875 16.8012
257 2 -3.26783 7.25687 9.76959
200 3 3.02653 6.70273 8.94321
308 2 -3.26936 6.48852 11.4189
196 3 3.02377 6.15648 15.7783
229 3 7.85739 6.21667 5.44376
192 3 6.69321 2.90928 6.38051
269 2 7.00844 1.54004 2.09281
331 2 12.3498 0.146387 3.30253
95 2 6.95265 4.82964 3.51878
51 4 6.92839 6.36684 4.22587
130 2 7.71994 4.65446 8.24912
342 2 11.9327 5.63564 8.26017
215 3 7.95165 1.88137 4.28471
34 4 5.59387 3.91801 7.31828
219 3 13.1479 2.2664 4.63672
46 4 9.27295 2.38655 3.60882
49 4 11.7992 1.88511 5.37277
50 4 10.5418 5.03047 2.90251
53 4 10.488 3.59235 7.57402
91 2 9.14107 1.77277 1.9694
94 2 12.229 4.54179 2.92979
220 3 10.5354 1.68265 4.30878
221 3 12.0279 0.452416 6.2596
222 3 9.56167 3.96688 3.49908
223 3 10.7805 6.40408 3.63223
225 3 10.1888 5.28738 1.38867
227 3 11.3519 3.27385 6.25665
230 3 9.32447 4.66097 7.3901
217 3 8.48452 0.641703 7.57027
294 4 13.0929 1.01339 1.28199
297 3 12.0738 2.08567 0.786433
52 4 9.32626 5.83475 0.115217
54 4 8.96374 6.12325 6.53771
340 2 11.8115 4.56418 -0.118443
288 2 8.07516 0.615683 1.24383
224 3 5.40588 6.90329 4.54756
296 3 14.2196 1.57379 2.35991
347 2 10.0517 0.481097 0.868026
271 2 6.09565 3.57801 1.37931
270 2 7.12111 1.23748 -0.0150792
162 3 14.8207 -0.0715305 10.8216
128 2 6.28996 3.2247 12.7536
30 4 7.74618 -0.49797 13.0752
131 2 6.5685 4.23835 9.76411
137 2 5.6087 6.15721 10.4988
12 4 13.6661 1.48324 14.8562
65 1 6.30583 3.41615 11.6174
267 4 6.38556 1.79807 17.1305
216 3 13.0396 -0.17132 8.5503
249 2 6.61512 4.9219 13.7597
127 2 7.19683 4.05908 11.4794
240 1 7.51125 5.11796 14.566
245 2 7.51944 4.34406 15.4559
310 2 11.9213 5.00322 16.8786
218 3 8.23963 1.82972 10.0817
107 2 9.66622 -0.131778 10.9507
323 1 13.6208 -0.0942675 13.7663
256 2 10.2371 6.13609 10.1574
135 2 6.27153 5.88519 12.2689
303 2 7.8681 0.690909 15.2449
247 2 8.58804 5.19568 14.0461
96 2 10.4738 5.95489 16.0824
129 2 6.2556 5.75247 8.65623
298 4 11.4779 1.65928 17.0062
312 3 9.86015 1.38369 16.7506
32 4 6.84046 1.67461 10.8701
320 2 12.5957 2.61171 11.3964
336 2 10.8431 4.09124 15.5575
313 3 7.92487 3.31894 16.8953
109 2 11.1685 4.47942 9.67971
319 1 12.2954 1.73463 10.7364
348 2 9.35198 1.00553 12.3369
10 4 13.6038 0.531081 9.87474
48 4 9.08732 1.19782 8.89892
226 3 10.2724 2.40874 8.61099
299 4 8.83475 2.027 15.6938
300 4 10.0887 3.36301 13.1292
301 1 10.4619 5.24013 13.2976
302 1 10.8723 4.85057 16.4652
304 2 9.0748 4.65795 12.2182
305 2 11.7119 4.25436 13.7903
306 2 10.8041 2.32615 11.925
307 2 10.7401 5.84025 12.3432
309 2 10.093 5.86982 14.1448
311 3 12.3236 1.42595 15.6817
314 3 9.36561 2.70072 14.3736
322 2 11.9461 0.727637 11.4015
349 2 10.0408 0.451496 13.9944
328 1 9.63125 0.092951 13.0514
108 2 11.4946 2.0353 9.93542
343 2 13.3296 0.243858 12.7401
59 1 11.8638 4.56587 8.70278
66 1 6.66043 4.71609 8.68742
188 3 7.00092 0.573727 12.1264
93 2 11.0135 -0.376603 9.62338
58 1 9.878 -0.349677 9.82274
335 2 14.7099 -0.577291 13.8042
97 2 12.8279 4.01103 8.82368
324 2 12.8625 -0.71203 14.3341
157 2 9.99085 8.60408 2.62635
156 2 8.50039 10.9168 6.31752
281 2 4.31607 13.6159 1.90001
326 2 9.04006 12.3276 0.399366
47 4 5.43144 13.2945 7.37217
155 2 9.26595 10.9124 2.45941
92 2 3.87792 12.9725 8.06111
201 3 4.31719 7.79138 6.85207
206 3 1.82129 12.3274 5.99283
274 4 3.3794 9.87407 1.50507