ITEM: TIMESTEP
0
ITEM: NUMBER OF ATOMS
350
ITEM: BOX BOUNDS xy xz yz pp pp pp
-6.7931589207117060e+00 1.5235469585769128e+01 -6.7859860257739273e+00
-9.2236853537990759e-01 1.4228599782302123e+01 -9.9033091685488094e-03
-2.1607667323829638e-01 1.7050170139773325e+01 -1.1965687530777740e+00
ITEM: ATOMS id type x y z
7 4 -0.944954 2.81443 3.47926
14 4 0.0387226 5.21121 1.81276
164 3 -1.34126 4.14213 2.61318
166 3 -0.614549 6.38143 0.900837
79 2 -1.79782 4.71326 7.25907
17 4 -1.05454 5.9726 6.2915
78 2 0.0836197 1.90241 6.1408
167 3 -2.24065 6.66697 5.4095
77 2 0.619468 2.93636 4.13667
190 3 0.261801 5.38719 5.58695
57 1 1.01361 2.51715 6.05
105 2 0.669006 3.71712 5.85472
165 3 1.01722 4.27437 0.883807
189 3 0.864499 5.97136 2.92621
26 4 4.0373 2.28855 3.31945
315 1 1.56761 1.36009 0.226745
33 4 1.17773 6.26797 4.49336
270 2 7.21621 1.00884 -0.0421471
62 1 3.11989 3.92428 2.9461
82 2 3.8542 4.78482 2.93478
117 2 2.34548 4.10283 2.1719
118 2 2.53025 3.77965 4.05836
119 2 4.41391 3.09458 1.79554
182 3 5.25263 2.29618 4.35795
183 3 6.3933 0.427332 5.80612
194 3 2.74846 6.298 4.73488
195 3 4.60732 5.00455 6.26884
268 1 6.49826 1.816 1.39011
272 2 5.45441 1.35866 1.52622
180 3 3.35711 0.91889 2.96148
143 2 1.04679 0.573811 6.54004
280 2 4.51917 6.10934 0.338926
318 2 1.40122 1.82036 1.3545
104 2 1.64723 2.46577 7.00243
181 3 3.25686 0.721435 8.11365
103 2 1.64868 2.17348 5.1521
191 3 4.452 3.12581 8.21782
36 4 4.31535 6.36142 5.42745
316 2 2.686 1.25917 0.0459871
34 4 5.45511 3.95869 7.32747
317 2 1.01018 0.362289 0.0172692
18 4 -0.058323 3.11147 12.594
19 4 -0.59913 5.43327 10.7761
161 3 -0.222672 1.58778 15.7796
170 3 -0.691238 4.05276 11.4576
110 2 -1.54764 5.27158 9.34972
133 2 -0.360933 6.07335 14.2386
168 3 -1.21595 2.69376 13.5534
67 1 0.710268 5.74997 14.332
132 2 1.3227 5.83745 13.3869
169 3 0.683477 1.82496 12.0174
134 2 0.77937 4.82162 14.9084
193 3 0.848399 5.69025 10.3329
85 2 1.13051 4.00999 13.4217
84 2 2.29329 3.92436 9.34726
8 4 1.14094 1.78611 16.7044
13 4 0.987326 0.305079 11.4377
28 4 4.16824 1.75764 8.99275
31 4 3.88171 1.77741 15.1302
35 4 2.35668 5.53248 9.93713
63 1 2.97439 2.40337 10.4072
64 1 4.34569 3.44851 14.2766
83 2 2.25878 0.47142 10.3591
120 2 1.92514 2.21922 10.0781
121 2 3.20444 3.53488 10.7841
122 2 3.33813 1.63624 11.1859
123 2 4.26614 3.18104 13.1911
210 3 7.38586 -0.743209 14.521
125 2 3.48789 4.06613 14.7092
184 3 3.67006 0.605589 13.9157
185 3 5.19557 1.59615 16.1262
186 3 2.50993 2.10998 16.066
187 3 5.37521 1.38991 9.85288
198 3 3.30113 5.59455 11.1797
188 3 6.85669 0.463988 12.2155
86 2 4.53172 5.28973 13.6791
308 2 -3.29078 6.31134 10.8766
126 2 5.42858 3.79487 10.9939
200 3 2.90502 6.54283 8.67454
60 1 -4.6043 9.66288 4.71449
141 2 -3.67986 12.7456 5.27732
142 2 -2.06167 13.5227 6.17405
295 2 -5.98911 13.5956 2.1876
3 2 -2.83751 11.885 6.74752
70 1 -3.04595 12.8929 6.21817
1 4 -4.10842 13.4096 2.44907
6 3 -3.54206 12.9464 1.09141
16 4 -0.266274 7.96828 0.711054
20 4 -2.38861 10.093 1.07481
22 4 -0.424173 8.89951 7.03952
39 4 -1.06777 11.6779 3.52178
138 2 -1.13696 13.0354 1.6181
115 2 -2.33091 12.3869 4.47401
285 2 2.22872 7.96221 2.40317
171 3 -1.60861 8.75256 0.903176
173 3 -0.665214 7.29872 7.23402
199 3 -1.77782 10.8712 2.34649
202 3 -0.826073 10.0011 8.07082
80 2 -0.503988 9.37902 5.29807
69 1 -0.540875 13.2104 2.64856
111 2 -3.99802 9.58542 1.43413
2 1 -5.51543 12.6032 3.52149
205 3 0.178576 11.2003 4.30777
334 2 -4.01997 11.8131 3.64024
203 3 0.0375365 12.5721 7.90989
4 2 -5.518 13.2793 4.35779
112 2 -3.50623 8.81222 4.51022
139 2 0.610822 13.4865 2.33022
337 2 -4.23209 10.636 5.16013
174 3 -5.11098 12.4589 8.18107
286 2 1.37885 9.35135 3.4542
252 2 -4.64403 9.8904 6.75063
99 2 0.667233 8.46114 2.09118
87 2 0.732018 7.91048 4.80694
241 1 -4.69772 9.74904 7.97847
61 1 1.10581 9.26419 6.1835
116 2 2.0558 8.70948 5.80657
40 4 3.53345 7.79084 7.93488
42 4 1.52336 11.1156 5.12805
88 2 2.28751 8.99887 7.7242
100 2 1.57944 10.7343 7.04963
278 1 2.32108 8.90496 3.05849
290 3 2.19621 10.9764 1.14258
287 2 3.21012 8.79303 3.80097
140 2 -1.09591 13.9545 3.40614
9 4 -4.39776 13.6675 7.24311
27 4 0.739548 13.5548 6.84377
214 3 1.05872 12.025 12.0822
163 3 -5.22047 13.2908 12.6064
149 2 -3.49914 6.64712 13.521
213 3 1.49577 9.34572 11.9248
196 3 2.94599 6.19369 15.961
45 4 1.65502 10.7777 11.245
208 3 3.43131 7.63882 12.9626
175 3 -1.05967 6.69912 11.5596
21 4 -3.00773 11.3755 16.9182
258 2 -3.84761 8.5855 10.7298
339 2 -3.69329 12.025 14.3465
23 4 -5.07383 11.1266 9.10407
24 4 -1.49358 8.03984 12.3999
25 4 -2.44607 11.3848 10.9897
41 4 -0.295308 11.3254 8.82196
44 4 -0.297231 11.841 15.5789
73 1 -0.494907 10.4562 14.4057
150 2 -1.49496 9.98447 14.7327
151 2 0.408097 9.68581 14.5201
176 3 -4.41281 11.2794 15.6682
177 3 -3.82451 11.0894 10.106
178 3 -2.08528 9.84785 11.6813
179 3 -2.68658 12.6792 11.9956
204 3 -1.4859 11.6629 9.87764
211 3 -1.88309 12.2599 16.1805
72 1 -2.81276 7.53542 13.8228
81 2 -2.36609 7.33532 14.8008
147 2 -0.972409 8.06747 14.0519
102 2 -0.625461 9.51758 11.8251
152 2 -0.446277 10.8411 13.2828
207 3 1.72334 8.49104 14.5973
148 2 -3.38831 8.53413 13.7402
197 3 0.515151 7.16277 16.6938
43 4 2.60157 8.93571 13.3274
37 4 1.63044 7.06033 15.5027
209 3 0.68261 11.4448 16.8436
212 3 1.16849 10.8889 9.65801
11 4 -3.6639 13.2058 13.154
38 4 4.05775 6.38663 12.3699
250 2 -3.77484 9.32563 8.43419
172 3 -2.56096 9.76712 17.0355
229 3 8.05228 5.93793 5.41531
192 3 6.43947 3.10035 6.43385
271 2 6.47653 3.46761 1.44195
331 2 12.3371 0.302892 3.20971
95 2 7.32503 4.96892 3.21482
51 4 7.1655 6.30336 4.16336
130 2 7.67234 4.83135 8.12891
342 2 11.9391 5.41833 8.29063
215 3 8.05043 2.06359 4.44715
269 2 7.07302 1.59874 2.25749
219 3 13.319 2.40514 4.67323
46 4 9.47882 2.35943 3.82613
49 4 11.9754 1.94411 5.3538
50 4 10.7756 4.96575 2.81102
53 4 10.5782 3.65652 7.5217
91 2 9.35535 1.6483 2.26629
94 2 12.2461 4.21765 2.53165
220 3 10.6729 1.48142 4.28374
221 3 12.3204 0.581374 6.24088
222 3 9.96322 3.81055 3.45941
223 3 11.2158 6.24001 3.59757
225 3 9.9216 5.16872 1.5273
227 3 11.4402 3.23859 6.28056
230 3 9.48708 4.87257 7.44026
217 3 8.47574 0.691351 7.49752
294 4 13.3817 1.02458 1.32341
297 3 12.2911 2.00771 0.655237
52 4 9.22537 5.74583 0.185192
54 4 9.12686 6.06061 6.48108
232 3 8.45957 7.10955 0.555968
288 2 8.12799 0.701131 1.38998
224 3 5.58085 6.64964 4.44969
296 3 14.2938 1.60387 2.36788
29 4 6.61909 1.96325 5.27187
347 2 9.98435 0.368992 0.827552
97 2 12.9829 3.74559 8.11406
310 2 11.7205 6.06973 -0.185323
162 3 14.9382 -0.0573822 10.5804
128 2 6.49691 3.15004 12.5322
30 4 7.81777 -0.604346 12.9206
131 2 6.55457 4.33271 9.61089
321 2 13.9421 2.14787 9.24362
12 4 13.8141 1.45695 14.7128
65 1 6.41539 3.40491 11.3953
137 2 5.96572 6.50941 10.4001
226 3 10.1615 2.45197 8.67528
249 2 6.72609 4.99898 13.5928
127 2 7.35413 3.96001 11.1556
240 1 7.60877 5.21667 14.3428
245 2 7.63358 4.41595 15.1623
93 2 11.0613 -0.084321 9.42126
218 3 8.03547 1.56848 10.0413
107 2 9.77514 -0.149302 10.8305
323 1 13.8202 -0.149933 13.6219
256 2 10.1703 5.95682 10.1925
340 2 11.6871 3.25376 17.0374
303 2 7.85795 0.678999 15.0775
247 2 8.69616 5.18309 13.739
96 2 10.4919 5.93943 16.073
129 2 6.21829 5.922 8.56009
298 4 11.5856 1.55327 16.7149
312 3 9.89816 1.11879 16.685
335 2 14.8875 -0.485648 13.8082
320 2 12.9864 2.48989 11.0402
336 2 10.7758 4.00023 15.6165
313 3 7.90962 3.21623 16.7352
109 2 11.9514 4.0925 9.81046
319 1 12.4073 1.66287 10.4486
348 2 9.39992 0.877144 12.1562
10 4 13.7603 0.499528 9.66579
48 4 9.06074 1.25687 8.86328
58 1 9.94704 -0.270943 9.66662
299 4 8.93636 1.90671 15.6539
300 4 10.4329 3.23841 13.0135
301 1 10.501 5.15635 12.9123
302 1 10.7553 4.8524 16.438
304 2 9.22649 4.21709 11.9969
305 2 11.9487 4.2625 13.3753
306 2 11.1792 2.12156 11.8926
307 2 10.7197 5.78545 11.9281
309 2 10.0992 5.74319 13.7601
311 3 12.333 1.29595 15.3507
314 3 9.70059 2.64606 14.2802
322 2 12.0624 0.762624 11.1929
349 2 9.97196 0.318506 13.8588
328 1 9.64475 -0.0257648 12.8254
108 2 11.4975 2.04565 9.76455
343 2 13.6449 0.156157 12.5723
59 1 12.1163 4.29636 8.59714
66 1 6.63945 4.85407 8.56491
32 4 6.66568 1.6054 10.7878
135 2 6.37611 6.09693 12.2044
267 4 6.51121 1.54913 16.9929
124 2 5.39615 3.8346 14.6259
157 2 10.24 8.54763 2.40558
156 2 8.53615 11.1959 6.04161
281 2 4.28149 13.8513 1.87332
251 2 9.48625 9.1793 8.25987
47 4 5.5244 13.2816 7.24041
155 2 9.57793 10.9577 2.38938
92 2 3.97158 13.153 7.93877
201 3 4.29461 7.58625 6.54394
206 3 1.73556 12.489 5.81151
274 4 3.38418 9.85571 1.63395
276 4 5.47214 11.6829 2.9991
277 4 6.82734 11.0762 5.66876
282 2 4.47655 12.9762 3.6887
98 2 8.31329 7.03802 7.64637
289 3 3.88905 8.71842 0.611841
5 2 8.79921 11.8732 3.5992
291 3 4.49855 10.5617 2.50139
292 3 6.61198 11.2528 4.13021
293 3 5.954 11.9058 6.6389
330 1 5.38155 13.8091 2.16553
333 2 6.37712 12.4044 1.55985
332 2 7.52142 14.0464 0.162573
275 4 2.05867 12.2561 0.17489
153 2 7.65522 9.85968 1.61096
326 2 9.15926 12.0995 0.515532
75 1 7.71138 9.48553 6.33281
158 2 6.66278 8.93806 6.33806
283 2 8.11265 9.4654 7.32724
114 2 10.1473 9.83314 3.67854
55 4 8.45852 8.06896 1.9057
154 2 9.58436 10.0588 0.709934
113 2 9.90916 9.23759 5.37428
74 1 9.34147 9.96179 1.76925
231 3 7.87459 7.44968 3.23127
284 2 8.45417 9.00271 5.57909
346 2 2.66306 13.3575 2.27182
279 1 2.33519 13.8709 1.34045
15 4 11.5414 6.96829 4.88677
89 2 2.80916 10.4895 4.27069
228 3 10.34 6.89078 5.88825
262 3 5.5416 6.54363 16.0286
237 4 9.6906 8.00077 10.8784
324 2 6.24763 13.0775 14.0699
329 2 3.69538 13.1686 12.3416
68 1 5.74188 6.76739 11.4785
273 4 4.25547 6.3818 16.831
236 4 6.90227 6.82492 15.0146
265 3 8.52889 10.0275 14.2821
235 4 9.24562 11.0709 15.5213
136 2 5.72021 7.94025 11.7377
325 1 8.31363 11.1931 17.0106
145 2 3.93895 9.492 9.54138
144 2 5.0743 7.9729 10.0245
106 2 2.68719 12.7336 9.24522
71 1 4.66128 8.66401 9.14641
350 2 6.17131 11.5017 14.2462
341 2 4.68411 11.1367 12.2352
56 4 3.84595 11.2668 14.9672
76 1 5.68874 11.1909 15.2108
90 2 3.30505 11.1247 11.2592
101 2 6.11347 11.7726 16.1137
159 2 3.3741 12.8968 14.3936
160 2 5.79824 10.0075 15.35
233 3 3.50961 10.1502 13.8624
234 3 3.2532 11.1252 16.3912
239 4 7.13943 11.1573 11.2039
244 1 5.11587 11.9767 11.5883
260 2 5.8427 11.4093 9.95988
261 2 4.39392 12.5644 10.8711
263 3 6.98815 7.947 13.9427
246 2 5.70062 12.7677 12.309
266 3 7.16419 9.84651 11.9617
254 2 7.21015 7.32599 10.2866
344 2 7.56592 12.5202 12.2188
238 4 7.99528 9.0103 13.2093
248 2 8.48191 6.48744 15.5525
242 1 8.04542 7.60905 9.52709
243 1 11.178 6.74517 10.2328
259 2 8.77226 9.27734 9.92301
264 3 9.12548 7.9428 12.3859
327 2 8.32243 12.6418 15.7848
338 2 8.63437 11.1167 10.1173
345 2 7.47235 10.3687 16.8524
253 2 8.75657 6.6886 9.35325
255 2 7.49523 7.92637 8.61686
216 3 6.34454 13.6055 8.51966
257 2 11.5813 7.11706 9.2086
146 2 5.55844 9.06582 8.46634
ITEM: TIMESTEP
100
ITEM: NUMBER OF ATOMS
350
ITEM: BOX BOUNDS xy xz yz pp pp pp
-6.7931589207117060e+00 1.5235469585769128e+01 -6.7859860257739273e+00
-9.2236853537990759e-01 1.4228599782302123e+01 -9.9033091685488094e-03
-2.1607667323829638e-01 1.7050170139773325e+01 -1.1965687530777740e+00
ITEM: ATOMS id type x y z
7 4 -0.916844 2.84576 3.47092
14 4 0.00430583 5.16304 1.79976
164 3 -1.41975 4.15464 2.66345
166 3 -0.676613 6.2421 0.820178
79 2 -1.66866 4.92319 7.40521
17 4 -1.0458 6.11823 6.32561
78 2 0.0619245 1.90328 5.64646
167 3 -2.29896 6.66433 5.38065
77 2 0.61281 3.09385 4.11483
190 3 0.314808 5.44379 5.3604
57 1 0.974084 2.58514 6.01127
105 2 0.774039 3.62809 5.77861
165 3 0.821097 4.02852 0.957022
189 3 0.854274 5.85315 2.91829
26 4 3.97092 2.15014 3.30923
315 1 1.37887 1.34 0.49336
33 4 1.16852 6.30257 4.41891
34 4 5.52099 3.97063 7.20492
62 1 3.12229 3.80355 3.0104
82 2 3.70637 4.79444 2.94834
117 2 2.30326 3.757 2.27023
118 2 2.69082 3.68225 4.29821
119 2 4.27043 2.91977 1.7206
182 3 5.4173 2.08582 4.1061
183 3 6.34673 0.213955 5.96132
194 3 2.75772 6.35401 4.77457
195 3 4.93337 5.18716 6.34773
268 1 6.48683 1.79432 1.27537
272 2 5.54586 1.2459 1.15552
180 3 3.06625 0.866888 3.0777
143 2 1.17462 0.719342 6.61532
280 2 4.39846 6.24019 0.54879
318 2 1.10377 1.79944 1.54635
104 2 1.02195 2.49781 7.1405
181 3 3.21219 0.797424 8.29487
103 2 1.98682 2.23524 5.6129
191 3 4.5072 3.12001 8.08332
317 2 0.757669 0.287825 0.283697
316 2 2.50171 1.19654 0.322857
29 4 6.61429 1.92716 5.22008
9 4 2.44841 -0.225749 7.37705
18 4 -0.193606 3.18708 12.564
19 4 -0.521431 5.47534 10.6854
161 3 -0.174941 1.44009 15.7651
170 3 -0.656407 4.0653 11.3802
110 2 -1.63553 5.4817 9.38512
133 2 -0.464094 6.15393 14.2636
168 3 -1.35999 2.77272 13.6716
67 1 0.592492 5.76419 14.3695
132 2 1.1189 5.75996 13.3877
169 3 0.629331 1.90787 12.1609
134 2 0.695285 4.83252 14.9802
193 3 0.874714 5.58185 9.96625
85 2 1.01631 4.06192 13.4436
84 2 2.57745 3.86865 9.13633
8 4 1.07093 1.68502 16.7618
13 4 0.963208 0.505709 11.5277
28 4 4.1706 1.81605 9.06002
31 4 3.87469 1.71467 15.0134
35 4 2.37585 5.43475 9.84551
63 1 3.17256 2.60102 10.5451
64 1 4.34022 3.4342 14.2878
83 2 2.18961 0.906154 10.3791
120 2 1.98492 2.73511 10.5538
121 2 3.55917 3.66784 10.7591
122 2 3.54249 1.93017 11.3871
123 2 4.46818 3.10993 13.2195
124 2 5.23492 3.76528 14.8196
125 2 3.35251 4.03991 14.4735
184 3 3.74018 0.653 13.7847
185 3 5.20431 1.5881 16.0588
186 3 2.4468 1.95254 15.9475
187 3 5.37316 1.24228 9.83864
198 3 3.22633 5.49068 11.2336
163 3 1.70839 -0.49785 12.5422
86 2 4.31421 5.38295 13.7003
196 3 3.09191 6.06665 15.7837
38 4 4.13786 6.32351 12.2955
200 3 3.08761 6.51434 8.80249
60 1 -4.61541 9.63978 4.84607
141 2 -3.69446 13.2527 5.25612
142 2 -2.06079 13.4993 6.15632
295 2 -6.22185 13.4895 2.2663
3 2 -3.06187 11.8022 6.59343
70 1 -3.09229 12.9481 6.24355
1 4 -4.27243 13.4543 2.3728
6 3 -3.71564 12.9814 0.872953
16 4 -0.239122 7.92326 0.862907
20 4 -2.45588 10.0195 0.981935
22 4 -0.38997 8.92772 7.0537
39 4 -1.16518 11.6514 3.42765
138 2 -0.800084 12.8177 1.35797
115 2 -2.44164 12.2272 4.54796
285 2 2.45854 7.85269 2.44182
171 3 -1.63786 8.65227 0.83689
173 3 -0.559092 7.25841 7.40302
199 3 -1.79963 10.7188 2.34234
202 3 -0.619906 10.144 8.01899
80 2 -0.679765 9.31794 5.31639
69 1 -0.532691 13.0681 2.39289
111 2 -4.10963 9.59694 1.32282
2 1 -5.5879 12.6964 3.65764
205 3 0.168605 11.162 4.20804
334 2 -4.08115 11.964 3.46484
203 3 -0.0874211 12.5825 7.98233
4 2 -5.42861 13.5317 4.46289
112 2 -3.62473 8.85574 4.57497
139 2 0.618339 13.1884 2.67511
337 2 -4.25095 10.564 5.30983
174 3 -4.99814 12.4778 8.14199
286 2 1.48891 9.17805 3.64638
252 2 -4.65866 9.79307 6.85977
99 2 0.763368 8.38775 2.14201
87 2 0.630707 7.93724 4.5543
241 1 -4.72301 9.67572 8.09544
61 1 1.0514 9.12249 6.09875
116 2 1.9508 8.54949 5.67903
40 4 3.50516 7.83461 8.06484
42 4 1.53533 11.0305 5.17942
88 2 2.06519 8.82224 7.70941
100 2 1.67488 10.5202 7.02561
278 1 2.46612 8.85149 3.10565
290 3 2.18401 10.9617 1.14211
27 4 0.637372 13.5382 6.92231
140 2 -1.23041 13.8756 2.85362
214 3 1.07518 11.8289 12.1398
250 2 -3.82604 9.21947 8.62546
149 2 -3.56138 6.85559 13.4378
213 3 1.61295 9.39917 12.1435
172 3 -2.37912 9.72405 16.9875
45 4 1.79517 10.8089 11.2425
208 3 3.52667 7.72998 12.7434
175 3 -1.10058 6.73369 11.5797
21 4 -3.03476 11.2326 16.7714
258 2 -3.91772 8.6509 10.8021
339 2 -3.93149 12.1427 14.5192
23 4 -5.05895 11.1615 9.094
24 4 -1.49894 8.10779 12.471
25 4 -2.51071 11.3314 11.1276
41 4 -0.22031 11.395 8.9976
44 4 -0.386227 11.9182 15.5982
73 1 -0.559878 10.3366 14.512
150 2 -1.56201 9.96849 14.8391
151 2 0.337586 9.56176 14.6829
176 3 -4.50281 11.1621 15.628
177 3 -4.05986 11.1165 10.3431
178 3 -2.20066 9.9093 11.8476
179 3 -2.6792 12.4744 12.2174
204 3 -1.30241 11.7185 10.1637
211 3 -1.92129 12.3051 16.1408
72 1 -2.9943 7.8011 13.7051
81 2 -2.76525 7.8943 14.8322
147 2 -1.15026 7.88774 14.1839
102 2 -0.653472 9.58514 11.9849
152 2 -0.623745 10.836 13.5187
207 3 1.71304 8.33454 14.7301
148 2 -3.56036 8.75085 13.3165
197 3 0.656205 6.98216 16.8299
43 4 2.59531 8.93647 13.3469
37 4 1.57269 6.97049 15.5791
209 3 0.587791 11.4348 16.7681
212 3 1.22525 10.9677 9.6033
11 4 -3.68545 13.2223 13.1492
210 3 0.504232 13.2029 14.4625
308 2 -3.13267 6.49664 10.9152
229 3 7.99356 6.09172 5.301
192 3 6.55033 3.05785 6.3389
271 2 6.18444 3.46467 1.47463
331 2 12.5833 0.223502 3.46568
95 2 6.8979 4.79328 3.33221
51 4 7.06225 6.25131 4.0928
130 2 7.66084 4.73297 8.12125
342 2 12.0328 5.56788 8.29655
215 3 8.01762 2.11396 4.30606
269 2 6.98057 1.46998 2.2642
219 3 13.2251 2.50416 4.5578
46 4 9.4495 2.33573 3.65233
49 4 11.916 1.8799 5.41377
50 4 10.7109 4.8844 2.89584
53 4 10.6502 3.67529 7.57986
91 2 9.26822 1.88325 2.02346
94 2 12.2096 4.04182 2.49481
220 3 10.6678 1.44023 4.15943
221 3 12.1836 0.61959 6.2969
222 3 9.82269 3.90003 3.67759
223 3 11.111 6.29623 3.47683
225 3 10.066 5.11278 1.32746
227 3 11.3027 3.12305 6.26117
230 3 9.49667 4.87915 7.23516
217 3 8.3857 0.612983 7.60133
294 4 13.2971 0.961155 1.44579
297 3 12.2948 1.9603 0.713257
52 4 9.27323 5.81874 0.133474
54 4 9.15517 6.16257 6.45558
270 2 7.42854 1.24899 -0.0801038
288 2 8.16593 0.640646 1.42641
224 3 5.47718 6.77923 4.33521
296 3 14.4394 1.57706 2.36012
36 4 4.45568 6.49737 5.54259
347 2 10.0282 0.547052 0.747434
97 2 13.0669 3.90873 8.28578
226 3 10.2705 2.35905 8.40748
162 3 14.9271 -0.0951091 10.7481
128 2 6.63621 3.26434 12.6624
58 1 10.1014 -0.330876 9.56434
131 2 6.60502 4.25013 9.66868
32 4 6.83933 1.59346 10.803
12 4 13.7828 1.44461 14.673
65 1 6.666 3.36485 11.5318
267 4 6.51061 1.73911 16.9544
340 2 11.7585 3.4453 16.9387
249 2 6.69002 4.98589 13.7736
127 2 7.56168 3.89728 11.0275
240 1 7.64657 5.25464 14.4241
245 2 7.71247 4.50633 15.23
310 2 11.5601 5.30251 16.7729
218 3 8.14827 1.86001 9.91939
107 2 9.92759 -0.258113 10.7236
323 1 13.7192 -0.244704 13.6491
256 2 10.377 5.96154 10.2702
135 2 6.44548 6.09988 12.3738
303 2 7.90796 0.705924 14.939
247 2 8.72606 5.25864 13.7979
96 2 10.1631 5.76605 15.5997
129 2 6.27721 5.84037 8.60737
298 4 11.602 1.73181 16.7132
312 3 10.0916 1.33788 16.4344
126 2 5.70667 3.85151 11.2118
320 2 12.6651 2.66128 11.1278
336 2 10.9655 4.14391 15.4402
313 3 7.99495 3.22324 16.6992
109 2 11.9276 4.27402 9.66635
319 1 12.378 1.75935 10.5063
348 2 9.43628 0.730142 11.9704
10 4 13.7042 0.446237 9.79912
48 4 9.12286 1.24825 8.80711
137 2 6.02372 6.38137 10.4967
299 4 8.94779 1.95116 15.49
300 4 10.3549 3.33925 13.0839
301 1 10.5426 5.24377 12.9922
302 1 10.6528 4.88985 16.2088
304 2 9.14624 4.27997 12.1372
305 2 11.8695 4.52743 13.6852
306 2 11.1955 2.23214 12.0742
307 2 10.7949 5.80127 12.0141
309 2 10.0547 5.98374 13.7369
311 3 12.4268 1.44669 15.4152
314 3 9.53237 2.6787 14.2515
322 2 12.0365 0.719782 11.2544
349 2 10.0206 0.359113 13.7259
328 1 9.67393 -0.17162 12.7199
108 2 11.6116 2.03616 9.77706
343 2 13.6072 0.0643907 12.6142
59 1 12.1185 4.42461 8.62337
66 1 6.632 4.7938 8.62585
188 3 7.17213 0.575822 12.0808
321 2 13.8479 2.16057 9.36955
93 2 11.2474 -0.299465 9.29627
324 2 12.8046 -0.705522 14.1099
157 2 10.1301 8.61944 2.58531
156 2 8.55083 10.9712 6.30667
281 2 4.29968 13.7971 1.99291
325 1 8.38672 12.3293 -0.14964
47 4 5.50612 13.3201 7.19679
155 2 9.46209 11.0019 2.54833
92 2 3.90407 13.0115 7.77212
201 3 4.37844 7.68498 6.6952
206 3 1.77225 12.3424 5.95588
274 4 3.32721 9.84431 1.54944
276 4 5.66501 11.5192 2.89894
277 4 6.94193 11.0496 5.68627
282 2 4.64622 12.7104 3.74655
98 2 8.48818 7.09874 7.72302
289 3 3.75676 8.68641 0.552136
5 2 8.9697 11.9192 4.02508
291 3 4.60471 10.6277 2.16302
292 3 6.77311 11.1942 4.08114
293 3 5.97028 11.9396 6.55545
330 1 5.48655 13.7286 2.35215
333 2 6.48566 12.3828 1.52596
332 2 7.20597 13.6956 0.337367
275 4 2.15307 12.3672 0.323421
153 2 7.68218 9.90284 1.59526
251 2 9.57555 9.09612 8.32681
75 1 7.52693 9.31897 6.39482
158 2 6.57199 8.81473 5.79113
283 2 7.51857 9.04793 7.51898
114 2 10.0678 9.85405 3.79148
55 4 8.45955 8.08446 1.88327
154 2 9.57474 10.2472 0.814885
113 2 9.81701 9.06253 5.55884
74 1 9.26894 10.046 1.91261
231 3 7.6414 7.39484 3.06504
284 2 8.46573 8.94033 5.835
346 2 2.70093 13.4953 2.39344
279 1 2.41069 13.9757 1.36246
15 4 11.5114 7.02985 4.84011
89 2 2.90423 10.3719 4.26408
228 3 10.4968 6.85151 6.11174
326 2 9.19177 12.2485 0.579987
232 3 8.65347 7.29771 0.523231
287 2 3.41872 8.82332 3.73811
262 3 5.56039 6.67777 16.0955
237 4 9.71613 7.95423 11.036
335 2 7.906 13.108 13.8909
329 2 3.65755 13.0084 12.3194
68 1 5.83749 6.72383 11.5483
273 4 4.23993 6.38122 16.8115
236 4 6.75634 6.87883 15.0125
265 3 8.40574 10.0078 14.3488
235 4 9.06641 11.0353 15.4179
136 2 5.88948 7.93458 11.6368
146 2 5.47773 9.09348 8.55651
145 2 3.94293 9.51431 9.62059
144 2 5.115 7.91812 10.0851
106 2 2.75938 12.6984 9.19977
71 1 4.67841 8.6538 9.25944
350 2 6.2504 11.2092 14.1917
341 2 4.82525 11.1492 12.1735
56 4 3.98671 11.2609 14.8927
76 1 5.78284 10.8484 15.1303
90 2 3.49183 11.2117 11.2049
101 2 6.43814 11.0744 16.0372
159 2 3.75071 12.8761 14.2556
160 2 5.67914 9.69243 15.0561
233 3 3.46487 10.2691 13.7858
234 3 3.26491 11.2681 16.3964
239 4 7.16763 11.0733 11.2055
244 1 5.28308 11.985 11.5128
260 2 5.92812 11.0257 9.9683
261 2 4.55562 12.588 10.8116
263 3 6.77152 8.04947 14.0165
246 2 5.91671 12.7794 12.199
266 3 7.17726 9.73161 12.0021
254 2 7.18694 7.43051 10.2237
344 2 7.54135 12.3911 12.3675
238 4 7.86606 9.01435 13.2499
248 2 8.37986 6.65582 15.5647
242 1 8.02136 7.79674 9.53333
243 1 11.1858 6.79274 10.2909
259 2 8.75315 9.25002 10.0764
264 3 9.22839 8.0289 12.5575
327 2 8.15961 12.5503 15.8605
338 2 8.62256 11.1409 10.0372
30 4 1.0077 13.2759 12.868
253 2 8.78398 6.85858 9.34649
255 2 7.51873 8.14063 8.55009
216 3 6.35359 13.6028 8.56687
257 2 11.4637 7.04209 9.22559
345 2 7.73525 10.0856 17.0375
ITEM: TIMESTEP
200
ITEM: NUMBER OF ATOMS
350
ITEM: BOX BOUNDS xy xz yz pp pp pp
-6.7931589207117060e+00 1.5235469585769128e+01 -6.7859860257739273e+00
-9.2236853537990759e-01 1.4228599782302123e+01 -9.9033091685488094e-03
-2.1607667323829638e-01 1.7050170139773325e+01 -1.1965687530777740e+00
ITEM: ATOMS id type x y z
7 4 -0.987526 2.73265 3.49668
14 4 0.154924 5.12044 1.98672
164 3 -1.32698 4.30756 2.80626
166 3 -0.531328 6.24963 1.01977
79 2 -1.83026 4.7469 7.20327
17 4 -1.05617 5.97716 6.26917
78 2 -0.0249245 1.91395 5.83762
167 3 -2.17542 6.59658 5.25906
77 2 0.501171 2.77211 4.33473
190 3 0.38233 5.44525 5.55488
57 1 0.895796 2.50896 6.28308
105 2 0.840193 3.61779 5.96222
165 3 0.964607 3.9926 1.03031
189 3 1.14812 5.80027 3.04216
26 4 3.92752 2.15071 3.24393
315 1 1.6355 1.11558 0.243784
33 4 1.31154 6.33463 4.58347
316 2 2.7333 1.0359 -0.15254
62 1 3.06864 3.80934 2.97425
82 2 3.59855 4.7647 3.07421
117 2 2.25937 3.81131 2.14646
118 2 2.58148 3.53212 4.24246
119 2 4.16123 2.98669 1.65471
182 3 5.28021 2.04445 4.0745
183 3 6.47602 0.260565 5.6603
194 3 2.85162 6.22529 5.07937
195 3 4.89483 5.0738 6.34474
268 1 6.43382 1.79265 1.15218
272 2 5.49625 1.2023 1.27733
180 3 3.19813 0.79913 2.94054
143 2 1.0061 0.638942 6.90659
280 2 4.1781 6.10061 0.396098
318 2 1.60038 1.48309 1.35237
104 2 0.852522 2.49558 7.45358
181 3 3.38923 0.80578 8.2447
103 2 1.8533 2.03353 5.99053
191 3 4.6544 3.10684 8.12926
9 4 2.39749 -0.234397 7.46371
29 4 6.65908 1.75896 5.12217
36 4 4.33343 6.4164 5.59623
18 4 -0.261154 3.31915 12.4249
19 4 -0.593144 5.63975 10.6286
161 3 -0.139336 1.3016 15.8399
170 3 -0.849699 4.25742 11.3319
110 2 -1.66278 5.57182 9.3243
133 2 -0.675804 6.05777 14.4349
168 3 -1.3374 2.87161 13.5828
67 1 0.360643 5.69544 14.3634
132 2 0.863865 5.86589 13.3833
169 3 0.490755 2.00897 11.9426
134 2 0.441059 4.65915 14.8085
193 3 0.838388 5.68615 10.062
85 2 0.98664 4.1838 13.2764
84 2 2.79861 4.01961 9.33086
8 4 1.16284 1.5399 16.7849
13 4 0.96733 0.545302 11.4771
28 4 4.42948 1.79057 9.04989
31 4 3.95415 1.83454 14.9781
35 4 2.38377 5.6014 9.87108
63 1 3.30016 2.48607 10.5187
64 1 3.92676 3.40378 13.9081
83 2 2.1531 0.819374 10.302
120 2 2.14937 2.4409 10.3107
121 2 3.78536 3.49829 10.6166
122 2 3.7038 1.70789 11.2936
123 2 3.80468 3.16654 12.7847
124 2 4.92108 3.80942 14.1645
125 2 3.01073 3.90698 14.4552
184 3 3.81045 0.707047 13.8157
185 3 5.20362 1.88044 16.0401
186 3 2.41828 1.8443 15.8618
187 3 5.75842 1.38183 9.7651
198 3 3.12061 5.6917 11.3321
163 3 1.7266 -0.39797 12.6078
86 2 4.05104 5.32029 13.7818
196 3 3.03724 6.13269 15.6133
38 4 4.03415 6.35974 12.3612
126 2 5.43306 3.76579 11.1091
210 3 7.34258 -0.672645 14.5145
11 4 3.11087 -0.655143 13.2591
60 1 -4.70028 9.78662 4.7993
141 2 -3.94339 13.4262 5.24436
142 2 -2.08683 13.5926 6.02686
295 2 -6.27964 13.607 2.18365
3 2 -3.30001 12.0502 6.26288
70 1 -3.20992 13.1386 6.0677
1 4 -4.28945 13.361 2.4809
6 3 -3.74512 12.8582 1.01213
16 4 -0.279616 7.79753 0.812312
20 4 -2.51544 9.91622 1.02331
22 4 -0.414635 8.81755 7.05614
39 4 -1.21014 11.6706 3.38032
138 2 -0.499983 13.1098 1.33963
115 2 -2.52805 12.3009 4.4136
285 2 2.18104 7.9253 2.32756
171 3 -1.64289 8.62717 0.761211
173 3 -0.773969 7.16276 7.33694
199 3 -2.02149 10.6999 2.41586
202 3 -0.859295 9.97595 8.22845
80 2 -0.697167 9.48761 5.49971
69 1 -0.571202 13.1624 2.4432
111 2 -4.11535 9.32785 1.29224
2 1 -5.88975 12.6814 3.43977
205 3 0.0314579 11.1466 4.20961
334 2 -4.3964 11.932 3.59434
203 3 0.0154022 12.5745 8.03179
4 2 -5.96995 13.3902 4.38766
112 2 -3.83743 8.95026 4.78344
139 2 0.436991 13.2988 2.9669
337 2 -4.26652 10.8083 5.09192
174 3 -5.05644 12.5159 8.30764
286 2 1.38859 9.34928 3.17852
252 2 -4.59734 9.96186 6.89535
99 2 0.622879 8.43269 2.11488
87 2 0.950011 8.05576 4.59584
241 1 -4.70578 9.85338 8.04903
61 1 1.1497 9.26613 6.15609
116 2 1.76256 8.34478 6.22207
317 2 -5.99844 14.1236 0.0337215
42 4 1.4414 11.0611 5.10952
88 2 2.17481 9.01151 7.83061
100 2 1.57288 10.4925 7.0993
278 1 2.3649 8.87369 2.90423
287 2 3.10172 8.69331 3.74947
27 4 0.856072 13.46 6.81455
140 2 -1.4371 13.9417 2.88181
214 3 1.36829 12.0872 12.1932
250 2 -3.68648 9.35831 8.46166
149 2 -3.55769 6.87813 13.5439
213 3 1.60377 9.39237 11.8628
172 3 -2.56458 9.5529 16.9439
45 4 1.8097 10.8168 11.2351
257 2 -3.3095 7.29652 9.6622
175 3 -1.03609 6.77264 11.7083
21 4 -3.1205 11.1238 16.846
258 2 -4.04246 8.86605 10.7319
339 2 -3.96088 12.4705 14.7361
23 4 -4.98539 11.2524 9.20051
24 4 -1.43523 8.07599 12.5449
25 4 -2.42855 11.2702 11.2098
41 4 -0.234542 11.2905 9.03977
44 4 -0.407408 11.9284 15.5677
73 1 -0.536 10.4816 14.4044
150 2 -1.59946 10.1202 14.6123
151 2 0.190067 9.56898 14.5115
176 3 -4.50114 11.1402 15.583
177 3 -3.68849 11.2505 10.2311
178 3 -1.94627 9.84617 11.8651
179 3 -2.71115 12.3202 12.4745
204 3 -1.27906 11.7075 10.1555
211 3 -1.90816 12.0945 16.2282
72 1 -2.94945 7.82453 13.8776
81 2 -2.77948 7.90314 14.975
147 2 -1.15204 7.89783 14.3048
102 2 -0.369917 9.43611 12.1033
152 2 -0.42331 11.1269 13.4081
207 3 1.44276 8.23261 14.5955
148 2 -3.47754 8.73803 13.4787
197 3 0.706629 6.87401 16.8069
43 4 2.5006 8.90294 13.278
37 4 1.4921 6.87358 15.468
209 3 0.697075 11.5749 16.6286
212 3 1.20814 10.8672 9.57757
308 2 -3.29685 6.55634 11.3062
200 3 3.08174 6.69569 8.86177
229 3 7.92646 6.25653 5.38953
192 3 6.72931 2.92212 6.27994
269 2 7.07143 1.80875 2.10194
331 2 12.421 0.11479 3.25074
95 2 7.06795 4.85488 3.46904
51 4 7.00035 6.39677 4.17545
130 2 7.77985 4.64067 8.15876
342 2 12.1088 5.64075 8.22529
215 3 8.0653 1.89802 4.21174
232 3 8.75952 7.19842 0.478391
219 3 13.2368 2.28163 4.57426
46 4 9.37647 2.39213 3.5581
49 4 11.9054 1.87406 5.31226
50 4 10.6708 5.03198 2.87666
53 4 10.6073 3.60214 7.53095
91 2 9.21303 1.78618 1.89671
94 2 12.2872 4.40693 2.95866
220 3 10.6474 1.66849 4.25271
221 3 12.1437 0.450585 6.1735
222 3 9.66723 3.97406 3.47521
223 3 10.9259 6.40822 3.59743
225 3 10.3196 5.24663 1.35368
227 3 11.4598 3.25694 6.20298
230 3 9.39942 4.66008 7.32619
217 3 8.55152 0.667267 7.4544
294 4 13.1924 0.99373 1.26344
297 3 12.1828 2.08142 0.78943
52 4 9.44536 5.80463 0.114192
54 4 9.06377 6.15116 6.46816
34 4 5.64378 3.9288 7.23843
288 2 8.20453 0.552392 1.28843
224 3 5.44505 6.90158 4.47413
296 3 14.3456 1.56787 2.35022
347 2 10.1987 0.492721 0.884613
340 2 11.9339 4.59094 -0.109792
271 2 6.04502 3.60743 1.4215
270 2 7.29111 1.18849 -0.0677085
162 3 14.9564 -0.0545565 10.6954
128 2 6.38613 3.20288 12.6662
58 1 9.99259 -0.330541 9.75844
131 2 6.62398 4.22098 9.68482
32 4 6.9213 1.66957 10.7713
12 4 13.7956 1.49357 14.6873
65 1 6.38572 3.3996 11.5387
93 2 11.0993 -0.357422 9.54839
216 3 13.1331 -0.207624 8.47581
249 2 6.70036 4.91304 13.5994
127 2 7.29568 4.03807 11.3946
240 1 7.58832 5.11462 14.4203
245 2 7.59506 4.33386 15.3083
310 2 12.0208 4.97355 16.7642
218 3 8.30662 1.84601 9.97592
107 2 9.76766 -0.178404 10.8652
323 1 13.7725 -0.0871021 13.5859
256 2 10.4803 6.16958 10.0542
135 2 6.29053 5.88987 12.1552
303 2 7.92654 0.685689 15.1573
247 2 8.65894 5.16486 13.891
96 2 10.56 5.94284 15.9251
129 2 6.31493 5.74542 8.54796
298 4 11.5841 1.67175 16.8371
312 3 9.97096 1.4155 16.5755
335 2 14.7869 -0.565673 13.5354
320 2 12.6797 2.60048 11.3491
336 2 10.9539 4.07967 15.3742
313 3 7.98779 3.29416 16.7491
109 2 11.3903 4.59754 9.6595
319 1 12.4025 1.72694 10.655
348 2 9.44238 0.962559 12.1823
10 4 13.7194 0.526592 9.7815
48 4 9.18215 1.22274 8.78084
137 2 5.65933 6.15049 10.352
299 4 8.91168 2.02029 15.5504
300 4 10.1607 3.35577 12.9764
301 1 10.5346 5.24079 13.1432
302 1 10.9633 4.82969 16.2822
304 2 9.14174 4.6588 12.097
305 2 11.7818 4.24954 13.5861
306 2 10.8273 2.31235 11.7343
307 2 10.8364 5.85249 12.2118
309 2 10.1861 5.83417 14.0203
311 3 12.4607 1.42632 15.5232
314 3 9.42445 2.6884 14.2205
322 2 12.0826 0.714055 11.3089
349 2 10.0414 0.43861 13.8776
328 1 9.72077 0.0613866 12.9056
108 2 11.5893 2.01799 9.83993
343 2 13.3674 0.276572 12.5693
59 1 11.9628 4.60299 8.6225
66 1 6.73487 4.71449 8.59819
188 3 7.09921 0.557097 11.998
321 2 13.9518 2.1993 9.52386
97 2 12.93 4.01047 8.73352
226 3 10.37 2.39686 8.53809
267 4 6.4243 1.80536 16.9933
30 4 7.86833 -0.51328 12.9669
324 2 13.0083 -0.691182 14.1946
157 2 10.0149 8.60761 2.53386
156 2 8.58646 10.8329 6.31814
281 2 4.318 13.601 1.86502
326 2 8.95759 12.3422 0.469794
47 4 5.47326 13.2861 7.27616
155 2 9.35657 10.8998 2.4535
92 2 3.88558 13.0352 7.95499
201 3 4.33976 7.81118 6.73665
206 3 1.84783 12.3412 5.90135