ITEM: TIMESTEP
0
ITEM: NUMBER OF ATOMS
350
ITEM: BOX BOUNDS xy xz yz pp pp pp
-6.9675654541764702e+00 1.5235469585769128e+01 -6.7859860257739273e+00
-9.2236853537990759e-01 1.4228599782302123e+01 -1.8430984263331282e-01
-2.1607667323829638e-01 1.7224576673238090e+01 -1.1965687530777740e+00
ITEM: ATOMS id type x y z
7 4 -0.982281 2.81443 3.51659
14 4 0.0182292 5.21121 1.83326
164 3 -1.36984 4.14213 2.64176
166 3 -0.625831 6.38143 0.912119
79 2 -1.87332 4.71326 7.33457
17 4 -1.12027 5.9726 6.35723
78 2 0.0194089 1.90241 6.20501
167 3 -2.29748 6.66697 5.46633
77 2 0.575501 2.93636 4.18064
190 3 0.203185 5.38719 5.64556
57 1 0.950316 2.51715 6.11329
105 2 0.607685 3.71712 5.91604
165 3 1.00611 4.27437 0.894917
189 3 0.832759 5.97136 2.95795
26 4 4.00159 2.28855 3.35516
315 1 1.56313 1.36009 0.231218
33 4 1.13016 6.26797 4.54093
270 2 7.21445 1.00884 -0.0403903
62 1 3.08795 3.92428 2.97804
82 2 3.82237 4.78482 2.9666
117 2 2.32136 4.10283 2.19602
118 2 2.48707 3.77965 4.10153
119 2 4.39359 3.09458 1.81586
182 3 5.20643 2.29618 4.40415
183 3 6.33247 0.427332 5.86695
194 3 2.69845 6.298 4.78489
195 3 4.54182 5.00455 6.33435
268 1 6.48203 1.816 1.40634
272 2 5.43681 1.35866 1.54381
180 3 3.32502 0.91889 2.99358
143 2 0.978551 0.573811 6.60828
280 2 4.51357 6.10934 0.344532
318 2 1.38536 1.82036 1.37036
104 2 1.57432 2.46577 7.07535
181 3 3.17272 0.721435 8.19779
103 2 1.59446 2.17348 5.20633
191 3 4.36681 3.12581 8.30301
36 4 4.25835 6.36142 5.48446
316 2 2.68336 1.25917 0.0486342
34 4 5.37892 3.95869 7.40367
317 2 1.00782 0.362289 0.0196263
18 4 -0.187717 3.11147 12.7234
19 4 -0.710162 5.43327 10.8872
161 3 -0.384245 1.58778 15.9412
170 3 -0.809154 4.05276 11.5755
110 2 -1.64426 5.27158 9.44635
133 2 -0.506939 6.07335 14.3846
168 3 -1.35503 2.69376 13.6925
67 1 0.563318 5.74997 14.4789
132 2 1.1853 5.83745 13.5243
169 3 0.559907 1.82496 12.1409
134 2 0.626597 4.82162 15.0612
193 3 0.741844 5.69025 10.4394
85 2 0.992754 4.00999 13.5595
84 2 2.19669 3.92436 9.44386
8 4 0.970023 1.78611 16.8753
13 4 0.869612 0.305079 11.5554
28 4 4.07522 1.75764 9.08576
31 4 3.72669 1.77741 15.2853
35 4 2.25413 5.53248 10.0397
63 1 2.86709 2.40337 10.5146
64 1 4.1993 3.44851 14.423
83 2 2.15196 0.47142 10.4659
120 2 1.82116 2.21922 10.1821
121 2 3.09333 3.53488 10.8952
122 2 3.22296 1.63624 11.3011
123 2 4.13071 3.18104 13.3266
210 3 7.237 -0.743209 14.6699
125 2 3.33712 4.06613 14.86
184 3 3.52732 0.605589 14.0584
185 3 5.0305 1.59615 16.2913
186 3 2.34546 2.10998 16.2305
187 3 5.27351 1.38991 9.95459
198 3 3.18602 5.59455 11.2948
188 3 6.73112 0.463988 12.3411
86 2 4.39137 5.28973 13.8195
308 2 -3.40283 6.31134 10.9887
126 2 5.31535 3.79487 11.1071
200 3 2.81522 6.54283 8.76434
60 1 -4.65411 9.66288 4.7643
141 2 -3.73534 12.7456 5.33281
142 2 -2.12622 13.5227 6.2386
295 2 -6.01339 13.5956 2.21188
3 2 -2.90785 11.885 6.81785
70 1 -3.11095 12.8929 6.28316
1 4 -4.13534 13.4096 2.47599
6 3 -3.55527 12.9464 1.10461
16 4 -0.275639 7.96828 0.720419
20 4 -2.40165 10.093 1.08785
22 4 -0.497462 8.89951 7.11281
39 4 -1.10552 11.6779 3.55953
138 2 -1.15549 13.0354 1.63663
115 2 -2.37829 12.3869 4.52138
285 2 2.20227 7.96221 2.42962
171 3 -1.61992 8.75256 0.914481
173 3 -0.740468 7.29872 7.30928
199 3 -1.80371 10.8712 2.37238
202 3 -0.909779 10.0011 8.15453
80 2 -0.559687 9.37902 5.35377
69 1 -0.569811 13.2104 2.67749
111 2 -4.01469 9.58542 1.4508
2 1 -5.55319 12.6032 3.55924
205 3 0.132881 11.2003 4.35346
334 2 -4.05892 11.8131 3.67919
203 3 -0.0445439 12.5721 7.99197
4 2 -5.5642 13.2793 4.40399
112 2 -3.55397 8.81222 4.55796
139 2 0.585101 13.4865 2.35594
337 2 -4.2864 10.636 5.21443
174 3 -5.1958 12.4589 8.26589
286 2 1.34177 9.35135 3.49127
252 2 -4.7144 9.8904 6.821
99 2 0.643927 8.46114 2.11449
87 2 0.68128 7.91048 4.85768
241 1 -4.78049 9.74904 8.06125
61 1 1.04117 9.26419 6.24815
116 2 1.99497 8.70948 5.86741
40 4 3.45111 7.79084 8.01721
42 4 1.46938 11.1156 5.18204
88 2 2.2073 8.99887 7.80441
100 2 1.50605 10.7343 7.12302
278 1 2.28801 8.90496 3.09156
290 3 2.18249 10.9764 1.1563
287 2 3.16955 8.79303 3.84155
140 2 -1.13249 13.9545 3.44273
9 4 -4.47311 13.6675 7.31845
27 4 0.668237 13.5548 6.91508
214 3 0.934496 12.025 12.2065
163 3 -5.34999 13.2908 12.736
149 2 -3.6379 6.64712 13.6598
213 3 1.37313 9.34572 12.0475
196 3 2.78258 6.19369 16.1244
45 4 1.53926 10.7777 11.3608
208 3 3.29819 7.63882 13.0957
175 3 -1.17861 6.69912 11.6785
21 4 -3.1808 11.3755 17.0912
258 2 -3.95818 8.5855 10.8403
339 2 -3.84039 12.025 14.4936
23 4 -5.16797 11.1266 9.19821
24 4 -1.62101 8.03984 12.5273
25 4 -2.55926 11.3848 11.1029
41 4 -0.386601 11.3254 8.91325
44 4 -0.456776 11.841 15.7385
73 1 -0.642602 10.4562 14.5534
150 2 -1.64596 9.98447 14.8837
151 2 0.259247 9.68581 14.6689
176 3 -4.57326 11.2794 15.8286
177 3 -3.92878 11.0894 10.2103
178 3 -2.20545 9.84785 11.8015
179 3 -2.80993 12.6792 12.119
204 3 -1.58786 11.6629 9.97959
211 3 -2.04871 12.2599 16.3461
72 1 -2.95457 7.53542 13.9646
81 2 -2.51778 7.33532 14.9525
147 2 -1.11653 8.06747 14.196
102 2 -0.747089 9.51758 11.9467
152 2 -0.58263 10.8411 13.4191
207 3 1.57371 8.49104 14.7469
148 2 -3.52928 8.53413 13.8812
197 3 0.344344 7.16277 16.8646
43 4 2.46476 8.93571 13.4642
37 4 1.47166 7.06033 15.6615
209 3 0.51029 11.4448 17.0159
212 3 1.06875 10.8889 9.75775
11 4 -3.79896 13.2058 13.2891
38 4 3.93062 6.38663 12.497
250 2 -3.86222 9.32563 8.52157
172 3 -2.73522 9.76712 17.2098
229 3 7.99539 5.93793 5.4722
192 3 6.3723 3.10035 6.50102
271 2 6.45978 3.46761 1.4587
331 2 12.3024 0.302892 3.24432
95 2 7.29038 4.96892 3.24948
51 4 7.12126 6.30336 4.20759
130 2 7.58804 4.83135 8.21321
342 2 11.8532 5.41833 8.37656
215 3 8.00333 2.06359 4.49425
269 2 7.04804 1.59874 2.28248
219 3 13.2696 2.40514 4.72262
46 4 9.43799 2.35943 3.86696
49 4 11.9192 1.94411 5.41006
50 4 10.7451 4.96575 2.8416
53 4 10.5001 3.65652 7.59986
91 2 9.33028 1.6483 2.29136
94 2 12.2183 4.21765 2.55941
220 3 10.6275 1.48142 4.32919
221 3 12.2551 0.581374 6.3061
222 3 9.92609 3.81055 3.49653
223 3 11.1773 6.24001 3.63609
225 3 9.90399 5.16872 1.54491
227 3 11.3746 3.23859 6.34619
230 3 9.40975 4.87257 7.5176
217 3 8.39782 0.691351 7.57544
294 4 13.3662 1.02458 1.33896
297 3 12.2823 2.00771 0.664039
52 4 9.22132 5.74583 0.189246
54 4 9.05921 6.06061 6.54873
232 3 8.45177 7.10955 0.563766
288 2 8.11177 0.701131 1.4062
224 3 5.53372 6.64964 4.49682
296 3 14.2677 1.60387 2.39398
29 4 6.56366 1.96325 5.3273
347 2 9.97381 0.368992 0.838094
97 2 12.8988 3.74559 8.1982
310 2 11.7202 6.06973 -0.185012
162 3 14.8291 -0.0573822 10.6895
128 2 6.36814 3.15004 12.661
30 4 7.68507 -0.604346 13.0533
131 2 6.4553 4.33271 9.71016
321 2 13.8465 2.14787 9.33917
12 4 13.6633 1.45695 14.8636
65 1 6.29811 3.40491 11.5126
137 2 5.85848 6.50941 10.5073
226 3 10.0717 2.45197 8.7651
249 2 6.5866 4.99898 13.7323
127 2 7.23927 3.96001 11.2704
240 1 7.46171 5.21667 14.4898
245 2 7.47824 4.41595 15.3176
93 2 10.964 -0.084321 9.51861
218 3 7.93186 1.56848 10.1449
107 2 9.66356 -0.149302 10.9421
323 1 13.6804 -0.149933 13.7616
256 2 10.0652 5.95682 10.2977
340 2 11.5128 3.25376 17.2117
303 2 7.70347 0.678999 15.232
247 2 8.5552 5.18309 13.88
96 2 10.3274 5.93943 16.2376
129 2 6.12964 5.922 8.64874
298 4 11.4145 1.55327 16.886
312 3 9.72744 1.11879 16.8557
335 2 14.7458 -0.485648 13.9498
320 2 12.8727 2.48989 11.1539
336 2 10.6158 4.00023 15.7764
313 3 7.7384 3.21623 16.9064
109 2 11.8501 4.0925 9.91174
319 1 12.2996 1.66287 10.5563
348 2 9.27495 0.877144 12.2812
10 4 13.6605 0.499528 9.76561
48 4 8.96903 1.25687 8.95499
58 1 9.84722 -0.270943 9.76644
299 4 8.77605 1.90671 15.8142
300 4 10.2993 3.23841 13.1472
301 1 10.3684 5.15635 13.045
302 1 10.587 4.8524 16.6063
304 2 9.10312 4.21709 12.1203
305 2 11.8114 4.2625 13.5126
306 2 11.0569 2.12156 12.0149
307 2 10.597 5.78545 12.0507
309 2 9.958 5.74319 13.9013
311 3 12.1757 1.29595 15.508
314 3 9.55416 2.64606 14.4266
322 2 11.9472 0.762624 11.3081
349 2 9.82979 0.318506 14.001
328 1 9.51302 -0.0257648 12.9571
108 2 11.3967 2.04565 9.86537
343 2 13.5157 0.156157 12.7015
59 1 12.0273 4.29636 8.68616
66 1 6.55075 4.85407 8.65361
32 4 6.55453 1.6054 10.8989
135 2 6.25065 6.09693 12.3299
267 4 6.33738 1.54913 17.1668
124 2 5.24623 3.8346 14.7758
157 2 10.2135 8.54763 2.43207
156 2 8.47294 11.1959 6.10482
281 2 4.26038 13.8513 1.89443
251 2 9.40064 9.1793 8.34549
47 4 5.44908 13.2816 7.31573
155 2 9.55161 10.9577 2.4157
92 2 3.88921 13.153 8.02114
201 3 4.22633 7.58625 6.61222
206 3 1.67468 12.489 5.8724
274 4 3.36549 9.85571 1.65263
276 4 5.43967 11.6829 3.03158
277 4 6.7679 11.0762 5.72821
282 2 4.43711 12.9762 3.72814
98 2 8.23388 7.03802 7.72579
289 3 3.88069 8.71842 0.620204
5 2 8.76068 11.8732 3.63774
291 3 4.4711 10.5617 2.52884
292 3 6.56808 11.2528 4.17412
293 3 5.88476 11.9058 6.70814
330 1 5.35749 13.8091 2.18959
333 2 6.35918 12.4044 1.57779
332 2 7.5176 14.0464 0.166398
275 4 2.05472 12.2561 0.17884
153 2 7.63676 9.85968 1.62942
326 2 9.15187 12.0995 0.522922
75 1 7.64523 9.48553 6.39896
158 2 6.59658 8.93806 6.40426
283 2 8.03646 9.4654 7.40343
114 2 10.1079 9.83314 3.71788
55 4 8.43709 8.06896 1.92713
154 2 9.57501 10.0588 0.719288
113 2 9.85269 9.23759 5.43075
74 1 9.32141 9.96179 1.78931
231 3 7.83977 7.44968 3.26609
284 2 8.39563 9.00271 5.63763
346 2 2.63793 13.3575 2.29695
279 1 2.31946 13.8709 1.35617
15 4 11.4899 6.96829 4.93832
89 2 2.76384 10.4895 4.31601
228 3 10.2783 6.89078 5.94991
262 3 5.37751 6.54363 16.1926
237 4 9.57854 8.00077 10.9905
324 2 6.10333 13.0775 14.2142
329 2 3.56854 13.1686 12.4684
68 1 5.62375 6.76739 11.5966
273 4 4.08327 6.3818 17.0032
236 4 6.74842 6.82492 15.1685
265 3 8.38244 10.0275 14.4286
235 4 9.08666 11.0709 15.6802
136 2 5.59946 7.94025 11.8585
325 1 8.13962 11.1931 17.1846
145 2 3.84039 9.492 9.63994
144 2 4.97086 7.9729 10.1279
106 2 2.59162 12.7336 9.34079
71 1 4.56671 8.66401 9.24098
350 2 6.02522 11.5017 14.3923
341 2 4.55834 11.1367 12.3609
56 4 3.69258 11.2668 15.1205
76 1 5.53291 11.1909 15.3666
90 2 3.18914 11.1247 11.3751
101 2 5.94852 11.7726 16.2786
159 2 3.22652 12.8968 14.5411
160 2 5.64101 10.0075 15.5073
233 3 3.3674 10.1502 14.0046
234 3 3.08545 11.1252 16.559
239 4 7.02408 11.1573 11.3192
244 1 4.99663 11.9767 11.7076
260 2 5.73991 11.4093 10.0627
261 2 4.28192 12.5644 10.9831
263 3 6.84513 7.947 14.0857
246 2 5.57411 12.7677 12.4356
266 3 7.04118 9.84651 12.0847
254 2 7.10406 7.32599 10.3927
344 2 7.44032 12.5202 12.3444
238 4 7.85967 9.0103 13.3449
248 2 8.32263 6.48744 15.7118
242 1 7.947 7.60905 9.62551
243 1 11.0724 6.74517 10.3384
259 2 8.66984 9.27734 10.0254
264 3 8.99818 7.9428 12.5132
327 2 8.1608 12.6418 15.9464
338 2 8.53 11.1167 10.2217
345 2 7.29994 10.3687 17.0248
253 2 8.65991 6.6886 9.44991
255 2 7.40601 7.92637 8.70609
216 3 6.2563 13.6055 8.6079
257 2 11.4861 7.11706 9.3038
146 2 5.47074 9.06582 8.55404
ITEM: TIMESTEP
100
ITEM: NUMBER OF ATOMS
350
ITEM: BOX BOUNDS xy xz yz pp pp pp
-6.9675654541764702e+00 1.5235469585769128e+01 -6.7859860257739273e+00
-9.2236853537990759e-01 1.4228599782302123e+01 -1.8430984263331282e-01
-2.1607667323829638e-01 1.7224576673238090e+01 -1.1965687530777740e+00
ITEM: ATOMS id type x y z
7 4 -0.963367 2.8617 3.49746
14 4 -0.0188311 5.16392 1.83055
164 3 -1.46865 4.15531 2.67775
166 3 -0.684993 6.26124 0.844161
79 2 -1.73955 4.93301 7.4559
17 4 -1.10986 6.13208 6.37187
78 2 0.0343795 1.88311 5.65638
167 3 -2.36809 6.6468 5.43896
77 2 0.546422 3.10973 4.18514
190 3 0.250401 5.42986 5.41503
57 1 0.920316 2.56026 6.06801
105 2 0.720006 3.61153 5.84288
165 3 0.799611 4.03562 0.998609
189 3 0.794182 5.83608 2.98054
26 4 3.94274 2.13527 3.34096
315 1 1.36241 1.34466 0.484254
33 4 1.1176 6.3028 4.47652
34 4 5.4425 3.95442 7.27321
62 1 3.07709 3.77832 3.04193
82 2 3.669 4.76711 2.97851
117 2 2.2555 3.7524 2.29531
118 2 2.64281 3.6796 4.31881
119 2 4.30179 2.92052 1.80562
182 3 5.37392 2.07253 4.16714
183 3 6.27112 0.210938 6.03358
194 3 2.69414 6.35243 4.84979
195 3 4.88344 5.18071 6.42695
268 1 6.4833 1.80919 1.24352
272 2 5.52577 1.2743 1.13339
180 3 3.05663 0.85478 3.07616
143 2 1.14567 0.726406 6.7147
280 2 4.42016 6.25031 0.514585
318 2 1.04494 1.7723 1.55519
104 2 0.932259 2.47018 7.20161
181 3 3.14008 0.778598 8.39212
103 2 1.95417 2.2327 5.7016
191 3 4.41385 3.10871 8.15911
29 4 6.5654 1.92641 5.28638
316 2 2.51247 1.20529 0.36225
9 4 2.38305 -0.233774 7.47121
18 4 -0.327806 3.18243 12.7003
19 4 -0.625215 5.47314 10.8201
161 3 -0.321286 1.45078 15.9229
170 3 -0.776094 4.07127 11.5194
110 2 -1.7477 5.46044 9.56404
133 2 -0.603931 6.15483 14.42
168 3 -1.51102 2.75384 13.8051
67 1 0.452461 5.75404 14.5273
132 2 0.987363 5.76263 13.5572
169 3 0.50317 1.91468 12.2945
134 2 0.565521 4.8187 15.1375
193 3 0.757325 5.59155 10.0833
85 2 0.86828 4.06591 13.5947
84 2 2.47219 3.91047 9.23578
8 4 0.900215 1.69829 16.9281
13 4 0.843305 0.525418 11.6312
28 4 4.07314 1.81268 9.15844
31 4 3.72421 1.73099 15.193
35 4 2.26045 5.44075 9.95031
63 1 3.06451 2.59829 10.6386
64 1 4.16975 3.43846 14.4717
83 2 2.0805 0.899861 10.5021
120 2 1.88611 2.72321 10.649
121 2 3.45999 3.67551 10.8393
122 2 3.43183 1.92462 11.4688
123 2 4.2461 3.13217 13.3333
124 2 5.08564 3.80186 14.9781
125 2 3.15782 3.95301 14.7202
184 3 3.58126 0.604378 13.9029
185 3 5.04293 1.59172 16.2102
186 3 2.29736 1.95216 16.1125
187 3 5.26036 1.24443 9.93659
198 3 3.11888 5.51347 11.3189
163 3 1.59355 -0.499814 12.6287
86 2 4.17251 5.37403 13.794
196 3 2.91935 6.09394 15.9582
38 4 4.01896 6.32502 12.3931
200 3 2.97227 6.51262 8.89151
60 1 -4.69367 9.62145 4.93388
141 2 -3.73449 13.2501 5.25791
142 2 -2.13676 13.5273 6.22983
295 2 -6.18909 13.5796 2.22474
3 2 -3.14573 11.7993 6.59059
70 1 -3.17854 12.9571 6.28269
1 4 -4.30864 13.4547 2.37065
6 3 -3.71728 12.9893 0.878039
16 4 -0.229556 7.91975 0.845373
20 4 -2.45781 10.0221 1.00596
22 4 -0.460909 8.95176 7.1267
39 4 -1.20965 11.645 3.47114
138 2 -0.866515 12.8429 1.39915
115 2 -2.40829 12.3249 4.62237
285 2 2.44648 7.90093 2.44603
171 3 -1.61037 8.66761 0.8422
173 3 -0.618905 7.28497 7.45374
199 3 -1.85836 10.7361 2.36311
202 3 -0.685735 10.1338 8.12274
80 2 -0.744021 9.43613 5.42735
69 1 -0.556218 13.0523 2.42666
111 2 -4.12451 9.61794 1.31396
2 1 -5.54225 12.7052 3.62815
205 3 0.110463 11.1498 4.25212
334 2 -4.118 11.8457 3.56226
203 3 -0.179658 12.5789 8.07251
4 2 -5.44701 13.5726 4.38779
112 2 -3.68684 8.85077 4.67128
139 2 0.608691 13.1595 2.66641
337 2 -4.36108 10.5439 5.40218
174 3 -5.09133 12.4791 8.22497
286 2 1.41977 9.16972 3.6668
252 2 -4.75027 9.75912 6.93864
99 2 0.728083 8.40427 2.16257
87 2 0.611743 7.94324 4.57717
241 1 -4.83205 9.68552 8.21322
61 1 0.992804 9.14572 6.12935
116 2 1.88177 8.52691 5.78445
40 4 3.42024 7.80086 8.13053
42 4 1.47129 11.0189 5.23945
88 2 1.9826 8.81007 7.72571
100 2 1.63867 10.4665 7.07686
278 1 2.43479 8.88018 3.11223
290 3 2.19435 10.9767 1.12704
317 2 -6.02271 14.1885 0.199858
140 2 -1.19198 13.8738 2.91197
27 4 0.556679 13.5159 7.01959
214 3 0.904314 11.8147 12.2933
172 3 -2.55132 9.72177 17.1751
149 2 -3.68677 6.84272 13.5505
213 3 1.49858 9.39323 12.2853
11 4 -3.82038 13.1963 13.2665
45 4 1.67252 10.8172 11.3934
208 3 3.40147 7.70634 12.8901
175 3 -1.20099 6.73083 11.7038
21 4 -3.18847 11.2344 16.9422
258 2 -4.07245 8.6357 10.8712
339 2 -4.03535 12.081 14.5708
23 4 -5.15693 11.1717 9.17788
24 4 -1.62334 8.10817 12.5706
25 4 -2.62848 11.3278 11.2391
41 4 -0.302981 11.3948 9.09109
44 4 -0.552714 11.9277 15.7572
73 1 -0.727317 10.3577 14.6845
150 2 -1.69487 9.95072 15.0429
151 2 0.215175 9.57491 14.8338
176 3 -4.68484 11.1966 15.7775
177 3 -4.14462 11.1338 10.4133
178 3 -2.31134 9.89678 11.9487
179 3 -2.80314 12.4675 12.3295
204 3 -1.41783 11.7293 10.2706
211 3 -2.0756 12.2902 16.3147
72 1 -3.11671 7.7908 13.7928
81 2 -2.90053 7.91491 14.9188
147 2 -1.26664 7.90525 14.2986
102 2 -0.775889 9.55675 12.072
152 2 -0.873289 10.9259 13.6882
207 3 1.54871 8.31639 14.8659
148 2 -3.70504 8.73129 13.3879
197 3 0.463116 6.96782 16.9997
43 4 2.45303 8.923 13.493
37 4 1.40857 6.97542 15.7563
209 3 0.423947 11.4504 16.9274
212 3 1.10818 10.9736 9.75122
250 2 -3.92665 9.21528 8.78485
210 3 0.346068 13.1944 14.6046
308 2 -3.30424 6.52937 11.1316
229 3 7.9377 6.13567 5.36337
192 3 6.47468 3.04761 6.41398
271 2 6.23151 3.48611 1.44528
331 2 12.5373 0.245037 3.5004
95 2 6.82992 4.7886 3.44916
51 4 7.008 6.27182 4.16065
130 2 7.58648 4.68148 8.16044
342 2 11.9368 5.58229 8.35602
215 3 7.96859 2.12189 4.41671
269 2 6.99806 1.51145 2.21795
219 3 13.1402 2.52039 4.57346
46 4 9.40071 2.34645 3.70542
49 4 11.8561 1.87653 5.4743
50 4 10.669 4.89425 2.94217
53 4 10.5741 3.67393 7.63769
91 2 9.1966 1.85679 2.08538
94 2 12.1532 4.06536 2.55539
220 3 10.617 1.45162 4.21618
221 3 12.12 0.628067 6.3761
222 3 9.76967 3.89847 3.69561
223 3 11.0353 6.30486 3.53153
225 3 10.0662 5.11245 1.35282
227 3 11.2308 3.10771 6.31947
230 3 9.44888 4.85893 7.27534
217 3 8.29701 0.587637 7.70976
294 4 13.2902 0.956882 1.45968
297 3 12.3041 1.94817 0.687124
52 4 9.26661 5.81359 0.16482
54 4 9.08489 6.15396 6.52737
270 2 7.46933 1.24456 -0.0554979
288 2 8.11144 0.666388 1.41429
224 3 5.43807 6.81947 4.42605
296 3 14.4032 1.58399 2.40687
36 4 4.40642 6.48903 5.61155
347 2 10.0026 0.574211 0.831051
97 2 13.029 3.94863 8.25572
226 3 10.1792 2.36261 8.49465
162 3 14.8061 -0.0911512 10.8792
128 2 6.55705 3.23461 12.7058
137 2 5.97565 6.45351 10.5858
131 2 6.54383 4.24623 9.74456
93 2 11.1744 -0.304767 9.45937
12 4 13.6359 1.44544 14.8128
65 1 6.57871 3.36811 11.5893
267 4 6.36903 1.73721 17.1039
216 3 13.0748 -0.3313 8.66957
249 2 6.52918 5.02927 13.911
127 2 7.48111 3.89561 11.0841
240 1 7.49638 5.26084 14.6063
245 2 7.55296 4.50618 15.4047
310 2 11.3752 5.27514 16.9941
218 3 8.04333 1.84448 10.0167
107 2 9.81466 -0.270796 10.8297
323 1 13.5801 -0.229984 13.7619
256 2 10.2728 5.9002 10.401
135 2 6.32878 6.09604 12.4854
303 2 7.74476 0.703666 15.0551
247 2 8.58093 5.26233 13.9748
96 2 10.0089 5.81721 15.7845
129 2 6.23064 5.81957 8.65457
298 4 11.4445 1.72245 16.8586
312 3 9.93891 1.3122 16.5666
126 2 5.5993 3.84167 11.2706
320 2 12.5079 2.6444 11.2485
336 2 10.7382 4.16036 15.6451
313 3 7.85143 3.21056 16.8395
109 2 11.9259 4.22557 9.68204
319 1 12.2294 1.74272 10.6331
348 2 9.34225 0.676335 12.0619
10 4 13.5967 0.455511 9.91782
48 4 9.03599 1.24367 8.90588
58 1 10.0388 -0.313372 9.68166
299 4 8.79382 1.93846 15.6178
300 4 10.2266 3.32081 13.2437
301 1 10.3872 5.23435 13.1526
302 1 10.4659 4.89811 16.4091
304 2 9.01607 4.25016 12.2828
305 2 11.7156 4.55043 13.8496
306 2 11.0571 2.24202 12.1826
307 2 10.6389 5.78527 12.1557
309 2 9.90183 5.9963 13.8658
311 3 12.2859 1.45162 15.567
314 3 9.40062 2.66224 14.3857
322 2 11.8832 0.694242 11.3488
349 2 9.88838 0.335756 13.8099
328 1 9.55023 -0.213292 12.824
108 2 11.4707 2.03089 9.86844
343 2 13.5477 0.0715179 12.7018
59 1 12.0656 4.42848 8.64953
66 1 6.56959 4.7733 8.68115
32 4 6.74147 1.57573 10.9059
188 3 7.06305 0.582694 12.1806
321 2 13.7529 2.20339 9.50107
324 2 12.6013 -0.638429 14.1504
340 2 11.5704 3.43521 17.1033
157 2 10.0774 8.54604 2.65202
156 2 8.46867 10.9785 6.39288
281 2 4.29836 13.7947 2.0051
325 1 8.41891 12.3367 -0.164937
47 4 5.42824 13.3393 7.30744
155 2 9.48918 10.9645 2.55206
92 2 3.82479 13.0234 7.87736
201 3 4.32249 7.65987 6.77352
206 3 1.67143 12.3376 6.04017
274 4 3.31734 9.85416 1.564
276 4 5.63708 11.5307 2.94189
277 4 6.8613 11.0743 5.76099
282 2 4.60786 12.7539 3.77123
98 2 8.38363 7.06835 7.78848
289 3 3.75842 8.68835 0.562428
5 2 8.99001 11.9437 3.99456
291 3 4.59729 10.6304 2.18763
292 3 6.7051 11.2234 4.16622
293 3 5.88599 11.9675 6.64174
330 1 5.47114 13.7389 2.36528
333 2 6.50226 12.3719 1.57578
332 2 7.2437 13.6645 0.365054
275 4 2.1487 12.3615 0.29429
153 2 7.69708 9.88456 1.66482
232 3 8.64406 7.28758 0.550854
75 1 7.43282 9.34047 6.44955
158 2 6.44443 8.85032 5.89462
283 2 7.45618 9.09775 7.56673
114 2 10.0406 9.83579 3.85282
55 4 8.44379 8.05565 1.93359
154 2 9.56031 10.1914 0.851473
113 2 9.73302 9.02856 5.60382
74 1 9.28058 10.0107 1.94763
231 3 7.60451 7.35063 3.08918
284 2 8.34698 8.94191 5.89725
346 2 2.64332 13.4285 2.3501
279 1 2.39142 13.9876 1.36076
15 4 11.4485 7.02018 4.9147
89 2 2.8406 10.407 4.34006
228 3 10.4317 6.83744 6.1926
326 2 9.26188 12.2097 0.524239
287 2 3.35448 8.84561 3.78433
251 2 9.42072 9.14859 8.43797
262 3 5.41896 6.72119 16.2105
237 4 9.56806 7.94967 11.1438
30 4 0.871355 13.2799 12.9823
329 2 3.5443 12.9761 12.4359
68 1 5.70886 6.75014 11.6481
273 4 4.06825 6.41322 16.9786
236 4 6.60064 6.89349 15.1611
265 3 8.27925 10.0268 14.5323
235 4 8.91863 11.0467 15.5801
136 2 5.74936 7.95135 11.7739
146 2 5.3844 9.09388 8.62814
145 2 3.8172 9.49218 9.63718
144 2 4.99707 7.91441 10.1536
106 2 2.67833 12.7529 9.21556
71 1 4.57358 8.64833 9.30641
350 2 6.14716 11.2337 14.3585
341 2 4.71783 11.0988 12.2377
56 4 3.82222 11.2508 15.0237
76 1 5.62572 10.84 15.2712
90 2 3.36385 11.2299 11.3707
101 2 6.2015 11.0629 16.2145
159 2 3.60355 12.8628 14.3922
160 2 5.51569 9.68365 15.1612
233 3 3.31262 10.2521 13.9532
234 3 3.07571 11.2785 16.5552
239 4 7.0901 11.0819 11.3468
244 1 5.17025 11.9652 11.628
260 2 5.85639 11.0725 10.0743
261 2 4.458 12.5932 10.9518
263 3 6.64104 8.04367 14.1534
246 2 5.79986 12.7312 12.358
266 3 7.07061 9.74793 12.1346
254 2 7.05737 7.42523 10.3442
344 2 7.46645 12.3874 12.5069
238 4 7.72909 9.02556 13.3889
248 2 8.21634 6.65953 15.7762
242 1 7.92379 7.76497 9.61217
243 1 11.0476 6.76216 10.4375
259 2 8.71188 9.26055 10.1751
264 3 9.07437 8.05094 12.682
327 2 7.95432 12.5547 16.0607
338 2 8.55083 11.1565 10.1483
335 2 7.7272 13.0659 14.0826
253 2 8.67357 6.80898 9.44739
255 2 7.43211 8.08431 8.64883
257 2 11.3435 7.01688 9.39015
345 2 7.59524 10.0707 17.1997
ITEM: TIMESTEP
200
ITEM: NUMBER OF ATOMS
350
ITEM: BOX BOUNDS xy xz yz pp pp pp
-6.9675654541764702e+00 1.5235469585769128e+01 -6.7859860257739273e+00
-9.2236853537990759e-01 1.4228599782302123e+01 -1.8430984263331282e-01
-2.1607667323829638e-01 1.7224576673238090e+01 -1.1965687530777740e+00
ITEM: ATOMS id type x y z
7 4 -1.0385 2.78878 3.52282
14 4 0.123112 5.13461 2.00609
164 3 -1.40425 4.32479 2.78243
166 3 -0.543488 6.25561 1.03636
79 2 -1.88727 4.71106 7.20387
17 4 -1.13067 5.9776 6.33107
78 2 0.0081107 1.89727 5.72261
167 3 -2.23655 6.60792 5.29262
77 2 0.474761 2.88589 4.32588
190 3 0.323731 5.4818 5.62132
57 1 0.813821 2.51265 6.26205
105 2 0.743261 3.63001 5.94588
165 3 0.933867 4.00335 1.05274
189 3 1.08387 5.79195 3.09933
26 4 3.93132 2.14643 3.26133
315 1 1.58987 1.10402 0.224343
33 4 1.2744 6.3483 4.6491
36 4 4.28099 6.42737 5.65859
62 1 3.00375 3.79692 3.0395
82 2 3.57713 4.71241 3.15502
117 2 2.1717 3.82837 2.16987
118 2 2.48168 3.44714 4.26075
119 2 4.23096 3.03486 1.74099
182 3 5.21904 2.01322 4.14533
183 3 6.43216 0.234673 5.77368
194 3 2.80874 6.2079 5.12563
195 3 4.81995 5.04344 6.37216
268 1 6.446 1.77667 1.10393
272 2 5.47044 1.22337 1.24039
180 3 3.19762 0.794805 2.89362
143 2 0.955356 0.591773 6.80835
280 2 4.27629 6.15754 0.370555
318 2 1.5374 1.44632 1.41559
104 2 0.656791 2.47568 7.4134
181 3 3.2981 0.796812 8.33424
103 2 1.80342 2.10117 6.08866
191 3 4.57056 3.10314 8.22404
9 4 2.33279 -0.256298 7.53626
316 2 2.73762 1.03363 -0.141436
29 4 6.59655 1.74285 5.21524
18 4 -0.373495 3.30075 12.5586
19 4 -0.694916 5.62722 10.7482
161 3 -0.278668 1.36154 15.9858
170 3 -0.950115 4.27267 11.4914
110 2 -1.7533 5.57378 9.39573
133 2 -0.841083 6.05371 14.6684
168 3 -1.47468 2.85313 13.6915
67 1 0.206616 5.66543 14.538
132 2 0.743527 5.86928 13.5262
169 3 0.403435 1.99659 12.0958
134 2 0.328786 4.5903 15.0226
193 3 0.735552 5.65341 10.1866
85 2 0.838981 4.19178 13.4273
84 2 2.67723 4.01096 9.41025
8 4 1.01345 1.54635 16.9708
13 4 0.85586 0.551338 11.594
28 4 4.3282 1.78173 9.14317
31 4 3.79249 1.80485 15.1359
35 4 2.27382 5.59117 9.94419
63 1 3.20231 2.50949 10.5963
64 1 3.79075 3.3808 14.0386
83 2 1.99276 0.903875 10.4117
120 2 2.03433 2.4983 10.5197
121 2 3.6777 3.538 10.7171
122 2 3.64997 1.70816 11.4004
123 2 3.65352 2.90245 13.0219
124 2 4.78837 3.77905 14.1858
125 2 2.90833 4.02267 14.4603
184 3 3.61322 0.680109 13.9945
185 3 5.05952 1.86106 16.1731
186 3 2.27495 1.8709 16.048
187 3 5.65352 1.38984 9.8361
198 3 3.01785 5.71218 11.3825
163 3 1.61459 -0.416634 12.7164
86 2 3.92227 5.29803 13.9262
126 2 5.37243 3.77542 11.1581
38 4 3.89712 6.34662 12.4652
210 3 7.16885 -0.681665 14.643
11 4 2.99916 -0.652209 13.3815
27 4 0.769927 13.4226 6.92818
141 2 -4.04722 13.277 5.27663
142 2 -2.19475 13.4881 6.04666
295 2 -6.19778 13.5688 2.24113
3 2 -3.29986 11.9879 6.4157
70 1 -3.26577 13.0958 6.18763
1 4 -4.293 13.3546 2.43434
6 3 -3.77986 12.8666 0.972683
16 4 -0.263097 7.80964 0.851263
20 4 -2.53517 9.93527 1.04006
22 4 -0.49355 8.81028 7.10054
39 4 -1.29207 11.7039 3.39552
138 2 -0.292385 12.8276 1.43079
115 2 -2.53798 12.4489 4.43996
285 2 2.27383 7.96848 2.32101
171 3 -1.61093 8.66732 0.807509
173 3 -0.860613 7.12884 7.37982
199 3 -2.08816 10.7123 2.43957
202 3 -0.877396 9.94807 8.31146
80 2 -0.77492 9.49691 5.57142
69 1 -0.542074 13.1714 2.46146
111 2 -4.16106 9.27367 1.24231
2 1 -5.88733 12.6085 3.46021
205 3 -0.0223727 11.1618 4.21876
334 2 -4.33549 11.9303 3.64062
203 3 -0.0871494 12.5838 8.13543
4 2 -5.91031 13.325 4.36002
112 2 -3.95611 8.96462 4.86044
139 2 0.376601 13.666 2.99312
337 2 -4.544 10.8154 5.20969
174 3 -5.14732 12.5211 8.36366
286 2 1.48531 9.5358 2.97833
252 2 -4.77152 9.8728 6.97941
99 2 0.593453 8.33949 2.16434
87 2 0.798526 8.03666 4.70167
241 1 -4.836 9.84011 8.15019
61 1 1.07672 9.28106 6.222
116 2 1.84007 8.49709 5.99206
40 4 3.48628 7.98878 8.19781
42 4 1.35842 11.043 5.14238
88 2 2.09073 8.98779 7.89191
100 2 1.55985 10.5098 7.15772
278 1 2.38031 8.9121 2.92501
287 2 3.01211 8.68603 3.88173
317 2 -5.92373 14.0959 0.0107085
140 2 -1.51031 13.8451 2.58839
214 3 1.12867 12.0343 12.3514
172 3 -2.75346 9.56706 17.1444
149 2 -3.70311 6.86504 13.6886
213 3 1.43743 9.36487 11.9888
308 2 -3.46706 6.55042 11.5185
45 4 1.65208 10.8237 11.4121
212 3 1.12527 10.9062 9.74291
175 3 -1.14983 6.76053 11.8039
21 4 -3.24855 11.1444 17.0069
258 2 -4.09748 8.78188 10.8396
339 2 -4.04115 12.3534 14.7335
23 4 -5.08383 11.251 9.29166
24 4 -1.54539 8.0846 12.6399
25 4 -2.54286 11.2827 11.2781
41 4 -0.309177 11.2978 9.13813
44 4 -0.575851 11.9445 15.7238
73 1 -0.696264 10.4605 14.566
150 2 -1.7506 10.0457 14.8566
151 2 0.0440933 9.60304 14.6131
176 3 -4.66091 11.1412 15.7395
177 3 -3.79819 11.2535 10.3151
178 3 -2.06276 9.85109 11.9223
179 3 -2.82101 12.359 12.5906
204 3 -1.38817 11.6856 10.2419
211 3 -2.08174 12.1013 16.3973
72 1 -3.07569 7.82421 13.9626
81 2 -2.91618 7.96828 15.0552
147 2 -1.2386 7.86607 14.4105
102 2 -0.504538 9.44762 12.2439
152 2 -0.586795 11.1461 13.5711
207 3 1.29499 8.20722 14.7307
148 2 -3.59636 8.72499 13.5048
197 3 0.522213 6.87171 17.0064
43 4 2.3311 8.86549 13.4358
37 4 1.33566 6.862 15.6207
209 3 0.529335 11.5931 16.7849
200 3 2.95666 6.69161 8.93272
208 3 3.3834 7.76055 12.8777
257 2 -3.47388 7.19117 9.84953
250 2 -3.87878 9.36517 8.5748
196 3 2.86335 6.15317 15.7956
229 3 7.85123 6.2274 5.47921
192 3 6.62256 2.88585 6.40904
232 3 8.71778 7.13049 0.510556
331 2 12.4743 0.143525 3.26497
95 2 6.93468 4.87643 3.55887
51 4 6.93117 6.40898 4.2557
130 2 7.72713 4.59505 8.23249
342 2 11.9212 5.62115 8.25799
215 3 7.99098 1.896 4.30703
347 2 10.1471 0.43378 0.705297
219 3 13.1875 2.28796 4.61663
46 4 9.29096 2.39388 3.63805
49 4 11.8516 1.87004 5.37025
50 4 10.5811 5.04037 2.92717
53 4 10.5507 3.57081 7.60811
91 2 9.11255 1.74104 2.04243
94 2 12.1819 4.48168 3.10983
220 3 10.567 1.64882 4.31789
221 3 12.0953 0.469406 6.23417
222 3 9.58464 3.95981 3.53682
223 3 10.8106 6.41474 3.66791
225 3 10.3158 5.21756 1.39449
227 3 11.4 3.22441 6.25922
230 3 9.3179 4.65095 7.34316
217 3 8.47758 0.630658 7.55088
294 4 13.2182 1.00213 1.26483
297 3 12.2166 2.05426 0.717293
52 4 9.45378 5.78016 0.157138
54 4 9.00951 6.14477 6.56716
269 2 7.05823 1.68992 2.00327
288 2 8.13878 0.673228 1.22935
270 2 7.2881 1.23312 -0.0649481
296 3 14.3464 1.57216 2.37272
34 4 5.57434 3.89262 7.31439
340 2 11.9343 4.57046 -0.13834
271 2 6.00496 3.58343 1.36433
162 3 14.8522 -0.0119671 10.8123
128 2 6.31342 3.16313 12.7485
137 2 5.46882 6.19309 10.5242
131 2 6.5659 4.22029 9.74044
93 2 11.0319 -0.3477 9.6072
12 4 13.6628 1.52665 14.8336
65 1 6.32057 3.40594 11.6148
267 4 6.29168 1.80969 17.1123
216 3 13.0423 -0.137533 8.57542
249 2 6.51068 4.92556 13.7793
127 2 7.2456 4.0381 11.4598
240 1 7.40483 5.1371 14.6048
245 2 7.41436 4.35173 15.5046
310 2 11.8396 5.07348 16.8965
218 3 8.23056 1.82083 10.069
107 2 9.70432 -0.162728 10.972
323 1 13.6392 -0.0889417 13.7915
256 2 10.2518 6.0772 10.2963
135 2 6.18849 5.96069 12.2709
303 2 7.76052 0.672854 15.2797
247 2 8.50042 5.18408 14.0969
96 2 10.2981 5.96795 16.1467
129 2 6.24834 5.7231 8.62524
298 4 11.4435 1.64771 16.966
312 3 9.82632 1.3399 16.6968
97 2 12.8499 4.06461 8.69442
320 2 12.4825 2.61773 11.5296
336 2 10.8025 4.09701 15.6371
313 3 7.88127 3.27502 16.8674
109 2 11.4165 4.59077 9.77331
319 1 12.284 1.74124 10.806
348 2 9.30416 0.966004 12.3403
10 4 13.587 0.571392 9.89866
48 4 9.09625 1.19202 8.87732
58 1 9.8863 -0.346638 9.79736
299 4 8.76551 1.98318 15.6814
300 4 10.0012 3.34287 13.1318
301 1 10.384 5.22166 13.3791
302 1 10.8055 4.86798 16.4881
304 2 8.9975 4.69364 12.3116
305 2 11.5957 4.22457 13.8279
306 2 10.736 2.34916 11.8882
307 2 10.6444 5.82159 12.4467
309 2 10.0209 5.84936 14.2464
311 3 12.3033 1.48188 15.6452
314 3 9.27125 2.66019 14.364
322 2 11.9222 0.666256 11.4328
349 2 9.99527 0.415183 14.0012
328 1 9.57484 0.0108686 13.0477
108 2 11.4873 1.98542 9.94807
343 2 13.2809 0.230216 12.7431
59 1 11.8892 4.58841 8.67657
66 1 6.66553 4.68881 8.68063
32 4 6.84333 1.67573 10.8604
188 3 6.9827 0.540554 12.1191
321 2 13.7438 2.271 9.68195
335 2 14.7153 -0.509485 13.7974
226 3 10.2722 2.36342 8.61285
324 2 12.8833 -0.716284 14.4107
30 4 7.70467 -0.520124 13.0941
157 2 10.0569 8.55212 2.61502
156 2 8.49806 10.9058 6.39393
281 2 4.36873 13.6575 1.85803
228 3 10.4942 6.81803 6.31676
47 4 5.39324 13.323 7.38854
155 2 9.35008 10.8671 2.4426
92 2 3.82385 13.0586 7.99472