ITEM: TIMESTEP
0
ITEM: NUMBER OF ATOMS
350
ITEM: BOX BOUNDS xy xz yz pp pp pp
-6.7931589207117060e+00 1.5235469585769128e+01 -6.7859860257739273e+00
-7.4796200191514361e-01 1.4228599782302123e+01 -9.9033091685488094e-03
-2.1607667323829638e-01 1.7224576673238090e+01 -1.0221622196130100e+00
ITEM: ATOMS id type x y z
7 4 -0.944954 2.85176 3.51659
14 4 0.0387226 5.23171 1.83326
164 3 -1.34126 4.17071 2.64176
166 3 -0.614549 6.39271 0.912119
79 2 -1.79782 4.78876 7.33457
17 4 -1.05454 6.03833 6.35723
78 2 0.0836197 1.96662 6.20501
167 3 -2.24065 6.7238 5.46633
77 2 0.619468 2.98033 4.18064
190 3 0.261801 5.44581 5.64556
57 1 1.01361 2.58044 6.11329
105 2 0.669006 3.77844 5.91604
165 3 1.01722 4.28548 0.894917
189 3 0.864499 6.0031 2.95795
26 4 4.0373 2.32426 3.35516
315 1 1.56761 1.36456 0.231218
33 4 1.17773 6.31554 4.54093
270 2 7.21621 1.0106 -0.0403903
62 1 3.11989 3.95622 2.97804
82 2 3.8542 4.81665 2.9666
117 2 2.34548 4.12695 2.19602
118 2 2.53025 3.82283 4.10153
119 2 4.41391 3.1149 1.81586
182 3 5.25263 2.34239 4.40415
183 3 6.3933 0.488163 5.86695
194 3 2.74846 6.34801 4.78489
195 3 4.60732 5.07006 6.33435
268 1 6.49826 1.83223 1.40634
272 2 5.45441 1.37626 1.54381
180 3 3.35711 0.950986 2.99358
143 2 1.04679 0.642054 6.60828
280 2 4.51917 6.11495 0.344532
318 2 1.40122 1.83622 1.37036
104 2 1.64723 2.53868 7.07535
181 3 3.25686 0.805573 8.19779
103 2 1.64868 2.2277 5.20633
191 3 4.452 3.211 8.30301
36 4 4.31535 6.41843 5.48446
316 2 2.686 1.26182 0.0486342
34 4 5.45511 4.03488 7.40367
317 2 1.01018 0.364646 0.0196263
18 4 -0.058323 3.24086 12.7234
19 4 -0.59913 5.5443 10.8872
161 3 -0.222672 1.74935 15.9412
170 3 -0.691238 4.17068 11.5755
110 2 -1.54764 5.3682 9.44635
133 2 -0.360933 6.21936 14.3846
168 3 -1.21595 2.83285 13.6925
67 1 0.710268 5.89692 14.4789
132 2 1.3227 5.97485 13.5243
169 3 0.683477 1.94853 12.1409
134 2 0.77937 4.97439 15.0612
193 3 0.848399 5.79681 10.4394
85 2 1.13051 4.14774 13.5595
84 2 2.29329 4.02096 9.44386
8 4 1.14094 1.95702 16.8753
13 4 0.987326 0.422794 11.5554
28 4 4.16824 1.85066 9.08576
31 4 3.88171 1.93242 15.2853
35 4 2.35668 5.63504 10.0397
63 1 2.97439 2.51067 10.5146
64 1 4.34569 3.5949 14.423
83 2 2.25878 0.57824 10.4659
120 2 1.92514 2.3232 10.1821
121 2 3.20444 3.646 10.8952
122 2 3.33813 1.75141 11.3011
123 2 4.26614 3.31647 13.3266
210 3 7.38586 -0.59435 14.6699
125 2 3.48789 4.21689 14.86
184 3 3.67006 0.748334 14.0584
185 3 5.19557 1.76122 16.2913
186 3 2.50993 2.27444 16.2305
187 3 5.37521 1.49162 9.95459
198 3 3.30113 5.70966 11.2948
188 3 6.85669 0.58956 12.3411
86 2 4.53172 5.43008 13.8195
308 2 -3.29078 6.42339 10.9887
126 2 5.42858 3.9081 11.1071
200 3 2.90502 6.63263 8.76434
60 1 -4.6043 9.71269 4.7643
141 2 -3.67986 12.8011 5.33281
142 2 -2.06167 13.5872 6.2386
295 2 -5.98911 13.6199 2.21188
3 2 -2.83751 11.9553 6.81785
70 1 -3.04595 12.9579 6.28316
1 4 -4.10842 13.4365 2.47599
6 3 -3.54206 12.9596 1.10461
16 4 -0.266274 7.97765 0.720419
20 4 -2.38861 10.106 1.08785
22 4 -0.424173 8.9728 7.11281
39 4 -1.06777 11.7157 3.55953
138 2 -1.13696 13.0539 1.63663
115 2 -2.33091 12.4343 4.52138
285 2 2.22872 7.98867 2.42962
171 3 -1.60861 8.76387 0.914481
173 3 -0.665214 7.37397 7.30928
199 3 -1.77782 10.8971 2.37238
202 3 -0.826073 10.0848 8.15453
80 2 -0.503988 9.43472 5.35377
69 1 -0.540875 13.2394 2.67749
111 2 -3.99802 9.60209 1.4508
2 1 -5.51543 12.641 3.55924
205 3 0.178576 11.246 4.35346
334 2 -4.01997 11.8521 3.67919
203 3 0.0375365 12.6541 7.99197
4 2 -5.518 13.3255 4.40399
112 2 -3.50623 8.85996 4.55796
139 2 0.610822 13.5122 2.35594
337 2 -4.23209 10.6904 5.21443
174 3 -5.11098 12.5437 8.26589
286 2 1.37885 9.38842 3.49127
252 2 -4.64403 9.96077 6.821
99 2 0.667233 8.48445 2.11449
87 2 0.732018 7.96121 4.85768
241 1 -4.69772 9.83181 8.06125
61 1 1.10581 9.32884 6.24815
116 2 2.0558 8.77031 5.86741
40 4 3.53345 7.87317 8.01721
42 4 1.52336 11.1695 5.18204
88 2 2.28751 9.07907 7.80441
100 2 1.57944 10.8077 7.12302
278 1 2.32108 8.93803 3.09156
290 3 2.19621 10.9901 1.1563
287 2 3.21012 8.83361 3.84155
140 2 -1.09591 13.9911 3.44273
9 4 -4.39776 13.7429 7.31845
27 4 0.739548 13.6261 6.91508
214 3 1.05872 12.1493 12.2065
163 3 -5.22047 13.4203 12.736
149 2 -3.49914 6.78588 13.6598
213 3 1.49577 9.46835 12.0475
196 3 2.94599 6.35709 16.1244
45 4 1.65502 10.8935 11.3608
208 3 3.43131 7.77193 13.0957
175 3 -1.05967 6.81806 11.6785
21 4 -3.00773 11.5486 17.0912
258 2 -3.84761 8.69607 10.8403
339 2 -3.69329 12.1721 14.4936
23 4 -5.07383 11.2208 9.19821
24 4 -1.49358 8.16727 12.5273
25 4 -2.44607 11.498 11.1029
41 4 -0.295308 11.4167 8.91325
44 4 -0.297231 12.0005 15.7385
73 1 -0.494907 10.6039 14.5534
150 2 -1.49496 10.1355 14.8837
151 2 0.408097 9.83466 14.6689
176 3 -4.41281 11.4398 15.8286
177 3 -3.82451 11.1937 10.2103
178 3 -2.08528 9.96802 11.8015
179 3 -2.68658 12.8025 12.119
204 3 -1.4859 11.7648 9.97959
211 3 -1.88309 12.4256 16.3461
72 1 -2.81276 7.67722 13.9646
81 2 -2.36609 7.48701 14.9525
147 2 -0.972409 8.21159 14.196
102 2 -0.625461 9.6392 11.9467
152 2 -0.446277 10.9775 13.4191
207 3 1.72334 8.64067 14.7469
148 2 -3.38831 8.6751 13.8812
197 3 0.515151 7.33358 16.8646
43 4 2.60157 9.07251 13.4642
37 4 1.63044 7.21911 15.6615
209 3 0.68261 11.6171 17.0159
212 3 1.16849 10.9887 9.75775
11 4 -3.6639 13.3409 13.2891
38 4 4.05775 6.51376 12.497
250 2 -3.77484 9.41301 8.52157
172 3 -2.56096 9.94138 17.2098
229 3 8.05228 5.99481 5.4722
192 3 6.43947 3.16753 6.50102
271 2 6.47653 3.48436 1.4587
331 2 12.3371 0.337496 3.24432
95 2 7.32503 5.00358 3.24948
51 4 7.1655 6.3476 4.20759
130 2 7.67234 4.91564 8.21321
342 2 11.9391 5.50426 8.37656
215 3 8.05043 2.11069 4.49425
269 2 7.07302 1.62372 2.28248
219 3 13.319 2.45453 4.72262
46 4 9.47882 2.40026 3.86696
49 4 11.9754 2.00037 5.41006
50 4 10.7756 4.99633 2.8416
53 4 10.5782 3.73468 7.59986
91 2 9.35535 1.67338 2.29136
94 2 12.2461 4.2454 2.55941
220 3 10.6729 1.52687 4.32919
221 3 12.3204 0.646596 6.3061
222 3 9.96322 3.84767 3.49653
223 3 11.2158 6.27853 3.63609
225 3 9.9216 5.18633 1.54491
227 3 11.4402 3.30421 6.34619
230 3 9.48708 4.94991 7.5176
217 3 8.47574 0.769266 7.57544
294 4 13.3817 1.04013 1.33896
297 3 12.2911 2.01651 0.664039
52 4 9.22537 5.74988 0.189246
54 4 9.12686 6.12826 6.54873
232 3 8.45957 7.11735 0.563766
288 2 8.12799 0.717354 1.4062
224 3 5.58085 6.69677 4.49682
296 3 14.2938 1.62997 2.39398
29 4 6.61909 2.01868 5.3273
347 2 9.98435 0.379534 0.838094
97 2 12.9829 3.82973 8.1982
310 2 11.7205 6.07004 -0.185012
162 3 14.9382 0.0516733 10.6895
128 2 6.49691 3.27881 12.661
30 4 7.81777 -0.471653 13.0533
131 2 6.55457 4.43197 9.71016
321 2 13.9421 2.24342 9.33917
12 4 13.8141 1.60775 14.8636
65 1 6.41539 3.5222 11.5126
137 2 5.96572 6.61665 10.5073
226 3 10.1615 2.54178 8.7651
249 2 6.72609 5.13847 13.7323
127 2 7.35413 4.07487 11.2704
240 1 7.60877 5.36373 14.4898
245 2 7.63358 4.57128 15.3176
93 2 11.0613 0.0130258 9.51861
218 3 8.03547 1.67209 10.1449
107 2 9.77514 -0.0377196 10.9421
323 1 13.8202 -0.0101561 13.7616
256 2 10.1703 6.06196 10.2977
340 2 11.6871 3.42803 17.2117
303 2 7.85795 0.83348 15.232
247 2 8.69616 5.32405 13.88
96 2 10.4919 6.10397 16.2376
129 2 6.21829 6.01065 8.64874
298 4 11.5856 1.72429 16.886
312 3 9.89816 1.28951 16.8557
335 2 14.8875 -0.343989 13.9498
320 2 12.9864 2.60359 11.1539
336 2 10.7758 4.16015 15.7764
313 3 7.90962 3.38745 16.9064
109 2 11.9514 4.19378 9.91174
319 1 12.4073 1.77059 10.5563
348 2 9.39992 1.00212 12.2812
10 4 13.7603 0.599345 9.76561
48 4 9.06074 1.34858 8.95499
58 1 9.94704 -0.171118 9.76644
299 4 8.93636 2.06702 15.8142
300 4 10.4329 3.37205 13.1472
301 1 10.501 5.28896 13.045
302 1 10.7553 5.02063 16.6063
304 2 9.22649 4.34045 12.1203
305 2 11.9487 4.39979 13.5126
306 2 11.1792 2.24387 12.0149
307 2 10.7197 5.90811 12.0507
309 2 10.0992 5.88437 13.9013
311 3 12.333 1.45319 15.508
314 3 9.70059 2.79249 14.4266
322 2 12.0624 0.877866 11.3081
349 2 9.97196 0.460676 14.001
328 1 9.64475 0.105967 12.9571
108 2 11.4975 2.14646 9.86537
343 2 13.6449 0.285333 12.7015
59 1 12.1163 4.38539 8.68616
66 1 6.63945 4.94277 8.65361
32 4 6.66568 1.71655 10.8989
135 2 6.37611 6.22239 12.3299
267 4 6.51121 1.72296 17.1668
124 2 5.39615 3.98452 14.7758
157 2 10.24 8.57412 2.43207
156 2 8.53615 11.2591 6.10482
281 2 4.28149 13.8724 1.89443
251 2 9.48625 9.26492 8.34549
47 4 5.5244 13.3569 7.31573
155 2 9.57793 10.984 2.4157
92 2 3.97158 13.2353 8.02114
201 3 4.29461 7.65453 6.61222
206 3 1.73556 12.5499 5.8724
274 4 3.38418 9.8744 1.65263
276 4 5.47214 11.7154 3.03158
277 4 6.82734 11.1356 5.72821
282 2 4.47655 13.0156 3.72814
98 2 8.31329 7.11744 7.72579
289 3 3.88905 8.72679 0.620204
5 2 8.79921 11.9118 3.63774
291 3 4.49855 10.5892 2.52884
292 3 6.61198 11.2967 4.17412
293 3 5.954 11.9751 6.70814
330 1 5.38155 13.8332 2.18959
333 2 6.37712 12.4224 1.57779
332 2 7.52142 14.0502 0.166398
275 4 2.05867 12.26 0.17884
153 2 7.65522 9.87813 1.62942
326 2 9.15926 12.1069 0.522922
75 1 7.71138 9.55168 6.39896
158 2 6.66278 9.00426 6.40426
283 2 8.11265 9.5416 7.40343
114 2 10.1473 9.87248 3.71788
55 4 8.45852 8.09039 1.92713
154 2 9.58436 10.0682 0.719288
113 2 9.90916 9.29406 5.43075
74 1 9.34147 9.98185 1.78931
231 3 7.87459 7.4845 3.26609
284 2 8.45417 9.06125 5.63763
346 2 2.66306 13.3826 2.29695
279 1 2.33519 13.8866 1.35617
15 4 11.5414 7.01984 4.93832
89 2 2.80916 10.5349 4.31601
228 3 10.34 6.95244 5.94991
262 3 5.5416 6.70772 16.1926
237 4 9.6906 8.11283 10.9905
324 2 6.24763 13.2218 14.2142
329 2 3.69538 13.2954 12.4684
68 1 5.74188 6.88552 11.5966
273 4 4.25547 6.55399 17.0032
236 4 6.90227 6.97876 15.1685
265 3 8.52889 10.174 14.4286
235 4 9.24562 11.2299 15.6802
136 2 5.72021 8.06099 11.8585
325 1 8.31363 11.3671 17.1846
145 2 3.93895 9.59056 9.63994
144 2 5.0743 8.07634 10.1279
106 2 2.68719 12.8292 9.34079
71 1 4.66128 8.75858 9.24098
350 2 6.17131 11.6478 14.3923
341 2 4.68411 11.2624 12.3609
56 4 3.84595 11.4202 15.1205
76 1 5.68874 11.3467 15.3666
90 2 3.30505 11.2406 11.3751
101 2 6.11347 11.9375 16.2786
159 2 3.3741 13.0444 14.5411
160 2 5.79824 10.1647 15.5073
233 3 3.50961 10.2925 14.0046
234 3 3.2532 11.2929 16.559
239 4 7.13943 11.2726 11.3192
244 1 5.11587 12.0959 11.7076
260 2 5.8427 11.5121 10.0627
261 2 4.39392 12.6764 10.9831
263 3 6.98815 8.09002 14.0857
246 2 5.70062 12.8942 12.4356
266 3 7.16419 9.96952 12.0847
254 2 7.21015 7.43208 10.3927
344 2 7.56592 12.6459 12.3444
238 4 7.99528 9.14591 13.3449
248 2 8.48191 6.64672 15.7118
242 1 8.04542 7.70746 9.62551
243 1 11.178 6.85072 10.3384
259 2 8.77226 9.37976 10.0254
264 3 9.12548 8.07009 12.5132
327 2 8.32243 12.8034 15.9464
338 2 8.63437 11.2211 10.2217
345 2 7.47235 10.5411 17.0248
253 2 8.75657 6.78526 9.44991
255 2 7.49523 8.01559 8.70609
216 3 6.34454 13.6938 8.6079
257 2 11.5813 7.21226 9.3038
146 2 5.55844 9.15352 8.55404
ITEM: TIMESTEP
100
ITEM: NUMBER OF ATOMS
350
ITEM: BOX BOUNDS xy xz yz pp pp pp
-6.7931589207117060e+00 1.5235469585769128e+01 -6.7859860257739273e+00
-7.4796200191514361e-01 1.4228599782302123e+01 -9.9033091685488094e-03
-2.1607667323829638e-01 1.7224576673238090e+01 -1.0221622196130100e+00
ITEM: ATOMS id type x y z
7 4 -0.926161 2.88348 3.49816
14 4 0.0194598 5.19411 1.83451
164 3 -1.42642 4.18458 2.68724
166 3 -0.663763 6.26881 0.846692
79 2 -1.68068 5.00538 7.46164
17 4 -1.05668 6.20749 6.37329
78 2 0.0699245 1.95247 5.66134
167 3 -2.30626 6.70752 5.4237
77 2 0.605268 3.13194 4.15058
190 3 0.309006 5.48531 5.41385
57 1 0.970499 2.63134 6.04149
105 2 0.767718 3.68385 5.8129
165 3 0.820494 4.04829 0.998437
189 3 0.836816 5.87062 2.9657
26 4 3.96895 2.17041 3.33564
315 1 1.37025 1.34621 0.492275
33 4 1.17296 6.35705 4.46707
317 2 0.768702 0.31976 0.263588
62 1 3.09677 3.81008 3.03041
82 2 3.70261 4.79054 2.95294
117 2 2.27753 3.77652 2.27928
118 2 2.67672 3.7074 4.30767
119 2 4.33885 2.96172 1.79832
182 3 5.41224 2.12188 4.18428
183 3 6.35034 0.291447 6.05261
194 3 2.74817 6.40657 4.84129
195 3 4.94426 5.24888 6.42652
268 1 6.50313 1.812 1.2652
272 2 5.53946 1.29129 1.15711
180 3 3.10129 0.892205 3.06849
143 2 1.24426 0.817628 6.73513
280 2 4.39647 6.25882 0.556305
318 2 1.0713 1.77777 1.57042
104 2 0.998265 2.55258 7.17521
181 3 3.24056 0.863755 8.40012
103 2 1.99688 2.29225 5.66219
191 3 4.50081 3.18785 8.16401
34 4 5.51534 4.02445 7.27135
316 2 2.51353 1.18841 0.35433
29 4 6.61137 1.98507 5.2802
9 4 2.48591 -0.153599 7.46412
18 4 -0.195002 3.30758 12.6958
19 4 -0.531462 5.59185 10.8048
161 3 -0.158877 1.612 15.9482
170 3 -0.663134 4.18613 11.5138
110 2 -1.66096 5.53139 9.56881
133 2 -0.434191 6.22898 14.4657
168 3 -1.35543 2.89433 13.8146
67 1 0.632296 5.87445 14.5328
132 2 1.12562 5.90243 13.5541
169 3 0.625141 2.03669 12.2866
134 2 0.797703 4.94604 15.1315
193 3 0.858013 5.69903 10.0702
85 2 1.00797 4.21247 13.5605
84 2 2.56377 3.99787 9.24086
8 4 1.06818 1.86364 16.9377
13 4 0.953326 0.645913 11.6303
28 4 4.17111 1.90167 9.15695
31 4 3.87969 1.87435 15.1958
35 4 2.36055 5.54046 9.94814
63 1 3.16939 2.68877 10.645
64 1 4.33664 3.55729 14.4633
83 2 2.19378 0.993007 10.4968
120 2 1.99629 2.82975 10.6422
121 2 3.56795 3.75561 10.8395
122 2 3.50878 1.9911 11.4664
123 2 4.41888 3.25984 13.3504
124 2 5.25088 3.91063 14.9643
125 2 3.33298 4.076 14.706
184 3 3.72163 0.737727 13.8886
185 3 5.20487 1.75559 16.2138
186 3 2.45807 2.1174 16.1065
187 3 5.35982 1.34036 9.94655
198 3 3.22976 5.62696 11.3055
163 3 1.70379 -0.371335 12.6335
86 2 4.20279 5.48901 13.8139
196 3 3.07225 6.26045 15.9703
38 4 4.14761 6.47173 12.4007
200 3 3.06883 6.59644 8.88834
60 1 -4.63627 9.66913 4.91637
141 2 -3.65107 13.3649 5.27714
142 2 -2.06358 13.6221 6.22272
295 2 -6.20362 13.5308 2.27648
3 2 -3.0557 11.8733 6.51046
70 1 -3.10519 13.043 6.2662
1 4 -4.25661 13.4809 2.3732
6 3 -3.71111 13.0037 0.866711
16 4 -0.217286 7.93524 0.861531
20 4 -2.43162 10.046 1.02792
22 4 -0.396463 9.011 7.13534
39 4 -1.18542 11.6714 3.48341
138 2 -0.853873 12.8431 1.41764
115 2 -2.47405 12.261 4.58317
285 2 2.46058 7.91538 2.43668
171 3 -1.58924 8.68582 0.879481
173 3 -0.577515 7.35159 7.45813
199 3 -1.80195 10.757 2.36921
202 3 -0.581836 10.1932 8.13653
80 2 -0.706273 9.50871 5.44672
69 1 -0.549452 13.089 2.43411
111 2 -4.10391 9.62104 1.3676
2 1 -5.56522 12.7124 3.66854
205 3 0.15219 11.2128 4.24759
334 2 -4.10602 11.9945 3.46973
203 3 -0.0878238 12.6494 8.07074
4 2 -5.41532 13.544 4.45422
112 2 -3.6431 8.88591 4.65823
139 2 0.618563 13.2546 2.66502
337 2 -4.30586 10.6039 5.36998
174 3 -4.98685 12.5739 8.21943
286 2 1.43736 9.22906 3.62246
252 2 -4.67872 9.84377 6.91731
99 2 0.736672 8.40943 2.18077
87 2 0.669244 8.00184 4.55989
241 1 -4.72564 9.78919 8.20128
61 1 1.04451 9.19812 6.11324
116 2 1.92818 8.57382 5.78783
40 4 3.49903 7.90228 8.11864
42 4 1.52025 11.0836 5.21869
88 2 2.0355 8.87473 7.71907
100 2 1.71624 10.5337 7.05468
278 1 2.45386 8.93499 3.12091
290 3 2.20863 10.9936 1.13951
287 2 3.325 8.85676 3.8192
140 2 -1.21952 13.8983 2.90577
27 4 0.642797 13.589 7.01228
214 3 1.05424 11.9541 12.2907
11 4 -3.69768 13.3255 13.2596
149 2 -3.54639 6.99164 13.5637
213 3 1.61591 9.54223 12.2942
172 3 -2.37786 9.91094 17.1976
45 4 1.78379 10.9405 11.3837
208 3 3.54577 7.84456 12.8774
175 3 -1.10483 6.84072 11.6767
21 4 -3.02912 11.4145 16.9398
258 2 -3.95164 8.77143 10.863
339 2 -3.91334 12.2339 14.5785
23 4 -5.05011 11.2643 9.17587
24 4 -1.49463 8.23816 12.571
25 4 -2.5211 11.441 11.2341
41 4 -0.211954 11.4822 9.09952
44 4 -0.382172 12.0899 15.7633
73 1 -0.578155 10.5023 14.6859
150 2 -1.53679 10.0901 15.0651
151 2 0.344216 9.73872 14.8075
176 3 -4.51978 11.3537 15.7905
177 3 -4.04309 11.2293 10.4164
178 3 -2.1987 10.0261 11.9659
179 3 -2.69848 12.5946 12.3125
204 3 -1.31199 11.8235 10.2657
211 3 -1.91437 12.4688 16.3027
72 1 -2.98379 7.92657 13.8132
81 2 -2.76326 8.0345 14.9343
147 2 -1.12358 8.02054 14.298
102 2 -0.648247 9.69957 12.0587
152 2 -0.734082 11.0908 13.7075
207 3 1.7136 8.46237 14.8627
148 2 -3.56672 8.85883 13.4143
197 3 0.631857 7.14998 16.9925
43 4 2.58977 9.07058 13.5018
37 4 1.57252 7.12256 15.7488
209 3 0.583823 11.6233 16.9416
212 3 1.19858 11.0698 9.74765
250 2 -3.81872 9.34995 8.76633
210 3 0.504567 13.3356 14.6019
308 2 -3.15545 6.65336 11.0831
229 3 7.98934 6.20015 5.38734
192 3 6.53824 3.12206 6.39667
271 2 6.25767 3.48628 1.45089
331 2 12.5435 0.266398 3.49364
95 2 6.88575 4.8083 3.47565
51 4 7.06129 6.30553 4.16713
130 2 7.65214 4.78193 8.14712
342 2 12.0476 5.69027 8.38785
215 3 8.02519 2.16571 4.39322
269 2 7.01608 1.49103 2.21894
219 3 13.2032 2.55286 4.5827
46 4 9.44051 2.38139 3.70928
49 4 11.9057 1.93097 5.48828
50 4 10.7033 4.92983 2.93881
53 4 10.6582 3.74598 7.64556
91 2 9.24244 1.86252 2.08856
94 2 12.2127 4.12335 2.57145
220 3 10.6618 1.4953 4.24253
221 3 12.1721 0.691683 6.39222
222 3 9.81 3.93005 3.6881
223 3 11.0854 6.3431 3.52017
225 3 10.0826 5.15085 1.36227
227 3 11.3002 3.18287 6.32719
230 3 9.50928 4.92899 7.28487
217 3 8.38774 0.662798 7.69659
294 4 13.3056 0.972267 1.46611
297 3 12.3118 1.96767 0.695872
52 4 9.2674 5.82523 0.168162
54 4 9.15681 6.22239 6.53019
36 4 4.45666 6.55139 5.60688
288 2 8.13324 0.706739 1.39832
224 3 5.4912 6.85736 4.41858
296 3 14.4043 1.60918 2.39139
347 2 9.99401 0.524725 0.757104
270 2 7.45094 1.224 -0.0807791
97 2 13.0919 4.02929 8.30781
226 3 10.2646 2.43892 8.47302
162 3 14.9171 0.0186289 10.8878
128 2 6.64089 3.372 12.6916
324 2 12.8191 -0.557728 14.2153
131 2 6.64318 4.35193 9.73507
93 2 11.269 -0.170225 9.42355
12 4 13.7832 1.58622 14.8197
65 1 6.67285 3.47501 11.5939
267 4 6.5406 1.90455 17.0857
321 2 13.8347 2.27115 9.49328
249 2 6.67721 5.17178 13.9145
127 2 7.55489 4.00383 11.0766
240 1 7.65746 5.4026 14.6198
245 2 7.71583 4.64723 15.4227
126 2 5.69812 3.92294 11.2659
218 3 8.12766 1.95224 9.9939
107 2 9.91593 -0.152673 10.8192
323 1 13.7381 -0.0996179 13.7887
256 2 10.4043 6.04257 10.3975
135 2 6.41536 6.21731 12.5023
303 2 7.93007 0.841207 15.0751
247 2 8.72783 5.39398 13.9913
96 2 10.1419 5.97266 15.7874
129 2 6.30131 5.91333 8.64859
298 4 11.6076 1.89338 16.8655
312 3 10.0993 1.47245 16.5877
137 2 5.94491 6.52886 10.5804
320 2 12.6509 2.72563 11.2382
336 2 10.8631 4.30762 15.639
313 3 8.0359 3.37894 16.8775
109 2 11.9542 4.32035 9.71854
319 1 12.3361 1.83733 10.6261
348 2 9.47008 0.825172 12.0566
10 4 13.7041 0.555722 9.92125
48 4 9.11833 1.34534 8.88576
58 1 10.1319 -0.213892 9.65969
299 4 8.95388 2.09321 15.6325
300 4 10.3788 3.4554 13.2305
301 1 10.5283 5.37316 13.1433
302 1 10.6234 5.0672 16.3896
304 2 9.15896 4.38575 12.2676
305 2 11.8457 4.70327 13.8366
306 2 11.1659 2.35555 12.1765
307 2 10.78 5.91715 12.1464
309 2 10.0358 6.13524 13.853
311 3 12.4392 1.59057 15.5749
314 3 9.55157 2.81117 14.3866
322 2 11.9851 0.816216 11.3348
349 2 10.0285 0.495838 13.8094
328 1 9.68206 -0.061512 12.825
108 2 11.5896 2.13178 9.87184
343 2 13.6576 0.211523 12.7105
59 1 12.134 4.51516 8.67731
66 1 6.64671 4.85997 8.67523
32 4 6.84049 1.68362 10.8991
310 2 11.566 5.43346 16.9584
188 3 7.17101 0.698101 12.1817
340 2 11.7352 3.60487 17.0816
157 2 10.114 8.5786 2.62749
156 2 8.53878 11.031 6.32466
281 2 4.30989 13.8125 2.01254
325 1 8.40134 12.3115 -0.176211
47 4 5.51198 13.4046 7.31082
155 2 9.49227 10.9871 2.57046
92 2 3.92518 13.0657 7.88069
201 3 4.38484 7.73789 6.76015
206 3 1.73637 12.4017 6.0188
274 4 3.34281 9.87827 1.56222
276 4 5.65788 11.5535 2.94305
277 4 6.92135 11.1342 5.75744
282 2 4.61265 12.747 3.76722
98 2 8.49922 7.13762 7.7919
289 3 3.76163 8.69867 0.566809
5 2 8.97305 11.9441 4.04248
291 3 4.6325 10.642 2.17251
292 3 6.71338 11.2524 4.1679
293 3 5.99074 12.0448 6.65179
330 1 5.48251 13.7556 2.3739
333 2 6.52831 12.4062 1.5963
332 2 7.2878 13.6941 0.366954
275 4 2.15523 12.3745 0.308
153 2 7.70268 9.92614 1.64871
232 3 8.6665 7.30356 0.536158
75 1 7.50661 9.41673 6.45948
158 2 6.50425 8.89938 5.90296
283 2 7.54007 9.12097 7.57387
114 2 10.0777 9.86899 3.87629
55 4 8.47079 8.08381 1.92963
154 2 9.59667 10.26 0.85409
113 2 9.8037 9.07638 5.60137
74 1 9.29394 10.0515 1.93803
231 3 7.63992 7.37109 3.07999
284 2 8.40732 9.03029 5.89322
346 2 2.66982 13.5005 2.36877
279 1 2.41172 14.0024 1.35471
15 4 11.5091 7.0679 4.90318
89 2 2.84251 10.4531 4.2589
228 3 10.4966 6.89099 6.16802
251 2 9.53264 9.21893 8.45811
326 2 9.2292 12.2103 0.52811
262 3 5.56724 6.86006 16.2451
237 4 9.68513 8.06813 11.1364
30 4 1.00233 13.4199 12.9796
329 2 3.67035 13.1199 12.4365
68 1 5.81388 6.86037 11.65
273 4 4.23176 6.57909 16.9982
236 4 6.75424 7.03445 15.1649
265 3 8.43458 10.1898 14.5398
235 4 9.06813 11.2009 15.5773
136 2 5.92072 8.01755 11.7875
146 2 5.45337 9.1996 8.59502
145 2 3.8788 9.61811 9.58748
144 2 5.12989 8.01918 10.216
106 2 2.77758 12.8377 9.22432
71 1 4.66063 8.76556 9.27938
350 2 6.2895 11.3828 14.3311
341 2 4.83365 11.1819 12.1985
56 4 3.97681 11.4072 15.0105
76 1 5.77885 10.9926 15.2532
90 2 3.47739 11.3379 11.3087
101 2 6.35796 11.2337 16.1956
159 2 3.74917 13.0256 14.3968
160 2 5.6709 9.84004 15.1727
233 3 3.46246 10.4039 13.9473
234 3 3.24041 11.4492 16.5491
239 4 7.19587 11.2175 11.3575
244 1 5.27615 12.0876 11.6288
260 2 5.98428 11.199 10.057
261 2 4.5472 12.6766 10.9151
263 3 6.79378 8.19386 14.1634
246 2 5.84214 12.8674 12.3365
266 3 7.18527 9.86001 12.1412
254 2 7.18471 7.53126 10.3048
344 2 7.54214 12.5071 12.5184
238 4 7.87369 9.15742 13.3952
248 2 8.38401 6.81295 15.7728
242 1 8.0436 7.8865 9.59038
243 1 11.1738 6.89159 10.4191
259 2 8.77208 9.36206 10.1874
264 3 9.20631 8.17896 12.6758
327 2 8.0736 12.7008 16.0844
338 2 8.6652 11.28 10.1523
335 2 7.92439 13.2308 14.0265
253 2 8.78732 6.93317 9.42199
255 2 7.54192 8.23105 8.62783
216 3 6.39908 13.7025 8.68583
257 2 11.4588 7.14792 9.36496
345 2 7.73276 10.2563 17.2221
ITEM: TIMESTEP
200
ITEM: NUMBER OF ATOMS
350
ITEM: BOX BOUNDS xy xz yz pp pp pp
-6.7931589207117060e+00 1.5235469585769128e+01 -6.7859860257739273e+00
-7.4796200191514361e-01 1.4228599782302123e+01 -9.9033091685488094e-03
-2.1607667323829638e-01 1.7224576673238090e+01 -1.0221622196130100e+00
ITEM: ATOMS id type x y z
7 4 -0.998108 2.78023 3.52543
14 4 0.160791 5.1632 2.01508
164 3 -1.34915 4.33546 2.81127
166 3 -0.514539 6.28536 1.05901
79 2 -1.86695 4.79996 7.20224
17 4 -1.09381 6.03199 6.30682
78 2 0.00279237 1.99065 5.79372
167 3 -2.17859 6.67599 5.24816
77 2 0.532522 2.87202 4.31983
190 3 0.374082 5.53136 5.61485
57 1 0.859634 2.59966 6.276
105 2 0.793703 3.74161 5.95049
165 3 0.967855 4.03556 1.06268
189 3 1.13355 5.84121 3.08461
26 4 3.93813 2.16768 3.25065
315 1 1.61159 1.08872 0.249275
33 4 1.31318 6.4014 4.64181
316 2 2.72169 0.994264 -0.0871671
62 1 3.05865 3.82579 3.03256
82 2 3.64141 4.73175 3.15893
117 2 2.19791 3.8898 2.1848
118 2 2.51252 3.52465 4.24499
119 2 4.23202 3.02932 1.71447
182 3 5.25411 2.06205 4.15924
183 3 6.50926 0.315423 5.77516
194 3 2.8468 6.28302 5.12708
195 3 4.85892 5.12074 6.382
268 1 6.44627 1.83747 1.15655
272 2 5.5092 1.2134 1.22398
180 3 3.2276 0.84435 2.88834
143 2 1.0659 0.701618 6.89043
280 2 4.21005 6.14421 0.455557
318 2 1.53661 1.4842 1.38656
104 2 0.775114 2.58219 7.44656
181 3 3.38805 0.889026 8.33328
103 2 1.82615 2.1559 6.02831
191 3 4.66791 3.18294 8.22646
9 4 2.43108 -0.158061 7.54409
36 4 4.32078 6.49701 5.64717
29 4 6.64735 1.81519 5.21705
18 4 -0.257941 3.42792 12.5387
19 4 -0.59672 5.73128 10.7264
161 3 -0.140961 1.50361 15.9947
170 3 -0.872069 4.3794 11.4766
110 2 -1.67259 5.67865 9.39534
133 2 -0.650981 6.05235 14.8015
168 3 -1.30902 2.98988 13.7129
67 1 0.413114 5.76226 14.5693
132 2 0.804839 6.03615 13.5272
169 3 0.513558 2.12529 12.0682
134 2 0.646947 4.69716 14.9805
193 3 0.828604 5.74684 10.1584
85 2 0.996088 4.3443 13.3193
84 2 2.78907 4.12358 9.38309
8 4 1.17441 1.72134 16.9827
13 4 0.962415 0.665099 11.609
28 4 4.41566 1.87206 9.15031
31 4 3.95056 1.95152 15.1209
35 4 2.37948 5.72617 9.94276
63 1 3.2607 2.61116 10.5714
64 1 3.95424 3.51407 14.0285
83 2 2.11795 0.956825 10.3949
120 2 2.10114 2.56698 10.4595
121 2 3.6927 3.62208 10.7628
122 2 3.71265 1.81162 11.3767
123 2 3.76619 3.12331 13.0015
124 2 4.90456 3.98464 14.1174
125 2 3.06154 4.09207 14.5342
184 3 3.73968 0.818733 13.9884
185 3 5.24049 2.00205 16.1588
186 3 2.42982 2.01492 16.0486
187 3 5.73493 1.45964 9.85382
198 3 3.11099 5.81864 11.3589
163 3 1.72807 -0.273478 12.7403
86 2 3.9589 5.49421 13.8943
196 3 3.02762 6.29596 15.8263
38 4 4.00091 6.49215 12.4328
210 3 7.31277 -0.526719 14.6428
11 4 3.12474 -0.519816 13.4035
126 2 5.46853 3.88011 11.1396
287 2 3.1183 8.73859 3.81285
141 2 -4.01094 13.4711 5.31819
142 2 -2.11205 13.6752 6.01793
295 2 -6.15152 13.4905 2.35448
3 2 -3.20329 12.1172 6.37003
70 1 -3.18949 13.2327 6.12227
1 4 -4.26099 13.3835 2.45465
6 3 -3.7553 12.8674 0.984186
16 4 -0.244867 7.83268 0.865613
20 4 -2.51561 9.95197 1.05589
22 4 -0.433539 8.88143 7.11612
39 4 -1.25574 11.7294 3.4096
138 2 -0.406051 12.7746 1.42012
115 2 -2.55749 12.3176 4.4472
285 2 2.32843 7.98108 2.32614
171 3 -1.6127 8.66668 0.813601
173 3 -0.833137 7.17148 7.36609
199 3 -2.05906 10.7488 2.46615
202 3 -0.767236 9.99991 8.33389
80 2 -0.73952 9.56962 5.59332
69 1 -0.558183 13.243 2.49125
111 2 -4.13625 9.34852 1.26628
2 1 -5.88755 12.6355 3.48403
205 3 0.00942692 11.2249 4.21469
334 2 -4.30671 11.9572 3.599
203 3 0.0148969 12.6267 8.13034
4 2 -5.93392 13.318 4.44279
112 2 -3.88664 9.02352 4.82254
139 2 0.424852 13.7066 2.89444
337 2 -4.40459 10.8346 5.14854
174 3 -5.03947 12.5907 8.37756
286 2 1.47697 9.46854 3.08246
252 2 -4.65542 9.94202 6.95924
99 2 0.603026 8.49382 2.16741
87 2 0.807044 8.07738 4.72469
241 1 -4.715 9.93483 8.13151
61 1 1.12822 9.32729 6.21824
116 2 1.90794 8.56526 5.93588
40 4 3.55804 8.09036 8.1505
42 4 1.39385 11.101 5.14386
88 2 2.19726 9.10393 7.85865
100 2 1.57041 10.6185 7.12473
278 1 2.41236 8.9147 2.90794
317 2 -5.97799 14.1734 0.0819576
27 4 0.85479 13.504 6.90227
140 2 -1.47249 13.9638 2.66381
214 3 1.28172 12.1993 12.3416
208 3 3.49899 7.9009 12.9104
149 2 -3.56228 6.98819 13.6946
213 3 1.55612 9.51502 12.0047
172 3 -2.55579 9.74679 17.1607
45 4 1.79212 10.9569 11.4186
257 2 -3.34884 7.36064 9.80598
175 3 -1.03875 6.90472 11.8024
21 4 -3.10194 11.3097 17.0118
258 2 -3.99299 9.00005 10.8842
339 2 -3.94043 12.476 14.758
23 4 -4.97609 11.3323 9.28085
24 4 -1.4271 8.20392 12.6459
25 4 -2.43387 11.3935 11.2811
41 4 -0.18741 11.3685 9.15783
44 4 -0.420896 12.0923 15.7222
73 1 -0.520975 10.6183 14.5871
150 2 -1.58568 10.1685 14.9152
151 2 0.229857 9.71609 14.6019
176 3 -4.50332 11.3021 15.7633
177 3 -3.68328 11.3351 10.3117
178 3 -1.95749 9.97221 11.9497
179 3 -2.71832 12.514 12.5637
204 3 -1.27573 11.7827 10.2286
211 3 -1.92928 12.27 16.3693
72 1 -2.92741 7.94003 14.0029
81 2 -2.76115 8.06044 15.1023
147 2 -1.08987 7.98393 14.4205
102 2 -0.362955 9.583 12.246
152 2 -0.502493 11.2701 13.5443
207 3 1.44007 8.34012 14.7267
148 2 -3.44693 8.85711 13.5915
197 3 0.697572 7.07471 17.0094
43 4 2.51419 9.01777 13.428
37 4 1.50993 7.01126 15.6398
209 3 0.667312 11.7651 16.7875
212 3 1.24516 11.0192 9.74253
308 2 -3.3361 6.70756 11.487
200 3 3.04441 6.79162 8.91521
250 2 -3.69607 9.44457 8.53448
229 3 7.91453 6.29263 5.48871
192 3 6.70186 2.98193 6.376
340 2 11.9223 4.56702 -0.111642
331 2 12.4542 0.125764 3.32067
95 2 7.01831 4.89805 3.59405
51 4 6.99184 6.44604 4.2611
130 2 7.76409 4.70325 8.21946
342 2 12.0607 5.67623 8.20504
215 3 8.02354 1.96136 4.27119
228 3 10.5682 6.85003 6.28174
219 3 13.2228 2.29696 4.59553
46 4 9.36407 2.43918 3.6306
49 4 11.9038 1.93606 5.36995
50 4 10.6289 5.07482 2.90606
53 4 10.6295 3.66624 7.59488
91 2 9.21355 1.7716 2.04635
94 2 12.2447 4.5283 3.03593
220 3 10.6156 1.70686 4.36138
221 3 12.1501 0.543356 6.28869
222 3 9.64447 3.9988 3.52648
223 3 10.8704 6.45265 3.63447
225 3 10.338 5.26127 1.37662
227 3 11.4898 3.35439 6.25576
230 3 9.39062 4.70648 7.34433
217 3 8.58698 0.693053 7.53501
294 4 13.2335 1.01881 1.27088
297 3 12.2105 2.06992 0.743789
52 4 9.45086 5.79203 0.141936
54 4 9.07504 6.22738 6.56891
34 4 5.64033 3.98311 7.29533
288 2 8.11099 0.697004 1.25172
270 2 7.26938 1.20106 -0.131362
296 3 14.3525 1.58055 2.35686
347 2 10.1697 0.504652 0.793327
269 2 7.04169 1.61069 2.04338
232 3 8.74749 7.15904 0.498594
271 2 6.03796 3.55 1.38823
162 3 14.9419 0.0820521 10.8415
128 2 6.40119 3.30803 12.7717
335 2 14.8714 -0.291509 13.8105
131 2 6.63556 4.31539 9.72625
93 2 11.1127 -0.211529 9.61164
12 4 13.829 1.65903 14.8503
65 1 6.4097 3.51052 11.6214
267 4 6.46986 1.95495 17.1075
321 2 13.9089 2.33338 9.61875
249 2 6.69063 5.04754 13.7794
127 2 7.36896 4.08493 11.4467
240 1 7.56431 5.24779 14.5807
245 2 7.61379 4.47909 15.4721
97 2 12.9129 4.10697 8.75533
218 3 8.29195 1.91894 10.0159
107 2 9.80458 -0.048556 11.0151
323 1 13.7735 0.0506804 13.7585
256 2 10.3863 6.28506 10.2821
135 2 6.3167 6.0342 12.1669
303 2 7.97707 0.818838 15.2901
247 2 8.65297 5.33584 14.0656
96 2 10.5961 6.11186 16.1229
129 2 6.3238 5.82543 8.61737
298 4 11.6115 1.80946 16.9774
312 3 9.99275 1.50485 16.738
137 2 5.54687 6.29314 10.5799
320 2 12.6008 2.74311 11.4723
336 2 10.8751 4.23685 15.5718
313 3 8.04771 3.46404 16.879
109 2 11.4454 4.77828 9.77722
319 1 12.38 1.84578 10.7838
348 2 9.43661 1.14343 12.3754
10 4 13.6931 0.64679 9.9069
48 4 9.19067 1.2594 8.86502
58 1 9.98373 -0.243935 9.82245
299 4 8.92512 2.1474 15.7064
300 4 10.1498 3.48058 13.1462
301 1 10.521 5.36312 13.3208
302 1 10.9624 5.00289 16.4758
304 2 9.14731 4.77706 12.2678
305 2 11.7858 4.39419 13.8023
306 2 10.9131 2.46764 11.9389
307 2 10.7824 5.98959 12.401
309 2 10.1509 5.96874 14.2011
311 3 12.4675 1.60498 15.6542
314 3 9.43689 2.81901 14.3897
322 2 12.0453 0.814565 11.4117
349 2 10.1903 0.56492 13.9926
328 1 9.69999 0.183567 13.0712
108 2 11.5537 2.10032 9.9254
343 2 13.459 0.39121 12.7405
59 1 11.9562 4.69678 8.66437
66 1 6.72328 4.78934 8.66264
32 4 6.9363 1.77657 10.857
310 2 12.0507 5.11976 16.8537
188 3 7.11489 0.684684 12.1076
216 3 13.1558 -0.0742485 8.5996
30 4 7.83652 -0.365133 13.0898
226 3 10.3759 2.45501 8.5822
157 2 10.0613 8.58807 2.59988
156 2 8.5886 10.9183 6.28575
281 2 4.38787 13.6756 1.87077
326 2 8.99596 12.3512 0.466965
47 4 5.49294 13.392 7.42497
155 2 9.35836 10.8731 2.45037
92 2 3.92131 13.0861 8.04187
201 3 4.32342 7.85777 6.79888