ITEM: TIMESTEP
0
ITEM: NUMBER OF ATOMS
350
ITEM: BOX BOUNDS xy xz yz pp pp pp
-6.6536149250656633e+00 1.5235469585769128e+01 -6.6464420301278846e+00
-9.2236853537990759e-01 1.4228599782302123e+01 -9.9033091685488094e-03
-2.1607667323829638e-01 1.7224576673238090e+01 -1.1965687530777740e+00
ITEM: ATOMS id type x y z
7 4 -0.916991 2.81443 3.51659
14 4 0.0894987 5.21121 1.83326
164 3 -1.30062 4.14213 2.64176
166 3 -0.552703 6.38143 0.912119
79 2 -1.74825 4.71326 7.33457
17 4 -0.993046 5.9726 6.35723
78 2 0.104307 1.90241 6.20501
167 3 -2.17283 6.66697 5.46633
77 2 0.649106 2.93636 4.18064
190 3 0.316953 5.38719 5.64556
57 1 1.04038 2.51715 6.11329
105 2 0.707643 3.71712 5.91604
165 3 1.05799 4.27437 0.894917
189 3 0.923648 5.97136 2.95795
26 4 4.0599 2.28855 3.35516
315 1 1.57877 1.36009 0.231218
33 4 1.24093 6.26797 4.54093
270 2 7.22368 1.00884 -0.0403903
62 1 3.15858 3.92428 2.97804
82 2 3.90149 4.78482 2.9666
117 2 2.38542 4.10283 2.19602
118 2 2.56826 3.77965 4.10153
119 2 4.44351 3.09458 1.81586
182 3 5.27602 2.29618 4.40415
183 3 6.399 0.427332 5.86695
194 3 2.81213 6.298 4.78489
195 3 4.65912 5.00455 6.33435
268 1 6.51479 1.816 1.40634
272 2 5.46646 1.35866 1.54381
180 3 3.36576 0.91889 2.99358
143 2 1.05447 0.573811 6.60828
280 2 4.57791 6.10934 0.344532
318 2 1.41777 1.82036 1.37036
104 2 1.67415 2.46577 7.07535
181 3 3.26711 0.721435 8.19779
103 2 1.6714 2.17348 5.20633
191 3 4.48636 3.12581 8.30301
36 4 4.38014 6.36142 5.48446
316 2 2.69604 1.25917 0.0486342
34 4 5.49719 3.95869 7.40367
317 2 1.01122 0.362289 0.0196263
18 4 -0.0210729 3.11147 12.7234
19 4 -0.539921 5.43327 10.8872
161 3 -0.198451 1.58778 15.9412
170 3 -0.645362 4.05276 11.5755
110 2 -1.49104 5.27158 9.44635
133 2 -0.292924 6.07335 14.3846
168 3 -1.18221 2.69376 13.6925
67 1 0.775108 5.74997 14.4789
132 2 1.38776 5.83745 13.5243
169 3 0.707462 1.82496 12.1409
134 2 0.835326 4.82162 15.0612
193 3 0.90987 5.69025 10.4394
85 2 1.17732 4.00999 13.5595
84 2 2.33641 3.92436 9.44386
8 4 1.16778 1.78611 16.8753
13 4 0.995711 0.305079 11.5554
28 4 4.18945 1.75764 9.08576
31 4 3.90737 1.77741 15.2853
35 4 2.4163 5.53248 10.0397
63 1 3.00305 2.40337 10.5146
64 1 4.38747 3.44851 14.423
83 2 2.26808 0.47142 10.4659
120 2 1.95173 2.21922 10.1821
121 2 3.24467 3.53488 10.8952
122 2 3.35966 1.63624 11.3011
123 2 4.3045 3.18104 13.3266
210 3 7.3859 -0.743209 14.6699
125 2 3.53615 4.06613 14.86
184 3 3.68317 0.605589 14.0584
185 3 5.22012 1.59615 16.2913
186 3 2.53957 2.10998 16.2305
187 3 5.39335 1.38991 9.95459
198 3 3.36223 5.59455 11.2948
188 3 6.86721 0.463988 12.3411
86 2 4.59151 5.28973 13.8195
308 2 -3.22272 6.31134 10.9887
126 2 5.47155 3.79487 11.1071
200 3 2.97387 6.54283 8.76434
60 1 -4.507 9.66288 4.7643
141 2 -3.55133 12.7456 5.33281
142 2 -1.92476 13.5227 6.2386
295 2 -5.85423 13.5956 2.21188
3 2 -2.71658 11.885 6.81785
70 1 -2.91531 12.8929 6.28316
1 4 -3.97522 13.4096 2.47599
6 3 -3.41443 12.9464 1.10461
16 4 -0.18869 7.96828 0.720419
20 4 -2.28953 10.093 1.08785
22 4 -0.332892 8.89951 7.11281
39 4 -0.951138 11.6779 3.55953
138 2 -1.00808 13.0354 1.63663
115 2 -2.20654 12.3869 4.52138
285 2 2.30742 7.96221 2.42962
171 3 -1.52306 8.75256 0.914481
173 3 -0.589806 7.29872 7.30928
199 3 -1.67008 10.8712 2.37238
202 3 -0.723062 10.0011 8.15453
80 2 -0.409119 9.37902 5.35377
69 1 -0.409528 13.2104 2.67749
111 2 -3.90377 9.58542 1.4508
2 1 -5.38955 12.6032 3.55924
205 3 0.290973 11.2003 4.35346
334 2 -3.90191 11.8131 3.67919
203 3 0.166147 12.5721 7.99197
4 2 -5.38478 13.2793 4.40399
112 2 -3.41758 8.81222 4.55796
139 2 0.744709 13.4865 2.35594
337 2 -4.12475 10.636 5.21443
174 3 -4.98332 12.4589 8.26589
286 2 1.47216 9.35135 3.49127
252 2 -4.54304 9.8904 6.821
99 2 0.750701 8.46114 2.11449
87 2 0.811862 7.91048 4.85768
241 1 -4.59729 9.74904 8.06125
61 1 1.20015 9.26419 6.24815
116 2 2.14433 8.70948 5.86741
40 4 3.61426 7.79084 8.01721
42 4 1.63547 11.1156 5.18204
88 2 2.38026 8.99887 7.80441
100 2 1.68908 10.7343 7.12302
278 1 2.40966 8.90496 3.09156
290 3 2.30418 10.9764 1.1563
287 2 3.2981 8.79303 3.84155
140 2 -0.956592 13.9545 3.44273
9 4 -4.25866 13.6675 7.31845
27 4 0.877247 13.5548 6.91508
214 3 1.18475 12.025 12.2065
163 3 -5.08141 13.2908 12.736
149 2 -3.42589 6.64712 13.6598
213 3 1.5949 9.34572 12.0475
196 3 3.01639 6.19369 16.1244
45 4 1.768 10.7777 11.3608
208 3 3.51409 7.63882 13.0957
175 3 -0.987256 6.69912 11.6785
21 4 -2.88484 11.3755 17.0912
258 2 -3.75692 8.5855 10.8403
339 2 -3.56569 12.025 14.4936
23 4 -4.95885 11.1266 9.19821
24 4 -1.40718 8.03984 12.5273
25 4 -2.3272 11.3848 11.1029
41 4 -0.178532 11.3254 8.91325
44 4 -0.170617 11.841 15.7385
73 1 -0.382954 10.4562 14.5534
150 2 -1.3875 9.98447 14.8837
151 2 0.512425 9.68581 14.6689
176 3 -4.29175 11.2794 15.8286
177 3 -3.70921 11.0894 10.2103
178 3 -1.9813 9.84785 11.8015
179 3 -2.55406 12.6792 12.119
204 3 -1.36502 11.6629 9.97959
211 3 -1.75187 12.2599 16.3461
72 1 -2.73042 7.53542 13.9646
81 2 -2.28507 7.33532 14.9525
147 2 -0.884588 8.06747 14.196
102 2 -0.524683 9.51758 11.9467
152 2 -0.331253 10.8411 13.4191
207 3 1.81577 8.49104 14.7469
148 2 -3.29604 8.53413 13.8812
197 3 0.595755 7.16277 16.8646
43 4 2.69757 8.93571 13.4642
37 4 1.70919 7.06033 15.6615
209 3 0.806138 11.4448 17.0159
212 3 1.28148 10.8889 9.75775
11 4 -3.52532 13.2058 13.2891
38 4 4.1276 6.38663 12.497
250 2 -3.67833 9.32563 8.52157
172 3 -2.45407 9.76712 17.2098
229 3 8.11282 5.93793 5.4722
192 3 6.47234 3.10035 6.50102
271 2 6.50961 3.46761 1.4587
331 2 12.3397 0.302892 3.24432
95 2 7.37436 4.96892 3.24948
51 4 7.22883 6.30336 4.20759
130 2 7.72369 4.83135 8.21321
342 2 11.9964 5.41833 8.37656
215 3 8.07155 2.06359 4.49425
269 2 7.08798 1.59874 2.28248
219 3 13.3437 2.40514 4.72262
46 4 9.50247 2.35943 3.86696
49 4 11.996 1.94411 5.41006
50 4 10.8247 4.96575 2.8416
53 4 10.6174 3.65652 7.59986
91 2 9.37081 1.6483 2.29136
94 2 12.2874 4.21765 2.55941
220 3 10.6881 1.48142 4.32919
221 3 12.3279 0.581374 6.3061
222 3 10.0011 3.81055 3.49653
223 3 11.2781 6.24001 3.63609
225 3 9.97176 5.16872 1.54491
227 3 11.4743 3.23859 6.34619
230 3 9.53837 4.87257 7.5176
217 3 8.48525 0.691351 7.57544
294 4 13.3903 1.02458 1.33896
297 3 12.309 2.00771 0.664039
52 4 9.28037 5.74583 0.189246
54 4 9.18936 6.06061 6.54873
232 3 8.52846 7.10955 0.563766
288 2 8.13337 0.701131 1.4062
224 3 5.64784 6.64964 4.49682
296 3 14.3089 1.60387 2.39398
29 4 6.63978 1.96325 5.3273
347 2 9.98602 0.368992 0.838094
97 2 13.0234 3.74559 8.1982
310 2 11.7785 6.06973 -0.185012
162 3 14.9424 -0.0573822 10.6895
128 2 6.5345 3.15004 12.661
30 4 7.81808 -0.604346 13.0533
131 2 6.60196 4.33271 9.71016
321 2 13.9674 2.14787 9.33917
12 4 13.8362 1.45695 14.8636
65 1 6.45475 3.40491 11.5126
137 2 6.03542 6.50941 10.5073
226 3 10.1894 2.45197 8.7651
249 2 6.78291 4.99898 13.7323
127 2 7.39887 3.96001 11.2704
240 1 7.66829 5.21667 14.4898
245 2 7.68565 4.41595 15.3176
93 2 11.0644 -0.084321 9.51861
218 3 8.05552 1.56848 10.1449
107 2 9.77856 -0.149302 10.9421
323 1 13.8256 -0.149933 13.7616
256 2 10.2344 5.95682 10.2977
340 2 11.7289 3.25376 17.2117
303 2 7.8726 0.678999 15.232
247 2 8.75492 5.18309 13.88
96 2 10.5598 5.93943 16.2376
129 2 6.28085 5.922 8.64874
298 4 11.6101 1.55327 16.886
312 3 9.91832 1.11879 16.8557
335 2 14.8896 -0.485648 13.9498
320 2 13.0163 2.48989 11.1539
336 2 10.824 4.00023 15.7764
313 3 7.95079 3.21623 16.9064
109 2 11.9965 4.0925 9.91174
319 1 12.4286 1.66287 10.5563
348 2 9.41452 0.877144 12.2812
10 4 13.7694 0.499528 9.76561
48 4 9.07686 1.25687 8.95499
58 1 9.94844 -0.270943 9.76644
299 4 8.96368 1.90671 15.8142
300 4 10.4717 3.23841 13.1472
301 1 10.5589 5.15635 13.045
302 1 10.8126 4.8524 16.6063
304 2 9.27438 4.21709 12.1203
305 2 11.998 4.2625 13.5126
306 2 11.2061 2.12156 12.0149
307 2 10.7832 5.78545 12.0507
309 2 10.1635 5.74319 13.9013
311 3 12.354 1.29595 15.508
314 3 9.73435 2.64606 14.4266
322 2 12.0752 0.762624 11.3081
349 2 9.98216 0.318506 14.001
328 1 9.65079 -0.0257648 12.9571
108 2 11.5222 2.04565 9.86537
343 2 13.6526 0.156157 12.7015
59 1 12.1626 4.29636 8.68616
66 1 6.69134 4.85407 8.65361
32 4 6.68661 1.6054 10.8989
135 2 6.44294 6.09693 12.3299
267 4 6.53589 1.54913 17.1668
124 2 5.44204 3.8346 14.7758
157 2 10.3245 8.54763 2.43207
156 2 8.64971 11.1959 6.10482
281 2 4.41871 13.8513 1.89443
251 2 9.58118 9.1793 8.34549
47 4 5.65964 13.2816 7.31573
155 2 9.68657 10.9577 2.4157
92 2 4.10602 13.153 8.02114
201 3 4.37242 7.58625 6.61222
206 3 1.86189 12.489 5.8724
274 4 3.48127 9.85571 1.65263
276 4 5.58846 11.6829 3.03158
277 4 6.93944 11.0762 5.72821
282 2 4.60627 12.9762 3.72814
98 2 8.38638 7.03802 7.72579
289 3 3.97407 8.71842 0.620204
5 2 8.91785 11.8732 3.63774
291 3 4.60331 10.5617 2.52884
292 3 6.72478 11.2528 4.17412
293 3 6.07506 11.9058 6.70814
330 1 5.51855 13.8091 2.18959
333 2 6.49966 12.4044 1.57779
332 2 7.65941 14.0464 0.166398
275 4 2.17876 12.2561 0.17884
153 2 7.75234 9.85968 1.62942
326 2 9.27802 12.0995 0.522922
75 1 7.80803 9.48553 6.39896
158 2 6.75396 8.93806 6.40426
283 2 8.20979 9.4654 7.40343
114 2 10.2456 9.83314 3.71788
55 4 8.53794 8.06896 1.92713
154 2 9.68285 10.0588 0.719288
113 2 10.0027 9.23759 5.43075
74 1 9.43972 9.96179 1.78931
231 3 7.94873 7.44968 3.26609
284 2 8.54547 9.00271 5.63763
346 2 2.79561 13.3575 2.29695
279 1 2.47223 13.8709 1.35617
15 4 11.6119 6.96829 4.93832
89 2 2.91442 10.4895 4.31601
228 3 10.4104 6.89078 5.94991
262 3 5.61555 6.54363 16.1926
237 4 9.77556 8.00077 10.9905
324 2 6.38556 13.0775 14.2142
329 2 3.83303 13.1686 12.4684
68 1 5.81492 6.76739 11.5966
273 4 4.32836 6.3818 17.0032
236 4 6.97833 6.82492 15.1685
265 3 8.63647 10.0275 14.4286
235 4 9.3645 11.0709 15.6802
136 2 5.80515 7.94025 11.8585
325 1 8.43475 11.1931 17.1846
145 2 4.03789 9.492 9.63994
144 2 5.15839 7.9729 10.1279
106 2 2.81834 12.7336 9.34079
71 1 4.75167 8.66401 9.24098
350 2 6.2936 11.5017 14.3923
341 2 4.80137 11.1367 12.3609
56 4 3.9664 11.2668 15.1205
76 1 5.8086 11.1909 15.3666
90 2 3.42151 11.1247 11.3751
101 2 6.23977 11.7726 16.2786
159 2 3.51045 12.8968 14.5411
160 2 5.90636 10.0075 15.5073
233 3 3.61812 10.1502 14.0046
234 3 3.37322 11.1252 16.559
239 4 7.25618 11.1573 11.3192
244 1 5.24107 11.9767 11.7076
260 2 5.9611 11.4093 10.0627
261 2 4.5245 12.5644 10.9831
263 3 7.07469 7.947 14.0857
246 2 5.83424 12.7677 12.4356
266 3 7.26835 9.84651 12.0847
254 2 7.28794 7.32599 10.3927
344 2 7.697 12.5202 12.3444
238 4 8.09194 9.0103 13.3449
248 2 8.55497 6.48744 15.7118
242 1 8.12552 7.60905 9.62551
243 1 11.2499 6.74517 10.3384
259 2 8.86931 9.27734 10.0254
264 3 9.2109 7.9428 12.5132
327 2 8.45719 12.6418 15.9464
338 2 8.74996 11.1167 10.2217
345 2 7.58513 10.3687 17.0248
253 2 8.82735 6.6886 9.44991
255 2 7.57788 7.92637 8.70609
216 3 6.48391 13.6055 8.6079
257 2 11.6563 7.11706 9.3038
146 2 5.65238 9.06582 8.55404
ITEM: TIMESTEP
100
ITEM: NUMBER OF ATOMS
350
ITEM: BOX BOUNDS xy xz yz pp pp pp
-6.6536149250656633e+00 1.5235469585769128e+01 -6.6464420301278846e+00
-9.2236853537990759e-01 1.4228599782302123e+01 -9.9033091685488094e-03
-2.1607667323829638e-01 1.7224576673238090e+01 -1.1965687530777740e+00
ITEM: ATOMS id type x y z
7 4 -0.897835 2.85326 3.49327
14 4 0.0573002 5.16174 1.83856
164 3 -1.40146 4.16392 2.69421
166 3 -0.595028 6.26203 0.851425
79 2 -1.63215 4.91994 7.42301
17 4 -0.989204 6.13558 6.36667
78 2 0.0894118 1.88013 5.66474
167 3 -2.25 6.6469 5.4295
77 2 0.629809 3.08418 4.15175
190 3 0.369582 5.43896 5.40727
57 1 0.998377 2.55791 6.04071
105 2 0.805965 3.60688 5.80528
165 3 0.852428 4.02127 1.00214
189 3 0.891233 5.82446 2.97024
26 4 3.98706 2.12042 3.34261
315 1 1.40057 1.34039 0.477336
33 4 1.23488 6.30471 4.46892
29 4 6.63898 1.92218 5.27911
62 1 3.1452 3.76658 3.03591
82 2 3.74263 4.74946 2.96099
117 2 2.32376 3.72815 2.29034
118 2 2.70828 3.68161 4.32332
119 2 4.35665 2.90273 1.78446
182 3 5.44147 2.06104 4.18114
183 3 6.34798 0.229937 6.05263
194 3 2.82356 6.35585 4.84048
195 3 4.99474 5.18313 6.43272
268 1 6.51154 1.81285 1.24913
272 2 5.5524 1.2871 1.15894
180 3 3.10491 0.853872 3.09282
143 2 1.22843 0.715937 6.74345
280 2 4.50604 6.24362 0.513037
318 2 1.09521 1.76874 1.54299
104 2 1.0262 2.49287 7.18571
181 3 3.24452 0.781463 8.40986
103 2 2.02129 2.20771 5.66509
191 3 4.53478 3.10512 8.16093
34 4 5.55514 3.95594 7.275
316 2 2.55372 1.1725 0.334532
9 4 2.47174 -0.231262 7.50342
317 2 0.783219 0.361911 0.26082
18 4 -0.163844 3.18218 12.7072
19 4 -0.460042 5.46999 10.8031
161 3 -0.131554 1.45768 15.9361
170 3 -0.599987 4.06926 11.5212
110 2 -1.58408 5.39924 9.57684
133 2 -0.35611 6.13903 14.4119
168 3 -1.34604 2.76819 13.8161
67 1 0.694801 5.74455 14.5295
132 2 1.23998 5.73635 13.5643
169 3 0.648602 1.90836 12.2843
134 2 0.800852 4.8145 15.1439
193 3 0.922808 5.58231 10.0665
85 2 1.04759 4.05074 13.5834
84 2 2.61752 3.90784 9.2352
8 4 1.09969 1.69182 16.9227
13 4 0.973088 0.521969 11.619
28 4 4.19152 1.80081 9.15268
31 4 3.90872 1.72791 15.1992
35 4 2.42664 5.44519 9.95167
63 1 3.19562 2.58574 10.6516
64 1 4.35829 3.41449 14.4724
83 2 2.22518 0.870553 10.5002
120 2 2.01948 2.70262 10.6477
121 2 3.57163 3.66194 10.884
122 2 3.54921 1.90048 11.4617
123 2 4.41591 3.14207 13.3371
210 3 7.27425 -0.740731 14.6097
125 2 3.32538 3.97252 14.7489
184 3 3.73705 0.607719 13.9036
185 3 5.235 1.59327 16.2005
186 3 2.48549 1.9564 16.1119
187 3 5.38122 1.24264 9.94037
198 3 3.29891 5.51121 11.3115
163 3 1.71507 -0.489558 12.6373
86 2 4.3551 5.31507 13.792
124 2 5.27886 3.78765 14.9496
38 4 4.22364 6.32804 12.3759
200 3 3.13963 6.50857 8.89778
196 3 3.15727 6.09202 15.9517
60 1 -4.54549 9.61792 4.91382
141 2 -3.51223 13.2602 5.2974
142 2 -1.92031 13.5239 6.22936
295 2 -6.01753 13.5951 2.27343
3 2 -2.9224 11.7982 6.57351
70 1 -2.95322 12.9586 6.2852
1 4 -4.14821 13.4619 2.38123
6 3 -3.59033 12.9987 0.87438
16 4 -0.138434 7.91664 0.853255
20 4 -2.3453 10.0375 1.01897
22 4 -0.307594 8.95532 7.12896
39 4 -1.04067 11.6506 3.45939
138 2 -0.677439 12.9101 1.37282
115 2 -2.30218 12.2671 4.54788
285 2 2.55836 7.906 2.41651
171 3 -1.51305 8.66609 0.87178
173 3 -0.510216 7.27918 7.4547
199 3 -1.68255 10.7477 2.35894
202 3 -0.467334 10.1392 8.13703
80 2 -0.575547 9.48847 5.43459
69 1 -0.40138 13.0431 2.40842
111 2 -4.00886 9.65348 1.37263
2 1 -5.38288 12.7146 3.64707
205 3 0.266546 11.1576 4.25673
334 2 -3.96209 11.8605 3.5455
203 3 0.0484605 12.579 8.07302
4 2 -5.26641 13.5654 4.42864
112 2 -3.55875 8.8338 4.6436
139 2 0.738969 13.1752 2.6897
337 2 -4.2028 10.5458 5.3749
174 3 -4.85949 12.5028 8.23333
286 2 1.54371 9.20013 3.61124
252 2 -4.64459 9.71331 6.94172
99 2 0.825549 8.38647 2.15944
87 2 0.726998 7.96058 4.55616
241 1 -4.60972 9.65743 8.20233
61 1 1.14855 9.13771 6.11558
116 2 2.04614 8.58272 5.68421
40 4 3.57579 7.80912 8.14096
42 4 1.62042 11.0192 5.2492
88 2 2.09507 8.76652 7.72439
100 2 1.76154 10.4689 7.08462
278 1 2.55705 8.87439 3.09505
290 3 2.32103 10.9923 1.14313
27 4 0.771105 13.5213 7.01958
140 2 -1.05603 13.8801 2.89955
214 3 1.18808 11.8307 12.293
172 3 -2.26054 9.72621 17.1768
149 2 -3.48955 6.84452 13.5589
213 3 1.7201 9.40816 12.2967
11 4 -3.56007 13.2024 13.2754
45 4 1.89141 10.8116 11.3845
208 3 3.61797 7.7052 12.8831
175 3 -1.03183 6.73081 11.6936
21 4 -2.91809 11.2406 16.9387
258 2 -3.86343 8.6392 10.8697
339 2 -3.7894 12.1027 14.6278
23 4 -4.90568 11.2039 9.17624
24 4 -1.41918 8.10487 12.5797
25 4 -2.40841 11.3265 11.2217
41 4 -0.0863881 11.3992 9.10416
44 4 -0.259647 11.944 15.7672
73 1 -0.463261 10.3846 14.6616
150 2 -1.44639 9.98524 15.0172
151 2 0.43792 9.62024 14.7712
176 3 -4.3859 11.186 15.7739
177 3 -3.91534 11.1327 10.419
178 3 -2.09187 9.90043 11.9505
179 3 -2.56782 12.4633 12.327
204 3 -1.18896 11.7284 10.2676
211 3 -1.79553 12.3032 16.3174
72 1 -2.91722 7.79538 13.8122
81 2 -2.71415 7.93129 14.9362
147 2 -1.0571 7.87624 14.3128
102 2 -0.561032 9.56115 12.1028
152 2 -0.602032 10.9969 13.6918
207 3 1.80451 8.32126 14.8705
148 2 -3.49206 8.72879 13.3838
197 3 0.717973 6.96864 16.9948
43 4 2.68844 8.93018 13.503
37 4 1.65799 6.97214 15.748
209 3 0.71149 11.4597 16.9241
212 3 1.31969 10.9607 9.7466
250 2 -3.70997 9.15325 8.65545
308 2 -3.08334 6.51686 11.1103
229 3 8.05784 6.14513 5.38035
192 3 6.57436 3.05161 6.40532
271 2 6.28068 3.46335 1.41098
331 2 12.5606 0.24663 3.50651
95 2 6.97239 4.78751 3.43354
51 4 7.12944 6.2676 4.15977
130 2 7.68257 4.68526 8.15721
342 2 12.0998 5.60991 8.34601
215 3 8.04347 2.119 4.39173
269 2 7.04278 1.51376 2.21207
219 3 13.2256 2.51058 4.57759
46 4 9.47026 2.34635 3.70034
49 4 11.9343 1.87675 5.47377
50 4 10.7537 4.88698 2.92862
53 4 10.6909 3.67848 7.64599
91 2 9.2577 1.85421 2.08196
94 2 12.2282 4.05966 2.51834
220 3 10.6897 1.45671 4.22744
221 3 12.2016 0.636149 6.38074
222 3 9.84125 3.89742 3.68657
223 3 11.1394 6.2886 3.52516
225 3 10.1223 5.11438 1.35943
227 3 11.3304 3.12338 6.31998
230 3 9.55934 4.86089 7.28956
217 3 8.38848 0.577569 7.70346
294 4 13.3034 0.949161 1.47156
297 3 12.3165 1.95037 0.703703
52 4 9.31123 5.81957 0.176402
54 4 9.21709 6.16198 6.53269
270 2 7.47323 1.24392 -0.0539163
288 2 8.13684 0.686684 1.4211
224 3 5.55986 6.78959 4.4161
296 3 14.4131 1.57966 2.382
36 4 4.52257 6.48913 5.60743
347 2 10.0341 0.575085 0.837092
97 2 13.1513 3.94045 8.26698
226 3 10.2901 2.35646 8.47041
162 3 14.935 -0.0855544 10.8706
128 2 6.64766 3.25049 12.7058
137 2 6.09099 6.36669 10.5896
131 2 6.67816 4.26517 9.75637
93 2 11.2713 -0.269119 9.42057
12 4 13.8141 1.45315 14.8214
65 1 6.69371 3.37059 11.5881
267 4 6.56427 1.75131 17.0974
321 2 13.8338 2.17993 9.49456
249 2 6.76947 5.01347 13.9267
127 2 7.59513 3.90399 11.103
240 1 7.71926 5.25647 14.6203
245 2 7.77215 4.49682 15.4181
310 2 11.6126 5.25185 16.95
218 3 8.14932 1.85695 10.0085
107 2 9.92285 -0.284751 10.8276
323 1 13.7551 -0.235384 13.8089
256 2 10.4677 5.91402 10.4153
135 2 6.5103 6.07949 12.5157
303 2 7.95006 0.685107 15.0672
247 2 8.78776 5.26355 14.0079
96 2 10.2034 5.78088 15.7741
129 2 6.34868 5.82864 8.65482
298 4 11.636 1.71398 16.8776
312 3 10.1324 1.30614 16.5719
126 2 5.72666 3.85545 11.2623
320 2 12.6739 2.62142 11.2325
336 2 10.9319 4.11697 15.6379
313 3 8.05621 3.21659 16.8674
109 2 12.0304 4.26672 9.69789
319 1 12.3498 1.74843 10.6138
348 2 9.45177 0.686964 12.0847
10 4 13.7151 0.452971 9.90956
48 4 9.12709 1.25393 8.89505
58 1 10.129 -0.318242 9.65939
299 4 8.9882 1.94146 15.6344
300 4 10.4012 3.31514 13.2405
301 1 10.594 5.23415 13.1492
302 1 10.6809 4.8774 16.3956
304 2 9.20061 4.26212 12.2763
305 2 11.889 4.53573 13.8409
306 2 11.2056 2.20419 12.1907
307 2 10.8553 5.77549 12.1574
309 2 10.1156 6.00499 13.8502
311 3 12.4744 1.44774 15.5831
314 3 9.58162 2.66463 14.3916
322 2 12.012 0.68279 11.328
349 2 10.0373 0.342528 13.8098
328 1 9.66643 -0.202815 12.8214
108 2 11.5949 2.04522 9.86953
343 2 13.6968 0.106944 12.7541
59 1 12.192 4.4351 8.65275
66 1 6.67815 4.77705 8.6852
32 4 6.85615 1.57656 10.9109
324 2 12.8162 -0.703845 14.1878
188 3 7.17129 0.590777 12.1843
340 2 11.7883 3.42299 17.1055
157 2 10.1952 8.56689 2.62097
156 2 8.65833 10.9615 6.33018
281 2 4.44915 13.8023 2.01757
325 1 8.52949 12.2904 -0.195523
47 4 5.64658 13.3373 7.30438
155 2 9.59636 10.9737 2.56828
92 2 4.05078 12.9969 7.86652
201 3 4.45382 7.66113 6.76057
206 3 1.86604 12.3406 6.01908
274 4 3.44462 9.86081 1.5678
276 4 5.77576 11.526 2.9343
277 4 7.03099 11.059 5.74588
282 2 4.75013 12.7289 3.76703
98 2 8.51675 7.06825 7.78994
289 3 3.85289 8.69113 0.569316
5 2 9.15367 11.9516 4.00919
291 3 4.72482 10.6265 2.17509
292 3 6.84683 11.1962 4.14954
293 3 6.10327 11.9796 6.63306
330 1 5.61523 13.7391 2.37618
333 2 6.63498 12.3793 1.58064
332 2 7.4137 13.6668 0.348894
275 4 2.27866 12.3662 0.301303
153 2 7.76561 9.91036 1.69734
251 2 9.60332 9.07501 8.49585
75 1 7.59159 9.32461 6.43055
158 2 6.58658 8.83671 5.8811
283 2 7.63488 9.04387 7.54331
114 2 10.1809 9.83369 3.8883
55 4 8.54386 8.06306 1.9418
154 2 9.65936 10.2394 0.859736
113 2 9.89103 9.03825 5.58443
74 1 9.37444 10.034 1.94856
231 3 7.71926 7.35904 3.10076
284 2 8.49116 8.93623 5.85101
346 2 2.77522 13.3839 2.33388
279 1 2.54682 13.9863 1.36463
15 4 11.5669 7.01102 4.90378
89 2 2.98543 10.3835 4.26202
228 3 10.5554 6.83178 6.16974
287 2 3.44687 8.81865 3.78905
232 3 8.71032 7.29333 0.552134
326 2 9.36952 12.2317 0.507684
262 3 5.63371 6.71328 16.2243
237 4 9.78478 7.9362 11.1378
30 4 1.12984 13.2878 12.9923
329 2 3.77435 12.968 12.4193
68 1 5.8968 6.73863 11.6392
273 4 4.31901 6.4081 16.9786
236 4 6.83552 6.88997 15.1649
265 3 8.54912 10.0266 14.5359
235 4 9.19943 11.0365 15.5726
136 2 5.9873 7.92261 11.7395
146 2 5.54495 9.11043 8.64523
145 2 3.95435 9.46097 9.64603
144 2 5.18985 7.90533 10.1397
106 2 2.90708 12.7552 9.2057
71 1 4.76041 8.63225 9.30428
350 2 6.38471 11.2285 14.321
341 2 4.96117 11.0374 12.2083
56 4 4.08436 11.2514 15.0208
76 1 5.89315 10.8538 15.2625
90 2 3.58921 11.1976 11.3205
101 2 6.4871 11.1035 16.1899
159 2 3.87277 12.8561 14.3859
160 2 5.79408 9.69429 15.1933
233 3 3.56184 10.2597 13.9497
234 3 3.36217 11.2696 16.5459
239 4 7.30303 11.0778 11.3489
244 1 5.39118 11.9323 11.633
260 2 6.09543 11.0057 10.059
261 2 4.64841 12.5472 10.9086
263 3 6.8805 8.04965 14.1636
246 2 5.95591 12.7012 12.3107
266 3 7.3035 9.74758 12.1539
254 2 7.27282 7.41666 10.3172
344 2 7.67228 12.4108 12.4858
238 4 7.96982 9.01466 13.3925
248 2 8.45526 6.66716 15.7735
242 1 8.094 7.78986 9.60655
243 1 11.2543 6.75673 10.4341
259 2 8.86201 9.25729 10.14
264 3 9.29837 8.0375 12.6682
327 2 8.18639 12.4874 16.111
338 2 8.79616 11.177 10.13
335 2 8.06389 13.0604 14.0622
253 2 8.88498 6.86312 9.40988
255 2 7.60006 8.1323 8.65041
216 3 6.54379 13.6121 8.67164
257 2 11.5544 7.00839 9.38253
345 2 7.87017 10.0465 17.2136
ITEM: TIMESTEP
200
ITEM: NUMBER OF ATOMS
350
ITEM: BOX BOUNDS xy xz yz pp pp pp
-6.6536149250656633e+00 1.5235469585769128e+01 -6.6464420301278846e+00
-9.2236853537990759e-01 1.4228599782302123e+01 -9.9033091685488094e-03
-2.1607667323829638e-01 1.7224576673238090e+01 -1.1965687530777740e+00
ITEM: ATOMS id type x y z
7 4 -0.971713 2.7626 3.50153
14 4 0.196741 5.13781 2.03019
164 3 -1.30679 4.2998 2.80566
166 3 -0.456397 6.26152 1.07168
79 2 -1.81921 4.75026 7.17738
17 4 -1.02271 5.97817 6.30723
78 2 -0.0184328 1.95877 5.79148
167 3 -2.11467 6.60515 5.24128
77 2 0.559539 2.7975 4.27137
190 3 0.443847 5.47451 5.63303
57 1 0.886656 2.52848 6.25157
105 2 0.849199 3.66224 5.9598
165 3 0.992444 4.02607 1.04018
189 3 1.18732 5.79531 3.09345
26 4 3.96403 2.11525 3.2793
315 1 1.54063 1.06786 0.202707
33 4 1.3852 6.3407 4.64656
9 4 2.44968 -0.246329 7.57253
62 1 3.07361 3.77725 3.03898
82 2 3.64146 4.69826 3.15512
117 2 2.26191 3.81529 2.18446
118 2 2.57427 3.44326 4.27439
119 2 4.23885 2.98295 1.73992
182 3 5.28413 1.99853 4.16105
183 3 6.52242 0.237274 5.8045
194 3 2.92222 6.21799 5.124
195 3 4.90767 5.03414 6.38159
268 1 6.47529 1.80195 1.11639
272 2 5.47321 1.26761 1.27412
180 3 3.22607 0.78173 2.90525
143 2 1.12074 0.634423 6.78775
280 2 4.31117 6.15048 0.393746
318 2 1.46717 1.36658 1.3738
104 2 0.814489 2.49519 7.42361
181 3 3.42165 0.793692 8.35123
103 2 1.82838 2.03727 5.96022
191 3 4.69233 3.08061 8.21554
36 4 4.38828 6.41766 5.65257
316 2 2.68099 0.923691 -0.107557
29 4 6.68109 1.73048 5.22845
18 4 -0.228051 3.29361 12.5632
19 4 -0.533895 5.62508 10.7512
161 3 -0.0912345 1.36056 15.9578
170 3 -0.787509 4.27608 11.5118
110 2 -1.6249 5.55669 9.42261
133 2 -0.578803 6.02306 14.6204
168 3 -1.30128 2.85384 13.6855
67 1 0.483748 5.66115 14.5176
132 2 0.997654 5.85793 13.5151
169 3 0.529466 1.99482 12.0739
134 2 0.6089 4.61066 15.0052
193 3 0.884166 5.66847 10.1825
85 2 1.0367 4.14014 13.4087
84 2 2.81156 4.01807 9.39325
8 4 1.2183 1.55514 17.0023
13 4 0.964361 0.537191 11.6109
28 4 4.44813 1.77809 9.15464
31 4 3.97949 1.8199 15.1232
35 4 2.43316 5.60452 9.93837
63 1 3.30362 2.49375 10.5813
64 1 3.95794 3.37193 14.0094
83 2 2.13285 0.88161 10.4349
120 2 2.14391 2.46946 10.4722
121 2 3.76939 3.52808 10.75
122 2 3.73025 1.69815 11.4167
123 2 3.76043 3.01057 12.9613
210 3 7.30742 -0.643176 14.6411
125 2 3.06611 3.96407 14.5973
184 3 3.77388 0.684514 13.9846
185 3 5.25534 1.8659 16.1658
186 3 2.47381 1.87539 16.0671
187 3 5.77015 1.37028 9.84345
198 3 3.19743 5.71072 11.3666
163 3 1.72091 -0.394897 12.7592
86 2 4.09304 5.30074 13.8647
124 2 4.97529 3.78249 14.1696
38 4 4.10083 6.35144 12.4412
126 2 5.45125 3.7866 11.142
11 4 3.10698 -0.654271 13.4131
287 2 3.17298 8.6502 3.77067
141 2 -3.89437 13.3701 5.35389
142 2 -1.97927 13.5682 6.02621
295 2 -6.03212 13.5869 2.29747
3 2 -3.06501 11.9967 6.44401
70 1 -3.04613 13.1291 6.14268
1 4 -4.16044 13.3505 2.45852
6 3 -3.63937 12.8616 0.979219
16 4 -0.171371 7.81731 0.864114
20 4 -2.41037 9.95223 1.03526
22 4 -0.353792 8.81503 7.0979
39 4 -1.11521 11.7287 3.39423
138 2 -0.12457 12.9916 1.39874
115 2 -2.3595 12.3731 4.4535
285 2 2.33897 7.93715 2.34456
171 3 -1.5324 8.65119 0.798116
173 3 -0.757435 7.13225 7.35432
199 3 -1.92141 10.7465 2.43656
202 3 -0.695138 9.96651 8.33265
80 2 -0.655126 9.44284 5.58881
69 1 -0.37613 13.1644 2.4392
111 2 -4.03035 9.34989 1.27039
2 1 -5.7395 12.6044 3.51217
205 3 0.149745 11.1788 4.20705
334 2 -4.20091 11.905 3.65843
203 3 0.171945 12.5854 8.13723
4 2 -5.76049 13.3229 4.45428
112 2 -3.80978 8.96956 4.85107
139 2 0.565144 13.4839 3.05489
337 2 -4.41871 10.8074 5.17558
174 3 -4.91659 12.5171 8.39057
286 2 1.59884 9.45231 3.08808
252 2 -4.57221 9.89672 6.96732
99 2 0.695958 8.46339 2.15139
87 2 0.838109 7.97807 4.76115
241 1 -4.56246 9.84429 8.13095
61 1 1.21552 9.24296 6.22479
116 2 2.07673 8.82011 5.6205
40 4 3.63217 7.98963 8.17718
42 4 1.5269 11.013 5.13817
88 2 2.26028 9.00344 7.86152
100 2 1.69266 10.4549 7.16683
278 1 2.50438 8.86783 2.903
317 2 -5.84599 14.1958 -0.0325208
27 4 0.990351 13.4487 6.92633
140 2 -1.31396 13.8798 2.66962
214 3 1.376 12.0842 12.3492
172 3 -2.45304 9.58003 17.1303
212 3 1.36178 10.9062 9.73886
213 3 1.65809 9.38828 12.0134
149 2 -3.49589 6.85373 13.6881
45 4 1.90459 10.8342 11.4317
257 2 -3.26907 7.20644 9.82881
175 3 -0.971473 6.75976 11.8264
21 4 -2.98781 11.1394 17.0066
258 2 -3.88768 8.75442 10.8326
339 2 -3.83929 12.4235 14.8614
23 4 -4.86631 11.2489 9.31538
24 4 -1.36296 8.0845 12.6459
25 4 -2.28911 11.2903 11.2753
41 4 -0.0672694 11.2912 9.16607
44 4 -0.299481 11.9631 15.7269
73 1 -0.425858 10.4911 14.5887
150 2 -1.4764 10.0746 14.9085
151 2 0.304525 9.58659 14.599
176 3 -4.38842 11.1603 15.7568
177 3 -3.58801 11.2507 10.3385
178 3 -1.86993 9.85019 11.9175
179 3 -2.58692 12.3551 12.6072
204 3 -1.14341 11.691 10.2475
211 3 -1.79661 12.1144 16.387
72 1 -2.90027 7.8288 13.9639
81 2 -2.75417 7.99433 15.0616
147 2 -1.06541 7.90161 14.4436
102 2 -0.287388 9.42928 12.1995
152 2 -0.393549 11.1395 13.5574
207 3 1.52559 8.219 14.7454
148 2 -3.44384 8.71645 13.4867
197 3 0.773541 6.87767 17.0148
43 4 2.58312 8.86995 13.429
37 4 1.58703 6.86977 15.6321
209 3 0.789028 11.6264 16.7837
208 3 3.59615 7.7638 12.8699
200 3 3.11361 6.68688 8.90669
196 3 3.10146 6.16002 15.8095
308 2 -3.25173 6.46625 11.5106
250 2 -3.58784 9.4895 8.51147
229 3 7.97834 6.22725 5.49214
192 3 6.74205 2.91931 6.37821
269 2 7.09662 1.64024 1.99202
331 2 12.4646 0.107671 3.25996
95 2 7.109 4.86313 3.5587
51 4 7.05928 6.39764 4.26307
130 2 7.78152 4.60836 8.25203
342 2 12.073 5.5972 8.19704
215 3 8.06242 1.88024 4.28235
347 2 10.1735 0.465725 0.751477
219 3 13.2474 2.26306 4.58111
46 4 9.37192 2.38843 3.63631
49 4 11.9307 1.88015 5.35547
50 4 10.6538 5.02987 2.90815
53 4 10.6381 3.60971 7.60297
91 2 9.2155 1.7702 2.03689
94 2 12.2294 4.3938 3.04064
220 3 10.6479 1.65865 4.33665
221 3 12.1766 0.491585 6.24816
222 3 9.65523 3.9579 3.54592
223 3 10.9353 6.38452 3.64817
225 3 10.3457 5.22543 1.38561
227 3 11.4895 3.26991 6.25843
230 3 9.41548 4.66547 7.35805
217 3 8.57278 0.632395 7.53927
294 4 13.2428 0.98411 1.27443
297 3 12.2303 2.0267 0.741642
52 4 9.47769 5.79627 0.158168
54 4 9.12946 6.14634 6.56429
340 2 11.9843 4.55112 -0.156337
288 2 8.17533 0.71026 1.24325
224 3 5.50584 6.9005 4.54208
296 3 14.3714 1.55324 2.32173
34 4 5.66875 3.89801 7.30729
228 3 10.631 6.78664 6.27929
232 3 8.79386 7.16351 0.510563
270 2 7.29201 1.24889 -0.0767734
271 2 6.01785 3.59858 1.31078
162 3 14.9524 -0.0367114 10.8353
128 2 6.37253 3.20875 12.7471
137 2 5.64584 6.14211 10.4894
131 2 6.66236 4.23782 9.75751
93 2 11.1216 -0.287703 9.60016
12 4 13.8606 1.49148 14.8445
65 1 6.38936 3.40943 11.6176
267 4 6.49082 1.81867 17.1175
321 2 13.9411 2.23354 9.62422
249 2 6.7462 4.93013 13.7992
127 2 7.32586 4.01697 11.4635
240 1 7.64682 5.11845 14.5858
245 2 7.65989 4.33802 15.483
310 2 11.9846 5.06233 16.963
218 3 8.33262 1.82558 10.0667
107 2 9.80884 -0.139219 10.9171
323 1 13.7823 -0.0987525 13.747
256 2 10.5407 6.05708 10.2507
135 2 6.47349 6.00131 12.1688
303 2 7.95638 0.666215 15.2942
247 2 8.73014 5.15219 14.0658
96 2 10.4978 5.87599 16.0498
129 2 6.33847 5.72975 8.63618
298 4 11.6202 1.63828 16.9887
312 3 10.0107 1.35701 16.7122
216 3 13.1762 -0.158872 8.566
320 2 12.6068 2.67855 11.455
336 2 11.0653 3.99296 15.6778
313 3 8.07166 3.30577 16.8904
109 2 11.498 4.61786 9.75489
319 1 12.4107 1.77149 10.7556
348 2 9.41787 1.02538 12.328
10 4 13.7122 0.545545 9.88917
48 4 9.19547 1.1899 8.86827
58 1 9.99629 -0.333572 9.80859
299 4 8.94095 1.99996 15.7097
300 4 10.2038 3.32676 13.148
301 1 10.6268 5.19977 13.3614
302 1 10.9886 4.83411 16.4561
304 2 9.25457 4.64795 12.2854
305 2 11.8833 4.19864 13.8231
306 2 10.8722 2.2694 11.9111
307 2 10.8809 5.76865 12.4228
309 2 10.2346 5.82201 14.2231
311 3 12.5158 1.44495 15.6883
314 3 9.45571 2.69627 14.3908
322 2 12.0695 0.742694 11.3886
349 2 10.0964 0.438765 13.9825
328 1 9.68582 0.0701506 13.0346
108 2 11.5936 2.00477 9.89045
343 2 13.4128 0.28207 12.7333
59 1 12.0053 4.60936 8.65433
66 1 6.74486 4.70157 8.68576
32 4 6.95094 1.68489 10.8626
335 2 14.8663 -0.421625 13.8294
188 3 7.07258 0.572885 12.125
226 3 10.3872 2.39802 8.60177
30 4 7.83008 -0.489691 13.0901
97 2 12.9568 4.0157 8.71553
157 2 10.1724 8.59433 2.62777
156 2 8.69525 10.8049 6.31597
281 2 4.483 13.6569 1.87358
290 3 2.4804 11.1139 0.939955
47 4 5.64071 13.3218 7.3864
155 2 9.48637 10.8841 2.46776
92 2 4.09708 13.0504 8.02207