ITEM: TIMESTEP
0
ITEM: NUMBER OF ATOMS
350
ITEM: BOX BOUNDS xy xz yz pp pp pp
-6.8611178140611306e+00 1.5387796977484511e+01 -6.8538458860316664e+00
-9.2236853537990759e-01 1.4228599782302123e+01 -1.0002342260234297e-02
-2.1607667323829638e-01 1.7224576673238090e+01 -1.1965687530777740e+00
ITEM: ATOMS id type x y z
7 4 -0.954431 2.81443 3.51659
14 4 0.0390825 5.21121 1.83326
164 3 -1.3547 4.14213 2.64176
166 3 -0.620722 6.38143 0.912119
79 2 -1.81582 4.71326 7.33457
17 4 -1.06511 5.9726 6.35723
78 2 0.0844286 1.90241 6.20501
167 3 -2.26309 6.66697 5.46633
77 2 0.625635 2.93636 4.18064
190 3 0.264392 5.38719 5.64556
57 1 1.02372 2.51715 6.11329
105 2 0.675669 3.71712 5.91604
165 3 1.02737 4.27437 0.894917
189 3 0.873117 5.97136 2.95795
26 4 4.07765 2.28855 3.35516
315 1 1.58326 1.36009 0.231218
33 4 1.18948 6.26797 4.54093
270 2 7.28835 1.00884 -0.0403903
62 1 3.15106 3.92428 2.97804
82 2 3.89271 4.78482 2.9666
117 2 2.36891 4.10283 2.19602
118 2 2.55552 3.77965 4.10153
119 2 4.45802 3.09458 1.81586
182 3 5.30513 2.29618 4.40415
183 3 6.4572 0.427332 5.86695
194 3 2.77592 6.298 4.78489
195 3 4.65337 5.00455 6.33435
268 1 6.56321 1.816 1.40634
272 2 5.50892 1.35866 1.54381
180 3 3.39066 0.91889 2.99358
143 2 1.05724 0.573811 6.60828
280 2 4.56434 6.10934 0.344532
318 2 1.41521 1.82036 1.37036
104 2 1.66368 2.46577 7.07535
181 3 3.2894 0.721435 8.19779
103 2 1.66514 2.17348 5.20633
191 3 4.4965 3.12581 8.30301
36 4 4.35848 6.36142 5.48446
316 2 2.71284 1.25917 0.0486342
34 4 5.50964 3.95869 7.40367
317 2 1.02025 0.362289 0.0196263
18 4 -0.0589335 3.11147 12.7234
19 4 -0.605148 5.43327 10.8872
161 3 -0.224926 1.58778 15.9412
170 3 -0.698177 4.05276 11.5755
110 2 -1.56314 5.27158 9.44635
133 2 -0.364569 6.07335 14.3846
168 3 -1.22814 2.69376 13.6925
67 1 0.717343 5.74997 14.4789
132 2 1.3359 5.83745 13.5243
169 3 0.690284 1.82496 12.1409
134 2 0.787136 4.82162 15.0612
193 3 0.856856 5.69025 10.4394
85 2 1.14179 4.00999 13.5595
84 2 2.31619 3.92436 9.44386
8 4 1.15232 1.78611 16.8753
13 4 0.997172 0.305079 11.5554
28 4 4.20989 1.75764 9.08576
31 4 3.9205 1.77741 15.2853
35 4 2.38022 5.53248 10.0397
63 1 3.00411 2.40337 10.5146
64 1 4.38912 3.44851 14.423
83 2 2.28134 0.47142 10.4659
120 2 1.94437 2.21922 10.1821
121 2 3.23646 3.53488 10.8952
122 2 3.37149 1.63624 11.3011
123 2 4.30877 3.18104 13.3266
210 3 7.45969 -0.743209 14.6699
125 2 3.52274 4.06613 14.86
184 3 3.70674 0.605589 14.0584
185 3 5.2475 1.59615 16.2913
186 3 2.535 2.10998 16.2305
187 3 5.42894 1.38991 9.95459
198 3 3.33411 5.59455 11.2948
188 3 6.92523 0.463988 12.3411
86 2 4.57701 5.28973 13.8195
308 2 -3.32371 6.31134 10.9887
126 2 5.48284 3.79487 11.1071
200 3 2.93404 6.54283 8.76434
60 1 -4.65037 9.66288 4.7643
141 2 -3.71668 12.7456 5.33281
142 2 -2.08231 13.5227 6.2386
295 2 -6.04903 13.5956 2.21188
3 2 -2.86592 11.885 6.81785
70 1 -3.07644 12.8929 6.28316
1 4 -4.14953 13.4096 2.47599
6 3 -3.57751 12.9464 1.10461
16 4 -0.268964 7.96828 0.720419
20 4 -2.41252 10.093 1.08785
22 4 -0.428442 8.89951 7.11281
39 4 -1.07847 11.6779 3.55953
138 2 -1.14836 13.0354 1.63663
115 2 -2.35425 12.3869 4.52138
285 2 2.25098 7.96221 2.42962
171 3 -1.62473 8.75256 0.914481
173 3 -0.671894 7.29872 7.30928
199 3 -1.79563 10.8712 2.37238
202 3 -0.834361 10.0011 8.15453
80 2 -0.509056 9.37902 5.35377
69 1 -0.546311 13.2104 2.67749
111 2 -4.03803 9.58542 1.4508
2 1 -5.57061 12.6032 3.55924
205 3 0.180335 11.2003 4.35346
334 2 -4.0602 11.8131 3.67919
203 3 0.0378846 12.5721 7.99197
4 2 -5.57321 13.2793 4.40399
112 2 -3.54132 8.81222 4.55796
139 2 0.616902 13.4865 2.35594
337 2 -4.27444 10.636 5.21443
174 3 -5.16212 12.4589 8.26589
286 2 1.39261 9.35135 3.49127
252 2 -4.6905 9.8904 6.821
99 2 0.673878 8.46114 2.11449
87 2 0.739311 7.91048 4.85768
241 1 -4.74472 9.74904 8.06125
61 1 1.11684 9.26419 6.24815
116 2 2.07633 8.70948 5.86741
40 4 3.56875 7.79084 8.01721
42 4 1.53856 11.1156 5.18204
88 2 2.31036 8.99887 7.80441
100 2 1.59521 10.7343 7.12302
278 1 2.34426 8.90496 3.09156
290 3 2.21815 10.9764 1.1563
287 2 3.2422 8.79303 3.84155
140 2 -1.10689 13.9545 3.44273
9 4 -4.44177 13.6675 7.31845
27 4 0.746916 13.5548 6.91508
214 3 1.06928 12.025 12.2065
163 3 -5.2727 13.2908 12.736
149 2 -3.53416 6.64712 13.6598
213 3 1.5107 9.34572 12.0475
196 3 2.97542 6.19369 16.1244
45 4 1.67155 10.7777 11.3608
208 3 3.4656 7.63882 13.0957
175 3 -1.07029 6.69912 11.6785
21 4 -3.03783 11.3755 17.0912
258 2 -3.88612 8.5855 10.8403
339 2 -3.73025 12.025 14.4936
23 4 -5.12459 11.1266 9.19821
24 4 -1.50854 8.03984 12.5273
25 4 -2.47056 11.3848 11.1029
41 4 -0.298289 11.3254 8.91325
44 4 -0.300231 11.841 15.7385
73 1 -0.499883 10.4562 14.5534
150 2 -1.50994 9.98447 14.8837
151 2 0.41215 9.68581 14.6689
176 3 -4.45697 11.2794 15.8286
177 3 -3.86278 11.0894 10.2103
178 3 -2.10616 9.84785 11.8015
179 3 -2.71347 12.6792 12.119
204 3 -1.50079 11.6629 9.97959
211 3 -1.90195 12.2599 16.3461
72 1 -2.84092 7.53542 13.9646
81 2 -2.38978 7.33532 14.9525
147 2 -0.98216 8.06747 14.196
102 2 -0.631743 9.51758 11.9467
152 2 -0.450767 10.8411 13.4191
207 3 1.74055 8.49104 14.7469
148 2 -3.42222 8.53413 13.8812
197 3 0.520275 7.16277 16.8646
43 4 2.62755 8.93571 13.4642
37 4 1.64672 7.06033 15.6615
209 3 0.689409 11.4448 17.0159
212 3 1.18014 10.8889 9.75775
11 4 -3.70057 13.2058 13.2891
38 4 4.0983 6.38663 12.497
250 2 -3.81262 9.32563 8.52157
172 3 -2.58659 9.76712 17.2098
229 3 8.13277 5.93793 5.4722
192 3 6.50384 3.10035 6.50102
271 2 6.54127 3.46761 1.4587
331 2 12.4604 0.302892 3.24432
95 2 7.39826 4.96892 3.24948
51 4 7.23713 6.30336 4.20759
130 2 7.74903 4.83135 8.21321
342 2 12.0585 5.41833 8.37656
215 3 8.13091 2.06359 4.49425
269 2 7.14373 1.59874 2.28248
219 3 13.4522 2.40514 4.72262
46 4 9.57358 2.35943 3.86696
49 4 12.0952 1.94411 5.41006
50 4 10.8834 4.96575 2.8416
53 4 10.684 3.65652 7.59986
91 2 9.44888 1.6483 2.29136
94 2 12.3685 4.21765 2.55941
220 3 10.7796 1.48142 4.32919
221 3 12.4435 0.581374 6.3061
222 3 10.0628 3.81055 3.49653
223 3 11.328 6.24001 3.63609
225 3 10.0208 5.16872 1.54491
227 3 11.5546 3.23859 6.34619
230 3 9.58193 4.87257 7.5176
217 3 8.56047 0.691351 7.57544
294 4 13.5155 1.02458 1.33896
297 3 12.414 2.00771 0.664039
52 4 9.3176 5.74583 0.189246
54 4 9.2181 6.06061 6.54873
232 3 8.54414 7.10955 0.563766
288 2 8.20924 0.701131 1.4062
224 3 5.63663 6.64964 4.49682
296 3 14.4368 1.60387 2.39398
29 4 6.68525 1.96325 5.3273
347 2 10.0842 0.368992 0.838094
97 2 13.1127 3.74559 8.1982
310 2 11.8377 6.06973 -0.185012
162 3 15.0876 -0.0573822 10.6895
128 2 6.56185 3.15004 12.661
30 4 7.89592 -0.604346 13.0533
131 2 6.62009 4.33271 9.71016
321 2 14.0815 2.14787 9.33917
12 4 13.9522 1.45695 14.8636
65 1 6.47952 3.40491 11.5126
137 2 6.02534 6.50941 10.5073
226 3 10.2631 2.45197 8.7651
249 2 6.79332 4.99898 13.7323
127 2 7.42765 3.96001 11.2704
240 1 7.68483 5.21667 14.4898
245 2 7.70989 4.41595 15.3176
93 2 11.1719 -0.084321 9.51861
218 3 8.1158 1.56848 10.1449
107 2 9.87286 -0.149302 10.9421
323 1 13.9584 -0.149933 13.7616
256 2 10.272 5.95682 10.2977
340 2 11.804 3.25376 17.2117
303 2 7.93651 0.678999 15.232
247 2 8.78309 5.18309 13.88
96 2 10.5968 5.93943 16.2376
129 2 6.28044 5.922 8.64874
298 4 11.7014 1.55327 16.886
312 3 9.99711 1.11879 16.8557
335 2 15.0363 -0.485648 13.9498
320 2 13.1162 2.48989 11.1539
336 2 10.8835 4.00023 15.7764
313 3 7.98869 3.21623 16.9064
109 2 12.0709 4.0925 9.91174
319 1 12.5314 1.66287 10.5563
348 2 9.49389 0.877144 12.2812
10 4 13.8979 0.499528 9.76561
48 4 9.15132 1.25687 8.95499
58 1 10.0465 -0.270943 9.76644
299 4 9.02569 1.90671 15.8142
300 4 10.5372 3.23841 13.1472
301 1 10.606 5.15635 13.045
302 1 10.8628 4.8524 16.6063
304 2 9.31872 4.21709 12.1203
305 2 12.0682 4.2625 13.5126
306 2 11.291 2.12156 12.0149
307 2 10.8268 5.78545 12.0507
309 2 10.2001 5.74319 13.9013
311 3 12.4563 1.29595 15.508
314 3 9.79756 2.64606 14.4266
322 2 12.183 0.762624 11.3081
349 2 10.0717 0.318506 14.001
328 1 9.74117 -0.0257648 12.9571
108 2 11.6125 2.04565 9.86537
343 2 13.7813 0.156157 12.7015
59 1 12.2374 4.29636 8.68616
66 1 6.70582 4.85407 8.65361
32 4 6.7323 1.6054 10.8989
135 2 6.43984 6.09693 12.3299
267 4 6.5763 1.54913 17.1668
124 2 5.45008 3.8346 14.7758
157 2 10.3424 8.54763 2.43207
156 2 8.62149 11.1959 6.10482
281 2 4.32427 13.8513 1.89443
251 2 9.58109 9.1793 8.34549
47 4 5.57962 13.2816 7.31573
155 2 9.67368 10.9577 2.4157
92 2 4.01127 13.153 8.02114
201 3 4.33753 7.58625 6.61222
206 3 1.75289 12.489 5.8724
274 4 3.41799 9.85571 1.65263
276 4 5.52684 11.6829 3.03158
277 4 6.89559 11.0762 5.72821
282 2 4.52129 12.9762 3.72814
98 2 8.3964 7.03802 7.72579
289 3 3.92791 8.71842 0.620204
5 2 8.88718 11.8732 3.63774
291 3 4.54351 10.5617 2.52884
292 3 6.67808 11.2528 4.17412
293 3 6.01351 11.9058 6.70814
330 1 5.43534 13.8091 2.18959
333 2 6.44087 12.4044 1.57779
332 2 7.59661 14.0464 0.166398
275 4 2.07923 12.2561 0.17884
153 2 7.73174 9.85968 1.62942
326 2 9.25082 12.0995 0.522922
75 1 7.78846 9.48553 6.39896
158 2 6.72938 8.93806 6.40426
283 2 8.19375 9.4654 7.40343
114 2 10.2487 9.83314 3.71788
55 4 8.54308 8.06896 1.92713
154 2 9.68018 10.0588 0.719288
113 2 10.0082 9.23759 5.43075
74 1 9.43485 9.96179 1.78931
231 3 7.95331 7.44968 3.26609
284 2 8.53868 9.00271 5.63763
346 2 2.68966 13.3575 2.29695
279 1 2.35851 13.8709 1.35617
15 4 11.6568 6.96829 4.93832
89 2 2.83722 10.4895 4.31601
228 3 10.4433 6.89078 5.94991
262 3 5.59699 6.54363 16.1926
237 4 9.78748 8.00077 10.9905
324 2 6.31008 13.0775 14.2142
329 2 3.73231 13.1686 12.4684
68 1 5.79927 6.76739 11.5966
273 4 4.29799 6.3818 17.0032
236 4 6.97126 6.82492 15.1685
265 3 8.61415 10.0275 14.4286
235 4 9.33805 11.0709 15.6802
136 2 5.77738 7.94025 11.8585
325 1 8.39673 11.1931 17.1846
145 2 3.97831 9.492 9.63994
144 2 5.12502 7.9729 10.1279
106 2 2.71403 12.7336 9.34079
71 1 4.70787 8.66401 9.24098
350 2 6.23299 11.5017 14.3923
341 2 4.73093 11.1367 12.3609
56 4 3.88438 11.2668 15.1205
76 1 5.7456 11.1909 15.3666
90 2 3.33807 11.1247 11.3751
101 2 6.17457 11.7726 16.2786
159 2 3.40781 12.8968 14.5411
160 2 5.85619 10.0075 15.5073
233 3 3.54468 10.1502 14.0046
234 3 3.2857 11.1252 16.559
239 4 7.2108 11.1573 11.3192
244 1 5.167 11.9767 11.7076
260 2 5.9011 11.4093 10.0627
261 2 4.43783 12.5644 10.9831
263 3 7.058 7.947 14.0857
246 2 5.7576 12.7677 12.4356
266 3 7.2358 9.84651 12.0847
254 2 7.28222 7.32599 10.3927
344 2 7.64155 12.5202 12.3444
238 4 8.07521 9.0103 13.3449
248 2 8.5667 6.48744 15.7118
242 1 8.12584 7.60905 9.62551
243 1 11.2897 6.74517 10.3384
259 2 8.85995 9.27734 10.0254
264 3 9.2167 7.9428 12.5132
327 2 8.40562 12.6418 15.9464
338 2 8.72069 11.1167 10.2217
345 2 7.54705 10.3687 17.0248
253 2 8.84411 6.6886 9.44991
255 2 7.57016 7.92637 8.70609
216 3 6.40796 13.6055 8.6079
257 2 11.6971 7.11706 9.3038
146 2 5.614 9.06582 8.55404
ITEM: TIMESTEP
100
ITEM: NUMBER OF ATOMS
350
ITEM: BOX BOUNDS xy xz yz pp pp pp
-6.8611178140611306e+00 1.5387796977484511e+01 -6.8538458860316664e+00
-9.2236853537990759e-01 1.4228599782302123e+01 -1.0002342260234297e-02
-2.1607667323829638e-01 1.7224576673238090e+01 -1.1965687530777740e+00
ITEM: ATOMS id type x y z
7 4 -0.981889 2.86862 3.47386
14 4 0.0101674 5.16247 1.84656
164 3 -1.48322 4.17174 2.67069
166 3 -0.652308 6.27855 0.867858
79 2 -1.72635 4.94015 7.40087
17 4 -1.08039 6.14966 6.34639
78 2 0.0631552 1.86866 5.66468
167 3 -2.35031 6.65484 5.42158
77 2 0.546856 3.07585 4.15523
190 3 0.290388 5.43915 5.39988
57 1 0.967147 2.5626 6.02782
105 2 0.746312 3.62413 5.79392
165 3 0.806732 4.02834 1.0095
189 3 0.829011 5.82014 2.99584
26 4 4.02439 2.12595 3.33763
315 1 1.36753 1.34813 0.49081
33 4 1.18987 6.30449 4.48112
9 4 2.50589 -0.223984 7.5043
62 1 3.13059 3.75749 3.02861
82 2 3.73167 4.73966 2.92865
117 2 2.28414 3.73412 2.3215
118 2 2.76547 3.67489 4.30799
119 2 4.39313 2.91198 1.81004
182 3 5.50187 2.05571 4.17389
183 3 6.44243 0.255869 6.04208
194 3 2.79008 6.33817 4.85917
195 3 4.99869 5.17061 6.43434
268 1 6.59209 1.81268 1.22094
272 2 5.62575 1.30236 1.17797
180 3 3.14429 0.849267 3.07654
143 2 1.31463 0.768865 6.77317
280 2 4.43293 6.26932 0.522664
318 2 1.0325 1.7826 1.56155
104 2 1.02264 2.4973 7.18413
181 3 3.30362 0.765181 8.42462
103 2 1.98963 2.23828 5.62197
191 3 4.55371 3.09918 8.17151
34 4 5.56464 3.95437 7.26614
316 2 2.51388 1.22242 0.382173
29 4 6.68934 1.91342 5.26658
18 4 -0.196101 3.17873 12.7201
19 4 -0.514435 5.46293 10.8097
161 3 -0.141539 1.46366 15.9514
170 3 -0.632875 4.05752 11.5295
110 2 -1.61157 5.34461 9.5625
133 2 -0.390527 6.12798 14.4116
168 3 -1.3743 2.74924 13.8211
67 1 0.652194 5.73815 14.5376
132 2 1.21253 5.73822 13.5759
169 3 0.631494 1.91391 12.2969
134 2 0.765261 4.81056 15.1676
193 3 0.881346 5.58213 10.0862
85 2 1.00726 4.04668 13.5984
84 2 2.60605 3.89207 9.23916
8 4 1.08562 1.70387 16.9371
13 4 0.965618 0.544154 11.5978
28 4 4.21866 1.80737 9.17573
31 4 3.92438 1.72279 15.2292
35 4 2.38212 5.42886 9.93446
63 1 3.18484 2.58291 10.655
64 1 4.35861 3.40841 14.4991
83 2 2.21109 0.890634 10.4748
120 2 2.02909 2.74743 10.6577
121 2 3.62959 3.66588 10.8255
122 2 3.50483 1.82522 11.4738
123 2 4.42491 3.14375 13.3599
124 2 5.28512 3.76177 14.9973
125 2 3.31354 3.95913 14.8
184 3 3.73892 0.58635 13.8854
185 3 5.25731 1.58607 16.2179
186 3 2.51254 1.94796 16.1168
187 3 5.42312 1.25205 9.95773
198 3 3.27294 5.53113 11.2828
196 3 3.09015 6.12528 15.9373
86 2 4.32151 5.26647 13.789
163 3 1.73107 -0.479567 12.5929
38 4 4.18077 6.34084 12.3886
200 3 3.07144 6.50283 8.87722
60 1 -4.69539 9.59589 4.93646
141 2 -3.71317 13.3504 5.28916
142 2 -2.08672 13.4636 6.22724
295 2 -6.2068 13.4317 2.34137
3 2 -3.17609 11.8013 6.43959
70 1 -3.11569 12.9369 6.25116
1 4 -4.27033 13.4639 2.36179
6 3 -3.74109 12.999 0.853741
16 4 -0.21784 7.91723 0.848513
20 4 -2.43857 10.0348 1.034
22 4 -0.385333 8.94973 7.14189
39 4 -1.16465 11.6471 3.47095
138 2 -0.860789 12.8598 1.39862
115 2 -2.34134 12.2667 4.58049
285 2 2.47383 7.93437 2.41368
171 3 -1.58714 8.67321 0.862984
173 3 -0.584989 7.30077 7.44176
199 3 -1.80675 10.7587 2.3571
202 3 -0.572832 10.1236 8.15505
80 2 -0.696835 9.51041 5.45372
69 1 -0.541416 13.0349 2.4093
111 2 -4.14741 9.67093 1.36247
2 1 -5.60553 12.6654 3.65336
205 3 0.15243 11.148 4.24061
334 2 -4.04362 11.9761 3.47636
203 3 -0.0847315 12.5814 8.08078
4 2 -5.42945 13.4518 4.47239
112 2 -3.67523 8.85358 4.66803
139 2 0.495924 13.148 2.62595
337 2 -4.38035 10.5127 5.40759
174 3 -5.03964 12.4977 8.24018
286 2 1.42431 9.23024 3.58121
252 2 -4.79296 9.72871 6.9584
99 2 0.736836 8.42769 2.17504
87 2 0.708872 7.94502 4.54846
241 1 -4.79166 9.67445 8.22313
61 1 1.07171 9.16191 6.0999
116 2 1.95305 8.56339 5.75464
40 4 3.5168 7.79142 8.1181
42 4 1.49876 11.0358 5.22991
88 2 2.05859 8.79645 7.69806
100 2 1.72122 10.4426 7.08306
278 1 2.45926 8.89076 3.08363
290 3 2.25704 10.9933 1.12535
287 2 3.35287 8.82306 3.80863
140 2 -1.17708 13.8526 2.90602
27 4 0.637086 13.5176 7.03224
317 2 -6.06748 14.1928 0.25945
214 3 1.04459 11.8208 12.3095
172 3 -2.40128 9.70168 17.181
149 2 -3.58881 6.83633 13.5294
213 3 1.65479 9.40434 12.294
11 4 -3.75438 13.1943 13.262
45 4 1.78841 10.8246 11.3889
208 3 3.57857 7.70293 12.8863
175 3 -1.10601 6.71438 11.6586
21 4 -3.0472 11.2243 16.9239
258 2 -4.02909 8.64308 10.8581
339 2 -3.96683 12.0839 14.5785
23 4 -5.0916 11.2152 9.20271
24 4 -1.52516 8.10567 12.5507
25 4 -2.5648 11.3239 11.2187
41 4 -0.206305 11.395 9.1115
44 4 -0.378298 11.9174 15.7816
73 1 -0.548898 10.3568 14.6954
150 2 -1.50006 9.9411 15.0798
151 2 0.397048 9.55821 14.8315
176 3 -4.55289 11.2055 15.7722
177 3 -4.05374 11.1396 10.4026
178 3 -2.22636 9.89045 11.9417
179 3 -2.75295 12.4639 12.3159
204 3 -1.33022 11.7338 10.2766
211 3 -1.91212 12.2614 16.3276
72 1 -3.01357 7.78059 13.7841
81 2 -2.79363 7.90545 14.9045
147 2 -1.13813 7.89007 14.2845
102 2 -0.693652 9.56145 12.0631
152 2 -0.701369 10.9406 13.7174
207 3 1.71106 8.33187 14.8722
148 2 -3.60114 8.71001 13.3885
197 3 0.649328 6.9594 17.0087
43 4 2.61314 8.94544 13.5011
37 4 1.59688 6.98204 15.7662
209 3 0.587885 11.4663 16.9365
212 3 1.18561 10.9625 9.76715
250 2 -3.94886 9.12974 8.69219
308 2 -3.23945 6.54573 11.1172
210 3 0.489501 13.1977 14.6259
229 3 8.08325 6.16399 5.39895
192 3 6.59068 3.05802 6.40006
271 2 6.34498 3.52617 1.41341
331 2 12.6547 0.229586 3.47827
95 2 6.9706 4.79959 3.46197
51 4 7.1387 6.27751 4.18555
130 2 7.66598 4.6558 8.138
342 2 12.1672 5.64847 8.35722
215 3 8.10291 2.11591 4.43987
269 2 7.15338 1.51786 2.18234
219 3 13.2847 2.53049 4.55594
46 4 9.54846 2.35119 3.71778
49 4 12.0132 1.88442 5.47134
50 4 10.8304 4.88856 2.94102
53 4 10.7573 3.68581 7.64076
91 2 9.29149 1.8607 2.09309
94 2 12.2845 4.11531 2.54428
220 3 10.7724 1.45961 4.24636
221 3 12.2933 0.626182 6.38373
222 3 9.9287 3.90211 3.69814
223 3 11.1884 6.30415 3.53746
225 3 10.2039 5.11507 1.364
227 3 11.4179 3.12142 6.31601
230 3 9.6377 4.82627 7.24862
217 3 8.4637 0.579349 7.70508
294 4 13.4032 0.943255 1.44419
297 3 12.4259 1.94022 0.673771
52 4 9.37395 5.79399 0.184612
54 4 9.2657 6.13801 6.52638
97 2 13.2257 3.97781 8.24059
288 2 8.21243 0.690731 1.39266
224 3 5.56636 6.80698 4.45562
296 3 14.4949 1.59298 2.38537
36 4 4.49956 6.47691 5.60536
347 2 10.0859 0.562168 0.818978
270 2 7.48104 1.28606 -0.0542582
228 3 10.6045 6.81275 6.1773
226 3 10.3631 2.36457 8.48946
162 3 15.0719 -0.0776406 10.8848
128 2 6.69967 3.22632 12.6958
324 2 12.9091 -0.660899 14.1562
131 2 6.68297 4.26514 9.7361
188 3 7.26356 0.585796 12.1461
12 4 13.9287 1.4525 14.8285
65 1 6.73618 3.3556 11.5785
267 4 6.63225 1.735 17.0799
340 2 11.8798 3.41788 17.1165
249 2 6.78691 5.02981 13.9199
127 2 7.62495 3.88487 11.0708
240 1 7.75355 5.266 14.6561
245 2 7.81338 4.49775 15.4408
126 2 5.76435 3.81749 11.2544
218 3 8.19488 1.84453 9.9847
107 2 9.98373 -0.284087 10.7854
323 1 13.8828 -0.226248 13.8113
256 2 10.4923 5.92728 10.4158
135 2 6.45137 6.11919 12.4432
303 2 8.03063 0.678554 15.0861
247 2 8.82789 5.26995 14.0273
96 2 10.2584 5.74091 15.7945
129 2 6.38136 5.83511 8.66083
298 4 11.7391 1.7244 16.8615
312 3 10.2226 1.2833 16.5832
310 2 11.6352 5.24412 16.9833
320 2 12.7734 2.59024 11.2541
336 2 11.0016 4.10233 15.6744
313 3 8.12581 3.19415 16.8594
109 2 12.1169 4.27384 9.6773
319 1 12.4437 1.73003 10.6364
348 2 9.58255 0.653957 12.0685
10 4 13.8414 0.458899 9.93215
48 4 9.20659 1.25767 8.8903
58 1 10.2117 -0.30387 9.64598
299 4 9.06528 1.92001 15.6333
300 4 10.4664 3.30822 13.2423
301 1 10.6076 5.24154 13.1556
302 1 10.7313 4.86017 16.4079
304 2 9.21669 4.25793 12.3057
305 2 11.9367 4.54208 13.8184
306 2 11.277 2.22648 12.1587
307 2 10.863 5.79282 12.1518
309 2 10.1638 6.02436 13.87
311 3 12.578 1.45532 15.5704
314 3 9.67062 2.65023 14.3986
322 2 12.0912 0.686159 11.3358
349 2 10.1194 0.256717 13.7738
328 1 9.77364 -0.250212 12.7876
108 2 11.6424 2.05387 9.85546
343 2 13.8668 0.114158 12.7445
59 1 12.2586 4.47978 8.63804
66 1 6.68686 4.76792 8.67476
32 4 6.91336 1.55755 10.8975
137 2 5.635 6.39282 10.554
93 2 11.3622 -0.320192 9.43844
321 2 13.9865 2.2004 9.52318
216 3 13.3345 -0.325776 8.68379
157 2 10.1968 8.52543 2.68812
156 2 8.61874 11.0108 6.29956
281 2 4.3338 13.8064 1.99701
325 1 8.48719 12.3483 -0.170848
47 4 5.5885 13.3355 7.31826
155 2 9.61379 10.9241 2.54849
92 2 3.97581 12.9801 7.87141
201 3 4.43373 7.65994 6.75491
206 3 1.71441 12.3467 6.0192
274 4 3.36855 9.87751 1.56088
276 4 5.69572 11.5349 2.93131
277 4 6.97039 11.0871 5.73125
282 2 4.67017 12.765 3.79627
98 2 8.57932 7.06617 7.80394
289 3 3.79395 8.70846 0.555051
5 2 9.08153 11.8798 3.99126
291 3 4.64599 10.6242 2.19427
292 3 6.76543 11.2252 4.13407
293 3 6.04729 11.9858 6.64427
330 1 5.50827 13.7251 2.35857
333 2 6.53831 12.3817 1.54897
332 2 7.27987 13.7011 0.357474
275 4 2.1887 12.3552 0.29183
153 2 7.81847 9.88288 1.666
232 3 8.75502 7.26867 0.575812
75 1 7.57788 9.36064 6.43407
158 2 6.59873 8.85247 5.88646
283 2 7.58835 9.15035 7.56502
114 2 10.1785 9.80223 3.91831
55 4 8.57803 8.04728 1.94669
154 2 9.77351 10.1722 0.871257
113 2 9.86662 9.01071 5.62281
74 1 9.42731 9.99644 1.93779
231 3 7.71763 7.35127 3.09595
284 2 8.53067 8.96787 5.87996
346 2 2.66734 13.4388 2.32737
279 1 2.42786 14.0021 1.34152
15 4 11.6185 7.00742 4.9062
89 2 2.86121 10.4267 4.31367
251 2 9.53361 9.15362 8.4663
326 2 9.30195 12.298 0.565404
262 3 5.62428 6.70775 16.1826
237 4 9.75515 7.95121 11.1437
335 2 7.94936 13.0428 14.1084
329 2 3.69816 12.9628 12.3951
68 1 5.85306 6.79493 11.6364
273 4 4.26042 6.42375 16.9751
236 4 6.81565 6.88256 15.1675
265 3 8.53711 10.0534 14.5436
235 4 9.18455 11.0494 15.5848
136 2 5.9565 7.9693 11.78
146 2 5.45659 9.10808 8.58762
145 2 3.87732 9.46717 9.60665
144 2 5.15973 7.96194 10.1344
106 2 2.7854 12.7914 9.15798
71 1 4.69257 8.64332 9.28175
350 2 6.30174 11.214 14.3162
341 2 4.87541 11.0264 12.1141
56 4 3.99304 11.2408 15.0252
76 1 5.80958 10.8297 15.2484
90 2 3.48026 11.2515 11.2745
101 2 6.40157 11.0718 16.1813
159 2 3.74336 12.8259 14.3473
160 2 5.67658 9.6785 15.1721
233 3 3.47813 10.2715 13.9501
234 3 3.25978 11.2766 16.5398
239 4 7.25834 11.0833 11.3634
244 1 5.30778 11.9403 11.5598
260 2 6.08328 11.0609 10.0679
261 2 4.55315 12.5519 10.8729
263 3 6.88059 8.04727 14.1754
246 2 5.87471 12.6635 12.226
266 3 7.2566 9.74513 12.1457
254 2 7.25962 7.39623 10.3697
344 2 7.6193 12.4098 12.5035
238 4 7.94591 9.03834 13.4018
248 2 8.4175 6.67029 15.8663
242 1 8.12705 7.73504 9.61458
243 1 11.2687 6.76991 10.4325
259 2 8.86196 9.25758 10.2285
264 3 9.27636 8.06068 12.6842
327 2 8.18756 12.5272 16.0835
338 2 8.79435 11.1916 10.1357
257 2 11.5673 7.00267 9.38055
253 2 8.8871 6.7599 9.45038
255 2 7.60024 8.01196 8.67145
30 4 1.02971 13.2855 12.9903
345 2 7.83517 10.0627 17.2237
ITEM: TIMESTEP
200
ITEM: NUMBER OF ATOMS
350
ITEM: BOX BOUNDS xy xz yz pp pp pp
-6.8611178140611306e+00 1.5387796977484511e+01 -6.8538458860316664e+00
-9.2236853537990759e-01 1.4228599782302123e+01 -1.0002342260234297e-02
-2.1607667323829638e-01 1.7224576673238090e+01 -1.1965687530777740e+00
ITEM: ATOMS id type x y z
7 4 -1.06124 2.79025 3.48708
14 4 0.16625 5.13113 2.02984
164 3 -1.37542 4.30753 2.77673
166 3 -0.485416 6.27139 1.08084
79 2 -1.92369 4.76964 7.15888
17 4 -1.10914 5.97567 6.31199
78 2 -0.0637184 1.95433 5.75257
167 3 -2.2204 6.67318 5.2096
77 2 0.440071 2.83647 4.22971
190 3 0.388241 5.43164 5.65415
57 1 0.814511 2.53126 6.22459
105 2 0.759015 3.64459 5.97921
165 3 0.96637 4.01676 1.07898
189 3 1.14597 5.76784 3.10039
26 4 4.03163 2.12826 3.24536
315 1 1.59146 1.10005 0.312152
33 4 1.32809 6.3123 4.64602
9 4 2.55483 -0.232082 7.56588
62 1 3.1001 3.79531 3.03361
82 2 3.67767 4.71833 3.09749
117 2 2.26329 3.80406 2.24306
118 2 2.68305 3.48082 4.29135
119 2 4.33793 3.0551 1.74406
182 3 5.33694 2 4.13617
183 3 6.58042 0.263916 5.80003
194 3 2.87589 6.20199 5.10837
195 3 4.90133 5.02936 6.37439
268 1 6.55713 1.797 1.11931
272 2 5.60962 1.22486 1.28871
180 3 3.32629 0.807717 2.8557
143 2 1.3572 0.57558 6.57503
280 2 4.29978 6.17677 0.344466
318 2 1.51697 1.40412 1.44877
104 2 0.747677 2.39823 7.35056
181 3 3.44637 0.804488 8.39367
103 2 1.76181 2.09816 5.88306
191 3 4.7283 3.07144 8.24724
36 4 4.37282 6.42791 5.65638
316 2 2.74885 1.03449 -0.0435938
29 4 6.72166 1.73972 5.23131
18 4 -0.234438 3.28742 12.5788
19 4 -0.579229 5.59257 10.7281
161 3 -0.138236 1.33351 15.9589
170 3 -0.784035 4.26714 11.5321
110 2 -1.7373 5.46598 9.47394
133 2 -0.644833 6.0371 14.5844
168 3 -1.29028 2.83917 13.6908
67 1 0.42226 5.6651 14.5161
132 2 0.966567 5.84915 13.5313
169 3 0.545691 1.99493 12.1019
134 2 0.52675 4.62113 15.0206
193 3 0.853898 5.61812 10.1511
85 2 1.01525 4.13576 13.4418
84 2 2.84577 4.02879 9.39601
8 4 1.20388 1.5424 17.0523
13 4 0.948075 0.553818 11.5903
28 4 4.47357 1.77599 9.19092
31 4 3.96422 1.77856 15.1643
35 4 2.41056 5.58994 9.93442
63 1 3.30991 2.50483 10.5951
64 1 3.9256 3.36224 14.0965
83 2 2.05735 0.940077 10.3979
120 2 2.1609 2.53147 10.5084
121 2 3.80292 3.51534 10.8001
122 2 3.67167 1.77283 11.4233
123 2 3.69878 3.07053 12.9576
124 2 4.98777 3.69653 14.2683
125 2 3.04639 3.94207 14.6981
184 3 3.72935 0.670133 14.0019
185 3 5.33801 1.83001 16.1493
186 3 2.46004 1.8178 16.1249
187 3 5.80137 1.35691 9.87202
198 3 3.15816 5.71723 11.3093
126 2 5.53979 3.71973 11.1607
86 2 4.04564 5.24838 13.7953
163 3 1.73486 -0.390108 12.7113
210 3 7.41376 -0.695228 14.6408
11 4 3.14183 -0.653318 13.4037
38 4 4.0231 6.35132 12.4066
287 2 3.1158 8.69476 3.8029
141 2 -4.07017 13.3216 5.22362
142 2 -2.15062 13.5448 6.00309
295 2 -6.27641 13.554 2.29796
3 2 -3.26886 11.988 6.50213
70 1 -3.27767 13.1422 6.09685
1 4 -4.26503 13.3312 2.44652
6 3 -3.74721 12.8339 0.945982
16 4 -0.238409 7.83827 0.887127
20 4 -2.54324 9.93918 1.01682
22 4 -0.419746 8.81383 7.10922
39 4 -1.26849 11.7431 3.40523
138 2 -0.344893 12.9746 1.37584
115 2 -2.31617 12.7034 4.43857
285 2 2.34933 7.94978 2.28776
171 3 -1.59716 8.66395 0.802593
173 3 -0.83056 7.13203 7.36197
199 3 -2.05769 10.7339 2.41844
202 3 -0.771768 9.95179 8.30979
80 2 -0.740473 9.37241 5.54098
69 1 -0.535845 13.1702 2.48743
111 2 -4.15045 9.28341 1.32321
2 1 -5.7913 12.5874 3.48949
205 3 0.0347919 11.2066 4.21295
334 2 -4.14965 11.8935 3.56769
203 3 0.0314282 12.6022 8.15424
4 2 -5.77918 13.2504 4.45705
112 2 -3.92406 8.9425 4.88438
139 2 0.453003 13.431 2.99067
337 2 -4.50307 10.8207 5.20675
174 3 -5.10088 12.5745 8.37411
286 2 1.47185 9.37807 3.12819
252 2 -4.7906 9.92962 6.97502
99 2 0.60696 8.51145 2.12758
87 2 0.831683 7.97354 4.76568
241 1 -4.80736 9.86488 8.12463
61 1 1.13178 9.28995 6.21206
116 2 2.00734 8.68389 5.73279
40 4 3.56157 7.97901 8.17103
42 4 1.42138 11.0458 5.12939
88 2 2.16639 9.08616 7.82682
100 2 1.57304 10.4429 7.1611
278 1 2.42615 8.89717 2.91919
317 2 -6.0307 14.0818 0.066568
27 4 0.829691 13.4632 6.91205
140 2 -1.34783 13.9746 2.72345
214 3 1.21103 12.0139 12.3554
172 3 -2.61259 9.55834 17.1242
149 2 -3.63659 6.83422 13.6714
213 3 1.58542 9.36191 12.0031
308 2 -3.39492 6.562 11.5299
45 4 1.78816 10.8382 11.4391
208 3 3.50762 7.74316 12.9218
175 3 -1.05127 6.77197 11.7633
21 4 -3.11057 11.1135 16.9674
258 2 -4.05285 8.81992 10.8747
339 2 -4.03955 12.4192 14.8046
23 4 -5.05852 11.2709 9.31852
24 4 -1.47273 8.06881 12.5873
25 4 -2.44911 11.2918 11.254
41 4 -0.191886 11.2856 9.17193
44 4 -0.427376 11.9376 15.7235
73 1 -0.578336 10.4728 14.5666
150 2 -1.61577 10.0286 14.9094
151 2 0.200984 9.66737 14.6297
176 3 -4.54916 11.158 15.7374
177 3 -3.75506 11.2529 10.3204
178 3 -2.0129 9.84371 11.8799
179 3 -2.7668 12.3836 12.5954
204 3 -1.28928 11.6847 10.2424
211 3 -1.90692 12.0989 16.3647
72 1 -2.98357 7.79802 13.9405
81 2 -2.7827 7.9284 15.0359
147 2 -1.13406 7.8501 14.3789
102 2 -0.479961 9.45506 12.2046
152 2 -0.537349 11.1458 13.54
207 3 1.48348 8.26823 14.7543
148 2 -3.51795 8.70249 13.522
197 3 0.699746 6.88184 17.0378
43 4 2.48571 8.86806 13.4389
37 4 1.52727 6.86902 15.6368
209 3 0.690388 11.595 16.7453
212 3 1.2314 10.9363 9.76194
196 3 3.02411 6.19301 15.8032
257 2 -3.43449 7.21642 9.83458
250 2 -3.89963 9.3995 8.53235
200 3 3.06032 6.67689 8.88481
229 3 8.00526 6.22136 5.50446
192 3 6.72325 2.91712 6.41047
269 2 7.14119 1.75982 2.03732
331 2 12.5848 0.141709 3.22737
95 2 7.09006 4.86289 3.62743
51 4 7.06837 6.41043 4.28544
130 2 7.83214 4.53078 8.27598
342 2 12.1913 5.68674 8.19842
215 3 8.11213 1.91485 4.31351
34 4 5.69309 3.87173 7.31992
219 3 13.2944 2.27298 4.55583
46 4 9.42227 2.39773 3.66883
49 4 12.0039 1.86972 5.35465
50 4 10.7204 5.03445 2.92092
53 4 10.7107 3.61508 7.60051
91 2 9.28636 1.78963 2.09524
94 2 12.3173 4.4941 3.12957
220 3 10.6943 1.62314 4.37188
221 3 12.3049 0.506615 6.23641
222 3 9.73985 3.95875 3.58626
223 3 11.0025 6.4072 3.66381
225 3 10.4389 5.16285 1.37946
227 3 11.5971 3.22356 6.27735
230 3 9.41333 4.66375 7.28972
217 3 8.64038 0.661829 7.4919
294 4 13.3486 1.00232 1.25811
297 3 12.3261 2.0319 0.726619
52 4 9.55885 5.7229 0.173451
54 4 9.19752 6.13612 6.59281
347 2 10.2891 0.510737 0.631862
288 2 8.24813 0.697298 1.22846
224 3 5.49775 6.91509 4.55167
296 3 14.465 1.56604 2.33059
340 2 12.0305 4.56133 -0.113524
228 3 10.6979 6.74229 6.27964
232 3 8.84763 7.09411 0.564823
270 2 7.33252 1.15237 -0.105374
271 2 6.09327 3.5306 1.34327
162 3 15.0622 0.0145172 10.8324
128 2 6.51677 3.19642 12.7764
216 3 13.2784 -0.11471 8.58544
131 2 6.69867 4.22864 9.7606
188 3 7.19246 0.550095 12.1323
12 4 13.9831 1.50047 14.8618
65 1 6.50456 3.40037 11.6379
267 4 6.56789 1.77037 17.1086
335 2 14.9585 -0.452493 13.7238
249 2 6.78545 4.88715 13.8178
127 2 7.42846 4.02382 11.4562
240 1 7.63943 5.11143 14.6331
245 2 7.70516 4.32137 15.5123
30 4 7.92402 -0.530843 13.0955
218 3 8.38442 1.82906 10.0303
107 2 9.91784 -0.124608 10.9713
323 1 13.8861 -0.117344 13.7962
256 2 10.4765 6.09975 10.3388
135 2 6.43595 5.98457 12.1491
303 2 8.0434 0.650392 15.2799
247 2 8.71678 5.19743 14.1143
96 2 10.689 5.99753 16.2011
129 2 6.43338 5.72913 8.61871
298 4 11.7494 1.63784 16.9779
312 3 10.1078 1.31206 16.6947
310 2 12.1355 4.90198 16.9007
320 2 12.7506 2.65202 11.5102
336 2 10.9637 4.11227 15.5807
313 3 8.15055 3.28544 16.8528
109 2 11.5307 4.69701 9.73892
319 1 12.5099 1.75076 10.7983
348 2 9.4959 0.982814 12.3261
10 4 13.8037 0.574627 9.90196
48 4 9.27901 1.18403 8.85508
58 1 10.1053 -0.336273 9.80171
299 4 9.04067 1.97502 15.712
300 4 10.246 3.32391 13.1385
301 1 10.5905 5.22444 13.3562
302 1 11.059 4.82717 16.4947
304 2 9.17532 4.63589 12.3208
305 2 11.8729 4.24037 13.7983
306 2 10.964 2.32503 11.8701
307 2 10.8673 5.82661 12.4192
309 2 10.2387 5.85497 14.2164
311 3 12.6393 1.46981 15.6931
314 3 9.5545 2.65791 14.3999
322 2 12.1666 0.691058 11.4298
349 2 10.254 0.456787 13.9583
328 1 9.79424 0.0290521 13.0231
108 2 11.6764 1.97185 9.98911
343 2 13.4011 0.239096 12.796
59 1 12.0637 4.67561 8.62197
66 1 6.79746 4.66355 8.68573
32 4 7.02961 1.67908 10.8635
137 2 5.58472 6.32126 10.5335
93 2 11.2403 -0.317324 9.55495
321 2 13.9477 2.2865 9.66422
97 2 12.9523 4.01095 8.63572
226 3 10.4652 2.39605 8.61533
324 2 13.194 -0.705669 14.539
157 2 10.253 8.57731 2.61015
156 2 8.65487 10.9781 6.20712
281 2 4.399 13.6573 1.83787
89 2 2.74556 10.3942 4.19993
47 4 5.56265 13.35 7.4027
155 2 9.50008 10.8563 2.45646