LAMMPS (2 Aug 2023 - Update 2)
  using 6 OpenMP thread(s) per MPI task
Reading data file ...
  triclinic box = (0 0 0) to (16.8189 12.842 16.0755) with tilt (-8.3798 1.195 0.4312)
WARNING: Triclinic box skew is large. LAMMPS will run inefficiently. (src/domain.cpp:220)
  1 by 1 by 2 MPI processor grid
  reading atoms ...
  274 atoms
Finding 1-2 1-3 1-4 neighbors ...
  special bond factors lj:    0        0        0       
  special bond factors coul:  0        0        0       
     0 = max # of 1-2 neighbors
     0 = max # of 1-3 neighbors
     0 = max # of 1-4 neighbors
     1 = max # of special neighbors
  special bonds CPU = 0.000 seconds
  read_data CPU = 0.008 seconds
##### Minimization starts.##### 

CITE-CITE-CITE-CITE-CITE-CITE-CITE-CITE-CITE-CITE-CITE-CITE-CITE

Your simulation uses code contributions which should be cited:
- pair reaxff command: doi:10.1016/j.parco.2011.08.005
- fix qeq/reaxff command: doi:10.1016/j.parco.2011.08.005
The log file lists these citations in BibTeX format.

CITE-CITE-CITE-CITE-CITE-CITE-CITE-CITE-CITE-CITE-CITE-CITE-CITE

Switching to 'neigh_modify every 1 delay 0 check yes' setting during minimization
WARNING: Fix qeq/reaxff group is not charge neutral, net charge = -8.2 (src/REAXFF/fix_qeq_reaxff.cpp:392)
Neighbor list info ...
  update: every = 1 steps, delay = 0 steps, check = yes
  max neighbors/atom: 2000, page size: 100000
  master list distance cutoff = 12
  ghost atom cutoff = 12
  binsize = 6, bins = 5 3 3
  2 neighbor lists, perpetual/occasional/extra = 2 0 0
  (1) pair reaxff, perpetual
      attributes: half, newton off, ghost
      pair build: half/bin/newtoff/ghost
      stencil: full/ghost/bin/3d
      bin: standard
  (2) fix qeq/reaxff, perpetual, copy from (1)
      attributes: half, newton off
      pair build: copy
      stencil: none
      bin: none
Setting up cg style minimization ...
  Unit style    : real
  Current step  : 0
Per MPI rank memory allocation (min/avg/max) = 173.5 | 173.6 | 173.6 Mbytes
   Step          Temp          Press         Density         PotEng         TotEng    
         0   0              50159.025      1.4594291     -29524.072     -29524.072    
        94   0             -5929.8519      1.4594291     -32040.194     -32040.194    
Loop time of 6.66465 on 12 procs for 94 steps with 274 atoms

97.5% CPU use with 2 MPI tasks x 6 OpenMP threads

Minimization stats:
  Stopping criterion = energy tolerance
  Energy initial, next-to-last, final = 
      -29524.071898243  -32040.1829204686  -32040.1935546353
  Force two-norm initial, final = 1922.3946 85.060277
  Force max component initial, final = 335.64142 41.827776
  Final line search alpha, max atom move = 0.001553704 0.064987984
  Iterations, force evaluations = 94 237

MPI task timing breakdown:
Section |  min time  |  avg time  |  max time  |%varavg| %total
---------------------------------------------------------------
Pair    | 4.9696     | 5.019      | 5.0684     |   2.2 | 75.31
Bond    | 5.7102e-05 | 6.0203e-05 | 6.3304e-05 |   0.0 |  0.00
Neigh   | 0.022135   | 0.022144   | 0.022153   |   0.0 |  0.33
Comm    | 0.048413   | 0.097754   | 0.1471     |  15.8 |  1.47
Output  | 0          | 0          | 0          |   0.0 |  0.00
Modify  | 1.5208     | 1.5208     | 1.5208     |   0.0 | 22.82
Other   |            | 0.004915   |            |       |  0.07

Nlocal:            137 ave         142 max         132 min
Histogram: 1 0 0 0 0 0 0 0 0 1
Nghost:           4154 ave        4159 max        4149 min
Histogram: 1 0 0 0 0 0 0 0 0 1
Neighs:        70879.5 ave       73039 max       68720 min
Histogram: 1 0 0 0 0 0 0 0 0 1

Total # of neighbors = 141759
Ave neighs/atom = 517.36861
Ave special neighs/atom = 0
Neighbor list builds = 1
Dangerous builds not checked
System init for write_data ...
WARNING: Resetting reneighboring criteria to 'delay 0 every 100 check no' due to fix reaxff/species averaging of bond data (src/REAXFF/fix_reaxff_species.cpp:123)
##### Equilibration starts.##### 
Setting up Verlet run ...
  Unit style    : real
  Current step  : 0
  Time step     : 0.5
Per MPI rank memory allocation (min/avg/max) = 182.3 | 182.4 | 182.4 Mbytes
   Step          Temp          Press         Density         PotEng         TotEng    
         0   300           -2715.4589      1.4594291     -32040.193     -31796.065    
       100   257.33538     -6184.8833      1.4662545     -31976.476     -31767.066    
       200   291.03181      3439.6804      1.4829646     -31964.947     -31728.116    
       300   330.21112     -6006.0162      1.4997099     -31964.766     -31696.053    
       400   336.5956       2885.1116      1.5147913     -31966.159     -31692.25     
       500   340.30113     -1340.0547      1.5146192     -32008.278     -31731.354    
       600   337.37927      1786.2396      1.5085413     -32048.636     -31774.09     
       700   309.06783     -4308.6027      1.5068473     -32062.33      -31810.822    
       800   330.06898     -911.87667      1.5135894     -32102.857     -31834.26     
       900   308.49235     -1086.797       1.5179509     -32106.591     -31855.552    
      1000   305.13905      11666.403      1.5175917     -32115.728     -31867.418    
      1100   298.79043      4906.9892      1.5045073     -32103.036     -31859.892    
      1200   300.24098      5585.233       1.4987528     -32086.526     -31842.202    
      1300   303.55424     -3787.3983      1.4965028     -32085.237     -31838.217    
      1400   298.50824      4812.1211      1.4875075     -32096.825     -31853.911    
      1500   291.80344      4358.389       1.4877103     -32119.131     -31881.673    
      1600   302.71185     -2653.4555      1.5004901     -32130.006     -31883.671    
      1700   307.3314      -2651.9452      1.5358058     -32133.531     -31883.437    
      1800   272.52429      3003.3802      1.5543312     -32131.947     -31910.177    
      1900   277.11188      905.24175      1.5359793     -32145.715     -31920.212    
      2000   299.41588      2218.4773      1.5247117     -32135.577     -31891.924    
      2100   287.82475      525.58589      1.5205447     -32114.598     -31880.377    
      2200   321.71844      2891.7681      1.5265585     -32136.782     -31874.98     
      2300   296.29239      3644.6456      1.5328386     -32130.146     -31889.034    
      2400   290.76804     -4690.7616      1.5502253     -32150.033     -31913.417    
      2500   283.45017     -6265.2394      1.5354811     -32155.422     -31924.761    
      2600   296.16926      3747.2586      1.5292087     -32157.928     -31916.917    
      2700   290.40354      1645.2694      1.516364      -32146.669     -31910.35     
      2800   303.76161     -1092.0619      1.49863       -32144.256     -31897.067    
      2900   320.14974      2160.2799      1.5259831     -32148.305     -31887.78     
      3000   299.41538      10051.447      1.5272338     -32128.217     -31884.564    
      3100   304.76024      9765.218       1.5352786     -32153.592     -31905.59     
      3200   300.51543     -2591.0764      1.5231263     -32163.15      -31918.603    
      3300   300.95431     -1734.4281      1.5227505     -32162.632     -31917.727    
      3400   313.94215      8816.3759      1.5318824     -32146.134     -31890.66     
      3500   324.77385      230.76164      1.5124627     -32138.721     -31874.433    
      3600   303.49484     -2221.9763      1.5003885     -32133.881     -31886.908    
      3700   282.58574     -517.15417      1.5039732     -32136.476     -31906.519    
      3800   297.20007     -1684.0083      1.515727      -32152.13      -31910.28     
      3900   278.28997     -2900.3946      1.5272023     -32135.033     -31908.571    
      4000   294.47885      3282.781       1.5422277     -32129.306     -31889.671    
      4100   344.02         7915.4077      1.5460137     -32136.868     -31856.918    
      4200   318.15159      8615.9582      1.5454509     -32126.757     -31867.858    
      4300   293.91097     -2256.4121      1.5300307     -32125.058     -31885.885    
      4400   299.9211      -1005.7485      1.5321079     -32146.559     -31902.495    
      4500   289.47748     -654.1031       1.5150665     -32139.386     -31903.82     
      4600   283.62955     -911.10865      1.5203425     -32118.271     -31887.464    
      4700   314.8638       10142.048      1.5168135     -32127.244     -31871.02     
      4800   323.68073      2388.6104      1.5076488     -32141.782     -31878.383    
      4900   310.18179     -5911.3807      1.4951698     -32147.713     -31895.299    
      5000   281.29449     -6413.2163      1.4974475     -32145.366     -31916.459    
Loop time of 143.404 on 12 procs for 5000 steps with 274 atoms

Performance: 1.506 ns/day, 15.934 hours/ns, 34.866 timesteps/s, 9.553 katom-step/s
98.5% CPU use with 2 MPI tasks x 6 OpenMP threads

MPI task timing breakdown:
Section |  min time  |  avg time  |  max time  |%varavg| %total
---------------------------------------------------------------
Pair    | 119.32     | 120.47     | 121.62     |  10.5 | 84.01
Bond    | 0.00099027 | 0.0012537  | 0.0015171  |   0.7 |  0.00
Neigh   | 1.1704     | 1.1823     | 1.1941     |   1.1 |  0.82
Comm    | 0.68904    | 1.8378     | 2.9866     |  84.7 |  1.28
Output  | 0.016965   | 0.02116    | 0.025356   |   2.9 |  0.01
Modify  | 19.828     | 19.845     | 19.862     |   0.4 | 13.84
Other   |            | 0.04544    |            |       |  0.03

Nlocal:            137 ave         148 max         126 min
Histogram: 1 0 0 0 0 0 0 0 0 1
Nghost:         4105.5 ave        4131 max        4080 min
Histogram: 1 0 0 0 0 0 0 0 0 1
Neighs:        72472.5 ave       77454 max       67491 min
Histogram: 1 0 0 0 0 0 0 0 0 1

Total # of neighbors = 144945
Ave neighs/atom = 528.99635
Ave special neighs/atom = 0
Neighbor list builds = 50
Dangerous builds not checked
##### Heat starts.##### 
Setting up Verlet run ...
  Unit style    : real
  Current step  : 5000
  Time step     : 0.5
Per MPI rank memory allocation (min/avg/max) = 188.2 | 188.5 | 188.7 Mbytes
   Step          Temp          Press         Density         PotEng         TotEng    
      5000   281.29449     -6413.161       1.4974475     -32145.366     -31916.459    
      5100   290.38484     -1230.6934      1.4974475     -32126.572     -31890.268    
      5200   350.59949     -8238.5924      1.4974475     -32121.728     -31836.423    
      5300   409.19537      4650.3512      1.4974475     -32085.039     -31752.052    
      5400   436.9498      -13650.346      1.4974475     -31996.299     -31640.727    
      5500   557.32925     -82.546745      1.4974475     -31954.475     -31500.942    
      5600   621.88057     -3974.4907      1.4974475     -31837.68      -31331.618    
      5700   731.39211     -13760.418      1.4974475     -31729.488     -31134.31     
      5800   863.07011     -6346.3567      1.4974475     -31612.922     -30910.589    
      5900   991.20409     -6394.9919      1.4974475     -31480.17      -30673.567    
      6000   1175.064      -472.50658      1.4974475     -31383.903     -30427.682    
      6100   1301.084       1402.1603      1.4974475     -31244.224     -30185.453    
      6200   1405.2708      12229.752      1.4974475     -31119.891     -29976.336    
      6300   1565.2195     -19737.18       1.4974475     -31076.413     -29802.698    
      6400   1521.7751      5242.1526      1.4974475     -30881.187     -29642.826    
      6500   1668.2232      20012.835      1.4974475     -30798.352     -29440.817    
      6600   1807.924       13066.813      1.4974475     -30725.393     -29254.175    
      6700   1880.6519      482.37597      1.4974475     -30566.101     -29035.699    
      6800   1959.5836      33558.019      1.4974475     -30412.219     -28817.586    
      6900   2170.3572      1733.0968      1.4974475     -30405.913     -28639.76     
      7000   2182.2374      28196.64       1.4974475     -30348.149     -28572.329    
Loop time of 56.8731 on 12 procs for 2000 steps with 274 atoms

Performance: 1.519 ns/day, 15.798 hours/ns, 35.166 timesteps/s, 9.635 katom-step/s
98.7% CPU use with 2 MPI tasks x 6 OpenMP threads

MPI task timing breakdown:
Section |  min time  |  avg time  |  max time  |%varavg| %total
---------------------------------------------------------------
Pair    | 46.925     | 47.415     | 47.904     |   7.1 | 83.37
Bond    | 0.00039114 | 0.00046582 | 0.00054049 |   0.0 |  0.00
Neigh   | 0.43566    | 0.43636    | 0.43706    |   0.1 |  0.77
Comm    | 0.27746    | 0.76715    | 1.2568     |  55.9 |  1.35
Output  | 0.007006   | 0.008709   | 0.010412   |   1.8 |  0.02
Modify  | 8.225      | 8.228      | 8.231      |   0.1 | 14.47
Other   |            | 0.01792    |            |       |  0.03

Nlocal:            137 ave         142 max         132 min
Histogram: 1 0 0 0 0 0 0 0 0 1
Nghost:         4002.5 ave        4022 max        3983 min
Histogram: 1 0 0 0 0 0 0 0 0 1
Neighs:          72706 ave       74852 max       70560 min
Histogram: 1 0 0 0 0 0 0 0 0 1

Total # of neighbors = 145412
Ave neighs/atom = 530.70073
Ave special neighs/atom = 0
Neighbor list builds = 20
Dangerous builds not checked
##### Middle equilibration starts.##### 
Setting up Verlet run ...
  Unit style    : real
  Current step  : 7000
  Time step     : 0.5
Per MPI rank memory allocation (min/avg/max) = 188.1 | 188.5 | 188.8 Mbytes
   Step          Temp          Press         Density         PotEng         TotEng    
      7000   300            7505.9159      1.4974475     -30348.149     -30104.021    
      7100   1383.6284      4050.301       1.4974475     -30994.805     -29868.862    
      7200   1683.7984      12744.826      1.4974475     -30875.311     -29505.101    
      7300   1862.1283      12215.619      1.4974475     -30617.493     -29102.165    
      7400   2125.8724      41084.094      1.4974475     -30434.765     -28704.813    
      7500   2267.2083      15556.656      1.4974475     -30253.403     -28408.437    
      7600   2286.3922      10722.116      1.4974475     -30100.864     -28240.287    
      7700   2303.6981      36566.452      1.4974475     -30201.453     -28326.793    
      7800   2179.9979      9801.1527      1.4974475     -30273.054     -28499.056    
      7900   1998.6559      18067.504      1.4974475     -30270.211     -28643.783    
      8000   2167.7602     -2769.4343      1.4974475     -30389.938     -28625.899    
      8100   2336.4041      27895.459      1.4974475     -30355.742     -28454.467    
      8200   2390.3075      30557.436      1.4974475     -30296.158     -28351.019    
      8300   2265.8992      36543.991      1.4974475     -30280.537     -28436.637    
      8400   2158.1242      86670.156      1.4974475     -30361.37      -28605.172    
      8500   1983.8174      41397.027      1.4974475     -30263.268     -28648.914    
      8600   2136.9993      18054.028      1.4974475     -30257.315     -28518.308    
      8700   2194.6355      20237.161      1.4974475     -30131.143     -28345.234    
      8800   2380.9451      24786.531      1.4974475     -30298.805     -28361.285    
      8900   1966.2269      12148.204      1.4974475     -30079.606     -28479.567    
      9000   2173.8732      16829.507      1.4974475     -30230.59      -28461.576    
      9100   2333.447       7943.5774      1.4974475     -30296.36      -28397.491    
      9200   2181.7903     -21580.344      1.4974475     -30144.797     -28369.341    
      9300   2124.9596      52888.831      1.4974475     -30281.077     -28551.867    
      9400   2047.1901     -13858.362      1.4974475     -30319.234     -28653.31     
      9500   2219.7012      11062.234      1.4974475     -30372.813     -28566.507    
      9600   2245.355      -1726.4598      1.4974475     -30227.897     -28400.714    
      9700   2293.3042      26443.792      1.4974475     -30185.71      -28319.508    
      9800   2177.0928     -10063.563      1.4974475     -30184.442     -28412.809    
      9900   2187.2786     -1407.5794      1.4974475     -30202.223     -28422.301    
     10000   2330.1278      12033.078      1.4974475     -30375.099     -28478.931    
     10100   2172.3894     -6117.5067      1.4974475     -30325.318     -28557.512    
     10200   2110.5613      6671.0652      1.4974475     -30392.473     -28674.98     
     10300   2035.9016     -6321.1712      1.4974475     -30429.2       -28772.463    
     10400   2135.9416      22640.85       1.4974475     -30372.175     -28634.028    
     10500   2327.1354      12529.4        1.4974475     -30349.74      -28456.008    
     10600   2351.2984      44127.9        1.4974475     -30375.444     -28462.049    
     10700   2275.9725      12814.734      1.4974475     -30417.005     -28564.907    
     10800   2193.3074     -36345.908      1.4974475     -30481.736     -28696.907    
     10900   2159.4892      22009.117      1.4974475     -30492.048     -28734.74     
     11000   2357.7178      11599.402      1.4974475     -30490.083     -28571.464    
     11100   2299.7468      13514.268      1.4974475     -30309.345     -28437.9      
     11200   2165.1174     -1175.6266      1.4974475     -30162.965     -28401.077    
     11300   2334.7688      13149.323      1.4974475     -30416.579     -28516.635    
     11400   2221.1644     -11211.428      1.4974475     -30507.022     -28699.524    
     11500   2089.7371      21625.153      1.4974475     -30407.295     -28706.748    
     11600   2179.669       26358.091      1.4974475     -30381.029     -28607.299    
     11700   2240.1603     -28980.246      1.4974475     -30361.94      -28538.985    
     11800   2167.3748      31099.128      1.4974475     -30300.099     -28536.374    
     11900   2288.5044      13650.008      1.4974475     -30342.992     -28480.696    
     12000   2388.7845      6568.3852      1.4974475     -30246.287     -28302.387    
Loop time of 144.063 on 12 procs for 5000 steps with 274 atoms

Performance: 1.499 ns/day, 16.007 hours/ns, 34.707 timesteps/s, 9.510 katom-step/s
98.8% CPU use with 2 MPI tasks x 6 OpenMP threads

MPI task timing breakdown:
Section |  min time  |  avg time  |  max time  |%varavg| %total
---------------------------------------------------------------
Pair    | 119.48     | 119.71     | 119.95     |   2.2 | 83.10
Bond    | 0.0011362  | 0.0011853  | 0.0012345  |   0.1 |  0.00
Neigh   | 1.0877     | 1.1006     | 1.1135     |   1.2 |  0.76
Comm    | 1.2252     | 1.4645     | 1.7039     |  19.8 |  1.02
Output  | 0.017252   | 0.021766   | 0.02628    |   3.1 |  0.02
Modify  | 21.697     | 21.717     | 21.736     |   0.4 | 15.07
Other   |            | 0.04502    |            |       |  0.03

Nlocal:            137 ave         142 max         132 min
Histogram: 1 0 0 0 0 0 0 0 0 1
Nghost:           4179 ave        4202 max        4156 min
Histogram: 1 0 0 0 0 0 0 0 0 1
Neighs:          72532 ave       74908 max       70156 min
Histogram: 1 0 0 0 0 0 0 0 0 1

Total # of neighbors = 145064
Ave neighs/atom = 529.43066
Ave special neighs/atom = 0
Neighbor list builds = 50
Dangerous builds not checked
##### Cool starts.##### 
Setting up Verlet run ...
  Unit style    : real
  Current step  : 12000
  Time step     : 0.5
Per MPI rank memory allocation (min/avg/max) = 188.1 | 188.5 | 188.8 Mbytes
   Step          Temp          Press         Density         PotEng         TotEng    
     12000   2388.7845      6568.4334      1.4974475     -30246.287     -28302.387    
     12100   2376.2422      28364.515      1.4974475     -30374.527     -28440.833    
     12200   2187.386      -6407.5384      1.4974475     -30380.653     -28600.643    
     12300   2173.8383      3716.5416      1.4974475     -30414.016     -28645.031    
     12400   2243.1093      1141.3573      1.4974475     -30507.771     -28682.416    
     12500   2104.1374     -2191.8884      1.4974475     -30530.941     -28818.676    
     12600   1999.1604     -340.88972      1.4974475     -30569.632     -28942.793    
     12700   2111.5805     -3498.976       1.4974475     -30564.028     -28845.706    
     12800   1988.29        20758.014      1.4974475     -30357.334     -28739.34     
     12900   2112.9237      16002.543      1.4974475     -30468.218     -28748.803    
     13000   1977.6013      18900.836      1.4974475     -30494.988     -28885.693    
     13100   1965.4763      21417.016      1.4974475     -30586.896     -28987.468    
     13200   1947.4553     -10019.615      1.4974475     -30620.995     -29036.231    
     13300   1869.9754      2922.3047      1.4974475     -30598.206     -29076.493    
     13400   1931.9191     -15609.577      1.4974475     -30762.187     -29190.067    
     13500   1888.9329      1706.4264      1.4974475     -30794.066     -29256.926    
     13600   1908.4043      5480.22        1.4974475     -30729.388     -29176.402    
     13700   2069.2286      4362.8617      1.4974475     -30753.631     -29069.773    
     13800   1937.4822      25343.941      1.4974475     -30750.791     -29174.143    
     13900   1771.2689      19750.823      1.4974475     -30756.404     -29315.014    
     14000   1745.7651     -1249.5493      1.4974475     -30771.052     -29350.416    
     14100   1785.0355      4322.8627      1.4974475     -30804.878     -29352.285    
     14200   1864.4218      21673.451      1.4974475     -30893.349     -29376.155    
     14300   1654.1364      30289.809      1.4974475     -30823.726     -29477.654    
     14400   1662.0857      33814.504      1.4974475     -30866.924     -29514.383    
     14500   1752.7212     -19226.711      1.4974475     -30826.65      -29400.353    
     14600   1878.0817      23376.212      1.4974475     -30860.331     -29332.021    
     14700   1687.8885      18898.798      1.4974475     -30906.026     -29532.488    
     14800   1585.3079     -5500.3372      1.4974475     -30855.838     -29565.776    
     14900   1624.8981     -21886.16       1.4974475     -30844.809     -29522.53     
     15000   1780.892      -4895.9823      1.4974475     -30934.512     -29485.291    
     15100   1546.6755     -4242.1078      1.4974475     -30890.266     -29631.641    
     15200   1530.8132      3457.6008      1.4974475     -30978.487     -29732.771    
     15300   1648.8034      26954.868      1.4974475     -31105.435     -29763.703    
     15400   1505.9642      15650.959      1.4974475     -31045.299     -29819.804    
     15500   1456.8622      9284.4044      1.4974475     -31122.45      -29936.912    
     15600   1451.6302     -14162.809      1.4974475     -31218.867     -30037.586    
     15700   1427.3926      4476.5552      1.4974475     -31198.779     -30037.222    
     15800   1564.759       7741.3315      1.4974475     -31288.56      -30015.22     
     15900   1450.3097      9165.222       1.4974475     -31185.57      -30005.365    
     16000   1508.1741     -14004.877      1.4974475     -31283.287     -30055.993    
     16100   1376.5624     -4526.8201      1.4974475     -31278.024     -30157.831    
     16200   1342.005      -5630.0421      1.4974475     -31262.339     -30170.267    
     16300   1344.0044     -8122.1612      1.4974475     -31216.516     -30122.818    
     16400   1352.4098     -38150.727      1.4974475     -31196.737     -30096.198    
     16500   1412.9978      10505.505      1.4974475     -31321.837     -30171.994    
     16600   1324.6006     -12762.487      1.4974475     -31361.674     -30283.765    
     16700   1337.6926      20360.861      1.4974475     -31418.436     -30329.873    
     16800   1282.4201     -16370.586      1.4974475     -31409.901     -30366.317    
     16900   1218.0604      2403.1666      1.4974475     -31354.036     -30362.825    
     17000   1421.497       22115.655      1.4974475     -31380.991     -30224.232    
     17100   1344.5724     -2041.4038      1.4974475     -31352.641     -30258.48     
     17200   1201.1993     -15397.34       1.4974475     -31359.472     -30381.983    
     17300   1292.6774      13128.2        1.4974475     -31519.032     -30467.101    
     17400   1190.3018      5562.174       1.4974475     -31517.429     -30548.808    
     17500   1154.256      -17218.953      1.4974475     -31540.305     -30601.016    
     17600   1175.4019      240.93183      1.4974475     -31599.274     -30642.777    
     17700   1071.7977     -1959.0479      1.4974475     -31519.202     -30647.015    
     17800   1166.5221      22298.64       1.4974475     -31546.905     -30597.635    
     17900   1108.3644     -14419.504      1.4974475     -31577.456     -30675.512    
     18000   1086.3608      9620.2698      1.4974475     -31649.016     -30764.978    
     18100   1045.3556      4159.1884      1.4974475     -31676.659     -30825.99     
     18200   1010.8713      17181.008      1.4974475     -31713.357     -30890.75     
     18300   999.87094      17501.438      1.4974475     -31735.879     -30922.223    
     18400   990.33515      17022.404      1.4974475     -31715.688     -30909.792    
     18500   1052.0791      1845.2755      1.4974475     -31692.364     -30836.223    
     18600   956.8043       901.15658      1.4974475     -31541.928     -30763.317    
     18700   1004.4362      8241.9907      1.4974475     -31673.45      -30856.079    
     18800   937.13101     -2549.8332      1.4974475     -31716.772     -30954.171    
     18900   991.54028      12200.25       1.4974475     -31856.3       -31049.423    
     19000   845.30411     -24171.789      1.4974475     -31809.816     -31121.94     
     19100   902.90296     -14672.388      1.4974475     -31902.27      -31167.523    
     19200   801.33194      11608.525      1.4974475     -31868.043     -31215.95     
     19300   838.66669      17203.835      1.4974475     -31906.971     -31224.497    
     19400   827.63313     -5659.3433      1.4974475     -31909.417     -31235.921    
     19500   748.56587      12324.254      1.4974475     -31911.685     -31302.531    
     19600   739.90256     -913.56879      1.4974475     -31944.627     -31342.523    
     19700   723.59293     -11280.1        1.4974475     -31952.468     -31363.637    
     19800   730.11516     -7283.5032      1.4974475     -31986.46      -31392.32     
     19900   688.39639      13217.628      1.4974475     -32032.882     -31472.692    
     20000   688.29423     -13361.334      1.4974475     -32054.749     -31494.642    
     20100   628.96438     -24198.478      1.4974475     -32016.04      -31504.213    
     20200   593.07829     -5527.015       1.4974475     -32017.95      -31535.325    
     20300   633.81024     -15952.351      1.4974475     -32116.783     -31601.013    
     20400   570.99566     -5057.1575      1.4974475     -32091.414     -31626.76     
     20500   590.52194     -6874.7008      1.4974475     -32095.935     -31615.391    
     20600   584.58565     -5110.2266      1.4974475     -32096.595     -31620.882    
     20700   567.03257     -2891.7621      1.4974475     -32157.45      -31696.021    
     20800   518.08655     -6974.9255      1.4974475     -32148.716     -31727.118    
     20900   525.43831      2252.0386      1.4974475     -32189.352     -31761.77     
     21000   492.85455      2934.5941      1.4974475     -32193.338     -31792.272    
     21100   466.7607      -411.57425      1.4974475     -32201.765     -31821.933    
     21200   451.03518     -20111.003      1.4974475     -32224.836     -31857.801    
     21300   458.46364     -11687.72       1.4974475     -32248.723     -31875.643    
     21400   445.55471     -895.84724      1.4974475     -32277.678     -31915.103    
     21500   391.32139     -15805.977      1.4974475     -32259.892     -31941.45     
     21600   394.74301     -8802.825       1.4974475     -32294.446     -31973.219    
     21700   387.88597     -3509.2545      1.4974475     -32320.347     -32004.7      
     21800   357.76189     -943.87856      1.4974475     -32327.087     -32035.954    
     21900   335.71971      10256.283      1.4974475     -32342.89      -32069.694    
     22000   308.33977      5248.293       1.4974475     -32357.601     -32106.686    
Loop time of 279.286 on 12 procs for 10000 steps with 274 atoms

Performance: 1.547 ns/day, 15.516 hours/ns, 35.806 timesteps/s, 9.811 katom-step/s
98.8% CPU use with 2 MPI tasks x 6 OpenMP threads

MPI task timing breakdown:
Section |  min time  |  avg time  |  max time  |%varavg| %total
---------------------------------------------------------------
Pair    | 232.11     | 233.4      | 234.69     |   8.4 | 83.57
Bond    | 0.002068   | 0.0023622  | 0.0026563  |   0.6 |  0.00
Neigh   | 2.1712     | 2.1724     | 2.1737     |   0.1 |  0.78
Comm    | 1.5996     | 2.893      | 4.1863     |  76.0 |  1.04
Output  | 0.034902   | 0.044038   | 0.053173   |   4.4 |  0.02
Modify  | 40.672     | 40.684     | 40.696     |   0.2 | 14.57
Other   |            | 0.08905    |            |       |  0.03

Nlocal:            137 ave         142 max         132 min
Histogram: 1 0 0 0 0 0 0 0 0 1
Nghost:         4088.5 ave        4099 max        4078 min
Histogram: 1 0 0 0 0 0 0 0 0 1
Neighs:          72732 ave       75062 max       70402 min
Histogram: 1 0 0 0 0 0 0 0 0 1

Total # of neighbors = 145464
Ave neighs/atom = 530.89051
Ave special neighs/atom = 0
Neighbor list builds = 100
Dangerous builds not checked
##### final equilibration starts.##### 
Setting up Verlet run ...
  Unit style    : real
  Current step  : 22000
  Time step     : 0.5
Per MPI rank memory allocation (min/avg/max) = 188.1 | 188.5 | 188.8 Mbytes
   Step          Temp          Press         Density         PotEng         TotEng    
     22000   308.33977      5248.1923      1.4974475     -32357.601     -32106.686    
     22100   303.83741      3265.7039      1.4971381     -32376.752     -32129.501    
     22200   303.53911      490.62715      1.5231941     -32397.316     -32150.308    
     22300   330.87944     -15434.55       1.5343132     -32430.433     -32161.176    
     22400   303.02366     -8476.6188      1.5343907     -32430.806     -32184.217    
     22500   300.33118     -3989.8889      1.5409087     -32437.515     -32193.117    
     22600   306.19227      1098.3046      1.5658268     -32438.2       -32189.033    
     22700   310.29363     -3963.5273      1.5772931     -32422.238     -32169.734    
     22800   312.11373      2142.8657      1.5792825     -32391.855     -32137.869    
     22900   316.30825      940.03156      1.5844141     -32398.204     -32140.804    
     23000   305.42174     -14054.244      1.5570719     -32415.171     -32166.631    
     23100   294.24995     -6095.2597      1.5641973     -32416.017     -32176.568    
     23200   295.9137       4003.2473      1.5600353     -32424.899     -32184.096    
     23300   289.14903      1890.0095      1.5595533     -32421.696     -32186.397    
     23400   297.99802      7779.5305      1.5583209     -32426.443     -32183.944    
     23500   312.79994      3999.1872      1.5605872     -32429.989     -32175.445    
     23600   304.44259      149.51553      1.5495587     -32417.06      -32169.316    
     23700   307.81638      189.44232      1.5425297     -32422.869     -32172.38     
     23800   291.15596      10366.641      1.5489507     -32431.243     -32194.311    
     23900   278.0306       16630.216      1.5418867     -32434.039     -32207.789    
     24000   315.00598     -12426.824      1.5490435     -32454.114     -32197.774    
     24100   325.68375      5930.1997      1.5604849     -32432.458     -32167.429    
     24200   331.64634      8126.2221      1.5531969     -32418.38      -32148.499    
     24300   320.54917      10504.97       1.5753741     -32428.688     -32167.838    
     24400   302.41685     -9166.3419      1.5892997     -32430.564     -32184.469    
     24500   283.39588     -2933.7535      1.5962111     -32422.202     -32191.585    
     24600   298.85492     -4024.8616      1.594576      -32433.77      -32190.573    
     24700   336.3279      -5397.7679      1.595294      -32446.541     -32172.85     
     24800   311.32364      2563.509       1.5869202     -32410.667     -32157.324    
     24900   307.06327      8188.9351      1.5803786     -32418.284     -32168.407    
     25000   309.31787      2760.8978      1.5531832     -32454.359     -32202.648    
     25100   282.01676      12140.215      1.5388091     -32436.441     -32206.946    
     25200   297.35547      256.9993       1.551806      -32434.182     -32192.205    
     25300   299.5215       984.87887      1.5615677     -32419.147     -32175.408    
     25400   295.33366      18319.764      1.5580771     -32414.527     -32174.196    
     25500   306.83456     -648.1617       1.5319087     -32426.449     -32176.759    
     25600   303.34512     -2598.0097      1.536156      -32422.489     -32175.639    
     25700   288.90559     -1375.7114      1.5262141     -32414.6       -32179.5      
     25800   309.7169       18107.334      1.5513976     -32437.333     -32185.298    
     25900   282.9667      -12501.826      1.5578156     -32427.545     -32197.278    
     26000   288.30828     -572.35232      1.5743434     -32457.804     -32223.19     
     26100   295.8647      -2068.0952      1.5836121     -32463.951     -32223.188    
     26200   298.63713     -511.60271      1.5926883     -32434.143     -32191.124    
     26300   307.47821     -1784.1429      1.6119587     -32433.646     -32183.432    
     26400   306.47988      7028.5639      1.6083134     -32434.749     -32185.347    
     26500   302.15777      5984.3144      1.5800012     -32426.206     -32180.322    
     26600   302.7038       10955.754      1.5701434     -32424.875     -32178.547    
     26700   320.43656     -5408.6038      1.5645669     -32435.031     -32174.273    
     26800   332.54543     -653.4172       1.5420978     -32436.036     -32165.424    
     26900   297.31442      19178.704      1.5712973     -32427.794     -32185.851    
     27000   294.31804     -4327.5827      1.5652369     -32443.484     -32203.979    
Loop time of 147.326 on 12 procs for 5000 steps with 274 atoms

Performance: 1.466 ns/day, 16.370 hours/ns, 33.938 timesteps/s, 9.299 katom-step/s
98.6% CPU use with 2 MPI tasks x 6 OpenMP threads

MPI task timing breakdown:
Section |  min time  |  avg time  |  max time  |%varavg| %total
---------------------------------------------------------------
Pair    | 123.24     | 124.23     | 125.22     |   8.9 | 84.32
Bond    | 0.00094432 | 0.0012344  | 0.0015244  |   0.8 |  0.00
Neigh   | 1.2439     | 1.246      | 1.248      |   0.2 |  0.85
Comm    | 0.58266    | 1.574      | 2.5653     |  79.0 |  1.07
Output  | 0.017105   | 0.021515   | 0.025925   |   3.0 |  0.01
Modify  | 20.198     | 20.209     | 20.221     |   0.3 | 13.72
Other   |            | 0.04583    |            |       |  0.03

Nlocal:            137 ave         146 max         128 min
Histogram: 1 0 0 0 0 0 0 0 0 1
Nghost:         4212.5 ave        4223 max        4202 min
Histogram: 1 0 0 0 0 0 0 0 0 1
Neighs:          76281 ave       80610 max       71952 min
Histogram: 1 0 0 0 0 0 0 0 0 1

Total # of neighbors = 152562
Ave neighs/atom = 556.79562
Ave special neighs/atom = 0
Neighbor list builds = 50
Dangerous builds not checked
System init for write_data ...
##### 333-EXP-11-vasp Final Density: 1.5652369206382439337 #####
Total wall time: 0:12:58
