LAMMPS (2 Aug 2023 - Update 2)
  using 1 OpenMP thread(s) per MPI task
Reading data file ...
  triclinic box = (0 0 0) to (17.6144 14.9838 17.4642) with tilt (-6.9346 2.088 0.8795)
  2 by 2 by 2 MPI processor grid
  reading atoms ...
  365 atoms
  reading velocities ...
  365 velocities
Finding 1-2 1-3 1-4 neighbors ...
  special bond factors lj:    0        0        0       
  special bond factors coul:  0        0        0       
     0 = max # of 1-2 neighbors
     0 = max # of 1-3 neighbors
     0 = max # of 1-4 neighbors
     1 = max # of special neighbors
  special bonds CPU = 0.001 seconds
  read_data CPU = 0.016 seconds
WARNING: Van der Waals parameters for element SI indicate inner wall+shielding, but earlier atoms indicate a different van der Waals method. This may cause division-by-zero errors. Keeping van der Waals setting for earlier atoms. (src/REAXFF/reaxff_ffield.cpp:251)
System init for write_restart ...
Neighbor list info ...
  update: every = 1 steps, delay = 0 steps, check = yes
  max neighbors/atom: 2000, page size: 100000
  master list distance cutoff = 12
  ghost atom cutoff = 12
  binsize = 6, bins = 5 3 3
  2 neighbor lists, perpetual/occasional/extra = 2 0 0
  (1) pair reaxff, perpetual
      attributes: half, newton off, ghost
      pair build: half/bin/newtoff/ghost
      stencil: full/ghost/bin/3d
      bin: standard
  (2) fix qeq/reaxff, perpetual, copy from (1)
      attributes: half, newton off
      pair build: copy
      stencil: none
      bin: none
  using 1 OpenMP thread(s) per MPI task
Reading restart file ...
  restart file = 2 Aug 2023, LAMMPS = 2 Aug 2023
  restoring atom style full from restart
  triclinic box = (0 0 0) to (17.6144 14.9838 17.4642) with tilt (-6.9346 2.088 0.8795)
  2 by 2 by 2 MPI processor grid
  pair style reaxff stores no restart info
  365 atoms
Finding 1-2 1-3 1-4 neighbors ...
  special bond factors lj:    0        0        0       
  special bond factors coul:  0        0        0       
     0 = max # of 1-2 neighbors
     0 = max # of 1-3 neighbors
     0 = max # of 1-4 neighbors
     1 = max # of special neighbors
  special bonds CPU = 0.000 seconds
  read_restart CPU = 0.005 seconds
*****debug*****
xy = -6.9345999999999996533, deltaxy = 0.069346
xz = 2.0880000000000000782, deltaxz = -0.02088
yz = 0.87949999999999994849, deltayz = -0.008795
*****
*****Negative-deform 1 starts.*****
WARNING: Van der Waals parameters for element SI indicate inner wall+shielding, but earlier atoms indicate a different van der Waals method. This may cause division-by-zero errors. Keeping van der Waals setting for earlier atoms. (src/REAXFF/reaxff_ffield.cpp:251)

CITE-CITE-CITE-CITE-CITE-CITE-CITE-CITE-CITE-CITE-CITE-CITE-CITE

Your simulation uses code contributions which should be cited:
- pair reaxff command: doi:10.1016/j.parco.2011.08.005
- fix qeq/reaxff command: doi:10.1016/j.parco.2011.08.005
The log file lists these citations in BibTeX format.

CITE-CITE-CITE-CITE-CITE-CITE-CITE-CITE-CITE-CITE-CITE-CITE-CITE

Neighbor list info ...
  update: every = 10 steps, delay = 0 steps, check = yes
  max neighbors/atom: 2000, page size: 100000
  master list distance cutoff = 12
  ghost atom cutoff = 12
  binsize = 6, bins = 5 3 3
  2 neighbor lists, perpetual/occasional/extra = 2 0 0
  (1) pair reaxff, perpetual
      attributes: half, newton off, ghost
      pair build: half/bin/newtoff/ghost
      stencil: full/ghost/bin/3d
      bin: standard
  (2) fix qeq/reaxff, perpetual, copy from (1)
      attributes: half, newton off
      pair build: copy
      stencil: none
      bin: none
Setting up Verlet run ...
  Unit style    : real
  Current step  : 0
  Time step     : 0.5
Per MPI rank memory allocation (min/avg/max) = 109.6 | 111.5 | 113.4 Mbytes
   Step          Temp          PotEng         Press          Volume    
         0   300           -37082.094     -7693.3209      4609.3376    
       100   319.383       -37126.91      -2009.4243      4608.8767    
       200   326.54577     -37153.896      158.75012      4608.4157    
       300   270.2493      -37090.425     -2557.1602      4607.9548    
       400   310.65408     -37126.252     -5812.9139      4607.4939    
       500   318.86808     -37111.502     -2522.2113      4607.0329    
       600   319.95143     -37082.568     -8183.2018      4606.572     
       700   305.68365     -37089.676     -4326.0985      4606.1111    
       800   307.36283     -37109.951     -5948.1576      4605.6501    
       900   278.15051     -37096.825      5067.6182      4605.1892    
      1000   310.06315     -37142.328      1261.6197      4604.7283    
      1100   337.75096     -37166.321     -7210.8116      4604.2673    
      1200   281.03627     -37073.618     -2456.3642      4603.8064    
      1300   317.81778     -37099.913     -7280.7785      4603.3455    
      1400   317.0464      -37135.085     -3438.7969      4602.8845    
      1500   308.33442     -37138.292      6205.6187      4602.4236    
      1600   300.66389     -37125.973      5449.4858      4601.9627    
      1700   264.96443     -37075.824     -1516.0803      4601.5017    
      1800   327.69421     -37135.837     -6209.1471      4601.0408    
      1900   309.94055     -37130.603     -1613.3117      4600.5799    
      2000   280.5172      -37125.743     -5981.0211      4600.1189    
      2100   312.90464     -37164.107      4951.6601      4599.658     
      2200   327.84063     -37159.703      699.02618      4599.1971    
      2300   280.14922     -37068.991     -3958.9307      4598.7361    
      2400   321.69062     -37111.865      1371.7282      4598.2752    
      2500   308.80788     -37115.629     -4393.7416      4597.8143    
      2600   324.95858     -37152.133      3179.9237      4597.3533    
      2700   287.30329     -37104.652      731.63384      4596.8924    
      2800   285.10885     -37098.622     -50.251468      4596.4315    
      2900   330.32739     -37162.481     -2281.99        4595.9705    
      3000   282.84594     -37133.568     -4815.8038      4595.5096    
      3100   285.07189     -37129.027     -11736.658      4595.0487    
      3200   274.82725     -37086.737      4951.0219      4594.5877    
      3300   320.06623     -37125.33      -10808.819      4594.1268    
      3400   372.36875     -37194.606     -2680.6789      4593.6659    
      3500   289.7452      -37138.032     -2801.5929      4593.2049    
      3600   289.84346     -37156.858     -8114.0281      4592.744     
      3700   312.77108     -37204.801     -6230.3377      4592.2831    
      3800   282.64862     -37163.147      6693.9783      4591.8221    
      3900   337.56587     -37197.031     -1824.6284      4591.3612    
      4000   290.55829     -37147.969     -7659.5348      4590.9003    
      4100   294.31684     -37163.083     -9182.3605      4590.4393    
      4200   334.42421     -37213.873     -3412.7365      4589.9784    
      4300   281.93613     -37149.531     -5544.3911      4589.5174    
      4400   325.94166     -37204.974     -13732.475      4589.0565    
      4500   260.63638     -37165.456     -12458.047      4588.5956    
      4600   273.38317     -37188.959     -5935.5104      4588.1346    
      4700   306.8973      -37207.48       2909.0591      4587.6737    
      4800   288.76872     -37170.519     -2554.6762      4587.2128    
      4900   314.2712      -37199.155     -5956.4078      4586.7518    
      5000   285.97452     -37163.539     -9306.7093      4586.2909    
      5100   335.25499     -37209.29      -5913.7446      4585.83      
      5200   338.79223     -37195.45      -1047.0429      4585.369     
      5300   272.08023     -37118.766      3357.3917      4584.9081    
      5400   282.77511     -37157.255     -3750.1302      4584.4472    
      5500   282.83286     -37181.772      2696.0405      4583.9862    
      5600   296.06692     -37190.948     -7142.6647      4583.5253    
      5700   273.34017     -37154.764      3085.269       4583.0644    
      5800   317.77226     -37173.245     -6567.807       4582.6034    
      5900   346.90792     -37189.013     -14235.546      4582.1425    
      6000   291.43273     -37164.513      878.8314       4581.6816    
      6100   283.6196      -37169.256      539.55567      4581.2206    
      6200   319.04058     -37204.264     -16139.634      4580.7597    
      6300   286.71338     -37160.317     -4575.2016      4580.2988    
      6400   289.07807     -37140.028     -1787.6453      4579.8378    
      6500   340.90351     -37179.788     -8915.8975      4579.3769    
      6600   328.00606     -37186.486     -2355.9279      4578.916     
      6700   277.37671     -37147.52      -5185.314       4578.455     
      6800   285.3704      -37158.617     -2992.8809      4577.9941    
      6900   296.24543     -37177.629      1561.8365      4577.5332    
      7000   298.35952     -37196.12       5340.5862      4577.0722    
      7100   280.70538     -37200.581     -6242.053       4576.6113    
      7200   305.16795     -37222.661     -18420.416      4576.1504    
      7300   275.73631     -37147.497     -11673.63       4575.6894    
      7400   293.19645     -37154.124     -2856.4351      4575.2285    
      7500   294.51902     -37159.273      7893.1905      4574.7676    
      7600   325.19913     -37213.165     -1000.9812      4574.3066    
      7700   288.72737     -37197.569     -8857.9812      4573.8457    
      7800   273.5764      -37189.953     -10048.489      4573.3848    
      7900   322.16841     -37232.465     -2648.9493      4572.9238    
      8000   322.53696     -37195.619     -4045.4877      4572.4629    
      8100   282.71534     -37149.069     -2300.6494      4572.002     
      8200   288.60676     -37173.75      -4481.0194      4571.541     
      8300   297.92996     -37211.25      -11714.183      4571.0801    
      8400   294.5862      -37205.165     -6238.723       4570.6192    
      8500   280.99605     -37179.935     -2907.0696      4570.1582    
      8600   276.32717     -37166.587      7836.3382      4569.6973    
      8700   329.02475     -37225.271     -7527.0846      4569.2364    
      8800   300.34992     -37198.645      14089.441      4568.7754    
      8900   275.32259     -37180.548      36.321009      4568.3145    
      9000   303.06506     -37251.8       -2191.882       4567.8536    
      9100   258.34166     -37199.888     -2443.2994      4567.3926    
      9200   303.32608     -37229.453     -3297.5561      4566.9317    
      9300   289.73506     -37193.173      9101.059       4566.4708    
      9400   303.2957      -37194.39      -2375.2933      4566.0098    
      9500   331.63656     -37213.603      2777.0136      4565.5489    
      9600   296.2341      -37177.878     -2804.1008      4565.088     
      9700   265.04865     -37179.852     -8801.9701      4564.627     
      9800   306.1537      -37232.188      280.81264      4564.1661    
      9900   292.26842     -37193.317     -2424.5739      4563.7052    
     10000   298.8857      -37183.565     -3324.8468      4563.2442    
Loop time of 359.761 on 8 procs for 10000 steps with 365 atoms

Performance: 1.201 ns/day, 19.987 hours/ns, 27.796 timesteps/s, 10.146 katom-step/s
98.6% CPU use with 8 MPI tasks x 1 OpenMP threads

MPI task timing breakdown:
Section |  min time  |  avg time  |  max time  |%varavg| %total
---------------------------------------------------------------
Pair    | 270.17     | 296.79     | 312.35     |  80.1 | 82.50
Bond    | 0.027209   | 0.03039    | 0.033378   |   1.0 |  0.01
Neigh   | 5.2649     | 5.6522     | 5.9076     |   9.2 |  1.57
Comm    | 5.1464     | 20.659     | 47.312     | 304.1 |  5.74
Output  | 0.033875   | 0.097003   | 0.21201    |  19.2 |  0.03
Modify  | 36.055     | 36.285     | 36.672     |   3.7 | 10.09
Other   |            | 0.2465     |            |       |  0.07

Nlocal:         45.625 ave          53 max          38 min
Histogram: 2 0 1 0 1 1 0 0 1 2
Nghost:        2838.75 ave        2877 max        2801 min
Histogram: 1 1 0 1 1 1 1 1 0 1
Neighs:        25279.1 ave       29318 max       21330 min
Histogram: 2 1 0 1 0 1 0 0 1 2

Total # of neighbors = 202233
Ave neighs/atom = 554.06301
Ave special neighs/atom = 0
Neighbor list builds = 233
Dangerous builds = 0
  using 1 OpenMP thread(s) per MPI task
Reading restart file ...
  restart file = 2 Aug 2023, LAMMPS = 2 Aug 2023
  restoring atom style full from restart
  triclinic box = (0 0 0) to (17.6144 14.9838 17.4642) with tilt (-6.9346 2.088 0.8795)
  2 by 2 by 2 MPI processor grid
  pair style reaxff stores no restart info
  365 atoms
Finding 1-2 1-3 1-4 neighbors ...
  special bond factors lj:    0        0        0       
  special bond factors coul:  0        0        0       
     0 = max # of 1-2 neighbors
     0 = max # of 1-3 neighbors
     0 = max # of 1-4 neighbors
     1 = max # of special neighbors
  special bonds CPU = 0.000 seconds
  read_restart CPU = 0.003 seconds
*****Positive-deform 1 starts.*****
WARNING: Van der Waals parameters for element SI indicate inner wall+shielding, but earlier atoms indicate a different van der Waals method. This may cause division-by-zero errors. Keeping van der Waals setting for earlier atoms. (src/REAXFF/reaxff_ffield.cpp:251)
Neighbor list info ...
  update: every = 10 steps, delay = 0 steps, check = yes
  max neighbors/atom: 2000, page size: 100000
  master list distance cutoff = 12
  ghost atom cutoff = 12
  binsize = 6, bins = 5 3 3
  2 neighbor lists, perpetual/occasional/extra = 2 0 0
  (1) pair reaxff, perpetual
      attributes: half, newton off, ghost
      pair build: half/bin/newtoff/ghost
      stencil: full/ghost/bin/3d
      bin: standard
  (2) fix qeq/reaxff, perpetual, copy from (1)
      attributes: half, newton off
      pair build: copy
      stencil: none
      bin: none
Setting up Verlet run ...
  Unit style    : real
  Current step  : 0
  Time step     : 0.5
Per MPI rank memory allocation (min/avg/max) = 109.6 | 111.5 | 113.4 Mbytes
   Step          Temp          PotEng         Press          Volume    
         0   300           -37082.094     -7693.3209      4609.3376    
       100   319.38672     -37126.928     -2017.7032      4609.7985    
       200   326.31625     -37153.813     -141.32726      4610.2595    
       300   270.41442     -37090.451     -2836.0329      4610.7204    
       400   310.43243     -37125.649     -6132.0095      4611.1813    
       500   318.53078     -37110.974     -3016.7824      4611.6423    
       600   321.70234     -37084.562     -9726.4985      4612.1032    
       700   306.03759     -37091.044     -5017.7597      4612.5641    
       800   306.81208     -37109.702     -3594.6125      4613.0251    
       900   282.31934     -37102.337     -587.65993      4613.486     
      1000   304.93771     -37139.064      6563.6111      4613.9469    
      1100   330.93423     -37159.78      -9358.7758      4614.4079    
      1200   278.91921     -37071.619     -542.43467      4614.8688    
      1300   314.0645      -37092.142     -13757.322      4615.3297    
      1400   300.08134     -37108.179     -9238.1742      4615.7907    
      1500   327.707       -37162.552     -2779.3691      4616.2516    
      1600   287.01952     -37118.539     -3300.6393      4616.7125    
      1700   293.15538     -37130.863     -8688.929       4617.1735    
      1800   322.18164     -37184.12       3518.9385      4617.6344    
      1900   273.13766     -37145.187     -2760.4152      4618.0953    
      2000   334.00594     -37185.821     -133.17372      4618.5563    
      2100   281.89058     -37100.783     -4182.3346      4619.0172    
      2200   302.08608     -37133.933     -1353.3918      4619.4781    
      2300   279.37894     -37129.344      11923.004      4619.9391    
      2400   307.76142     -37158.191     -384.30353      4620.4       
      2500   286.42353     -37100.208     -14132.309      4620.8609    
      2600   333.471       -37138.293     -8126.5711      4621.3219    
      2700   303.65222     -37121.691     -4662.3069      4621.7828    
      2800   295.98048     -37123.437     -15285.264      4622.2437    
      2900   302.10485     -37132.934     -5600.5369      4622.7047    
      3000   272.10981     -37107.766      2377.3289      4623.1656    
      3100   274.95282     -37121.774     -4025.9834      4623.6265    
      3200   314.23274     -37166.778     -55.24126       4624.0875    
      3300   313.79088     -37166.857     -14782.926      4624.5484    
      3400   271.09374     -37129.151     -12093.217      4625.0093    
      3500   306.897       -37178.083     -2901.3707      4625.4703    
      3600   335.20391     -37217.467     -4603.9223      4625.9312    
      3700   283.66649     -37158.078     -18009.823      4626.3921    
      3800   284.76696     -37145.285     -3475.7756      4626.8531    
      3900   323.43589     -37159.599     -16192.24       4627.314     
      4000   333.88782     -37165.757     -13124.22       4627.775     
      4100   315.24592     -37152.777     -1032.7749      4628.2359    
      4200   268.89614     -37141.489     -4790.9454      4628.6968    
      4300   288.12222     -37173.342      1749.2092      4629.1578    
      4400   319.31246     -37192.966      2065.9235      4629.6187    
      4500   310.65798     -37161.184     -8881.4268      4630.0796    
      4600   315.60457     -37171.56      -912.91409      4630.5406    
      4700   290.66165     -37151.518     -8463.4934      4631.0015    
      4800   279.41555     -37143.832     -6387.3197      4631.4624    
      4900   285.67905     -37149.104      662.35124      4631.9234    
      5000   342.00279     -37213.492     -10344.629      4632.3843    
      5100   328.04544     -37202.421     -3298.7424      4632.8452    
      5200   283.88668     -37152.346     -236.83109      4633.3062    
      5300   277.7055      -37140.517     -4853.5973      4633.7671    
      5400   288.08708     -37134.981     -3141.0331      4634.228     
      5500   340.82786     -37174.934      2627.4028      4634.689     
      5600   343.25008     -37180.898     -123.45023      4635.1499    
      5700   280.96879     -37152.563     -9382.4168      4635.6108    
      5800   284.43206     -37168.611     -3086.4366      4636.0718    
      5900   321.26597     -37206.311      7690.1561      4636.5327    
      6000   305.35928     -37170.643      1483.6109      4636.9936    
      6100   303.544       -37153.358     -3508.987       4637.4546    
      6200   292.54181     -37131.157     -13004.004      4637.9155    
      6300   292.1025      -37159.514     -7965.0223      4638.3764    
      6400   278.3946      -37172.594     -16582.204      4638.8374    
      6500   325.66986     -37234.362      1996.8698      4639.2983    
      6600   288.71592     -37198.78       3497.8723      4639.7592    
      6700   299.96621     -37197.724     -10275.643      4640.2202    
      6800   347.97196     -37233.744     -7648.2059      4640.6811    
      6900   302.84997     -37200.759     -12682.375      4641.142     
      7000   269.10975     -37191.863     -2822.1701      4641.603     
      7100   301.11254     -37234.997     -15241.599      4642.0639    
      7200   310.95104     -37238.322     -10444.378      4642.5248    
      7300   269.79686     -37183.705     -2535.654       4642.9858    
      7400   331.62648     -37212.43       206.01464      4643.4467    
      7500   356.8931      -37247.851      4935.2583      4643.9076    
      7600   287.97858     -37198.774      2556.5725      4644.3686    
      7700   278.45143     -37196.775      5172.8773      4644.8295    
      7800   316.62993     -37256.79      -9175.3085      4645.2904    
      7900   258.57257     -37209.036     -4589.5506      4645.7514    
      8000   309.84135     -37259.708     -952.82208      4646.2123    
      8100   272.95078     -37208.139     -4747.5228      4646.6732    
      8200   324.09796     -37256.703     -6150.2215      4647.1342    
      8300   278.54499     -37200.285     -2716.6969      4647.5951    
      8400   324.21374     -37238.451     -3982.5134      4648.056     
      8500   320.09734     -37205.63      -1457.1326      4648.517     
      8600   292.28307     -37174.605     -5667.9255      4648.9779    
      8700   310.20525     -37238.018     -1386.6579      4649.4388    
      8800   301.26969     -37243.195     -8735.5721      4649.8998    
      8900   264.86146     -37203.604     -8322.8965      4650.3607    
      9000   325.91638     -37249.671     -13441.956      4650.8216    
      9100   299.12089     -37202.73      -3587.0685      4651.2826    
      9200   294.56223     -37216.433      257.174        4651.7435    
      9300   295.08133     -37250.805      1249.1921      4652.2044    
      9400   295.69759     -37246.868      7289.2606      4652.6654    
      9500   318.97226     -37259.367      4721.9648      4653.1263    
      9600   271.07412     -37192.523      9211.0347      4653.5872    
      9700   346.01329     -37265.803      3511.8845      4654.0482    
      9800   282.72565     -37212.179     -6309.3585      4654.5091    
      9900   303.24035     -37256.513     -3263.9189      4654.97      
     10000   265.44789     -37213.356     -1434.2275      4655.431     
Loop time of 349.883 on 8 procs for 10000 steps with 365 atoms

Performance: 1.235 ns/day, 19.438 hours/ns, 28.581 timesteps/s, 10.432 katom-step/s
98.6% CPU use with 8 MPI tasks x 1 OpenMP threads

MPI task timing breakdown:
Section |  min time  |  avg time  |  max time  |%varavg| %total
---------------------------------------------------------------
Pair    | 227.89     | 275.22     | 302.99     | 136.6 | 78.66
Bond    | 0.026307   | 0.029452   | 0.03102    |   0.8 |  0.01
Neigh   | 4.4042     | 5.0572     | 5.4829     |  14.0 |  1.45
Comm    | 5.2021     | 32.945     | 80.274     | 394.6 |  9.42
Output  | 0.0311     | 0.091305   | 0.19548    |  18.1 |  0.03
Modify  | 35.858     | 36.307     | 36.952     |   5.2 | 10.38
Other   |            | 0.2341     |            |       |  0.07

Nlocal:         45.625 ave          54 max          33 min
Histogram: 1 0 0 1 1 1 1 0 0 3
Nghost:        2819.38 ave        2856 max        2788 min
Histogram: 2 0 0 2 0 2 0 0 0 2
Neighs:        24731.9 ave       28822 max       18191 min
Histogram: 1 0 0 1 1 1 1 0 0 3

Total # of neighbors = 197855
Ave neighs/atom = 542.06849
Ave special neighs/atom = 0
Neighbor list builds = 217
Dangerous builds = 0
  using 1 OpenMP thread(s) per MPI task
Reading restart file ...
  restart file = 2 Aug 2023, LAMMPS = 2 Aug 2023
  restoring atom style full from restart
  triclinic box = (0 0 0) to (17.6144 14.9838 17.4642) with tilt (-6.9346 2.088 0.8795)
  2 by 2 by 2 MPI processor grid
  pair style reaxff stores no restart info
  365 atoms
Finding 1-2 1-3 1-4 neighbors ...
  special bond factors lj:    0        0        0       
  special bond factors coul:  0        0        0       
     0 = max # of 1-2 neighbors
     0 = max # of 1-3 neighbors
     0 = max # of 1-4 neighbors
     1 = max # of special neighbors
  special bonds CPU = 0.000 seconds
  read_restart CPU = 0.003 seconds
*****debug*****
xy = -6.9345999999999996533, deltaxy = 0.069346
xz = 2.0880000000000000782, deltaxz = -0.02088
yz = 0.87949999999999994849, deltayz = -0.008795
*****
*****Negative-deform 2 starts.*****
WARNING: Van der Waals parameters for element SI indicate inner wall+shielding, but earlier atoms indicate a different van der Waals method. This may cause division-by-zero errors. Keeping van der Waals setting for earlier atoms. (src/REAXFF/reaxff_ffield.cpp:251)
Neighbor list info ...
  update: every = 10 steps, delay = 0 steps, check = yes
  max neighbors/atom: 2000, page size: 100000
  master list distance cutoff = 12
  ghost atom cutoff = 12
  binsize = 6, bins = 5 3 3
  2 neighbor lists, perpetual/occasional/extra = 2 0 0
  (1) pair reaxff, perpetual
      attributes: half, newton off, ghost
      pair build: half/bin/newtoff/ghost
      stencil: full/ghost/bin/3d
      bin: standard
  (2) fix qeq/reaxff, perpetual, copy from (1)
      attributes: half, newton off
      pair build: copy
      stencil: none
      bin: none
Setting up Verlet run ...
  Unit style    : real
  Current step  : 0
  Time step     : 0.5
Per MPI rank memory allocation (min/avg/max) = 109.6 | 111.5 | 113.4 Mbytes
   Step          Temp          PotEng         Press          Volume    
         0   300           -37082.094     -7693.3209      4609.3376    
       100   319.38533     -37126.918     -2013.744       4608.8767    
       200   326.55292     -37153.888      197.46523      4608.4157    
       300   270.40237     -37090.528     -2471.7352      4607.9548    
       400   310.76445     -37126.359     -5986.1324      4607.4939    
       500   318.82697     -37111.566     -3065.5915      4607.0329    
       600   320.63504     -37083.694     -8262.351       4606.572     
       700   306.57355     -37091.16      -4014.2979      4606.1111    
       800   307.92383     -37111.033     -6515.5107      4605.6501    
       900   282.83604     -37102.733      3405.1977      4605.1892    
      1000   307.90684     -37140.474      2733.4526      4604.7283    
      1100   331.5232      -37158.598     -6626.1439      4604.2673    
      1200   273.36624     -37064.02      -1251.9771      4603.8064    
      1300   326.09599     -37107.227     -9090.9318      4603.3455    
      1400   310.08204     -37122.976     -4711.0347      4602.8845    
      1500   317.16286     -37148.042      334.97151      4602.4236    
      1600   306.38334     -37136.043      2559.9048      4601.9627    
      1700   270.56587     -37096.397     -4348.2175      4601.5017    
      1800   337.67502     -37169.154      6994.4306      4601.0408    
      1900   297.02944     -37119.498     -6619.5506      4600.5799    
      2000   318.48339     -37144.297      139.90435      4600.1189    
      2100   278.59734     -37095.739      2484.2062      4599.658     
      2200   266.43758     -37096.679     -7055.7634      4599.1971    
      2300   298.66263     -37143.119     -8136.4658      4598.7361    
      2400   325.78617     -37152.931      2415.4773      4598.2752    
      2500   308.54639     -37103.566     -2009.514       4597.8143    
      2600   340.35905     -37141.177      517.5973       4597.3533    
      2700   329.6915      -37148.465     -2729.0736      4596.8924    
      2800   307.43958     -37140.045     -4424.9721      4596.4315    
      2900   317.92829     -37154.138     -5144.4627      4595.9705    
      3000   286.89374     -37128.867     -7665.8575      4595.5096    
      3100   304.51883     -37154.223     -5241.8975      4595.0487    
      3200   296.15059     -37130.989      6116.6023      4594.5877    
      3300   293.21601     -37093.88       310.64486      4594.1268    
      3400   294.58011     -37094.549      3838.0336      4593.6659    
      3500   285.93022     -37109.768     -5775.8506      4593.2049    
      3600   302.59593     -37148.443     -183.89406      4592.744     
      3700   322.63768     -37169.726     -4758.3944      4592.2831    
      3800   313.02439     -37155.907     -298.33         4591.8221    
      3900   312.0634      -37143.58       1341.9447      4591.3612    
      4000   314.18615     -37144.208     -13859.962      4590.9003    
      4100   305.88017     -37141.442      57.254505      4590.4393    
      4200   297.42475     -37170.676     -6899.6825      4589.9784    
      4300   288.31331     -37157.435      3511.3483      4589.5174    
      4400   294.5513      -37132.154     -1235.9475      4589.0565    
      4500   303.12459     -37121.647     -5595.7709      4588.5956    
      4600   328.9249      -37151.24      -10785.45       4588.1346    
      4700   321.02384     -37166.378     -4509.005       4587.6737    
      4800   310.33175     -37180.139     -1353.2643      4587.2128    
      4900   290.78984     -37155.775     -1492.7681      4586.7518    
      5000   276.53604     -37126.369     -3097.5398      4586.2909    
      5100   273.2351      -37108.978     -1679.3559      4585.83      
      5200   299.46739     -37130.017      5860.9447      4585.369     
      5300   307.31684     -37150.712      1705.0423      4584.9081    
      5400   276.92312     -37157.392     -12476.117      4584.4472    
      5500   282.85648     -37165.718      2326.4393      4583.9862    
      5600   304.23595     -37163.871      2264.7205      4583.5253    
      5700   328.70856     -37176.279     -4069.1801      4583.0644    
      5800   279.59446     -37117.442     -6062.0611      4582.6034    
      5900   294.47053     -37147.71       655.32632      4582.1425    
      6000   271.60193     -37159.219      6156.8373      4581.6816    
      6100   276.12112     -37160.01       396.39748      4581.2206    
      6200   288.05169     -37155.465     -5966.361       4580.7597    
      6300   327.75152     -37182.959     -8515.3838      4580.2988    
      6400   333.49771     -37182.78      -17942.449      4579.8378    
      6500   316.95444     -37169.308     -2763.9507      4579.3769    
      6600   319.66074     -37199.651      3957.3869      4578.916     
      6700   311.07084     -37208.894      3493.3175      4578.455     
      6800   288.71327     -37178.261     -6853.7164      4577.9941    
      6900   270.6272      -37134.78      -6513.5763      4577.5332    
      7000   284.96064     -37130.868      5835.508       4577.0722    
      7100   292.04726     -37142.187     -6429.6226      4576.6113    
      7200   259.69957     -37123.208     -8590.8248      4576.1504    
      7300   287.89995     -37152.141     -1735.7951      4575.6894    
      7400   271.15845     -37131.081      7909.4701      4575.2285    
      7500   296.70264     -37161.751     -8861.8998      4574.7676    
      7600   293.9561      -37181.169     -5414.8147      4574.3066    
      7700   275.76756     -37182.022      941.37336      4573.8457    
      7800   257.17395     -37153.47      -12903.84       4573.3848    
      7900   274.72247     -37136.272     -2367.2717      4572.9238    
      8000   277.98772     -37136.812     -3577.0474      4572.4629    
      8100   278.20647     -37139.048      637.55348      4572.002     
      8200   262.64443     -37139.376      1740.3031      4571.541     
      8300   279.17336     -37173.681     -4767.8022      4571.0801    
      8400   272.19689     -37183.241     -7805.9797      4570.6192    
      8500   294.20582     -37204.931     -4471.1823      4570.1582    
      8600   331.56888     -37207.781      5234.4336      4569.6973    
      8700   322.11735     -37194.18      -13211.459      4569.2364    
      8800   317.47665     -37184.284      7197.5236      4568.7754    
      8900   326.99998     -37188.405      365.70354      4568.3145    
      9000   310.7654      -37184.035     -6671.1843      4567.8536    
      9100   279.11445     -37174.175     -9746.1433      4567.3926    
      9200   303.43034     -37212.114     -12159.793      4566.9317    
      9300   302.95578     -37190.236      2165.803       4566.4708    
      9400   321.77084     -37184.189      1202.3762      4566.0098    
      9500   329.38959     -37194.998      4356.6036      4565.5489    
      9600   323.06791     -37203.658      6952.3446      4565.088     
      9700   324.00031     -37225.305      1894.167       4564.627     
      9800   300.72041     -37226.339     -2568.4204      4564.1661    
      9900   294.85521     -37218.697      1008.3928      4563.7052    
     10000   308.94521     -37188.374     -3921.2267      4563.2442    
Loop time of 336.964 on 8 procs for 10000 steps with 365 atoms

Performance: 1.282 ns/day, 18.720 hours/ns, 29.677 timesteps/s, 10.832 katom-step/s
98.7% CPU use with 8 MPI tasks x 1 OpenMP threads

MPI task timing breakdown:
Section |  min time  |  avg time  |  max time  |%varavg| %total
---------------------------------------------------------------
Pair    | 188.86     | 250.77     | 282.6      | 227.5 | 74.42
Bond    | 0.024537   | 0.027342   | 0.029004   |   0.8 |  0.01
Neigh   | 5.2764     | 6.7149     | 7.793      |  35.9 |  1.99
Comm    | 12.057     | 43.883     | 105.8      | 543.9 | 13.02
Output  | 0.029575   | 0.085254   | 0.17937    |  17.0 |  0.03
Modify  | 34.17      | 35.261     | 36.681     |  15.6 | 10.46
Other   |            | 0.2221     |            |       |  0.07

Nlocal:         45.625 ave          52 max          31 min
Histogram: 1 0 0 0 0 1 1 1 2 2
Nghost:        2839.38 ave        2879 max        2795 min
Histogram: 2 0 1 0 1 0 1 0 1 2
Neighs:        25269.6 ave       28845 max       17560 min
Histogram: 1 0 0 0 0 1 1 1 2 2

Total # of neighbors = 202157
Ave neighs/atom = 553.85479
Ave special neighs/atom = 0
Neighbor list builds = 305
Dangerous builds = 0
  using 1 OpenMP thread(s) per MPI task
Reading restart file ...
  restart file = 2 Aug 2023, LAMMPS = 2 Aug 2023
  restoring atom style full from restart
  triclinic box = (0 0 0) to (17.6144 14.9838 17.4642) with tilt (-6.9346 2.088 0.8795)
  2 by 2 by 2 MPI processor grid
  pair style reaxff stores no restart info
  365 atoms
Finding 1-2 1-3 1-4 neighbors ...
  special bond factors lj:    0        0        0       
  special bond factors coul:  0        0        0       
     0 = max # of 1-2 neighbors
     0 = max # of 1-3 neighbors
     0 = max # of 1-4 neighbors
     1 = max # of special neighbors
  special bonds CPU = 0.000 seconds
  read_restart CPU = 0.003 seconds
*****Positive-deform 2 starts.*****
WARNING: Van der Waals parameters for element SI indicate inner wall+shielding, but earlier atoms indicate a different van der Waals method. This may cause division-by-zero errors. Keeping van der Waals setting for earlier atoms. (src/REAXFF/reaxff_ffield.cpp:251)
Neighbor list info ...
  update: every = 10 steps, delay = 0 steps, check = yes
  max neighbors/atom: 2000, page size: 100000
  master list distance cutoff = 12
  ghost atom cutoff = 12
  binsize = 6, bins = 5 3 3
  2 neighbor lists, perpetual/occasional/extra = 2 0 0
  (1) pair reaxff, perpetual
      attributes: half, newton off, ghost
      pair build: half/bin/newtoff/ghost
      stencil: full/ghost/bin/3d
      bin: standard
  (2) fix qeq/reaxff, perpetual, copy from (1)
      attributes: half, newton off
      pair build: copy
      stencil: none
      bin: none
Setting up Verlet run ...
  Unit style    : real
  Current step  : 0
  Time step     : 0.5
Per MPI rank memory allocation (min/avg/max) = 109.6 | 111.5 | 113.4 Mbytes
   Step          Temp          PotEng         Press          Volume    
         0   300           -37082.094     -7693.3209      4609.3376    
       100   319.38434     -37126.919     -2013.3676      4609.7985    
       200   326.32769     -37153.81      -174.2059       4610.2595    
       300   270.32361     -37090.335     -2852.6697      4610.7204    
       400   310.20827     -37125.472     -6007.0959      4611.1813    
       500   318.5083      -37110.966     -2831.2697      4611.6423    
       600   321.65011     -37084.42      -9375.9604      4612.1032    
       700   306.03382     -37091.245     -5123.9333      4612.5641    
       800   307.19704     -37109.847     -4369.158       4613.0251    
       900   279.87741     -37099.381      1650.5343      4613.486     
      1000   301.14499     -37134.245      2213.2749      4613.9469    
      1100   329.95342     -37153.676     -12601.294      4614.4079    
      1200   276.07615     -37063.932     -3494.6181      4614.8688    
      1300   332.39844     -37116.458     -5785.5655      4615.3297    
      1400   289.51596     -37119.398     -5262.1074      4615.7907    
      1500   319.76999     -37160.417     -1150.6194      4616.2516    
      1600   289.80697     -37114.289      635.30924      4616.7125    
      1700   292.03484     -37099.09      -10317.502      4617.1735    
      1800   345.22533     -37164.255     -2905.1278      4617.6344    
      1900   297.89455     -37145.172     -3958.4522      4618.0953    
      2000   327.65706     -37184.581     -6972.8543      4618.5563    
      2100   280.15996     -37123.799      687.31831      4619.0172    
      2200   280.2158      -37109.315     -6363.6474      4619.4781    
      2300   368.55076     -37171.742     -3922.599       4619.9391    
      2400   354.81348     -37144.912     -2612.0171      4620.4       
      2500   275.33928     -37087.727     -9340.4341      4620.8609    
      2600   318.06945     -37148.503      2383.5802      4621.3219    
      2700   278.73711     -37112.38       1799.6594      4621.7828    
      2800   327.71381     -37171.911     -5077.4744      4622.2437    
      2900   266.06947     -37102.258     -4432.0821      4622.7047    
      3000   275.53459     -37106.087     -3697.2531      4623.1656    
      3100   330.09646     -37157.737     -3657.115       4623.6265    
      3200   305.71008     -37135.271     -5208.6353      4624.0875    
      3300   293.1277      -37139.076     -5078.3236      4624.5484    
      3400   319.83943     -37181.629     -1494.3364      4625.0093    
      3500   298.20504     -37169.256      5169.0282      4625.4703    
      3600   319.58602     -37180.413     -7535.4182      4625.9312    
      3700   283.0241      -37106.837     -888.87299      4626.3921    
      3800   266.28576     -37083.186      5355.7182      4626.8531    
      3900   312.4376      -37145.59       554.48775      4627.314     
      4000   327.29029     -37192.123      1754.1871      4627.775     
      4100   294.38683     -37170.205     -4109.1049      4628.2359    
      4200   307.50556     -37151.404      870.71686      4628.6968    
      4300   300.91448     -37120.212     -3412.0442      4629.1578    
      4400   350.2738      -37176.475     -1183.0458      4629.6187    
      4500   315.39002     -37166.632     -1989.6449      4630.0796    
      4600   263.46225     -37120.835      1693.3849      4630.5406    
      4700   264.14773     -37109.8        597.12876      4631.0015    
      4800   304.06963     -37121.982     -1301.4308      4631.4624    
      4900   315.20003     -37130.27      -1889.7587      4631.9234    
      5000   341.25648     -37172.56      -7288.4888      4632.3843    
      5100   302.52543     -37158.071      5656.8002      4632.8452    
      5200   265.5459      -37142.23      -10266.502      4633.3062    
      5300   278.03606     -37164.352     -3143.6231      4633.7671    
      5400   318.85414     -37203.406     -3519.9112      4634.228     
      5500   303.42059     -37161.005      4553.9706      4634.689     
      5600   314.1077      -37148.838     -1953.6533      4635.1499    
      5700   339.37128     -37210.563      447.44656      4635.6108    
      5800   329.62796     -37223.336      3303.8546      4636.0718    
      5900   305.68252     -37218.398     -2201.0574      4636.5327    
      6000   296.25919     -37229.377     -5947.0897      4636.9936    
      6100   295.31572     -37234.7       -17612.566      4637.4546    
      6200   296.07639     -37221.617     -1797.0831      4637.9155    
      6300   305.51331     -37196.063     -12516.277      4638.3764    
      6400   283.30888     -37180.311     -453.06865      4638.8374    
      6500   280.63753     -37200.823      7907.1703      4639.2983    
      6600   278.1571      -37205.032     -11083.293      4639.7592    
      6700   259.74391     -37182.907     -8426.8086      4640.2202    
      6800   284.96572     -37187.929     -8254.1483      4640.6811    
      6900   326.42478     -37198.315     -10845.991      4641.142     
      7000   338.281       -37226.875     -8363.0388      4641.603     
      7100   306.91673     -37213.049      121.55286      4642.0639    
      7200   292.69658     -37214.036     -10820.383      4642.5248    
      7300   293.40785     -37219.157      226.93629      4642.9858    
      7400   301.76614     -37250.124      1148.3213      4643.4467    
      7500   308.10096     -37284         -1508.293       4643.9076    
      7600   307.39597     -37276.714     -3493.3265      4644.3686    
      7700   294.58315     -37247.371      813.89523      4644.8295    
      7800   312.43443     -37256.228     -3056.8093      4645.2904    
      7900   303.57844     -37236.458     -10284.008      4645.7514    
      8000   270.71654     -37203.151     -9537.4553      4646.2123    
      8100   305.0307      -37259.533      14393.186      4646.6732    
      8200   274.10986     -37251.029     -5486.7786      4647.1342    
      8300   285.22046     -37258.48       6675.2385      4647.5951    
      8400   328.33383     -37273.764      1928.0358      4648.056     
      8500   279.52687     -37217.2       -4243.2965      4648.517     
      8600   290.43934     -37235.259      654.22409      4648.9779    
      8700   305.70074     -37248.401      5559.2665      4649.4388    
      8800   309.08404     -37235.365      9761.1667      4649.8998    
      8900   312.35612     -37226.768      3698.4804      4650.3607    
      9000   279.37547     -37213.415     -12063.723      4650.8216    
      9100   314.12614     -37277.547     -5522.08        4651.2826    
      9200   270.99503     -37235.211     -6992.088       4651.7435    
      9300   324.75683     -37281.969     -6277.6414      4652.2044    
      9400   311.10341     -37223.95      -2507.3149      4652.6654    
      9500   311.36422     -37223.472     -10343.443      4653.1263    
      9600   307.07931     -37244.795      8542.1377      4653.5872    
      9700   277.42843     -37237.351     -3891.0723      4654.0482    
      9800   299.09109     -37266.659      701.89252      4654.5091    
      9900   295.84044     -37239.729     -6479.3943      4654.97      
     10000   338.8864      -37276.811     -9456.8119      4655.431     
Loop time of 337.434 on 8 procs for 10000 steps with 365 atoms

Performance: 1.280 ns/day, 18.746 hours/ns, 29.635 timesteps/s, 10.817 katom-step/s
98.7% CPU use with 8 MPI tasks x 1 OpenMP threads

MPI task timing breakdown:
Section |  min time  |  avg time  |  max time  |%varavg| %total
---------------------------------------------------------------
Pair    | 187.57     | 250.99     | 293.53     | 271.4 | 74.38
Bond    | 0.023827   | 0.027518   | 0.0299     |   1.0 |  0.01
Neigh   | 4.6224     | 5.9458     | 6.8299     |  40.0 |  1.76
Comm    | 2.3502     | 45.02      | 108.4      | 640.6 | 13.34
Output  | 0.030861   | 0.089452   | 0.20042    |  19.2 |  0.03
Modify  | 34.219     | 35.141     | 36.479     |  16.9 | 10.41
Other   |            | 0.2209     |            |       |  0.07

Nlocal:         45.625 ave          55 max          36 min
Histogram: 1 0 1 1 2 0 0 1 0 2
Nghost:        2813.38 ave        2866 max        2766 min
Histogram: 1 1 1 0 2 0 1 0 1 1
Neighs:        24806.8 ave       29533 max       19924 min
Histogram: 1 0 1 1 2 0 0 1 0 2

Total # of neighbors = 198454
Ave neighs/atom = 543.70959
Ave special neighs/atom = 0
Neighbor list builds = 270
Dangerous builds = 0
  using 1 OpenMP thread(s) per MPI task
Reading restart file ...
  restart file = 2 Aug 2023, LAMMPS = 2 Aug 2023
  restoring atom style full from restart
  triclinic box = (0 0 0) to (17.6144 14.9838 17.4642) with tilt (-6.9346 2.088 0.8795)
  2 by 2 by 2 MPI processor grid
  pair style reaxff stores no restart info
  365 atoms
Finding 1-2 1-3 1-4 neighbors ...
  special bond factors lj:    0        0        0       
  special bond factors coul:  0        0        0       
     0 = max # of 1-2 neighbors
     0 = max # of 1-3 neighbors
     0 = max # of 1-4 neighbors
     1 = max # of special neighbors
  special bonds CPU = 0.000 seconds
  read_restart CPU = 0.003 seconds
*****debug*****
xy = -6.9345999999999996533, deltaxy = 0.069346
xz = 2.0880000000000000782, deltaxz = -0.02088
yz = 0.87949999999999994849, deltayz = -0.008795
*****
*****Negative-deform 3 starts.*****
WARNING: Van der Waals parameters for element SI indicate inner wall+shielding, but earlier atoms indicate a different van der Waals method. This may cause division-by-zero errors. Keeping van der Waals setting for earlier atoms. (src/REAXFF/reaxff_ffield.cpp:251)
Neighbor list info ...
  update: every = 10 steps, delay = 0 steps, check = yes
  max neighbors/atom: 2000, page size: 100000
  master list distance cutoff = 12
  ghost atom cutoff = 12
  binsize = 6, bins = 5 3 3
  2 neighbor lists, perpetual/occasional/extra = 2 0 0
  (1) pair reaxff, perpetual
      attributes: half, newton off, ghost
      pair build: half/bin/newtoff/ghost
      stencil: full/ghost/bin/3d
      bin: standard
  (2) fix qeq/reaxff, perpetual, copy from (1)
      attributes: half, newton off
      pair build: copy
      stencil: none
      bin: none
Setting up Verlet run ...
  Unit style    : real
  Current step  : 0
  Time step     : 0.5
Per MPI rank memory allocation (min/avg/max) = 109.6 | 111.5 | 113.4 Mbytes
   Step          Temp          PotEng         Press          Volume    
         0   300           -37082.094     -7693.3209      4609.3376    
       100   319.38494     -37126.919     -2013.6588      4608.8767    
       200   326.52339     -37153.91       57.569607      4608.4157    
       300   270.27706     -37090.394     -2536.6392      4607.9548    
       400   310.78313     -37126.443     -6205.5831      4607.4939    
       500   318.82223     -37111.643     -3069.0599      4607.0329    
       600   320.01552     -37083.156     -8796.6128      4606.572     
       700   307.33888     -37092.29      -4632.3282      4606.1111    
       800   314.03845     -37118.091     -4704.0453      4605.6501    
       900   277.05085     -37096.951      3894.5102      4605.1892    
      1000   298.5272      -37131.779      2406.6063      4604.7283    
      1100   326.63922     -37151.693     -11306.788      4604.2673    
      1200   280.87759     -37072.053     -4723.0563      4603.8064    
      1300   309.51686     -37082.415     -4823.0981      4603.3455    
      1400   280.42303     -37078.919      2942.6138      4602.8845    
      1500   306.0034      -37137.868     -1184.5672      4602.4236    
      1600   313.04259     -37149.596     -3099.3         4601.9627    
      1700   316.77883     -37147.285     -1346.5768      4601.5017    
      1800   329.97732     -37164.347      7951.0035      4601.0408    
      1900   275.60169     -37125.417     -3637.4685      4600.5799    
      2000   264.02733     -37132.214     -3892.7371      4600.1189    
      2100   301.7967      -37165.523      5514.3377      4599.658     
      2200   317.1499      -37142.348     -1045.6491      4599.1971    
      2300   321.1816      -37141.531     -657.2255       4598.7361    
      2400   264.57514     -37089.477      332.97903      4598.2752    
      2500   307.86286     -37160.33      -2889.59        4597.8143    
      2600   306.92089     -37174.462     -2738.6487      4597.3533    
      2700   289.9528      -37167.724      3499.3309      4596.8924    
      2800   299.13506     -37212.249     -4079.2502      4596.4315    
      2900   277.25629     -37177.762      8773.151       4595.9705    
      3000   288.18888     -37160.911     -9427.1591      4595.5096    
      3100   309.25322     -37172.302     -7199.4317      4595.0487    
      3200   295.68836     -37169.365     -18277.247      4594.5877    
      3300   299.33703     -37202.256     -9820.2769      4594.1268    
      3400   278.97879     -37177.563     -933.35231      4593.6659    
      3500   305.69065     -37196.355     -4738.8566      4593.2049    
      3600   334.53173     -37227.233     -4112.7443      4592.744     
      3700   281.89364     -37181.948     -4182.7798      4592.2831    
      3800   317.63774     -37252.29      -7672.9648      4591.8221    
      3900   268.29893     -37200.994      4499.747       4591.3612    
      4000   310.62228     -37227.253     -4692.0334      4590.9003    
      4100   275.16782     -37164.926     -7523.2318      4590.4393    
      4200   329.50631     -37224.632      1253.2366      4589.9784    
      4300   330.24273     -37227.591     -1111.7985      4589.5174    
      4400   267.74254     -37180.415     -4751.0953      4589.0565    
      4500   293.70232     -37230.631     -6018.4012      4588.5956    
      4600   281.45192     -37200.441     -4249.2585      4588.1346    
      4700   316.9533      -37207.159      6488.1392      4587.6737    
      4800   303.66625     -37190.509     -6289.3608      4587.2128    
      4900   284.92547     -37174.017      908.93273      4586.7518    
      5000   331.72213     -37247.53      -3146.4109      4586.2909    
      5100   248.85301     -37181.215      6823.9648      4585.83      
      5200   316.77686     -37254.349     -1632.085       4585.369     
      5300   294.39716     -37183.278      1084.0417      4584.9081    
      5400   293.04028     -37174.591      17337.203      4584.4472    
      5500   325.47515     -37220.792      9518.3659      4583.9862    
      5600   271.27609     -37177.7        3122.0734      4583.5253    
      5700   285.18329     -37199.651      7624.3401      4583.0644    
      5800   293.99047     -37194.189     -3777.1317      4582.6034    
      5900   295.09818     -37168.355     -11748.929      4582.1425    
      6000   305.60455     -37184.301     -8196.5913      4581.6816    
      6100   305.31553     -37214.496      6754.0074      4581.2206    
      6200   273.1615      -37194.414     -3634.8855      4580.7597    
      6300   325.81746     -37245.409      3655.0363      4580.2988    
      6400   271.68624     -37169.477     -5597.4008      4579.8378    
      6500   316.82445     -37208.023      9933.3851      4579.3769    
      6600   340.60544     -37241.92       7904.4502      4578.916     
      6700   266.72021     -37177.809      316.08422      4578.455     
      6800   294.96041     -37246.494     -3490.6344      4577.9941    
      6900   278.23704     -37238.484      1260.0274      4577.5332    
      7000   299.30489     -37234.092     -13740.678      4577.0722    
      7100   269.69414     -37175.957     -4674.7817      4576.6113    
      7200   325.58418     -37219.292     -3657.3234      4576.1504    
      7300   284.27578     -37168.837      6852.7082      4575.6894    
      7400   297.63955     -37204.014     -10253.828      4575.2285    
      7500   273.67416     -37210.063     -10133.07       4574.7676    
      7600   293.84896     -37225.758     -12558.309      4574.3066    
      7700   305.25777     -37221.435     -6109.4674      4573.8457    
      7800   282.44312     -37183.018     -6642.0308      4573.3848    
      7900   310.85769     -37202.281      8520.1165      4572.9238    
      8000   286.76486     -37183.491      6290.2523      4572.4629    
      8100   318.78914     -37224.129     -159.69789      4572.002     
      8200   269.33971     -37171.305      5358.753       4571.541     
      8300   313.83432     -37219.864      1104.4717      4571.0801    
      8400   269.1609      -37200.442      1502.9362      4570.6192    
      8500   304.81216     -37244.532      7669.562       4570.1582    
      8600   265.29551     -37177.694     -1743.8556      4569.6973    
      8700   324.43683     -37222.974     -1064.9702      4569.2364    
      8800   276.8026      -37172.532      5353.4408      4568.7754    
      8900   302.05235     -37208.862      6806.8419      4568.3145    
      9000   314.69039     -37237.214     -2638.1379      4567.8536    
      9100   288.84433     -37213.947     -3939.7803      4567.3926    
      9200   318.92416     -37248.356      1467.1293      4566.9317    
      9300   277.5406      -37190.519     -3039.1937      4566.4708    
      9400   337.82027     -37231.663     -5158.623       4566.0098    
      9500   343.32092     -37234.057      2219.7389      4565.5489    
      9600   274.19441     -37193.721      3374.3951      4565.088     
      9700   299.91694     -37240.123     -2085.3381      4564.627     
      9800   305.46295     -37245.072      7319.8267      4564.1661    
      9900   289.67124     -37215.746     -68.83915       4563.7052    
     10000   327.012       -37217.721     -1562.9303      4563.2442    
Loop time of 341.699 on 8 procs for 10000 steps with 365 atoms

Performance: 1.264 ns/day, 18.983 hours/ns, 29.266 timesteps/s, 10.682 katom-step/s
98.7% CPU use with 8 MPI tasks x 1 OpenMP threads

MPI task timing breakdown:
Section |  min time  |  avg time  |  max time  |%varavg| %total
---------------------------------------------------------------
Pair    | 191.86     | 255.12     | 298.87     | 270.9 | 74.66
Bond    | 0.023572   | 0.027859   | 0.030667   |   1.3 |  0.01
Neigh   | 3.571      | 4.6007     | 5.3279     |  35.8 |  1.35
Comm    | 2.3609     | 46.244     | 109.48     | 636.1 | 13.53
Output  | 0.031477   | 0.096156   | 0.20292    |  18.3 |  0.03
Modify  | 34.63      | 35.399     | 36.444     |  13.4 | 10.36
Other   |            | 0.2158     |            |       |  0.06

Nlocal:         45.625 ave          52 max          27 min
Histogram: 1 0 0 0 0 1 0 1 1 4
Nghost:        2858.88 ave        2876 max        2833 min
Histogram: 2 0 1 0 0 0 1 0 1 3
Neighs:          25305 ave       28870 max       15420 min
Histogram: 1 0 0 0 0 1 0 2 0 4

Total # of neighbors = 202440
Ave neighs/atom = 554.63014
Ave special neighs/atom = 0
Neighbor list builds = 207
Dangerous builds = 0
  using 1 OpenMP thread(s) per MPI task
Reading restart file ...
  restart file = 2 Aug 2023, LAMMPS = 2 Aug 2023
  restoring atom style full from restart
  triclinic box = (0 0 0) to (17.6144 14.9838 17.4642) with tilt (-6.9346 2.088 0.8795)
  2 by 2 by 2 MPI processor grid
  pair style reaxff stores no restart info
  365 atoms
Finding 1-2 1-3 1-4 neighbors ...
  special bond factors lj:    0        0        0       
  special bond factors coul:  0        0        0       
     0 = max # of 1-2 neighbors
     0 = max # of 1-3 neighbors
     0 = max # of 1-4 neighbors
     1 = max # of special neighbors
  special bonds CPU = 0.000 seconds
  read_restart CPU = 0.003 seconds
*****Positive-deform 3 starts.*****
WARNING: Van der Waals parameters for element SI indicate inner wall+shielding, but earlier atoms indicate a different van der Waals method. This may cause division-by-zero errors. Keeping van der Waals setting for earlier atoms. (src/REAXFF/reaxff_ffield.cpp:251)
Neighbor list info ...
  update: every = 10 steps, delay = 0 steps, check = yes
  max neighbors/atom: 2000, page size: 100000
  master list distance cutoff = 12
  ghost atom cutoff = 12
  binsize = 6, bins = 5 3 3
  2 neighbor lists, perpetual/occasional/extra = 2 0 0
  (1) pair reaxff, perpetual
      attributes: half, newton off, ghost
      pair build: half/bin/newtoff/ghost
      stencil: full/ghost/bin/3d
      bin: standard
  (2) fix qeq/reaxff, perpetual, copy from (1)
      attributes: half, newton off
      pair build: copy
      stencil: none
      bin: none
Setting up Verlet run ...
  Unit style    : real
  Current step  : 0
  Time step     : 0.5
Per MPI rank memory allocation (min/avg/max) = 109.6 | 111.5 | 113.4 Mbytes
   Step          Temp          PotEng         Press          Volume    
         0   300           -37082.094     -7693.3209      4609.3376    
       100   319.38472     -37126.919     -2013.5443      4609.7985    
       200   326.40938     -37153.777     -11.723111      4610.2595    
       300   270.46796     -37090.449     -2815.5714      4610.7204    
       400   310.32995     -37125.59      -5797.1271      4611.1813    
       500   318.28442     -37110.605     -2864.6594      4611.6423    
       600   322.31619     -37085.049     -9065.9598      4612.1032    
       700   306.68859     -37091.441     -5059.5286      4612.5641    
       800   306.55159     -37108.819     -4827.233       4613.0251    
       900   281.34325     -37101.004      2957.0792      4613.486     
      1000   302.6556      -37135.089      2851.5703      4613.9469    
      1100   338.78495     -37160.041     -10927.4        4614.4079    
      1200   272.18218     -37061.52      -2277.6638      4614.8688    
      1300   333.899       -37117.176     -425.07743      4615.3297    
      1400   294.17879     -37107.909     -2153.1004      4615.7907    
      1500   292.55839     -37129.685     -7375.8373      4616.2516    
      1600   279.65979     -37115.492     -2376.7611      4616.7125    
      1700   295.83778     -37115.903     -4862.2216      4617.1735    
      1800   327.61237     -37126.732      1819.7958      4617.6344    
      1900   315.17551     -37104.624     -4619.3808      4618.0953    
      2000   293.08377     -37120.787     -1720.4084      4618.5563    
      2100   280.36095     -37124.921      1888.8385      4619.0172    
      2200   286.51558     -37123.585      3346.4723      4619.4781    
      2300   303.97573     -37113.704      238.55404      4619.9391    
      2400   286.14442     -37086.102     -1806.4854      4620.4       
      2500   326.67907     -37137.57       276.14112      4620.8609    
      2600   299.11864     -37134.451     -10826.053      4621.3219    
      2700   256.22638     -37107.843     -11003.229      4621.7828    
      2800   318.01806     -37162.217     -7033.2804      4622.2437    
      2900   300.87988     -37130.341     -5374.7741      4622.7047    
      3000   267.26958     -37085.882     -11961.505      4623.1656    
      3100   337.7456      -37158.241      479.33212      4623.6265    
      3200   317.32981     -37154.529     -3326.8601      4624.0875    
      3300   268.75615     -37122.053     -8447.4711      4624.5484    
      3400   323.20341     -37177.811     -2866.7617      4625.0093    
      3500   326.20109     -37149.096     -7548.1227      4625.4703    
      3600   276.65805     -37090.203     -2975.9312      4625.9312    
      3700   341.33339     -37181.072     -3661.3276      4626.3921    
      3800   336.53805     -37197.908      3680.764       4626.8531    
      3900   276.99584     -37141.47       735.3786       4627.314     
      4000   323.61595     -37202.273     -15055.243      4627.775     
      4100   282.83558     -37145.732     -15161.257      4628.2359    
      4200   301.0649      -37135.089     -16086.89       4628.6968    
      4300   319.7717      -37151.803     -275.75124      4629.1578    
      4400   299.53173     -37158.438      7142.084       4629.6187    
      4500   318.75482     -37200.001     -5089.949       4630.0796    
      4600   269.71086     -37140.313     -12267.815      4630.5406    
      4700   327.38213     -37186.407     -4255.8345      4631.0015    
      4800   296.3058      -37135.91      -10408.232      4631.4624    
      4900   284.93688     -37106.277     -1456.6863      4631.9234    
      5000   334.87139     -37174.932      580.04222      4632.3843    
      5100   322.15947     -37190.067     -7482.6784      4632.8452    
      5200   265.28638     -37143.988     -7431.7965      4633.3062    
      5300   308.88492     -37188.795     -2348.6799      4633.7671    
      5400   286.93277     -37129.715      5258.887       4634.228     
      5500   281.9657      -37113.948     -753.59454      4634.689     
      5600   321.92241     -37169.295     -3757.2483      4635.1499    
      5700   335.92088     -37192.332     -5447.2753      4635.6108    
      5800   266.85403     -37123.355     -3059.5221      4636.0718    
      5900   319.91206     -37179.676     -5957.9391      4636.5327    
      6000   347.785       -37194.874     -3127.1651      4636.9936    
      6100   291.71525     -37111.754     -3658.0912      4637.4546    
      6200   289.75969     -37127.915     -7074.8131      4637.9155    
      6300   295.72394     -37162.833     -9658.2713      4638.3764    
      6400   289.0348      -37162.204     -5089.118       4638.8374    
      6500   264.22703     -37128.034     -11929.263      4639.2983    
      6600   305.55888     -37137.309      5741.7878      4639.7592    
      6700   336.82692     -37170.685      1765.9929      4640.2202    
      6800   317.15294     -37170.898     -1230.5643      4640.6811    
      6900   269.38781     -37133.1       -8628.6155      4641.142     
      7000   321.10302     -37206.334     -4751.2781      4641.603     
      7100   297.8153      -37183.904      180.73354      4642.0639    
      7200   293.14443     -37139.555     -11896.109      4642.5248    
      7300   335.78883     -37170.764      66.399004      4642.9858    
      7400   328.03461     -37177.956     -7277.7273      4643.4467    
      7500   259.78205     -37121.594     -3136.2253      4643.9076    
      7600   300.63043     -37183.202     -7881.7386      4644.3686    
      7700   299.15729     -37196.225     -2018.8999      4644.8295    
      7800   281.87257     -37161.9       -7326.6365      4645.2904    
      7900   327.06438     -37182.984     -5495.9164      4645.7514    
      8000   334.93894     -37187.244     -4177.2032      4646.2123    
      8100   270.63364     -37139.297     -9304.9075      4646.6732    
      8200   328.80376     -37219.305     -7196.0678      4647.1342    
      8300   268.40357     -37167.871     -1045.3777      4647.5951    
      8400   305.24139     -37215.887     -377.38224      4648.056     
      8500   282.8723      -37167.377      11028.025      4648.517     
      8600   330.34342     -37199.658     -143.13976      4648.9779    
      8700   318.41231     -37187.537     -11619.71       4649.4388    
      8800   275.33417     -37164.168     -8095.9219      4649.8998    
      8900   285.80399     -37201.514     -218.84417      4650.3607    
      9000   292.99143     -37227.053     -8968.7838      4650.8216    
      9100   309.54412     -37207.768     -15416.251      4651.2826    
      9200   273.20379     -37147.561     -5279.6505      4651.7435    
      9300   327.03557     -37204.428      3833.7245      4652.2044    
      9400   287.49431     -37175.486     -8465.2638      4652.6654    
      9500   266.57917     -37167.994      512.65347      4653.1263    
      9600   299.22214     -37188.028     -10675.392      4653.5872    
      9700   287.21293     -37139.023     -2322.6809      4654.0482    
      9800   305.19235     -37161.188      2170.7914      4654.5091    
      9900   291.29876     -37168.582     -9120.7249      4654.97      
     10000   296.79444     -37176.182      1027.7703      4655.431     
Loop time of 335.145 on 8 procs for 10000 steps with 365 atoms

Performance: 1.289 ns/day, 18.619 hours/ns, 29.838 timesteps/s, 10.891 katom-step/s
98.7% CPU use with 8 MPI tasks x 1 OpenMP threads

MPI task timing breakdown:
Section |  min time  |  avg time  |  max time  |%varavg| %total
---------------------------------------------------------------
Pair    | 189.35     | 247.21     | 282.73     | 259.5 | 73.76
Bond    | 0.024083   | 0.027781   | 0.02961    |   1.0 |  0.01
Neigh   | 4.4769     | 5.7211     | 6.6114     |  39.2 |  1.71
Comm    | 11.423     | 46.972     | 104.79     | 595.2 | 14.02
Output  | 0.030297   | 0.088056   | 0.20052    |  19.4 |  0.03
Modify  | 34.001     | 34.914     | 36.171     |  16.2 | 10.42
Other   |            | 0.2161     |            |       |  0.06

Nlocal:         45.625 ave          52 max          38 min
Histogram: 1 1 0 1 0 0 3 0 0 2
Nghost:        2788.25 ave        2812 max        2763 min
Histogram: 2 0 0 0 1 1 2 1 0 1
Neighs:        24780.4 ave       28197 max       20743 min
Histogram: 1 1 0 1 0 0 3 0 0 2

Total # of neighbors = 198243
Ave neighs/atom = 543.13151
Ave special neighs/atom = 0
Neighbor list builds = 263
Dangerous builds = 0
  using 1 OpenMP thread(s) per MPI task
Reading restart file ...
  restart file = 2 Aug 2023, LAMMPS = 2 Aug 2023
  restoring atom style full from restart
  triclinic box = (0 0 0) to (17.6144 14.9838 17.4642) with tilt (-6.9346 2.088 0.8795)
  2 by 2 by 2 MPI processor grid
  pair style reaxff stores no restart info
  365 atoms
Finding 1-2 1-3 1-4 neighbors ...
  special bond factors lj:    0        0        0       
  special bond factors coul:  0        0        0       
     0 = max # of 1-2 neighbors
     0 = max # of 1-3 neighbors
     0 = max # of 1-4 neighbors
     1 = max # of special neighbors
  special bonds CPU = 0.000 seconds
  read_restart CPU = 0.003 seconds
*****debug*****
xy = -6.9345999999999996533, deltaxy = 0.069346
xz = 2.0880000000000000782, deltaxz = -0.02088
yz = 0.87949999999999994849, deltayz = -0.008795
*****
*****Negative-deform 4 starts.*****
WARNING: Van der Waals parameters for element SI indicate inner wall+shielding, but earlier atoms indicate a different van der Waals method. This may cause division-by-zero errors. Keeping van der Waals setting for earlier atoms. (src/REAXFF/reaxff_ffield.cpp:251)
Neighbor list info ...
  update: every = 10 steps, delay = 0 steps, check = yes
  max neighbors/atom: 2000, page size: 100000
  master list distance cutoff = 12
  ghost atom cutoff = 12
  binsize = 6, bins = 5 3 3
  2 neighbor lists, perpetual/occasional/extra = 2 0 0
  (1) pair reaxff, perpetual
      attributes: half, newton off, ghost
      pair build: half/bin/newtoff/ghost
      stencil: full/ghost/bin/3d
      bin: standard
  (2) fix qeq/reaxff, perpetual, copy from (1)
      attributes: half, newton off
      pair build: copy
      stencil: none
      bin: none
Setting up Verlet run ...
  Unit style    : real
  Current step  : 0
  Time step     : 0.5
Per MPI rank memory allocation (min/avg/max) = 109.6 | 111.5 | 113.4 Mbytes
   Step          Temp          PotEng         Press          Volume    
         0   300           -37082.094     -7693.3209      4609.3376    
       100   319.38466     -37126.917     -2013.6181      4609.3376    
       200   326.52652     -37153.912      77.783901      4609.3376    
       300   270.38297     -37090.452     -2635.6705      4609.3376    
       400   310.49082     -37125.915     -5918.8929      4609.3376    
       500   318.3078      -37110.844     -3038.8241      4609.3376    
       600   320.89711     -37083.817     -8974.3496      4609.3376    
       700   307.34196     -37092.455     -5277.7126      4609.3376    
       800   309.43173     -37112.607     -5912.6229      4609.3376    
       900   282.03384     -37102.255      2373.0543      4609.3376    
      1000   304.71879     -37138.377      2966.5909      4609.3376    
      1100   332.91816     -37157.636     -10271.417      4609.3376    
      1200   281.42797     -37071.223     -2232.0521      4609.3376    
      1300   330.57489     -37111.636     -8527.0625      4609.3376    
      1400   297.74954     -37121.989     -3302.8188      4609.3376    
      1500   326.36121     -37168.676     -511.82599      4609.3376    
      1600   276.61949     -37107.196     -585.94344      4609.3376    
      1700   292.46242     -37105.919      1151.4398      4609.3376    
      1800   339.72776     -37169.621      8266.5982      4609.3376    
      1900   296.18659     -37150.639      1186.3861      4609.3376    
      2000   301.39088     -37161.692     -4339.3973      4609.3376    
      2100   321.37339     -37173.077      9203.3573      4609.3376    
      2200   308.21813     -37149.871     -2699.0989      4609.3376    
      2300   264.42866     -37100.836     -5581.3096      4609.3376    
      2400   283.28824     -37115.786     -7478.7478      4609.3376    
      2500   332.1344      -37146.769      3782.733       4609.3376    
      2600   346.48811     -37151.622      7023.7399      4609.3376    
      2700   296.25743     -37124.852     -1651.0134      4609.3376    
      2800   282.06328     -37120.888     -1127.5382      4609.3376    
      2900   265.17778     -37107.724     -6562.0293      4609.3376    
      3000   328.94809     -37157.235     -108.04531      4609.3376    
      3100   323.34811     -37121.834      3482.8424      4609.3376    
      3200   315.02937     -37125.184     -952.07003      4609.3376    
      3300   327.39932     -37164.808     -6505.5905      4609.3376    
      3400   282.9228      -37121.38       663.04645      4609.3376    
      3500   270.59916     -37104.64       2587.3807      4609.3376    
      3600   267.27888     -37096.696     -7537.4253      4609.3376    
      3700   322.23009     -37131.777      3651.6318      4609.3376    
      3800   338.77286     -37126.652     -3729.9592      4609.3376    
      3900   281.7682      -37089.247     -3342.6806      4609.3376    
      4000   343.63424     -37181.517     -10966.752      4609.3376    
      4100   299.22673     -37141.911     -13252.106      4609.3376    
      4200   278.10391     -37123.634      6753.8009      4609.3376    
      4300   283.65485     -37120.321     -8429.9089      4609.3376    
      4400   319.80417     -37126.252     -10142.575      4609.3376    
      4500   338.17608     -37152.349     -5359.2882      4609.3376    
      4600   266.73826     -37096.288     -1608.3178      4609.3376    
      4700   316.55002     -37161         -7369.3362      4609.3376    
      4800   298.66267     -37137.743     -3687.6418      4609.3376    
      4900   298.61387     -37137.003      4159.6267      4609.3376    
      5000   286.62443     -37128.859     -11487.872      4609.3376    
      5100   302.27692     -37152.566     -13418.16       4609.3376    
      5200   329.97107     -37176.55       838.84698      4609.3376    
      5300   278.97484     -37101.858     -6405.4445      4609.3376    
      5400   312.97716     -37137.901     -10799.896      4609.3376    
      5500   320.16121     -37180.684      3867.569       4609.3376    
      5600   277.07843     -37139.596     -10745.16       4609.3376    
      5700   322.08122     -37178.865     -1866.6273      4609.3376    
      5800   294.49189     -37135.044     -4203.3096      4609.3376    
      5900   287.20745     -37134.429      417.97455      4609.3376    
      6000   311.18328     -37167.262     -6215.1328      4609.3376    
      6100   299.3566      -37154.846     -8869.8799      4609.3376    
      6200   302.88497     -37148.335     -3486.2738      4609.3376    
      6300   299.28293     -37127.911     -4871.8285      4609.3376    
      6400   292.31847     -37107.838     -11478.55       4609.3376    
      6500   328.22383     -37180.84      -802.32393      4609.3376    
      6600   277.67197     -37142.525     -1378.4156      4609.3376    
      6700   332.3731      -37195.366     -3961.4754      4609.3376    
      6800   277.67972     -37112.836     -5528.6497      4609.3376    
      6900   307.33235     -37119.994     -4847.9753      4609.3376    
      7000   320.42678     -37117.638     -7757.7411      4609.3376    
      7100   356.43067     -37169.98      -1841.8331      4609.3376    
      7200   278.36142     -37119.798      1671.0072      4609.3376    
      7300   301.79112     -37165.52      -1708.6685      4609.3376    
      7400   277.81856     -37146.394     -16311.608      4609.3376    
      7500   312.37392     -37170.51      -5240.1834      4609.3376    
      7600   293.59611     -37119.285     -15829.974      4609.3376    
      7700   308.25076     -37136.868     -12343.253      4609.3376    
      7800   301.38197     -37140.325     -9311.0687      4609.3376    
      7900   309.81945     -37155.585     -6038.9132      4609.3376    
      8000   289.32771     -37138.731     -32.928907      4609.3376    
      8100   266.72224     -37127.264     -2719.5395      4609.3376    
      8200   312.66854     -37178.989     -9745.2939      4609.3376    
      8300   304.90917     -37160.436     -8475.2398      4609.3376    
      8400   336.98608     -37208.763     -8484.6001      4609.3376    
      8500   280.3796      -37179.07      -5368.2138      4609.3376    
      8600   274.19212     -37175.289     -4234.1758      4609.3376    
      8700   313.21382     -37201.069      3180.2419      4609.3376    
      8800   301.48395     -37162.926      11666.854      4609.3376    
      8900   329.14314     -37203.999      2070.8642      4609.3376    
      9000   335.87671     -37238.957     -6540.9387      4609.3376    
      9100   291.31223     -37197.018     -3117.1183      4609.3376    
      9200   307.59533     -37225.684      4770.2254      4609.3376    
      9300   298.07586     -37203.797     -907.10554      4609.3376    
      9400   315.04756     -37198.375      9569.8279      4609.3376    
      9500   293.14231     -37169.133     -12069.485      4609.3376    
      9600   292.93127     -37203.726     -16849.133      4609.3376    
      9700   304.22964     -37237.46      -4910.837       4609.3376    
      9800   291.08925     -37210.102     -7615.9018      4609.3376    
      9900   305.9624      -37202.519      8315.3693      4609.3376    
     10000   321.40846     -37218.102      8488.1882      4609.3376    
Loop time of 334.052 on 8 procs for 10000 steps with 365 atoms

Performance: 1.293 ns/day, 18.558 hours/ns, 29.935 timesteps/s, 10.926 katom-step/s
98.7% CPU use with 8 MPI tasks x 1 OpenMP threads

MPI task timing breakdown:
Section |  min time  |  avg time  |  max time  |%varavg| %total
---------------------------------------------------------------
Pair    | 189.15     | 243.32     | 287.42     | 262.0 | 72.84
Bond    | 0.024309   | 0.027483   | 0.029626   |   1.1 |  0.01
Neigh   | 4.8911     | 6.0906     | 7.3028     |  41.0 |  1.82
Comm    | 5.6507     | 49.687     | 103.83     | 579.4 | 14.87
Output  | 0.029223   | 0.079682   | 0.16893    |  16.5 |  0.02
Modify  | 33.401     | 34.634     | 35.832     |  17.6 | 10.37
Other   |            | 0.216      |            |       |  0.06

Nlocal:         45.625 ave          55 max          36 min
Histogram: 2 0 0 1 0 2 1 0 1 1
Nghost:        2842.38 ave        2888 max        2813 min
Histogram: 2 0 2 2 0 0 0 0 0 2
Neighs:        25022.9 ave       29745 max       20116 min
Histogram: 2 0 0 1 0 2 1 0 1 1

Total # of neighbors = 200183
Ave neighs/atom = 548.44658
Ave special neighs/atom = 0
Neighbor list builds = 286
Dangerous builds = 0
  using 1 OpenMP thread(s) per MPI task
Reading restart file ...
  restart file = 2 Aug 2023, LAMMPS = 2 Aug 2023
  restoring atom style full from restart
  triclinic box = (0 0 0) to (17.6144 14.9838 17.4642) with tilt (-6.9346 2.088 0.8795)
  2 by 2 by 2 MPI processor grid
  pair style reaxff stores no restart info
  365 atoms
Finding 1-2 1-3 1-4 neighbors ...
  special bond factors lj:    0        0        0       
  special bond factors coul:  0        0        0       
     0 = max # of 1-2 neighbors
     0 = max # of 1-3 neighbors
     0 = max # of 1-4 neighbors
     1 = max # of special neighbors
  special bonds CPU = 0.000 seconds
  read_restart CPU = 0.003 seconds
*****Positive-deform 4 starts.*****
WARNING: Van der Waals parameters for element SI indicate inner wall+shielding, but earlier atoms indicate a different van der Waals method. This may cause division-by-zero errors. Keeping van der Waals setting for earlier atoms. (src/REAXFF/reaxff_ffield.cpp:251)
Neighbor list info ...
  update: every = 10 steps, delay = 0 steps, check = yes
  max neighbors/atom: 2000, page size: 100000
  master list distance cutoff = 12
  ghost atom cutoff = 12
  binsize = 6, bins = 5 3 3
  2 neighbor lists, perpetual/occasional/extra = 2 0 0
  (1) pair reaxff, perpetual
      attributes: half, newton off, ghost
      pair build: half/bin/newtoff/ghost
      stencil: full/ghost/bin/3d
      bin: standard
  (2) fix qeq/reaxff, perpetual, copy from (1)
      attributes: half, newton off
      pair build: copy
      stencil: none
      bin: none
Setting up Verlet run ...
  Unit style    : real
  Current step  : 0
  Time step     : 0.5
Per MPI rank memory allocation (min/avg/max) = 109.6 | 111.5 | 113.4 Mbytes
   Step          Temp          PotEng         Press          Volume    
         0   300           -37082.094     -7693.3209      4609.3376    
       100   319.38499     -37126.921     -2013.6659      4609.3376    
       200   326.39968     -37153.786     -34.156962      4609.3376    
       300   270.35419     -37090.39      -2712.5881      4609.3376    
       400   310.69701     -37126.171     -6134.1268      4609.3376    
       500   319.14913     -37111.826     -3286.701       4609.3376    
       600   321.02343     -37083.82      -9153.7383      4609.3376    
       700   307.43922     -37091.897     -4562.2506      4609.3376    
       800   305.58683     -37108.335     -4259.0526      4609.3376    
       900   280.49274     -37100.113      3642.501       4609.3376    
      1000   307.77435     -37142.086      3464.8518      4609.3376    
      1100   336.54315     -37165.755     -12262.784      4609.3376    
      1200   284.25948     -37077.871     -3007.2724      4609.3376    
      1300   306.96263     -37087.65      -4508.279       4609.3376    
      1400   313.31582     -37133.934     -3702.0576      4609.3376    
      1500   319.89133     -37159.021      4557.1302      4609.3376    
      1600   308.47332     -37141.109     -1921.3819      4609.3376    
      1700   277.53575     -37091.906     -7676.2893      4609.3376    
      1800   329.9247      -37152.991      8353.3643      4609.3376    
      1900   311.42782     -37162.059     -7094.7085      4609.3376    
      2000   298.22444     -37164.165     -4960.7942      4609.3376    
      2100   312.19207     -37176.373      187.08497      4609.3376    
      2200   310.81926     -37162.852     -873.43606      4609.3376    
      2300   263.75879     -37109.047     -19.492367      4609.3376    
      2400   270.10891     -37109.088     -11234.156      4609.3376    
      2500   291.13237     -37126.782     -18744.531      4609.3376    
      2600   323.86719     -37182.412     -4894.7308      4609.3376    
      2700   288.83709     -37164.497     -5626.9591      4609.3376    
      2800   301.88688     -37164.871     -11111.786      4609.3376    
      2900   315.54087     -37154.195      6429.7404      4609.3376    
      3000   265.71764     -37090.012     -15774.78       4609.3376    
      3100   304.45502     -37132.567     -10784.801      4609.3376    
      3200   297.13694     -37134.069     -10414.197      4609.3376    
      3300   315.15927     -37159.7       -19815.958      4609.3376    
      3400   321.27798     -37165.931     -12699.548      4609.3376    
      3500   278.06763     -37124.333     -3340.8296      4609.3376    
      3600   265.78059     -37123.596      3197.3058      4609.3376    
      3700   270.34354     -37162.423     -10746.411      4609.3376    
      3800   307.70873     -37201.304      385.55718      4609.3376    
      3900   313.68005     -37177.432      5522.3342      4609.3376    
      4000   295.41291     -37144.797     -6816.488       4609.3376    
      4100   326.02413     -37170.621     -8085.2215      4609.3376    
      4200   336.77194     -37183.516      3823.8468      4609.3376    
      4300   293.7359      -37159.366      7492.8663      4609.3376    
      4400   316.59698     -37201.306     -7729.859       4609.3376    
      4500   323.94155     -37200.962      2080.6828      4609.3376    
      4600   328.50516     -37173.189     -5262.9693      4609.3376    
      4700   294.97405     -37144.895     -5349.3435      4609.3376    
      4800   288.33072     -37158.942     -4905.788       4609.3376    
      4900   269.15028     -37147.451     -5629.6722      4609.3376    
      5000   284.6475      -37181.704      2962.7476      4609.3376    
      5100   264.92519     -37175.578      4703.4747      4609.3376    
[...]
xz = 2.0880000000000000782, deltaxz = -0.02088
yz = 0.87949999999999994849, deltayz = -0.008795
*****
*****Negative-deform 6 starts.*****
WARNING: Van der Waals parameters for element SI indicate inner wall+shielding, but earlier atoms indicate a different van der Waals method. This may cause division-by-zero errors. Keeping van der Waals setting for earlier atoms. (src/REAXFF/reaxff_ffield.cpp:251)
Neighbor list info ...
  update: every = 10 steps, delay = 0 steps, check = yes
  max neighbors/atom: 2000, page size: 100000
  master list distance cutoff = 12
  ghost atom cutoff = 12
  binsize = 6, bins = 5 3 3
  2 neighbor lists, perpetual/occasional/extra = 2 0 0
  (1) pair reaxff, perpetual
      attributes: half, newton off, ghost
      pair build: half/bin/newtoff/ghost
      stencil: full/ghost/bin/3d
      bin: standard
  (2) fix qeq/reaxff, perpetual, copy from (1)
      attributes: half, newton off
      pair build: copy
      stencil: none
      bin: none
Setting up Verlet run ...
  Unit style    : real
  Current step  : 0
  Time step     : 0.5
Per MPI rank memory allocation (min/avg/max) = 109.6 | 111.5 | 113.4 Mbytes
   Step          Temp          PotEng         Press          Volume    
         0   300           -37082.094     -7693.3209      4609.3376    
       100   319.38488     -37126.917     -2013.3822      4609.3376    
       200   326.34834     -37153.747      34.843819      4609.3376    
       300   270.50238     -37090.446     -2642.9362      4609.3376    
       400   310.57397     -37125.755     -6055.0553      4609.3376    
       500   318.66608     -37111.146     -3162.5681      4609.3376    
       600   321.1441      -37083.838     -9504.0548      4609.3376    
       700   304.95505     -37089.496     -5698.1817      4609.3376    
       800   306.2955      -37108.696     -3998.1667      4609.3376    
       900   285.73761     -37105.405      3185.5277      4609.3376    
      1000   299.10314     -37131.928      6019.838       4609.3376    
      1100   324.01492     -37150.234     -10234.548      4609.3376    
      1200   275.41572     -37064.303     -3362.8248      4609.3376    
      1300   314.8266      -37091.357     -12205.779      4609.3376    
      1400   288.6027      -37095.393     -3533.3278      4609.3376    
      1500   331.7042      -37159.446      723.64563      4609.3376    
      1600   345.43443     -37175.203      471.74631      4609.3376    
      1700   270.6607      -37099.895     -4115.5664      4609.3376    
      1800   315.63565     -37172.881      1060.8142      4609.3376    
      1900   323.0276      -37185.93      -4580.7793      4609.3376    
      2000   290.98063     -37120.246      3761.7639      4609.3376    
      2100   316.34711     -37125.145      875.80075      4609.3376    
      2200   328.90246     -37150.871     -191.12007      4609.3376    
      2300   317.04352     -37151.193     -1631.809       4609.3376    
      2400   267.62604     -37099.439     -139.01229      4609.3376    
      2500   281.40092     -37118.655     -9640.4646      4609.3376    
      2600   314.11773     -37185.519      2640.0356      4609.3376    
      2700   305.24907     -37179.618     -3796.8299      4609.3376    
      2800   286.70099     -37131.97      -10672.773      4609.3376    
      2900   330.09583     -37160.409     -5557.2452      4609.3376    
      3000   306.54157     -37139.189     -6652.5769      4609.3376    
      3100   253.12693     -37103.533     -445.87764      4609.3376    
      3200   297.50397     -37157.757     -83.924827      4609.3376    
      3300   322.84984     -37186.508     -2747.9314      4609.3376    
      3400   289.9146      -37145.361      10.822112      4609.3376    
      3500   342.22724     -37196.654      9244.9346      4609.3376    
      3600   290.48925     -37160.741     -2175.3195      4609.3376    
      3700   261.55549     -37167.21       3369.9267      4609.3376    
      3800   325.52453     -37232.209     -3251.7254      4609.3376    
      3900   305.52457     -37186.908     -7373.0004      4609.3376    
      4000   324.66286     -37182.69      -9187.752       4609.3376    
      4100   310.8501      -37168.395      9.0581764      4609.3376    
      4200   331.29844     -37206.453     -2405.7608      4609.3376    
      4300   307.43047     -37210.798     -8098.9588      4609.3376    
      4400   294.47552     -37208.681      2607.911       4609.3376    
      4500   318.43678     -37217.231     -3653.736       4609.3376    
      4600   304.0482      -37191.328     -15078.557      4609.3376    
      4700   294.24696     -37180.918     -3468.8575      4609.3376    
      4800   288.98202     -37180.495     -19805.133      4609.3376    
      4900   284.01749     -37175.33       255.84329      4609.3376    
      5000   283.49555     -37172.035      7973.9422      4609.3376    
      5100   298.77143     -37173.369      6709.668       4609.3376    
      5200   303.50578     -37212.809     -1746.22        4609.3376    
      5300   280.78783     -37219.762     -1558.6324      4609.3376    
      5400   269.81078     -37233.894     -3806.0092      4609.3376    
      5500   294.1634      -37267.308     -2889.8728      4609.3376    
      5600   297.2163      -37263.982      9758.474       4609.3376    
      5700   341.14834     -37284.61      -373.02516      4609.3376    
      5800   343.18358     -37279.679      1058.7541      4609.3376    
      5900   309.88185     -37266.724      4384.4349      4609.3376    
      6000   296.49983     -37258.993     -2979.8719      4609.3376    
      6100   310.34833     -37276.727      346.512        4609.3376    
      6200   303.87481     -37274.482     -3356.5396      4609.3376    
      6300   285.91958     -37230.329      4052.5105      4609.3376    
      6400   304.04975     -37231.549     -11862.447      4609.3376    
      6500   296.07531     -37244.303     -10966.783      4609.3376    
      6600   311.97775     -37290.302     -3383.661       4609.3376    
      6700   298.41984     -37278.053     -12262.559      4609.3376    
      6800   288.04895     -37262.104     -639.52236      4609.3376    
      6900   294.62869     -37252.3        7182.2268      4609.3376    
      7000   351.61826     -37299.212      3707.8914      4609.3376    
      7100   314.3323      -37255.838      4955.155       4609.3376    
      7200   302.98532     -37283.047     -2412.3167      4609.3376    
      7300   268.2844      -37254.968     -15264.478      4609.3376    
      7400   302.34873     -37279.251     -5387.504       4609.3376    
      7500   316.1391      -37269.17      -9698.5804      4609.3376    
      7600   264.20589     -37210.58      -610.49829      4609.3376    
      7700   316.47844     -37281.035      6438.079       4609.3376    
      7800   313.148       -37290.741     -1326.4074      4609.3376    
      7900   313.09714     -37296.594     -443.75834      4609.3376    
      8000   319.14476     -37308.91       4748.0279      4609.3376    
      8100   313.01782     -37296.582     -3477.5328      4609.3376    
      8200   338.8208      -37302.551     -2261.73        4609.3376    
      8300   311.65637     -37268.389      323.09547      4609.3376    
      8400   314.55632     -37302.851     -5353.0571      4609.3376    
      8500   312.14719     -37319.329      3640.2152      4609.3376    
      8600   281.59868     -37275.958     -1521.3997      4609.3376    
      8700   307.52324     -37288.003      6503.3086      4609.3376    
      8800   287.42416     -37249.77       2866.4947      4609.3376    
      8900   316.16896     -37254.609     -5588.6283      4609.3376    
      9000   295.08159     -37228.26      -6938.7432      4609.3376    
      9100   302.45358     -37276.833      2453.058       4609.3376    
      9200   301.51887     -37288.49       1006.4074      4609.3376    
      9300   288.03844     -37276.819     -13483.059      4609.3376    
      9400   285.97331     -37270.987     -7312.1979      4609.3376    
      9500   278.16904     -37238.492     -5053.0923      4609.3376    
      9600   314.47352     -37260.641     -15344.062      4609.3376    
      9700   291.70012     -37253.952     -24705.127      4609.3376    
      9800   306.34648     -37301.646     -6584.2991      4609.3376    
      9900   279.04818     -37277.747     -494.90643      4609.3376    
     10000   308.59653     -37309.099      1573.8894      4609.3376    
Loop time of 340.251 on 8 procs for 10000 steps with 365 atoms

Performance: 1.270 ns/day, 18.903 hours/ns, 29.390 timesteps/s, 10.727 katom-step/s
98.7% CPU use with 8 MPI tasks x 1 OpenMP threads

MPI task timing breakdown:
Section |  min time  |  avg time  |  max time  |%varavg| %total
---------------------------------------------------------------
Pair    | 199.36     | 245.68     | 294.6      | 235.8 | 72.21
Bond    | 0.023726   | 0.027615   | 0.030114   |   1.2 |  0.01
Neigh   | 5.1026     | 6.4298     | 7.6379     |  40.8 |  1.89
Comm    | 2.4414     | 51.528     | 97.855     | 515.0 | 15.14
Output  | 0.031007   | 0.091927   | 0.20335    |  18.9 |  0.03
Modify  | 35.003     | 36.278     | 37.671     |  17.8 | 10.66
Other   |            | 0.2152     |            |       |  0.06

Nlocal:         45.625 ave          54 max          31 min
Histogram: 1 0 0 0 1 0 3 1 0 2
Nghost:        2804.38 ave        2840 max        2765 min
Histogram: 1 1 0 0 1 1 2 1 0 1
Neighs:        24990.4 ave       29385 max       17302 min
Histogram: 1 0 0 0 1 0 2 2 0 2

Total # of neighbors = 199923
Ave neighs/atom = 547.73425
Ave special neighs/atom = 0
Neighbor list builds = 297
Dangerous builds = 0
  using 1 OpenMP thread(s) per MPI task
Reading restart file ...
  restart file = 2 Aug 2023, LAMMPS = 2 Aug 2023
  restoring atom style full from restart
  triclinic box = (0 0 0) to (17.6144 14.9838 17.4642) with tilt (-6.9346 2.088 0.8795)
  2 by 2 by 2 MPI processor grid
  pair style reaxff stores no restart info
  365 atoms
Finding 1-2 1-3 1-4 neighbors ...
  special bond factors lj:    0        0        0       
  special bond factors coul:  0        0        0       
     0 = max # of 1-2 neighbors
     0 = max # of 1-3 neighbors
     0 = max # of 1-4 neighbors
     1 = max # of special neighbors
  special bonds CPU = 0.000 seconds
  read_restart CPU = 0.003 seconds
*****Positive-deform 6 starts.*****
WARNING: Van der Waals parameters for element SI indicate inner wall+shielding, but earlier atoms indicate a different van der Waals method. This may cause division-by-zero errors. Keeping van der Waals setting for earlier atoms. (src/REAXFF/reaxff_ffield.cpp:251)
Neighbor list info ...
  update: every = 10 steps, delay = 0 steps, check = yes
  max neighbors/atom: 2000, page size: 100000
  master list distance cutoff = 12
  ghost atom cutoff = 12
  binsize = 6, bins = 5 3 3
  2 neighbor lists, perpetual/occasional/extra = 2 0 0
  (1) pair reaxff, perpetual
      attributes: half, newton off, ghost
      pair build: half/bin/newtoff/ghost
      stencil: full/ghost/bin/3d
      bin: standard
  (2) fix qeq/reaxff, perpetual, copy from (1)
      attributes: half, newton off
      pair build: copy
      stencil: none
      bin: none
Setting up Verlet run ...
  Unit style    : real
  Current step  : 0
  Time step     : 0.5
Per MPI rank memory allocation (min/avg/max) = 109.6 | 111.5 | 113.4 Mbytes
   Step          Temp          PotEng         Press          Volume    
         0   300           -37082.094     -7693.3209      4609.3376    
       100   319.38444     -37126.92      -2013.7832      4609.3376    
       200   326.54225     -37153.962     -16.2762        4609.3376    
       300   270.19857     -37090.46      -2671.5079      4609.3376    
       400   310.46386     -37125.997     -5951.9708      4609.3376    
       500   318.31911     -37110.811     -2770.7752      4609.3376    
       600   320.98007     -37083.906     -8481.219       4609.3376    
       700   304.2933      -37088.61      -3922.299       4609.3376    
       800   308.53974     -37111.364     -6287.8233      4609.3376    
       900   280.89667     -37100.094      1826.5827      4609.3376    
      1000   303.86811     -37135.509      4316.4036      4609.3376    
      1100   329.2109      -37153.697     -7599.9225      4609.3376    
      1200   282.68627     -37069.56       158.71412      4609.3376    
      1300   330.17465     -37115.673     -11897.935      4609.3376    
      1400   292.87726     -37102.095     -3010.8191      4609.3376    
      1500   323.09641     -37143.737      1084.7845      4609.3376    
      1600   281.64762     -37102.559      2894.2964      4609.3376    
      1700   322.81038     -37139.762     -4381.2589      4609.3376    
      1800   332.45016     -37153.635     -5215.9542      4609.3376    
      1900   259.67165     -37102.845     -11866.374      4609.3376    
      2000   263.8965      -37118.384     -7947.4468      4609.3376    
      2100   337.97937     -37179.369      7918.0141      4609.3376    
      2200   306.84543     -37118.982      2052.0684      4609.3376    
      2300   273.57656     -37080.846     -7719.0079      4609.3376    
      2400   281.44343     -37095.202      746.42681      4609.3376    
      2500   309.46141     -37137.522     -3660.9785      4609.3376    
      2600   311.29051     -37158.17      -879.59009      4609.3376    
      2700   277.21773     -37133.931     -6564.3979      4609.3376    
      2800   271.93547     -37129.191     -15080.578      4609.3376    
      2900   324.97379     -37157.823     -6079.4288      4609.3376    
      3000   305.84211     -37118.425      1104.1152      4609.3376    
      3100   330.92166     -37140.793     -9110.1284      4609.3376    
      3200   278.40509     -37105.511     -3764.7428      4609.3376    
      3300   283.98551     -37142.603      588.83041      4609.3376    
      3400   317.52105     -37179.053     -4752.3189      4609.3376    
      3500   273.63027     -37115.152     -7044.1454      4609.3376    
      3600   308.43493     -37140.474     -6575.0861      4609.3376    
      3700   297.43552     -37120.927     -5077.139       4609.3376    
      3800   309.01709     -37113.568     -6776.5222      4609.3376    
      3900   332.22307     -37112.109     -6213.1436      4609.3376    
      4000   298.07925     -37088.318      5974.7336      4609.3376    
      4100   279.41052     -37105.889     -1687.6351      4609.3376    
      4200   303.57709     -37134.738     -1789.0454      4609.3376    
      4300   288.1288      -37119.432     -618.66157      4609.3376    
      4400   325.83624     -37158.016     -10721.14       4609.3376    
      4500   279.7695      -37086.622     -8013.3273      4609.3376    
      4600   321.67746     -37118.796      10239.832      4609.3376    
      4700   325.93481     -37162.162      5585.6161      4609.3376    
      4800   300.66433     -37145.901     -3369.4587      4609.3376    
      4900   324.48905     -37181.213     -3438.5078      4609.3376    
      5000   309.15161     -37165.164     -7595.2739      4609.3376    
      5100   262.29149     -37131.676      1189.0421      4609.3376    
      5200   260.33564     -37140.082     -9697.5501      4609.3376    
      5300   272.21085     -37141.131      3394.3431      4609.3376    
      5400   319.22715     -37158.261     -3955.0985      4609.3376    
      5500   331.26051     -37170.131      4839.6731      4609.3376    
      5600   284.73233     -37141.616     -10531.257      4609.3376    
      5700   319.70663     -37188.121     -1830.9427      4609.3376    
      5800   326.49488     -37191.8        5482.4218      4609.3376    
      5900   281.81387     -37139.198      829.65811      4609.3376    
      6000   281.6926      -37095.114     -6313.081       4609.3376    
      6100   291.67561     -37102.301     -19493.313      4609.3376    
      6200   291.60508     -37131.114     -6140.4277      4609.3376    
      6300   310.7802      -37170.531     -1225.8125      4609.3376    
      6400   289.60388     -37159.702     -1978.9602      4609.3376    
      6500   274.77211     -37138.743     -1473.9909      4609.3376    
      6600   264.8578      -37092.479     -502.14778      4609.3376    
      6700   300.93513     -37121.065     -15020.985      4609.3376    
      6800   288.16565     -37131.084     -4892.5272      4609.3376    
      6900   265.1612      -37128.856     -3307.6137      4609.3376    
      7000   264.71979     -37133.803     -468.96104      4609.3376    
      7100   268.83488     -37126.031     -4175.6148      4609.3376    
      7200   280.58352     -37114.287     -4286.0067      4609.3376    
      7300   291.53465     -37105.667     -3313.6106      4609.3376    
      7400   329.79256     -37148.027      9.2972869      4609.3376    
      7500   275.52212     -37127.609     -3916.2865      4609.3376    
      7600   289.09662     -37156.912     -11218.05       4609.3376    
      7700   284.9146      -37160.49       640.45851      4609.3376    
      7800   311.89636     -37174.387     -6183.796       4609.3376    
      7900   291.21234     -37127.856     -9013.5895      4609.3376    
      8000   326.2215      -37169.655     -4577.1739      4609.3376    
      8100   305.60122     -37190.593      1948.8744      4609.3376    
      8200   267.66625     -37159.613     -82.202724      4609.3376    
      8300   295.5234      -37174.144      2193.4139      4609.3376    
      8400   323.27529     -37176.997     -1567.9038      4609.3376    
      8500   318.84037     -37163.463     -8587.1386      4609.3376    
      8600   314.96112     -37173.778     -6328.9484      4609.3376    
      8700   275.95126     -37151.066      201.10439      4609.3376    
      8800   272.1555      -37165.138     -3985.3554      4609.3376    
      8900   300.60199     -37224.944      2756.0762      4609.3376    
      9000   286.33747     -37201.755     -13173.61       4609.3376    
      9100   314.95852     -37201.535     -5487.3276      4609.3376    
      9200   274.93151     -37151.411     -5220.8856      4609.3376    
      9300   314.83747     -37198.962     -6362.3323      4609.3376    
      9400   307.54552     -37205.761     -5953.1651      4609.3376    
      9500   290.28326     -37219.504     -2939.9809      4609.3376    
      9600   281.13334     -37202.352     -1253.377       4609.3376    
      9700   270.70872     -37160.585     -2895.2372      4609.3376    
      9800   288.68497     -37175.221     -1622.4539      4609.3376    
      9900   325.96814     -37212.159      889.18103      4609.3376    
     10000   317.34121     -37196.839     -11520.939      4609.3376    
Loop time of 339.343 on 8 procs for 10000 steps with 365 atoms

Performance: 1.273 ns/day, 18.852 hours/ns, 29.469 timesteps/s, 10.756 katom-step/s
98.6% CPU use with 8 MPI tasks x 1 OpenMP threads

MPI task timing breakdown:
Section |  min time  |  avg time  |  max time  |%varavg| %total
---------------------------------------------------------------
Pair    | 194.81     | 252.69     | 293.52     | 239.9 | 74.46
Bond    | 0.023859   | 0.027481   | 0.029389   |   1.0 |  0.01
Neigh   | 5.1131     | 6.7245     | 7.6914     |  39.7 |  1.98
Comm    | 2.8161     | 43.798     | 101.71     | 576.6 | 12.91
Output  | 0.0306     | 0.094684   | 0.20264    |  18.5 |  0.03
Modify  | 34.808     | 35.791     | 37.446     |  17.5 | 10.55
Other   |            | 0.2214     |            |       |  0.07

Nlocal:         45.625 ave          53 max          35 min
Histogram: 2 0 0 0 0 2 0 1 1 2
Nghost:        2816.88 ave        2875 max        2766 min
Histogram: 1 0 1 2 0 2 0 1 0 1
Neighs:        25034.4 ave       29017 max       19452 min
Histogram: 2 0 0 0 0 2 0 1 1 2

Total # of neighbors = 200275
Ave neighs/atom = 548.69863
Ave special neighs/atom = 0
Neighbor list builds = 301
Dangerous builds = 0
Total wall time: 1:08:21
