LAMMPS (2 Aug 2023 - Update 2)
  using 6 OpenMP thread(s) per MPI task

# variable T index 300 400 500  #
# label T_loop

# Initialization
units           real
dimension       3
boundary        p p p
atom_style      full
timestep        0.5   # fs

variable       Tl equal 300.0   # low temperature
variable       Th equal 2100.0  # high temperature
variable       Td equal 50.0  # damping time
variable       P equal 1.0  # pressure
variable       Ph equal 1.0  # pressure
variable       Pd equal 10*${Td}  # pressure
variable       Pd equal 10*50  

variable       nevery equal 10
variable       nrepeat equal 10
variable       nthermo equal ${nevery}*${nrepeat}
variable       nthermo equal 10*${nrepeat}
variable       nthermo equal 10*10
variable       nrun equal ${nthermo}  # number of steps
variable       nrun equal 100  

variable       nequil equal 50*${nrun}  # 50
variable       nequil equal 50*100  
variable       nheat equal (${Th}-${Tl})*${nrun}   # 1800
variable       nheat equal (2100-${Tl})*${nrun}   
variable       nheat equal (2100-300)*${nrun}   
variable       nheat equal (2100-300)*100   
# variable       nheat equal 500   # 1800
variable FF string "SiOCHN_2018.ff C H O Si"          # force field args for pair_coeff
# pair_coeff * * CHONSSi.ff C H O Si
# pair_coeff * * CHOSiNa.ff C H O Si
# pair_coeff * * SiOCHN_2018.ff C H O Si
# pair_coeff * * PDMSDecomp.ff C H O Si
# pair_coeff * * CHONSi.ff C H O Si
# pair_coeff * * CHOFe.ff O Si

# Read the initial sctructure
# box tilt large
variable structure string 333-RV-32

read_data       ${structure}.data
read_data       333-RV-32.data
Reading data file ...
  triclinic box = (0 0 0) to (15.7087 13.0868 17.5248) with tilt (-8.2042 -0.1458 -2.0056)
WARNING: Triclinic box skew is large. LAMMPS will run inefficiently. (src/domain.cpp:220)
  1 by 1 by 2 MPI processor grid
  reading atoms ...
  331 atoms
Finding 1-2 1-3 1-4 neighbors ...
  special bond factors lj:    0        0        0       
  special bond factors coul:  0        0        0       
     0 = max # of 1-2 neighbors
     0 = max # of 1-3 neighbors
     0 = max # of 1-4 neighbors
     1 = max # of special neighbors
  special bonds CPU = 0.000 seconds
  read_data CPU = 0.139 seconds

# Assign the force field
pair_style reaxff NULL safezone 3.0 mincap 150
# pair_coeff * * CHONSSi.ff O Si
# pair_coeff * * CHOSiNa.ff O Si
# pair_coeff * * SiOCHN_2018.ff C H O Si
# pair_coeff * * PDMSDecomp.ff Si O
pair_coeff * * CHONSi.ff C H O Si
# pair_coeff * * CHOFe.ff O Si

fix myqeq all qeq/reaxff 1 0.0 10.0 1.0e-6 reaxff maxiter 400

neighbor        2 bin
neigh_modify    every 10 delay 0 check yes

# Energy minimization
print "##### Minimization starts.##### "
##### Minimization starts.##### 
# fix min1 all nve
minimize 1.0e-6 1.0e-6 100 1000

CITE-CITE-CITE-CITE-CITE-CITE-CITE-CITE-CITE-CITE-CITE-CITE-CITE

Your simulation uses code contributions which should be cited:

- pair reaxff command: doi:10.1016/j.parco.2011.08.005

@Article{Aktulga12,
 author = {H. M. Aktulga and J. C. Fogarty and S. A. Pandit and A. Y. Grama},
 title = {Parallel Reactive Molecular Dynamics: {N}umerical Methods and Algorithmic Techniques},
 journal = {Parallel Computing},
 year =    2012,
 volume =  38,
 number =  {4--5},
 pages =   {245--259}
}

- fix qeq/reaxff command: doi:10.1016/j.parco.2011.08.005

@Article{Aktulga12,
 author = {H. M. Aktulga and J. C. Fogarty and S. A. Pandit and A. Y. Grama},
 title = {Parallel Reactive Molecular Dynamics: {N}umerical Methods and Algorithmic Techniques},
 journal = {Parallel Computing},
 year =    2012,
 volume =  38,
 pages =   {245--259}
}

CITE-CITE-CITE-CITE-CITE-CITE-CITE-CITE-CITE-CITE-CITE-CITE-CITE

Switching to 'neigh_modify every 1 delay 0 check yes' setting during minimization
WARNING: Fix qeq/reaxff group is not charge neutral, net charge = 27.88 (src/REAXFF/fix_qeq_reaxff.cpp:392)
Neighbor list info ...
  update: every = 1 steps, delay = 0 steps, check = yes
  max neighbors/atom: 2000, page size: 100000
  master list distance cutoff = 12
  ghost atom cutoff = 12
  binsize = 6, bins = 5 3 3
  2 neighbor lists, perpetual/occasional/extra = 2 0 0
  (1) pair reaxff, perpetual
      attributes: half, newton off, ghost
      pair build: half/bin/newtoff/ghost
      stencil: full/ghost/bin/3d
      bin: standard
  (2) fix qeq/reaxff, perpetual, copy from (1)
      attributes: half, newton off
      pair build: copy
      stencil: none
      bin: none
Per MPI rank memory allocation (min/avg/max) = 197.4 | 197.8 | 198.3 Mbytes
   Step          Temp          E_pair         E_mol          TotEng         Press     
         0   0             -34729.82       0             -34729.82       141055.58    
        11   0             -36001.794      0             -36001.794      2159.1129    
Loop time of 5.49589 on 12 procs for 11 steps with 331 atoms

40.4% CPU use with 2 MPI tasks x 6 OpenMP threads

Minimization stats:
  Stopping criterion = energy tolerance
  Energy initial, next-to-last, final = 
     -34729.8197710528  -36001.7898218249  -36001.7937320851
  Force two-norm initial, final = 1956.832 350.68553
  Force max component initial, final = 221.80846 87.446417
  Final line search alpha, max atom move = 0.0015396929 0.13464063
  Iterations, force evaluations = 11 21

MPI task timing breakdown:
Section |  min time  |  avg time  |  max time  |%varavg| %total
---------------------------------------------------------------
Pair    | 2.8671     | 2.8787     | 2.8902     |   0.7 | 52.38
Bond    | 8.334e-06  | 9.0185e-06 | 9.703e-06  |   0.0 |  0.00
Neigh   | 0          | 0          | 0          |   0.0 |  0.00
Comm    | 0.67384    | 0.70341    | 0.73297    |   3.5 | 12.80
Output  | 0          | 0          | 0          |   0.0 |  0.00
Modify  | 1.891      | 1.891      | 1.891      |   0.0 | 34.41
Other   |            | 0.02284    |            |       |  0.42

Nlocal:          165.5 ave         168 max         163 min
Histogram: 1 0 0 0 0 0 0 0 0 1
Nghost:         4815.5 ave        4826 max        4805 min
Histogram: 1 0 0 0 0 0 0 0 0 1
Neighs:        98870.5 ave      100068 max       97673 min
Histogram: 1 0 0 0 0 0 0 0 0 1

Total # of neighbors = 197741
Ave neighs/atom = 597.40483
Ave special neighs/atom = 0
Neighbor list builds = 0
Dangerous builds = 0
# unfix min1
# Save the optimized structure
write_data ${structure}_opt.data
write_data 333-RV-32_opt.data
System init for write_data ...

# Print system info
thermo          ${nthermo}
thermo          100
thermo_style    custom step temp press density vol pe etotal

reset_timestep 0

# equilibration at low T
print "##### Equilibration starts.##### "
##### Equilibration starts.##### 
velocity        all create ${Tl} 12345
velocity        all create 300 12345
fix             equil1 all npt temp ${Tl} ${Tl} ${Td} tri ${Ph} ${Ph} ${Pd}
fix             equil1 all npt temp 300 ${Tl} ${Td} tri ${Ph} ${Ph} ${Pd}
fix             equil1 all npt temp 300 300 ${Td} tri ${Ph} ${Ph} ${Pd}
fix             equil1 all npt temp 300 300 50 tri ${Ph} ${Ph} ${Pd}
fix             equil1 all npt temp 300 300 50 tri 1 ${Ph} ${Pd}
fix             equil1 all npt temp 300 300 50 tri 1 1 ${Pd}
fix             equil1 all npt temp 300 300 50 tri 1 1 500
# 1 ps = 1e3 fs / 0.5 fs = 2e3 steps = 20 nruns
# Save trajectory
dump dump1 all custom ${nthermo} dump/dump_eq.lammpstrj id type x y z q
dump dump1 all custom 100 dump/dump_eq.lammpstrj id type x y z q
run             ${nequil}
run             5000
Per MPI rank memory allocation (min/avg/max) = 196.3 | 196.7 | 197.2 Mbytes
   Step          Temp          Press         Density         Volume         PotEng         TotEng    
         0   300            5903.2736      1.400369       3602.6891     -36001.794     -35706.694    
       100   306.22684     -10817.795      1.3607324      3707.6313     -35975.427     -35674.201    
       200   349.76442     -4007.3721      1.3497218      3737.8769     -36024.465     -35680.413    
       300   372.61464     -6294.2063      1.3518214      3732.0714     -36122.766     -35756.237    
       400   396.6812      -3390.3141      1.356089       3720.3266     -36238.57      -35848.368    
       500   333.41161      5363.4732      1.3664406      3692.1429     -36274.159     -35946.193    
       600   342.77341     -443.47363      1.3705479      3681.0782     -36355.166     -36017.991    
       700   295.76587      4379.408       1.3893594      3631.2376     -36382.16      -36091.225    
       800   286.27158      172.55536      1.3820205      3650.5204     -36417.82      -36136.224    
       900   280.1648      -13500.853      1.3812169      3652.6444     -36425.688     -36150.099    
      1000   295.36438      10428.548      1.385504       3641.342      -36422.241     -36131.701    
      1100   325.07622      4426.1599      1.3828287      3648.3867     -36426.846     -36107.079    
      1200   317.34407      5283.1651      1.3595287      3710.9141     -36416.05      -36103.889    
      1300   319.10605     -17135.183      1.3435744      3754.9792     -36455.16      -36141.266    
      1400   310.52786     -1160.8         1.3518339      3732.0369     -36488.883     -36183.427    
      1500   297.63024     -6040.81        1.3647265      3696.7803     -36511.727     -36218.958    
      1600   282.52697     -2855.1052      1.3740419      3671.7176     -36512.6       -36234.687    
      1700   286.65042     -5458.0552      1.3611538      3706.4833     -36512.415     -36230.447    
      1800   290.24218      5442.7323      1.3644724      3697.4687     -36506.33      -36220.828    
      1900   310.28387      7953.457       1.3390003      3767.8064     -36502.77      -36197.553    
      2000   294.40215     -3851.7095      1.3424294      3758.182      -36480.661     -36191.067    
      2100   327.32518      1134.1275      1.3506218      3735.3863     -36540.569     -36218.59     
      2200   296.9134       6429.7134      1.3557257      3721.3236     -36533.586     -36241.522    
      2300   308.26246     -4632.6577      1.343828       3754.2707     -36537.946     -36234.718    
      2400   294.33004     -315.08708      1.3438482      3754.2141     -36508.899     -36219.376    
      2500   318.01118     -162.35074      1.3539173      3726.2942     -36518.457     -36205.64     
      2600   299.38944      124.18516      1.3610502      3706.7655     -36525.974     -36231.474    
      2700   297.73609     -3893.4078      1.3796906      3656.6851     -36545.985     -36253.111    
      2800   296.45416     -55.049599      1.3810466      3653.0948     -36545.534     -36253.922    
      2900   305.16622     -13612.845      1.3680693      3687.7474     -36537.269     -36237.087    
      3000   296.97809      2778.1454      1.3792859      3657.7581     -36495.618     -36203.49     
      3100   315.45786     -7769.7027      1.3687521      3685.9077     -36505.566     -36195.26     
      3200   313.16652     -4680.5743      1.3720114      3677.1516     -36513.546     -36205.495    
      3300   304.06263     -6479.0529      1.3653193      3695.1751     -36522.894     -36223.798    
      3400   290.07279     -14591.427      1.3554577      3722.0594     -36516.866     -36231.531    
      3500   319.26014     -3875.2019      1.3600276      3709.5526     -36524.343     -36210.297    
      3600   318.57543     -4280.7077      1.3739653      3671.9225     -36498.848     -36185.476    
      3700   308.0974      -1993.7073      1.3704411      3681.365      -36508.958     -36205.893    
      3800   300.59932      3989.8576      1.3723827      3676.1569     -36517.66      -36221.97     
      3900   307.96902      4915.596       1.3617091      3704.9719     -36532.836     -36229.897    
      4000   321.56468      11113.753      1.3556503      3721.5305     -36546.09      -36229.778    
      4100   298.68297     -2350.3538      1.3435727      3754.9841     -36516.548     -36222.743    
      4200   306.71836      1672.8995      1.3427368      3757.3217     -36528.39      -36226.681    
      4300   305.26759     -1200.9498      1.3506525      3735.3013     -36542.253     -36241.971    
      4400   286.42464      10278.423      1.3599915      3709.6513     -36541.346     -36259.6      
      4500   282.46615     -10183.441      1.3556102      3721.6407     -36545.189     -36267.336    
      4600   306.21834     -1553.178       1.3603742      3708.6075     -36544.544     -36243.327    
      4700   311.90688     -8590.2661      1.3515003      3732.958      -36522.68      -36215.867    
      4800   313.49239     -5907.536       1.3509836      3734.3859     -36521.247     -36212.875    
      4900   300.33302      12993.962      1.3606131      3707.9562     -36521.973     -36226.545    
      5000   270.34709      9292.1939      1.3632458      3700.7955     -36524.587     -36258.655    
Loop time of 1173.6 on 12 procs for 5000 steps with 331 atoms

Performance: 0.184 ns/day, 130.400 hours/ns, 4.260 timesteps/s, 1.410 katom-step/s
39.8% CPU use with 2 MPI tasks x 6 OpenMP threads

MPI task timing breakdown:
Section |  min time  |  avg time  |  max time  |%varavg| %total
---------------------------------------------------------------
Pair    | 676.75     | 678.96     | 681.16     |   8.5 | 57.85
Bond    | 0.0013474  | 0.0013737  | 0.0014     |   0.1 |  0.00
Neigh   | 8.041      | 8.0803     | 8.1196     |   1.4 |  0.69
Comm    | 292.34     | 293.78     | 295.23     |   8.4 | 25.03
Output  | 0.13829    | 0.15949    | 0.18069    |   5.3 |  0.01
Modify  | 187.48     | 188.31     | 189.14     |   6.1 | 16.05
Other   |            | 4.313      |            |       |  0.37

Nlocal:          165.5 ave         171 max         160 min
Histogram: 1 0 0 0 0 0 0 0 0 1
Nghost:           4630 ave        4643 max        4617 min
Histogram: 1 0 0 0 0 0 0 0 0 1
Neighs:        95965.5 ave       99019 max       92912 min
Histogram: 1 0 0 0 0 0 0 0 0 1

Total # of neighbors = 191931
Ave neighs/atom = 579.85196
Ave special neighs/atom = 0
Neighbor list builds = 70
Dangerous builds = 0
undump dump1
reset_timestep  0

# Heat to high T
print "##### Heat starts.##### "
##### Heat starts.##### 
# out put bonds and species information
fix bondinfo all reaxff/bonds ${nthermo} bonds/bonds.reaxff
fix bondinfo all reaxff/bonds 100 bonds/bonds.reaxff
# fix speciesinfo all reaxff/species ${nevery} ${nrepeat} ${nthermo} bonds/species.out

# compute MSD and RDF
compute msd1 all msd
fix myMSD all ave/time ${nthermo} 1 ${nthermo} c_msd1[1] c_msd1[2] c_msd1[3] c_msd1[4] c_thermo_temp     file msd.out     title2 "# TimeStep MSD_X MSD_Y MSD_Z MSD_Total Temperture"
fix myMSD all ave/time 100 1 ${nthermo} c_msd1[1] c_msd1[2] c_msd1[3] c_msd1[4] c_thermo_temp     file msd.out     title2 "# TimeStep MSD_X MSD_Y MSD_Z MSD_Total Temperture"
fix myMSD all ave/time 100 1 100 c_msd1[1] c_msd1[2] c_msd1[3] c_msd1[4] c_thermo_temp     file msd.out     title2 "# TimeStep MSD_X MSD_Y MSD_Z MSD_Total Temperture"
# C-C C-Si Si-O C-H Si-Si
compute rdf1 all rdf 150 1 1 1 4 3 4 1 2 4 4 cutoff 5.0
fix myRDF all ave/time ${nthermo} 1 ${nthermo} c_rdf1[*]     file rdf.out mode vector     title3 "# Row r g1(r) coor1(r) ..."
fix myRDF all ave/time 100 1 ${nthermo} c_rdf1[*]     file rdf.out mode vector     title3 "# Row r g1(r) coor1(r) ..."
fix myRDF all ave/time 100 1 100 c_rdf1[*]     file rdf.out mode vector     title3 "# Row r g1(r) coor1(r) ..."

unfix           equil1
fix             heat1 all nvt temp ${Tl} ${Th} ${Td}
fix             heat1 all nvt temp 300 ${Th} ${Td}
fix             heat1 all nvt temp 300 2100 ${Td}
fix             heat1 all nvt temp 300 2100 50
thermo_style    custom step temp press pe etotal
dump dump2 all custom ${nthermo} dump/dump_heat.lammpstrj   id   type   x   y   z   q
dump dump2 all custom 100 dump/dump_heat.lammpstrj   id   type   x   y   z   q

run             ${nheat}
run             180000
WARNING: Compute rdf cutoff less than neighbor cutoff - forcing a needless neighbor list build (src/compute_rdf.cpp:179)
Neighbor list info ...
  update: every = 10 steps, delay = 0 steps, check = yes
  max neighbors/atom: 2000, page size: 100000
  master list distance cutoff = 12
  ghost atom cutoff = 12
  binsize = 6, bins = 5 3 3
  3 neighbor lists, perpetual/occasional/extra = 2 1 0
  (1) pair reaxff, perpetual
      attributes: half, newton off, ghost
      pair build: half/bin/newtoff/ghost
      stencil: full/ghost/bin/3d
      bin: standard
  (2) compute rdf, occasional
      attributes: half, newton on, cut 7
      pair build: half/bin/newton/tri
      stencil: half/bin/3d/tri
      bin: standard
  (3) fix qeq/reaxff, perpetual, copy from (1)
      attributes: half, newton off
      pair build: copy
      stencil: none
      bin: none
Per MPI rank memory allocation (min/avg/max) = 203.4 | 203.8 | 204.2 Mbytes
   Step          Temp          Press          PotEng         TotEng    
         0   270.34709      9292.1401     -36524.587     -36258.655    
       100   293.17012      11643.584     -36534.976     -36246.595    
       200   304.62736     -9438.1593     -36517.44      -36217.788    
       300   321.56338      7458.6522     -36518.887     -36202.576    
       400   311.33936      11201.046     -36515.816     -36209.561    
       500   300.98436      1707.2643     -36515.885     -36219.817    
       600   312.96604      13867.739     -36539.727     -36231.872    
       700   295.85033     -4228.4418     -36531.917     -36240.899    
       800   309.53036     -8650.9329     -36546.71      -36242.235    
       900   316.43678      555.15846     -36541.051     -36229.783    
      1000   313.94843      833.54467     -36520.588     -36211.767    
      1100   320.73109      19507.654     -36544.199     -36228.707    
      1200   307.48487     -6289.2553     -36557.748     -36255.286    
      1300   292.47793      5912.1716     -36544.961     -36257.26     
      1400   322.29441      522.09587     -36562.359     -36245.329    
      1500   341.94932     -7268.2263     -36564.446     -36228.081    
      1600   327.9175       4797.4445     -36535.455     -36212.893    
      1700   324.60387      2337.388      -36545.943     -36226.64     
      1800   312.90581     -3883.2929     -36561.339     -36253.543    
      1900   312.17602     -16186.944     -36571.993     -36264.915    
      2000   304.21088      10930.211     -36551.262     -36252.02     
      2100   322.36834      3331.1257     -36531.52      -36214.416    
      2200   337.28669     -12371.424     -36543.236     -36211.458    
      2300   322.12113      3277.3585     -36543.04      -36226.18     
      2400   315.27099     -8872.9975     -36554.219     -36244.097    
      2500   309.58448      11426.738     -36557.161     -36252.633    
      2600   327.19857     -1641.0063     -36567.649     -36245.795    
      2700   333.34223      16468.901     -36539.69      -36211.792    
      2800   335.33823     -142.60688     -36524.208     -36194.346    
      2900   339.44581      9738.6357     -36535.981     -36202.08     
      3000   332.52197     -7900.2351     -36554.861     -36227.77     
      3100   316.66781      8814.598      -36553.711     -36242.215    
      3200   335.27669      6115.8018     -36539.999     -36210.198    
      3300   358.90736      8086.892      -36538.011     -36184.965    
      3400   347.32905      6662.6632     -36541.851     -36200.194    
      3500   322.55502      4683.2404     -36538.287     -36221        
      3600   311.37787      3471.0808     -36533.318     -36227.026    
      3700   340.14766      4949.1788     -36523.415     -36188.823    
      3800   337.11629      300.78952     -36502.295     -36170.684    
      3900   352.72774      14151.241     -36527.42      -36180.453    
      4000   329.98798     -18292.461     -36530.959     -36206.361    
      4100   322.46136     -8872.9103     -36537.436     -36220.241    
      4200   327.64158      1737.3003     -36527.2       -36204.91     
      4300   340.80522     -714.05873     -36499.031     -36163.792    
      4400   358.82547      421.95294     -36514.395     -36161.43     
      4500   344.62296      10121.766     -36517.732     -36178.738    
      4600   328.58347      846.71105     -36521.975     -36198.758    
      4700   331.37897      3235.7916     -36533.934     -36207.968    
      4800   358.2639       7529.8941     -36536.684     -36184.272    
      4900   345.98792      4801.5395     -36493.346     -36153.009    
      5000   351.02917      4704.5707     -36506.453     -36161.157    
      5100   346.67044     -3391.8154     -36517.55      -36176.542    
      5200   348.41152      5146.2819     -36517.503     -36174.782    
      5300   354.24308      2427.3768     -36514.197     -36165.739    
      5400   332.55456     -995.354       -36483.612     -36156.489    
      5500   336.03026      15851.067     -36478.808     -36148.266    
      5600   359.33846     -11218.174     -36489.791     -36136.321    
      5700   347.36579     -6809.8319     -36480.715     -36139.023    
      5800   353.46801     -3711.3703     -36511.038     -36163.343    
      5900   355.90423      13401.105     -36534.206     -36184.114    
      6000   327.11843      6875.4529     -36489.021     -36167.245    
      6100   347.04988     -8727.6886     -36475.598     -36134.216    
      6200   374.94942      9785.7738     -36491.5       -36122.675    
      6300   358.91887      4322.4182     -36480.977     -36127.92     
      6400   384.51417      1030.2083     -36512.208     -36133.974    
      6500   357.8393      -944.05863     -36499.043     -36147.049    
      6600   335.67803     -1019.4917     -36478.712     -36148.516    
      6700   384.9468      -4221.5782     -36491.622     -36112.963    
      6800   398.33054     -4245.4638     -36498.605     -36106.781    
      6900   364.33899      1815.5119     -36490.295     -36131.907    
      7000   365.60883      2310.5863     -36516.528     -36156.891    
      7100   357.48325      11448.736     -36505.018     -36153.374    
      7200   368.90795     -3062.6159     -36506.857     -36143.975    
      7300   367.14823      6053.7491     -36482.022     -36120.871    
      7400   367.03726     -20627.498     -36456.76      -36095.718    
      7500   371.00402     -12002.669     -36464.407     -36099.462    
      7600   377.28225      13429.044     -36484.345     -36113.225    
      7700   357.11373     -6271.7193     -36463.266     -36111.985    
      7800   368.78661      4890.7153     -36461.044     -36098.281    
      7900   376.02107     -7379.7941     -36452.873     -36082.993    
      8000   402.72756     -7921.5468     -36438.185     -36042.035    
      8100   395.51697      3632.6794     -36429.471     -36040.414    
      8200   393.29553     -6786.2181     -36468.512     -36081.64     
      8300   392.79306     -881.44697     -36482.559     -36096.181    
      8400   370.7068      -4846.7494     -36465.249     -36100.597    
      8500   391.80415      8559.3773     -36461.845     -36076.44     
      8600   407.43331      4842.8512     -36457.029     -36056.25     
      8700   393.68479     -10008.259     -36451.756     -36064.501    
      8800   408.34851      3985.6947     -36477.956     -36076.277    
      8900   379.87542     -7665.4111     -36462.542     -36088.871    
      9000   370.35237      6863.7768     -36444.265     -36079.962    
      9100   382.95768      8496.1673     -36428.182     -36051.479    
      9200   429.16802     -742.03331     -36469.525     -36047.367    
      9300   396.59538      6478.7228     -36462.029     -36071.911    
      9400   381.17416      4652.4225     -36480.869     -36105.921    
      9500   369.34237      2629.4186     -36467.784     -36104.474    
      9600   384.40791      1364.4507     -36457.326     -36079.197    
      9700   379.47146      8619.2787     -36441.79      -36068.516    
      9800   409.09896     -6831.8663     -36452.614     -36050.197    
      9900   418.63359     -10970.506     -36448.148     -36036.351    
     10000   399.82597     -12056.324     -36408.289     -36014.993    
     10100   436.73686      7630.3418     -36418.488     -35988.884    
     10200   435.27031     -7145.5157     -36445.323     -36017.162    
     10300   417.72605      4318.0552     -36470.906     -36060.003    
     10400   400.94173     -10833.861     -36463.243     -36068.85     
     10500   406.62646     -7026.8603     -36452.946     -36052.961    
     10600   413.97248      247.99724     -36429.303     -36022.092    
     10700   405.6386       6600.1461     -36428.014     -36029        
     10800   389.55753     -383.11968     -36447.226     -36064.031    
     10900   377.34786     -11193.579     -36474.329     -36103.145    
     11000   409.01729     -1429.7355     -36494.518     -36092.181    
     11100   404.58795     -1369.8291     -36460.589     -36062.609    
     11200   401.98877      1848.5164     -36431.54      -36036.117    
     11300   400.49656      13791.851     -36415.978     -36022.022    
     11400   422.0948       16162.425     -36432.222     -36017.022    
     11500   420.30521      10180.222     -36438.211     -36024.77     
     11600   415.95234     -6766.214      -36451.242     -36042.084    
     11700   395.14119      3935.9273     -36450.372     -36061.685    
     11800   378.90094     -4257.1598     -36424.637     -36051.924    
     11900   443.71126      12055.091     -36443.37      -36006.905    
     12000   413.28161     -2126.7947     -36397.391     -35990.859    
     12100   418.88678     -3992.7379     -36407.396     -35995.351    
     12200   398.19576      8105.4337     -36419.949     -36028.257    
     12300   390.90083      1732.4309     -36442.864     -36058.348    
     12400   402.64697      4709.5384     -36448.415     -36052.345    
     12500   435.81922      12153.61      -36423.406     -35994.705    
     12600   433.53438     -14318.029     -36411.41      -35984.956    
     12700   427.92029     -11271.922     -36412.623     -35991.692    
     12800   422.6338      -5795.1008     -36403.833     -35988.102    
     12900   430.78228      11900.999     -36405.732     -35981.986    
     13000   419.47526      10518.495     -36387.146     -35974.522    
     13100   436.24428     -5098.3044     -36410.625     -35981.506    
     13200   430.8194       3367.9165     -36416.579     -35992.796    
     13300   422.24741      1622.7871     -36431.561     -36016.21     
     13400   436.10961      487.05065     -36449.865     -36020.878    
     13500   443.94064     -1522.2406     -36414.769     -35978.079    
     13600   442.5486      -2919.6301     -36384.733     -35949.412    
     13700   428.26204     -8462.7737     -36379.127     -35957.86     
     13800   453.59793      4603.2572     -36434.123     -35987.934    
     13900   417.32834      11967.874     -36415.771     -36005.259    
     14000   429.29504      12917.567     -36413.703     -35991.42     
     14100   429.38323      599.79074     -36402.215     -35979.845    
     14200   440.28402      2149.507      -36396.275     -35963.182    
     14300   466.18798     -5841.24       -36397.667     -35939.093    
     14400   490.25141      2701.1131     -36415.765     -35933.521    
     14500   454.93202     -5364.5479     -36415.025     -35967.523    
     14600   443.0478       14220.14      -36433.278     -35997.467    
     14700   417.68811     -12985.692     -36413.458     -36002.592    
     14800   453.01767     -9671.2824     -36424.524     -35978.905    
     14900   465.04868     -5334.7641     -36386.098     -35928.645    
     15000   492.38101      15398.707     -36412.428     -35928.089    
     15100   442.26046      11373.023     -36387.904     -35952.867    
     15200   455.08528     -4308.7326     -36407.447     -35959.794    
     15300   422.83862     -13972.458     -36365.988     -35950.055    
     15400   509.06745      2262.1697     -36389.14      -35888.387    
     15500   504.42756      6821.3813     -36382.242     -35886.053    
     15600   477.73578      14661.658     -36395.543     -35925.61     
     15700   443.26197      9299.7849     -36391.111     -35955.089    
     15800   441.24976     -2128.7414     -36393.609     -35959.566    
     15900   447.30238     -2289.2854     -36376.102     -35936.105    
     16000   471.54308      9512.6936     -36362.296     -35898.455    
     16100   476.83986      322.8687      -36367.287     -35898.235    
     16200   485.41033      7932.3431     -36391.734     -35914.252    
     16300   491.07043      7083.8655     -36417.125     -35934.075    
     16400   478.35612      6560.5619     -36420.112     -35949.569    
     16500   462.25499      7757.6588     -36432.067     -35977.361    
     16600   447.06972     -12168.11      -36435.344     -35995.576    
     16700   466.59207     -6514.6252     -36450.27      -35991.299    
     16800   481.87307     -8156.2408     -36414.659     -35940.656    
     16900   501.04365      10217.084     -36403.854     -35910.994    
     17000   472.67428      10266.612     -36382.87      -35917.916    
     17100   495.82348     -6784.7962     -36429.367     -35941.642    
     17200   457.54822      1800.0692     -36424.185     -35974.109    
     17300   415.67021      473.33915     -36418.717     -36009.836    
     17400   453.87547     -3628.4418     -36420.631     -35974.168    
     17500   470.44324     -4970.7157     -36397.833     -35935.073    
     17600   496.07171     -11353.59      -36418.216     -35930.247    
     17700   467.90713     -4803.2868     -36410.174     -35949.909    
     17800   442.81885     -4536.1693     -36403.785     -35968.198    
     17900   479.7475       9352.7834     -36427.858     -35955.946    
     18000   487.63669      1735.2298     -36381.074     -35901.402    
     18100   489.16916      4563.4159     -36364.057     -35882.877    
     18200   469.34355      6321.0395     -36348.16      -35886.483    
     18300   462.11328      7862.9357     -36368.635     -35914.069    
     18400   453.9176       33.255802     -36410.493     -35963.989    
     18500   451.78401      6857.9749     -36411.42      -35967.015    
     18600   476.98618     -6457.3503     -36405.495     -35936.299    
     18700   412.3004       10910.041     -36318.165     -35912.599    
     18800   509.40368      19388.823     -36391.885     -35890.801    
     18900   475.08662      913.23847     -36361.713     -35894.386    
     19000   506.97151      2135.1408     -36438.761     -35940.07     
     19100   435.22456      10891.084     -36402.234     -35974.118    
     19200   462.15815      6957.5355     -36398.469     -35943.859    
     19300   492.40899     -5011.472      -36391.765     -35907.398    
     19400   491.39232      1259.8773     -36383.417     -35900.05     
     19500   497.9483       12251.212     -36378.139     -35888.323    
     19600   525.82639      1455.6695     -36363.796     -35846.557    
     19700   573.74474     -10111.642     -36368.467     -35804.093    
     19800   514.16674      1857.3429     -36346.516     -35840.747    
     19900   510.74079     -7338.9264     -36377.181     -35874.782    
     20000   492.29439      7103.003      -36362.296     -35878.042    
     20100   508.92962     -1090.8914     -36372.429     -35871.812    
     20200   497.91879      8847.8589     -36347.811     -35858.025    
     20300   535.71126      5967.6946     -36343.06      -35816.098    
     20400   563.49763      6183.152      -36372.904     -35818.61     
     20500   492.46563      2584.4123     -36359.035     -35874.613    
     20600   469.70866      1129.8798     -36334.71      -35872.673    
     20700   495.90836     -15240.003     -36331.393     -35843.584    
     20800   539.22621     -4822.1847     -36346.346     -35815.927    
     20900   540.00047      2480.8998     -36325.174     -35793.993    
     21000   517.08304     -9751.9023     -36329.125     -35820.488    
     21100   488.69276     -2741.9078     -36356.247     -35875.536    
     21200   501.18203     -5568.4154     -36383.061     -35890.065    
     21300   522.92754      11496.903     -36381.684     -35867.297    
     21400   525.43686     -2081.6348     -36335.48      -35818.625    
     21500   542.30853      8316.5912     -36346.791     -35813.34     
     21600   504.81084     -3534.6492     -36339.984     -35843.418    
     21700   511.13166      6353.5167     -36350.852     -35848.068    
     21800   507.7003       4760.9612     -36346.465     -35847.056    
     21900   525.80746      4854.5899     -36333.577     -35816.358    
     22000   537.74113      18523.35      -36307.454     -35778.495    
     22100   561.78498     -4757.4579     -36303.664     -35751.055    
     22200   557.61612     -7092.2955     -36296.388     -35747.88     
     22300   522.89418      2623.4462     -36319.184     -35804.83     
     22400   525.02013      7575.5433     -36360.523     -35844.078    
     22500   512.70891     -1001.4881     -36355.808     -35851.473    
     22600   494.25459      14430.07      -36332.165     -35845.983    
     22700   518.96604      695.6312      -36295.252     -35784.762    
     22800   553.71289      47.124765     -36311.547     -35766.877    
     22900   530.0377      -17390.334     -36305.87      -35784.49     
     23000   541.53239      8622.7536     -36362.226     -35829.538    
     23100   502.13769      11439.341     -36340.812     -35846.875    
     23200   531.21363      5458.7456     -36349.223     -35826.685    
     23300   565.71879      6638.1742     -36356.25      -35799.771    
     23400   555.41507     -3386.3368     -36345.792     -35799.449    
     23500   536.67578      253.567       -36372.334     -35844.424    
     23600   488.73396     -12949.265     -36358.64      -35877.888    
     23700   541.94493      727.80042     -36383.776     -35850.683    
     23800   541.50168      14667.921     -36319.216     -35786.558    
     23900   552.75599     -14236.558     -36317.297     -35773.569    
     24000   525.48163      2813.351      -36310.697     -35793.798    
     24100   512.38713      8167.1292     -36326.656     -35822.638    
     24200   509.25839     -799.14054     -36343.762     -35842.822    
     24300   536.60091      6496.1683     -36315.077     -35787.24     
     24400   548.91783     -113.7864      -36290.088     -35750.136    
     24500   567.40866      366.77657     -36310.724     -35752.583    
     24600   542.91153      11312.512     -36334.156     -35800.112    
     24700   509.73314     -18183.53      -36313.722     -35812.314    
     24800   548.69423      81.710255     -36327.796     -35788.063    
     24900   511.609        3880.9544     -36274.158     -35770.905    
     25000   523.46648      1811.8022     -36263.406     -35748.489    
     25100   561.05626      14531.857     -36297.683     -35745.79     
     25200   512.47906     -4926.065      -36262.121     -35758.012    
     25300   514.26013      1571.7838     -36277.231     -35771.37     
     25400   555.36734      15464.127     -36303.932     -35757.635    
     25500   565.95481      9406.1014     -36280.761     -35724.05     
     25600   581.77481      7276.2548     -36274.732     -35702.459    
     25700   571.79926      920.9067      -36282.771     -35720.311    
     25800   531.98896      2408.6078     -36305.855     -35782.555    
     25900   522.6018      -9356.4831     -36305.834     -35791.768    
     26000   554.88937      1499.6003     -36300.36      -35754.533    
     26100   518.26566      7700.7567     -36231.066     -35721.265    
     26200   567.57369     -5505.6619     -36263.379     -35705.075    
     26300   578.53882      3647.9649     -36269.849     -35700.759    
     26400   563.86489      1379.9396     -36271.686     -35717.031    
     26500   545.57216     -5084.0388     -36319.425     -35782.764    
     26600   518.14027      27417.793     -36314.93      -35805.253    
     26700   545.0018       2404.9811     -36302.251     -35766.15     
     26800   567.7743       4727.4254     -36283.743     -35725.242    
     26900   554.62122      6864.1744     -36256.757     -35711.194    
     27000   584.573       -4442.7462     -36268.516     -35693.49     
     27100   616.49888      10023.608     -36269.651     -35663.221    
     27200   582.34396      5694.8343     -36220.46      -35647.627    
     27300   517.99388     -12150.694     -36198.774     -35689.241    
     27400   546.04093     -1539.7474     -36259.009     -35721.887    
     27500   569.44428     -8047.1335     -36292.877     -35732.733    
     27600   559.79481      17071.584     -36307.237     -35756.585    
     27700   553.99724      2485.9795     -36315.501     -35770.552    
     27800   574.52605      4321.5909     -36280.625     -35715.483    
     27900   598.96856      12730.83      -36264.092     -35674.906    
     28000   575.43801     -15456.497     -36229.017     -35662.977    
     28100   615.64038     -15335.018     -36260.095     -35654.51     
     28200   574.47657      10649.03      -36240.223     -35675.129    
     28300   567.47381     -6197.5846     -36277.109     -35718.904    
     28400   605.37371      8127.7953     -36323.213     -35727.727    
     28500   581.82081     -7968.4673     -36254.343     -35682.025    
     28600   616.69932      11594.243     -36240.424     -35633.797    
     28700   603.02135      7859.0368     -36229.78      -35636.608    
     28800   578.27704      6542.9597     -36240.081     -35671.249    
     28900   569.40394      7586.331      -36277.892     -35717.788    
     29000   587.01039      259.46164     -36304.521     -35727.098    
     29100   567.09477      16108.128     -36270.108     -35712.276    
     29200   608.90552     -7069.0607     -36273.602     -35674.642    
     29300   572.76954      9139.5282     -36209.567     -35646.152    
     29400   603.70916      2549.8911     -36232.857     -35639.008    
     29500   596.7185       12179.632     -36286.766     -35699.794    
     29600   568.16597      5065.2689     -36285.768     -35726.882    
     29700   577.9016      -1724.9213     -36270.558     -35702.095    
     29800   601.10271      11438.345     -36240.662     -35649.377    
     29900   594.43497      17062.019     -36220.849     -35636.123    
     30000   603.52538      4539.1277     -36240.852     -35647.184    
     30100   587.5289      -24039.785     -36244.878     -35666.945    
     30200   564.19257      82.756561     -36255.159     -35700.181    
     30300   581.05321      7146.1206     -36305.768     -35734.205    
     30400   557.7886      -4581.1112     -36266.991     -35718.313    
     30500   611.31936     -11270.164     -36254.007     -35652.672    
     30600   600.07351      17218.551     -36220.494     -35630.221    
     30700   633.00248     -1051.0074     -36218.521     -35595.857    
     30800   623.08076      4053.8835     -36217.035     -35604.131    
     30900   621.14275      6990.4841     -36268.983     -35657.985    
     31000   585.23579      5633.1985     -36272.341     -35696.663    
     31100   580.62002      23931.519     -36231.573     -35660.436    
     31200   615.03693      2682.1453     -36233.284     -35628.292    
     31300   631.40779     -19569.274     -36224.528     -35603.433    
     31400   621.65798      7929.9002     -36196.274     -35584.769    
     31500   596.17154      61.930912     -36154.966     -35568.532    
     31600   673.19397      16589.411     -36200.217     -35538.019    
     31700   644.48013      7163.84       -36175.374     -35541.42     
     31800   601.34128     -8646.3767     -36194.705     -35603.185    
     31900   552.76736     -1612.737      -36179.939     -35636.2      
     32000   600.10188     -2604.1582     -36210.199     -35619.898    
     32100   601.03048     -20481.319     -36168.621     -35577.407    
     32200   618.06951     -10104.831     -36166.417     -35558.443    
     32300   638.9621       1462.4307     -36201.735     -35573.209    
     32400   616.88883     -9597.5668     -36210.321     -35603.508    
     32500   600.03659      4183.2369     -36228.019     -35637.782    
     32600   595.10667     -13084.309     -36219.435     -35634.048    
     32700   664.63845      2013.5593     -36211.45      -35557.667    
     32800   642.83261      2749.8803     -36170.981     -35538.647    
     32900   606.24023     -5537.4279     -36151.607     -35555.268    
     33000   617.76223      11751.635     -36211.672     -35604        
     33100   584.44932      10400.082     -36232.507     -35657.603    
     33200   629.91243      13908.303     -36264.415     -35644.791    
     33300   596.47392      1245.693      -36195.837     -35609.105    
     33400   638.09222      5747.2882     -36201.023     -35573.352    
     33500   661.58284      3182.7442     -36207.775     -35556.997    
     33600   611.57221     -3381.4053     -36163.707     -35562.123    
     33700   687.92466      17433.099     -36256.018     -35579.329    
     33800   629.27303     -7940.9629     -36241.242     -35622.247    
     33900   614.78925      151.25962     -36254.526     -35649.777    
     34000   601.7517       4529.399      -36199.175     -35607.252    
     34100   643.0754       16120.516     -36187.346     -35554.774    
     34200   623.52379     -9163.583      -36163.811     -35550.471    
     34300   636.93319     -10849.801     -36173.825     -35547.294    
     34400   638.10595      6689.5588     -36172.05      -35544.367    
     34500   648.70621      18381.19      -36171.124     -35533.013    
     34600   676.8463       1963.848      -36210.533     -35544.741    
     34700   649.84693      14154.03      -36225.544     -35586.311    
     34800   590.15335      456.78707     -36176.236     -35595.722    
     34900   648.14841      10771.013     -36157.041     -35519.479    
     35000   645.82049     -1285.9587     -36139.333     -35504.06     
     35100   695.32687     -18188.047     -36213.43      -35529.46     
     35200   638.00365     -8412.0991     -36200.702     -35573.118    
     35300   627.90726      5610.8269     -36192.111     -35574.459    
     35400   700.73994     -3752.8144     -36192.946     -35503.651    
     35500   709.60789     -5926.6822     -36152.825     -35454.807    
     35600   655.47387      10121.571     -36133.234     -35488.465    
     35700   625.72177      12329.113     -36156.602     -35541.1      
     35800   626.46257      6219.2165     -36176.646     -35560.416    
     35900   624.59244      11518.092     -36175.601     -35561.21     
     36000   617.98232     -13530.846     -36143.517     -35535.628    
     36100   710.68271      4251.5813     -36153.608     -35454.533    
     36200   651.3221      -16059.71      -36113.704     -35473.019    
     36300   671.24413      1776.9249     -36179.729     -35519.448    
     36400   687.65716     -2352.1823     -36247.705     -35571.279    
     36500   674.54809     -1101.1322     -36236.079     -35572.548    
     36600   678.9979      -2134.7415     -36218.883     -35550.975    
     36700   664.79429      19511.273     -36191.432     -35537.496    
     36800   672.81777     -2256.2985     -36189.264     -35527.435    
     36900   692.80266     -9653.8113     -36202.537     -35521.049    
     37000   693.88955      2647.8284     -36206.01      -35523.454    
     37100   711.23542      7005.8738     -36216.445     -35516.826    
     37200   692.81233      1418.5189     -36181.805     -35500.308    
     37300   707.64738      2819.8513     -36154.937     -35458.847    
     37400   724.12585     -3348.8008     -36159.551     -35447.252    
     37500   684.0273       4655.6011     -36193.791     -35520.936    
     37600   671.65282      962.69803     -36209.998     -35549.315    
     37700   671.07476      3709.953      -36202.34      -35542.225    
     37800   697.44594      22704.56      -36170.852     -35484.798    
     37900   689.58772      5017.0253     -36135.891     -35457.566    
     38000   692.34162     -7514.1981     -36166.908     -35485.874    
     38100   635.1019      -12522.857     -36213.037     -35588.308    
     38200   662.73913     -910.83601     -36230.277     -35578.363    
     38300   659.43489     -27458.821     -36189.306     -35540.641    
     38400   680.32629     -1972.1919     -36159.213     -35489.999    
     38500   714.87707     -6929.4384     -36180.424     -35477.223    
     38600   668.4249       11158.147     -36167.362     -35509.855    
     38700   661.99352     -3511.9959     -36238.946     -35587.764    
     38800   640.72446     -2084.421      -36208.605     -35578.345    
     38900   638.36493     -14261.966     -36156.811     -35528.873    
     39000   723.20542     -1776.5037     -36203.987     -35492.593    
     39100   708.64667     -13723.686     -36188.648     -35491.576    
     39200   700.57255     -947.03489     -36212.269     -35523.138    
     39300   681.87169      6104.2914     -36197.417     -35526.682    
     39400   704.38425     -4277.3712     -36137.861     -35444.981    
     39500   729.19181      6841.737      -36138.315     -35421.032    
     39600   739.19379     -6510.5796     -36187.993     -35460.872    
     39700   698.24192      8900.6776     -36195.532     -35508.695    
     39800   646.66053      4775.7475     -36150.522     -35514.423    
     39900   705.30208     -8489.9574     -36185.094     -35491.312    
     40000   727.38726      8639.439      -36193.613     -35478.106    
     40100   703.85228      5281.8368     -36146.668     -35454.312    
     40200   779.51092     -7873.9892     -36145.898     -35379.119    
     40300   748.24361      16318.629     -36092.7       -35356.678    
     40400   734.88229      4148.3649     -36144.656     -35421.776    
     40500   725.9266       12342.98      -36182.233     -35468.163    
     40600   677.23258     -13665.659     -36141.566     -35475.394    
     40700   693.94543     -2441.8165     -36128.11      -35445.498    
     40800   757.65111      10045.27      -36145.282     -35400.005    
     40900   763.18524     -1958.9118     -36093.094     -35342.373    
     41000   679.11324      12441.474     -36079.641     -35411.619    
     41100   703.32026      8671.1199     -36138.089     -35446.256    
     41200   748.17355     -13299.733     -36187.857     -35451.903    
     41300   700.80996      10121.909     -36147.505     -35458.141    
     41400   748.13108      2003.8916     -36152.865     -35416.953    
     41500   764.93591     -3712.0438     -36104.31      -35351.867    
     41600   705.93974     -7858.9447     -36063.693     -35369.283    
     41700   698.65857     -14557.736     -36111.566     -35424.318    
     41800   668.90634     -7703.8108     -36104.68      -35446.698    
     41900   724.24698      7585.0122     -36153.016     -35440.598    
     42000   685.10749     -12700.898     -36124.536     -35450.618    
     42100   705.91571      16734.35      -36171.556     -35477.17     
     42200   677.67057     -6237.7672     -36140.366     -35473.764    
     42300   743.90463     -6226.4578     -36134.69      -35402.935    
     42400   758.384       -1489.0076     -36135.595     -35389.598    
     42500   726.17299      5856.6412     -36133.619     -35419.306    
     42600   690.16596      5847.0648     -36163.641     -35484.747    
     42700   683.31185     -7950.613      -36165.581     -35493.43     
     42800   731.19257      15807.967     -36140.196     -35420.945    
     42900   784.74408      2788.7746     -36120.019     -35348.092    
     43000   760.79694      1510.2724     -36118.989     -35370.618    
     43100   752.06108     -6916.0203     -36157.584     -35417.806    
     43200   693.60949     -17271.184     -36123.756     -35441.475    
     43300   720.6616      -16967.801     -36145.883     -35436.992    
     43400   747.35541     -9983.6845     -36102.293     -35367.144    
     43500   786.95918     -16527.547     -36094.844     -35320.738    
     43600   742.56748     -478.84707     -36065.408     -35334.968    
     43700   728.20008     -13614.964     -36102.961     -35386.654    
     43800   698.70506     -1221.7962     -36100.272     -35412.979    
     43900   715.06277     -12452.218     -36108.469     -35405.085    
     44000   741.44489      9246.5913     -36097.451     -35368.116    
     44100   753.37915      9961.2742     -36101.655     -35360.581    
     44200   723.95216     -9042.3516     -36139.957     -35427.829    
     44300   667.48257     -3219.6095     -36127.471     -35470.89     
     44400   735.71077      12353.795     -36165.701     -35442.007    
     44500   749.40738     -19866.154     -36154.191     -35417.024    
     44600   758.9584       15712.408     -36138.368     -35391.806    
     44700   751.88689      5234.7838     -36146.081     -35406.475    
     44800   745.42977      4485.4649     -36197.125     -35463.87     
     44900   663.24938     -1426.4239     -36147.43      -35495.014    
     45000   765.23967      3431.6092     -36161.679     -35408.937    
     45100   716.96002     -2349.6362     -36076.262     -35371.012    
     45200   766.1586      -5753.0046     -36095.552     -35341.907    
     45300   748.23112      19555.769     -36069.353     -35333.342    
     45400   777.36181      22147.853     -36132.381     -35367.716    
     45500   715.26342     -2393.272      -36138.97      -35435.389    
     45600   728.62845      386.12301     -36138.197     -35421.469    
     45700   795.56695      192.00478     -36149.928     -35367.354    
     45800   808.21218      13500.767     -36132.886     -35337.874    
     45900   757.36929     -7951.0919     -36078.493     -35333.493    
     46000   773.3969       2402.9098     -36114.428     -35353.662    
     46100   732.16285     -6098.2911     -36142.86      -35422.655    
     46200   693.48197     -11881.904     -36139.358     -35457.202    
     46300   734.07095      6000.569      -36127.94      -35405.858    
     46400   766.48496      19438.708     -36078.954     -35324.988    
     46500   809.73595      21666.005     -36136.639     -35340.128    
     46600   750.24498     -4150.5056     -36112.006     -35374.015    
     46700   725.78782     -5105.6218     -36114.176     -35400.243    
     46800   707.94971      3589.6224     -36115.182     -35418.795    
     46900   712.71218     -15799.668     -36105.869     -35404.797    
     47000   738.79127     -15100.829     -36042.06      -35315.335    
     47100   785.92928     -15762.93      -36039.387     -35266.294    
     47200   773.74567     -788.39557     -36026.678     -35265.57     
     47300   783.41966      20766.302     -36098.337     -35327.712    
     47400   782.61837     -274.32265     -36141.524     -35371.688    
     47500   740.27261      1798.4483     -36100.318     -35372.136    
     47600   733.92005     -5613.4391     -36072.893     -35350.96     
     47700   797.17628      25763.69      -36116.552     -35332.396    
     47800   799.54475      2443.1969     -36120.354     -35333.867    
     47900   753.98186     -15408.178     -36051.365     -35309.698    
     48000   836.9615       3713.335      -36070.789     -35247.497    
     48100   823.00754     -71.565185     -35975.462     -35165.896    
     48200   802.66823      12759.969     -35977.118     -35187.56     
     48300   815.06655     -7186.9516     -36055.987     -35254.232    
     48400   776.22428      1397.432      -36050.601     -35287.055    
     48500   788.18681      16380.727     -36089.045     -35313.732    
     48600   795.33898      6042.8094     -36137.98      -35355.631    
     48700   768.01109     -3255.3507     -36151.28      -35395.813    
     48800   777.95437     -2175.0912     -36077.568     -35312.32     
     48900   789.46937      15348.437     -36031.663     -35255.088    
     49000   789.2235       330.33065     -36018.69      -35242.357    
     49100   809.24984      15300.062     -36065.272     -35269.24     
     49200   771.95651      8690.0422     -36094.986     -35335.637    
     49300   736.0439      -22284.434     -36047.949     -35323.926    
     49400   804.07115      1875.5222     -36043.826     -35252.887    
     49500   819.52145     -7224.214      -36030.862     -35224.725    
     49600   739.32254     -12544.74      -35981.5       -35254.252    
     49700   763.14515     -8829.3923     -36029.159     -35278.478    
     49800   826.17391      8103.7016     -36088.501     -35275.821    
     49900   826.29506      6731.6779     -36056.439     -35243.64     
     50000   806.62903     -6222.1931     -36018.705     -35225.251    
     50100   823.63447     -7991.831      -36038.399     -35228.217    
     50200   828.93211      15643.535     -36067.737     -35252.344    
     50300   728.54957     -3489.4511     -36029.782     -35313.132    
     50400   790.04689     -621.21554     -36067.349     -35290.206    
     50500   869.34279      6106.09       -36059.926     -35204.781    
     50600   796.26149     -2124.6228     -35980.091     -35196.834    
     50700   880.35845      3471.825      -36089.132     -35223.152    
     50800   829.60569     -1454.444      -36089.517     -35273.461    
     50900   810.16101      12070.782     -36080.992     -35284.063    
     51000   781.53959      17919.921     -36009.303     -35240.528    
     51100   876.50647      13099.985     -35988.429     -35126.238    
     51200   860.02524      8797.4718     -36007.042     -35161.063    
     51300   777.34894      2780.6335     -35984.492     -35219.84     
     51400   811.56625     -4558.4026     -36050.225     -35251.914    
     51500   769.52466     -20391.782     -36021.751     -35264.795    
     51600   748.97034     -11671.208     -35992.296     -35255.558    
     51700   883.62192     -21109.421     -36046.331     -35177.141    
     51800   839.26418      8320.3024     -35979.005     -35153.448    
     51900   879.57825      18064.86      -36038.492     -35173.28     
     52000   782.18843      22234.586     -36027.762     -35258.349    
     52100   789.37927     -18448.136     -36033.084     -35256.598    
     52200   850.50753     -6332.2332     -36061.512     -35224.896    
     52300   838.06751      23529.319     -36044.384     -35220.005    
     52400   814.14314      6863.7816     -36011.097     -35210.251    
     52500   820.47288      12578.3       -36011.429     -35204.357    
     52600   783.88487     -8234.3124     -35981.682     -35210.6      
     52700   809.24458      14261.013     -35973.967     -35177.94     
     52800   913.87565      3874.3325     -35996.169     -35097.219    
     52900   902.22149     -5694.986      -36015.199     -35127.713    
     53000   823.35411      15668.513     -36034.985     -35225.079    
     53100   797.67982     -9497.8093     -36030.367     -35245.715    
     53200   798.40372      7675.1466     -36004.884     -35219.52     
     53300   873.04364      15508.117     -36014.231     -35155.446    
     53400   900.91521     -3546.8603     -36030.637     -35144.437    
     53500   771.41891      957.76554     -35991.741     -35232.921    
     53600   763.29838     -5992.5594     -36026.604     -35275.772    
     53700   829.48383      16788.781     -36059.386     -35243.45     
     53800   816.38256      14254.81      -36014.707     -35211.658    
     53900   813.40603      1381.6746     -35988.823     -35188.702    
     54000   859.81051      5680.8485     -36027.49      -35181.723    
     54100   839.48716     -1872.4403     -36056.762     -35230.986    
     54200   758.6571      -4920.6203     -36002.391     -35256.124    
     54300   875.76105      2878.9207     -36056.807     -35195.349    
     54400   870.06171     -8908.9849     -35994.626     -35138.774    
     54500   838.97187     -2726.372      -35937.235     -35111.966    
     54600   884.62522     -4637.3788     -36002.104     -35131.927    
     54700   817.40054      14445.537     -35976.014     -35171.964    
     54800   744.52099      4639.3051     -36005.125     -35272.764    
     54900   845.35036      13958.448     -36071.911     -35240.368    
     55000   849.90967      16780.174     -36015.313     -35179.285    
     55100   924.39069      1437.7348     -36059.027     -35149.734    
     55200   830.62958      22672.575     -35955.344     -35138.281    
     55300   913.5842       24750.422     -36012.846     -35114.183    
     55400   853.0722       1886.0868     -35939.861     -35100.721    
     55500   911.70504      10401.255     -36025.78      -35128.966    
     55600   843.06389      2145.1476     -36029.569     -35200.275    
     55700   768.79158     -3073.8343     -35958.756     -35202.521    
     55800   804.42639     -14283.626     -35918.504     -35127.216    
     55900   869.49917     -6127.4361     -35925.849     -35070.551    
     56000   905.98265      3519.7496     -36010.373     -35119.187    
     56100   797.80294      27123.088     -35962.49      -35177.717    
     56200   818.44683     -9377.3038     -35962.999     -35157.92     
     56300   876.5285       5505.1965     -35936.914     -35074.702    
     56400   903.41856     -13755.221     -35938.861     -35050.198    
     56500   898.31909      8882.9079     -35957.561     -35073.914    
     56600   828.08877      11804.307     -35940.828     -35126.264    
     56700   857.72894      3224.8856     -36019.835     -35176.115    
     56800   831.33632     -187.31273     -35995.098     -35177.34     
     56900   909.24145     -8523.8383     -35945.184     -35050.793    
     57000   885.76553     -23717.775     -35903.441     -35032.143    
     57100   910.34665      5056.9176     -35990.422     -35094.944    
     57200   811.97294     -1790.1078     -35952.711     -35154        
     57300   854.54605     -445.09126     -35966.725     -35126.136    
     57400   951.1305      -9955.9651     -35988.883     -35053.287    
     57500   905.50065      7042.9784     -35936.857     -35046.146    
     57600   908.15904      12633.94      -35955.839     -35062.512    
     57700   870.69107     -3536.3632     -35949.728     -35093.258    
     57800   892.86313      32623.247     -35996.497     -35118.217    
     57900   844.90728     -1985.7247     -36012.781     -35181.673    
     58000   777.81499      5028.5051     -35968.572     -35203.461    
     58100   858.4405       5184.5901     -35950.104     -35105.684    
     58200   924.83464     -6686.0748     -35971.414     -35061.685    
     58300   891.81117      8665.2927     -35919.561     -35042.315    
     58400   901.15368      7554.312      -35896.857     -35010.421    
     58500   927.48685     -12538.24      -35915.395     -35003.056    
     58600   883.10875      7343.0809     -35922.566     -35053.881    
     58700   813.78313     -626.28538     -35930.26      -35129.768    
     58800   841.57808      9687.4394     -35947.228     -35119.395    
     58900   944.14081     -8437.2156     -35977.902     -35049.182    
     59000   978.7457       617.47655     -35968.777     -35006.017    
     59100   913.62931      18585.757     -35903.349     -35004.642    
     59200   871.98393     -16782.074     -35909.869     -35052.127    
     59300   861.95501     -5886.389      -35938.529     -35090.652    
     59400   878.10426      1935.2476     -35972.692     -35108.929    
     59500   877.75739     -9735.055      -35956.728     -35093.307    
     59600   909.23918     -2403.8739     -35923.465     -35029.077    
     59700   876.03255      13813.599     -35858.165     -34996.44     
     59800   919.47964      2116.7275     -35929.51      -35025.048    
     59900   861.08982      23581.474     -35959.533     -35112.507    
     60000   844.15444      5033.0599     -35962.211     -35131.844    
     60100   908.89506      17093.651     -35983.833     -35089.783    
     60200   901.92196     -24642.741     -35941.457     -35054.266    
     60300   881.63828      687.60427     -35892.615     -35025.376    
     60400   906.48286      9658.1915     -35875.033     -34983.356    
     60500   1020.3918     -11168.087     -35935.99      -34932.264    
     60600   947.80081     -2100.704      -35889.979     -34957.658    
     60700   878.71724      15362.046     -35918.995     -35054.629    
     60800   906.16998      10789.814     -35953.549     -35062.179    
     60900   946.21103     -18149.515     -35948.328     -35017.571    
     61000   960.51283     -19967.427     -35880.966     -34936.141    
     61100   1001.3759      27350.295     -35914.411     -34929.39     
     61200   828.32001     -11597.283     -35869.617     -35054.825    
     61300   883.87184      8986.6454     -35929.427     -35059.991    
     61400   899.92431     -9881.3251     -35896.257     -35011.031    
     61500   949.7866       28531.86      -35887.532     -34953.258    
     61600   913.77786     -10880.162     -35835.564     -34936.71     
     61700   905.72466      14869.662     -35840.568     -34949.636    
     61800   938.8223       6889.9108     -35931.586     -35008.097    
     61900   850.33942     -5880.705      -35886.632     -35050.181    
     62000   844.55187      8739.169      -35826.869     -34996.111    
     62100   943.76177      3814.5699     -35848.658     -34920.311    
     62200   920.2048      -6056.0107     -35825.104     -34919.928    
     62300   953.44182      17970.848     -35886.616     -34948.746    
     62400   908.34713     -10541.996     -35926.903     -35033.392    
     62500   875.09279     -399.17902     -35957.658     -35096.858    
     62600   912.95415      7817.3807     -35966.082     -35068.039    
     62700   914.06121      2711.0021     -35927.657     -35028.525    
     62800   958.5712      -3641.8248     -35932.656     -34989.741    
     62900   893.66318      9946.2922     -35842.041     -34962.974    
     63000   986.2728       26889.403     -35840.31      -34870.146    
     63100   983.09225     -4659.3393     -35807.498     -34840.462    
     63200   964.65036      10904.813     -35838.507     -34889.612    
     63300   987.83327      8761.0053     -35910.649     -34938.95     
     63400   925.64769     -3204.0412     -35868.116     -34957.587    
     63500   961.28939      5225.4354     -35899.607     -34954.018    
     63600   968.62212      2896.2104     -35878.354     -34925.552    
     63700   966.11755      35.042922     -35808.563     -34858.224    
     63800   1030.0577     -1386.2526     -35831.84      -34818.606    
     63900   912.59437      6862.3388     -35781.632     -34883.943    
     64000   873.89986     -2387.1333     -35834.506     -34974.879    
     64100   859.51767      7913.9432     -35812.976     -34967.496    
     64200   996.14896      4333.5582     -35905.966     -34926.087    
     64300   1015.8726      27229.88      -35883.062     -34883.781    
     64400   975.00698      15628.231     -35778.171     -34819.089    
     64500   986.14825      10409.894     -35765.851     -34795.809    
     64600   942.05364      19776.73      -35776.046     -34849.379    
     64700   956.63566     -12013.762     -35891.192     -34950.181    
     64800   897.66535      29067.154     -35850.413     -34967.409    
     64900   897.48584      5414.0309     -35804.536     -34921.709    
     65000   991.50066      6221.0552     -35831.786     -34856.48     
     65100   953.85249      9708.4528     -35786.62      -34848.347    
     65200   926.48388      700.89078     -35895.692     -34984.341    
     65300   880.5781       5489.0909     -35893.819     -35027.623    
     65400   913.65012      40.17778      -35877.984     -34979.256    
     65500   989.99968     -9974.079      -35885.119     -34911.288    
     65600   1000.3464      3976.6729     -35865.098     -34881.09     
     65700   989.64279      13275.042     -35856.188     -34882.709    
     65800   902.88304      2302.7941     -35814.027     -34925.891    
     65900   925.03163      13636.137     -35888.227     -34978.303    
     66000   960.42314      8825.2261     -35914.313     -34969.576    
     66100   993.20017     -2233.0401     -35866.383     -34889.404    
     66200   991.38631      12023.727     -35794.184     -34818.989    
     66300   995.27269      23805.722     -35835.073     -34856.055    
     66400   939.97051      5004.4055     -35827.058     -34902.44     
     66500   992.04131      21534.837     -35889.847     -34914.008    
     66600   975.37561     -3845.2821     -35862.033     -34902.588    
     66700   1025.1982     -4241.5664     -35847.302     -34838.848    
     66800   994.44479      2277.4627     -35711.53      -34733.327    
     66900   1029.2687      17173.065     -35789.602     -34777.144    
     67000   997.8522       20179.716     -35803.739     -34822.184    
     67100   990.21736     -17294.528     -35847.131     -34873.087    
     67200   939.97641      6099.0552     -35850.95      -34926.326    
     67300   989.64346     -7296.6762     -35892.267     -34918.787    
     67400   937.83436      15778.707     -35792.159     -34869.642    
     67500   1037.566       15084.548     -35727.011     -34706.391    
     67600   1101.1659      17384.167     -35793.562     -34710.381    
     67700   1056.2342      545.55851     -35868.381     -34829.398    
     67800   943.56171     -15933.12      -35842.304     -34914.154    
     67900   957.87938      16704.737     -35896.398     -34954.163    
     68000   915.38106     -5184.8923     -35897.091     -34996.66     
     68100   965.28905      10977.067     -35896.95      -34947.427    
     68200   1029.7292      12190.71      -35847.339     -34834.428    
     68300   956.29191      1761.5807     -35760.902     -34820.229    
     68400   970.13827      11342.249     -35803.78      -34849.487    
     68500   934.35083      17739.512     -35815.95      -34896.86     
     68600   966.2673       9696.8616     -35887.757     -34937.272    
     68700   919.76193      12760.593     -35863.391     -34958.651    
     68800   993.89866      19240.989     -35878.12      -34900.454    
     68900   1010.3365      11054.978     -35806.787     -34812.953    
     69000   1077.2982      15964.321     -35842.868     -34783.165    
     69100   1041.7138      34.842662     -35835.338     -34810.638    
     69200   857.28692      14994.794     -35734.676     -34891.391    
     69300   862.65864     -1956.6057     -35828.839     -34980.27     
     69400   941.83805      23223.072     -35936.639     -35010.184    
     69500   955.27986      13412.133     -35837.117     -34897.439    
     69600   1023.0443      5210.6179     -35833.644     -34827.309    
     69700   1009.7005     -1846.9064     -35792.377     -34799.167    
     69800   1002.7513      4702.6441     -35793.876     -34807.502    
     69900   971.86031      23512.492     -35802.866     -34846.879    
     70000   984.06546     -4194.6562     -35882.828     -34914.835    
     70100   1043.381       2092.7825     -35926.887     -34900.547    
     70200   1027.8036      29851.726     -35798.667     -34787.651    
     70300   1066.3053     -6517.6044     -35811.527     -34762.638    
     70400   971.1473       13828.882     -35754.136     -34798.85     
     70500   1006.3848      20223.023     -35835.902     -34845.954    
     70600   925.52648     -1725.0166     -35825.962     -34915.552    
     70700   965.41658      9022.2227     -35901.363     -34951.715    
     70800   992.94452     -3908.8709     -35891.152     -34914.425    
     70900   1057.3254     -4454.7293     -35854.859     -34814.803    
     71000   1054.1058     -2840.102      -35806.538     -34769.648    
     71100   1070.7027      18464.22      -35856.954     -34803.739    
     71200   992.44967      18083.014     -35863.822     -34887.582    
     71300   961.7607      -7982.4928     -35860.741     -34914.688    
     71400   1018.3068     -6638.6591     -35863.81      -34862.134    
     71500   1059.9869      1856.2162     -35801.414     -34758.74     
     71600   1076.4058      1610.06       -35850.585     -34791.76     
     71700   992.14023      7701.6874     -35839.607     -34863.671    
     71800   1015.3572      8543.5431     -35875.514     -34876.741    
     71900   1008.8778      2054.3643     -35796.939     -34804.539    
     72000   1116.4485      1369.612      -35799.353     -34701.139    
     72100   1058.9416      12899.549     -35784.651     -34743.005    
     72200   1022.4914     -652.6291      -35815.458     -34809.666    
     72300   1044.5109     -1055.8178     -35870.098     -34842.646    
     72400   962.03797     -14174.325     -35822.202     -34875.877    
     72500   981.42809     -1371.5477     -35902.452     -34937.053    
     72600   977.47071      15369.472     -35941.603     -34980.097    
     72700   998.14222      3942.2663     -35863.275     -34881.435    
     72800   990.3917       14960.443     -35777.691     -34803.475    
     72900   1000.7353      18845.276     -35740.064     -34755.673    
     73000   1055.7148      6178.2174     -35781.393     -34742.921    
     73100   983.72027      12253.217     -35787.848     -34820.194    
     73200   988.59555      655.7038      -35869.546     -34897.096    
     73300   949.92986      5876.4798     -35803.176     -34868.761    
     73400   1006.4699      182.79246     -35798.358     -34808.327    
     73500   1033.1711     -11120.937     -35810.1       -34793.803    
     73600   1003.3467      6277.2516     -35751.113     -34764.153    
     73700   1066.9687     -1729.4018     -35746.454     -34696.911    
     73800   1111.661       21549.384     -35728.499     -34634.994    
     73900   1090.3523      4347.2927     -35697.315     -34624.772    
     74000   1090.8356      5526.2629     -35830.221     -34757.201    
     74100   1027.718       28965.599     -35824.247     -34813.315    
     74200   978.44344     -10647.915     -35756.338     -34793.875    
     74300   1128.276       26579.911     -35813.328     -34703.48     
     74400   1048.6706     -15005.787     -35715.325     -34683.782    
     74500   1029.8895      7539.825      -35751.571     -34738.502    
     74600   943.56834     -5044.4011     -35806.545     -34878.387    
     74700   984.21016     -7973.0875     -35809.303     -34841.168    
     74800   1084.1875      4115.1428     -35821.513     -34755.033    
     74900   996.61273      915.56387     -35679.883     -34699.548    
     75000   1053.7405     -1993.1089     -35701.533     -34665.003    
     75100   1049.1305     -17215.243     -35755.266     -34723.27     
     75200   1046.1653      6837.5552     -35875.7       -34846.621    
     75300   1038.4593      2163.592      -35856.371     -34834.872    
     75400   1040.5767     -13756.212     -35788.059     -34764.478    
     75500   1072.856      -1613.3517     -35762.86      -34707.527    
     75600   1100.1079      14748.765     -35797.536     -34715.396    
     75700   1024.0839      1648.4925     -35823.488     -34816.13     
     75800   975.81572      12306.595     -35840.825     -34880.946    
     75900   1038.2394      9360.042      -35856.285     -34835.003    
     76000   1066.9407      15861.604     -35835.747     -34786.232    
     76100   1042.1409     -6966.4058     -35772.738     -34747.618    
     76200   1093.4203      6549.6794     -35794.175     -34718.613    
     76300   1106.1589      7624.6592     -35740.856     -34652.764    
     76400   1137.8308     -10191.212     -35707.388     -34588.141    
     76500   1069.5528      4979.8047     -35707.273     -34655.188    
     76600   1030.7517      6988.4582     -35769.73      -34755.813    
     76700   1050.5193     -2236.4375     -35816.81      -34783.449    
     76800   1025.7226      26403.605     -35762.202     -34753.232    
     76900   1092.0847     -4171.5177     -35760.829     -34686.581    
     77000   1161.9793      20313.851     -35796.022     -34653.021    
     77100   1107.5063      12853.985     -35738.828     -34649.41     
     77200   1094.6915      8652.3353     -35797.132     -34720.319    
     77300   1021.3139     -1202.0273     -35798.012     -34793.379    
     77400   1018.2282     -11056.15      -35790.893     -34789.295    
     77500   1144.3624      11721.401     -35797.566     -34671.894    
     77600   1145.9467     -444.73613     -35779.483     -34652.253    
     77700   1071.1535      16332.336     -35755.57      -34701.912    
     77800   1044.4948      4399.4798     -35784.872     -34757.437    
     77900   991.99467      7281.5197     -35767.577     -34791.785    
     78000   1066.3589      16384.557     -35738.859     -34689.917    
     78100   1147.7331     -590.97247     -35730.922     -34601.935    
     78200   1128.6707      12584.029     -35763.878     -34653.641    
     78300   1073.2783     -3402.6603     -35790.535     -34734.786    
     78400   965.35858     -5150.0905     -35698.439     -34748.848    
     78500   1139.7843      11380.573     -35817.503     -34696.335    
     78600   1159.5595      13549.106     -35755.664     -34615.044    
     78700   1162.3223     -2784.7578     -35639.654     -34496.315    
     78800   1154.923       1262.7333     -35699.066     -34563.006    
     78900   1140.1304     -14724.563     -35783.27      -34661.761    
     79000   1111.603       17847.837     -35802.072     -34708.625    
     79100   1086.4994      2214.807      -35787.508     -34718.754    
     79200   1095.871      -1509.6034     -35783.038     -34705.065    
     79300   1185.6141      12613.096     -35787.775     -34621.525    
     79400   1121.9167      15382.878     -35684.574     -34580.981    
     79500   1124.9755      3505.5163     -35787.803     -34681.201    
     79600   1021.8823      14468.165     -35763.01      -34757.818    
     79700   1071.0179      3329.7596     -35802.288     -34748.763    
     79800   1099.4905     -2475.3402     -35776.84      -34695.307    
     79900   1132.6012      9687.4645     -35749.368     -34635.266    
     80000   1109.9975      557.63482     -35683.746     -34591.878    
     80100   1134.0455      9111.5395     -35723.025     -34607.501    
     80200   1119.1904     -13403.356     -35808.42      -34707.509    
     80300   1053.7363     -1290.1461     -35813.61      -34777.084    
     80400   1076.6661      637.90022     -35796.095     -34737.014    
     80500   1104.2071     -8074.5973     -35754.125     -34667.952    
     80600   1130.0474      5272.2372     -35745.038     -34633.447    
     80700   1060.8014      15886.939     -35677.52      -34634.045    
     80800   1065.9977      7616.2426     -35810.7       -34762.113    
     80900   1032.592       1.9594166     -35798.193     -34782.466    
     81000   1035.1831      10345.086     -35698.256     -34679.98     
     81100   1124.466       9310.1107     -35711.949     -34605.849    
     81200   1094.5688     -11362.374     -35675.209     -34598.517    
     81300   1121.8454     -2637.3068     -35694.792     -34591.269    
     81400   1159.1527      8135.739      -35751.433     -34611.213    
     81500   1065.145       20527.257     -35708.65      -34660.902    
     81600   1144.9235      10370.853     -35783.352     -34657.128    
     81700   1096.7395      20906.013     -35707.432     -34628.606    
     81800   1146.6507      32511.733     -35674.049     -34546.126    
     81900   1118.5167      12885.248     -35571.47      -34471.222    
     82000   1160.1456      10984.342     -35632.577     -34491.38     
     82100   1082.6881      5222.3506     -35708.432     -34643.427    
     82200   1055.9818     -814.11802     -35688.522     -34649.787    
     82300   1112.0858      6005.8566     -35684.972     -34591.05     
     82400   1180.0327      10687.828     -35707.394     -34546.635    
     82500   1197.5523      27749.271     -35696.331     -34518.338    
     82600   1164.5178      22441.777     -35664.209     -34518.711    
     82700   1112.579      -26150.49      -35689.694     -34595.287    
     82800   1100.4689      12090.801     -35735.258     -34652.763    
     82900   1097.8394      789.03313     -35684.312     -34604.403    
     83000   1192.9079      15245.613     -35663.291     -34489.866    
     83100   1213.7865      41.54686      -35671.097     -34477.135    
     83200   1205.1098      12336.344     -35682.575     -34497.148    
     83300   1169.3887      9412.1312     -35675.793     -34525.504    
     83400   1128.0745      5601.4073     -35717.795     -34608.145    
     83500   1002.1055      4198.2273     -35681.681     -34695.943    
     83600   1101.9413     -7394.0514     -35735.927     -34651.983    
     83700   1147.569       954.902       -35590.327     -34461.501    
     83800   1155.4492      13177.245     -35609.1       -34472.522    
     83900   1128.1879      2000.0908     -35658.079     -34548.318    
     84000   1153.9207      4494.2987     -35756.221     -34621.147    
     84100   1112.7029      15659.034     -35758.936     -34664.406    
     84200   1171.3458      5634.0923     -35786.783     -34634.569    
     84300   1230.6473     -4399.3567     -35711.565     -34501.017    
     84400   1139.5928      7195.5082     -35611.893     -34490.912    
     84500   1179.1325      2229.5801     -35643.159     -34483.285    
     84600   1209.2202      9897.6032     -35646.559     -34457.088    
     84700   1154.4397     -2349.3343     -35646.056     -34510.471    
     84800   1127.4125     -2654.9437     -35727.565     -34618.567    
     84900   1116.3494      20828.767     -35760.916     -34662.8      
     85000   1067.3192      13214.062     -35666.5       -34616.613    
     85100   1169.1025      126.43259     -35649.059     -34499.051    
     85200   1143.9735     -11371.162     -35627.939     -34502.65     
     85300   1219.1878      10423.999     -35727.846     -34528.571    
     85400   1153.4099      19110.787     -35736.282     -34601.71     
     85500   1070.4822      33243.478     -35767.546     -34714.547    
     85600   1048.7525      9956.6697     -35723.947     -34692.323    
     85700   1100.5848      7590.0712     -35720.616     -34638.007    
     85800   1149.8354     -14409.792     -35715.973     -34584.918    
     85900   1136.4566     -7944.3592     -35648.632     -34530.736    
     86000   1182.0581      12062.694     -35645.357     -34482.605    
     86100   1274.0153      10421.354     -35622.247     -34369.04     
     86200   1250.4088      10768.54      -35581.923     -34351.936    
     86300   1199.9086      1894.8514     -35681.625     -34501.314    
     86400   1102.6616      27740.376     -35643.036     -34558.383    
     86500   1108.5743      13294.649     -35653.724     -34563.256    
     86600   1205.1228      9533.9407     -35693.596     -34508.156    
     86700   1254.1827      37109.721     -35688.079     -34454.38     
     86800   1115.2741      7845.6405     -35541.277     -34444.218    
     86900   1236.1936     -5364.9231     -35661.754     -34445.751    
     87000   1190.6254      28939.99      -35700.28      -34529.101    
     87100   1118.1544      23481.676     -35672.397     -34572.505    
     87200   1222.7325      7035.0877     -35699.838     -34497.076    
     87300   1223.4713      4678.3141     -35612.11      -34408.621    
     87400   1162.3131      7594.736      -35546.171     -34402.842    
     87500   1154.9533     -5835.942      -35700.662     -34564.573    
[...]
    162400   2059.4207      36213.411     -34438.06      -32412.275    
    162500   2066.4607      22503.022     -34402.152     -32369.442    
    162600   2042.4105      14723.498     -34534.689     -32525.636    
    162700   1882.8946      29564.365     -34515.262     -32663.12     
    162800   1899.6705      16107.213     -34558.28      -32689.636    
    162900   1895.9573      28408.933     -34541.565     -32676.574    
    163000   2035.4515     -9448.4655     -34584.022     -32581.815    
    163100   2183.4823      33184.32      -34556.582     -32408.762    
    163200   1861.4115     -21065.353     -34281.684     -32450.674    
    163300   1996.3181     -8228.0817     -34602.258     -32638.546    
    163400   1849.4681      25225.036     -34491.968     -32672.706    
    163500   1987.5795     -1706.9526     -34553.033     -32597.916    
    163600   1991.8105      19906.038     -34474.573     -32515.294    
    163700   2010.991       38802.275     -34317.715     -32339.569    
    163800   2043.3033     -6718.6652     -34204.356     -32194.425    
    163900   2156.0717     -15820.79      -34463.063     -32342.206    
    164000   2059.1394     -14426.444     -34474.752     -32449.244    
    164100   1983.9311      21976.632     -34506.5       -32554.972    
    164200   1985.6953      19695.351     -34593.917     -32640.653    
    164300   1893.3841      29314.751     -34558.312     -32695.852    
    164400   1979.9292      17206.51      -34477.841     -32530.249    
    164500   2074.9783      13660.832     -34422.11      -32381.022    
    164600   1895.813       393.46207     -34324.037     -32459.187    
    164700   2046.2341      10241.203     -34579.455     -32566.642    
    164800   1817.3517     -1771.7582     -34401.727     -32614.057    
    164900   2000.2027     -5653.4284     -34545.246     -32577.712    
    165000   1965.5719     -15956.712     -34474.185     -32540.717    
    165100   2004.31        39865.624     -34526.222     -32554.648    
    165200   1840.8391     -632.11755     -34521.671     -32710.898    
    165300   1853.9595      4915.7499     -34537.306     -32713.626    
    165400   2042.7174      7255.1992     -34505.006     -32495.651    
    165500   2134.9726      25201.496     -34503.641     -32403.539    
    165600   1975.3006      7272.0903     -34404.628     -32461.589    
    165700   1840.0198      39718.837     -34329.296     -32519.329    
    165800   1960.1702      7941.7755     -34400.597     -32472.442    
    165900   2038.5127      34772.73      -34274.756     -32269.538    
    166000   1962.6911      4869.0609     -34159.475     -32228.84     
    166100   1891.7314     -24351.712     -34255.259     -32394.424    
    166200   1986.4901      9031.8299     -34414.658     -32460.613    
    166300   2031.0615      34248.084     -34428.241     -32430.352    
    166400   1909.682       31910.803     -34304.463     -32425.971    
    166500   2028.25        2833.5941     -34492.275     -32497.151    
    166600   1983.8601     -29166.461     -34710.352     -32758.894    
    166700   1965.9392     -1127.9122     -34645.033     -32711.202    
    166800   2025.0546     -10545.426     -34547.337     -32555.357    
    166900   1913.0475      2897.8367     -34351.562     -32469.76     
    167000   2181.2314      16429.188     -34474.784     -32329.178    
    167100   2146.1682      443.88612     -34467.076     -32355.961    
    167200   1898.2881      18838.918     -34483.041     -32615.757    
    167300   1904.2517     -26590.692     -34500.333     -32627.183    
    167400   2052.1898      29526.508     -34499.69      -32481.018    
    167500   2004.4446      19842.809     -34319.65      -32347.943    
    167600   2066.7579      3908.8381     -34345.628     -32312.626    
    167700   2123.029       14471.561     -34521.879     -32433.525    
    167800   1959.2824      3968.8518     -34570.614     -32643.332    
    167900   2032.0588      13024.821     -34604.426     -32605.556    
    168000   1950.4978      14122.073     -34425.811     -32507.17     
    168100   2024.0545      24794.825     -34371.262     -32380.266    
    168200   2004.8143     -14775.395     -34349.351     -32377.281    
    168300   1971.086       9729.2691     -34333.641     -32394.748    
    168400   2029.0602      8889.1781     -34441.305     -32445.385    
    168500   1983.7008      9138.5033     -34483.915     -32532.613    
    168600   1877.5556      9356.6219     -34404.977     -32558.087    
    168700   2087.912      -13684.222     -34346.931     -32293.12     
    168800   2160.9158     -2880.5279     -34331.457     -32205.834    
    168900   1917.9536     -8642.0252     -34205.2       -32318.572    
    169000   1999.8123      5693.6596     -34442.568     -32475.418    
    169100   1942.7388      16489.726     -34459.879     -32548.871    
    169200   2006.4794      1434.9407     -34571.554     -32597.846    
    169300   2057.9986     -16933.954     -34651.702     -32627.316    
    169400   1925.2984      6999.7334     -34542.687     -32648.834    
    169500   2042.9964      16335.281     -34556.942     -32547.313    
    169600   2073.3332      21388.246     -34471.798     -32432.328    
    169700   2031.0308      9782.5438     -34418.96      -32421.101    
    169800   2171.9646      29545.838     -34617.732     -32481.242    
    169900   1839.1501      21627.463     -34448.287     -32639.175    
    170000   1949.8928      30223.043     -34575.845     -32657.799    
    170100   1977.504       26578.041     -34444.968     -32499.761    
    170200   2200.522       26709.321     -34466.01      -32301.428    
    170300   2019.5272      8958.9673     -34341.636     -32355.093    
    170400   1973.0667     -18817.989     -34444.305     -32503.463    
    170500   1963.3936      17634.85      -34488.33      -32557.004    
    170600   2011.3631      6602.1727     -34536.322     -32557.81     
    170700   2008.8259      8153.0169     -34469.06      -32493.044    
    170800   2083.5362      12923.424     -34305.857     -32256.351    
    170900   2107.5328      19764.415     -34360.685     -32287.573    
    171000   1938.0229      3963.0853     -34387.481     -32481.111    
    171100   2018.5223      26893.025     -34526.445     -32540.891    
    171200   1899.1212      25353.471     -34376.353     -32508.249    
    171300   2058.4571      2731.8773     -34344.311     -32319.474    
    171400   2032.1764      10067.797     -34270.195     -32271.21     
    171500   2153.2935      2352.8739     -34477.087     -32358.962    
    171600   2105.52        10453.334     -34569.162     -32498.031    
    171700   2018.4907      13961.536     -34499.948     -32514.425    
    171800   2034.9865      21323.297     -34496.326     -32494.577    
    171900   2102.5767      14601.321     -34431.105     -32362.869    
    172000   2179.4002      14644.437     -34294.783     -32150.978    
    172100   2082.1524      31921.606     -34277.883     -32229.738    
    172200   2018.4446     -4013.84       -34362.269     -32376.791    
    172300   1973.9891      19847.536     -34377.823     -32436.075    
    172400   1931.2318      6447.4679     -34323.573     -32423.884    
    172500   2022.8802     -12565.771     -34335.47      -32345.629    
    172600   2114.3471      7838.9586     -34417.398     -32337.584    
    172700   2080.686       439.53715     -34373.27      -32326.567    
    172800   2079.8948      10194.404     -34504.094     -32458.169    
    172900   2045.1309      20614.873     -34571.036     -32559.308    
    173000   1936.0642      12647.004     -34455.774     -32551.331    
    173100   2199.8151      22403.762     -34604.446     -32440.56     
    173200   2085.0055      31098.057     -34284.034     -32233.082    
    173300   2177.1176     -28530.763     -34267.571     -32126.012    
    173400   2178.5155      4687.13       -34361.726     -32218.792    
    173500   2065.7937      20282.69      -34347.018     -32314.964    
    173600   1978.4114     -14299.249     -34316.627     -32370.528    
    173700   2039.7726      4530.6555     -34408.853     -32402.395    
    173800   2112.3349     -4031.9264     -34502.572     -32424.738    
    173900   2020.847       56099.432     -34402.174     -32414.333    
    174000   1993.756      -9626.0347     -34285.537     -32324.344    
    174100   2069.2129      1033.8036     -34240.84      -32205.422    
    174200   2046.1861      31581.576     -34172.259     -32159.492    
    174300   1975.2877      7240.5934     -34173.019     -32229.993    
    174400   1992.5142      43846.555     -34362.894     -32402.923    
    174500   1961.3008     -3494.2218     -34374.384     -32445.117    
    174600   2076.8413      46796.821     -34316.799     -32273.878    
    174700   2158.1908     -17136.105     -34289.006     -32166.064    
    174800   2186.5943      14871.409     -34342.413     -32191.532    
    174900   1986.9743     -5447.2493     -34252.887     -32298.365    
    175000   1988.5757      13621.989     -34332.612     -32376.515    
    175100   2072.4724      9613.6277     -34417.222     -32378.598    
    175200   2093.5602      30821.365     -34334.272     -32274.905    
    175300   2059.0474      31232.188     -34279.201     -32253.784    
    175400   2000.9593      38354.15      -34358.695     -32390.417    
    175500   2016.1226      8956.627      -34503.462     -32520.268    
    175600   1910.9558      25097.333     -34414.176     -32534.431    
    175700   2153.182       9816.9959     -34423.633     -32305.618    
    175800   2147.1256      28891.826     -34282.577     -32170.52     
    175900   2159.5606      23444.985     -34369.013     -32244.723    
    176000   2085.8639      19607.859     -34422.432     -32370.636    
    176100   2005.0261      26579.943     -34455.853     -32483.574    
    176200   1963.2122      6945.8523     -34438.696     -32507.548    
    176300   2136.7644     -604.97049     -34318.641     -32216.775    
    176400   2171.8908      19435.168     -34248.437     -32112.019    
    176500   2138.7759      16980.05      -34382.417     -32278.573    
    176600   1966.0881      13002.317     -34343.135     -32409.158    
    176700   1849.5355      22937.163     -34253.46      -32434.133    
    176800   2172.5566      39506.412     -34389.719     -32252.646    
    176900   2338.6453      27257.781     -34433.248     -32132.799    
    177000   2160.3638      19089.719     -34340.82      -32215.741    
    177100   2116.7885      22125.635     -34405.882     -32323.666    
    177200   2147.3776      4899.9927     -34573.894     -32461.589    
    177300   1931.672       14501.328     -34419.67      -32519.547    
    177400   1993.5079      35835.992     -34437.931     -32476.983    
    177500   2088.3932      9411.8173     -34474.386     -32420.102    
    177600   2106.5002      25301.308     -34495.831     -32423.736    
    177700   1997.1592      1877.8269     -34334.612     -32370.071    
    177800   2155.6481     -3535.3094     -34427.694     -32307.253    
    177900   1992.1736     -1933.3245     -34222.979     -32263.343    
    178000   2186.0656      10393.454     -34375.587     -32225.226    
    178100   2045.7793     -12285.79      -34274.633     -32262.267    
    178200   2043.7555     -16203.232     -34393.105     -32382.729    
    178300   2018.5855      20780.691     -34459.689     -32474.072    
    178400   2037.9269      49226.003     -34504.304     -32499.662    
    178500   2061.371      -17247.884     -34435.481     -32407.777    
    178600   2116.5048      24902.283     -34323.824     -32241.887    
    178700   2144.0038      64945.379     -34262.826     -32153.84     
    178800   2219.7221      12636.941     -34303.561     -32120.092    
    178900   1982.1467      18867.913     -34276.239     -32326.466    
    179000   2065.2898      26970.129     -34480.935     -32449.377    
    179100   2021.4215     -2131.139      -34421.722     -32433.316    
    179200   2129.1248      7494.0752     -34383.251     -32288.9      
    179300   2159.1741     -2326.4266     -34260.924     -32137.015    
    179400   2380.8887      2481.139      -34264.482     -31922.479    
    179500   2167.5236     -9785.1485     -34176.158     -32044.036    
    179600   2002.5592      44892.692     -34235.441     -32265.589    
    179700   2241.8327      30344.574     -34481.702     -32276.485    
    179800   1997.9448      27682.335     -34264.338     -32299.025    
    179900   1975.2695      15246.266     -34158.937     -32215.929    
    180000   2252.0187      28786.945     -34201.077     -31985.84     
Loop time of 36646.2 on 12 procs for 180000 steps with 331 atoms

Performance: 0.212 ns/day, 113.106 hours/ns, 4.912 timesteps/s, 1.626 katom-step/s
40.0% CPU use with 2 MPI tasks x 6 OpenMP threads

MPI task timing breakdown:
Section |  min time  |  avg time  |  max time  |%varavg| %total
---------------------------------------------------------------
Pair    | 22455      | 22605      | 22755      |  99.8 | 61.69
Bond    | 0.058747   | 0.064527   | 0.070308   |   2.3 |  0.00
Neigh   | 590.81     | 590.88     | 590.95     |   0.3 |  1.61
Comm    | 6224.8     | 6369.9     | 6515       | 181.8 | 17.38
Output  | 26.576     | 29.737     | 32.899     |  58.0 |  0.08
Modify  | 6988.3     | 6989.5     | 6990.8     |   1.5 | 19.07
Other   |            | 60.78      |            |       |  0.17

Nlocal:          165.5 ave         167 max         164 min
Histogram: 1 0 0 0 0 0 0 0 0 1
Nghost:           4710 ave        4714 max        4706 min
Histogram: 1 0 0 0 0 0 0 0 0 1
Neighs:          96109 ave       96668 max       95550 min
Histogram: 1 0 0 0 0 0 0 0 0 1

Total # of neighbors = 192218
Ave neighs/atom = 580.71903
Ave special neighs/atom = 0
Neighbor list builds = 5686
Dangerous builds = 1

# final equilibration at low T
print "##### final equilibration starts.##### "
##### final equilibration starts.##### 
unfix             heat1
fix             equil3 all nvt temp ${Tl} ${Tl} ${Td}
fix             equil3 all nvt temp 300 ${Tl} ${Td}
fix             equil3 all nvt temp 300 300 ${Td}
fix             equil3 all nvt temp 300 300 50
# fix             equil3 all npt temp ${Tl} ${Tl} ${Td} tri ${Ph} ${Ph} ${Pd}
# 1 ps = 1e3 fs / 0.5 fs = 2e3 steps = 20 nruns
run             ${nequil}
run             5000
WARNING: Compute rdf cutoff less than neighbor cutoff - forcing a needless neighbor list build (src/compute_rdf.cpp:179)
Per MPI rank memory allocation (min/avg/max) = 205.4 | 205.8 | 206.2 Mbytes
   Step          Temp          Press          PotEng         TotEng    
    180000   2252.0187      28786.979     -34201.077     -31985.84     
    180100   1302.7         7514.6263     -35031.603     -33750.179    
    180200   781.50878      13404.572     -35638.212     -34869.467    
    180300   515.79421      5976.6393     -35976.852     -35469.482    
    180400   377.86979      8187.0357     -36161.068     -35789.37     
    180500   311.54467     -13122.733     -36295.908     -35989.452    
    180600   276.07158      5294.6605     -36387.017     -36115.454    
    180700   252.96616      8001.9386     -36416.797     -36167.962    
    180800   267.19717     -2179.8376     -36423.448     -36160.615    
    180900   320.55187     -5357.0749     -36429.782     -36114.466    
    181000   333.2826       11552.927     -36429.956     -36102.117    
    181100   307.95327     -3146.0016     -36444.084     -36141.161    
    181200   304.41978      12726.747     -36486.812     -36187.364    
    181300   275.10523      7265.437      -36494.988     -36224.376    
    181400   282.18015      5145.3108     -36511.48      -36233.908    
    181500   301.65117     -1218.5809     -36515.023     -36218.299    
    181600   301.70832     -4025.2367     -36504.499     -36207.718    
    181700   297.30997     -4791.1757     -36517.524     -36225.07     
    181800   311.71246     -2757.3361     -36558.223     -36251.601    
    181900   284.63467      1539.2029     -36545.926     -36265.94     
    182000   305.52931      3258.9466     -36554.758     -36254.219    
    182100   302.71247      10246.766     -36544.532     -36246.763    
    182200   296.9399      -12834.894     -36551.207     -36259.117    
    182300   309.08585     -14301.711     -36569.974     -36265.936    
    182400   307.25524      5737.9043     -36576.581     -36274.344    
    182500   289.09198     -12375.331     -36571.598     -36287.228    
    182600   310.94465     -7880.2187     -36599.045     -36293.178    
    182700   314.67381     -11290.572     -36593.674     -36284.139    
    182800   307.0429      -10905.269     -36577.212     -36275.183    
    182900   298.15266      879.62318     -36575.485     -36282.202    
    183000   300.65407     -6248.119      -36608.042     -36312.298    
    183100   281.53533     -1987.2506     -36614.917     -36337.98     
    183200   276.27949     -8094.2447     -36607.895     -36336.128    
    183300   316.9654      -9466.9168     -36615.656     -36303.868    
    183400   302.89695     -3349.0964     -36576.268     -36278.319    
    183500   319.8977       5100.4779     -36602.561     -36287.888    
    183600   305.30935     -10322.142     -36629.321     -36328.998    
    183700   277.15589     -3488.7435     -36629.667     -36357.038    
    183800   281.73119      5755.0922     -36623.155     -36346.026    
    183900   294.57407      8415.6119     -36604.692     -36314.929    
    184000   340.68419     -493.77818     -36623.306     -36288.186    
    184100   309.08255     -2809.9086     -36604.691     -36300.656    
    184200   281.03824     -9819.84       -36607.263     -36330.815    
    184300   294.73891      19888.924     -36635.705     -36345.78     
    184400   299.53517     -10866.533     -36638.252     -36343.609    
    184500   285.96107     -14119.406     -36601.759     -36320.468    
    184600   318.90769     -20517.278     -36606.546     -36292.847    
    184700   323.39495     -11842.614     -36616.838     -36298.725    
    184800   289.72706     -4505.9536     -36629.454     -36344.459    
    184900   294.53333     -13612.035     -36671.186     -36381.463    
    185000   290.76471      1499.1665     -36678.466     -36392.45     
Loop time of 794.976 on 12 procs for 5000 steps with 331 atoms

Performance: 0.272 ns/day, 88.331 hours/ns, 6.290 timesteps/s, 2.082 katom-step/s
49.7% CPU use with 2 MPI tasks x 6 OpenMP threads

MPI task timing breakdown:
Section |  min time  |  avg time  |  max time  |%varavg| %total
---------------------------------------------------------------
Pair    | 502.49     | 505.6      | 508.71     |  13.8 | 63.60
Bond    | 0.0012224  | 0.0092979  | 0.017373   |   8.4 |  0.00
Neigh   | 5.1578     | 5.2438     | 5.3297     |   3.8 |  0.66
Comm    | 105.06     | 108        | 110.94     |  28.3 | 13.58
Output  | 0.6672     | 0.72002    | 0.77285    |   6.2 |  0.09
Modify  | 174.09     | 174.39     | 174.69     |   2.3 | 21.94
Other   |            | 1.017      |            |       |  0.13

Nlocal:          165.5 ave         167 max         164 min
Histogram: 1 0 0 0 0 0 0 0 0 1
Nghost:           4742 ave        4749 max        4735 min
Histogram: 1 0 0 0 0 0 0 0 0 1
Neighs:          96080 ave       96737 max       95423 min
Histogram: 1 0 0 0 0 0 0 0 0 1

Total # of neighbors = 192160
Ave neighs/atom = 580.54381
Ave special neighs/atom = 0
Neighbor list builds = 65
Dangerous builds = 0

write_data  ${structure}-an.data
write_data  333-RV-32-an.data
System init for write_data ...
WARNING: Compute rdf cutoff less than neighbor cutoff - forcing a needless neighbor list build (src/compute_rdf.cpp:179)
print "##### ${structure} Final Density: $(density) #####"
##### 333-RV-32 Final Density: 1.3632458241012193056 #####

Total wall time: 10:43:42
