ITEM: TIMESTEP
0
ITEM: NUMBER OF ATOMS
366
ITEM: BOX BOUNDS xy xz yz pp pp pp
-7.5839999999999996e+00 1.5901800000000000e+01 -7.5839999999999996e+00
0.0000000000000000e+00 1.4340199999999999e+01 1.7780000000000001e-01
0.0000000000000000e+00 1.7246500000000001e+01 4.3709999999999999e-01
ITEM: ATOMS id type q x y z
355 3 -0.818751 1.74748 0.692366 0.625605
5 4 1.36161 0.872422 2.22292 5.51822
9 4 1.50516 0.249438 4.16805 1.73086
11 4 0.930321 -0.443663 4.7966 7.0299
27 4 1.19823 1.52989 6.74794 3.42471
29 4 1.17771 5.341 3.88548 7.9506
64 1 -0.670978 2.22314 2.75302 4.25908
69 1 -0.664937 -1.94692 5.40574 5.88411
70 1 -0.641285 0.855996 6.19213 7.04209
76 1 -0.683088 5.28088 1.63386 4.88326
77 1 -0.67998 3.0457 6.34849 4.60188
79 1 -0.638078 4.1565 5.05744 6.93006
98 3 -0.813043 -0.280498 1.60108 4.70368
99 3 -0.773758 1.67219 1.26774 6.57689
102 3 -0.852571 -0.853743 3.35014 2.7273
103 3 -0.838762 1.3672 3.16428 1.14259
104 3 -0.814463 -0.566552 4.8652 0.506215
105 3 -0.787823 0.303433 3.61831 6.28614
115 3 -0.863859 6.89231 1.19277 0.860449
124 3 -0.811529 1.05017 5.46112 2.6762
324 1 -0.681515 3.99978 0.406697 2.33527
199 2 0.222187 1.82627 2.3196 3.32059
200 2 0.17276 3.34771 2.36129 4.46598
201 2 0.182371 2.06955 3.85284 4.47197
210 2 0.182528 -1.31037 6.6687 2.56233
303 4 1.31944 5.11884 4.83519 1.40647
215 2 0.20896 -1.73732 5.14839 4.84292
216 2 0.132568 -2.13232 6.51304 5.98045
218 2 0.167161 1.73982 6.20257 6.15698
219 2 0.135455 1.26782 5.93066 8.11301
235 2 0.274107 4.62983 0.799147 5.39241
236 2 0.194696 5.90587 1.32445 3.88648
237 2 0.160225 4.74066 2.61417 4.77813
238 2 0.184297 3.75683 6.332 3.76333
239 2 0.157982 3.00741 5.33777 5.06736
241 2 0.160505 -0.637378 6.66928 4.91644
244 2 0.174792 3.11504 5.33173 7.43643
245 2 0.150869 4.01475 4.7246 5.82042
23 4 1.42339 6.89072 1.89742 5.90146
305 1 -0.675386 4.09906 3.93587 2.69588
310 3 -0.795595 4.04614 5.839 0.728025
312 2 0.167774 4.39082 2.84906 2.7689
313 2 0.262339 2.97195 4.09849 2.40456
314 2 0.141324 4.44811 4.52308 3.64873
326 2 0.166599 3.77779 1.5603 2.34411
118 3 -0.829209 7.14654 0.724633 6.91249
10 4 1.27101 -1.17796 6.33251 0.0510413
358 2 0.236873 4.9386 0.310508 1.74676
254 2 0.154431 1.94334 6.3885 10.0673
8 4 1.16685 1.54544 2.21103 11.8181
331 1 -0.668498 -1.18694 3.80633 14.2377
22 4 1.57374 3.7516 1.97325 9.83952
25 4 1.64045 4.14164 2.44247 15.234
26 4 1.60204 6.35428 2.46124 11.4845
333 2 0.227087 -1.44659 4.73645 14.8914
342 2 0.280889 5.88008 0.397779 14.5034
65 1 -0.665665 -0.363632 1.94541 11.2344
66 1 -0.699253 1.77221 3.83622 12.9436
253 2 0.168418 1.69331 5.54622 11.7901
81 1 -0.670965 1.02767 6.40344 14.3628
82 1 -0.658365 1.82312 6.57185 11.2101
100 3 -0.763556 0.240771 2.47918 16.1236
101 3 -0.826962 2.01305 0.935249 12.6947
106 3 -0.829027 -2.38285 6.80213 16.4795
116 3 -0.788766 3.19217 0.678812 8.76506
117 3 -0.817317 2.36386 2.48285 10.4802
119 3 -0.859873 3.78885 1.03997 14.4911
120 3 -0.866595 5.43994 2.1376 16.1062
121 3 -0.814768 2.88108 2.95306 16.2172
122 3 -0.80873 4.85681 1.69164 10.9508
123 3 -0.806886 7.22887 1.50078 12.466
127 3 -0.890527 4.53554 3.59195 14.2951
131 3 -0.847167 4.22579 5.69848 12.5861
202 2 0.149885 -0.583293 2.86655 10.3499
30 4 1.58725 5.21384 4.74497 13.4004
332 2 0.165179 -0.0663625 3.78089 13.7813
205 2 0.250057 2.76203 4.35479 12.7709
206 2 0.208978 1.70696 3.47015 13.9806
207 2 0.135169 0.843356 4.42919 12.5983
251 2 0.160141 1.28386 6.50993 13.1442
212 2 0.144075 -0.972997 5.17818 9.61337
213 2 0.170459 0.175054 3.75408 8.98219
68 1 -0.66961 -0.950001 4.24889 8.96729
3 4 1.57356 1.55491 2.55102 17.1322
250 2 0.207985 1.72134 5.59731 14.7791
252 2 0.174768 -0.104337 6.29771 14.5483
203 2 0.174975 -0.800476 2.20213 12.2597
32 4 1.15853 3.67811 7.07342 11.8786
125 3 -0.823851 4.33234 3.08742 8.83659
20 4 1.5749 6.65649 2.78305 16.9438
255 2 0.17943 0.911539 7.21556 11.4806
1 4 1.38033 -5.1927 13.541 1.60056
338 2 0.151406 -3.87514 9.37026 1.59777
14 4 1.142 -2.27634 9.84101 7.60668
15 4 1.50869 -3.52162 11.9545 5.59015
67 1 -0.674322 -1.60808 7.24313 1.6592
34 4 1.39745 -0.940064 12.1855 3.90703
136 3 -0.862033 1.69127 10.2379 1.38492
328 2 0.155418 -5.28975 11.7289 7.61593
71 1 -0.690869 -3.40939 8.43174 7.78588
72 1 -0.65047 -0.726504 9.00812 6.68045
78 1 -0.659172 0.156775 7.46228 4.445
84 1 -0.665383 -1.15793 10.6983 2.67341
325 2 0.22897 -3.3916 13.959 3.41445
107 3 -0.812789 -6.0965 13.1275 2.9268
108 3 -0.793426 -4.77958 12.0807 0.910993
109 3 -0.806814 -5.02104 11.5799 4.85262
110 3 -0.84976 -2.95451 10.8831 6.58915
111 3 -0.819276 -3.80876 13.4688 6.41966
132 3 -0.824926 2.16471 7.97136 2.65167
134 3 -0.817862 -0.640117 13.3985 2.82635
135 3 -0.860148 -2.3924 12.2936 4.53114
337 1 -0.689645 -3.41264 9.41366 0.54203
141 3 -0.845854 0.344505 11.7879 4.83395
142 3 -0.807747 1.77991 10.3964 6.56658
222 2 0.167082 -4.27759 8.52334 7.01263
209 2 0.182884 -0.858952 8.14172 1.47089
217 2 0.148698 0.227122 7.23908 6.91898
221 2 0.144062 -2.7128 7.59295 7.63194
264 2 0.145164 1.19008 7.78716 8.30703
223 2 0.140638 -1.14954 7.99566 6.34541
224 2 0.192268 0.103888 8.94768 7.54512
225 2 0.237157 -0.328617 9.6972 5.83354
240 2 0.158886 3.33467 7.19329 5.41607
242 2 0.1727 -0.39959 8.26637 3.88408
243 2 0.175927 0.880559 7.87683 5.265
259 2 0.237721 -0.127405 10.4931 2.26053
260 2 0.167792 -1.94923 10.8591 1.90166
261 2 0.152415 -1.53623 9.88131 3.40876
339 2 0.152032 -2.34528 9.65081 0.59207
4 4 1.37977 -4.90957 14.0039 7.42015
327 1 -0.695289 -6.11809 12.5493 7.73325
13 4 1.36192 -6.38427 11.9333 3.89613
208 2 0.184262 -2.69168 7.53465 1.58297
269 2 0.136072 3.56722 7.61713 7.23613
6 4 1.55535 -4.83368 13.8916 13.7367
16 4 1.17495 -2.23777 9.11022 13.2762
18 4 1.33652 -3.48343 11.737 11.6997
31 4 1.33302 1.56185 7.86218 15.4957
37 4 1.58902 -0.959532 11.6747 10.0112
147 3 -0.877009 2.18915 10.8711 12.5382
227 2 0.171946 -0.0428763 7.62793 13.056
73 1 -0.662708 -0.715345 8.3134 12.2972
74 1 -0.639771 -1.19472 9.98194 14.6897
75 1 -0.692833 -5.02079 11.4263 10.6376
86 1 -0.66789 1.51843 8.78608 8.93698
112 3 -0.819404 -2.99887 8.04777 14.2483
113 3 -0.793326 -2.91198 10.2315 12.3829
114 3 -0.809774 -3.89457 12.6743 12.8748
361 2 0.209599 -3.45486 8.91475 17.1082
130 3 -0.794085 0.303548 7.91103 16.4316
138 3 -0.802142 -1.6385 10.4865 9.04523
140 3 -0.774252 -2.16424 12.3935 10.7511
144 3 -0.808742 1.59197 9.40125 14.5696
85 1 -0.664823 0.429906 11.3932 16.4102
146 3 -0.83878 0.266618 11.0921 10.9108
139 3 -0.822146 -0.269893 12.7192 9.01221
220 2 0.171803 -3.82206 8.41392 8.93728
282 2 0.179917 -3.88419 7.77188 11.1809
228 2 0.241283 -0.172768 9.24206 11.8021
229 2 0.168493 -1.7573 10.8179 15.2464
230 2 0.206263 -0.509138 10.4826 14.0128
231 2 0.261784 -0.666085 9.25171 15.4128
129 3 -0.827891 2.97693 7.54115 16.2249
233 2 0.166151 -4.72003 10.963 9.70612
234 2 0.187111 -5.35126 12.5403 10.4799
226 2 0.151081 -1.35991 7.75012 11.5967
263 2 0.279061 0.971917 10.6202 15.7231
301 2 0.150458 -1.5518 12.1388 16.4115
265 2 0.223699 0.658823 9.44834 9.22234
266 2 0.176014 2.11129 8.47779 9.89858
297 4 1.15202 -3.99848 11.4382 17.0071
298 1 -0.671707 -2.59678 12.5807 16.1393
299 3 -0.821064 -4.99116 11.0888 15.8756
300 2 0.212872 -2.94823 12.4153 15.053
362 2 0.15811 -0.0148415 12.3172 15.749
302 2 0.225539 -2.76702 13.6238 16.5399
340 1 -0.682798 -0.776948 13.8218 14.6545
341 2 0.159276 -0.807738 12.6802 14.3092
40 4 1.62681 1.5992 11.9758 11.5929
343 2 0.190827 -0.42098 13.9727 15.7271
356 3 -0.842716 -5.98422 13.1232 14.5592
145 3 -0.780004 3.40056 8.47998 12.6852
262 2 0.158154 -0.304281 10.9315 17.1453
2 4 1.60693 14.244 2.1817 3.63025
43 4 1.62383 11.5489 2.0304 0.181715
19 4 1.60497 7.88585 0.284779 1.69333
322 2 0.171899 5.76033 5.25433 5.63642
42 4 1.58783 9.31362 2.0726 3.84074
46 4 1.56231 11.943 1.90886 5.60789
50 4 1.34579 10.348 4.27593 1.89514
52 4 1.16652 10.4314 3.94181 7.55229
89 1 -0.642233 11.6759 5.47028 2.57823
90 1 -0.698623 9.78478 5.0534 6.14453
214 2 0.196665 13.0401 4.69333 6.45065
126 3 -0.788217 6.35884 3.16076 6.81951
149 3 -0.847925 13.7601 0.905241 2.82528
150 3 -0.842524 8.86481 1.19521 2.58289
151 3 -0.867721 8.06157 2.25835 4.86994
153 3 -0.81659 11.7475 0.621247 1.0221
156 3 -0.831336 13.0143 2.73103 4.55134
157 3 -0.814684 10.621 1.4989 4.68863
158 3 -0.8537 12.6492 0.713675 6.43818
165 3 -0.820332 9.62392 3.63574 3.3023
166 3 -0.856404 11.2918 3.26255 1.16803
168 3 -0.789454 9.50327 5.30426 0.690511
170 3 -0.822091 11.3917 2.92619 6.8152
273 2 0.167115 11.6097 6.27436 1.70983
274 2 0.154315 11.4383 5.93893 3.60844
275 2 0.161043 10.6513 5.52656 5.61354
276 2 0.157045 9.01996 5.87349 6.57451
277 2 0.229855 9.28216 4.32173 5.50807
246 2 0.128414 4.92364 5.95449 7.02066
287 2 0.166721 7.227 6.47813 6.38608
278 2 0.142491 11.5197 5.94386 7.98529
345 2 0.218805 14.8587 1.60787 7.49091
304 4 0.952896 6.92284 6.65311 3.52498
344 1 -0.684358 14.804 0.817449 8.26983
308 1 -0.662126 6.69735 5.22993 4.9012
323 2 0.189474 7.71135 5.06517 5.41712
311 3 -0.755065 6.23163 6.08268 2.28866
316 2 0.184414 9.12938 5.91922 3.6149
321 2 0.19914 6.56738 4.43766 4.16986
364 2 0.227917 12.6589 4.86767 2.63601
286 2 0.137203 8.45359 6.64348 7.90932
309 3 -0.796163 5.9359 3.68748 0.586625
7 4 1.38268 14.2825 2.34153 15.3511
211 2 0.173939 13.9804 3.54478 9.31171
346 2 0.183408 15.0008 1.23255 9.3145
12 4 1.55865 12.205 6.91281 15.2714
154 3 -0.849773 8.80648 0.915439 8.94495
45 4 1.61986 8.88948 2.24756 9.75443
167 3 -0.844142 10.7761 7.12538 15.9263
48 4 1.61305 9.35171 2.80071 15.1699
49 4 1.41889 11.3917 2.31117 11.7108
51 4 1.41157 9.45398 6.87653 16.8398
53 4 1.59896 10.9258 4.83907 13.4236
249 2 0.238852 6.21597 4.90337 10.3024
80 1 -0.666328 6.40577 5.01255 9.16126
88 1 -0.678297 12.4286 2.29607 10.1096
169 3 -0.831291 9.36743 3.4784 8.71399
93 1 -0.665595 8.09026 6.63531 10.7563
248 2 0.24247 7.39941 4.46283 8.81389
152 3 -0.792827 13.1379 2.56432 16.5208
204 2 0.187136 15.3028 0.839827 10.966
155 3 -0.837454 7.3326 2.68109 10.2641
159 3 -0.837628 13.9841 1.11123 14.4555
160 3 -0.848986 9.10966 1.39089 14.4069
161 3 -0.819913 10.5091 2.5046 16.2763
162 3 -0.809218 7.94401 3.24549 16.048
163 3 -0.823624 9.91557 2.10653 11.022
164 3 -0.820648 12.159 1.05641 12.5329
283 2 0.167401 8.69617 6.04404 10.0248
54 4 1.63423 6.65353 7.12978 15.098
171 3 -0.853204 9.83962 3.98936 14.174
172 3 -0.865263 11.5308 3.7414 12.3356
173 3 -0.810245 12.1056 5.45014 14.4344
174 3 -0.821915 6.13825 5.75807 14.2581
175 3 -0.791171 8.01563 6.87998 15.9922
177 3 -0.844502 10.2615 6.14306 12.7378
247 2 0.164027 6.40544 6.06072 8.82979
280 2 0.170387 11.1599 5.1516 9.68064
270 2 0.26786 12.1346 1.38276 9.50442
271 2 0.187581 13.5157 2.21883 10.4506
272 2 0.193703 12.1601 3.27324 9.53321
359 2 0.203301 13.7479 3.63612 13.4482
285 2 0.2032 7.54427 5.99532 11.552
258 2 0.180413 5.26682 6.47129 10.0091
24 4 1.43014 8.16557 0.523282 13.4403
279 2 0.176654 12.7955 4.73046 8.77532
128 3 -0.846839 6.08205 3.8895 12.1727
91 1 -0.657806 11.6803 5.00839 8.65079
288 2 0.144708 6.73147 7.4726 8.00254
306 1 -0.659205 8.78001 7.08136 3.42112
38 4 1.58368 1.691 11.8928 5.80837
44 4 1.38979 5.69553 13.7009 7.51958
56 4 1.64355 4.18833 11.514 3.86433
58 4 0.921617 8.3459 8.94257 7.08964
60 4 1.5348 6.66684 11.4695 5.65993
87 1 -0.682697 3.92272 8.62104 6.8074
360 2 0.158403 10.0343 9.74044 3.09482
95 1 -0.652397 9.8573 8.96727 5.85033
133 3 -0.814301 4.01863 8.74841 0.729363
363 2 0.185556 8.10605 13.9245 8.0875
357 3 -0.801151 6.46974 13.0794 0.777086
143 3 -0.865096 1.51448 13.0175 7.01282
178 3 -0.829591 3.72946 10.1659 2.98482
179 3 -0.867479 4.63536 12.5999 2.79031
180 3 -0.844502 3.03864 12.0142 4.88966
354 2 0.218857 6.428 10.8212 2.34186
185 3 -0.827684 7.98343 11.9464 4.90072
186 3 -0.868806 5.50724 11.0864 4.6425
187 3 -0.756532 7.22742 9.84645 6.41312
188 3 -0.863694 6.23962 12.3441 6.92157
267 2 0.203136 4.97655 8.8325 7.12017
268 2 0.188066 3.92194 8.61191 5.68385
289 2 0.137741 10.4681 7.98444 5.77574
33 4 1.54051 2.84754 9.28507 1.93708
307 1 -0.654565 6.03109 8.39376 3.98745
41 4 1.61388 5.32224 13.7651 1.90221
317 2 0.157595 9.22816 7.85815 4.28006
318 2 0.210779 6.1565 9.04106 3.03109
319 2 0.25179 6.43817 8.98156 4.91887
290 2 0.183857 10.3763 9.75486 6.46984
315 2 0.186642 9.05795 7.445 2.35677
366 2 0.199136 9.47457 9.44126 4.78596
334 1 -0.680842 8.99892 10.2534 3.01844
335 2 0.186943 8.8067 10.6947 1.91448
336 2 0.170476 8.19809 9.50961 3.26993
347 1 -0.683914 9.27521 8.11894 0.503136
349 2 0.155272 10.2472 8.12531 1.11556
350 2 0.166319 8.36621 8.37817 1.10424
351 1 -0.707021 6.5186 10.2815 1.40853
352 2 0.16474 7.37814 9.57178 1.38756
353 2 0.284216 5.55327 9.73981 1.08395
320 2 0.195712 5.01308 8.06104 4.11061
35 4 1.38206 1.65147 11.5164 0.35219
137 3 -0.825014 1.12757 12.9619 1.02574
329 2 0.22656 8.83087 12.4365 6.84486
57 4 1.49041 6.6522 11.6929 0.0228197
291 2 0.157049 9.21215 10.7559 8.48706
36 4 1.18421 2.74939 9.80677 7.71791
21 4 1.67095 0.561645 13.7538 7.96267
94 1 -0.657215 7.62099 7.1393 7.30685
17 4 1.57474 9.30152 11.7291 15.2351
296 2 0.183652 8.54418 12.9538 11.4052
348 2 0.228269 9.57683 9.20531 16.8813
47 4 1.64579 5.37144 14.0011 13.5905
59 4 1.64212 4.02334 12.1202 9.64132
61 4 1.5961 7.88633 9.55957 13.4183
62 4 1.6354 4.32795 11.8788 15.5033
63 4 1.4123 6.42817 11.8648 11.5865
83 1 -0.672461 4.66112 7.38946 10.3928
92 1 -0.638291 10.926 8.17041 10.7116
281 2 0.119931 10.4512 7.54423 9.84075
97 1 -0.678799 7.89993 12.4854 10.5359
295 2 0.181881 8.37489 11.5855 10.0515
232 2 0.190386 9.85658 10.8087 11.2171
181 3 -0.811157 8.20169 11.9734 16.5507
28 4 1.61359 4.2884 7.65974 17.1018
184 3 -0.827515 2.73807 12.4898 10.4943
189 3 -0.83182 6.98061 8.45175 14.2455
190 3 -0.804239 9.10774 8.69833 12.5749
191 3 -0.859843 8.52743 10.6793 14.2853
192 3 -0.828606 4.01793 10.5492 14.4923
193 3 -0.870636 5.63898 11.7217 16.3455
194 3 -0.850813 4.48106 13.2851 14.6224
195 3 -0.833653 3.05611 11.9967 16.5042
196 3 -0.858083 5.26057 11.6335 10.5435
197 3 -0.789794 7.04162 10.324 12.2887
198 3 -0.868091 6.14847 12.9477 12.6366
256 2 0.185085 5.34117 8.29825 10.9125
182 3 -0.814673 3.50543 10.8979 8.63601
183 3 -0.803248 4.53701 13.4335 8.87751
292 2 0.160306 9.57614 9.06272 9.48562
284 2 0.168183 7.48001 7.50251 10.3255
96 1 -0.660271 8.769 9.64292 8.84591
293 2 0.183495 7.7884 9.67816 9.39454
294 2 0.160479 7.58928 13.3206 9.69121
55 4 1.18064 9.55394 7.34596 11.9597
148 3 -0.8456 1.04938 13.179 12.4724
176 3 -0.844068 5.50928 7.45979 16.1556
39 4 1.54796 2.85506 9.91321 13.5788
257 2 0.147233 3.88997 7.84899 9.67469
330 2 0.168142 9.04803 12.5058 8.74807
365 2 0.192266 10.7945 9.40985 10.6881
ITEM: TIMESTEP
100
ITEM: NUMBER OF ATOMS
366
ITEM: BOX BOUNDS xy xz yz pp pp pp
-7.5839999999999996e+00 1.5901800000000000e+01 -7.5839999999999996e+00
0.0000000000000000e+00 1.4334958666666667e+01 1.7780000000000001e-01
0.0000000000000000e+00 1.7246500000000001e+01 4.3185866666666683e-01
ITEM: ATOMS id type q x y z
355 3 -0.827068 1.83406 0.713678 0.5084
5 4 1.32905 0.975272 2.1565 5.51109
9 4 1.53695 0.155659 4.19655 1.75629
11 4 0.924231 -0.240272 4.75248 7.11427
27 4 1.17012 1.57483 6.74561 3.41742
29 4 1.1534 5.43727 4.07138 8.05568
64 1 -0.677559 2.18378 2.88323 4.2743
69 1 -0.647847 -1.68977 5.28462 5.8708
70 1 -0.655674 0.787889 6.34291 7.10041
76 1 -0.67336 5.37194 1.60144 4.87986
77 1 -0.674651 2.9553 6.25219 4.6863
79 1 -0.65974 4.18145 5.13398 7.05493
98 3 -0.817471 -0.296439 1.5055 4.70722
99 3 -0.811525 1.87236 1.18656 6.51013
102 3 -0.817535 -0.715725 3.1774 2.6883
103 3 -0.827261 1.30703 3.28364 0.922954
104 3 -0.788489 -0.815147 4.90028 0.689053
105 3 -0.77546 0.522461 3.51648 6.42246
115 3 -0.85324 7.13815 1.16413 0.815847
124 3 -0.799772 0.826132 5.40573 2.74846
324 1 -0.660116 3.73478 0.596426 2.38899
199 2 0.201711 1.76097 2.5342 3.27503
200 2 0.158759 3.34531 2.57587 4.49977
201 2 0.19464 2.02043 3.97688 4.42023
210 2 0.191098 -1.52052 6.86461 2.80177
303 4 1.32638 5.20558 4.89663 1.32677
215 2 0.21301 -1.35629 4.88568 4.82082
216 2 0.136082 -1.92753 6.3888 6.00582
218 2 0.177168 1.64147 6.23808 6.27775
219 2 0.127148 1.15217 6.15466 8.21167
235 2 0.272657 4.93078 0.71699 5.42442
236 2 0.217425 5.71202 1.31733 3.85081
237 2 0.148816 4.70385 2.59278 4.87607
238 2 0.169341 3.71205 6.20278 3.79213
239 2 0.149614 2.87695 5.19085 5.28392
241 2 0.180343 -0.579859 6.57138 4.72399
244 2 0.190483 3.26707 5.20441 7.5999
245 2 0.162458 4.03967 4.8913 5.94322
23 4 1.44047 6.8681 1.89398 6.03167
305 1 -0.629387 4.17922 3.91242 2.59071
310 3 -0.804755 3.94214 5.80398 0.594419
312 2 0.162929 4.09295 2.60299 2.47667
313 2 0.22956 3.16095 4.38713 2.5326
314 2 0.147371 4.69631 4.22583 3.58984
326 2 0.166064 3.15035 1.27189 3.10651
118 3 -0.843503 7.11259 0.582898 6.85557
10 4 1.28666 -1.27143 6.46471 0.180554
358 2 0.2055 4.45583 1.14213 1.7676
4 4 1.37413 2.73328 0.242912 7.51652
254 2 0.143196 1.76794 6.60254 10.0233
8 4 1.1417 1.52697 2.18413 11.8734
331 1 -0.654659 -1.29473 3.74441 14.2337
22 4 1.57211 3.83496 1.98874 9.82683
25 4 1.6165 4.12184 2.46996 15.2408
26 4 1.57663 6.3677 2.55932 11.4651
333 2 0.24396 -1.52868 4.64517 14.8648
125 3 -0.817396 4.46284 3.16081 8.89152
65 1 -0.659106 -0.28294 1.99495 11.2644
66 1 -0.690969 1.65613 3.8958 12.8931
253 2 0.178468 1.66667 5.32592 11.4629
81 1 -0.667586 1.08835 6.48402 14.3198
82 1 -0.656821 1.73682 6.46575 11.1865
100 3 -0.847783 0.069802 2.44475 16.2874
101 3 -0.808615 1.90703 0.811887 12.6862
106 3 -0.822999 -2.38038 6.82604 16.3116
116 3 -0.805387 3.50808 0.663519 8.91819
117 3 -0.803069 2.42338 2.4846 10.5087
119 3 -0.861308 3.76324 1.04396 14.6804
120 3 -0.86154 5.35712 2.15358 16.2756
121 3 -0.807035 2.75814 2.98099 16.003
122 3 -0.82535 4.95859 1.93082 11.0041
123 3 -0.833374 6.97211 1.43804 12.4297
127 3 -0.852538 4.55237 3.67317 14.2071
131 3 -0.774497 4.25236 5.8579 12.5412
202 2 0.171685 -0.433491 2.68819 10.4013
30 4 1.52814 5.41029 4.85918 13.4359
332 2 0.146049 -0.183478 3.7659 13.6742
205 2 0.247782 2.65935 4.41014 12.7281
206 2 0.199764 1.49777 3.49828 13.9238
207 2 0.145303 0.837489 4.58748 12.4734
251 2 0.193592 1.34028 6.56119 13.2085
212 2 0.139686 -0.838805 5.11741 9.49621
213 2 0.179575 0.215756 3.62578 9.34911
68 1 -0.66347 -0.767535 4.13153 8.96736
3 4 1.59824 1.53119 2.57874 17.0898
250 2 0.200338 1.97199 5.78351 14.8991
252 2 0.176194 0.149232 5.91386 14.5376
20 4 1.63592 6.63726 2.69229 17.0456
32 4 1.17064 3.57795 7.1623 11.7362
255 2 0.179242 0.876039 7.08741 11.6304
211 2 0.173473 -1.65834 3.51443 9.36223
1 4 1.39053 -5.29073 13.5164 1.56053
338 2 0.158207 -3.5691 9.52915 1.66732
14 4 1.1256 -2.30045 9.90546 7.70726
15 4 1.52966 -3.54876 12.0854 5.59172
67 1 -0.676003 -1.75548 7.34037 1.81379
34 4 1.36952 -0.973892 12.0716 3.78943
136 3 -0.848437 1.77775 10.2444 1.29742
328 2 0.179074 -5.23355 11.7724 8.22183
71 1 -0.662698 -3.44193 8.43092 7.79545
72 1 -0.65671 -0.665779 9.25615 6.72151
78 1 -0.657866 0.0585244 7.41833 4.26212
84 1 -0.68534 -1.15821 10.4431 2.72209
325 2 0.234744 -3.34419 13.732 3.07818
107 3 -0.827464 -6.18476 13.0432 2.77861
108 3 -0.780604 -4.3297 12.2901 0.888133
109 3 -0.841876 -4.9902 11.7875 4.9102
110 3 -0.802428 -3.21249 10.8793 6.75205
111 3 -0.795239 -3.78077 13.4855 6.51438
132 3 -0.803956 2.22591 7.8883 2.56426
134 3 -0.838519 -0.756507 13.4061 2.82259
135 3 -0.862785 -2.39592 12.2545 4.55387
337 1 -0.672331 -3.44567 9.51905 0.50682
141 3 -0.850643 0.354087 11.8311 4.78268
142 3 -0.813273 1.93563 10.3161 6.48343
222 2 0.170109 -4.29027 8.44433 7.00872
209 2 0.179351 -1.21604 8.35096 1.60818
217 2 0.154996 0.241402 7.45002 6.94362
221 2 0.119872 -2.56653 7.66395 7.45623
264 2 0.146147 1.38301 7.90439 8.19708
223 2 0.137417 -1.03591 8.23333 6.31567
224 2 0.200177 0.175904 9.16493 7.59103
225 2 0.233169 -0.413085 10.0573 6.00729
269 2 0.153583 3.79669 7.55673 7.00538
242 2 0.174735 -0.536688 8.14063 3.64154
243 2 0.173907 0.657295 8.01518 5.05159
259 2 0.219627 -0.114859 10.2891 2.30894
260 2 0.17526 -1.87843 10.3042 1.87302
261 2 0.151973 -1.36034 9.67373 3.55628
339 2 0.127521 -2.36066 9.70869 0.0552918
208 2 0.16519 -2.88021 7.51766 1.63712
327 1 -0.680244 -5.99138 12.6511 8.08949
13 4 1.3511 -6.38422 11.9984 4.07647
329 2 0.209857 -6.61421 12.5657 7.0972
240 2 0.164178 3.24962 7.16633 5.38284
361 2 0.220355 -3.99723 8.68846 0.030213
6 4 1.54105 -4.81766 13.8626 13.8137
16 4 1.16096 -2.19747 9.0723 13.2515
18 4 1.37984 -3.24247 11.7634 11.832
31 4 1.34348 1.39863 7.91896 15.5533
37 4 1.57954 -0.899174 11.7713 9.90256
330 2 0.168272 -6.59376 12.7701 9.0907
227 2 0.181072 -0.0315302 7.57733 13.0862
73 1 -0.664457 -0.678809 8.2415 12.3389
74 1 -0.668775 -1.24091 10.0788 14.5391
75 1 -0.651435 -4.73354 11.4246 10.6615
86 1 -0.666527 1.76104 8.92701 8.86491
112 3 -0.761018 -3.07295 7.9119 13.955
113 3 -0.780834 -3.0515 10.1998 12.3963
114 3 -0.83627 -3.86849 12.7665 13.0098
257 2 0.128878 3.78502 7.55507 9.50943
130 3 -0.804063 0.19359 7.74237 16.6685
138 3 -0.785803 -1.62091 10.346 9.14067
140 3 -0.815565 -2.16926 12.3252 10.8399
144 3 -0.804287 1.58424 9.35432 14.5637
85 1 -0.666954 0.457412 11.4407 16.2976
146 3 -0.881769 0.237537 11.3585 10.8652
139 3 -0.837304 -0.333268 12.6624 8.7078
220 2 0.179257 -3.86874 8.24393 8.87431
282 2 0.188299 -3.85696 7.66099 11.023
228 2 0.211347 -0.0802325 9.14125 11.944
229 2 0.164234 -1.75014 11.0557 14.987
230 2 0.186296 -0.439948 10.4278 13.8065
231 2 0.216204 -0.702975 9.47041 15.2887
129 3 -0.843485 2.80604 7.69565 16.1903
233 2 0.170438 -4.27272 10.9327 9.67219
234 2 0.198621 -4.97926 12.5952 10.5458
226 2 0.159675 -1.23177 7.60694 11.5421
263 2 0.264162 0.994141 10.5962 15.6019
301 2 0.15497 -1.41455 12.2148 16.1889
265 2 0.210431 0.873107 9.60281 9.20368
266 2 0.167837 2.4455 8.67241 9.7456
297 4 1.12231 -3.90845 11.5639 16.9389
298 1 -0.663509 -2.50594 12.6381 15.9776
299 3 -0.811983 -5.09292 10.9871 15.9588
300 2 0.211726 -2.84 12.516 14.8817
362 2 0.162666 0.108456 12.3903 15.6416
302 2 0.266162 -2.70041 13.7051 16.3488
340 1 -0.648202 -0.869765 13.669 14.4077
341 2 0.166126 -0.767821 12.5842 14.1097
145 3 -0.804525 3.23614 8.43971 12.5939
343 2 0.191912 -0.621539 13.8323 15.5209
356 3 -0.817355 -5.92072 13.1402 14.7255
262 2 0.150826 -0.336837 11.0111 16.9289
40 4 1.60721 1.59279 11.9522 11.6074
342 2 0.258875 -1.946 14.1563 14.0428
232 2 0.197636 -5.48299 10.8353 11.1248
365 2 0.192503 -4.8209 9.31897 10.5946
2 4 1.56543 14.2204 2.05953 3.68137
345 2 0.211042 14.6958 1.54265 7.35929
19 4 1.60853 7.88428 0.228366 1.84682
322 2 0.170883 5.7133 5.23232 5.74532
42 4 1.59477 9.29872 2.15198 3.86302
46 4 1.56541 11.8973 2.01755 5.5635
50 4 1.37002 10.4509 4.22934 1.83797
52 4 1.16225 10.5865 4.13857 7.63485
89 1 -0.667434 11.559 5.53433 2.73573
90 1 -0.679975 9.61042 5.29223 6.41024
214 2 0.208 13.2801 4.59819 6.39374
286 2 0.132813 8.25033 6.83442 8.00007
149 3 -0.861117 13.547 1.04746 2.63495
150 3 -0.829141 8.92273 1.16725 2.67801
151 3 -0.845619 8.03861 2.2057 4.96948
153 3 -0.803199 11.7397 0.534163 0.772999
156 3 -0.835324 13.0373 2.75062 4.62489
157 3 -0.841327 10.5734 1.66266 4.65504
158 3 -0.850839 12.5615 0.758551 6.41405
165 3 -0.821731 9.55285 3.67803 3.09304
166 3 -0.81264 11.4301 3.17425 1.10029
168 3 -0.789141 9.61475 5.21553 0.689297
170 3 -0.81543 11.4345 3.1405 6.72771
273 2 0.15917 11.2875 6.41827 2.09753
274 2 0.172301 11.3225 5.71663 3.81282
275 2 0.13925 10.4275 5.87843 5.87941
276 2 0.165994 8.76136 5.98041 6.7491
277 2 0.194252 9.17739 4.37939 5.75165
306 1 -0.661652 8.58721 6.9003 3.48942
287 2 0.155466 7.10963 6.60587 6.45304
278 2 0.150497 11.8342 6.14733 8.11256
364 2 0.215128 12.5904 5.13487 2.53313
304 4 0.974479 6.74401 6.63896 3.62297
344 1 -0.641618 14.7217 0.680885 8.16719
308 1 -0.640714 6.66773 5.26802 4.96581
323 2 0.176455 7.76236 5.27262 5.48621
311 3 -0.790383 6.12138 5.90531 2.38276
316 2 0.213682 9.13378 5.87202 3.55348
321 2 0.203471 6.64241 4.42946 4.17927
246 2 0.112069 4.92765 6.15436 7.28799
309 3 -0.816786 5.916 3.6686 0.526745
126 3 -0.788633 6.37688 3.15935 6.89991
7 4 1.4233 14.4642 2.33021 15.5053
91 1 -0.675913 11.9067 5.21127 8.74173
346 2 0.179035 14.4536 1.03117 9.21438
12 4 1.52414 12.1758 6.78125 15.2509
154 3 -0.852342 8.87372 0.87848 8.93317
45 4 1.59823 8.91275 2.2687 9.67999
167 3 -0.835744 10.78 7.20744 15.9261
48 4 1.64971 9.26307 2.65577 15.3258
49 4 1.33921 11.3285 2.40321 11.7216
51 4 1.42054 9.45284 6.8427 16.7833
53 4 1.56777 10.8348 4.72283 13.533
249 2 0.248604 6.4944 4.74252 10.2669
80 1 -0.676054 6.59505 5.13262 9.21656
88 1 -0.674964 12.4524 2.39268 10.2011
128 3 -0.83257 6.33174 4.05908 12.2761
93 1 -0.658425 8.10352 6.61682 10.8736
248 2 0.221046 7.58302 4.72698 8.74377
152 3 -0.85892 13.1816 2.58966 16.3369
204 2 0.167505 15.3582 0.668728 10.9775
155 3 -0.832652 7.39673 2.72531 10.1016
159 3 -0.782805 14.1264 0.96093 14.3498
160 3 -0.868558 8.90478 1.46951 14.2971
161 3 -0.851592 10.4315 2.36509 16.3773
162 3 -0.822102 7.83082 3.03375 16.1069
163 3 -0.835534 9.82077 2.23317 11.01
164 3 -0.818699 11.898 1.2065 12.7768
283 2 0.144429 8.66227 6.55996 9.91877
54 4 1.65207 6.8012 7.11232 15.1711
171 3 -0.83797 9.71349 3.95521 14.3697
172 3 -0.827653 11.6419 3.93051 12.3641
173 3 -0.804701 12.0148 5.24258 14.551
174 3 -0.836968 6.35176 5.85482 14.3055
175 3 -0.858809 8.17088 6.79399 15.9233
177 3 -0.792953 10.1634 6.07812 12.6949
247 2 0.161447 6.64215 6.26958 9.05137
280 2 0.187218 11.5486 5.43541 9.74227
270 2 0.238198 12.0259 1.55873 9.57631
271 2 0.173448 13.5565 2.16844 10.5936
272 2 0.188606 12.2083 3.4898 9.69235
359 2 0.227796 13.634 3.53119 13.4337
285 2 0.233762 7.95544 5.61948 11.4129
258 2 0.171058 5.3581 6.55367 9.8935
24 4 1.46967 8.07213 0.599043 13.3056
279 2 0.167435 13.0386 4.82822 8.78835
43 4 1.65376 11.8263 2.38851 17.2168
203 2 0.174676 14.733 2.2629 12.1168
169 3 -0.822893 9.58268 3.47903 8.63936
288 2 0.148074 6.49559 7.42943 8.10669
94 1 -0.665709 7.40916 7.27069 7.43107
38 4 1.58605 1.68541 11.8414 5.68211
44 4 1.39656 5.59154 13.5859 7.45852
56 4 1.63248 4.15141 11.4552 3.83146
58 4 0.928616 8.34635 8.91232 7.03157
60 4 1.56151 6.67185 11.4219 5.64896
87 1 -0.664928 4.05486 8.57031 6.6979
360 2 0.155783 10.1123 9.68982 3.21461
95 1 -0.670456 9.84104 8.79327 5.81134
133 3 -0.830862 4.09247 8.58597 0.957382
363 2 0.189109 8.09086 13.8852 8.16728
357 3 -0.83815 6.26305 12.8879 0.819962
143 3 -0.832219 1.70584 12.9639 6.89204
178 3 -0.845748 3.65794 10.0842 3.01883
179 3 -0.848767 4.66661 12.5458 2.75627
180 3 -0.854149 2.91891 11.9653 4.67049
354 2 0.190271 6.73379 10.737 2.18437
185 3 -0.845285 7.90959 12.0677 4.94692
186 3 -0.87433 5.43384 11.0549 4.78047
187 3 -0.761489 7.26951 9.79415 6.24946
188 3 -0.8408 6.37351 12.2505 6.97035
267 2 0.198478 5.10698 8.86647 7.17527
268 2 0.194289 4.01179 8.68741 5.54172
289 2 0.142887 10.4351 7.85285 5.74724
33 4 1.58663 2.99358 9.23241 1.86657
307 1 -0.647326 5.89822 8.30994 3.93679
41 4 1.63204 5.27543 13.7596 1.7911
317 2 0.162542 9.02528 7.59004 4.30171
318 2 0.191339 6.13299 9.02495 2.9476
319 2 0.240369 6.40028 8.75368 4.89497
290 2 0.191485 10.4022 9.59775 6.40696
315 2 0.164844 8.74199 7.43103 2.38719
366 2 0.184825 9.52905 9.27281 4.75303
334 1 -0.678903 9.18756 10.371 3.06468
335 2 0.200943 9.22438 10.7302 2.00021
336 2 0.158527 8.19569 9.8657 3.33026
347 1 -0.700497 9.01899 8.07299 0.506648
349 2 0.159403 9.65251 8.09554 1.37848
350 2 0.167699 7.88224 8.13389 0.720318
351 1 -0.687119 6.66016 10.1081 1.29594
352 2 0.17012 7.60626 9.39274 1.17061
353 2 0.269907 5.67048 9.46858 1.21555
320 2 0.201414 4.7594 8.20343 4.0841
35 4 1.44566 1.60913 11.5097 0.328676
137 3 -0.817367 1.0904 12.8535 0.950864
182 3 -0.814601 3.78596 10.904 8.47512
21 4 1.61372 0.603763 13.7578 7.85545
291 2 0.174954 9.1745 10.8109 8.61183
36 4 1.20583 2.93392 9.87286 7.63503
17 4 1.57186 9.28082 11.6684 15.3408
296 2 0.206341 8.2186 13.2041 11.6205
348 2 0.235818 9.46699 9.20979 16.9559
47 4 1.61744 5.24437 14.0925 13.6584
59 4 1.60594 4.0824 12.1005 9.64989
61 4 1.62493 7.76572 9.62476 13.4864
62 4 1.57214 4.17925 11.8816 15.3798
63 4 1.44017 6.32016 11.7781 11.6785
83 1 -0.671939 4.65349 7.45094 10.2722
92 1 -0.645066 10.8699 8.11418 10.686
281 2 0.115933 10.3051 7.55501 9.83098
97 1 -0.672347 7.8193 12.621 10.7012
295 2 0.184617 8.42856 11.7975 10.3895
147 3 -0.899808 2.30475 10.8575 12.415
181 3 -0.845195 8.17703 11.8885 16.5903
28 4 1.56764 4.2001 7.58578 17.0184
184 3 -0.813478 2.69441 12.4551 10.3453
189 3 -0.801388 6.94421 8.45471 14.2351
190 3 -0.78083 8.80815 8.55067 12.7059
191 3 -0.871094 8.61609 10.6637 14.2642
192 3 -0.838676 4.05261 10.5838 14.2706
193 3 -0.804895 5.61536 11.5003 16.249
194 3 -0.860642 4.34921 13.3468 14.6521
195 3 -0.837925 3.01547 11.9366 16.5101
196 3 -0.842965 5.19563 11.4505 10.6398
197 3 -0.823148 6.9328 10.3964 12.3
198 3 -0.844491 5.99543 13.0196 12.6495
256 2 0.193115 5.3226 8.40143 10.4326
57 4 1.47296 6.77228 11.9809 17.2429
183 3 -0.832796 4.81287 13.3592 8.92165
292 2 0.15398 9.5523 9.05527 9.46
284 2 0.189798 7.16409 7.24446 10.8595
96 1 -0.647144 8.78134 9.67231 8.76853
293 2 0.179329 7.68239 9.62854 9.2092
294 2 0.164144 7.5541 13.3637 9.71663
55 4 1.21203 9.51046 7.36668 11.9777
148 3 -0.850081 1.13561 13.2089 12.5446
176 3 -0.84094 5.56905 7.60276 16.18
39 4 1.56454 2.92657 9.86908 13.4546
ITEM: TIMESTEP
200
ITEM: NUMBER OF ATOMS
366
ITEM: BOX BOUNDS xy xz yz pp pp pp
-7.5839999999999996e+00 1.5901800000000000e+01 -7.5839999999999996e+00
0.0000000000000000e+00 1.4329717333333333e+01 1.7780000000000001e-01
0.0000000000000000e+00 1.7246500000000001e+01 4.2661733333333274e-01
ITEM: ATOMS id type q x y z
355 3 -0.782307 1.71617 0.840171 0.613189
5 4 1.28864 0.980531 2.11721 5.7044
9 4 1.56837 0.0441015 4.11805 1.76773
11 4 0.920137 -0.263952 4.8618 7.1277
27 4 1.142 1.57011 6.67751 3.42796
29 4 1.21317 5.43988 4.13852 8.08503
64 1 -0.657796 2.15689 2.56264 4.33341
69 1 -0.657654 -1.73535 5.31693 5.92749
70 1 -0.657756 0.743436 6.48185 7.20967
76 1 -0.683312 5.4732 1.76267 4.81012
77 1 -0.688085 2.89393 6.20444 4.77036
79 1 -0.665419 4.42654 5.57197 7.20732