ITEM: TIMESTEP
0
ITEM: NUMBER OF ATOMS
366
ITEM: BOX BOUNDS xy xz yz pp pp pp
-7.5839999999999996e+00 1.5901800000000000e+01 -7.5839999999999996e+00
0.0000000000000000e+00 1.4340199999999999e+01 1.7780000000000001e-01
0.0000000000000000e+00 1.7246500000000001e+01 4.3709999999999999e-01
ITEM: ATOMS id type q x y z element
218 2 0.0422937 1.37909 6.42047 7.88535 H
5 4 1.12782 0.936939 2.35484 5.74409 Si
9 4 1.4978 -0.0317743 4.05819 1.7473 Si
11 4 0.313162 -0.351798 4.75967 6.87273 Si
27 4 0.694188 1.35046 6.67696 2.90358 Si
29 4 0.717974 5.08892 3.87591 7.63371 Si
64 1 -0.0899184 2.51051 2.13542 4.26336 C
69 1 -0.0937385 -1.81255 5.3317 5.47595 C
70 1 -0.113926 0.292925 6.35084 8.13451 C
76 1 -0.0557093 5.75235 0.956603 5.17293 C
77 1 -0.108057 3.3286 6.14868 3.14145 C
79 1 -0.123323 3.79824 5.36506 7.15314 C
98 3 -0.804497 -0.40517 1.81082 5.00703 O
99 3 -0.787669 1.32026 1.47287 7.04778 O
102 3 -0.857042 -1.01595 3.14461 2.7941 O
103 3 -0.808757 0.973374 2.92658 1.02418 O
104 3 -0.756992 -0.732754 4.85573 0.436967 O
105 3 -0.656704 0.901128 3.92769 6.09982 O
68 1 -0.0997883 -1.11216 3.75463 8.50481 C
124 3 -0.780944 0.561812 5.26647 2.61292 O
125 3 -0.707646 4.31087 2.59922 8.30395 O
199 2 0.0871701 2.86921 1.11372 4.39767 H
200 2 0.0346167 3.0627 2.94631 4.679 H
201 2 0.0847393 2.14837 2.30052 3.27508 H
246 2 0.0138898 4.51714 6.13117 6.82623 H
355 3 -0.754444 1.45058 0.417351 0.50807 O
115 3 -0.886023 6.75719 0.936516 1.00084 O
216 2 0.00939053 -1.87103 6.39605 5.64916 H
242 2 0.0498468 1.40133 6.38044 5.42175 H
215 2 0.102627 -1.34678 4.93004 4.5968 H
324 1 -0.0877161 4.1862 0.455739 1.81246 C
236 2 0.0776708 5.93651 0.898753 4.12399 H
237 2 0.104737 4.77419 1.3663 5.50383 H
238 2 0.111178 3.53542 5.80865 2.15399 H
239 2 0.0345044 3.10646 5.30123 3.86122 H
244 2 0.0359612 3.1784 5.60672 8.0324 H
310 3 -0.804115 4.66384 5.46986 0.599946 O
245 2 0.0732497 3.26161 4.8967 6.34279 H
314 2 0.0261103 4.83084 4.04698 3.57844 H
305 1 -0.127204 5.05962 3.4769 2.71515 C
126 3 -0.731304 6.01633 3.61932 6.35087 O
325 2 0.0260554 3.98576 0.923403 2.76008 H
313 2 0.0508511 4.24386 2.95495 2.25396 H
209 2 0.0477801 -1.52805 6.66643 2.27865 H
326 2 0.102766 4.36385 1.04653 0.898193 H
4 4 1.16666 2.3445 0.336258 7.5641 Si
312 2 0.0566489 5.87922 2.82018 2.91906 H
240 2 0.0257768 3.87581 6.94972 3.55412 H
3 4 1.50772 1.44309 2.34948 17.0322 Si
8 4 0.694911 1.81777 1.99354 11.853 Si
10 4 1.06923 -0.939899 6.78261 17.0762 Si
22 4 1.33942 3.90232 1.90057 9.74544 Si
25 4 1.64187 4.21832 2.24858 15.3914 Si
26 4 1.6181 6.4238 2.54086 11.5528 Si
30 4 1.53633 5.34794 4.70334 13.6875 Si
212 2 0.0701904 -0.41683 2.98321 8.8591 H
65 1 -0.123964 -0.0684672 2.10232 11.1867 C
66 1 -0.0990305 1.71987 3.3635 13.3054 C
226 2 0.0435379 -1.73132 6.83583 12.3454 H
81 1 -0.0829051 1.55549 5.67038 14.8818 C
82 1 -0.135168 2.87626 6.41068 10.533 C
100 3 -0.840958 0.3542 2.47976 15.8523 O
32 4 0.732846 4.04102 7.02826 12.1542 Si
106 3 -0.792317 -2.03017 6.57639 15.8397 O
359 2 0.0169573 -0.829156 4.20881 13.8568 H
117 3 -0.704712 2.66903 2.64474 10.6077 O
119 3 -0.926038 3.79069 0.941335 14.6057 O
120 3 -0.909478 5.63765 2.06642 16.205 O
121 3 -0.818886 3.05756 2.7783 16.4436 O
122 3 -0.778265 5.195 1.73755 10.7741 O
123 3 -0.804073 6.97525 1.5458 12.7226 O
127 3 -0.871792 4.57306 3.46453 14.359 O
131 3 -0.728489 4.09943 5.84614 13.2361 O
211 2 0.0205198 -1.26618 4.62844 9.16976 H
203 2 0.00918767 -0.244603 3.11091 11.3477 H
128 3 -0.831305 5.9115 3.96933 12.2637 O
205 2 0.121406 2.7389 3.70983 13.3378 H
206 2 0.0945832 1.28915 2.81016 14.1055 H
207 2 0.0119007 1.10618 4.1465 12.8217 H
254 2 0.00249508 3.45107 6.86966 9.73641 H
202 2 0.0529685 -0.123739 1.8746 10.1436 H
255 2 0.0279666 1.85009 6.76489 10.6426 H
116 3 -0.705949 2.86036 0.416261 9.05663 O
253 2 0.0723522 3.01578 5.29165 10.5418 H
250 2 0.118682 2.05735 5.17235 15.6473 H
251 2 0.0881978 2.09827 5.99441 14.016 H
252 2 0.0438454 0.499779 5.47108 14.7996 H
219 2 0.0301848 0.0473197 6.23434 9.17543 H
101 3 -0.73584 2.31125 0.513163 12.3515 O
12 4 1.41948 -3.4368 7.09936 15.1949 Si
129 3 -0.82981 2.98811 7.29694 16.5071 O
331 1 -0.0934488 -1.77156 3.93136 14.2165 C
1 4 1.0772 -5.33396 13.4274 1.61618 Si
19 4 1.50681 0.0819344 13.8203 1.94645 Si
14 4 0.715873 -2.21515 10.3056 7.77095 Si
15 4 1.32972 -3.70572 12.1752 5.81147 Si
327 1 -0.125867 -6.3033 12.4248 7.70031 C
34 4 1.15531 -1.05832 11.855 4.08693 Si
78 1 -0.121201 0.97428 7.22513 4.86251 C
85 1 -0.133199 -0.464264 10.4899 0.263639 C
262 2 0.0276268 -0.800515 10.9121 1.21712 H
72 1 -0.11249 -0.855554 9.49594 6.52538 C
71 1 -0.134038 -3.10873 8.5475 8.24175 C
84 1 -0.143422 -1.71695 9.92875 3.47608 C
142 3 -0.755423 1.7632 10.8204 6.74898 O
107 3 -0.725526 -6.06994 13.2896 3.07609 O
108 3 -0.735887 -4.92538 11.9217 1.17229 O
109 3 -0.844394 -5.05677 11.6922 5.02895 O
110 3 -0.755404 -3.31803 11.3929 7.18268 O
111 3 -0.725964 -4.12853 13.9222 6.49333 O
132 3 -0.657201 1.40845 8.03367 2.00063 O
134 3 -0.841568 -0.947265 12.8999 2.83993 O
135 3 -0.818164 -2.37454 12.3666 4.87003 O
263 2 0.0974618 -0.212681 9.43964 0.308946 H
141 3 -0.856454 0.309309 11.7154 4.93521 O
337 1 -0.117225 -3.78865 9.26097 0.508626 C
220 2 0.00675379 -3.35957 8.1762 7.19321 H
241 2 0.0521463 1.51265 8.17429 4.97066 H
208 2 0.0383959 -1.70586 8.28632 1.48592 H
67 1 -0.126609 -1.99546 7.30015 1.52083 C
210 2 0.0357905 -3.05433 7.1987 1.49181 H
223 2 0.0590223 -0.941353 10.0175 5.5845 H
224 2 0.00347151 -1.02328 8.45223 6.49469 H
225 2 0.105048 0.00071684 9.79729 7.09588 H
243 2 0.0325265 -0.0799242 7.30954 4.84183 H
261 2 0.0479773 -0.799751 9.3351 3.42313 H
329 2 0.0548683 -5.47267 11.7707 7.90961 H
259 2 0.027451 -2.18957 10.1762 2.54326 H
260 2 0.0181145 -2.43039 9.66898 4.21182 H
13 4 1.16065 -6.37142 12.0667 4.1097 Si
338 2 0.0324391 -3.81358 9.38216 1.56504 H
289 2 0.111784 -5.33305 10.2677 6.37959 H
35 4 1.15532 1.43553 11.5053 0.298296 Si
339 2 0.0232036 -2.82897 9.17589 0.0207445 H
358 2 0.119941 -2.70206 13.5355 1.9804 H
361 2 0.0900796 -4.51816 8.50938 0.213634 H
235 2 0.130784 -1.50528 14.0253 5.72023 H
139 3 -0.869187 -0.463806 13.1827 8.44526 O
264 2 0.0013444 1.46446 8.26406 8.54142 H
217 2 0.0185631 -0.217917 7.18079 7.59983 H
6 4 1.49298 -4.56728 13.7405 13.6637 Si
16 4 0.696722 -2.07474 9.19243 13.2614 Si
18 4 1.20452 -2.91881 11.737 11.853 Si
298 1 -0.124562 -2.95358 12.1584 15.9451 C
37 4 1.59034 -0.819789 12.1463 9.67928 Si
342 2 0.0512778 -0.0659059 12.4945 14.7329 H
356 3 -0.816754 -5.92025 12.9686 14.3064 O
301 2 0.0137935 -2.09496 12.1469 16.6806 H
74 1 -0.0883461 -0.593234 10.133 14.1619 C
75 1 -0.0943888 -4.44347 11.6003 10.3747 C
86 1 -0.101739 1.60584 9.19789 9.0449 C
112 3 -0.709177 -3.17122 8.62508 14.3411 O
113 3 -0.751754 -2.67783 10.1902 12.1606 O
114 3 -0.818135 -3.46591 12.6212 13.0612 O
222 2 0.0366088 -2.3696 7.95971 8.79783 H
221 2 0.0310274 -4.00923 8.72641 8.84617 H
138 3 -0.795461 -1.50568 10.8451 9.10281 O
140 3 -0.785033 -1.68961 12.4265 11.0592 O
144 3 -0.858009 1.76242 8.57617 14.4105 O
300 2 0.06559 -2.92772 11.4314 15.1248 H
146 3 -0.852587 0.675424 11.7088 10.3638 O
228 2 0.0474381 -0.912483 7.92812 11.295 H
265 2 0.116814 0.652145 9.81628 8.98349 H
147 3 -0.865968 1.97468 10.6973 12.577 O
73 1 -0.120458 -1.0459 7.63878 12.344 C
229 2 0.0293094 -1.13357 10.9995 14.4416 H
230 2 0.106351 0.146257 10.3193 13.3571 H
231 2 0.102739 -0.297584 9.45742 14.9523 H
232 2 0.0283708 -5.06375 10.827 10.7543 H
233 2 0.0965904 -3.8689 11.372 9.49522 H
234 2 0.10938 -4.93526 12.5665 10.354 H
302 2 0.0941612 -3.22732 13.1493 15.5772 H
362 2 0.0131381 -0.777837 11.2873 16.643 H
340 1 -0.104757 -0.460224 13.5033 14.7744 C
39 4 1.57597 2.73682 9.53971 13.5183 Si
266 2 0.0697416 2.16908 9.19346 9.94812 H
130 3 -0.773666 0.274091 7.72874 16.4907 O
31 4 1.2014 1.64979 7.53987 15.6661 Si
297 4 0.70823 -4.46264 11.4742 17.1372 Si
227 2 0.042194 -0.201592 7.42073 12.976 H
343 2 0.0909156 -1.5398 13.4693 14.6246 H
341 2 0.0882925 -0.218406 14.0107 15.711 H
148 3 -0.835875 0.919914 13.2672 12.3248 O
2 4 1.59665 14.1689 2.05996 3.85489 Si
214 2 0.0627213 13.0626 4.79165 5.77124 H
279 2 0.0121681 11.2286 6.3422 8.04057 H
280 2 0.0153235 12.6269 5.35548 7.52512 H
42 4 1.64696 9.1569 2.1787 3.66718 Si
46 4 1.59228 11.6799 1.98728 5.70147 Si
50 4 1.19894 10.4485 4.17744 1.64948 Si
52 4 0.770229 10.6282 3.9243 7.80294 Si
89 1 -0.112914 12.1413 4.74035 2.91364 C
90 1 -0.126905 9.58456 4.92895 6.44755 C
345 2 0.114814 14.432 1.64482 6.79879 H
322 2 0.0360949 5.60914 5.61436 4.81193 H
149 3 -0.844517 13.6758 0.665348 3.11339 O
150 3 -0.831522 8.66525 0.819573 2.97609 O
151 3 -0.872354 7.95934 2.66517 4.69609 O
153 3 -0.872249 11.9296 0.908261 1.13307 O
156 3 -0.880988 12.9765 2.58702 4.91819 O
157 3 -0.88753 10.4846 2.04199 4.6497 O
158 3 -0.762973 12.0433 0.436877 5.95197 O
165 3 -0.842516 9.41967 3.34126 2.59974 O
166 3 -0.835728 11.2336 3.30956 0.513338 O
168 3 -0.770271 9.72053 5.46418 0.978284 O
170 3 -0.813864 11.5438 2.81071 7.13479 O
273 2 0.0922487 12.0488 3.95614 3.69773 H
274 2 0.0934218 13.0531 4.66524 2.33774 H
275 2 0.00204493 10.0677 5.86232 6.2828 H
276 2 0.0631292 8.65607 4.8908 6.98182 H
277 2 0.0692666 9.61706 4.31617 5.53613 H
91 1 -0.139186 11.8397 5.51364 8.26779 C
306 1 -0.0979523 9.06051 6.75896 3.64996 C
118 3 -0.847222 7.54913 1.65943 7.30436 O
303 4 1.13284 5.96935 4.64738 1.22497 Si
304 4 0.313545 7.07096 6.55589 3.227 Si
344 1 -0.076116 14.636 0.761886 7.446 C
308 1 -0.092725 6.69226 5.64208 4.73855 C
317 2 0.0215354 9.01477 7.00392 4.71567 H
311 3 -0.655148 6.92181 5.7389 1.86985 O
316 2 0.0745041 9.47392 5.82958 3.44652 H
321 2 0.128191 7.10578 4.63984 4.52949 H
23 4 1.13158 7.04849 2.35682 5.9597 Si
323 2 0.0276262 7.19975 6.19681 5.52991 H
364 2 0.00260532 11.8798 5.73267 3.26847 H
309 3 -0.795012 6.67631 3.52063 0.243127 O
21 4 1.70785 8.22138 0.300065 7.87137 Si
213 2 0.0641193 13.7141 3.33691 8.11366 H
247 2 0.00197947 5.94251 5.94408 8.61875 H
346 2 0.0373486 14.4296 0.920078 8.51496 H
7 4 1.17814 14.4897 2.32328 15.494 Si
278 2 0.0411876 12.1909 5.3652 9.30364 H
24 4 1.27346 8.06319 0.51615 13.3245 Si
284 2 0.0500606 7.82489 6.45371 9.81579 H
333 2 0.0833135 13.3177 3.36914 13.5278 H
45 4 1.59388 9.09229 2.40257 9.89512 Si
167 3 -0.819247 11.1681 7.19485 16.3616 O
48 4 1.7085 9.61786 2.50885 15.1177 Si
49 4 1.22337 11.441 2.64179 11.8361 Si
51 4 1.19116 9.67794 6.789 16.9461 Si
53 4 1.4318 10.5148 5.05783 13.4665 Si
54 4 1.6447 6.99643 6.93719 15.269 Si
80 1 -0.100601 6.17405 4.94934 8.92554 C
88 1 -0.125314 12.8286 2.60318 10.3138 C
169 3 -0.810082 9.60782 3.655 8.99629 O
93 1 -0.108905 8.85959 6.66842 9.90755 C
204 2 0.0633511 15.1437 1.40003 11.8567 H
152 3 -0.836269 13.4774 2.61179 16.685 O
154 3 -0.826266 9.10818 1.01191 9.0286 O
155 3 -0.847384 7.5365 2.81533 10.4285 O
159 3 -0.738465 13.9267 0.98384 14.6975 O
160 3 -0.786176 9.25639 1.51087 13.8892 O
161 3 -0.884824 10.8776 2.0358 16.0126 O
162 3 -0.866392 8.36745 2.3056 16.1678 O
163 3 -0.783287 10.0891 2.05514 11.1261 O
164 3 -0.867478 12.1436 1.75315 12.9551 O
248 2 0.114765 7.20529 4.59826 8.75074 H
256 2 0.00877943 5.9193 7.10466 10.4087 H
171 3 -0.818509 9.78832 4.00119 14.4872 O
172 3 -0.829722 11.2152 4.16162 12.259 O
173 3 -0.857954 11.6637 6.01458 14.0862 O
174 3 -0.85465 6.29972 5.66996 14.5742 O
175 3 -0.768784 8.43719 6.42433 15.8742 O
177 3 -0.637298 9.08075 5.97228 12.6295 O
285 2 0.0907304 9.51401 5.78765 9.82716 H
332 2 0.14421 13.3877 4.61712 14.9173 H
270 2 0.0701186 12.1954 2.91651 9.49436 H
271 2 0.0623842 13.2003 1.53713 10.377 H
272 2 0.0141502 13.5113 3.32487 10.692 H
20 4 1.69281 6.9729 2.45135 17.0009 Si
43 4 1.76074 11.9597 2.36642 17.1855 Si
47 4 1.54179 12.7266 0.381756 13.5914 Si
249 2 0.0727207 5.71205 4.71336 9.8838 H
257 2 0.109886 6.65107 6.91533 12.0413 H
28 4 1.56855 4.45993 7.34908 17.1951 Si
137 3 -0.779917 1.08416 12.9083 1.01351 O
268 2 0.0851427 4.82246 9.37934 6.43704 H
87 1 -0.114654 3.8808 8.89326 6.68246 C
44 4 1.18076 5.3951 13.4985 7.07077 Si
56 4 1.72029 4.03956 11.3452 3.67693 Si
58 4 0.300346 8.05512 9.44071 7.09454 Si
60 4 1.54458 6.6889 11.43 5.35203 Si
315 2 0.032792 9.53564 7.54215 3.09558 H
348 2 0.025995 9.15272 8.13474 1.48095 H
95 1 -0.102219 10.1083 9.43183 6.99591 C
133 3 -0.830353 4.05555 8.14981 1.02072 O
366 2 0.026161 10.6173 9.50967 7.96475 H
363 2 0.0860734 7.87307 14.0332 7.16488 H
143 3 -0.878796 1.4076 13.349 6.74044 O
178 3 -0.855308 3.51252 9.855 3.23294 O
179 3 -0.880165 4.31699 12.5525 2.65694 O
180 3 -0.863216 3.04711 11.9627 4.78614 O
136 3 -0.784036 2.45552 10.5348 1.07312 O
185 3 -0.818013 7.95256 12.3246 4.85082 O
186 3 -0.900173 5.54279 11.1571 4.24121 O
187 3 -0.739534 7.41578 10.0469 5.70224 O
188 3 -0.845631 5.9944 12.0854 6.71343 O
330 2 0.0857691 8.94055 12.4182 6.71304 H
290 2 0.0262503 10.1637 8.46981 6.47407 H
292 2 0.112745 7.0402 11.4582 8.397 H
360 2 0.047164 10.0771 9.71198 3.64715 H
307 1 -0.0741735 6.04059 8.31826 3.43777 C
36 4 0.783594 2.75386 10.1637 7.77864 Si
288 2 0.0207788 6.73278 7.67134 8.45287 H
318 2 0.0715604 6.76913 9.06197 3.47449 H
319 2 0.0517258 5.57232 8.13707 4.38422 H
320 2 0.113991 5.29331 8.37645 2.61494 H
41 4 1.72184 5.23582 13.7128 2.02756 Si
357 3 -0.818869 6.20688 13.0459 0.90637 O
334 1 -0.116538 9.24196 10.2039 3.15396 C
335 2 0.0839608 9.37093 10.4382 2.09111 H
336 2 0.0437009 8.34774 9.83042 3.50275 H
287 2 0.0416365 6.79813 7.46239 6.60429 H
328 2 0.0147959 8.83146 12.6194 8.59106 H
38 4 1.65069 1.67422 12.1216 5.68623 Si
351 1 -0.0797733 6.3969 10.1669 0.873855 C
352 2 0.0388803 7.33777 10.4282 1.3133 H
267 2 0.00362074 4.06463 8.09282 7.37469 H
354 2 0.0874573 5.55772 10.3224 1.56928 H
94 1 -0.125203 7.36261 7.63609 7.55433 C
347 1 -0.107726 8.65506 8.00496 0.514869 C
183 3 -0.752237 4.68951 13.4988 8.48438 O
33 4 1.29302 2.90928 9.16513 1.80002 Si
349 2 0.0885057 7.61929 7.66081 0.509529 H
269 2 0.0515282 3.29638 8.64708 5.81149 H
353 2 0.111076 6.30122 9.22151 0.270162 H
286 2 0.019429 8.31764 7.1644 7.71405 H
17 4 1.43157 8.9812 11.8184 15.1632 Si
295 2 0.0168665 8.62669 11.481 10.9215 H
294 2 0.0604747 8.36182 13.3 10.9518 H
145 3 -0.765095 3.64824 8.46241 12.6875 O
59 4 1.50909 4.21066 12.2746 9.6826 Si
61 4 1.52545 7.66872 9.45714 13.3274 Si
62 4 1.58469 3.7852 11.9481 15.2836 Si
63 4 1.15942 6.37498 11.9298 11.9136 Si
176 3 -0.822109 5.88975 7.54842 16.3104 O
92 1 -0.0965421 11.1306 7.90352 11.7815 C
96 1 -0.0777077 7.27926 10.4282 8.74254 C
97 1 -0.0909753 8.38815 12.3596 11.4805 C
281 2 0.101965 11.0949 8.98581 11.8946 H
350 2 0.0874451 9.0987 9.13036 16.9964 H
181 3 -0.741561 7.50376 12.2994 15.7833 O
57 4 1.23389 6.37402 12.3494 16.984 Si
184 3 -0.80611 3.06755 12.4548 10.8549 O
189 3 -0.830239 7.22615 8.37228 14.4463 O
190 3 -0.809434 8.30387 8.60299 12.1218 O
191 3 -0.785497 8.7404 10.508 14.0724 O
192 3 -0.812931 3.63112 10.5346 14.4776 O
193 3 -0.830436 4.92988 11.953 16.3769 O
194 3 -0.806188 4.0761 13.2217 14.3369 O
195 3 -0.730348 2.1195 12.189 16.0002 O
196 3 -0.806529 5.60848 11.8051 10.4603 O
197 3 -0.767158 6.49299 10.5488 12.795 O
198 3 -0.818864 6.05463 13.3563 12.6008 O
293 2 0.026015 8.05388 10.3607 9.50096 H
55 4 0.696117 9.23293 7.33351 11.7861 Si
258 2 0.114564 5.88015 8.56067 11.5252 H
291 2 0.0828094 6.36047 9.86708 8.94536 H
83 1 -0.086165 5.93737 7.43765 11.4243 C
282 2 0.0212273 11.638 7.51223 10.8989 H
296 2 0.130679 8.96383 12.4077 12.36 H
283 2 0.000680085 9.18542 7.57239 9.33893 H
299 3 -0.724961 9.7954 11.201 16.5067 O
182 3 -0.752046 3.69197 11.107 8.70955 O
365 2 0.10717 11.445 7.3877 12.6891 H
40 4 1.65612 1.63595 12.0282 11.5775 Si
ITEM: TIMESTEP
100
ITEM: NUMBER OF ATOMS
366
ITEM: BOX BOUNDS xy xz yz pp pp pp
-7.5839999999999996e+00 1.5901800000000000e+01 -7.5839999999999996e+00
0.0000000000000000e+00 1.4654680000000001e+01 1.7780000000000001e-01
0.0000000000000000e+00 1.7246500000000001e+01 7.5158000000000058e-01
ITEM: ATOMS id type q x y z element
218 2 0.0321423 1.03875 6.80968 6.97684 H
5 4 1.03041 0.946049 2.41988 5.70126 Si
9 4 1.49529 -0.0595729 4.10054 1.71625 Si
11 4 0.312704 -0.504029 4.75689 6.54964 Si
27 4 0.74589 1.4577 6.69916 2.91425 Si
29 4 0.731396 5.12548 4.04753 7.67339 Si
64 1 -0.0767474 2.47651 2.1185 4.21333 C
69 1 -0.0948664 -1.99416 5.38487 5.21 C
70 1 -0.111248 0.330441 6.37406 7.60547 C
76 1 -0.0804524 5.67145 0.963131 5.09952 C
77 1 -0.114681 3.40014 6.23599 3.55072 C
79 1 -0.117732 3.61575 5.34945 7.02176 C
98 3 -0.849771 -0.315392 1.93648 4.76434 O
99 3 -0.712142 1.39197 1.68283 7.15881 O
102 3 -0.878385 -1.19432 3.46743 2.83153 O
103 3 -0.820304 1.01914 3.02413 1.05108 O
104 3 -0.772725 -0.679001 4.89411 0.426334 O
105 3 -0.636343 0.828789 4.06692 5.84229 O
68 1 -0.113335 -1.292 3.86324 8.23221 C
124 3 -0.739751 0.762824 5.31412 2.46766 O
125 3 -0.696863 4.32253 2.76082 8.23336 O
199 2 0.107359 2.63377 1.06298 4.31969 H
200 2 0.0322958 3.38991 2.65369 4.41246 H
201 2 0.0933593 1.9457 2.46677 3.33936 H
246 2 0.0107995 4.01335 6.25092 6.55884 H
355 3 -0.785095 1.34828 0.466863 0.448676 O
115 3 -0.894244 6.99556 1.06555 0.959391 O
216 2 0.0099436 -2.10998 6.44163 5.30434 H
242 2 0.056975 1.3349 6.34406 5.35734 H
215 2 0.109533 -1.65411 5.07394 4.24001 H
324 1 -0.0895574 4.05901 0.430117 1.85916 C
236 2 0.0587073 6.15991 0.757925 4.16008 H
237 2 0.0650755 4.70235 1.4176 5.02106 H
238 2 0.107726 3.88316 5.88472 2.60228 H
239 2 0.0312469 3.36379 5.50508 4.30391 H
244 2 0.0262448 3.17672 5.66052 7.95329 H
310 3 -0.758584 4.5133 5.44951 0.849305 O
245 2 0.0959221 3.00913 4.66804 6.39162 H
314 2 0.0208495 4.89401 4.0059 3.72335 H
305 1 -0.132045 4.9793 3.37941 2.8358 C
126 3 -0.762888 5.99207 3.6553 6.44683 O
325 2 0.0251655 4.05126 1.26811 2.53487 H
313 2 0.063108 4.04765 3.26863 2.30336 H
209 2 0.0486003 -1.55642 6.78478 2.23799 H
326 2 0.105688 4.43694 0.702897 0.873609 H
4 4 1.00634 2.3233 0.335361 7.58069 Si
312 2 0.0394235 5.52356 2.44945 2.88516 H
217 2 0.0149922 -0.473791 7.00066 7.91957 H
212 2 0.0675272 -0.464665 3.20572 8.40789 H
219 2 0.0493328 0.8205 5.73499 8.37665 H
235 2 0.117368 5.74743 0.188204 5.83137 H
3 4 1.60497 1.40526 2.34997 17.0374 Si
8 4 0.738634 1.87679 2.04238 11.7495 Si
10 4 1.12465 -0.969108 6.76755 16.9588 Si
22 4 1.32969 4.02905 1.93385 9.68809 Si
25 4 1.60115 4.13113 2.16166 15.3198 Si
26 4 1.64705 6.52099 2.50586 11.6185 Si
30 4 1.62151 5.41354 4.65461 13.6376 Si
20 4 1.60364 6.79364 2.47719 16.9585 Si
65 1 -0.135309 -0.093069 1.95064 11.2418 C
66 1 -0.0953432 1.8129 3.41534 13.2598 C
226 2 0.0436845 -1.72074 7.22586 11.628 H
81 1 -0.105008 1.33757 5.71779 14.5208 C
82 1 -0.118028 2.98695 6.36514 10.689 C
100 3 -0.854875 0.247574 2.41582 15.8812 O
32 4 0.737025 4.18203 7.06547 12.1853 Si
106 3 -0.820898 -2.13664 6.56537 15.9116 O
359 2 0.00161837 -0.778602 3.72674 13.3279 H
117 3 -0.722309 2.90618 2.64578 10.6595 O
119 3 -0.911414 3.5367 0.822288 14.6074 O
120 3 -0.91795 5.41908 1.88562 16.2705 O
121 3 -0.833347 2.82793 2.60223 16.2633 O
122 3 -0.809083 5.30876 1.89283 10.7458 O
123 3 -0.828684 7.06775 1.40022 12.7008 O
127 3 -0.873539 4.50302 3.5117 14.4448 O
131 3 -0.778997 4.30637 5.73679 13.1051 O
211 2 0.0202656 -1.42873 4.64529 8.96575 H
203 2 0.0103752 -0.475618 2.97955 11.0588 H
331 1 -0.112208 -1.63895 3.86022 14.0358 C
205 2 0.132729 2.80048 3.66147 13.4533 H
206 2 0.0976746 1.31301 2.86314 14.0948 H
207 2 0.00792015 1.17389 4.17154 12.8414 H
254 2 0.0121272 3.25539 6.88304 9.78079 H
202 2 0.0437953 0.0337616 1.33014 10.3689 H
255 2 0.0371761 2.0142 6.6677 11.1264 H
116 3 -0.666729 3.11948 0.303974 9.00596 O
253 2 0.0777169 3.13088 5.27711 10.6699 H
250 2 0.102367 1.7025 4.9455 15.2105 H
251 2 0.0598143 1.81533 5.87083 13.5716 H
252 2 0.0251259 0.287148 5.8346 14.4836 H
227 2 0.0343301 -0.670403 6.98304 13.0907 H
101 3 -0.762029 2.3227 0.611656 12.2569 O
249 2 0.0868577 5.67092 4.38893 10.1427 H
129 3 -0.800716 3.09744 7.27835 16.3368 O
332 2 0.0987781 -1.62969 4.80181 14.5627 H
1 4 1.05903 -5.46054 13.4665 1.63277 Si
19 4 1.59274 0.183497 13.8564 1.85635 Si
14 4 0.751916 -2.22471 10.2312 7.76396 Si
15 4 1.36686 -3.60333 12.2594 5.81353 Si
327 1 -0.114632 -6.54386 12.5825 7.91143 C
34 4 1.12828 -1.04523 11.9265 3.90247 Si
78 1 -0.118046 0.828657 7.11778 4.78026 C
85 1 -0.114376 -0.150277 10.2517 0.173038 C
262 2 0.0467892 -0.569644 10.1616 1.14044 H
72 1 -0.116636 -0.855304 9.47621 6.4403 C
71 1 -0.127326 -2.95318 8.39212 8.36315 C
84 1 -0.126358 -1.6943 9.99265 3.37359 C
142 3 -0.775143 1.79365 10.945 6.92107 O
107 3 -0.759444 -6.03923 13.3391 3.17312 O
108 3 -0.746014 -4.91285 11.9797 1.24082 O
109 3 -0.820678 -5.02628 11.795 5.18713 O
110 3 -0.753794 -3.3532 11.067 7.03047 O
111 3 -0.707527 -4.16031 13.8967 6.36364 O
132 3 -0.679312 1.34012 8.07504 2.12346 O
134 3 -0.835947 -0.854974 12.7272 2.45364 O
135 3 -0.852159 -2.3741 12.3236 4.78035 O
139 3 -0.839574 -0.518167 13.2143 8.58317 O
141 3 -0.786091 0.333265 11.8287 4.70939 O
337 1 -0.112608 -3.9302 9.35487 0.420307 C
220 2 0.011331 -3.04416 7.76331 7.48674 H
241 2 0.043588 1.22841 8.13166 4.90512 H
208 2 0.0491222 -1.45944 8.29576 1.22604 H
67 1 -0.124012 -1.89289 7.30965 1.41227 C
210 2 0.0191936 -2.92134 7.18311 1.19313 H
223 2 0.0786748 -0.709658 10.2285 5.71913 H
224 2 0.00151623 -1.4605 8.65052 6.10943 H
225 2 0.0614902 0.044831 9.28324 6.96972 H
243 2 0.0353062 -0.300824 7.08191 4.8022 H
261 2 0.0577131 -0.811791 9.37182 3.25138 H
329 2 0.0410146 -5.90214 11.8304 8.33896 H
259 2 0.0379009 -2.20535 10.1833 2.44574 H
260 2 0.0294292 -2.31484 9.68909 4.20825 H
13 4 1.15551 -6.30121 12.1756 4.22111 Si
338 2 0.031573 -4.20796 9.16686 1.44642 H
339 2 0.0137652 -2.91885 9.60544 0.238197 H
35 4 1.26244 1.53239 11.4942 0.24682 Si
33 4 1.32282 2.86537 9.16008 1.89907 Si
358 2 0.106121 -2.92452 13.5004 2.25551 H
240 2 0.0251775 3.67245 7.26314 3.92781 H
269 2 0.0291289 3.30359 8.37082 5.9855 H
6 4 1.54757 -4.63063 13.6573 13.5671 Si
16 4 0.719031 -2.01776 9.18845 13.3238 Si
18 4 1.11024 -2.88535 11.652 11.8146 Si
298 1 -0.0989404 -3.21514 12.2839 15.9787 C
37 4 1.50342 -0.696877 11.9642 9.68665 Si
342 2 0.0617126 0.167124 13.0133 15.4018 H
356 3 -0.87065 -5.85561 12.8471 14.2963 O
301 2 0.0169006 -2.29415 12.1077 16.5129 H
74 1 -0.0805324 -0.508823 10.2417 14.1092 C
75 1 -0.0940794 -4.36499 11.5612 10.3928 C
86 1 -0.0956731 1.76803 8.96602 9.15549 C
112 3 -0.7307 -3.00226 8.59005 14.4913 O
113 3 -0.742122 -2.65597 10.1039 12.1886 O
114 3 -0.803516 -3.5234 12.4931 13.098 O
222 2 0.046908 -2.13238 8.13352 9.02671 H
221 2 0.0344629 -3.81016 8.79089 8.87919 H
138 3 -0.795815 -1.45745 10.6966 9.10083 O
140 3 -0.740801 -1.66545 12.4035 11.0122 O
144 3 -0.797283 1.69691 8.73143 14.5486 O
300 2 0.106042 -3.34425 11.7155 15.0308 H
146 3 -0.834968 0.763856 11.4152 10.3684 O
228 2 0.0548737 -0.291688 8.21138 11.7811 H
265 2 0.0885913 0.692603 9.14853 9.11757 H
147 3 -0.846821 1.95211 10.5309 12.5192 O
73 1 -0.113011 -1.01159 7.66634 12.3325 C
229 2 0.0280935 -1.03786 11.128 14.468 H
230 2 0.132222 0.23164 10.4431 13.2733 H
231 2 0.102183 -0.239506 9.55256 14.9352 H
232 2 0.0362166 -5.26202 11.3793 11.0057 H
233 2 0.0554303 -4.01853 10.6827 9.83606 H
234 2 0.13901 -4.33979 12.5342 9.91393 H
302 2 0.115816 -3.46107 13.3558 15.95 H
362 2 0.00559915 -0.534797 11.3125 16.6993 H
340 1 -0.105135 -0.479275 13.5521 14.7505 C
39 4 1.48519 2.81122 9.56402 13.5808 Si
266 2 0.1094 2.21547 9.24932 10.1411 H
130 3 -0.768577 0.328249 7.64356 16.5512 O
31 4 1.1218 1.66907 7.44879 15.6026 Si
297 4 0.721103 -4.63214 11.5575 17.1485 Si
264 2 0.00238907 2.00192 7.94279 8.91739 H
343 2 0.0521949 -1.03045 12.8311 14.189 H
361 2 0.096739 -4.14956 9.10096 16.9837 H
263 2 0.124711 0.304028 9.71606 17.0693 H
281 2 0.106015 -4.58859 8.99533 11.8894 H
341 2 0.108452 -1.12384 14.2727 15.2571 H
2 4 1.69106 14.202 2.189 3.77999 Si
214 2 0.0450227 12.8165 4.89184 5.53823 H
279 2 0.0142523 11.1246 6.30715 8.31038 H
280 2 0.0101359 12.6221 5.5165 7.60415 H
42 4 1.59379 9.12761 2.18077 3.75174 Si
46 4 1.64317 11.7081 1.98909 5.6471 Si
50 4 1.32597 10.3739 4.13508 1.61424 Si
52 4 0.788197 10.5709 3.95427 7.66929 Si
89 1 -0.121209 11.9338 5.031 2.76949 C
90 1 -0.116807 9.45413 4.81365 6.27933 C
345 2 0.0587312 14.1955 1.82007 6.93078 H
322 2 0.0373808 5.52435 5.43211 4.86411 H
149 3 -0.845366 13.7027 0.863572 2.97212 O
150 3 -0.830956 8.55027 0.744964 3.02499 O
151 3 -0.838965 7.96266 2.83511 4.81791 O
153 3 -0.83054 11.7797 0.907262 1.20328 O
156 3 -0.920689 12.8846 2.5404 4.67953 O
157 3 -0.856573 10.3915 1.95221 4.71542 O
158 3 -0.788441 12.1374 0.458398 6.10592 O
165 3 -0.864218 9.52055 3.30369 2.66816 O
166 3 -0.893375 11.0961 3.28798 0.507265 O
168 3 -0.8302 9.6012 5.41434 1.06429 O
170 3 -0.842306 11.4186 2.80187 7.00103 O
273 2 0.0934296 12.1751 4.31533 3.51486 H
274 2 0.066112 12.7084 5.1451 2.04173 H
275 2 -0.00748479 9.89931 5.82213 6.27184 H
276 2 0.0806822 8.37561 4.69958 6.47579 H
277 2 0.0791548 9.73382 4.27661 5.40658 H
91 1 -0.137433 11.8362 5.45705 8.32218 C
306 1 -0.105042 9.14525 6.87753 3.83721 C
118 3 -0.818881 7.52415 1.66797 7.18798 O
303 4 1.11529 5.87306 4.65462 1.38804 Si
304 4 0.2931 7.0931 6.56642 3.42587 Si
344 1 -0.0978476 14.5755 0.890063 7.27944 C
308 1 -0.0895111 6.6031 5.4962 4.80331 C
363 2 0.110797 15.0661 0.328452 6.45901 H
311 3 -0.622439 6.79178 5.85532 1.99759 O
316 2 0.0530659 9.51453 5.87753 4.02146 H
321 2 0.138016 7.1194 4.54614 4.6944 H
23 4 1.15982 6.89241 2.40214 5.93194 Si
323 2 0.0290139 6.94819 5.97096 5.7524 H
364 2 0.0076181 11.5789 5.92801 3.24203 H
309 3 -0.766985 6.48221 3.60701 0.334093 O
21 4 1.60759 8.14258 0.325476 7.87889 Si
213 2 0.0596948 13.5436 3.31854 7.88405 H
286 2 0.0200693 7.91674 6.82073 7.51585 H
346 2 0.0381705 14.9826 0.85304 8.2625 H
28 4 1.5005 4.19841 6.90422 0.102307 Si
7 4 1.29002 14.4394 2.3573 15.4821 Si
278 2 0.0469947 12.0866 5.1789 9.31841 H
24 4 1.29661 8.19714 0.451055 13.3471 Si
284 2 0.0330794 7.95295 6.8273 9.96503 H
333 2 0.110423 13.1535 3.63765 13.5442 H
45 4 1.6019 9.18989 2.42819 9.87379 Si
167 3 -0.863657 10.9106 7.2741 16.1767 O
48 4 1.71205 9.52593 2.44619 15.2555 Si
49 4 1.1751 11.4586 2.62614 11.8723 Si
51 4 1.26259 9.59849 6.82369 17.063 Si
53 4 1.48609 10.5021 5.0097 13.5393 Si
54 4 1.68205 6.86883 6.90137 15.3215 Si
80 1 -0.104665 6.16385 4.80211 9.24876 C
88 1 -0.125868 12.6231 2.40675 10.2 C
169 3 -0.832342 9.72208 3.65632 8.9954 O
93 1 -0.126587 9.04241 6.7629 10.0214 C
204 2 0.0532233 15.0944 1.49671 12.0046 H
152 3 -0.889447 13.4468 2.63143 16.6693 O
154 3 -0.811854 9.04613 1.00727 9.0547 O
155 3 -0.83161 7.78572 2.82129 10.5447 O
159 3 -0.779728 14.0329 1.02718 14.6906 O
160 3 -0.789514 9.33472 1.30346 14.0949 O
161 3 -0.867775 10.8687 2.02152 16.042 O
162 3 -0.896558 8.08468 2.4131 15.966 O
163 3 -0.749273 9.94557 2.24496 11.3417 O
164 3 -0.844475 12.1694 1.67934 12.9249 O
248 2 0.114935 7.13261 4.38851 9.11701 H
256 2 0.00704701 5.69891 7.20551 10.1538 H
171 3 -0.824398 10.0045 3.91131 14.6339 O
172 3 -0.814506 11.355 4.16042 12.3997 O
173 3 -0.840338 11.6056 6.14967 14.0179 O
174 3 -0.874384 6.377 5.59763 14.4849 O
175 3 -0.771055 8.34195 6.61529 16.0727 O
177 3 -0.673582 9.23141 6.12833 12.998 O
285 2 0.0898245 9.36981 5.75484 10.0005 H
247 2 0.00188409 6.10478 5.88053 9.12762 H
270 2 0.077542 11.8442 2.57047 9.44023 H
271 2 0.0883747 12.9183 1.35851 10.2855 H
272 2 0.0134145 13.4361 3.1701 10.2839 H
128 3 -0.894606 6.10778 3.89386 12.3384 O
43 4 1.74199 11.9519 2.42647 17.1723 Si
12 4 1.49478 12.1328 7.13636 15.2013 Si
257 2 0.0864253 6.62609 6.81205 11.753 H
137 3 -0.805214 1.13535 12.8891 0.875298 O
268 2 0.0929235 4.7955 9.38244 6.49225 H
87 1 -0.115577 3.9471 8.76434 6.76536 C
44 4 1.18288 5.39039 13.5579 7.19508 Si
56 4 1.65189 4.08427 11.4245 3.73369 Si
58 4 0.30283 7.99639 9.34899 7.04325 Si
60 4 1.51499 6.72353 11.468 5.35685 Si
315 2 0.0426666 9.5195 7.31806 2.94807 H
348 2 0.0219511 9.86485 8.4711 1.14613 H
95 1 -0.0840123 10.1039 9.38941 6.93217 C
133 3 -0.82534 4.05464 8.10297 1.3235 O
366 2 0.0336082 10.2374 9.72865 7.92961 H
353 2 0.0845976 6.38921 9.36395 0.60437 H
143 3 -0.798703 1.40133 13.541 6.6296 O
178 3 -0.823275 3.38305 9.99499 3.25251 O
179 3 -0.829302 4.43137 12.5093 2.5538 O
180 3 -0.819658 3.03075 11.9911 4.84711 O
136 3 -0.789352 2.48839 10.4119 0.947931 O
185 3 -0.816745 8.03846 12.4301 5.03477 O
186 3 -0.891539 5.58143 11.1017 4.2289 O
187 3 -0.740063 7.40061 10.0666 5.70282 O
188 3 -0.820487 5.94403 12.1494 6.6043 O
330 2 0.0979111 8.75607 12.435 6.92252 H
290 2 0.0219411 10.5126 8.42973 6.70238 H
292 2 0.0864406 7.20474 11.2642 8.50669 H
360 2 0.0422708 10.1718 9.85701 3.34668 H
307 1 -0.0658555 5.94484 8.24402 3.60314 C
36 4 0.741521 2.82975 10.1009 7.82046 Si
288 2 0.0187915 6.55366 7.87413 8.16501 H
318 2 0.081766 6.64927 9.09117 3.49919 H
319 2 0.0553765 5.44703 8.23285 4.55917 H
320 2 0.137936 5.30478 8.11312 2.70186 H
41 4 1.6159 5.22567 13.8159 1.91104 Si
357 3 -0.78593 6.14712 13.1526 0.675108 O
334 1 -0.120427 9.29456 10.3953 3.17414 C
335 2 0.0722966 9.28727 10.7141 2.1827 H
336 2 0.0429193 8.38026 9.88784 3.56013 H
287 2 0.0297241 6.48041 7.26585 6.4695 H
349 2 0.0592929 8.22637 7.83116 1.44119 H
38 4 1.52771 1.68626 12.1078 5.78574 Si
351 1 -0.107069 6.58338 10.2943 1.0797 C
352 2 0.038727 7.63254 10.6106 1.26735 H
267 2 0.0112273 4.2543 8.0268 7.50654 H
354 2 0.0847067 6.02567 10.4501 1.96807 H
94 1 -0.126393 7.10662 7.52851 7.32077 C
347 1 -0.106805 8.94081 8.1571 0.712203 C
317 2 0.0271337 9.13719 7.5581 4.64384 H
289 2 0.137549 10.3162 10.1071 6.14193 H
328 2 0.0186668 8.4632 12.9456 8.6049 H
17 4 1.56739 8.8257 11.8433 15.067 Si
295 2 0.0237578 8.92234 11.5251 10.7366 H
294 2 0.0526411 8.54767 13.2986 10.8699 H
365 2 0.1084 11.8369 7.34662 12.3255 H
59 4 1.39491 4.38615 12.0148 9.7615 Si
61 4 1.5384 7.56339 9.43857 13.4904 Si
62 4 1.74053 3.76623 12.0141 15.2747 Si
63 4 1.16378 6.60653 11.9449 11.936 Si
176 3 -0.800975 5.84837 7.37467 16.5542 O
92 1 -0.0860625 11.1761 7.91533 11.6736 C
96 1 -0.0691253 7.18329 10.2004 8.72774 C
97 1 -0.119772 8.58809 12.3542 11.3379 C
40 4 1.60519 1.76279 11.8765 11.5497 Si
350 2 0.10335 8.75597 9.24648 17.1374 H