ITEM: TIMESTEP
0
ITEM: NUMBER OF ATOMS
386
ITEM: BOX BOUNDS xy xz yz pp pp pp
-7.6535000000000002e+00 1.6722200000000001e+01 -7.3464000000000000e+00
-1.7999999999999999e-02 1.3589000000000000e+01 -3.0709999999999998e-01
0.0000000000000000e+00 1.7316099999999999e+01 -1.7999999999999999e-02
ITEM: ATOMS id type q x y z element
1 4 0.764488 0.0284669 0.789418 3.14513 Si
2 2 0.00984423 1.14839 1.2231 1.9815 H
87 2 0.0323043 1.77928 1.22399 8.3553 H
4 2 0.0254861 -0.531183 3.09464 4.0539 H
5 2 0.00326012 1.14476 2.51859 4.45229 H
6 1 -0.128788 0.0820474 2.31395 4.49808 C
10 4 0.278886 -0.752033 3.39018 7.61681 Si
11 2 0.0615789 0.836961 3.19468 6.97655 H
12 2 0.0133322 -1.48454 4.12822 6.16878 H
130 2 0.0310764 1.06057 4.8801 3.41459 H
134 2 0.0774785 0.694512 6.31789 7.97248 H
200 1 -0.128832 1.07822 5.01711 4.47392 C
325 2 0.0434808 -1.20759 4.9339 0.542019 H
327 1 -0.0696045 -0.943405 3.98225 0.945623 C
129 2 0.0638167 1.83511 4.46195 4.95025 H
326 2 0.0280551 -0.224018 4.02293 1.77422 H
201 1 -0.0872432 1.69768 5.85489 7.99676 C
110 2 0.028786 -2.29057 6.43174 4.82704 H
379 1 -0.147126 -2.86365 6.18821 1.98311 C
132 2 0.040668 1.75458 4.84477 8.44323 H
377 2 0.021321 -2.43409 6.54077 1.07761 H
131 2 0.0186041 0.11919 4.9882 4.94922 H
3 2 0.0771133 -0.264532 2.02804 5.47148 H
378 2 0.0273892 -2.22288 5.55251 2.57888 H
92 2 0.00878306 0.73398 6.1831 0.0899064 H
324 2 0.11106 -1.75745 3.28216 1.127 H
127 2 0.0580508 5.47359 4.49346 3.91867 H
128 2 0.0488755 3.83796 4.51911 3.10422 H
43 4 1.02777 4.93825 4.31397 6.9813 Si
36 4 0.130537 3.23753 2.20403 8.38157 Si
321 2 0.0564772 2.31447 3.32566 0.669459 H
90 2 0.245102 3.30345 2.69509 6.20417 H
237 3 -0.746609 6.04209 3.80349 5.95334 O
196 1 -0.0866567 4.63841 0.687105 8.24846 C
366 2 0.0835764 5.48032 1.23809 7.81299 H
118 2 0.0392605 3.97161 1.50206 1.35907 H
117 2 0.0120424 3.28641 2.86671 2.36874 H
126 2 0.0756349 4.696 6.02624 3.58885 H
133 2 0.118054 2.3019 5.99991 7.12442 H
238 3 -0.806113 3.2888 6.68129 5.19718 O
362 2 0.0302906 6.35151 0.968545 0.835599 H
239 3 -0.784768 4.98492 5.89671 6.96821 O
195 1 -0.12152 4.1145 2.2447 2.14815 C
236 3 -0.645257 3.0537 3.473 6.8808 O
235 3 -0.682631 4.84195 4.85819 0.260227 O
231 3 -0.683134 4.93071 1.39447 5.05639 O
199 1 -0.0995236 4.75326 4.99869 3.28243 C
34 4 0.578652 3.78973 1.141 3.90799 Si
37 4 0.623685 6.19342 2.38945 5.21905 Si
357 2 0.0488797 5.12329 2.66304 2.2341 H
246 3 -0.77553 2.78026 6.28375 1.15547 O
367 2 0.0691845 7.79586 0.683741 6.31622 H
7 4 0.121281 -0.194064 3.11747 16.7169 Si
15 2 0.0302042 -1.67089 4.01741 9.94448 H
16 1 -0.0949422 -1.01844 4.58491 9.27255 C
26 4 0.651722 -0.434791 3.97854 14.5395 Si
85 2 -0.00442967 0.811095 3.56841 13.4278 H
241 3 -0.697089 -0.296277 5.56273 14.8995 O
14 2 0.0226106 -0.0313414 4.77489 9.70267 H
323 1 -0.0642359 1.87289 2.73091 17.1015 C
339 2 0.0198187 2.10305 2.21537 14.2149 H
47 4 0.803093 0.781104 6.42559 15.7507 Si
125 2 0.019436 2.0235 2.49747 10.4557 H
375 2 0.0523615 -1.8954 3.38114 11.9065 H
335 2 0.0216313 -0.128461 1.06022 13.1849 H
223 3 -0.757463 -1.7593 3.06903 14.2171 O
13 2 0.112294 -1.49852 5.48628 8.86932 H
320 2 0.0976412 1.83129 1.63988 17.1417 H
9 3 -0.61235 -1.00929 1.32149 16.2993 O
336 1 -0.0713476 -0.222554 0.0496622 13.5217 C
120 2 0.0478283 4.78611 0.350509 9.24616 H
135 2 0.0486586 5.62355 2.59514 15.111 H
136 2 0.0792377 4.37895 3.94724 15.084 H
244 3 -0.754125 5.16528 5.47859 12.7092 O
95 2 0.350587 6.25433 2.43294 9.57595 H
42 4 0.783764 3.38294 5.91875 17.189 Si
365 1 -0.136873 6.06382 1.62539 17.3058 C
124 2 0.0548593 3.83087 2.8027 10.7908 H
272 3 -0.679145 5.37336 4.00616 9.03668 O
368 2 0.011606 2.36763 0.36822 11.0912 H
242 3 -0.680972 2.39135 5.36027 15.4213 O
198 1 -0.0861814 2.92776 3.02991 10.2402 C
89 2 0.29086 4.52024 4.67304 9.40909 H
337 2 0.0186412 3.24587 1.30102 13.2163 H
159 2 0.0235891 5.04285 0.573912 15.2093 H
322 2 0.0774964 2.30662 3.14067 16.2123 H
98 2 0.28083 5.64868 2.03271 12.515 H
8 2 0.251678 2.88607 5.9763 14.7943 H
243 3 -0.73054 3.5026 6.14919 10.515 O
338 2 0.0321882 3.51464 1.36059 14.9892 H
240 3 -0.731545 6.44812 2.51979 12.7878 O
202 1 -0.0827376 5.39992 3.64408 15.1039 C
340 1 -0.134406 2.80259 1.40428 14.1852 C
363 2 0.0149449 6.56788 1.13816 16.5068 H
123 2 0.073649 2.69572 4.04097 10.077 H
364 2 0.0483619 5.1152 2.09164 17.0867 H
232 3 -0.700414 7.06965 2.02713 9.73847 O
38 4 0.681263 7.56252 0.011395 12.4939 Si
17 4 0.66397 -5.34832 12.3888 4.12121 Si
329 2 0.0455849 -5.76814 11.3577 6.44427 H
119 2 0.0350147 -3.1968 13.5714 7.6017 H
331 1 -0.124972 -5.01722 12.0721 6.20749 C
111 2 0.00810204 -3.65554 9.46884 7.07733 H
112 2 -0.00125419 -2.11451 10.3926 7.74564 H
330 2 0.0314678 -3.98564 11.7934 6.44924 H
193 1 -0.153572 -3.11442 9.98881 7.86409 C
351 2 0.0591629 -3.5131 12.9079 0.844104 H
109 2 0.00684483 -2.41796 8.25924 4.38858 H
328 2 0.0149285 -4.28096 10.2761 3.13735 H
352 1 -0.107926 -3.79692 11.8657 0.769774 C
20 1 -0.124639 -5.32873 10.4181 3.26796 C
341 2 0.0181498 -2.29364 9.37053 0.970257 H
225 3 -0.675622 -1.67189 7.23152 7.55511 O
349 2 0.0295917 -3.24017 11.2177 0.126096 H
332 2 0.0396274 -5.21449 13.0994 6.51608 H
22 3 -0.657137 -4.07913 13.1801 3.54815 O
21 3 -0.663875 -6.77852 13.0292 3.83494 O
350 2 0.0558662 -4.01984 11.4241 1.70467 H
143 2 0.097586 -1.95167 12.6234 4.48082 H
192 1 -0.144069 -1.80488 7.38012 4.5512 C
142 2 0.00571967 -1.44372 11.2169 5.42432 H
376 2 0.0080311 -3.3552 6.97877 2.49467 H
28 4 0.752671 -2.61852 8.08181 8.59847 Si
346 2 0.0372949 -5.82847 12.2849 8.61076 H
141 2 0.0574027 -1.34812 12.935 6.13103 H
50 4 0.632017 0.705236 12.1231 4.48694 Si
108 2 0.0373165 -0.992579 7.23779 3.8285 H
41 4 1.03773 1.74895 7.04434 4.7906 Si
369 2 0.0673765 0.442015 9.14757 0.015278 H
51 4 0.936752 2.71572 10.3867 0.787516 Si
83 2 -0.0274823 -1.08896 9.53605 6.30283 H
144 2 0.116549 0.914076 9.18838 8.28642 H
140 2 0.0223184 -0.547163 10.203 3.32281 H
139 2 0.135983 1.25301 9.99837 3.2042 H
204 1 -0.107259 -1.33154 12.2701 5.2522 C
138 2 0.0755459 0.424226 9.59155 4.75677 H
49 4 1.05752 2.65131 7.6369 2.02578 Si
146 2 0.0329134 0.0355257 10.7686 7.81959 H
247 3 -0.659345 0.795328 13.0229 3.06563 O
158 2 0.0255209 0.361411 10.8909 0.625389 H
205 1 -0.0576208 0.655154 10.2218 8.51309 C
234 3 -0.721536 0.692812 7.56506 5.99191 O
248 3 -0.760812 3.33025 8.90875 1.29611 O
203 1 -0.0773866 0.405023 10.1584 3.84836 C
245 3 -0.782439 1.69397 7.81344 3.33877 O
25 4 0.657171 -0.824573 7.83121 6.28293 Si
23 4 0.677627 -5.78852 13.342 14.5579 Si
27 4 0.583153 -3.92789 8.50193 16.1969 Si
30 4 0.76187 -3.06287 9.45964 13.5594 Si
32 4 0.780546 -4.79603 11.6325 12.3236 Si
31 4 0.717345 -5.86117 11.9897 17.0888 Si
342 2 0.0595016 -2.04448 10.0316 16.7207 H
194 1 -0.102445 -1.86476 7.72227 13.3577 C
147 2 0.0412361 -1.64321 12.1903 9.63757 H
226 3 -0.636777 -4.13036 9.2442 14.7558 O
229 3 -0.663344 -3.84739 9.8516 11.7727 O
230 3 -0.689803 -5.11048 12.1047 13.8273 O
256 3 -0.640482 -2.01008 10.7541 13.9351 O
84 2 0.288616 -1.95207 8.09151 11.054 H
206 1 -0.0772284 -2.00468 11.3512 10.2433 C
344 1 -0.136697 -2.25065 9.13729 17.2904 C
227 3 -0.667094 -6.00628 13.232 16.1357 O
317 2 0.279399 -4.78003 9.32756 11.6098 H
56 4 0.615737 -2.24344 12.3474 13.614 Si
150 2 0.0140488 -4.11831 12.6726 10.0774 H
348 1 -0.0991414 -6.69298 12.7611 9.08681 C
149 2 0.0524731 -2.84399 10.7364 9.9175 H
207 1 -0.144195 -4.19233 13.2321 11.0057 C
211 1 -0.114244 -2.40227 13.1436 15.4644 C
161 2 0.0553811 -3.38694 12.8112 15.8773 H
116 2 0.0330067 -2.4499 6.95284 12.9452 H
148 2 0.114552 -2.05546 11.507 11.2425 H
224 3 -0.709518 -3.95107 7.2328 9.07513 O
228 3 -0.705556 -6.28438 11.317 11.802 O
102 2 0.0260404 -3.7422 6.78058 16.0364 H
151 2 0.0607422 -3.2751 13.5512 11.445 H
347 2 0.0175623 -6.48603 13.5429 9.79314 H
113 2 0.0371184 -3.69142 10.3799 8.68207 H
209 1 -0.10593 1.76201 7.64513 12.8015 C
145 2 0.108455 1.51943 10.7814 8.78651 H
114 2 0.0735738 -1.54645 7.49713 14.3617 H
252 3 -0.617101 -1.40239 8.07768 10.227 O
157 2 0.0570363 0.936265 7.01383 12.9029 H
343 2 0.0274551 -1.51185 8.35878 17.1914 H
155 2 0.0345173 2.69431 7.15989 12.9093 H
257 3 -0.668794 -1.39325 13.2649 12.5167 O
210 1 -0.105037 0.463241 10.1401 17.2787 C
94 2 0.338131 0.0311482 10.2892 13.5822 H
160 2 0.0431871 -1.5255 12.7931 15.9345 H
260 3 -0.694721 1.12725 12.5256 11.6069 O
250 3 -0.739494 2.97156 8.37455 8.99956 O
258 3 -0.66247 0.25689 9.96346 11.568 O
255 3 -0.738133 0.960179 8.02535 15.5178 O
115 2 0.0796414 -1.08404 8.1707 12.7282 H
156 2 0.0963726 1.70244 8.33575 11.9482 H
370 2 0.10637 0.646971 10.4666 16.2716 H
53 4 0.439168 -0.537802 9.9509 10.1127 Si
55 4 0.907468 1.68279 9.03918 14.3864 Si
57 4 1.07263 1.52915 10.9357 11.9139 Si
259 3 -0.711084 0.919198 10.4899 14.0834 O
91 2 0.0440621 0.906975 7.19125 10.1236 H
44 4 0.729441 2.52506 6.95617 9.4943 Si
358 2 0.0271062 0.47105 13.0081 17.2914 H
35 4 0.626411 7.75972 2.94562 0.671962 Si
86 2 0.00883708 8.76077 2.06446 1.69099 H
170 2 0.072298 9.30624 5.93623 4.43126 H
171 2 0.0670269 8.14921 4.85238 3.50389 H
172 2 0.0790813 7.67483 5.47196 5.00646 H
215 1 -0.0897774 8.31088 5.65747 4.19248 C
233 3 -0.696914 7.09067 3.94203 1.77498 O
218 1 -0.047271 7.76624 5.79667 7.95455 C
274 3 -0.692613 10.2217 5.65255 6.92607 O
40 4 0.742467 5.92755 5.02488 1.54734 Si
121 2 0.0517042 8.68477 1.64351 5.07614 H
180 2 0.10683 7.86889 4.93608 7.35071 H
100 2 0.0634484 8.12386 1.36488 3.78441 H
181 2 0.12313 8.7116 6.00491 8.39931 H
122 2 0.10715 8.4427 2.28749 6.74783 H
179 2 0.082962 7.31553 6.69543 7.52161 H
197 1 -0.0747155 8.07262 1.6287 5.96525 C
360 2 0.0375447 9.09939 0.943727 0.25417 H
355 2 0.026096 10.343 1.32586 3.6164 H
311 2 0.0861715 10.0051 5.58389 2.40444 H
105 2 0.3205 7.82105 6.50347 0.982301 H
88 2 0.0265265 6.7901 2.85617 3.66796 H
312 2 0.043166 11.1132 6.76534 3.14623 H
353 2 0.104778 11.2499 1.16473 2.07102 H
314 3 -0.820625 12.9872 0.800791 1.00015 O
214 1 -0.0971252 12.8553 4.47585 7.85098 C
313 1 -0.101227 10.9652 5.7264 2.86672 C
309 4 0.71129 12.188 5.08411 1.30648 Si
263 3 -0.740275 12.9455 1.22785 6.82329 O
310 2 0.0445231 11.1322 5.0258 3.63529 H
271 3 -0.711863 10.8299 3.01354 6.20958 O
261 3 -0.671657 15.3956 1.87208 7.8502 O
315 3 -0.720775 12.4299 3.47525 1.41283 O
167 2 0.0460816 13.1084 5.13679 6.99635 H
356 1 -0.0875774 10.935 0.70069 2.96596 C
386 3 -0.757958 15.4084 0.768025 2.30691 O
59 4 1.05242 14.4157 0.711124 7.26962 Si
61 4 0.683623 11.9817 1.91321 5.77399 Si
67 4 1.03427 10.7859 4.16829 7.41805 Si
97 2 0.018338 12.867 2.39414 4.38508 H
308 4 1.42221 12.5373 2.22453 0.272079 Si
168 2 0.0713842 13.3161 3.50843 7.77396 H
354 2 0.122937 11.7409 0.0873544 3.44375 H
39 4 0.979516 7.73398 2.58782 11.0843 Si
46 4 0.888484 6.22796 4.41456 13.2798 Si
63 4 1.06576 9.73018 2.96467 16.0015 Si
68 4 0.83991 6.8721 5.18515 9.6707 Si
71 4 1.17086 7.99102 6.32101 14.8976 Si
72 4 1.26093 9.40943 6.08792 11.2872 Si
162 2 0.0148248 8.34221 0.896308 15.161 H
163 2 0.0863636 10.0077 0.693942 14.692 H
164 2 0.0730927 8.93441 1.81634 13.7574 H
212 1 -0.101698 9.15864 1.36477 14.6911 C
262 3 -0.741394 9.29613 2.09634 10.96 O
265 3 -0.665408 8.39393 3.63756 16.8198 O
273 3 -0.715852 6.06357 6.45448 10.3121 O
277 3 -0.707292 7.63788 5.13399 13.8496 O
280 3 -0.693196 7.96309 4.61794 10.7528 O
275 3 -0.756039 10.3696 3.9008 14.8706 O
279 3 -0.750793 10.2941 6.31005 9.90473 O
281 3 -0.788704 10.2332 5.66792 12.6392 O
103 2 0.00893288 6.83465 6.11514 16.1434 H
60 4 1.12207 10.2972 2.26181 9.74411 Si
48 4 1.00445 4.85373 6.45522 11.4057 Si
137 2 0.0826881 6.00099 4.21926 15.7981 H
278 3 -0.811247 9.34366 6.66999 15.6142 O
270 3 -0.73845 10.0702 3.53284 8.70465 O
316 3 -0.732082 11.3888 5.73549 17.242 O
185 2 0.0627806 12.8421 -0.00829053 9.21627 H
96 2 0.3171 15.3458 1.03484 17.2185 H
173 2 0.0586954 13.4458 4.99904 13.5054 H
169 2 0.083408 12.8675 4.95417 8.77318 H
276 3 -0.696187 11.5931 3.28496 12.6518 O
373 1 -0.0834283 11.5981 0.110736 12.1734 C
175 2 0.0426249 12.544 6.5441 13.9593 H
306 3 -0.829799 13.3646 2.65385 16.4305 O
372 2 0.0525224 12.3255 0.174953 11.348 H
266 3 -0.728884 11.8541 2.23086 10.0971 O
64 4 0.609271 12.4727 3.2225 11.2345 Si
70 4 1.15717 10.9615 4.5102 13.5281 Si
99 2 0.0372432 12.3808 4.87869 10.7718 H
165 2 0.0450388 14.5334 2.09929 10.6224 H
166 2 0.0880258 14.0885 1.76688 12.3778 H
371 2 0.127209 11.2168 1.07769 12.4768 H
174 2 0.108287 12.754 5.19306 15.1773 H
307 3 -0.798043 13.1708 0.922494 14.472 O
305 4 1.30042 14.0989 2.03772 15.1721 Si
213 1 -0.0945235 14.2805 2.50827 11.6341 C
216 1 -0.0899414 12.7276 5.53308 14.1627 C
264 3 -0.780042 10.6118 2.15589 17.1627 O
333 2 0.122304 15.7864 0.0447099 14.3381 H
33 4 0.645987 2.16639 12.9716 2.24793 Si
52 4 1.22703 3.91485 9.19637 7.9725 Si
54 4 1.14183 3.18152 11.598 5.95943 Si
74 4 1.06443 5.76752 11.4601 4.23853 Si
93 2 0.009096 4.0687 12.5942 7.03597 H
177 2 0.109528 5.35151 10.4573 1.77426 H
178 2 0.131516 4.90912 9.16146 2.91156 H
217 1 -0.0339146 5.65078 9.90054 2.65111 C
249 3 -0.67559 2.62645 11.3919 2.03148 O
251 3 -0.780231 4.82938 8.39208 6.89585 O
268 3 -0.722623 5.99529 7.85248 4.35325 O
285 3 -0.758129 4.22721 11.3439 4.8018 O
293 3 -0.735487 6.69504 10.9541 5.53151 O
176 2 0.107103 6.6573 9.51582 2.57789 H
284 3 -0.710266 6.07282 12.9213 3.64016 O
104 2 0.355384 6.26894 8.62259 4.75335 H
45 4 1.25683 4.70035 7.08878 5.91426 Si
183 2 0.0957911 6.66313 8.14733 8.47039 H
361 1 -0.101062 1.7351 13.4798 0.240677 C
254 3 -0.702414 2.76174 10.3504 6.86601 O
253 3 -0.735452 1.86286 12.4195 5.59472 O
267 3 -0.660963 6.94289 6.84426 1.31239 O
58 4 1.3218 6.7217 13.5019 1.90787 Si
383 2 0.104303 5.29938 7.95899 0.0635366 H
286 3 -0.707466 9.90827 11.9427 0.797736 O
18 2 0.0567462 10.7873 10.5357 2.3583 H
73 4 1.08907 9.23178 8.72843 1.71154 Si
75 4 1.06862 8.43181 11.3368 0.503577 Si
78 4 1.10443 8.02868 11.6102 6.17 Si
345 2 0.102656 9.10585 12.8575 8.50069 H
295 3 -0.744118 7.79757 13.2209 6.27866 O
107 2 0.0352769 9.20749 11.205 4.92732 H
289 3 -0.672401 9.33491 8.45807 7.00288 O
76 4 0.790161 8.80937 9.45501 8.11548 Si
287 3 -0.758168 8.42493 9.67967 0.650661 O
101 2 -0.0110127 11.9453 7.74973 6.05945 H
294 3 -0.75043 8.59889 10.9666 7.55421 O
283 3 -0.841432 9.81573 7.36495 1.01633 O
288 3 -0.797728 7.22321 12.0839 1.2164 O
282 3 -0.727077 8.527 8.38916 3.08639 O
65 4 0.664004 7.42079 7.19206 3.20525 Si
69 4 0.562994 10.5147 7.27609 6.98019 Si
19 2 0.0324551 10.9071 9.83305 4.03273 H
318 2 0.212461 11.8764 8.79917 0.723876 H
62 4 1.10367 5.36053 13.1104 13.7728 Si
77 4 1.08272 4.12328 11.022 10.4688 Si
80 4 1.08319 3.93678 10.7924 15.3301 Si
106 2 -0.01961 3.63818 12.5912 9.96899 H
153 2 0.094707 5.24015 8.11461 13.338 H
154 2 0.111202 3.89095 8.96994 12.5096 H
189 2 0.0900278 6.03528 9.27842 15.0543 H
190 2 0.0731699 6.07593 10.0106 16.69 H
208 1 -0.0542614 4.8032 8.47529 12.4028 C
222 1 -0.088057 5.95492 10.1403 15.6695 C
291 3 -0.748082 4.72495 10.3856 9.10739 O
298 3 -0.778292 3.27455 9.56223 14.5263 O
299 3 -0.766731 4.28752 12.2188 14.5708 O
302 3 -0.82678 5.27519 11.2411 11.5457 O
374 2 0.0660206 3.47197 13.001 12.0569 H
381 2 0.0434258 5.05797 7.15172 15.7412 H
152 2 0.116975 5.42994 8.96308 11.6829 H
191 2 0.0799685 6.4633 11.0096 15.2074 H
300 3 -0.722596 3.31067 11.0986 16.7852 O
304 3 -0.725939 6.76872 12.3745 13.3599 O
382 1 -0.0849673 4.45468 7.6279 16.4919 C
184 2 0.131745 6.54943 9.68738 9.22323 H
220 1 -0.0794903 6.49513 13.2379 9.03432 C
292 3 -0.770411 2.76191 10.3368 11.0507 O
380 2 0.0811491 3.74098 8.29177 16.1014 H
385 2 0.104082 6.54601 12.2041 8.66056 H
359 2 0.116937 2.24315 13.0481 17.0015 H
81 4 1.30205 6.90502 11.1463 11.8811 Si
187 2 0.119768 9.84588 8.90669 14.8691 H
334 2 0.105998 9.00195 12.9026 12.7549 H
290 3 -0.707273 10.2937 9.38156 9.65683 O
296 3 -0.781251 7.44285 7.66784 14.162 O
219 1 -0.0614351 7.15178 8.78519 9.1268 C
269 3 -0.688169 11.4097 8.72254 16.9896 O
221 1 -0.0432048 9.81419 9.22641 13.8791 C
297 3 -0.826823 8.8082 7.60262 11.619 O
66 4 1.24554 10.1999 6.87018 16.989 Si
319 2 0.0135069 7.91714 11.6266 16.1155 H
188 2 0.0935197 9.5772 10.2537 13.777 H
301 3 -0.771416 7.94714 11.5365 10.6591 O
24 4 0.788205 11.211 7.48014 9.29883 Si
29 4 0.785091 9.57924 11.2938 10.4344 Si
303 3 -0.833007 7.22007 9.65608 12.3608 O
79 4 1.1031 8.11617 8.38863 12.8364 Si
82 2 0.281878 9.67699 8.87268 10.3695 H
182 2 0.106453 7.49505 8.41566 10.0582 H
186 2 0.0891446 10.5548 8.85732 13.2382 H
384 2 0.0722447 7.25702 13.4624 9.7952 H
ITEM: TIMESTEP
100
ITEM: NUMBER OF ATOMS
386
ITEM: BOX BOUNDS xy xz yz pp pp pp
-7.6535000000000002e+00 1.6722200000000001e+01 -7.3464000000000000e+00
0.0000000000000000e+00 1.3905444000000001e+01 -3.0709999999999998e-01
0.0000000000000000e+00 1.7316099999999999e+01 3.1644400000000061e-01
ITEM: ATOMS id type q x y z element
1 4 0.707331 0.0257339 0.75807 3.06696 Si
2 2 0.0330235 1.31655 0.89289 1.92038 H
87 2 0.0461327 1.73375 1.34168 7.95666 H
4 2 0.0350678 -0.74463 3.01001 3.7896 H
5 2 0.0155408 0.900541 2.65038 4.50577 H
6 1 -0.125032 -0.107712 2.31659 4.29896 C
10 4 0.29961 -0.677351 3.27438 7.55407 Si
11 2 0.0513518 0.924279 3.53265 6.8966 H
12 2 0.0247201 -1.59827 3.91778 6.15673 H
130 2 0.0378072 1.05916 5.06253 3.20058 H
134 2 0.0673781 0.834485 5.81459 7.87043 H
200 1 -0.13266 1.03223 5.06651 4.27883 C
325 2 0.0919488 -1.54923 4.65484 0.325777 H
327 1 -0.0655647 -0.717419 4.16217 0.824843 C
129 2 0.0488499 1.81457 4.46316 4.7284 H
326 2 0.032653 0.0192915 4.84324 1.14329 H
201 1 -0.0902004 1.84465 5.56388 8.20664 C
110 2 0.032647 -2.58087 6.53235 4.72168 H
379 1 -0.142796 -3.08911 6.24497 2.00529 C
364 2 0.0370162 5.79739 2.01916 0.278545 H
377 2 0.0277262 -2.39275 6.46893 1.21557 H
131 2 0.0245008 0.0780997 5.10829 4.80153 H
3 2 0.0920979 -0.543646 1.74405 5.11974 H
378 2 0.0323747 -2.74601 5.52048 2.71813 H
92 2 0.0411239 1.01726 6.34385 0.146266 H
324 2 0.0777051 -0.939713 3.44498 1.58508 H
127 2 0.0437692 4.46625 4.14787 3.6754 H
128 2 0.0626635 3.73483 5.62629 3.01275 H
43 4 1.00906 5.04674 4.3927 7.10199 Si
36 4 0.138263 3.16312 2.24552 8.26472 Si
321 2 0.0592299 2.53854 3.45817 0.595169 H
90 2 0.303233 3.37154 2.9943 5.95326 H
237 3 -0.729476 5.98188 3.87425 5.89402 O
196 1 -0.0699334 4.67929 0.828381 8.02697 C
366 2 0.077734 5.43696 1.34572 7.47636 H
118 2 0.0326265 3.68298 1.65127 1.45958 H
117 2 0.0249781 3.31556 3.10735 2.50332 H
261 3 -0.67051 -1.05379 1.71103 7.6437 O
133 2 0.119412 2.57248 5.79304 7.38582 H
365 1 -0.143436 6.69609 1.45326 0.290072 C
362 2 0.0448727 6.75541 0.74037 1.07883 H
88 2 0.0322454 6.65045 2.90182 3.62998 H
195 1 -0.136752 3.99333 2.23152 2.30002 C
236 3 -0.657482 3.23847 3.57454 6.67316 O
235 3 -0.684506 4.9822 4.91242 0.429488 O
231 3 -0.697176 4.89656 1.42607 5.19407 O
199 1 -0.103513 4.6518 5.13598 3.3437 C
34 4 0.645546 4.09204 0.948491 3.91693 Si
37 4 0.593048 6.20491 2.42222 5.22431 Si
357 2 0.0319578 5.03199 2.46932 2.2337 H
246 3 -0.775827 2.66515 6.30214 1.10981 O
367 2 0.0709282 7.50999 0.364977 6.32987 H
7 4 0.133866 -0.0663277 3.07605 16.6536 Si
15 2 0.0324239 -1.8901 4.06577 9.63613 H
16 1 -0.105611 -0.853643 4.24467 9.40693 C
26 4 0.653247 -0.560215 4.07616 14.6023 Si
85 2 -0.0106332 0.104692 4.00168 13.019 H
241 3 -0.714564 -0.384943 5.56177 15.1922 O
14 2 0.0228058 -0.0982669 3.71879 10.0104 H
323 1 -0.0738844 2.02083 2.88598 17.011 C
339 2 0.0149212 1.69663 2.32906 14.1217 H
47 4 0.831294 0.890338 6.3163 15.771 Si
125 2 0.01878 1.98304 2.4204 10.7625 H
375 2 0.0440467 -1.93547 3.46477 12.0493 H
335 2 0.0180856 -0.243441 1.12738 13.3483 H
223 3 -0.756714 -1.92528 3.21841 14.3847 O
13 2 0.0660343 -0.62117 5.27026 9.16397 H
320 2 0.0737955 2.19814 1.84605 17.1083 H
137 2 0.0912624 5.46769 4.28541 15.9645 H
336 1 -0.0720817 -0.266581 0.0839353 13.672 C
120 2 0.0810431 4.92861 0.652388 9.07911 H
135 2 0.0340812 5.28027 2.75116 15.0334 H
136 2 0.100262 4.04347 4.0926 14.8026 H
244 3 -0.758325 5.05621 5.36516 12.6948 O
95 2 0.285647 6.62996 2.24109 9.21147 H
42 4 0.6576 3.46054 5.9183 17.1836 Si
232 3 -0.704061 6.7966 1.64423 9.95861 O
124 2 0.0737392 3.79324 2.56402 10.6519 H
272 3 -0.690288 5.16561 4.07592 9.14023 O
368 2 0.0155581 2.48569 0.514654 11.3893 H
242 3 -0.685962 2.53142 5.37183 15.307 O
198 1 -0.0828131 2.8276 2.87487 10.2781 C
89 2 0.304436 4.66122 4.93909 9.46008 H
337 2 0.0298569 3.15773 1.44435 13.3565 H
159 2 0.0273758 5.4637 0.720738 15.4547 H
322 2 0.0790362 2.42868 3.36111 16.1378 H
98 2 0.287772 5.56855 2.61874 12.0614 H
8 2 0.250916 2.99463 6.14794 14.8941 H
243 3 -0.746202 3.38961 6.29709 10.6219 O
338 2 0.0377176 3.18019 1.92953 15.113 H
240 3 -0.685295 6.40863 2.7242 12.5822 O
202 1 -0.0962859 5.06736 3.81437 15.0767 C
340 1 -0.121252 2.58117 1.71888 14.236 C
363 2 0.0148428 6.80774 1.11055 16.6718 H
123 2 0.0752165 2.67428 3.95069 10.3071 H
132 2 0.0364015 1.92754 4.6404 8.75335 H
9 3 -0.632158 -0.97809 1.33051 16.3223 O
347 2 0.02938 0.665435 0.109992 10.053 H
17 4 0.631015 -5.39757 12.4376 4.11692 Si
329 2 0.0289527 -5.728 11.1344 6.39607 H
238 3 -0.827407 3.28146 6.85734 5.2646 O
331 1 -0.120565 -5.24527 12.0969 6.20211 C
111 2 0.00980359 -3.07969 9.75216 6.65451 H
112 2 -0.000444043 -2.47637 10.5883 8.14194 H
330 2 0.0310038 -4.17918 12.0795 6.22092 H
193 1 -0.156766 -3.14855 9.89999 7.71678 C
351 2 0.0527599 -3.32772 13.091 0.794513 H
109 2 0.00683007 -2.40779 8.26414 4.09922 H
328 2 0.00510879 -4.50863 9.97176 3.63081 H
352 1 -0.108527 -3.58129 12.0631 0.686469 C
20 1 -0.116488 -5.45995 10.459 3.382 C
341 2 0.0200441 -2.3561 9.52514 0.944621 H
225 3 -0.651495 -1.62331 7.32991 7.42448 O
349 2 0.0275184 -2.91554 11.5066 0.0496294 H
332 2 0.0532611 -5.66175 12.9521 6.71778 H
22 3 -0.679774 -4.02862 13.1539 3.59088 O
21 3 -0.650177 -6.90875 13.0455 3.93318 O
350 2 0.0579739 -3.77147 11.5797 1.63253 H
143 2 0.0761024 -1.71832 12.8846 4.40247 H
192 1 -0.14499 -1.90798 7.33635 4.43415 C
142 2 0.0208903 -1.90499 11.3135 5.1908 H
376 2 0.00711184 -3.56673 7.13631 2.39721 H
28 4 0.789194 -2.54904 8.07692 8.52045 Si
343 2 0.0251427 -1.61767 8.02347 0.177511 H
141 2 0.04708 -1.15687 12.6267 6.06252 H
50 4 0.598947 0.586471 11.9919 4.22197 Si
108 2 0.0321081 -1.09441 6.99178 3.79563 H
41 4 1.09554 1.77485 7.06773 4.76332 Si
369 2 0.0499107 0.761074 9.09739 0.399348 H
210 1 -0.120365 0.78484 10.1648 0.248578 C
83 2 -0.0184164 -0.984244 9.60958 6.19338 H
144 2 0.0903221 0.402166 9.55 7.82128 H
140 2 0.000757278 -0.737205 9.79941 4.20558 H
139 2 0.0658957 0.336155 9.79894 2.77622 H
204 1 -0.107413 -1.32868 12.201 5.13775 C
138 2 0.125518 1.07359 9.48891 4.41996 H
49 4 1.10593 2.61268 7.65092 1.94268 Si
146 2 0.0375016 0.256423 11.3965 8.23635 H
247 3 -0.658439 0.714569 13.0311 2.8914 O
158 2 0.0271464 0.193584 10.7402 0.960341 H
205 1 -0.0744754 0.525488 10.373 8.52586 C
234 3 -0.703389 0.712019 7.55502 5.88184 O
248 3 -0.824238 3.22354 8.95508 1.27752 O
203 1 -0.086689 0.257451 9.94082 3.83939 C
245 3 -0.804734 1.69978 7.7739 3.27721 O
25 4 0.615699 -0.891077 7.9103 6.05406 Si
113 2 0.0337769 -4.1648 9.85156 8.13861 H
18 2 0.0743016 -5.54955 10.5864 2.32777 H
119 2 0.0388076 -3.05142 13.5269 7.53899 H
344 1 -0.136622 -2.03128 9.04271 0.0206561 C
23 4 0.606357 -5.71056 13.4248 14.5294 Si
27 4 0.589821 -4.06109 8.71526 16.2208 Si
30 4 0.82223 -2.98228 9.63465 13.5024 Si
32 4 0.767397 -4.97353 11.6572 12.3534 Si
31 4 0.72676 -5.7289 11.9608 17.0959 Si
342 2 0.0508186 -1.66522 9.6226 16.7301 H
194 1 -0.0941367 -1.56755 8.07215 13.3999 C
147 2 0.0407599 -1.608 12.1778 9.69838 H
226 3 -0.6781 -3.99775 9.33611 14.7346 O
229 3 -0.689676 -4.05959 9.89356 11.8181 O
230 3 -0.694354 -4.74767 12.2563 13.8584 O
256 3 -0.693758 -1.96233 10.8737 13.6463 O
84 2 0.248952 -2.27368 8.27988 10.8338 H
206 1 -0.0891088 -2.09422 11.3828 10.238 C
380 2 0.116014 3.56161 8.2722 16.5578 H
227 3 -0.641426 -5.88512 13.2389 16.1643 O
317 2 0.287799 -4.82457 9.27031 11.6748 H
56 4 0.732713 -2.32893 12.4719 13.6451 Si
150 2 0.0136752 -4.40102 12.8441 10.1755 H
348 1 -0.115147 -6.59053 12.8615 9.35832 C
149 2 0.0412655 -3.00145 10.9424 9.83053 H
207 1 -0.132196 -4.25757 13.2404 11.1488 C
211 1 -0.12114 -2.37766 13.3401 15.5401 C
161 2 0.0565078 -3.38417 13.3641 15.8049 H
116 2 0.0373822 -2.03753 7.27263 12.8493 H
148 2 0.123703 -2.07249 11.3785 11.3896 H
224 3 -0.721021 -3.93363 7.27104 8.84356 O
44 4 0.740376 2.48611 6.96849 9.45922 Si
102 2 0.0117674 -3.87392 7.0112 16.1214 H
57 4 1.14817 1.48565 10.9309 11.95 Si
38 4 0.756134 0.134797 13.5542 12.441 Si
55 4 1.01838 1.80372 8.84923 14.3294 Si
209 1 -0.11281 1.72339 7.58235 12.5995 C
145 2 0.107259 1.48283 10.3383 9.05768 H
114 2 0.0686083 -1.41318 7.88688 14.4201 H
252 3 -0.604436 -1.44937 8.08509 10.1739 O
157 2 0.0511108 0.785113 7.04588 12.6704 H
91 2 0.0495427 0.9407 7.13964 10.2048 H
155 2 0.040561 2.60215 7.01681 12.8549 H
257 3 -0.700186 -1.45313 13.3269 12.6012 O
259 3 -0.736933 0.969952 10.2223 14.0262 O
94 2 0.328428 0.00674126 10.0657 13.6397 H
160 2 0.0360181 -1.77675 12.6747 16.1601 H
260 3 -0.745997 1.23957 12.5133 11.8479 O
250 3 -0.767615 2.81496 8.34788 8.702 O
258 3 -0.673492 0.22364 9.94902 11.4792 O
255 3 -0.760538 1.12023 7.89142 15.4234 O
115 2 0.0922803 -0.778958 8.5993 12.9553 H
156 2 0.0746263 1.83252 8.12771 11.7478 H
370 2 0.0849702 0.4017 10.4614 16.5231 H
53 4 0.440022 -0.649469 9.96988 10.0918 Si
346 2 0.0202693 -5.61253 12.6353 8.99482 H
358 2 0.0244471 0.551291 12.9854 17.0547 H
151 2 0.0816077 -3.20432 13.2875 11.4257 H
35 4 0.658195 7.88683 3.0481 0.733431 Si
86 2 -0.00800814 8.91731 2.10173 1.80638 H
170 2 0.0786471 9.14907 6.17956 4.85392 H
171 2 0.0540772 8.57017 4.96983 3.64916 H
172 2 0.0839711 7.52673 5.31786 4.9661 H
215 1 -0.0906307 8.34456 5.69782 4.35963 C
233 3 -0.702191 7.12921 4.01429 1.86127 O
218 1 -0.0438411 7.84616 5.75758 8.06279 C
274 3 -0.715748 10.3235 5.60623 7.1135 O
40 4 0.782657 5.9353 5.08606 1.71513 Si
121 2 0.0441675 8.50063 1.49035 5.26422 H
180 2 0.111701 8.38404 4.82873 7.79037 H
100 2 0.0881058 8.22318 0.984996 3.96621 H
181 2 0.107264 8.47384 6.56409 8.45415 H
122 2 0.0589157 8.00623 1.96252 7.05424 H
179 2 0.102065 7.08174 6.11412 7.39984 H
197 1 -0.0957511 7.7977 1.42454 6.15031 C
360 2 0.0233633 8.94482 1.00847 0.0199036 H
355 2 0.0439901 10.4911 0.665855 3.99539 H
311 2 0.0615132 9.9859 4.63962 2.70909 H
105 2 0.317933 7.84207 6.39635 1.07637 H
354 2 0.143358 11.7117 0.297634 2.67392 H
312 2 0.0479894 10.7168 6.32362 2.89099 H
353 2 0.0295761 10.4882 1.69995 2.46038 H
314 3 -0.814292 13.0767 0.763393 1.09479 O
214 1 -0.0878009 13.0476 4.54025 7.7614 C
313 1 -0.101179 10.8507 5.25665 2.90679 C
309 4 0.681709 12.1206 5.06077 1.26805 Si
263 3 -0.743553 13.1473 1.6412 6.78652 O
310 2 0.0410938 11.4492 4.90055 3.76351 H
271 3 -0.695484 10.8952 3.02952 6.26799 O
239 3 -0.804063 5.06333 5.99554 7.03539 O
315 3 -0.735365 12.6439 3.46068 1.36692 O
167 2 0.061281 13.2804 5.16589 6.96672 H
356 1 -0.0834797 10.7372 0.741887 2.94763 C
386 3 -0.756315 15.436 0.78118 2.15218 O
59 4 1.0415 14.4349 0.789321 7.16672 Si
61 4 0.642069 11.9541 1.92085 5.71265 Si
67 4 1.03834 10.9362 4.16232 7.51617 Si
97 2 0.0251089 12.5825 2.66801 4.24509 H
308 4 1.48938 12.552 2.18264 0.349511 Si
168 2 0.0832046 13.3746 3.54113 7.62517 H
126 2 0.0532734 5.24353 5.69631 4.02437 H
39 4 0.954472 7.76582 2.45471 10.9732 Si
46 4 0.937306 6.16934 4.45229 13.4081 Si
63 4 1.16169 9.76217 2.94008 16.0282 Si
68 4 0.788137 6.85517 5.08567 9.79894 Si
71 4 1.0809 7.88142 6.2321 14.8939 Si
72 4 1.31611 9.42159 6.00599 11.2831 Si
162 2 0.0548806 7.77056 1.91521 14.6984 H
163 2 0.0420831 8.97406 0.653609 14.9514 H
164 2 0.0985062 9.2482 1.93245 13.6559 H
212 1 -0.101001 8.8161 1.63299 14.5996 C
262 3 -0.718878 9.34267 2.03871 11.0663 O
265 3 -0.739448 8.50211 3.51163 16.8395 O
273 3 -0.690554 6.13944 6.38966 10.4342 O
277 3 -0.714271 7.61013 4.95072 14.0025 O
280 3 -0.684773 7.98334 4.54788 10.8046 O
275 3 -0.720933 10.4431 4.04351 15.0462 O
279 3 -0.749051 10.469 6.21211 10.0642 O
281 3 -0.797548 10.3091 5.64984 12.6026 O
103 2 0.0213314 6.79425 6.26222 16.3773 H
60 4 1.01743 10.3899 2.18705 9.79844 Si
48 4 0.995836 4.80773 6.417 11.4602 Si
169 2 0.0726879 13.3083 4.85252 8.75921 H
278 3 -0.761734 9.37706 6.66119 15.4537 O
270 3 -0.729374 10.171 3.48047 8.79097 O
316 3 -0.723066 11.3155 5.68191 17.1465 O
264 3 -0.817899 10.7662 2.0144 16.895 O
96 2 0.343975 15.3844 1.14928 17.2007 H
173 2 0.0540252 13.4491 5.13461 13.4867 H
216 1 -0.0786531 12.8248 5.48687 14.2432 C
276 3 -0.724055 11.4996 3.38792 12.6383 O
373 1 -0.0614919 11.6281 0.231306 12.3192 C
175 2 0.0359922 12.5558 6.54818 14.2245 H
306 3 -0.781787 13.2973 2.67124 16.526 O
372 2 0.0660996 12.317 0.155248 11.5516 H
266 3 -0.726229 11.9403 2.13593 10.2181 O
64 4 0.654746 12.4024 3.24118 11.2856 Si
70 4 1.16344 11.001 4.56215 13.575 Si
99 2 0.0485216 12.3609 4.79121 10.54 H
165 2 0.0353215 14.5986 2.12374 10.8706 H
166 2 0.083137 14.0688 1.77991 12.5254 H
371 2 0.137496 11.4307 1.24557 12.6528 H
174 2 0.127939 12.9808 5.11414 15.2202 H
307 3 -0.818678 13.1471 0.921014 14.5668 O
305 4 1.27485 14.0796 2.01787 15.2278 Si
213 1 -0.0989793 14.2288 2.55958 11.7685 C
33 4 0.6451 2.10941 13.0211 2.04103 Si
52 4 1.33885 3.62992 9.37911 7.77114 Si
54 4 1.11214 3.07698 11.7424 5.84475 Si
74 4 1.12544 5.6392 11.3381 4.19365 Si
93 2 -0.0265357 3.75697 13.0214 6.78044 H
177 2 0.120585 5.20686 10.5852 1.70712 H
178 2 0.110096 4.92587 9.16114 2.84922 H
217 1 -0.0303136 5.57023 9.92977 2.48124 C
249 3 -0.659231 2.86723 11.6019 1.91739 O
251 3 -0.781848 4.70821 8.57148 6.81341 O
268 3 -0.701637 6.17028 7.93437 4.58749 O
285 3 -0.759278 4.06124 11.4138 4.65975 O
293 3 -0.791718 6.79744 10.8152 5.19515 O
176 2 0.11702 6.58456 9.65835 2.30168 H
284 3 -0.718815 5.93181 12.7644 3.52287 O
104 2 0.381764 6.40826 8.74128 5.03636 H
45 4 1.28677 4.69581 7.16394 5.97854 Si
183 2 0.137869 6.41734 8.98061 8.32519 H
361 1 -0.104769 1.73596 13.531 0.00939665 C
254 3 -0.807025 2.85948 10.4695 6.88416 O
253 3 -0.713969 1.69005 12.4473 5.40433 O
318 2 0.212754 11.8654 8.61164 0.86685 H
58 4 1.33414 6.78382 13.413 1.93586 Si
383 2 0.0984355 5.31975 7.86257 0.272844 H