LAMMPS (2 Aug 2023 - Update 2)
  using 1 OpenMP thread(s) per MPI task
# Initialization
units           real
dimension       3
boundary        p p p
# boundary        s s s
atom_style      full
timestep        0.5   # fs

# Define MD parameters
variable nevery equal 10                  # sampling interval
variable nrepeat equal 10                 # number of samples
variable nfreq equal ${nevery}*${nrepeat} # length of one average
variable nfreq equal 10*${nrepeat} 
variable nfreq equal 10*10 
variable nthermo equal ${nfreq}           # interval for thermo output
variable nthermo equal 100           
# 1 ps : 1e3 fs / 0.5 fs = 2e3 steps
# variable nequil equal 20*${nthermo}       # steps of equilibration run 10
variable nrun equal 100*${nthermo}          # stpes of equilibrated run 10
variable nrun equal 100*100          
variable temp equal 300.0                # temperature of initial sample
variable tdamp equal 50.0                 # time constant for thermostat
variable seed equal 123456                # seed for thermostat
variable ufac equal 1.01325e-4         # pressure unit conversion, from atm to Gpa
variable up equal 0.01                  # the deformation magnitude 0.1
variable FF string "SiOCHN_2018.ff C H O Si"          # force field args for pair_coeff
# pair_coeff * * CHONSSi.ff C H O Si
# pair_coeff * * CHOSiNa.ff C H O Si
# pair_coeff * * SiOCHN_2018.ff C H O Si
# pair_coeff * * PDMSDecomp.ff C H O Si
# pair_coeff * * CHONSi.ff C H O Si
# pair_coeff * * CHOFe.ff O Si

# Read the initial sctructure
# box tilt large
variable structure string 333U-50C-33

read_data       ${structure}.data
read_data       333U-50C-33.data
Reading data file ...
  triclinic box = (0 0 0) to (15.3172 13.8463 18.3222) with tilt (-7.7318 0.2463 -0.1382)
WARNING: Triclinic box skew is large. LAMMPS will run inefficiently. (src/domain.cpp:220)
  2 by 2 by 2 MPI processor grid
  reading atoms ...
  365 atoms
  reading velocities ...
  365 velocities
Finding 1-2 1-3 1-4 neighbors ...
  special bond factors lj:    0        0        0       
  special bond factors coul:  0        0        0       
     0 = max # of 1-2 neighbors
     0 = max # of 1-3 neighbors
     0 = max # of 1-4 neighbors
     1 = max # of special neighbors
  special bonds CPU = 0.001 seconds
  read_data CPU = 0.009 seconds

# Assign the force field
pair_style reaxff NULL safezone 3.0 mincap 150
pair_coeff * * ${FF}
pair_coeff * * SiOCHN_2018.ff C H O Si
WARNING: Van der Waals parameters for element SI indicate inner wall+shielding, but earlier atoms indicate a different van der Waals method. This may cause division-by-zero errors. Keeping van der Waals setting for earlier atoms. (src/REAXFF/reaxff_ffield.cpp:251)
# charge method for reaxff
fix myqeq all qeq/reaxff 1 0.0 10.0 1.0e-6 reaxff maxiter 400

# # Energy minimization
# print "*****Minimization starts.*****"
# minimize 1.0e-6 1.0e-6 100 1000
# min_style cg
# # Save the optimized structure
# write_data ${structure}_opt.data
velocity        all create ${temp} ${seed} dist gaussian
velocity        all create 300 ${seed} dist gaussian
velocity        all create 300 123456 dist gaussian

# # Equilibration
# include ff.mod.lmp
# if "$(is_defined(fix,avgp))" then "unfix avgp"
# if "$(is_defined(fix,avgl))" then "unfix avgl"
# thermo_style custom step temp pe press density vol
# run ${nequil}
# # Save the equilibrated structure
# write_data ${structure}_eq.data

# use tmp to save initial length and tilt
variable tmp equal lx
variable lx0 equal ${tmp}
variable lx0 equal 15.3172
variable tmp equal ly
variable ly0 equal ${tmp}
variable ly0 equal 13.8463
variable tmp equal lz
variable lz0 equal ${tmp}
variable lz0 equal 18.3222

variable tmp equal yz
variable yz0 equal ${tmp}
variable yz0 equal -0.1382
variable tmp equal xz
variable xz0 equal ${tmp}
variable xz0 equal 0.2463
variable tmp equal xy
variable xy0 equal ${tmp}
variable xy0 equal -7.7318

# Write restart
write_restart equil.res
System init for write_restart ...
Neighbor list info ...
  update: every = 1 steps, delay = 0 steps, check = yes
  max neighbors/atom: 2000, page size: 100000
  master list distance cutoff = 12
  ghost atom cutoff = 12
  binsize = 6, bins = 4 3 4
  2 neighbor lists, perpetual/occasional/extra = 2 0 0
  (1) pair reaxff, perpetual
      attributes: half, newton off, ghost
      pair build: half/bin/newtoff/ghost
      stencil: full/ghost/bin/3d
      bin: standard
  (2) fix qeq/reaxff, perpetual, copy from (1)
      attributes: half, newton off
      pair build: copy
      stencil: none
      bin: none

# dir: direction
# uxx Perturbation
variable dir equal 1
include displace.mod.lmp
# Find which length (epsilon) to calculate
if "${dir} == 1" then    "variable len0 equal ${lx0}"    "variable dlen equal lx-${len0}"
variable len0 equal ${lx0}
variable len0 equal 15.3172
variable dlen equal lx-${len0}
variable dlen equal lx-15.3172
if "${dir} == 2" then    "variable len0 equal ${ly0}"    "variable dlen equal ly-${len0}"
if "${dir} == 3" then    "variable len0 equal ${lz0}"    "variable dlen equal lz-${len0}"
if "${dir} == 4" then    "variable len0 equal ${lx0}"    "variable dlen equal 2*(yz-${yz0})"
if "${dir} == 5" then    "variable len0 equal ${ly0}"    "variable dlen equal 2*(xz-${xz0})"
if "${dir} == 6" then    "variable len0 equal ${lz0}"    "variable dlen equal 2*(xy-${xy0})"

# strain vector (epsilon)
variable eps equal v_dlen/v_len0

# stress vector (sigma)
variable sig1 equal -f_avgp[1]*${ufac}
variable sig1 equal -f_avgp[1]*0.000101325
variable sig2 equal -f_avgp[2]*${ufac}
variable sig2 equal -f_avgp[2]*0.000101325
variable sig3 equal -f_avgp[3]*${ufac}
variable sig3 equal -f_avgp[3]*0.000101325
variable sig4 equal -f_avgp[6]*${ufac}
variable sig4 equal -f_avgp[6]*0.000101325
variable sig5 equal -f_avgp[5]*${ufac}
variable sig5 equal -f_avgp[5]*0.000101325
variable sig6 equal -f_avgp[4]*${ufac}
variable sig6 equal -f_avgp[4]*0.000101325

# Reset box and simulation parameters
clear
  using 1 OpenMP thread(s) per MPI task
# box tilt large
read_restart equil.res
Reading restart file ...
  restart file = 2 Aug 2023, LAMMPS = 2 Aug 2023
  restoring atom style full from restart
  triclinic box = (0 0 0) to (15.3172 13.8463 18.3222) with tilt (-7.7318 0.2463 -0.1382)
WARNING: Triclinic box skew is large. LAMMPS will run inefficiently. (src/domain.cpp:220)
  2 by 2 by 2 MPI processor grid
  pair style reaxff stores no restart info
  365 atoms
Finding 1-2 1-3 1-4 neighbors ...
  special bond factors lj:    0        0        0       
  special bond factors coul:  0        0        0       
     0 = max # of 1-2 neighbors
     0 = max # of 1-3 neighbors
     0 = max # of 1-4 neighbors
     1 = max # of special neighbors
  special bonds CPU = 0.000 seconds
  read_restart CPU = 0.004 seconds

# Negative deformation
variable delta equal -${up}*${len0}
variable delta equal -0.01*${len0}
variable delta equal -0.01*15.3172
variable deltaxy equal -${up}*xy
variable deltaxy equal -0.01*xy
variable deltaxz equal -${up}*xz
variable deltaxz equal -0.01*xz
variable deltayz equal -${up}*yz
variable deltayz equal -0.01*yz
print "*****debug*****"
*****debug*****
print "xy = $(xy), deltaxy = ${deltaxy}"
xy = -7.731799999999999784, deltaxy = 0.077318
print "xz = $(xz), deltaxz = ${deltaxz}"
xz = 0.24629999999999999116, deltaxz = -0.002463
print "yz = $(yz), deltayz = ${deltayz}"
yz = -0.13819999999999998952, deltayz = 0.001382
print "*****"
*****

if "${dir} == 1" then    "fix deform_n all deform ${nthermo} x delta 0 ${delta} xy delta ${deltaxy} xz delta ${deltaxz} remap v units box flip no"
fix deform_n all deform ${nthermo} x delta 0 ${delta} xy delta ${deltaxy} xz delta ${deltaxz} remap v units box flip no
fix deform_n all deform 100 x delta 0 ${delta} xy delta ${deltaxy} xz delta ${deltaxz} remap v units box flip no
fix deform_n all deform 100 x delta 0 -0.153172 xy delta ${deltaxy} xz delta ${deltaxz} remap v units box flip no
fix deform_n all deform 100 x delta 0 -0.153172 xy delta 0.077318 xz delta ${deltaxz} remap v units box flip no
fix deform_n all deform 100 x delta 0 -0.153172 xy delta 0.077318 xz delta -0.002463 remap v units box flip no
if "${dir} == 2" then    "fix deform_n all deform ${nthermo} y delta 0 ${delta} yz delta ${deltayz} remap v units box flip no"
if "${dir} == 3" then    "fix deform_n all deform ${nthermo} z delta 0 ${delta} remap v units box flip no"
if "${dir} == 4" then    "fix deform_n all deform ${nthermo} yz delta ${delta} remap v units box flip no"
if "${dir} == 5" then    "fix deform_n all deform ${nthermo} xz delta ${delta} remap v units box flip no"
if "${dir} == 6" then    "fix deform_n all deform ${nthermo} xy delta ${delta} remap v units box flip no"

# Run MD for Negative deformation
print "*****Negative-deform ${dir} starts.*****"
*****Negative-deform 1 starts.*****
include ff.mod.lmp
# Setup forcefield, system
# undefine any fix ave/* fix before using reset_timestep
if "$(is_defined(fix,avgp))" then "unfix avgp"
if "$(is_defined(fix,avgl))" then "unfix avgl"
reset_timestep 0

# Assign the force field
pair_style reaxff NULL safezone 3.0 mincap 150
pair_coeff * * ${FF}
pair_coeff * * SiOCHN_2018.ff C H O Si
WARNING: Van der Waals parameters for element SI indicate inner wall+shielding, but earlier atoms indicate a different van der Waals method. This may cause division-by-zero errors. Keeping van der Waals setting for earlier atoms. (src/REAXFF/reaxff_ffield.cpp:251)


# charge method for reaxff
fix myqeq all qeq/reaxff 1 0.0 10.0 1.0e-6 reaxff maxiter 400
# Setup neighbor style
neighbor        2 bin
neigh_modify    every 10 delay 0 check yes

# Setup output
thermo		${nthermo}
thermo		100
thermo_style custom step temp pe press vol
# thermo_style custom step vol lx ly lz yz xz xy
thermo_modify norm no
# thermo_modify line multi

# Sample pressure (and length vector)
fix avgp all ave/time  ${nevery} ${nrepeat} ${nfreq} c_thermo_press mode vector
fix avgp all ave/time  10 ${nrepeat} ${nfreq} c_thermo_press mode vector
fix avgp all ave/time  10 10 ${nfreq} c_thermo_press mode vector
fix avgp all ave/time  10 10 100 c_thermo_press mode vector
# variable lx equal lx
# variable ly equal ly
# variable lz equal lz
# fix avgl all ave/time  ${nevery} ${nrepeat} ${nfreq} v_lx v_ly v_lz

# nvt
fix fnvt all nvt temp ${temp} ${temp} ${tdamp}
fix fnvt all nvt temp 300 ${temp} ${tdamp}
fix fnvt all nvt temp 300 300 ${tdamp}
fix fnvt all nvt temp 300 300 50


# Save stress, strain to "./stress_strain/stress_strain.neg${dir}.out"
print "# Stress and strain vectors, ${structure}, negative deformation ${dir}"       file stress_strain/stress_strain.neg${dir}.out screen no
print "# Stress and strain vectors, ${structure}, negative deformation ${dir}"       file stress_strain/stress_strain.neg1.out screen no
fix data all print ${nfreq} "${eps} ${sig1} ${sig2} ${sig3} ${sig4} ${sig5} ${sig6}"       append stress_strain/stress_strain.neg${dir}.out screen no       title "# eps sig1 sig2 sig3 sig4 sig5 sig6"
fix data all print 100 "${eps} ${sig1} ${sig2} ${sig3} ${sig4} ${sig5} ${sig6}"       append stress_strain/stress_strain.neg${dir}.out screen no       title "# eps sig1 sig2 sig3 sig4 sig5 sig6"
fix data all print 100 "${eps} ${sig1} ${sig2} ${sig3} ${sig4} ${sig5} ${sig6}"       append stress_strain/stress_strain.neg1.out screen no       title "# eps sig1 sig2 sig3 sig4 sig5 sig6"

# save trajectory
# if "$(is_defined(dump,dump_neg${dir1}))" then "undump dump_neg${dir1}"
dump dump_neg${dir} all custom/gz ${nthermo} dump/neg_deform${dir}.lammpstrj.gz id type q x y z
dump dump_neg1 all custom/gz ${nthermo} dump/neg_deform${dir}.lammpstrj.gz id type q x y z
dump dump_neg1 all custom/gz 100 dump/neg_deform${dir}.lammpstrj.gz id type q x y z
dump dump_neg1 all custom/gz 100 dump/neg_deform1.lammpstrj.gz id type q x y z
# variable dir1 equal ${dir}
run ${nrun}
run 10000

CITE-CITE-CITE-CITE-CITE-CITE-CITE-CITE-CITE-CITE-CITE-CITE-CITE

Your simulation uses code contributions which should be cited:

- pair reaxff command: doi:10.1016/j.parco.2011.08.005

@Article{Aktulga12,
 author = {H. M. Aktulga and J. C. Fogarty and S. A. Pandit and A. Y. Grama},
 title = {Parallel Reactive Molecular Dynamics: {N}umerical Methods and Algorithmic Techniques},
 journal = {Parallel Computing},
 year =    2012,
 volume =  38,
 number =  {4--5},
 pages =   {245--259}
}

- fix qeq/reaxff command: doi:10.1016/j.parco.2011.08.005

@Article{Aktulga12,
 author = {H. M. Aktulga and J. C. Fogarty and S. A. Pandit and A. Y. Grama},
 title = {Parallel Reactive Molecular Dynamics: {N}umerical Methods and Algorithmic Techniques},
 journal = {Parallel Computing},
 year =    2012,
 volume =  38,
 pages =   {245--259}
}

CITE-CITE-CITE-CITE-CITE-CITE-CITE-CITE-CITE-CITE-CITE-CITE-CITE

Neighbor list info ...
  update: every = 10 steps, delay = 0 steps, check = yes
  max neighbors/atom: 2000, page size: 100000
  master list distance cutoff = 12
  ghost atom cutoff = 12
  binsize = 6, bins = 4 3 4
  2 neighbor lists, perpetual/occasional/extra = 2 0 0
  (1) pair reaxff, perpetual
      attributes: half, newton off, ghost
      pair build: half/bin/newtoff/ghost
      stencil: full/ghost/bin/3d
      bin: standard
  (2) fix qeq/reaxff, perpetual, copy from (1)
      attributes: half, newton off
      pair build: copy
      stencil: none
      bin: none
Per MPI rank memory allocation (min/avg/max) = 131 | 131.4 | 131.8 Mbytes
   Step          Temp          PotEng         Press          Volume    
         0   300           -37619.569      4596.5757      3885.8921    
       100   301.58997     -37626.254      4041.4614      3885.5035    
       200   283.96499     -37614.962     -2654.4208      3885.1149    
       300   265.03471     -37606.81       1476.347       3884.7264    
       400   294.10857     -37637.548      7283.4385      3884.3378    
       500   300.45702     -37616.737      5878.5359      3883.9492    
       600   342.35148     -37641.726      5639.4892      3883.5606    
       700   296.29646     -37600.313      11889.056      3883.172     
       800   289.70163     -37604.958      4825.2487      3882.7834    
       900   290.39763     -37636.919     -509.35764      3882.3948    
      1000   276.71457     -37648.557      14975.642      3882.0062    
      1100   275.85901     -37626.244      6550.5618      3881.6176    
      1200   307.13598     -37639.024      4599.2519      3881.229     
      1300   291.17782     -37606.072      7697.2734      3880.8405    
      1400   301.6757      -37601.266      8257.756       3880.4519    
      1500   285.94735     -37595.528      1721.3258      3880.0633    
      1600   294.79984     -37637.242      12082.131      3879.6747    
      1700   289.68534     -37643.799      8145.1217      3879.2861    
      1800   309.4913      -37657.768     -2217.0027      3878.8975    
      1900   301.81294     -37604.46      -18551.837      3878.5089    
      2000   306.36293     -37606.258     -5858.3435      3878.1203    
      2100   292.9599      -37604.012      8338.0486      3877.7317    
      2200   307.83373     -37644.72       8329.0209      3877.3432    
      2300   273.7927      -37621.648      15301.09       3876.9546    
      2400   301.47533     -37635.415      5081.8928      3876.566     
      2500   300.28769     -37618.345     -5929.9188      3876.1774    
      2600   296.6629      -37613.406      4684.1055      3875.7888    
      2700   311.10487     -37640.864      8461.3728      3875.4002    
      2800   275.6685      -37604.407      8139.2857      3875.0116    
      2900   313.05772     -37621.435     -15.350726      3874.623     
      3000   323.81737     -37614.378     -7026.7373      3874.2344    
      3100   301.59004     -37607.677      309.63472      3873.8459    
      3200   305.28494     -37642.544      5942.1546      3873.4573    
      3300   307.13198     -37641.914      13605.724      3873.0687    
      3400   300.39764     -37624.634      4158.0787      3872.6801    
      3500   282.16586     -37592.69      -5838.7479      3872.2915    
      3600   325.05118     -37601.308      11736.297      3871.9029    
      3700   330.83455     -37612.568      9142.5565      3871.5143    
      3800   302.7464      -37608.141      10271.615      3871.1257    
      3900   307.51567     -37630.401      8168.4008      3870.7371    
      4000   292.27225     -37624.662      15492.442      3870.3486    
      4100   286.94843     -37634.809     -1130.5589      3869.96      
      4200   289.37435     -37656.239      6303.5166      3869.5714    
      4300   290.97316     -37630.01       624.83227      3869.1828    
      4400   307.61535     -37623.711      9994.9881      3868.7942    
      4500   316.59223     -37631.881      1939.2266      3868.4056    
      4600   300.73264     -37618.226      8577.7767      3868.017     
      4700   299.32248     -37631.268     -4221.4717      3867.6284    
      4800   292.61364     -37637.322     -2291.9731      3867.2398    
      4900   279.88451     -37622.893      1467.2327      3866.8512    
      5000   300.54027     -37613.382      1664.034       3866.4627    
      5100   304.6014      -37602.412      11132.838      3866.0741    
      5200   319.73232     -37632.426      2373.2006      3865.6855    
      5300   286.19209     -37619.828      13785.903      3865.2969    
      5400   299.95392     -37632.997      5568.343       3864.9083    
      5500   290.27541     -37616.883      19718.046      3864.5197    
      5600   289.65079     -37612.519      7198.2232      3864.1311    
      5700   318.16866     -37656.701      366.25919      3863.7425    
      5800   262.692       -37618.74      -4989.9416      3863.3539    
      5900   296.96105     -37635.762     -10259.805      3862.9654    
      6000   311.43324     -37629.543     -5483.2874      3862.5768    
      6100   292.97406     -37606.945      19593.076      3862.1882    
      6200   306.2364      -37626.996      3602.6997      3861.7996    
      6300   302.79809     -37637.149      2540.5855      3861.411     
      6400   291.65955     -37649.35      -1252.3606      3861.0224    
      6500   279.76165     -37661.747      11491.664      3860.6338    
      6600   293.77904     -37649.276     -36.565545      3860.2452    
      6700   289.92169     -37626.042      308.3982       3859.8566    
      6800   309.59703     -37633.569      17147.727      3859.4681    
      6900   310.23306     -37623.742      5631.7739      3859.0795    
      7000   309.41942     -37627.624      3698.6876      3858.6909    
      7100   311.57972     -37657.784      9405.1474      3858.3023    
      7200   265.93923     -37620.823      8432.224       3857.9137    
      7300   307.06286     -37652.456     -1760.5016      3857.5251    
      7400   306.1179      -37620.037     -7487.6492      3857.1365    
      7500   294.79501     -37598.239      7205.3035      3856.7479    
      7600   319.11647     -37637.729      3657.4161      3856.3593    
      7700   303.66297     -37627.38       13755.496      3855.9708    
      7800   298.54965     -37620.614      3662.0521      3855.5822    
      7900   311.05284     -37651.911      5796.4608      3855.1936    
      8000   280.31064     -37640.532      15773.766      3854.805     
      8100   281.99965     -37637.266      10034.346      3854.4164    
      8200   304.56418     -37624.647      8267.748       3854.0278    
      8300   291.66987     -37606.025      12576.312      3853.6392    
      8400   294.3339      -37622.853      5074.9526      3853.2506    
      8500   295.0224      -37626.97       6950.1962      3852.862     
      8600   280.26032     -37608.119      17055.044      3852.4734    
      8700   303.97677     -37610.822      8175.8695      3852.0849    
      8800   326.03033     -37618.092     -4428.0151      3851.6963    
      8900   307.62574     -37624.685      6559.5649      3851.3077    
      9000   302.38421     -37637.37       9198.6291      3850.9191    
      9100   285.13939     -37613.109     -715.64849      3850.5305    
      9200   311.439       -37642.947      16159.389      3850.1419    
      9300   271.48587     -37618.418      389.11001      3849.7533    
      9400   273.60649     -37634.414      7239.6756      3849.3647    
      9500   295.2817      -37637.091      2851.9967      3848.9761    
      9600   309.32621     -37622.51      -1775.933       3848.5876    
      9700   307.67215     -37620.014      1148.035       3848.199     
      9800   300.82937     -37623.846      1070.1057      3847.8104    
      9900   289.20777     -37635.968      8563.9634      3847.4218    
     10000   286.3958      -37647.502      7892.9699      3847.0332    
Loop time of 455.983 on 8 procs for 10000 steps with 365 atoms

Performance: 0.947 ns/day, 25.332 hours/ns, 21.931 timesteps/s, 8.005 katom-step/s
98.8% CPU use with 8 MPI tasks x 1 OpenMP threads

MPI task timing breakdown:
Section |  min time  |  avg time  |  max time  |%varavg| %total
---------------------------------------------------------------
Pair    | 320.66     | 366.75     | 409.17     | 154.6 | 80.43
Bond    | 0.028137   | 0.030208   | 0.033113   |   1.0 |  0.01
Neigh   | 3.9826     | 4.6187     | 5.1597     |  17.8 |  1.01
Comm    | 4.1907     | 46.6       | 92.545     | 433.4 | 10.22
Output  | 0.030607   | 0.079529   | 0.1791     |  18.6 |  0.02
Modify  | 37.115     | 37.645     | 38.336     |   6.6 |  8.26
Other   |            | 0.2633     |            |       |  0.06

Nlocal:         45.625 ave          48 max          42 min
Histogram: 1 1 0 0 0 1 2 0 1 2
Nghost:        3366.75 ave        3395 max        3340 min
Histogram: 1 1 1 0 1 0 2 0 1 1
Neighs:        30284.4 ave       31910 max       27857 min
Histogram: 1 0 1 0 0 1 2 0 1 2

Total # of neighbors = 242275
Ave neighs/atom = 663.76712
Ave special neighs/atom = 0
Neighbor list builds = 161
Dangerous builds = 0
unfix deform_n
unfix data
undump dump_neg${dir}
undump dump_neg1

# Reset box and simulation parameters
clear
  using 1 OpenMP thread(s) per MPI task
# box tilt large
read_restart equil.res
Reading restart file ...
  restart file = 2 Aug 2023, LAMMPS = 2 Aug 2023
  restoring atom style full from restart
  triclinic box = (0 0 0) to (15.3172 13.8463 18.3222) with tilt (-7.7318 0.2463 -0.1382)
WARNING: Triclinic box skew is large. LAMMPS will run inefficiently. (src/domain.cpp:220)
  2 by 2 by 2 MPI processor grid
  pair style reaxff stores no restart info
  365 atoms
Finding 1-2 1-3 1-4 neighbors ...
  special bond factors lj:    0        0        0       
  special bond factors coul:  0        0        0       
     0 = max # of 1-2 neighbors
     0 = max # of 1-3 neighbors
     0 = max # of 1-4 neighbors
     1 = max # of special neighbors
  special bonds CPU = 0.000 seconds
  read_restart CPU = 0.003 seconds

# Positive deformation
variable delta equal ${up}*${len0}
variable delta equal 0.01*${len0}
variable delta equal 0.01*15.3172
variable deltaxy equal ${up}*xy
variable deltaxy equal 0.01*xy
variable deltaxz equal ${up}*xz
variable deltaxz equal 0.01*xz
variable deltayz equal ${up}*yz
variable deltayz equal 0.01*yz
if "${dir} == 1" then    "fix deform_p all deform ${nthermo} x delta 0 ${delta} xy delta ${deltaxy} xz delta ${deltaxz} remap v units box"
fix deform_p all deform ${nthermo} x delta 0 ${delta} xy delta ${deltaxy} xz delta ${deltaxz} remap v units box
fix deform_p all deform 100 x delta 0 ${delta} xy delta ${deltaxy} xz delta ${deltaxz} remap v units box
fix deform_p all deform 100 x delta 0 0.153172 xy delta ${deltaxy} xz delta ${deltaxz} remap v units box
fix deform_p all deform 100 x delta 0 0.153172 xy delta -0.077318 xz delta ${deltaxz} remap v units box
fix deform_p all deform 100 x delta 0 0.153172 xy delta -0.077318 xz delta 0.002463 remap v units box
if "${dir} == 2" then    "fix deform_p all deform ${nthermo} y delta 0 ${delta} yz delta ${deltayz} remap v units box"
if "${dir} == 3" then    "fix deform_p all deform ${nthermo} z delta 0 ${delta} remap v units box"
if "${dir} == 4" then    "fix deform_p all deform ${nthermo} yz delta ${delta} remap v units box"
if "${dir} == 5" then    "fix deform_p all deform ${nthermo} xz delta ${delta} remap v units box"
if "${dir} == 6" then    "fix deform_p all deform ${nthermo} xy delta ${delta} remap v units box"

# Run deformation MD
print "*****Positive-deform ${dir} starts.*****"
*****Positive-deform 1 starts.*****
include ff.mod.lmp
# Setup forcefield, system
# undefine any fix ave/* fix before using reset_timestep
if "$(is_defined(fix,avgp))" then "unfix avgp"
if "$(is_defined(fix,avgl))" then "unfix avgl"
reset_timestep 0

# Assign the force field
pair_style reaxff NULL safezone 3.0 mincap 150
pair_coeff * * ${FF}
pair_coeff * * SiOCHN_2018.ff C H O Si
WARNING: Van der Waals parameters for element SI indicate inner wall+shielding, but earlier atoms indicate a different van der Waals method. This may cause division-by-zero errors. Keeping van der Waals setting for earlier atoms. (src/REAXFF/reaxff_ffield.cpp:251)


# charge method for reaxff
fix myqeq all qeq/reaxff 1 0.0 10.0 1.0e-6 reaxff maxiter 400
# Setup neighbor style
neighbor        2 bin
neigh_modify    every 10 delay 0 check yes

# Setup output
thermo		${nthermo}
thermo		100
thermo_style custom step temp pe press vol
# thermo_style custom step vol lx ly lz yz xz xy
thermo_modify norm no
# thermo_modify line multi

# Sample pressure (and length vector)
fix avgp all ave/time  ${nevery} ${nrepeat} ${nfreq} c_thermo_press mode vector
fix avgp all ave/time  10 ${nrepeat} ${nfreq} c_thermo_press mode vector
fix avgp all ave/time  10 10 ${nfreq} c_thermo_press mode vector
fix avgp all ave/time  10 10 100 c_thermo_press mode vector
# variable lx equal lx
# variable ly equal ly
# variable lz equal lz
# fix avgl all ave/time  ${nevery} ${nrepeat} ${nfreq} v_lx v_ly v_lz

# nvt
fix fnvt all nvt temp ${temp} ${temp} ${tdamp}
fix fnvt all nvt temp 300 ${temp} ${tdamp}
fix fnvt all nvt temp 300 300 ${tdamp}
fix fnvt all nvt temp 300 300 50


# Save stress, strain to "./stress_strain/stress_strain.pos${dir}.out"
print "# Stress and strain vectors, ${structure}, positive deformation ${dir}"       file stress_strain/stress_strain.pos${dir}.out screen no
print "# Stress and strain vectors, ${structure}, positive deformation ${dir}"       file stress_strain/stress_strain.pos1.out screen no
fix data all print ${nfreq} "${eps} ${sig1} ${sig2} ${sig3} ${sig4} ${sig5} ${sig6}"       append stress_strain/stress_strain.pos${dir}.out screen no       title "# eps sig1 sig2 sig3 sig4 sig5 sig6"
fix data all print 100 "${eps} ${sig1} ${sig2} ${sig3} ${sig4} ${sig5} ${sig6}"       append stress_strain/stress_strain.pos${dir}.out screen no       title "# eps sig1 sig2 sig3 sig4 sig5 sig6"
fix data all print 100 "${eps} ${sig1} ${sig2} ${sig3} ${sig4} ${sig5} ${sig6}"       append stress_strain/stress_strain.pos1.out screen no       title "# eps sig1 sig2 sig3 sig4 sig5 sig6"

# # compute MSD and RDF
# compute msd1 all msd
# fix myMSD all ave/time ${nthermo} 1 ${nthermo} c_msd1[1] c_msd1[2] c_msd1[3] c_msd1[4] c_thermo_temp #     file stress_strain/msd_${dir}.out #     title2 "# TimeStep MSD_X MSD_Y MSD_Z MSD_Total Temperture"
# C-C C-Si Si-O C-H Si-Si
# compute rdf1 all rdf 100 1 1 1 4 3 4 1 2 4 4 cutoff 5.0
# fix myRDF all ave/time ${nthermo} 1 ${nthermo} c_rdf1[*] #     file stress_strain/rdf_${dir}.out mode vector #     title3 "# Row r g1(r) coor1(r) ..."

# save trajectory
# if "$(is_defined(dump,dump_pos${dir1}))" then "undump dump_pos${dir1}"
dump dump_pos${dir} all custom/gz ${nthermo} dump/pos_deform${dir}.lammpstrj.gz id type q x y z
dump dump_pos1 all custom/gz ${nthermo} dump/pos_deform${dir}.lammpstrj.gz id type q x y z
dump dump_pos1 all custom/gz 100 dump/pos_deform${dir}.lammpstrj.gz id type q x y z
dump dump_pos1 all custom/gz 100 dump/pos_deform1.lammpstrj.gz id type q x y z
run ${nrun}
run 10000
Neighbor list info ...
  update: every = 10 steps, delay = 0 steps, check = yes
  max neighbors/atom: 2000, page size: 100000
  master list distance cutoff = 12
  ghost atom cutoff = 12
  binsize = 6, bins = 4 3 4
  2 neighbor lists, perpetual/occasional/extra = 2 0 0
  (1) pair reaxff, perpetual
      attributes: half, newton off, ghost
      pair build: half/bin/newtoff/ghost
      stencil: full/ghost/bin/3d
      bin: standard
  (2) fix qeq/reaxff, perpetual, copy from (1)
      attributes: half, newton off
      pair build: copy
      stencil: none
      bin: none
Per MPI rank memory allocation (min/avg/max) = 131 | 131.4 | 131.8 Mbytes
   Step          Temp          PotEng         Press          Volume    
         0   300           -37619.569      4596.5757      3885.8921    
       100   301.59848     -37626.261      4041.0684      3886.2807    
       200   283.79754     -37614.943     -2832.9436      3886.6693    
       300   265.43115     -37605.935      1448.7339      3887.0579    
       400   295.29674     -37636.519      7123.5571      3887.4465    
       500   301.58334     -37616.297      5328.1733      3887.8351    
       600   344.35503     -37642.584      5006.7315      3888.2237    
       700   295.90203     -37599.732      11265.843      3888.6122    
       800   287.60732     -37603.006      6675.2314      3889.0008    
       900   294.37535     -37639.073      2778.2916      3889.3894    
      1000   273.29165     -37646.712      15162.423      3889.778     
      1100   277.34424     -37629.966      11496.218      3890.1666    
      1200   297.5283      -37626.765      2243.106       3890.5552    
      1300   279.69152     -37592.933      4974.2077      3890.9438    
      1400   319.45777     -37629.53       3407.0578      3891.3324    
      1500   283.13378     -37611.761      5821.9123      3891.721     
      1600   280.7384      -37632.94       6555.5101      3892.1095    
      1700   298.88871     -37644.447      6673.9546      3892.4981    
      1800   300.1944      -37615.803     -3359.8636      3892.8867    
      1900   287.47705     -37598.131     -11038.841      3893.2753    
      2000   313.25591     -37631.29      -12162.73       3893.6639    
      2100   305.25764     -37631.505      1235.1729      3894.0525    
      2200   298.53892     -37630.84       5325.7683      3894.4411    
      2300   287.79441     -37638.279      17536.909      3894.8297    
      2400   279.63545     -37622.873      1795.8492      3895.2183    
      2500   305.09496     -37617.385     -4999.4421      3895.6069    
      2600   318.47339     -37624.604     -6616.562       3895.9954    
      2700   296.27489     -37612.975      1170.4515      3896.384     
      2800   313.40004     -37648.408      17924.954      3896.7726    
      2900   291.68234     -37652.271      5166.2597      3897.1612    
      3000   255.53049     -37640.245      14424.884      3897.5498    
      3100   304.89157     -37671.035      18521.663      3897.9384    
      3200   278.59017     -37621.086      16292.564      3898.327     
      3300   300.89698     -37625.786      1641.7218      3898.7156    
      3400   302.5086      -37617.264      3451.4376      3899.1042    
      3500   286.37509     -37591.427      7955.0317      3899.4927    
      3600   304.7924      -37614.608     -10951.427      3899.8813    
      3700   288.59078     -37621.72      -10812.676      3900.2699    
      3800   285.18688     -37640.27       4570.7099      3900.6585    
      3900   288.76443     -37646.699     -5043.714       3901.0471    
      4000   275.04406     -37600.206      6266.7747      3901.4357    
      4100   292.50493     -37602.557      14407.401      3901.8243    
      4200   298.76151     -37613.316     -15587.297      3902.2129    
      4300   319.91967     -37644.055      6221.3351      3902.6015    
      4400   307.11968     -37650.579      19937.216      3902.99      
      4500   281.09926     -37643.296      6991.0152      3903.3786    
      4600   289.05944     -37667.483      6527.0744      3903.7672    
      4700   292.99377     -37641.064      18504.288      3904.1558    
      4800   296.55656     -37619.636      497.85956      3904.5444    
      4900   299.24224     -37612.211      9186.383       3904.933     
      5000   310.72446     -37636.686      6280.461       3905.3216    
      5100   290.78182     -37641.321      2225.6619      3905.7102    
      5200   265.49727     -37619.319     -523.07804      3906.0988    
      5300   301.19889     -37637.837      21508.885      3906.4873    
      5400   306.24408     -37611.673      13153.656      3906.8759    
      5500   321.98862     -37649.354      16564.154      3907.2645    
      5600   323.62315     -37696.197     -8040.4454      3907.6531    
      5700   275.62954     -37663.385     -1471.0044      3908.0417    
      5800   289.82675     -37694.81      -7043.8297      3908.4303    
      5900   315.13846     -37721.987      2186.9133      3908.8189    
      6000   311.46279     -37694.596      2926.2612      3909.2075    
      6100   341.54475     -37706.025      10498.157      3909.5961    
      6200   290.49825     -37649.914      18706.145      3909.9847    
      6300   309.93366     -37711.516      7352.5075      3910.3732    
      6400   291.01486     -37704.325      16589.322      3910.7618    
      6500   300.62443     -37698.754      5483.9578      3911.1504    
      6600   301.15407     -37676.963     -6166.9216      3911.539     
      6700   315.77752     -37682.292      3337.9774      3911.9276    
      6800   290.83616     -37689.384      4363.2154      3912.3162    
      6900   279.0589      -37686.565      4040.2622      3912.7048    
      7000   303.39346     -37702.008      9761.0004      3913.0934    
      7100   309.34017     -37688.046      7830.5308      3913.482     
      7200   311.62398     -37674.99       2483.2353      3913.8705    
      7300   314.32916     -37691.035     -7409.632       3914.2591    
      7400   293.87689     -37701.015      1732.4222      3914.6477    
      7500   298.84513     -37701.633      7687.9584      3915.0363    
      7600   296.10613     -37676.704      8966.7232      3915.4249    
      7700   298.58264     -37677.177      2516.2414      3915.8135    
      7800   294.89766     -37684.821      4525.4931      3916.2021    
      7900   264.04707     -37689.199      2921.847       3916.5907    
      8000   295.06994     -37718.706      16073.324      3916.9793    
      8100   310.33744     -37709.67       22071.796      3917.3678    
      8200   291.98724     -37681.807      9422.4942      3917.7564    
      8300   309.2473      -37692.048      17070.521      3918.145     
      8400   316.31983     -37691.457      9894.4083      3918.5336    
      8500   315.09551     -37690.824      10628.382      3918.9222    
      8600   293.61039     -37687.205     -6984.9716      3919.3108    
      8700   287.994       -37695.763      1261.281       3919.6994    
      8800   286.27387     -37677.867      3456.6199      3920.088     
      8900   313.68464     -37676.852      1923.8382      3920.4766    
      9000   314.37391     -37680.516     -1730.4429      3920.8651    
      9100   293.832       -37676.783      1724.9353      3921.2537    
      9200   289.66107     -37683.893     -752.70212      3921.6423    
      9300   290.20319     -37679.795      5825.4221      3922.0309    
      9400   306.25969     -37688.341      8188.0806      3922.4195    
      9500   297.83589     -37679.289      4524.7268      3922.8081    
      9600   282.99967     -37671.19      -3335.3193      3923.1967    
      9700   305.6108      -37695.47       21839.529      3923.5853    
      9800   297.76076     -37668.9        17427.531      3923.9739    
      9900   319.54239     -37666.702      4371.3637      3924.3625    
     10000   308.0639      -37665.459     -17383.911      3924.751     
Loop time of 428.809 on 8 procs for 10000 steps with 365 atoms

Performance: 1.007 ns/day, 23.823 hours/ns, 23.320 timesteps/s, 8.512 katom-step/s
98.9% CPU use with 8 MPI tasks x 1 OpenMP threads

MPI task timing breakdown:
Section |  min time  |  avg time  |  max time  |%varavg| %total
---------------------------------------------------------------
Pair    | 262.36     | 340.7      | 380.77     | 227.5 | 79.45
Bond    | 0.026431   | 0.028064   | 0.029222   |   0.5 |  0.01
Neigh   | 3.52       | 4.6833     | 5.3574     |  29.3 |  1.09
Comm    | 5.8765     | 45.94      | 124.26     | 619.4 | 10.71
Output  | 0.031642   | 0.086274   | 0.19887    |  20.1 |  0.02
Modify  | 36.285     | 37.008     | 38.209     |  10.7 |  8.63
Other   |            | 0.367      |            |       |  0.09

Nlocal:         45.625 ave          51 max          37 min
Histogram: 1 0 0 1 1 0 1 1 2 1
Nghost:        3307.62 ave        3335 max        3286 min
Histogram: 2 1 1 0 0 0 2 1 0 1
Neighs:          29629 ave       33015 max       24414 min
Histogram: 1 0 0 2 0 0 1 1 2 1

Total # of neighbors = 237032
Ave neighs/atom = 649.40274
Ave special neighs/atom = 0
Neighbor list builds = 166
Dangerous builds = 0
unfix deform_p
unfix data
undump dump_pos${dir}
undump dump_pos1

# Delete dir to make sure it is not reused
variable dir delete
# uyy Perturbation
variable dir equal 2
include displace.mod.lmp
# Find which length (epsilon) to calculate
if "${dir} == 1" then    "variable len0 equal ${lx0}"    "variable dlen equal lx-${len0}"
if "${dir} == 2" then    "variable len0 equal ${ly0}"    "variable dlen equal ly-${len0}"
variable len0 equal ${ly0}
variable len0 equal 13.8463
variable dlen equal ly-${len0}
variable dlen equal ly-13.8463
if "${dir} == 3" then    "variable len0 equal ${lz0}"    "variable dlen equal lz-${len0}"
if "${dir} == 4" then    "variable len0 equal ${lx0}"    "variable dlen equal 2*(yz-${yz0})"
if "${dir} == 5" then    "variable len0 equal ${ly0}"    "variable dlen equal 2*(xz-${xz0})"
if "${dir} == 6" then    "variable len0 equal ${lz0}"    "variable dlen equal 2*(xy-${xy0})"

# strain vector (epsilon)
variable eps equal v_dlen/v_len0

# stress vector (sigma)
variable sig1 equal -f_avgp[1]*${ufac}
variable sig1 equal -f_avgp[1]*0.000101325
variable sig2 equal -f_avgp[2]*${ufac}
variable sig2 equal -f_avgp[2]*0.000101325
variable sig3 equal -f_avgp[3]*${ufac}
variable sig3 equal -f_avgp[3]*0.000101325
variable sig4 equal -f_avgp[6]*${ufac}
variable sig4 equal -f_avgp[6]*0.000101325
variable sig5 equal -f_avgp[5]*${ufac}
variable sig5 equal -f_avgp[5]*0.000101325
variable sig6 equal -f_avgp[4]*${ufac}
variable sig6 equal -f_avgp[4]*0.000101325

# Reset box and simulation parameters
clear
  using 1 OpenMP thread(s) per MPI task
# box tilt large
read_restart equil.res
Reading restart file ...
  restart file = 2 Aug 2023, LAMMPS = 2 Aug 2023
  restoring atom style full from restart
  triclinic box = (0 0 0) to (15.3172 13.8463 18.3222) with tilt (-7.7318 0.2463 -0.1382)
WARNING: Triclinic box skew is large. LAMMPS will run inefficiently. (src/domain.cpp:220)
  2 by 2 by 2 MPI processor grid
  pair style reaxff stores no restart info
  365 atoms
Finding 1-2 1-3 1-4 neighbors ...
  special bond factors lj:    0        0        0       
  special bond factors coul:  0        0        0       
     0 = max # of 1-2 neighbors
     0 = max # of 1-3 neighbors
     0 = max # of 1-4 neighbors
     1 = max # of special neighbors
  special bonds CPU = 0.000 seconds
  read_restart CPU = 0.003 seconds

# Negative deformation
variable delta equal -${up}*${len0}
variable delta equal -0.01*${len0}
variable delta equal -0.01*13.8463
variable deltaxy equal -${up}*xy
variable deltaxy equal -0.01*xy
variable deltaxz equal -${up}*xz
variable deltaxz equal -0.01*xz
variable deltayz equal -${up}*yz
variable deltayz equal -0.01*yz
print "*****debug*****"
*****debug*****
print "xy = $(xy), deltaxy = ${deltaxy}"
xy = -7.731799999999999784, deltaxy = 0.077318
print "xz = $(xz), deltaxz = ${deltaxz}"
xz = 0.24629999999999999116, deltaxz = -0.002463
print "yz = $(yz), deltayz = ${deltayz}"
yz = -0.13819999999999998952, deltayz = 0.001382
print "*****"
*****

if "${dir} == 1" then    "fix deform_n all deform ${nthermo} x delta 0 ${delta} xy delta ${deltaxy} xz delta ${deltaxz} remap v units box flip no"
if "${dir} == 2" then    "fix deform_n all deform ${nthermo} y delta 0 ${delta} yz delta ${deltayz} remap v units box flip no"
fix deform_n all deform ${nthermo} y delta 0 ${delta} yz delta ${deltayz} remap v units box flip no
fix deform_n all deform 100 y delta 0 ${delta} yz delta ${deltayz} remap v units box flip no
fix deform_n all deform 100 y delta 0 -0.138463 yz delta ${deltayz} remap v units box flip no
fix deform_n all deform 100 y delta 0 -0.138463 yz delta 0.001382 remap v units box flip no
if "${dir} == 3" then    "fix deform_n all deform ${nthermo} z delta 0 ${delta} remap v units box flip no"
if "${dir} == 4" then    "fix deform_n all deform ${nthermo} yz delta ${delta} remap v units box flip no"
if "${dir} == 5" then    "fix deform_n all deform ${nthermo} xz delta ${delta} remap v units box flip no"
if "${dir} == 6" then    "fix deform_n all deform ${nthermo} xy delta ${delta} remap v units box flip no"

# Run MD for Negative deformation
print "*****Negative-deform ${dir} starts.*****"
*****Negative-deform 2 starts.*****
include ff.mod.lmp
# Setup forcefield, system
# undefine any fix ave/* fix before using reset_timestep
if "$(is_defined(fix,avgp))" then "unfix avgp"
if "$(is_defined(fix,avgl))" then "unfix avgl"
reset_timestep 0

# Assign the force field
pair_style reaxff NULL safezone 3.0 mincap 150
pair_coeff * * ${FF}
pair_coeff * * SiOCHN_2018.ff C H O Si
WARNING: Van der Waals parameters for element SI indicate inner wall+shielding, but earlier atoms indicate a different van der Waals method. This may cause division-by-zero errors. Keeping van der Waals setting for earlier atoms. (src/REAXFF/reaxff_ffield.cpp:251)


# charge method for reaxff
fix myqeq all qeq/reaxff 1 0.0 10.0 1.0e-6 reaxff maxiter 400
# Setup neighbor style
neighbor        2 bin
neigh_modify    every 10 delay 0 check yes

# Setup output
thermo		${nthermo}
thermo		100
thermo_style custom step temp pe press vol
# thermo_style custom step vol lx ly lz yz xz xy
thermo_modify norm no
# thermo_modify line multi

# Sample pressure (and length vector)
fix avgp all ave/time  ${nevery} ${nrepeat} ${nfreq} c_thermo_press mode vector
fix avgp all ave/time  10 ${nrepeat} ${nfreq} c_thermo_press mode vector
fix avgp all ave/time  10 10 ${nfreq} c_thermo_press mode vector
fix avgp all ave/time  10 10 100 c_thermo_press mode vector
# variable lx equal lx
# variable ly equal ly
# variable lz equal lz
# fix avgl all ave/time  ${nevery} ${nrepeat} ${nfreq} v_lx v_ly v_lz

# nvt
fix fnvt all nvt temp ${temp} ${temp} ${tdamp}
fix fnvt all nvt temp 300 ${temp} ${tdamp}
fix fnvt all nvt temp 300 300 ${tdamp}
fix fnvt all nvt temp 300 300 50


# Save stress, strain to "./stress_strain/stress_strain.neg${dir}.out"
print "# Stress and strain vectors, ${structure}, negative deformation ${dir}"       file stress_strain/stress_strain.neg${dir}.out screen no
print "# Stress and strain vectors, ${structure}, negative deformation ${dir}"       file stress_strain/stress_strain.neg2.out screen no
fix data all print ${nfreq} "${eps} ${sig1} ${sig2} ${sig3} ${sig4} ${sig5} ${sig6}"       append stress_strain/stress_strain.neg${dir}.out screen no       title "# eps sig1 sig2 sig3 sig4 sig5 sig6"
fix data all print 100 "${eps} ${sig1} ${sig2} ${sig3} ${sig4} ${sig5} ${sig6}"       append stress_strain/stress_strain.neg${dir}.out screen no       title "# eps sig1 sig2 sig3 sig4 sig5 sig6"
fix data all print 100 "${eps} ${sig1} ${sig2} ${sig3} ${sig4} ${sig5} ${sig6}"       append stress_strain/stress_strain.neg2.out screen no       title "# eps sig1 sig2 sig3 sig4 sig5 sig6"

# save trajectory
# if "$(is_defined(dump,dump_neg${dir1}))" then "undump dump_neg${dir1}"
dump dump_neg${dir} all custom/gz ${nthermo} dump/neg_deform${dir}.lammpstrj.gz id type q x y z
dump dump_neg2 all custom/gz ${nthermo} dump/neg_deform${dir}.lammpstrj.gz id type q x y z
dump dump_neg2 all custom/gz 100 dump/neg_deform${dir}.lammpstrj.gz id type q x y z
dump dump_neg2 all custom/gz 100 dump/neg_deform2.lammpstrj.gz id type q x y z
# variable dir1 equal ${dir}
run ${nrun}
run 10000
Neighbor list info ...
  update: every = 10 steps, delay = 0 steps, check = yes
  max neighbors/atom: 2000, page size: 100000
  master list distance cutoff = 12
  ghost atom cutoff = 12
  binsize = 6, bins = 4 3 4
  2 neighbor lists, perpetual/occasional/extra = 2 0 0
  (1) pair reaxff, perpetual
      attributes: half, newton off, ghost
      pair build: half/bin/newtoff/ghost
      stencil: full/ghost/bin/3d
      bin: standard
  (2) fix qeq/reaxff, perpetual, copy from (1)
      attributes: half, newton off
      pair build: copy
      stencil: none
      bin: none
Per MPI rank memory allocation (min/avg/max) = 131 | 131.4 | 131.8 Mbytes
   Step          Temp          PotEng         Press          Volume    
         0   300           -37619.569      4596.5757      3885.8921    
       100   301.5955      -37626.26       4041.8521      3885.5035    
       200   283.92518     -37614.979     -2618.2487      3885.1149    
       300   265.33224     -37606.364      1668.5898      3884.7264    
       400   294.46089     -37636.645      7392.8383      3884.3378    
       500   300.95432     -37616.544      6109.1495      3883.9492    
       600   342.9925      -37641.667      5750.6114      3883.5606    
       700   295.07809     -37598.178      12247.642      3883.172     
       800   289.9518      -37604.654      4874.3941      3882.7834    
       900   290.94053     -37638.129      275.68454      3882.3948    
      1000   276.26318     -37648.026      14705.797      3882.0062    
      1100   274.82625     -37625.347      8670.3384      3881.6176    
      1200   298.79458     -37627.081      4297.8538      3881.229     
      1300   291.77515     -37604.394      5786.9737      3880.8405    
      1400   304.13999     -37609.896      7343.1248      3880.4519    
      1500   279.63849     -37601.031      4602.664       3880.0633    
      1600   301.41379     -37649.635      14090.101      3879.6747    
      1700   291.48251     -37633.999      6079.3258      3879.2861    
      1800   309.32841     -37615.62       1298.8826      3878.8975    
      1900   308.16246     -37601.176     -409.48854      3878.5089    
      2000   308.271       -37621.278      850.89607      3878.1203    
      2100   284.80751     -37614.214      13285.49       3877.7317    
      2200   313.06884     -37637.091      7684.2294      3877.3432    
      2300   307.85663     -37609.725     -1460.4922      3876.9546    
      2400   314.87175     -37588.143     -6297.2615      3876.566     
      2500   320.90121     -37608.593     -2649.2326      3876.1774    
      2600   290.1215      -37604.494     -3795.54        3875.7888    
      2700   299.61614     -37628.273     -6226.8455      3875.4002    
      2800   299.06815     -37635.947      550.6728       3875.0116    
      2900   282.49663     -37616.641     -5554.7505      3874.623     
      3000   309.77481     -37615.658      10497.628      3874.2344    
      3100   324.15054     -37621.729      10510.127      3873.8459    
      3200   304.95215     -37616.175      14736.141      3873.4573    
      3300   296.64323     -37621.424      4539.9881      3873.0687    
      3400   321.22376     -37650.608      17708.467      3872.6801    
      3500   288.31939     -37616.657      2817.4317      3872.2915    
      3600   304.33298     -37634.507      12770.988      3871.9029    
      3700   285.8302      -37619.779      11300.843      3871.5143    
      3800   308.53693     -37637.266      11476.125      3871.1257    
      3900   287.95787     -37601.438      10537.082      3870.7371    
      4000   307.78875     -37597.823      7166.5205      3870.3486    
      4100   299.32457     -37602.094     -5071.6032      3869.96      
      4200   286.80938     -37609.85      -1345.3179      3869.5714    
      4300   292.99113     -37616.911      7623.9861      3869.1828    
      4400   304.11213     -37624.208      20437.036      3868.7942    
      4500   316.23836     -37640.228      1437.9601      3868.4056    
      4600   289.91346     -37620.059      4378.6256      3868.017     
      4700   285.1637      -37630.373      9520.9776      3867.6284    
      4800   296.8457      -37670.749      126.77046      3867.2398    
      4900   279.74456     -37651.22       8338.4018      3866.8512    
      5000   303.40506     -37643.361      9727.2808      3866.4627    
      5100   319.11326     -37652.893      5559.2393      3866.0741    
      5200   305.26823     -37646.198      2775.4247      3865.6855    
      5300   294.89745     -37658.47       7692.2548      3865.2969    
      5400   296.63711     -37670.321      17869.155      3864.9083    
      5500   300.87704     -37641.453     -3575.667       3864.5197    
      5600   311.73937     -37631.835      1884.6564      3864.1311    
      5700   328.84136     -37664.924      20370.456      3863.7425    
      5800   270.26671     -37628.344      10317.771      3863.3539    
      5900   302.5657      -37667.295      14431.927      3862.9654    
      6000   288.72677     -37629.029      13980.171      3862.5768    
      6100   311.36617     -37638.715      4253.15        3862.1882    
      6200   300.79057     -37647.871      5034.3931      3861.7996    
      6300   282.43092     -37662.571      18021.635      3861.411     
      6400   280.70879     -37648.736      11899.182      3861.0224    
      6500   313.43446     -37655.651     -4370.4006      3860.6338    
      6600   293.5811      -37628.576     -3511.1597      3860.2452    
      6700   309.53956     -37659.271     -2922.3518      3859.8566    
      6800   286.43521     -37662.115     -8845.5565      3859.4681    
      6900   282.11466     -37659.637     -8240.1635      3859.0795    
      7000   314.32395     -37647.179     -12702.556      3858.6909    
      7100   291.64438     -37615.074     -8657.0477      3858.3023    
      7200   310.18094     -37650.809      627.58614      3857.9137    
      7300   297.94629     -37662.811      1109.596       3857.5251    
      7400   287.76004     -37661.884      6740.5679      3857.1365    
      7500   305.27287     -37666.598     -6203.9362      3856.7479    
      7600   347.21547     -37684.624      10159.989      3856.3593    
      7700   327.20188     -37696.528      7035.61        3855.9708    
      7800   303.24945     -37708.003     -2558.678       3855.5822    
      7900   300.35472     -37734.832      4724.0299      3855.1936    
      8000   284.08133     -37738.501      21189.82       3854.805     
      8100   301.20613     -37757.544      19623.843      3854.4164    
      8200   303.94161     -37749.621      19902.505      3854.0278    
      8300   317.89597     -37746.639      7396.7765      3853.6392    
      8400   307.90844     -37715.02       5664.1488      3853.2506    
      8500   335.81464     -37723.3        10068.973      3852.862     
      8600   312.78724     -37710.561      16804.715      3852.4734    
      8700   293.1964      -37730.1        9030.4862      3852.0849    
      8800   284.40627     -37738.43      -5009.8663      3851.6963    
      8900   298.46272     -37745.071      7886.5844      3851.3077    
      9000   305.21811     -37733.018     -552.00533      3850.9191    
      9100   289.55206     -37700.759      7094.7776      3850.5305    
      9200   313.40145     -37704.551      802.4702       3850.1419    
      9300   296.6086      -37704.37       4023.4053      3849.7533    
      9400   330.38522     -37773.467      8569.019       3849.3647    
      9500   316.49675     -37781.245      13227.081      3848.9761    
      9600   299.80728     -37786.041      20683.915      3848.5876    
      9700   322.2634      -37824.535      6008.6586      3848.199     
      9800   283.13365     -37798.385      15367.925      3847.8104    
      9900   291.65689     -37819.122     -4239.6284      3847.4218    
     10000   287.56353     -37815.077     -8593.4416      3847.0332    
Loop time of 427.916 on 8 procs for 10000 steps with 365 atoms

Performance: 1.010 ns/day, 23.773 hours/ns, 23.369 timesteps/s, 8.530 katom-step/s
98.9% CPU use with 8 MPI tasks x 1 OpenMP threads

MPI task timing breakdown:
Section |  min time  |  avg time  |  max time  |%varavg| %total
---------------------------------------------------------------
Pair    | 254.64     | 334.56     | 379.84     | 263.1 | 78.18
Bond    | 0.024985   | 0.027125   | 0.028836   |   0.7 |  0.01
Neigh   | 3.6728     | 4.7941     | 5.5569     |  33.3 |  1.12
Comm    | 4.7595     | 49.977     | 129.91     | 680.9 | 11.68
Output  | 0.030595   | 0.085907   | 0.2        |  20.4 |  0.02
Modify  | 37.429     | 38.226     | 39.355     |  12.0 |  8.93
Other   |            | 0.2424     |            |       |  0.06

Nlocal:         45.625 ave          55 max          41 min
Histogram: 2 0 3 1 0 1 0 0 0 1
Nghost:        3402.25 ave        3446 max        3366 min
Histogram: 1 0 3 1 0 0 1 0 1 1
Neighs:          30237 ave       36184 max       27197 min
Histogram: 2 0 2 2 1 0 0 0 0 1

Total # of neighbors = 241896
Ave neighs/atom = 662.72877
Ave special neighs/atom = 0
Neighbor list builds = 172
Dangerous builds = 0
unfix deform_n
unfix data
undump dump_neg${dir}
undump dump_neg2

# Reset box and simulation parameters
clear
  using 1 OpenMP thread(s) per MPI task
# box tilt large
read_restart equil.res
Reading restart file ...
  restart file = 2 Aug 2023, LAMMPS = 2 Aug 2023
  restoring atom style full from restart
  triclinic box = (0 0 0) to (15.3172 13.8463 18.3222) with tilt (-7.7318 0.2463 -0.1382)
WARNING: Triclinic box skew is large. LAMMPS will run inefficiently. (src/domain.cpp:220)
  2 by 2 by 2 MPI processor grid
  pair style reaxff stores no restart info
  365 atoms
Finding 1-2 1-3 1-4 neighbors ...
  special bond factors lj:    0        0        0       
  special bond factors coul:  0        0        0       
     0 = max # of 1-2 neighbors
     0 = max # of 1-3 neighbors
     0 = max # of 1-4 neighbors
     1 = max # of special neighbors
  special bonds CPU = 0.000 seconds
  read_restart CPU = 0.003 seconds

# Positive deformation
variable delta equal ${up}*${len0}
variable delta equal 0.01*${len0}
variable delta equal 0.01*13.8463
variable deltaxy equal ${up}*xy
variable deltaxy equal 0.01*xy
variable deltaxz equal ${up}*xz
variable deltaxz equal 0.01*xz
variable deltayz equal ${up}*yz
variable deltayz equal 0.01*yz
if "${dir} == 1" then    "fix deform_p all deform ${nthermo} x delta 0 ${delta} xy delta ${deltaxy} xz delta ${deltaxz} remap v units box"
if "${dir} == 2" then    "fix deform_p all deform ${nthermo} y delta 0 ${delta} yz delta ${deltayz} remap v units box"
fix deform_p all deform ${nthermo} y delta 0 ${delta} yz delta ${deltayz} remap v units box
fix deform_p all deform 100 y delta 0 ${delta} yz delta ${deltayz} remap v units box
fix deform_p all deform 100 y delta 0 0.138463 yz delta ${deltayz} remap v units box
fix deform_p all deform 100 y delta 0 0.138463 yz delta -0.001382 remap v units box
if "${dir} == 3" then    "fix deform_p all deform ${nthermo} z delta 0 ${delta} remap v units box"
if "${dir} == 4" then    "fix deform_p all deform ${nthermo} yz delta ${delta} remap v units box"
if "${dir} == 5" then    "fix deform_p all deform ${nthermo} xz delta ${delta} remap v units box"
if "${dir} == 6" then    "fix deform_p all deform ${nthermo} xy delta ${delta} remap v units box"

# Run deformation MD
print "*****Positive-deform ${dir} starts.*****"
*****Positive-deform 2 starts.*****
include ff.mod.lmp
# Setup forcefield, system
# undefine any fix ave/* fix before using reset_timestep
if "$(is_defined(fix,avgp))" then "unfix avgp"
if "$(is_defined(fix,avgl))" then "unfix avgl"
reset_timestep 0

# Assign the force field
pair_style reaxff NULL safezone 3.0 mincap 150
pair_coeff * * ${FF}
pair_coeff * * SiOCHN_2018.ff C H O Si
WARNING: Van der Waals parameters for element SI indicate inner wall+shielding, but earlier atoms indicate a different van der Waals method. This may cause division-by-zero errors. Keeping van der Waals setting for earlier atoms. (src/REAXFF/reaxff_ffield.cpp:251)


# charge method for reaxff
fix myqeq all qeq/reaxff 1 0.0 10.0 1.0e-6 reaxff maxiter 400
# Setup neighbor style
neighbor        2 bin
neigh_modify    every 10 delay 0 check yes

# Setup output
thermo		${nthermo}
thermo		100
thermo_style custom step temp pe press vol
# thermo_style custom step vol lx ly lz yz xz xy
thermo_modify norm no
# thermo_modify line multi

# Sample pressure (and length vector)
fix avgp all ave/time  ${nevery} ${nrepeat} ${nfreq} c_thermo_press mode vector
fix avgp all ave/time  10 ${nrepeat} ${nfreq} c_thermo_press mode vector
fix avgp all ave/time  10 10 ${nfreq} c_thermo_press mode vector
fix avgp all ave/time  10 10 100 c_thermo_press mode vector
# variable lx equal lx
# variable ly equal ly
# variable lz equal lz
# fix avgl all ave/time  ${nevery} ${nrepeat} ${nfreq} v_lx v_ly v_lz

# nvt
fix fnvt all nvt temp ${temp} ${temp} ${tdamp}
fix fnvt all nvt temp 300 ${temp} ${tdamp}
fix fnvt all nvt temp 300 300 ${tdamp}
fix fnvt all nvt temp 300 300 50


# Save stress, strain to "./stress_strain/stress_strain.pos${dir}.out"
print "# Stress and strain vectors, ${structure}, positive deformation ${dir}"       file stress_strain/stress_strain.pos${dir}.out screen no
print "# Stress and strain vectors, ${structure}, positive deformation ${dir}"       file stress_strain/stress_strain.pos2.out screen no
fix data all print ${nfreq} "${eps} ${sig1} ${sig2} ${sig3} ${sig4} ${sig5} ${sig6}"       append stress_strain/stress_strain.pos${dir}.out screen no       title "# eps sig1 sig2 sig3 sig4 sig5 sig6"
fix data all print 100 "${eps} ${sig1} ${sig2} ${sig3} ${sig4} ${sig5} ${sig6}"       append stress_strain/stress_strain.pos${dir}.out screen no       title "# eps sig1 sig2 sig3 sig4 sig5 sig6"
fix data all print 100 "${eps} ${sig1} ${sig2} ${sig3} ${sig4} ${sig5} ${sig6}"       append stress_strain/stress_strain.pos2.out screen no       title "# eps sig1 sig2 sig3 sig4 sig5 sig6"

# # compute MSD and RDF
# compute msd1 all msd
# fix myMSD all ave/time ${nthermo} 1 ${nthermo} c_msd1[1] c_msd1[2] c_msd1[3] c_msd1[4] c_thermo_temp #     file stress_strain/msd_${dir}.out #     title2 "# TimeStep MSD_X MSD_Y MSD_Z MSD_Total Temperture"
# C-C C-Si Si-O C-H Si-Si
# compute rdf1 all rdf 100 1 1 1 4 3 4 1 2 4 4 cutoff 5.0
# fix myRDF all ave/time ${nthermo} 1 ${nthermo} c_rdf1[*] #     file stress_strain/rdf_${dir}.out mode vector #     title3 "# Row r g1(r) coor1(r) ..."

# save trajectory
# if "$(is_defined(dump,dump_pos${dir1}))" then "undump dump_pos${dir1}"
dump dump_pos${dir} all custom/gz ${nthermo} dump/pos_deform${dir}.lammpstrj.gz id type q x y z
dump dump_pos2 all custom/gz ${nthermo} dump/pos_deform${dir}.lammpstrj.gz id type q x y z
dump dump_pos2 all custom/gz 100 dump/pos_deform${dir}.lammpstrj.gz id type q x y z
dump dump_pos2 all custom/gz 100 dump/pos_deform2.lammpstrj.gz id type q x y z
run ${nrun}
run 10000
Neighbor list info ...
  update: every = 10 steps, delay = 0 steps, check = yes
  max neighbors/atom: 2000, page size: 100000
  master list distance cutoff = 12
  ghost atom cutoff = 12
  binsize = 6, bins = 4 3 4
  2 neighbor lists, perpetual/occasional/extra = 2 0 0
  (1) pair reaxff, perpetual
      attributes: half, newton off, ghost
      pair build: half/bin/newtoff/ghost
      stencil: full/ghost/bin/3d
      bin: standard
  (2) fix qeq/reaxff, perpetual, copy from (1)
      attributes: half, newton off
      pair build: copy
      stencil: none
      bin: none
Per MPI rank memory allocation (min/avg/max) = 131 | 131.4 | 131.8 Mbytes
   Step          Temp          PotEng         Press          Volume    
         0   300           -37619.569      4596.5757      3885.8921    
       100   301.59467     -37626.259      4042.3433      3886.2807    
       200   283.88478     -37614.878     -2849.2275      3886.6693    
       300   265.19272     -37606.484      1312.8488      3887.0579    
       400   294.59967     -37637.09       7104.8288      3887.4465    
       500   300.66826     -37616.328      5313.6698      3887.8351    
       600   343.93161     -37642.94       5143.0747      3888.2237    
       700   296.61829     -37600.858      10879.215      3888.6122    
       800   289.73207     -37605.153      6386.9365      3889.0008    
       900   294.23962     -37639.25       138.89094      3889.3894    
      1000   272.76501     -37645.635      13700.847      3889.778     
      1100   276.27438     -37629.11       9433.2419      3890.1666    
      1200   297.04514     -37628.07       787.70587      3890.5552    
      1300   284.3899      -37597.921      5565.9296      3890.9438    
      1400   316.59874     -37624.451      4048.6691      3891.3324    
      1500   287.02647     -37613.366      6120.7056      3891.721     
      1600   281.53794     -37635.215      5652.5637      3892.1095    
      1700   295.79029     -37649.457      8596.8893      3892.4981    
      1800   302.26072     -37614.949      3166.1113      3892.8867    
      1900   304.37225     -37610.986     -6140.9146      3893.2753    
      2000   322.74533     -37635.986     -5747.5315      3893.6639    
      2100   282.79823     -37610.771      2698.2447      3894.0525    
      2200   299.65246     -37636.311      3950.0449      3894.4411    
      2300   306.68516     -37644.118      8545.6279      3894.8297    
      2400   286.05375     -37614.411     -7546.6455      3895.2183    
      2500   314.98641     -37620.767     -1166.2238      3895.6069    
      2600   325.34797     -37624.029     -2060.135       3895.9954    
      2700   295.11323     -37614.751     -775.19081      3896.384     
      2800   290.18609     -37629.486      17734.665      3896.7726    
      2900   279.22347     -37612.251     -2649.9625      3897.1612    
      3000   303.51304     -37633.051      4836.4973      3897.5498    
      3100   328.90109     -37651.276      11296.44       3897.9384    
      3200   286.15556     -37593.247      4164.2202      3898.327     
      3300   319.41753     -37608.01       6311.9714      3898.7156    
      3400   310.60582     -37592.685      10769.708      3899.1042    
      3500   305.33664     -37620.359      14738.293      3899.4927    
      3600   301.09024     -37636.872      4888.9326      3899.8813    
      3700   299.74679     -37636.077      11555.744      3900.2699    
      3800   318.20122     -37639.699      10498.175      3900.6585    
      3900   321.0561      -37618.937      1311.7134      3901.0471    
      4000   326.60782     -37599.854      8016.2874      3901.4357    
      4100   293.05702     -37587.028     -5849.3348      3901.8243    
      4200   292.12377     -37619.65      -12047.796      3902.2129    
      4300   303.58919     -37637.483      5360.6105      3902.6015    
      4400   283.4556      -37619.13       10821.824      3902.99      
      4500   298.90013     -37621.626      10181.375      3903.3786    
      4600   304.36077     -37606.099      14603.418      3903.7672    
      4700   322.02619     -37619.861      12738.6        3904.1558    
      4800   298.00831     -37631.019      22693.119      3904.5444    
      4900   300.53016     -37649.432      17608.255      3904.933     
      5000   294.88736     -37639.001     -2072.5834      3905.3216    
      5100   304.62655     -37625.991      185.8018       3905.7102    
      5200   312.79812     -37623.272      2555.3836      3906.0988    
      5300   303.97123     -37637.448      1243.1656      3906.4873    
      5400   287.44876     -37646.394      9704.8307      3906.8759    
      5500   291.2856      -37637.448      2762.1013      3907.2645    
      5600   308.97742     -37631.86      -3309.2275      3907.6531    
      5700   299.43792     -37615.108      2478.7647      3908.0417    
      5800   308.91861     -37629.599      6921.3967      3908.4303    
      5900   276.89377     -37635.839      12474.644      3908.8189    
      6000   289.54424     -37661.744     -12833.639      3909.2075    
      6100   318.29706     -37687.934      1125.7017      3909.5961    
      6200   316.87327     -37707.896      4691.3061      3909.9847    
      6300   309.96008     -37738.678     -453.62171      3910.3732    
      6400   292.35511     -37728.106     -736.33864      3910.7618    
      6500   310.04965     -37757.796      5051.632       3911.1504    
      6600   294.22459     -37748.683      6025.3456      3911.539     
      6700   281.59393     -37752.332      2062.1717      3911.9276    
      6800   288.27343     -37759.901     -2813.8178      3912.3162    
      6900   300.1481      -37735.326      4517.0526      3912.7048    
      7000   336.80959     -37762.215      2970.4633      3913.0934    
      7100   304.88388     -37738.898     -2040.4488      3913.482     
      7200   286.79569     -37740.017      883.79596      3913.8705    
      7300   282.87944     -37748.034      8097.6208      3914.2591    
      7400   297.0539      -37763.564     -14469.869      3914.6477    
      7500   298.38753     -37750.942      913.90089      3915.0363    
      7600   322.60713     -37755.642      848.75994      3915.4249    
      7700   294.50886     -37724.303      282.00272      3915.8135    
      7800   278.67426     -37721.265     -3441.4516      3916.2021    
      7900   306.01881     -37772.838     -11577.579      3916.5907    
      8000   280.03528     -37757.109      3055.2266      3916.9793    
      8100   292.88272     -37761.068     -4432.7086      3917.3678    
      8200   295.47429     -37729.068     -2688.6556      3917.7564    
      8300   307.22509     -37726.514     -5719.8473      3918.145     
      8400   321.36823     -37741.703      2998.2417      3918.5336    
      8500   303.18229     -37756.209     -393.84942      3918.9222    
      8600   298.57999     -37759.695     -2163.7331      3919.3108    
      8700   316.16331     -37770.969     -3299.991       3919.6994    
      8800   287.13572     -37728.505     -4988.2175      3920.088     
      8900   301.48934     -37723.391     -16716.486      3920.4766    
      9000   326.17639     -37729.341     -5595.1038      3920.8651    
      9100   314.32535     -37753.725     -1889.0819      3921.2537    
      9200   316.02142     -37771.59       4034.4488      3921.6423    
      9300   310.27359     -37769.051     -580.36406      3922.0309    
      9400   292.78784     -37751.277      4861.0973      3922.4195    
      9500   298.17911     -37767.304      2232.4548      3922.8081    
      9600   284.90898     -37774.055      7725.5816      3923.1967    
      9700   290.42931     -37783.402      3360.0007      3923.5853    
      9800   299.5175      -37759.885      5426.5428      3923.9739    
      9900   295.93673     -37743.466     -3747.4722      3924.3625    
     10000   308.15912     -37756.677      4068.8103      3924.751     
Loop time of 415.872 on 8 procs for 10000 steps with 365 atoms

Performance: 1.039 ns/day, 23.104 hours/ns, 24.046 timesteps/s, 8.777 katom-step/s
98.9% CPU use with 8 MPI tasks x 1 OpenMP threads

MPI task timing breakdown:
Section |  min time  |  avg time  |  max time  |%varavg| %total
---------------------------------------------------------------
Pair    | 249.11     | 316.26     | 370.54     | 287.3 | 76.05
Bond    | 0.025215   | 0.026937   | 0.028748   |   0.6 |  0.01
Neigh   | 3.413      | 4.3179     | 5.1946     |  35.9 |  1.04
Comm    | 4.2629     | 58.513     | 125.71     | 667.8 | 14.07
Output  | 0.030842   | 0.081229   | 0.18461    |  19.0 |  0.02
Modify  | 35.39      | 36.324     | 37.269     |  12.8 |  8.73
Other   |            | 0.3456     |            |       |  0.08

Nlocal:         45.625 ave          52 max          36 min
Histogram: 1 0 0 1 1 1 0 1 1 2
Nghost:        3320.88 ave        3347 max        3290 min
Histogram: 1 0 1 1 1 0 1 0 2 1
Neighs:        29630.2 ave       33580 max       23570 min
Histogram: 1 0 0 1 1 1 0 1 1 2

Total # of neighbors = 237042
Ave neighs/atom = 649.43014
Ave special neighs/atom = 0
Neighbor list builds = 162
Dangerous builds = 0
unfix deform_p
unfix data
undump dump_pos${dir}
undump dump_pos2

# Delete dir to make sure it is not reused
variable dir delete
# uzz Perturbation
variable dir equal 3
include displace.mod.lmp
# Find which length (epsilon) to calculate
if "${dir} == 1" then    "variable len0 equal ${lx0}"    "variable dlen equal lx-${len0}"
if "${dir} == 2" then    "variable len0 equal ${ly0}"    "variable dlen equal ly-${len0}"
if "${dir} == 3" then    "variable len0 equal ${lz0}"    "variable dlen equal lz-${len0}"
variable len0 equal ${lz0}
variable len0 equal 18.3222
variable dlen equal lz-${len0}
variable dlen equal lz-18.3222
if "${dir} == 4" then    "variable len0 equal ${lx0}"    "variable dlen equal 2*(yz-${yz0})"
if "${dir} == 5" then    "variable len0 equal ${ly0}"    "variable dlen equal 2*(xz-${xz0})"
if "${dir} == 6" then    "variable len0 equal ${lz0}"    "variable dlen equal 2*(xy-${xy0})"

# strain vector (epsilon)
variable eps equal v_dlen/v_len0

# stress vector (sigma)
variable sig1 equal -f_avgp[1]*${ufac}
variable sig1 equal -f_avgp[1]*0.000101325
variable sig2 equal -f_avgp[2]*${ufac}
variable sig2 equal -f_avgp[2]*0.000101325
variable sig3 equal -f_avgp[3]*${ufac}
variable sig3 equal -f_avgp[3]*0.000101325
variable sig4 equal -f_avgp[6]*${ufac}
variable sig4 equal -f_avgp[6]*0.000101325
variable sig5 equal -f_avgp[5]*${ufac}
variable sig5 equal -f_avgp[5]*0.000101325
variable sig6 equal -f_avgp[4]*${ufac}
variable sig6 equal -f_avgp[4]*0.000101325

# Reset box and simulation parameters
clear
  using 1 OpenMP thread(s) per MPI task
# box tilt large
read_restart equil.res
Reading restart file ...
  restart file = 2 Aug 2023, LAMMPS = 2 Aug 2023
  restoring atom style full from restart
  triclinic box = (0 0 0) to (15.3172 13.8463 18.3222) with tilt (-7.7318 0.2463 -0.1382)
WARNING: Triclinic box skew is large. LAMMPS will run inefficiently. (src/domain.cpp:220)
  2 by 2 by 2 MPI processor grid
  pair style reaxff stores no restart info
  365 atoms
Finding 1-2 1-3 1-4 neighbors ...
  special bond factors lj:    0        0        0       
  special bond factors coul:  0        0        0       
     0 = max # of 1-2 neighbors
     0 = max # of 1-3 neighbors
     0 = max # of 1-4 neighbors
     1 = max # of special neighbors
  special bonds CPU = 0.000 seconds
  read_restart CPU = 0.002 seconds

# Negative deformation
variable delta equal -${up}*${len0}
variable delta equal -0.01*${len0}
variable delta equal -0.01*18.3222
variable deltaxy equal -${up}*xy
variable deltaxy equal -0.01*xy
variable deltaxz equal -${up}*xz
variable deltaxz equal -0.01*xz
variable deltayz equal -${up}*yz
variable deltayz equal -0.01*yz
print "*****debug*****"
*****debug*****
print "xy = $(xy), deltaxy = ${deltaxy}"
xy = -7.731799999999999784, deltaxy = 0.077318
print "xz = $(xz), deltaxz = ${deltaxz}"
xz = 0.24629999999999999116, deltaxz = -0.002463
print "yz = $(yz), deltayz = ${deltayz}"
yz = -0.13819999999999998952, deltayz = 0.001382
print "*****"
*****

if "${dir} == 1" then    "fix deform_n all deform ${nthermo} x delta 0 ${delta} xy delta ${deltaxy} xz delta ${deltaxz} remap v units box flip no"
if "${dir} == 2" then    "fix deform_n all deform ${nthermo} y delta 0 ${delta} yz delta ${deltayz} remap v units box flip no"
if "${dir} == 3" then    "fix deform_n all deform ${nthermo} z delta 0 ${delta} remap v units box flip no"
fix deform_n all deform ${nthermo} z delta 0 ${delta} remap v units box flip no
fix deform_n all deform 100 z delta 0 ${delta} remap v units box flip no
fix deform_n all deform 100 z delta 0 -0.183222 remap v units box flip no
if "${dir} == 4" then    "fix deform_n all deform ${nthermo} yz delta ${delta} remap v units box flip no"
if "${dir} == 5" then    "fix deform_n all deform ${nthermo} xz delta ${delta} remap v units box flip no"
if "${dir} == 6" then    "fix deform_n all deform ${nthermo} xy delta ${delta} remap v units box flip no"

# Run MD for Negative deformation
print "*****Negative-deform ${dir} starts.*****"
*****Negative-deform 3 starts.*****
include ff.mod.lmp
# Setup forcefield, system
# undefine any fix ave/* fix before using reset_timestep
if "$(is_defined(fix,avgp))" then "unfix avgp"
if "$(is_defined(fix,avgl))" then "unfix avgl"
reset_timestep 0

# Assign the force field
pair_style reaxff NULL safezone 3.0 mincap 150
pair_coeff * * ${FF}
pair_coeff * * SiOCHN_2018.ff C H O Si
WARNING: Van der Waals parameters for element SI indicate inner wall+shielding, but earlier atoms indicate a different van der Waals method. This may cause division-by-zero errors. Keeping van der Waals setting for earlier atoms. (src/REAXFF/reaxff_ffield.cpp:251)


# charge method for reaxff
fix myqeq all qeq/reaxff 1 0.0 10.0 1.0e-6 reaxff maxiter 400
# Setup neighbor style
neighbor        2 bin
neigh_modify    every 10 delay 0 check yes

# Setup output
thermo		${nthermo}
thermo		100
thermo_style custom step temp pe press vol
# thermo_style custom step vol lx ly lz yz xz xy
thermo_modify norm no
# thermo_modify line multi

# Sample pressure (and length vector)
fix avgp all ave/time  ${nevery} ${nrepeat} ${nfreq} c_thermo_press mode vector
fix avgp all ave/time  10 ${nrepeat} ${nfreq} c_thermo_press mode vector
fix avgp all ave/time  10 10 ${nfreq} c_thermo_press mode vector
fix avgp all ave/time  10 10 100 c_thermo_press mode vector
# variable lx equal lx
# variable ly equal ly
# variable lz equal lz
# fix avgl all ave/time  ${nevery} ${nrepeat} ${nfreq} v_lx v_ly v_lz

# nvt
fix fnvt all nvt temp ${temp} ${temp} ${tdamp}
fix fnvt all nvt temp 300 ${temp} ${tdamp}
fix fnvt all nvt temp 300 300 ${tdamp}
fix fnvt all nvt temp 300 300 50


# Save stress, strain to "./stress_strain/stress_strain.neg${dir}.out"
print "# Stress and strain vectors, ${structure}, negative deformation ${dir}"       file stress_strain/stress_strain.neg${dir}.out screen no
print "# Stress and strain vectors, ${structure}, negative deformation ${dir}"       file stress_strain/stress_strain.neg3.out screen no
fix data all print ${nfreq} "${eps} ${sig1} ${sig2} ${sig3} ${sig4} ${sig5} ${sig6}"       append stress_strain/stress_strain.neg${dir}.out screen no       title "# eps sig1 sig2 sig3 sig4 sig5 sig6"
fix data all print 100 "${eps} ${sig1} ${sig2} ${sig3} ${sig4} ${sig5} ${sig6}"       append stress_strain/stress_strain.neg${dir}.out screen no       title "# eps sig1 sig2 sig3 sig4 sig5 sig6"
fix data all print 100 "${eps} ${sig1} ${sig2} ${sig3} ${sig4} ${sig5} ${sig6}"       append stress_strain/stress_strain.neg3.out screen no       title "# eps sig1 sig2 sig3 sig4 sig5 sig6"

# save trajectory
# if "$(is_defined(dump,dump_neg${dir1}))" then "undump dump_neg${dir1}"
dump dump_neg${dir} all custom/gz ${nthermo} dump/neg_deform${dir}.lammpstrj.gz id type q x y z
dump dump_neg3 all custom/gz ${nthermo} dump/neg_deform${dir}.lammpstrj.gz id type q x y z
dump dump_neg3 all custom/gz 100 dump/neg_deform${dir}.lammpstrj.gz id type q x y z
dump dump_neg3 all custom/gz 100 dump/neg_deform3.lammpstrj.gz id type q x y z
# variable dir1 equal ${dir}
run ${nrun}
run 10000
Neighbor list info ...
  update: every = 10 steps, delay = 0 steps, check = yes
  max neighbors/atom: 2000, page size: 100000
  master list distance cutoff = 12
  ghost atom cutoff = 12
  binsize = 6, bins = 4 3 4
  2 neighbor lists, perpetual/occasional/extra = 2 0 0
  (1) pair reaxff, perpetual
      attributes: half, newton off, ghost
      pair build: half/bin/newtoff/ghost
      stencil: full/ghost/bin/3d
      bin: standard
  (2) fix qeq/reaxff, perpetual, copy from (1)
      attributes: half, newton off
      pair build: copy
      stencil: none
      bin: none
Per MPI rank memory allocation (min/avg/max) = 131 | 131.4 | 131.8 Mbytes
   Step          Temp          PotEng         Press          Volume    
         0   300           -37619.569      4596.5757      3885.8921    
       100   301.60428     -37626.256      4025.9728      3885.5035    
       200   283.8059      -37614.834     -2632.8093      3885.1149    
       300   265.513       -37606.402      1649.5901      3884.7264    
       400   294.28349     -37636.107      7605.2436      3884.3378    
       500   300.35315     -37615.966      6279.805       3883.9492    
       600   344.85636     -37643.452      5537.8135      3883.5606    
       700   295.46278     -37598.862      11570.617      3883.172     
       800   290.25542     -37605.516      5575.4021      3882.7834    
       900   292.69044     -37636.83      -113.61791      3882.3948    
      1000   271.85002     -37645.71       14173.661      3882.0062    
      1100   275.85871     -37629.307      8778.8399      3881.6176    
      1200   305.15144     -37637.962      4626.2904      3881.229     
      1300   280.08332     -37595.647      4679.2941      3880.8405    
      1400   317.56905     -37621.476      6537.6561      3880.4519    
      1500   291.75137     -37601.902      5494.7673      3880.0633    
      1600   283.81196     -37625.571      4615.3228      3879.6747    
      1700   295.37426     -37648.547      2106.8513      3879.2861    
      1800   309.03149     -37642.288      2518.0691      3878.8975    
      1900   288.46327     -37599.961      1173.661       3878.5089    
      2000   317.32516     -37631.797     -1285.8872      3878.1203    
      2100   299.12808     -37615.166     -4191.3428      3877.7317    
      2200   280.64644     -37604.73       1835.8971      3877.3432    
      2300   299.06764     -37649.186      14804.954      3876.9546    
      2400   257.26603     -37614.369      3489.2317      3876.566     
      2500   307.58776     -37636.323     -2015.7957      3876.1774    
      2600   338.44286     -37651.586     -597.99973      3875.7888    
      2700   298.55813     -37616.573      7667.8855      3875.4002    
      2800   296.10696     -37625.308      11474.561      3875.0116    
      2900   309.3747      -37640.747      14285.254      3874.623     
      3000   311.65372     -37621.936     -2152.5096      3874.2344    
      3100   292.3798      -37595.296     -81.020229      3873.8459    
      3200   307.42206     -37635.041     -1886.866       3873.4573    
      3300   293.72607     -37644.848      1919.8536      3873.0687    
      3400   295.6399      -37645.335      6553.5577      3872.6801    
      3500   298.77416     -37625.294      15965.27       3872.2915    
      3600   295.25204     -37608.158      4133.5024      3871.9029    
      3700   313.29824     -37629.17      -401.96549      3871.5143    
      3800   287.76339     -37618.134      9132.7342      3871.1257    
      3900   287.24027     -37637.325      4062.4507      3870.7371    
      4000   284.03529     -37652.528      1910.9182      3870.3486    
      4100   266.40701     -37642.361      1060.1691      3869.96      
      4200   293.28086     -37637.41       10091.523      3869.5714    
      4300   317.00491     -37636.872      12353.564      3869.1828    
      4400   296.65695     -37607.153      512.34048      3868.7942    
      4500   315.78453     -37620.448     -4151.1219      3868.4056    
      4600   309.40658     -37624.531      4920.2833      3868.017     
      4700   273.2692      -37621.033     -4449.3762      3867.6284    
      4800   276.492       -37618.299      4185.8577      3867.2398    
[...]
      5000   298.2295      -37592.673      17563.665      3885.8921    
      5100   303.85129     -37605.785      1514.4335      3885.8921    
      5200   302.08473     -37643.782      10650.399      3885.8921    
      5300   277.65246     -37623.647      1610.6694      3885.8921    
      5400   282.99174     -37612.659      3662.7938      3885.8921    
      5500   301.30368     -37610.773      9166.1429      3885.8921    
      5600   306.43181     -37608.5        5339.5401      3885.8921    
      5700   297.73697     -37621.806      10529.408      3885.8921    
      5800   282.2687      -37636.503      5019.3926      3885.8921    
      5900   274.76419     -37626.078     -109.71773      3885.8921    
      6000   283.92973     -37624.063     -2853.7958      3885.8921    
      6100   305.17609     -37625.165      5425.0517      3885.8921    
      6200   299.56609     -37618.371      8828.7737      3885.8921    
      6300   319.83135     -37645.479      4772.921       3885.8921    
      6400   297.76806     -37629.076      5192.2332      3885.8921    
      6500   289.99218     -37623.784     -2077.42        3885.8921    
      6600   285.40272     -37620.716      13037.081      3885.8921    
      6700   307.12295     -37647.952      10041.032      3885.8921    
      6800   300.25855     -37637.585     -4312.2477      3885.8921    
      6900   304.13765     -37632.258      17095.015      3885.8921    
      7000   324.60181     -37631.87      -7835.2395      3885.8921    
      7100   308.71009     -37626.601      5776.1712      3885.8921    
      7200   291.96872     -37642.418      5272.2386      3885.8921    
      7300   275.92016     -37622.415      718.90306      3885.8921    
      7400   295.50358     -37628.612      617.28565      3885.8921    
      7500   304.55094     -37632.319      11884.789      3885.8921    
      7600   314.5039      -37637.165     -1802.2224      3885.8921    
      7700   317.30704     -37634.262      4999.2393      3885.8921    
      7800   309.05264     -37629.586      528.3928       3885.8921    
      7900   307.63781     -37643.55      -1582.7036      3885.8921    
      8000   289.21817     -37645.745      12453.502      3885.8921    
      8100   285.60849     -37653.532     -2109.5805      3885.8921    
      8200   300.88493     -37643.459      20069.153      3885.8921    
      8300   306.73886     -37629.239      8190.145       3885.8921    
      8400   307.02751     -37630.56       12028.493      3885.8921    
      8500   292.61163     -37627.465      14006.069      3885.8921    
      8600   300.80441     -37655.665      7272.7428      3885.8921    
      8700   275.64114     -37651.671      1935.8122      3885.8921    
      8800   274.25346     -37640.715      6073.0392      3885.8921    
      8900   303.28858     -37633.97      -698.61006      3885.8921    
      9000   307.28501     -37628.786      2047.0871      3885.8921    
      9100   288.77012     -37610.987      2580.0427      3885.8921    
      9200   294.1783      -37638.089      24251.976      3885.8921    
      9300   278.06297     -37638.885      3795.5589      3885.8921    
      9400   281.02702     -37639.362      7555.4969      3885.8921    
      9500   302.96544     -37623.77      -5964.0542      3885.8921    
      9600   307.93921     -37626.27       1170.6765      3885.8921    
      9700   309.5536      -37645.436      6254.7297      3885.8921    
      9800   275.10927     -37627.275     -3244.5091      3885.8921    
      9900   301.79343     -37664.481      13888.586      3885.8921    
     10000   293.16274     -37656.111      6544.0156      3885.8921    
Loop time of 364.379 on 8 procs for 10000 steps with 365 atoms

Performance: 1.186 ns/day, 20.243 hours/ns, 27.444 timesteps/s, 10.017 katom-step/s
98.9% CPU use with 8 MPI tasks x 1 OpenMP threads

MPI task timing breakdown:
Section |  min time  |  avg time  |  max time  |%varavg| %total
---------------------------------------------------------------
Pair    | 245.29     | 266.08     | 323.14     | 192.2 | 73.02
Bond    | 0.024355   | 0.025601   | 0.028088   |   0.7 |  0.01
Neigh   | 3.5852     | 3.9377     | 4.8447     |  26.1 |  1.08
Comm    | 5.4077     | 62.518     | 83.256     | 397.0 | 17.16
Output  | 0.025659   | 0.067449   | 0.15462    |  17.5 |  0.02
Modify  | 30.611     | 31.512     | 31.874     |   9.0 |  8.65
Other   |            | 0.2348     |            |       |  0.06

Nlocal:         45.625 ave          50 max          40 min
Histogram: 1 0 0 1 3 0 0 0 0 3
Nghost:        3371.38 ave        3405 max        3341 min
Histogram: 1 1 2 0 0 1 0 1 1 1
Neighs:        29946.1 ave       32785 max       26538 min
Histogram: 1 0 1 3 0 0 0 0 0 3

Total # of neighbors = 239569
Ave neighs/atom = 656.35342
Ave special neighs/atom = 0
Neighbor list builds = 169
Dangerous builds = 0
unfix deform_n
unfix data
undump dump_neg${dir}
undump dump_neg6

# Reset box and simulation parameters
clear
  using 1 OpenMP thread(s) per MPI task
# box tilt large
read_restart equil.res
Reading restart file ...
  restart file = 2 Aug 2023, LAMMPS = 2 Aug 2023
  restoring atom style full from restart
  triclinic box = (0 0 0) to (15.3172 13.8463 18.3222) with tilt (-7.7318 0.2463 -0.1382)
WARNING: Triclinic box skew is large. LAMMPS will run inefficiently. (src/domain.cpp:220)
  2 by 2 by 2 MPI processor grid
  pair style reaxff stores no restart info
  365 atoms
Finding 1-2 1-3 1-4 neighbors ...
  special bond factors lj:    0        0        0       
  special bond factors coul:  0        0        0       
     0 = max # of 1-2 neighbors
     0 = max # of 1-3 neighbors
     0 = max # of 1-4 neighbors
     1 = max # of special neighbors
  special bonds CPU = 0.000 seconds
  read_restart CPU = 0.002 seconds

# Positive deformation
variable delta equal ${up}*${len0}
variable delta equal 0.01*${len0}
variable delta equal 0.01*18.3222
variable deltaxy equal ${up}*xy
variable deltaxy equal 0.01*xy
variable deltaxz equal ${up}*xz
variable deltaxz equal 0.01*xz
variable deltayz equal ${up}*yz
variable deltayz equal 0.01*yz
if "${dir} == 1" then    "fix deform_p all deform ${nthermo} x delta 0 ${delta} xy delta ${deltaxy} xz delta ${deltaxz} remap v units box"
if "${dir} == 2" then    "fix deform_p all deform ${nthermo} y delta 0 ${delta} yz delta ${deltayz} remap v units box"
if "${dir} == 3" then    "fix deform_p all deform ${nthermo} z delta 0 ${delta} remap v units box"
if "${dir} == 4" then    "fix deform_p all deform ${nthermo} yz delta ${delta} remap v units box"
if "${dir} == 5" then    "fix deform_p all deform ${nthermo} xz delta ${delta} remap v units box"
if "${dir} == 6" then    "fix deform_p all deform ${nthermo} xy delta ${delta} remap v units box"
fix deform_p all deform ${nthermo} xy delta ${delta} remap v units box
fix deform_p all deform 100 xy delta ${delta} remap v units box
fix deform_p all deform 100 xy delta 0.183222 remap v units box

# Run deformation MD
print "*****Positive-deform ${dir} starts.*****"
*****Positive-deform 6 starts.*****
include ff.mod.lmp
# Setup forcefield, system
# undefine any fix ave/* fix before using reset_timestep
if "$(is_defined(fix,avgp))" then "unfix avgp"
if "$(is_defined(fix,avgl))" then "unfix avgl"
reset_timestep 0

# Assign the force field
pair_style reaxff NULL safezone 3.0 mincap 150
pair_coeff * * ${FF}
pair_coeff * * SiOCHN_2018.ff C H O Si
WARNING: Van der Waals parameters for element SI indicate inner wall+shielding, but earlier atoms indicate a different van der Waals method. This may cause division-by-zero errors. Keeping van der Waals setting for earlier atoms. (src/REAXFF/reaxff_ffield.cpp:251)


# charge method for reaxff
fix myqeq all qeq/reaxff 1 0.0 10.0 1.0e-6 reaxff maxiter 400
# Setup neighbor style
neighbor        2 bin
neigh_modify    every 10 delay 0 check yes

# Setup output
thermo		${nthermo}
thermo		100
thermo_style custom step temp pe press vol
# thermo_style custom step vol lx ly lz yz xz xy
thermo_modify norm no
# thermo_modify line multi

# Sample pressure (and length vector)
fix avgp all ave/time  ${nevery} ${nrepeat} ${nfreq} c_thermo_press mode vector
fix avgp all ave/time  10 ${nrepeat} ${nfreq} c_thermo_press mode vector
fix avgp all ave/time  10 10 ${nfreq} c_thermo_press mode vector
fix avgp all ave/time  10 10 100 c_thermo_press mode vector
# variable lx equal lx
# variable ly equal ly
# variable lz equal lz
# fix avgl all ave/time  ${nevery} ${nrepeat} ${nfreq} v_lx v_ly v_lz

# nvt
fix fnvt all nvt temp ${temp} ${temp} ${tdamp}
fix fnvt all nvt temp 300 ${temp} ${tdamp}
fix fnvt all nvt temp 300 300 ${tdamp}
fix fnvt all nvt temp 300 300 50


# Save stress, strain to "./stress_strain/stress_strain.pos${dir}.out"
print "# Stress and strain vectors, ${structure}, positive deformation ${dir}"       file stress_strain/stress_strain.pos${dir}.out screen no
print "# Stress and strain vectors, ${structure}, positive deformation ${dir}"       file stress_strain/stress_strain.pos6.out screen no
fix data all print ${nfreq} "${eps} ${sig1} ${sig2} ${sig3} ${sig4} ${sig5} ${sig6}"       append stress_strain/stress_strain.pos${dir}.out screen no       title "# eps sig1 sig2 sig3 sig4 sig5 sig6"
fix data all print 100 "${eps} ${sig1} ${sig2} ${sig3} ${sig4} ${sig5} ${sig6}"       append stress_strain/stress_strain.pos${dir}.out screen no       title "# eps sig1 sig2 sig3 sig4 sig5 sig6"
fix data all print 100 "${eps} ${sig1} ${sig2} ${sig3} ${sig4} ${sig5} ${sig6}"       append stress_strain/stress_strain.pos6.out screen no       title "# eps sig1 sig2 sig3 sig4 sig5 sig6"

# # compute MSD and RDF
# compute msd1 all msd
# fix myMSD all ave/time ${nthermo} 1 ${nthermo} c_msd1[1] c_msd1[2] c_msd1[3] c_msd1[4] c_thermo_temp #     file stress_strain/msd_${dir}.out #     title2 "# TimeStep MSD_X MSD_Y MSD_Z MSD_Total Temperture"
# C-C C-Si Si-O C-H Si-Si
# compute rdf1 all rdf 100 1 1 1 4 3 4 1 2 4 4 cutoff 5.0
# fix myRDF all ave/time ${nthermo} 1 ${nthermo} c_rdf1[*] #     file stress_strain/rdf_${dir}.out mode vector #     title3 "# Row r g1(r) coor1(r) ..."

# save trajectory
# if "$(is_defined(dump,dump_pos${dir1}))" then "undump dump_pos${dir1}"
dump dump_pos${dir} all custom/gz ${nthermo} dump/pos_deform${dir}.lammpstrj.gz id type q x y z
dump dump_pos6 all custom/gz ${nthermo} dump/pos_deform${dir}.lammpstrj.gz id type q x y z
dump dump_pos6 all custom/gz 100 dump/pos_deform${dir}.lammpstrj.gz id type q x y z
dump dump_pos6 all custom/gz 100 dump/pos_deform6.lammpstrj.gz id type q x y z
run ${nrun}
run 10000
Neighbor list info ...
  update: every = 10 steps, delay = 0 steps, check = yes
  max neighbors/atom: 2000, page size: 100000
  master list distance cutoff = 12
  ghost atom cutoff = 12
  binsize = 6, bins = 4 3 4
  2 neighbor lists, perpetual/occasional/extra = 2 0 0
  (1) pair reaxff, perpetual
      attributes: half, newton off, ghost
      pair build: half/bin/newtoff/ghost
      stencil: full/ghost/bin/3d
      bin: standard
  (2) fix qeq/reaxff, perpetual, copy from (1)
      attributes: half, newton off
      pair build: copy
      stencil: none
      bin: none
Per MPI rank memory allocation (min/avg/max) = 131 | 131.4 | 131.8 Mbytes
   Step          Temp          PotEng         Press          Volume    
         0   300           -37619.569      4596.5757      3885.8921    
       100   301.59697     -37626.259      4043.4613      3885.8921    
       200   283.90227     -37614.987     -2724.408       3885.8921    
       300   265.12866     -37606.248      1466.8652      3885.8921    
       400   294.62509     -37636.65       7338.3227      3885.8921    
       500   301.23271     -37616.535      5638.1747      3885.8921    
       600   344.04048     -37642.777      5238.3312      3885.8921    
       700   294.01036     -37597.769      11728.282      3885.8921    
       800   288.55513     -37604.222      6246.1975      3885.8921    
       900   292.01202     -37638.784      269.89904      3885.8921    
      1000   270.84588     -37642.529      15386.356      3885.8921    
      1100   284.50305     -37636.534      8240.0022      3885.8921    
      1200   294.79949     -37624.717      3865.5067      3885.8921    
      1300   288.81008     -37602.15       6819.6186      3885.8921    
      1400   306.3934      -37610.07       7763.366       3885.8921    
      1500   294.44453     -37617.855      7310.6799      3885.8921    
      1600   283.02859     -37633.161      12130.538      3885.8921    
      1700   285.24677     -37631.41       5174.3036      3885.8921    
      1800   300.26272     -37632.778      6980.2203      3885.8921    
      1900   295.61225     -37614.059     -9784.4113      3885.8921    
      2000   319.1035      -37638.144     -6827.9103      3885.8921    
      2100   289.6118      -37610.92      -3400.3039      3885.8921    
      2200   322.53348     -37668.887     -1482.3767      3885.8921    
      2300   265.21601     -37626.339      11488.295      3885.8921    
      2400   289.10796     -37628.509     -2149.81        3885.8921    
      2500   301.86171     -37619.087     -5689.5936      3885.8921    
      2600   305.50796     -37625.663     -4784.9514      3885.8921    
      2700   305.98599     -37638.82       5919.6496      3885.8921    
      2800   282.14899     -37629.881      11287.965      3885.8921    
      2900   300.244       -37663.115      5704.1354      3885.8921    
      3000   279.35625     -37619.502      1611.5094      3885.8921    
      3100   305.2018      -37617.429     -1468.9302      3885.8921    
      3200   315.45299     -37629.897     -2359.9609      3885.8921    
      3300   292.25174     -37619.776      3330.3634      3885.8921    
      3400   279.04403     -37624.514      10804          3885.8921    
      3500   290.91065     -37644.408      8373.2512      3885.8921    
      3600   293.24166     -37627.2       -4399.6343      3885.8921    
      3700   304.15213     -37612.587      5627.9731      3885.8921    
      3800   304.59927     -37610.091      2367.1576      3885.8921    
      3900   285.59141     -37599.619     -1981.892       3885.8921    
      4000   272.33374     -37618.759     -5629.7491      3885.8921    
      4100   306.13626     -37655.804      3459.4566      3885.8921    
      4200   289.31274     -37621.792     -4364.0393      3885.8921    
      4300   297.54274     -37617.942      5541.6908      3885.8921    
      4400   312.33388     -37629.994      896.15856      3885.8921    
      4500   300.18824     -37614.354     -123.1735       3885.8921    
      4600   288.48528     -37617.408     -7421.5284      3885.8921    
      4700   289.99706     -37639.477     -5453.9368      3885.8921    
      4800   275.42648     -37642.151      7116.4875      3885.8921    
      4900   318.45185     -37656.468     -8879.7742      3885.8921    
      5000   299.72553     -37612.439      13407.598      3885.8921    
      5100   306.70945     -37610.089      9457.4388      3885.8921    
      5200   312.84726     -37610.08       6861.7743      3885.8921    
      5300   314.01629     -37631.51       15857.92       3885.8921    
      5400   278.34436     -37623.206     -1266.9183      3885.8921    
      5500   286.6187      -37628.01      -3849.3359      3885.8921    
      5600   302.69247     -37617.613      3474.4726      3885.8921    
      5700   298.0183      -37607.831      5247.1034      3885.8921    
      5800   315.72678     -37629.008     -2265.4256      3885.8921    
      5900   286.13396     -37606.728      11790.619      3885.8921    
      6000   266.844       -37627.021     -4445.993       3885.8921    
      6100   290.13739     -37656.197      805.416        3885.8921    
      6200   275.87176     -37617.417      10188.49       3885.8921    
      6300   314.58766     -37642.674      5730.5664      3885.8921    
      6400   312.55362     -37628.255      11092.218      3885.8921    
      6500   316.97715     -37624.186      8885.0192      3885.8921    
      6600   311.17638     -37631.526      7496.7247      3885.8921    
      6700   282.15696     -37633.477     -2742.8268      3885.8921    
      6800   289.88034     -37637.066      12872.053      3885.8921    
      6900   313.72273     -37638.55       2979.9431      3885.8921    
      7000   318.69707     -37621.699     -3864.4657      3885.8921    
      7100   312.47199     -37613.74       4635.3097      3885.8921    
      7200   311.22124     -37633.138      13820.764      3885.8921    
      7300   278.90378     -37612.833      14810.763      3885.8921    
      7400   321.44962     -37662.722      8385.0988      3885.8921    
      7500   318.23613     -37671.595     -2764.9328      3885.8921    
      7600   280.90296     -37651.084     -2004.3671      3885.8921    
      7700   301.13868     -37673.344     -2170.2027      3885.8921    
      7800   277.9371      -37638.421      8802.5703      3885.8921    
      7900   290.10259     -37640.292      6321.4551      3885.8921    
      8000   321.89566     -37661.88       11163.067      3885.8921    
      8100   317.5566      -37642.625      14502.951      3885.8921    
      8200   308.86249     -37657.887      1454.295       3885.8921    
      8300   308.84918     -37682.067      6652.3016      3885.8921    
      8400   277.5377      -37649.317     -8149.3787      3885.8921    
      8500   300.23612     -37665.68      -4124.7678      3885.8921    
      8600   300.44365     -37659.12      -15393.768      3885.8921    
      8700   317.35963     -37668.149      1636.9089      3885.8921    
      8800   302.03694     -37669.458      9621.5667      3885.8921    
      8900   261.43918     -37642.376      5989.7147      3885.8921    
      9000   305.23011     -37689.584      12050.906      3885.8921    
      9100   303.9895      -37669.91       680.97498      3885.8921    
      9200   308.53264     -37651.903      872.68835      3885.8921    
      9300   309.23162     -37654.019     -2447.3166      3885.8921    
      9400   288.90089     -37663.724     -660.43534      3885.8921    
      9500   304.08034     -37689.045     -1131.5397      3885.8921    
      9600   281.38354     -37654.374      6812.425       3885.8921    
      9700   319.82705     -37684.862      6890.3476      3885.8921    
      9800   291.94754     -37654.415      16925.65       3885.8921    
      9900   277.10199     -37647.171      2686.6868      3885.8921    
     10000   322.63822     -37717.281      2109.0023      3885.8921    
Loop time of 277.848 on 8 procs for 10000 steps with 365 atoms

Performance: 1.555 ns/day, 15.436 hours/ns, 35.991 timesteps/s, 13.137 katom-step/s
98.7% CPU use with 8 MPI tasks x 1 OpenMP threads

MPI task timing breakdown:
Section |  min time  |  avg time  |  max time  |%varavg| %total
---------------------------------------------------------------
Pair    | 233.93     | 240.45     | 244.38     |  20.8 | 86.54
Bond    | 0.023529   | 0.025362   | 0.028488   |   1.0 |  0.01
Neigh   | 3.073      | 3.1432     | 3.2971     |   3.8 |  1.13
Comm    | 2.9751     | 6.9095     | 13.407     | 122.6 |  2.49
Output  | 0.020111   | 0.062265   | 0.1498     |  18.3 |  0.02
Modify  | 26.748     | 26.924     | 27.022     |   1.5 |  9.69
Other   |            | 0.3335     |            |       |  0.12

Nlocal:         45.625 ave          49 max          41 min
Histogram: 1 1 0 0 0 1 2 1 0 2
Nghost:        3353.25 ave        3367 max        3325 min
Histogram: 1 0 0 0 0 2 1 0 1 3
Neighs:        29944.5 ave       32134 max       27194 min
Histogram: 2 0 0 0 1 2 0 1 0 2

Total # of neighbors = 239556
Ave neighs/atom = 656.31781
Ave special neighs/atom = 0
Neighbor list builds = 147
Dangerous builds = 0
unfix deform_p
unfix data
undump dump_pos${dir}
undump dump_pos6

# Delete dir to make sure it is not reused
variable dir delete

# Calc and output
# include calc.mod.lmp

Total wall time: 1:21:16
