ITEM: TIMESTEP
0
ITEM: NUMBER OF ATOMS
365
ITEM: BOX BOUNDS xy xz yz pp pp pp
-7.7317999999999998e+00 1.5563499999999999e+01 -7.7317999999999998e+00
-3.2142199999999999e-01 1.3846299999999999e+01 2.4629999999999999e-01
0.0000000000000000e+00 1.8322199999999999e+01 -3.2142199999999999e-01
ITEM: ATOMS id type x y z
7 4 1.00271 3.21148 0.215362
8 2 2.07208 2.11267 1.23203
9 2 1.5266 4.63653 0.868497
10 3 -0.430643 2.97535 0.754763
11 4 2.95482 0.494546 8.85202
13 4 1.27856 2.30545 6.97153
347 2 -2.9366 6.04459 1.01243
29 4 6.53524 0.713764 2.43658
30 4 2.74046 2.89896 4.20073
31 4 5.17202 2.85616 0.694895
37 4 4.57779 5.04389 2.76574
68 1 -2.34399 5.9397 4.90119
69 1 -0.742574 6.21195 7.519
74 1 2.34392 1.32541 2.95422
75 1 5.21347 2.36205 6.11192
129 2 -1.15907 6.75192 8.47499
107 2 3.5064 6.36829 2.56174
102 2 1.36043 2.70459 2.81532
131 2 -1.23514 5.1584 7.22876
109 2 3.02233 5.95089 5.03872
126 2 -1.58837 5.09222 4.81653
127 2 -2.51456 6.3995 3.87601
161 2 2.53182 5.28817 8.96894
130 2 0.44779 6.07566 7.61967
142 2 2.92405 1.18457 2.01795
143 2 1.59668 0.496829 3.19211
144 2 3.66919 1.28823 4.12812
145 2 5.07836 1.2524 6.45161
146 2 5.30464 2.46427 4.93504
147 2 4.51124 3.10621 6.55634
151 2 1.45341 6.10696 4.44141
96 2 -1.28086 4.87839 8.88513
153 2 1.77738 6.62307 2.49272
319 2 -1.35695 3.71355 5.12141
201 3 0.0363461 1.32971 6.33526
202 3 2.167 1.48785 7.92894
205 3 0.740292 3.6679 7.77785
219 3 2.07121 2.87332 5.60085
220 3 5.34782 1.74574 1.91358
226 3 3.85318 3.99345 3.71275
227 3 4.68715 4.38292 1.32355
80 1 2.07541 6.45857 9.08131
233 3 4.60023 5.38961 7.07915
354 2 1.87279 -0.0588559 6.22289
160 2 1.54709 6.73545 8.09425
77 1 1.90176 6.85837 3.65159
14 4 0.31343 2.41568 12.9103
346 2 -1.24919 3.52583 16.2
19 4 -1.35646 4.86898 13.7029
33 4 3.83748 2.95002 10.3508
35 4 3.52783 2.52003 16.6331
40 4 1.22974 6.0757 10.715
42 4 4.93486 4.47532 14.7948
43 4 0.297128 5.84511 16.102
99 2 4.31383 0.066227 17.2823
67 1 0.422495 1.43967 14.6775
76 1 3.89101 1.18696 15.3248
358 2 5.65339 0.434499 13.0717
204 3 -1.04903 2.3592 9.49027
103 2 2.14434 3.4207 10.5621
104 2 1.86005 2.43747 13.7867
110 2 1.15268 4.41108 16.2497
123 2 0.830632 0.372505 14.5789
15 4 -2.16855 6.30332 17.7529
125 2 0.819774 2.00323 15.6475
148 2 3.10667 0.326161 15.4816
149 2 4.91875 0.847449 15.4306
150 2 3.7424 1.77245 14.3849
237 3 -0.51903 6.14011 17.521
203 3 0.324377 1.53674 11.6542
283 4 -1.18766 2.3675 17.454
206 3 -0.532117 3.77162 13.0487
44 4 3.40887 6.36671 13.0276
209 3 -1.62951 6.10723 12.7903
221 3 3.75774 1.3866 9.89184
223 3 4.12136 1.67307 17.8031
224 3 1.60131 2.85966 17.0577
225 3 4.69594 3.10899 11.7299
231 3 0.809163 4.15042 10.5178
234 3 4.41452 3.80923 16.2863
16 4 -0.114713 3.66539 9.24171
236 3 -0.688841 5.34895 15.0278
238 3 2.20696 6.32653 11.994
239 3 3.5615 4.99822 13.8822
345 2 0.145398 -0.0284789 9.52757
229 3 4.51016 3.86523 9.32996
106 2 6.78815 1.50959 12.0607
356 2 6.18386 0.182665 11.2622
235 3 5.89729 3.13316 13.9529
18 4 -1.41154 7.22511 6.07654
23 4 -3.0643 9.20221 7.81826
25 4 -4.06899 12.3413 6.70753
38 4 0.999948 8.43175 4.30394
45 4 0.284642 9.06021 1.30661
46 4 -1.67876 12.3092 4.46804
70 1 -5.67562 12.732 5.90558
78 1 1.58231 7.90675 0.726341
79 1 -1.98399 10.7405 3.5111
111 2 -1.39222 8.5241 1.17824
353 2 -5.38443 10.3621 8.44665
321 1 -3.02359 8.33019 0.107089
182 2 -3.98284 7.21938 4.92462
156 2 2.33685 7.92987 1.64893
132 2 -5.7561 12.4547 4.73473
152 2 3.02722 7.45392 3.87512
157 2 -1.01026 10.164 3.58381
158 2 -2.34124 10.9298 2.48511
159 2 -2.78003 10.3047 4.2189
348 2 -4.60371 9.46108 4.28479
210 3 -3.88185 8.26326 8.85996
211 3 -2.50221 8.32746 6.57896
213 3 -4.08795 10.4889 7.29932
214 3 -3.89912 13.3461 7.93899
228 3 -0.171794 7.80715 5.14189
240 3 0.626158 9.23981 3.01592
241 3 -1.81564 13.5292 3.4473
242 3 -2.92621 12.3914 5.57974
243 3 0.462689 10.3734 0.415315
245 3 -1.83917 9.98217 8.5699
246 3 -0.888476 12.5188 8.57416
247 3 -0.0897868 11.8226 5.26472
155 2 0.909777 6.93025 0.753059
322 2 -3.14218 8.43819 1.23513
112 2 -0.71898 13.6528 1.08611
324 1 -5.92207 11.9817 2.80558
325 2 -6.00818 11.7235 1.66256
326 2 -4.74624 12.036 3.16721
327 2 -6.55105 12.8778 3.1459
113 2 1.64838 8.3151 8.55338
108 2 2.0206 9.33365 5.40319
133 2 -6.35523 12.0034 6.53737
338 2 0.432198 12.632 2.00074
251 3 3.27418 7.57753 14.0002
21 4 -1.33334 7.35417 11.8869
22 4 -3.01714 12.4171 16.6607
24 4 -5.92642 11.7675 10.4721
26 4 -1.03621 9.78134 13.9568
27 4 -5.0178 10.808 15.0093
28 4 -3.09265 12.2779 12.5378
252 3 0.180687 10.5681 14.6661
232 3 -0.0973748 6.901 10.7567
51 4 2.3335 8.03011 15.2936
52 4 -0.218088 12.277 15.49
72 1 -1.8157 8.70439 15.3147
81 1 0.0127671 10.8886 10.6221
191 2 -5.94174 12.4371 13.1891
92 1 -5.92201 12.3483 14.2801
115 2 1.39203 9.44376 14.9231
254 3 -1.77163 12.6166 15.6266
100 2 -3.95868 10.2396 13.7572
101 2 -4.26018 13.1177 13.5226
114 2 -3.00554 11.5877 10.223
136 2 -3.17076 7.36944 14.6793
137 2 -1.1443 9.0175 16.1982
138 2 -1.50697 7.67365 14.8628
139 2 -2.88643 8.83255 15.4858
154 2 2.40694 7.88033 18.008
98 2 -2.59899 11.7746 18.0835
163 2 -0.0637129 9.80077 10.825
164 2 -0.226055 11.5837 11.4635
165 2 0.94234 11.1646 10.093
190 2 -5.41086 13.3091 14.8043
49 4 -1.43198 11.2874 9.45259
208 3 -2.80972 7.84739 11.2508
212 3 -6.08269 13.1416 9.61635
215 3 -0.738483 8.53257 12.7822
216 3 -4.20031 11.51 16.2169
217 3 -4.09836 11.9113 11.2447
218 3 -2.54884 10.8847 13.2791
357 2 -0.73003 12.8934 12.6244
253 3 0.322956 12.3023 17.0019
250 3 1.37269 6.89105 15.6867
352 2 -1.87349 8.57846 17.9066
17 4 -4.00031 7.46696 10.214
162 2 2.87393 7.20722 9.36832
47 4 1.27943 11.5298 18.0566
82 1 -1.71833 13.5338 12.2823
323 2 -3.81269 8.10174 17.8921
364 2 -7.33834 13.3953 17.5206
1 4 14.0839 1.08304 5.39086
349 2 14.3181 1.56821 1.47523
350 2 10.8611 0.883822 0.801542
4 2 12.1545 0.803719 6.52923
6 3 14.3303 0.143014 3.80544
318 1 13.2464 2.76496 4.94244
34 4 6.93368 2.63462 6.7617
39 4 5.3681 4.92991 8.43424
286 4 13.8324 0.11339 2.29218
53 4 8.53208 2.693 3.82861
55 4 9.6581 4.66852 1.63831
56 4 6.5608 6.60747 4.3283
59 4 9.10935 6.54217 6.19023
85 1 10.1726 1.80844 4.46929
88 1 10.9133 6.03328 2.27805
90 1 10.278 4.88478 6.54528
41 4 4.19582 6.59884 6.10477
170 2 11.2852 2.2382 4.55231
171 2 10.1113 0.943709 3.7363
172 2 9.77572 1.50892 5.48804
178 2 10.7282 6.65303 3.26345
179 2 10.6492 6.71561 1.34384
180 2 11.9629 5.50256 2.30398
184 2 10.4367 4.29242 5.59753
185 2 9.60398 4.34985 7.28724
186 2 11.2338 5.06346 7.03234
316 2 9.70923 3.21209 8.72969
222 3 7.51141 1.30254 7.39441
230 3 6.74135 4.07768 7.92234
336 2 8.56494 0.129033 0.566856
255 3 7.74946 1.57645 2.97628
256 3 7.78673 2.89496 5.37338
258 3 8.98615 4.05917 3.03045
259 3 10.4854 3.56487 0.942233
260 3 5.94372 5.50945 3.35063
263 3 8.45175 5.44758 0.598723
266 3 7.80961 6.21692 5.42079
189 2 9.42492 6.4831 8.45611
128 2 11.846 5.54692 5.53925
320 2 12.3727 2.52132 5.79622
341 2 11.7505 1.18603 2.31895
351 2 12.7516 2.82546 3.91423
308 4 11.0409 2.40224 0.00461367
313 2 12.3999 3.36137 8.77929
334 2 7.34752 4.01422 0.0181762
140 2 10.1228 -0.00918245 9.02883
333 2 7.53079 2.1876 0.163438
339 1 11.9269 -0.00105714 2.22411
12 4 14.5806 1.08955 10.4763
20 4 10.8918 5.39658 15.6743
97 2 12.4224 4.1196 14.0534
54 4 12.0226 0.640331 12.2739
57 4 8.53471 6.18023 17.7136
60 4 10.3 2.82101 13.7905
135 2 11.4528 6.29568 13.2455
73 1 9.13116 0.458141 9.30555
36 4 6.04787 3.05961 12.4397
360 2 9.21646 0.275915 15.5005
105 2 7.20151 4.09732 11.7027
314 2 8.85331 4.3885 10.0041
117 2 9.62736 1.46622 14.6605
119 2 8.79231 3.42285 13.2194
120 2 9.81099 5.95094 13.0839
124 2 14.5181 1.47122 14.6096
272 3 7.55717 6.00262 11.5448
141 2 9.2795 1.56197 9.55787
174 2 9.4158 -0.0593475 12.1509
317 3 11.4466 5.75999 9.98429
359 2 7.73633 0.461302 14.3296
177 2 12.8261 0.886579 14.3951
257 3 13.1053 0.469606 11.025
262 3 9.46959 5.71913 16.2652
264 3 5.85009 6.15149 9.40371
365 3 12.7363 1.92129 17.8564
267 3 11.1663 2.37981 12.6212
268 3 10.97 3.7952 14.7813
269 3 5.89927 5.71129 14.9378
315 2 9.65495 2.78572 10.7013
331 1 7.0531 2.68785 18.1246
332 2 6.86298 2.58151 16.9706
312 2 11.6338 3.39099 11.4079
309 2 10.1815 1.88593 17.08
310 4 11.387 4.19466 9.86962
311 1 9.62325 3.58485 9.89723
87 1 13.0709 -0.0413428 13.7252
270 3 6.88694 6.44879 17.2944
207 3 12.1115 5.74339 16.6978
58 4 6.17595 6.60585 10.9317
176 2 14.1661 -0.11909 13.4686
265 3 4.90004 6.4615 11.9101
84 1 8.60208 -0.205054 14.6632
71 1 11.2338 6.64289 14.3046
284 2 14.7421 1.13668 16.4419
355 2 8.63435 -0.0881624 10.1412
3 2 4.64463 12.9532 5.66144
48 4 2.945 9.03888 7.66839
50 4 1.41768 11.8016 5.88498
83 1 2.55078 12.1506 4.43204
89 1 10.2852 7.68703 4.94041
91 1 8.66482 7.29602 7.88571
121 2 7.13073 7.89512 3.31173
187 2 7.56771 7.0193 8.01734
166 2 1.87635 12.9275 3.91634
167 2 2.51878 11.0624 3.95868
168 2 3.64411 12.5222 4.72882
181 2 9.63185 7.68159 3.98501
32 4 0.328003 13.6624 7.89777
183 2 10.0865 8.56873 5.73668
2 1 5.19515 13.7212 6.32363
188 2 8.90573 8.30042 8.25453
192 2 5.12965 12.2093 8.02119
361 2 3.63632 13.2187 3.01802
244 3 3.53686 7.85294 6.87747
340 2 4.13765 13.4013 1.11123
249 3 1.46318 12.933 6.93349
261 3 5.39924 7.27756 5.22483
273 3 4.10777 9.75414 8.64453
285 4 9.29959 10.2192 3.48242
337 2 2.28177 13.2986 1.65425
287 4 8.04926 9.05406 0.886903
5 2 5.66881 13.275 7.26522
289 4 6.63271 10.6608 5.25914
290 1 6.27453 8.44488 1.54992
291 1 5.18791 10.3615 3.89401
292 1 6.58734 9.54842 6.69257
293 2 6.43426 12.3809 5.63744
294 2 6.34624 7.31285 1.72588
295 2 5.79947 8.74756 0.560729
296 2 5.86765 9.10996 2.51039
297 2 4.23936 10.9803 3.96482
298 2 4.94633 9.28302 3.8542
299 2 5.81546 10.7703 3.00929
300 2 6.56964 10.4149 7.49739
301 2 7.33987 8.67027 6.9822
302 2 5.47087 9.17737 6.55574
335 1 1.24002 13.1068 1.20225
304 3 8.92902 9.2358 2.21368
305 3 7.70104 10.4112 0.202028
306 3 6.47517 12.7251 1.32653
307 3 8.08964 10.3166 4.52177
248 3 2.21322 10.1564 6.72611
93 1 5.13076 12.2181 9.1588
329 2 8.13364 10.4021 9.0628
288 4 6.93422 11.2934 18.2325
62 4 8.84074 6.97169 12.0745
63 4 4.78919 10.4408 9.85254
64 4 7.82942 8.99958 14.1828
65 4 3.91315 10.4013 16.7086
66 4 6.90907 10.9923 12.1341
195 2 2.6438 9.61468 10.8794
134 2 10.1746 7.21458 14.3574
86 1 2.70552 13.3109 11.9824
94 1 3.46067 10.2195 11.2655
95 1 4.17242 11.0821 15.0296
116 2 6.36207 8.30584 10.7581
118 2 4.71884 7.75698 16.4636
122 2 5.9402 12.3206 12.521
362 2 4.93286 12.8325 14.1571
193 2 6.04399 12.7175 9.64493
175 2 3.06884 12.5623 12.8278
173 2 2.92477 12.9619 10.9173
194 2 4.13345 12.648 9.52815
61 4 6.20938 6.99082 15.9935
196 2 3.11514 11.3854 11.5724
197 2 3.9796 9.66809 12.1604
198 2 3.43654 12.0291 15.0962
199 2 3.77056 10.2241 14.3468
200 2 5.30736 11.3164 14.9404
363 2 8.34539 12.0602 14.7118
271 3 9.69718 7.63046 10.8543
169 2 1.56548 13.383 13.7077
274 3 6.90644 8.19693 15.2175
275 3 8.31174 8.12743 12.9641
276 3 9.23793 9.70926 15.1175
277 3 3.30544 8.45016 16.5753
278 3 5.31754 10.6478 17.5084
279 3 2.80259 11.3245 17.4175
280 3 8.25609 11.5792 11.5141
281 3 6.34329 10.0226 10.7546
282 3 6.93751 10.2882 13.5138
328 1 9.20143 10.2913 9.34606
330 2 9.39445 9.35255 9.96585
342 1 7.70447 12.428 16.9884
343 2 6.82902 12.4594 16.2218
344 2 8.63951 11.7794 16.6936
303 3 9.00582 7.69171 18.1521
ITEM: TIMESTEP
100
ITEM: NUMBER OF ATOMS
365
ITEM: BOX BOUNDS xy xz yz pp pp pp
-7.7317999999999998e+00 1.5563499999999999e+01 -7.7317999999999998e+00
-3.2142199999999999e-01 1.3846299999999999e+01 2.4629999999999999e-01
0.0000000000000000e+00 1.8322199999999999e+01 -3.2142199999999999e-01
ITEM: ATOMS id type x y z
7 4 1.04209 3.20165 0.244313
8 2 2.02166 2.23359 1.2562
9 2 1.42596 4.62113 0.927897
10 3 -0.454745 2.8288 0.519845
11 4 2.88487 0.429774 8.84244
13 4 1.37091 2.47543 6.92027
347 2 -2.77856 5.80931 1.11884
29 4 6.63952 0.664259 2.47516
30 4 2.83212 2.97211 4.25014
31 4 5.18126 2.8167 0.834616
37 4 4.58547 5.08497 2.74446
68 1 -2.23316 5.93033 4.88499
69 1 -0.666835 6.36519 7.57892
74 1 2.59973 1.38838 2.95949
75 1 5.15 2.18555 6.1037
77 1 1.99028 6.74266 3.70206
107 2 3.58568 6.49282 2.55985
102 2 1.32353 2.52688 3.14542
131 2 -1.22822 5.31265 7.18371
109 2 3.03555 5.85732 5.17096
126 2 -1.44183 5.17428 4.55436
127 2 -2.47855 6.79545 4.06697
161 2 2.64623 5.38753 9.05707
130 2 0.553312 6.27221 7.58284
142 2 3.07278 1.15406 1.97018
143 2 2.11171 0.433501 3.28137
144 2 3.94309 1.40735 3.99884
145 2 4.85979 1.20217 6.59769
146 2 5.23333 2.15548 4.96154
147 2 4.56051 3.07604 6.52265
151 2 1.50297 6.01936 4.39908
96 2 -1.28617 5.16159 9.01136
153 2 1.80293 6.46272 2.60409
319 2 -1.48494 3.68762 4.74641
201 3 0.118039 1.6456 6.05358
202 3 2.1216 1.51432 7.91275
205 3 0.578542 3.66515 7.71894
219 3 2.28004 3.09086 5.71085
220 3 5.4194 1.58028 1.92266
226 3 3.63109 4.12286 3.63258
227 3 4.67264 4.30039 1.33365
129 2 -1.15882 6.77312 8.50258
14 4 0.375619 2.43671 12.8987
346 2 -1.34671 3.68795 16.4335
19 4 -1.33912 4.93842 13.7309
33 4 3.72361 2.82717 10.2805
35 4 3.59378 2.4852 16.6887
40 4 1.14992 6.19584 10.7728
42 4 4.89475 4.54997 14.7157
43 4 0.363041 5.90198 16.1633
99 2 4.52211 -0.05356 17.2983
67 1 0.462078 1.38629 14.5282
76 1 3.47611 1.44795 15.1565
358 2 5.66404 0.452614 13.2361
204 3 -0.937183 2.52136 9.60507
103 2 2.12691 3.2991 10.6266
104 2 1.94077 2.44151 13.616
110 2 1.0837 4.3934 16.5394
123 2 0.9042 0.230903 14.3635
15 4 -2.20882 6.18409 17.8773
125 2 0.983144 2.047 15.3895
148 2 2.54596 0.833115 15.1142
149 2 4.40768 0.710921 15.2911
150 2 3.56849 2.06086 14.2053
237 3 -0.653125 6.22694 17.3922
203 3 0.108641 1.44212 11.7677
80 1 2.20051 6.46305 9.24775
206 3 -0.471438 3.71972 13.2525
44 4 3.5131 6.50686 12.9162
209 3 -1.7266 5.96499 12.5406
221 3 3.75543 1.18217 9.96502
223 3 4.24126 1.5234 17.8187
224 3 1.70802 2.90143 17.1006
225 3 4.4623 2.91684 11.6675
231 3 0.864014 4.29218 10.3006
234 3 4.27509 3.94445 16.1891
16 4 -0.152896 3.81965 9.20711
236 3 -0.54822 5.53397 14.9272
238 3 2.16875 6.3644 11.9202
239 3 3.66072 5.11528 13.7475
36 4 5.85622 2.98922 12.4468
229 3 4.32999 3.85818 9.29354
106 2 6.78489 1.54339 12.1085
356 2 5.49767 0.19125 11.1912
235 3 5.80524 3.08278 13.9537
284 2 -0.539994 1.36833 16.2834
359 2 7.44453 0.327539 14.2481
124 2 -0.732391 1.45748 14.6283
345 2 0.023104 0.0333673 9.59222
18 4 -1.35956 7.29506 6.01894
23 4 -3.01433 9.24013 7.78073
25 4 -3.98086 12.1438 6.72897
38 4 1.13533 8.37789 4.36246
45 4 0.165849 9.0609 1.29513
46 4 -1.61919 12.1329 4.58085
70 1 -5.65591 12.5265 5.92425
78 1 1.5441 8.12336 0.558482
79 1 -2.03681 10.6653 3.48607
111 2 -1.45095 8.39253 1.14908
353 2 -5.24776 10.4254 8.47138
133 2 -6.25828 11.6281 6.41041
108 2 2.14867 9.32735 5.36536
156 2 2.29307 8.06954 1.38483
132 2 -5.62388 12.332 4.79485
152 2 3.03662 7.26219 4.04453
157 2 -1.04681 10.182 3.26244
158 2 -2.40663 11.2344 2.57505
159 2 -2.76688 9.99816 3.89828
348 2 -4.78355 9.39429 4.4342
210 3 -3.88588 8.18829 8.84078
211 3 -2.51929 8.25457 6.62164
213 3 -4.03831 10.3981 7.16119
214 3 -3.8227 13.2226 7.94362
228 3 -0.00165458 7.73273 5.26785
240 3 0.613803 9.08114 3.02951
241 3 -1.39259 13.3972 3.66175
242 3 -2.88282 12.298 5.6191
243 3 0.153937 10.4228 0.463463
245 3 -1.72223 9.88167 8.52965
246 3 -0.633759 12.5308 8.68288
247 3 -0.0133936 11.7041 5.31436
155 2 0.931742 7.13885 0.308735
322 2 -3.58803 8.16911 0.947917
112 2 -0.585473 13.6112 1.1008
324 1 -5.58247 11.8848 2.7895
325 2 -5.88825 11.7236 1.67768
326 2 -4.46476 11.7738 2.95788
327 2 -5.96295 12.9091 3.14287
113 2 1.75415 8.36394 8.84086
354 2 -5.97673 13.5646 6.2171
160 2 1.58249 6.87074 8.25584
251 3 3.27156 7.86578 13.8784
21 4 -1.44178 7.36964 11.8424
22 4 -2.83383 12.3061 16.6941
24 4 -5.87192 11.8998 10.5168
26 4 -1.17471 9.64783 14.0734
27 4 -4.95345 10.7275 14.9234
28 4 -3.10908 12.2931 12.7327
252 3 0.336915 10.5923 14.6031
232 3 -0.144945 7.15208 10.6161
51 4 2.39649 8.06866 15.2552
52 4 -0.039402 12.1482 15.4823
72 1 -1.71784 8.75087 15.5694
81 1 -0.361524 10.5235 10.6991
191 2 -5.60448 12.1506 13.2369
92 1 -5.96694 12.2511 14.3371
115 2 1.3625 9.41893 14.8946
254 3 -1.58629 12.536 15.6971
100 2 -3.81606 10.1612 13.7662
101 2 -4.19687 13.0882 13.8284
114 2 -3.01417 11.661 10.2046
136 2 -3.32119 7.67213 14.8057
137 2 -0.952559 9.03521 16.4039
138 2 -1.7723 7.61017 15.3789
139 2 -2.74677 9.28198 15.7289
154 2 2.30529 8.14117 17.8778
98 2 -2.25982 11.5775 18.1031
163 2 -0.171788 9.45819 10.3712
164 2 -1.17074 10.586 11.539
165 2 0.56234 11.2193 10.8194
190 2 -5.5959 13.2017 14.8462
49 4 -1.499 11.2519 9.37433
208 3 -2.86802 7.92489 11.239
212 3 -6.16298 13.1898 9.55846
215 3 -0.863912 8.53652 12.8898
216 3 -4.05262 11.5377 16.1586
217 3 -4.20798 11.8885 11.246
218 3 -2.44219 10.9451 13.3651
357 2 -0.866234 13.1101 12.2653
253 3 0.539748 12.28 16.97
250 3 1.51173 6.906 15.8458
352 2 -2.18587 8.98506 18.3082
17 4 -4.01855 7.33956 10.1887
162 2 2.9574 7.20554 9.65951
323 2 -3.49984 8.03473 17.3807
82 1 -1.87641 13.606 12.2303
321 1 -2.76006 8.01338 18.2843
1 4 14.1463 1.12368 5.28717
349 2 14.3385 1.37634 1.37795
350 2 10.6188 0.971597 1.16329
4 2 12.4074 0.935921 6.75648
6 3 14.1732 0.319126 3.91315
318 1 13.1807 2.79484 4.66508
34 4 6.85418 2.77156 6.66139
39 4 5.41651 4.86686 8.52426
286 4 13.8579 0.0310766 2.30735
53 4 8.55646 2.64956 3.84823
55 4 9.77304 4.62188 1.60297
56 4 6.58464 6.6185 4.33833
59 4 9.11319 6.34496 6.20424
85 1 10.1196 1.68981 4.35565
88 1 10.9974 5.89632 2.3436
90 1 10.3718 4.68441 6.14771
41 4 4.2342 6.59865 6.24072
170 2 11.2289 2.16851 4.46467
171 2 10.1168 0.896424 3.53583
172 2 9.73273 1.27432 5.38047
178 2 10.6455 6.41464 3.34001
179 2 10.9112 6.68171 1.38007
180 2 12.0373 5.32134 2.43981
184 2 10.783 4.29084 5.23314
185 2 9.38403 4.08867 6.37168
186 2 11.0655 4.75864 6.9977
316 2 9.51049 3.07584 8.73471
222 3 7.50299 1.28159 7.33101
230 3 6.79608 3.94361 7.96197
336 2 8.95512 0.17522 1.09833
255 3 7.73339 1.66259 2.87644
256 3 7.68258 3.16658 5.24624
258 3 9.11514 4.02723 2.97012
259 3 10.6113 3.57609 0.774205
260 3 5.95639 5.54884 3.29994
263 3 8.4582 5.32365 0.575049
266 3 7.88876 6.29971 5.23881
189 2 8.8098 6.38171 8.49312
128 2 12.096 5.45431 5.3366
320 2 12.4995 2.73056 5.58198
341 2 11.8642 1.22639 2.34882
351 2 12.8295 2.45049 3.66898
339 1 11.9534 0.0749627 2.30623
313 2 12.2408 3.5872 8.68992
334 2 7.45286 3.9827 0.152095
308 4 10.9049 2.26875 0.0733275
32 4 8.06292 -0.0829497 7.9327
2 1 13.0325 -0.0333159 6.42453
333 2 7.36813 2.04447 0.286221
233 3 4.68415 5.41153 7.23755
12 4 14.51 1.16779 10.4688
20 4 10.8814 5.52175 15.7165
97 2 12.493 4.16309 14.2511
54 4 11.9499 0.617087 12.2276
57 4 8.58094 6.14449 17.5826
60 4 10.2129 2.9522 13.6798
135 2 11.5365 6.13356 13.5988
73 1 8.98339 0.517015 9.50008
84 1 8.44385 -0.117904 14.573
360 2 8.86561 0.406607 15.4846
105 2 6.68924 4.32679 11.7899
314 2 8.59846 4.60208 9.69937
117 2 9.27135 1.64196 14.2629
119 2 9.20203 4.0276 12.9776
120 2 10.0641 6.25904 12.8521
355 2 8.3906 -0.0879958 10.3181
272 3 7.44335 5.89861 11.4707
141 2 9.00253 1.67814 9.65017
174 2 9.36623 0.0741507 12.0565
317 3 11.2862 5.69842 10.0376
364 2 15.1564 -0.211898 17.683
177 2 12.5386 0.822357 14.4312
257 3 13.0381 0.590169 10.925
262 3 9.50193 5.69569 16.3762
264 3 5.78401 6.22536 9.45778
365 3 12.552 1.80801 17.7635
267 3 11.215 2.41122 12.6213
268 3 11.0945 3.70662 14.8369
269 3 5.97545 5.67444 14.8865
315 2 9.21662 3.13572 10.7534
331 1 7.09142 2.702 18.2137
332 2 6.75764 2.64563 17.1244
312 2 11.6573 3.34234 11.3332
309 2 9.98783 1.52258 17.2943
310 4 11.197 4.12409 9.89282
311 1 9.33934 3.71141 9.77175
87 1 12.8678 -0.103128 13.6977
270 3 6.99969 6.44356 17.0936
207 3 12.1384 5.62321 16.7702
140 2 10.0225 0.0608466 9.27268
176 2 13.9715 -0.162634 13.4515
265 3 4.86281 6.70064 11.9454
283 4 14.0405 2.28454 17.4452
3 2 4.60762 12.9944 5.8779
48 4 2.93405 8.92572 7.72975
50 4 1.46955 11.8116 5.98124
83 1 2.63757 12.2712 4.60113
89 1 10.2916 7.55204 5.02684
91 1 8.56878 7.2504 7.83028
121 2 7.1231 7.95692 3.38549
187 2 7.43661 7.46101 7.88284
166 2 2.07823 13.1974 4.14951
167 2 2.51224 11.3078 3.88213
168 2 3.79083 12.5446 4.86576
181 2 9.72237 7.82325 4.04356
182 2 11.3592 7.0009 4.95462
183 2 10.1683 8.33986 5.91676
329 2 8.24744 10.5188 9.00589
188 2 9.26546 8.21102 7.94887
192 2 5.2125 12.3118 8.27127
361 2 3.67672 13.3372 3.19418
244 3 3.38106 7.72895 6.88671
340 2 4.08888 13.4523 1.26219
249 3 1.56524 12.9143 7.0702
261 3 5.34216 7.20171 5.22722
273 3 4.20848 9.43533 8.67824
285 4 9.25572 10.2228 3.50248
337 2 2.38902 12.5616 1.59258
287 4 8.03604 9.10188 0.775495
5 2 5.82579 13.4681 7.36924
289 4 6.59118 10.6296 5.32362
290 1 6.42625 8.4319 1.59944
291 1 5.11397 10.2776 3.99173
292 1 6.63317 9.6507 6.87812
293 2 6.3583 12.3208 5.76317
294 2 6.66987 7.32478 1.77507
295 2 5.82536 8.56159 0.585648
296 2 5.94459 9.14546 2.6182
297 2 4.14336 10.959 4.23172
298 2 5.02831 9.12318 4.10396
299 2 5.65901 10.594 3.0471
300 2 6.72409 10.575 7.56998
301 2 7.40158 8.77384 7.17918
302 2 5.57744 9.19955 6.81123
335 1 1.25526 12.9316 1.36311
304 3 8.8623 9.37208 2.25579
305 3 7.65345 10.6736 0.0938928
306 3 6.31921 12.5927 1.39936
307 3 7.95212 10.4154 4.40298
248 3 2.24441 10.156 6.7018
338 2 0.614995 12.6693 2.17037
288 4 6.79118 11.4815 18.2173
62 4 8.88465 7.05284 11.9439
63 4 4.69547 10.3258 9.90441
64 4 7.91764 9.04374 14.2308
65 4 4.05062 10.4327 16.7106
66 4 6.92395 10.9848 12.0833
195 2 2.41158 9.77427 10.9232
134 2 10.1461 7.36483 14.2354
86 1 2.62097 13.41 11.9132
94 1 3.29023 10.3204 11.2779
95 1 4.02348 11.0442 14.9925
116 2 6.55851 8.41268 10.6113
118 2 4.71392 7.73655 16.3656
122 2 5.92476 12.2473 12.5948
362 2 4.7578 12.7586 14.1153
193 2 6.27755 12.2633 9.75344
175 2 2.9178 12.6793 12.8481
173 2 2.64226 12.9347 10.8878
194 2 4.52399 12.7349 9.87453
61 4 6.2323 7.03642 15.8965
196 2 3.00253 11.421 11.4877
197 2 3.70224 9.84563 12.2085
198 2 3.51027 12.0836 15.1502
199 2 3.51415 10.4259 14.2068
200 2 5.17858 11.1625 14.8343
363 2 8.17965 12.0435 14.6022
271 3 9.59778 7.83964 10.7534
169 2 1.44696 13.582 13.5839
274 3 6.9521 8.16116 15.1261
275 3 8.4966 8.06193 13.0379
276 3 9.21729 9.70063 15.2415
277 3 3.36865 8.54511 16.4935
278 3 5.37176 10.8099 17.5131
279 3 2.78735 11.0877 17.5101
280 3 8.27312 11.6088 11.5602
281 3 6.04693 9.95828 10.8526
282 3 7.07004 10.2738 13.5108
328 1 9.30311 10.3873 9.36809
330 2 9.39846 9.41104 9.97199
342 1 7.36304 12.7813 16.9719
343 2 6.53634 12.8425 16.2156
344 2 8.34142 12.3742 16.5937
303 3 9.06342 7.68518 18.2448
93 1 5.23347 12.0985 9.36086
47 4 1.31933 11.4836 18.1485
71 1 11.1294 6.87031 14.4251
58 4 6.16777 6.74919 10.9372
ITEM: TIMESTEP
200
ITEM: NUMBER OF ATOMS
365
ITEM: BOX BOUNDS xy xz yz pp pp pp
-7.7317999999999998e+00 1.5563499999999999e+01 -7.7317999999999998e+00
-3.2142199999999999e-01 1.3846299999999999e+01 2.4629999999999999e-01
0.0000000000000000e+00 1.8322199999999999e+01 -3.2142199999999999e-01
ITEM: ATOMS id type x y z
7 4 0.950483 3.24854 0.321213
8 2 2.04903 2.2489 1.25673
9 2 0.992809 4.75368 1.07995
10 3 -0.589798 2.73887 0.383374
11 4 2.80833 0.364083 8.77779
13 4 1.29092 2.53709 6.80478
347 2 -2.69369 5.80204 1.05609
29 4 6.7348 0.742454 2.54007
30 4 2.74983 3.02265 4.24418
31 4 5.28531 2.60896 0.766204
37 4 4.60275 4.93271 2.59964
68 1 -2.11893 5.78986 4.86333
69 1 -0.77252 6.32187 7.5603
74 1 2.35771 1.44002 3.0181
75 1 5.17808 2.12074 6.33414
77 1 2.19282 6.73352 3.59889
107 2 3.59499 6.26142 2.26973
102 2 1.27252 2.66721 2.96778
131 2 -1.05908 5.30724 7.20737
109 2 3.08056 5.93764 5.17397
126 2 -1.47203 4.90742 4.48023
127 2 -2.26442 6.44667 3.94549
161 2 2.15477 5.54903 8.76038
130 2 0.358304 6.35554 7.82874
142 2 2.92299 1.40377 2.03457
143 2 1.72654 0.492129 3.16339
144 2 3.54215 1.26438 4.2086
145 2 5.22601 0.993141 6.43336
146 2 5.27816 2.50461 5.20732
147 2 4.42466 2.65821 6.9587
151 2 1.59645 6.02371 4.33779
96 2 -1.42623 5.05575 8.86603
129 2 -1.37773 6.75278 8.36341
319 2 -1.42934 3.53937 4.4402
201 3 -0.00758494 1.84059 5.9668
202 3 2.01648 1.3249 7.59797
205 3 0.635006 3.68448 7.81148
219 3 2.3449 3.19609 5.6966
220 3 5.38971 1.46735 2.00497
226 3 3.68522 4.09017 3.56024
227 3 4.80248 4.04298 1.27013
153 2 1.89103 6.80313 2.46752
80 1 1.99424 6.65491 9.06747
233 3 4.56913 5.54369 7.35661
14 4 0.304197 2.27898 13.0155
346 2 -1.58628 3.80859 16.7045
19 4 -1.17478 4.9843 13.632
33 4 3.77871 2.82657 10.2675
35 4 3.51823 2.58691 16.6186
40 4 1.1389 6.30411 10.716
42 4 4.88527 4.60717 14.6467
43 4 0.396783 5.91461 16.1234
99 2 4.36113 -0.064071 17.1758
67 1 0.383233 1.34605 14.7129
76 1 3.58506 1.43122 15.159
358 2 6.11725 0.409478 13.0825
204 3 -1.18613 2.59921 9.48625
103 2 2.24593 3.6522 10.4493
104 2 1.88519 2.11254 13.7508
110 2 1.30094 4.54605 16.5879
123 2 0.941192 0.291187 14.6193
15 4 -2.17353 6.20285 17.7787
125 2 0.705778 1.95217 15.7024
148 2 2.53245 0.88865 15.0207
149 2 4.44731 0.754797 15.4615
150 2 3.91737 2.04259 14.2613
237 3 -0.618654 6.05381 17.3825
203 3 0.140678 1.4893 11.6685
356 2 5.66885 0.178887 11.1413
206 3 -0.291268 3.68439 13.2199
44 4 3.48617 6.62264 12.8841
209 3 -1.66615 5.87072 12.4868
221 3 3.59132 1.31875 9.8097
223 3 4.25407 1.63739 17.7112
224 3 1.68214 3.03386 17.225
225 3 4.40023 3.01439 11.6684
231 3 0.828618 4.33092 10.355
234 3 4.28445 3.95683 16.2294
235 3 5.68925 3.21167 13.8818
236 3 -0.526679 5.70319 14.9128
238 3 2.14538 6.55999 11.8569
239 3 3.58133 5.28165 13.7593
36 4 5.84482 2.99746 12.3878
229 3 4.61831 3.68112 9.22037
106 2 6.74123 1.54736 11.9131
16 4 -0.18028 3.86094 9.23451
18 4 -1.34483 7.16523 5.90181
23 4 -3.03244 9.1641 7.73466
25 4 -3.91816 12.0891 6.76576
38 4 1.20019 8.31199 4.28014
45 4 0.298747 9.03573 1.34551
46 4 -1.40195 12.0249 4.61641
70 1 -5.57441 12.4296 6.01433
78 1 1.72587 8.13944 0.513936
79 1 -1.92486 10.5868 3.57327
111 2 -1.07557 8.05431 1.12356
353 2 -5.30745 10.2569 8.67884
133 2 -6.1662 11.4943 6.48366
108 2 1.93515 9.30083 5.46977
156 2 2.46892 8.0406 1.44515
132 2 -5.4411 12.3229 4.86891
152 2 3.16779 7.25898 3.99057
157 2 -1.4803 9.705 3.96309
158 2 -1.50474 11.0616 2.51633
159 2 -3.05752 10.4861 3.53595
348 2 -4.71488 9.40363 4.27443
210 3 -3.83204 8.05387 8.76044
211 3 -2.3486 8.29707 6.3543
213 3 -4.11494 10.2478 7.30528
214 3 -3.91041 13.1011 8.00773
228 3 -0.053488 7.59899 5.04254
240 3 0.872347 9.09276 2.85408
241 3 -1.16228 13.27 3.57038
242 3 -2.73229 12.2427 5.64423
243 3 0.0673165 10.4673 0.426617
245 3 -1.90306 10.0277 8.42699
246 3 -0.67165 12.5084 8.85822
247 3 0.0933214 11.5385 5.50106
155 2 1.166 7.13259 0.405981
322 2 -2.87055 8.27023 1.15131
183 2 -4.57545 8.45287 5.64391
324 1 -5.26944 11.8919 2.92281
325 2 -5.07977 11.6574 1.81777
326 2 -4.2741 11.7763 3.56697
327 2 -5.83673 12.9161 3.12837
113 2 1.7202 8.53616 8.74745
354 2 -6.00475 13.4644 6.4319
160 2 1.28305 7.22104 8.29075
338 2 0.590673 12.3084 2.17661
112 2 -0.257365 13.8141 1.14808
321 1 -2.77516 8.30269 0.00906801
251 3 3.2523 7.89371 13.9353
21 4 -1.48729 7.32912 11.7971
22 4 -2.81337 12.3008 16.6941
24 4 -5.88437 11.9389 10.4402
26 4 -1.1637 9.75527 14.0743
27 4 -4.85248 10.8252 15.0888
28 4 -3.15828 12.2826 12.5381
252 3 0.16751 10.5838 14.5381
232 3 -0.325642 7.17674 10.6284
51 4 2.40077 8.16282 15.2705
52 4 -0.0135709 12.3242 15.474
72 1 -1.906 8.93091 15.5991
81 1 -0.534559 10.51 10.7818
191 2 -5.90503 12.5133 13.4361
92 1 -5.72861 12.4115 14.5482
115 2 1.40613 9.50623 14.8581
254 3 -1.57342 12.6232 15.7406
100 2 -3.83283 10.1676 13.8995
101 2 -3.97715 13.0309 13.8426
114 2 -3.00212 11.7902 10.1071
136 2 -3.23289 7.60279 14.7988
137 2 -1.24698 9.35831 16.4575
138 2 -1.59457 7.82637 15.3916
139 2 -2.98099 9.13239 15.7419
154 2 2.49119 8.20759 17.8842
98 2 -2.17496 11.8759 18.19
163 2 -0.0478615 9.61264 10.3716
164 2 -1.3798 10.3562 11.4705
165 2 0.161361 11.3004 11.059
190 2 -5.31029 13.3733 15.0875
49 4 -1.55284 11.2952 9.30273
208 3 -2.90645 7.75164 11.1972
212 3 -6.30599 13.2513 9.53343
215 3 -1.12776 8.53204 13.0554
216 3 -3.91949 11.3051 16.288
217 3 -4.09993 12.0723 11.2982
218 3 -2.4872 10.9525 13.2963
357 2 -0.970902 12.6976 12.0205
253 3 0.733032 12.3438 16.8817
250 3 1.38543 7.10294 15.7932
47 4 1.3511 11.264 18.2077
344 2 -6.85131 12.4971 16.9321
162 2 2.92792 7.19489 9.54476
323 2 -3.53169 8.2678 17.817
82 1 -1.8257 13.5524 12.134
352 2 -1.63567 8.61317 18.01
1 4 14.0243 1.26961 5.2819
349 2 14.2881 1.45965 1.55529
350 2 10.6647 0.98232 1.28823
4 2 12.4503 1.03108 6.88285
6 3 14.2975 0.231198 3.77998
318 1 13.0004 2.73392 4.71879
34 4 6.94468 2.57051 6.81764
39 4 5.46007 4.80467 8.47502
286 4 13.7804 0.0441957 2.37484
53 4 8.63014 2.77165 3.88983
55 4 9.88137 4.5893 1.59203
56 4 6.44034 6.66835 4.31218
59 4 9.17667 6.34366 6.05428
85 1 9.99974 1.64312 4.59031
88 1 11.0628 5.94387 2.24148
90 1 10.3819 4.79122 6.04011
41 4 4.1293 6.63946 6.31616
170 2 11.0859 2.06172 4.65959
171 2 9.93063 0.752137 3.87902
172 2 9.53777 1.38214 5.6191
178 2 10.7412 6.51071 3.23216
179 2 11.0994 6.63899 1.32673
180 2 11.9412 5.29665 2.41107
184 2 10.7147 4.5451 4.97017
185 2 9.59014 4.1542 6.45987
186 2 11.2765 4.95013 6.8193
316 2 9.20549 3.3046 8.71814
222 3 7.34639 1.16415 7.51052
230 3 6.64423 3.94868 7.79891
336 2 9.16052 0.0143254 1.34935
255 3 7.8624 1.69862 3.00443
256 3 7.80257 2.97643 5.46653
258 3 9.35014 3.92196 2.94295
259 3 10.5575 3.57857 0.648093
260 3 5.80493 5.60803 3.30599
263 3 8.49228 5.37475 0.62035
266 3 7.87579 6.25815 5.11985
189 2 9.43392 6.341 8.27535
128 2 12.1227 5.41348 5.29197
320 2 12.3034 2.97222 5.60574
341 2 11.7904 1.13203 2.62216
351 2 12.4449 2.4734 3.735
333 2 7.64344 2.01357 0.101483
313 2 11.8184 3.49278 8.65626
334 2 7.49546 3.93848 0.0855543
308 4 10.8642 2.16706 0.0281755
2 1 12.9827 0.0993057 6.38992
32 4 8.09514 -0.133935 8.2365
12 4 14.4487 1.32877 10.4078
20 4 10.7468 5.50822 15.702
97 2 12.5909 4.35803 14.1489
54 4 11.9181 0.640569 12.1615
57 4 8.5749 6.19053 17.7354
60 4 10.3134 2.96271 13.6986
135 2 11.5253 6.04628 13.5055
73 1 9.01111 0.643436 9.63916
84 1 8.61528 -0.00313207 14.6856
360 2 9.18518 0.334905 15.6486
105 2 6.75415 4.20388 11.6652
314 2 8.53512 4.85729 9.54288
117 2 9.65365 1.70179 14.6437
119 2 8.93135 3.57851 13.1582