ITEM: TIMESTEP
0
ITEM: NUMBER OF ATOMS
365
ITEM: BOX BOUNDS xy xz yz pp pp pp
-7.7317999999999998e+00 1.5380278000000001e+01 -7.7317999999999998e+00
-1.3819999999999999e-01 1.3846299999999999e+01 6.3077999999999995e-02
0.0000000000000000e+00 1.8322199999999999e+01 -1.3819999999999999e-01
ITEM: ATOMS id type x y z
7 4 1.00055 3.21363 0.215362
8 2 2.05976 2.12499 1.23203
9 2 1.51791 4.64522 0.868497
10 3 -0.438191 2.98289 0.754763
11 4 2.8663 0.583067 8.85202
13 4 1.20884 2.37517 6.97153
347 2 -2.94672 6.05472 1.01243
29 4 6.51087 0.73813 2.43658
30 4 2.69845 2.94097 4.20073
31 4 5.16507 2.86311 0.694895
37 4 4.55013 5.07155 2.76574
68 1 -2.393 5.98872 4.90119
69 1 -0.817764 6.28714 7.519
74 1 2.31438 1.35495 2.95422
75 1 5.15235 2.42317 6.11192
129 2 -1.24382 6.83667 8.47499
107 2 3.48079 6.3939 2.56174
102 2 1.33227 2.73275 2.81532
131 2 -1.30742 5.23068 7.22876
109 2 2.97194 6.00128 5.03872
126 2 -1.63654 5.14039 4.81653
127 2 -2.55332 6.43826 3.87601
161 2 2.44213 5.37786 8.96894
130 2 0.371593 6.15186 7.61967
142 2 2.90387 1.20475 2.01795
143 2 1.56476 0.52875 3.19211
144 2 3.62791 1.32951 4.12812
145 2 5.01385 1.31691 6.45161
146 2 5.25529 2.51362 4.93504
147 2 4.44567 3.17177 6.55634
151 2 1.409 6.15138 4.44141
96 2 -1.36971 4.96724 8.88513
153 2 1.75246 6.648 2.49272
319 2 -1.40816 3.76477 5.12141
201 3 -0.0270064 1.39306 6.33526
202 3 2.08771 1.56714 7.92894
205 3 0.662513 3.74568 7.77785
219 3 2.0152 2.92933 5.60085
220 3 5.32868 1.76487 1.91358
226 3 3.81606 4.03058 3.71275
227 3 4.67392 4.39616 1.32355
80 1 1.9846 6.54939 9.08131
233 3 4.52944 5.4604 7.07915
354 2 1.81056 0.003373 6.22289
160 2 1.46614 6.8164 8.09425
77 1 1.86524 6.89488 3.65159
14 4 0.184327 2.54478 12.9103
346 2 -1.41119 3.68783 16.2
19 4 -1.49349 5.006 13.7029
33 4 3.73397 3.05353 10.3508
35 4 3.36149 2.68636 16.6331
40 4 1.12259 6.18285 10.715
42 4 4.78691 4.62327 14.7948
43 4 0.136107 6.00613 16.102
99 2 4.14101 0.23905 17.2823
67 1 0.27572 1.58645 14.6775
76 1 3.73777 1.3402 15.3248
358 2 5.52268 0.565216 13.0717
204 3 -1.14394 2.4541 9.49027
103 2 2.03872 3.52632 10.5621
104 2 1.72219 2.57534 13.7867
110 2 0.990179 4.57358 16.2497
123 2 0.684843 0.518294 14.5789
15 4 -2.34608 6.48085 17.7529
125 2 0.663299 2.1597 15.6475
148 2 2.95186 0.480977 15.4816
149 2 4.76444 1.00175 15.4306
150 2 3.59855 1.9163 14.3849
237 3 -0.69424 6.31532 17.521
203 3 0.207834 1.65329 11.6542
283 4 -1.3622 2.54204 17.454
206 3 -0.662604 3.90211 13.0487
44 4 3.27859 6.49699 13.0276
209 3 -1.75741 6.23513 12.7903
221 3 3.65882 1.48551 9.89184
223 3 3.94332 1.8511 17.8031
224 3 1.43073 3.03024 17.0577
225 3 4.57864 3.22629 11.7299
231 3 0.703985 4.25559 10.5178
234 3 4.25166 3.97209 16.2863
16 4 -0.207131 3.7578 9.24171
236 3 -0.839119 5.49923 15.0278
238 3 2.08702 6.44647 11.994
239 3 3.42268 5.13704 13.8822
345 2 0.0501219 0.0667967 9.52757
229 3 4.41686 3.95853 9.32996
106 2 6.66754 1.6302 12.0607
356 2 6.07124 0.295287 11.2622
235 3 5.75776 3.27269 13.9529
18 4 -1.4723 7.28588 6.07654
23 4 -3.14248 9.2804 7.81826
25 4 -4.13606 12.4084 6.70753
38 4 0.956908 8.47479 4.30394
45 4 0.271576 9.07328 1.30661
46 4 -1.72344 12.3539 4.46804
70 1 -5.73467 12.7911 5.90558
78 1 1.57504 7.91401 0.726341
79 1 -2.0191 10.7757 3.5111
111 2 -1.40401 8.53588 1.17824
353 2 -5.4689 10.4466 8.44665
321 1 -3.02466 8.33126 0.107089
182 2 -4.03209 7.26862 4.92462
156 2 2.32036 7.94636 1.64893
132 2 -5.80344 12.5021 4.73473
152 2 2.98847 7.49267 3.87512
157 2 -1.04609 10.1999 3.58381
158 2 -2.36609 10.9547 2.48511
159 2 -2.82222 10.3469 4.2189
348 2 -4.64656 9.50392 4.28479
210 3 -3.97045 8.35186 8.85996
211 3 -2.568 8.39325 6.57896
213 3 -4.16094 10.5619 7.29932
214 3 -3.97851 13.4255 7.93899
228 3 -0.223212 7.85857 5.14189
240 3 0.595999 9.26997 3.01592
241 3 -1.85011 13.5637 3.4473
242 3 -2.98201 12.4472 5.57974
243 3 0.458536 10.3776 0.415315
245 3 -1.92487 10.0679 8.5699
246 3 -0.974218 12.6045 8.57416
247 3 -0.142434 11.8752 5.26472
155 2 0.902246 6.93778 0.753059
322 2 -3.15453 8.45054 1.23513
112 2 -0.729841 13.6637 1.08611
324 1 -5.95012 12.0098 2.80558
325 2 -6.0248 11.7401 1.66256
326 2 -4.77791 12.0676 3.16721
327 2 -6.58251 12.9092 3.1459
113 2 1.56285 8.40063 8.55338
108 2 1.96657 9.38768 5.40319
133 2 -6.42061 12.0688 6.53737
338 2 0.412191 12.652 2.00074
251 3 3.13418 7.71753 14.0002
21 4 -1.45221 7.47304 11.8869
22 4 -3.18374 12.5837 16.6607
24 4 -6.03114 11.8723 10.4721
26 4 -1.17578 9.92091 13.9568
27 4 -5.16789 10.9581 15.0093
28 4 -3.21803 12.4033 12.5378
252 3 0.0340258 10.7148 14.6661
232 3 -0.204942 7.00857 10.7567
51 4 2.18057 8.18305 15.2936
52 4 -0.372988 12.4319 15.49
72 1 -1.96885 8.85754 15.3147
81 1 -0.0934538 10.9948 10.6221
191 2 -6.07363 12.569 13.1891
92 1 -6.06481 12.4911 14.2801
115 2 1.2428 9.59299 14.9231
254 3 -1.9279 12.7729 15.6266
100 2 -4.09626 10.3772 13.7572
101 2 -4.39541 13.2529 13.5226
114 2 -3.10777 11.6899 10.223
136 2 -3.31755 7.51624 14.6793
137 2 -1.30628 9.17948 16.1982
138 2 -1.65559 7.82227 14.8628
139 2 -3.04128 8.98741 15.4858
154 2 2.22685 8.06041 18.008
98 2 -2.77982 11.9554 18.0835
163 2 -0.171963 9.90902 10.825
164 2 -0.34069 11.6984 11.4635
165 2 0.841411 11.2656 10.093
190 2 -5.5589 13.4572 14.8043
49 4 -1.52651 11.382 9.45259
208 3 -2.92223 7.95989 11.2508
212 3 -6.17886 13.2377 9.61635
215 3 -0.866305 8.66039 12.7822
216 3 -4.36248 11.6722 16.2169
217 3 -4.21081 12.0237 11.2447
218 3 -2.68163 11.0175 13.2791
357 2 -0.856274 13.0197 12.6244
253 3 0.152937 12.4723 17.0019
250 3 1.21582 7.04792 15.6867
352 2 -2.05256 8.75753 17.9066
17 4 -4.10245 7.5691 10.214
162 2 2.78024 7.3009 9.36832
47 4 1.09887 11.7104 18.0566
82 1 -1.84115 13.6566 12.2823
323 2 -3.99161 8.28066 17.8921
364 2 -7.51355 13.5705 17.5206
1 4 14.03 1.13694 5.39086
349 2 14.3034 1.58296 1.47523
350 2 10.8531 0.891838 0.801542
4 2 12.0892 0.869011 6.52923
6 3 14.2923 0.181069 3.80544
318 1 13.197 2.81438 4.94244
34 4 6.86607 2.70224 6.7617
39 4 5.28376 5.01426 8.43424
286 4 13.8095 0.136311 2.29218
53 4 8.49379 2.73129 3.82861
55 4 9.64172 4.6849 1.63831
56 4 6.51751 6.65075 4.3283
59 4 9.04745 6.60407 6.19023
85 1 10.128 1.85313 4.46929
88 1 10.8905 6.05606 2.27805
90 1 10.2126 4.95024 6.54528
41 4 4.13478 6.65989 6.10477
170 2 11.2397 2.28372 4.55231
171 2 10.074 0.981072 3.7363
172 2 9.72084 1.5638 5.48804
178 2 10.6956 6.68567 3.26345
179 2 10.6357 6.72904 1.34384
180 2 11.9398 5.5256 2.30398
184 2 10.3807 4.34839 5.59753
185 2 9.53111 4.42272 7.28724
186 2 11.1635 5.13378 7.03234
316 2 9.62193 3.29939 8.72969
222 3 7.43746 1.37648 7.39441
230 3 6.66213 4.1569 7.92234
336 2 8.55927 0.134702 0.566856
255 3 7.7197 1.60622 2.97628
256 3 7.73299 2.94869 5.37338
258 3 8.95584 4.08947 3.03045
259 3 10.4759 3.5743 0.942233
260 3 5.91022 5.54296 3.35063
263 3 8.44576 5.45357 0.598723
266 3 7.7554 6.27113 5.42079
189 2 9.34036 6.56766 8.45611
128 2 11.7907 5.60231 5.53925
320 2 12.3147 2.57928 5.79622
341 2 11.7274 1.20922 2.31895
351 2 12.7125 2.8646 3.91423
308 4 11.0408 2.40229 0.00461367
313 2 12.3121 3.44916 8.77929
334 2 7.34734 4.0144 0.0181762
140 2 10.0325 0.0811058 9.02883
333 2 7.52916 2.18923 0.163438
339 1 11.9046 0.0211839 2.22411
12 4 14.4758 1.19431 10.4763
20 4 10.7351 5.55333 15.6743
97 2 12.2819 4.26014 14.0534
54 4 11.8998 0.76307 12.2739
57 4 8.35757 6.35736 17.7136
60 4 10.1621 2.95891 13.7905
135 2 11.3204 6.42813 13.2455
73 1 9.03811 0.551197 9.30555
36 4 5.92347 3.184 12.4397
360 2 9.06146 0.43092 15.5005
105 2 7.08448 4.21434 11.7027
314 2 8.75327 4.48854 10.0041
117 2 9.48076 1.61283 14.6605
119 2 8.66011 3.55504 13.2194
120 2 9.68015 6.08178 13.0839
124 2 14.372 1.61731 14.6096
272 3 7.44172 6.11807 11.5448
141 2 9.18392 1.65755 9.55787
174 2 9.29429 0.0621616 12.1509
317 3 11.3467 5.85984 9.98429
359 2 7.59304 0.604598 14.3296
177 2 12.6821 1.03053 14.3951
257 3 12.995 0.579856 11.025
262 3 9.30694 5.88178 16.2652
264 3 5.75605 6.24553 9.40371
365 3 12.5577 2.09986 17.8564
267 3 11.0401 2.50602 12.6212
268 3 10.8222 3.94302 14.7813
269 3 5.74989 5.86067 14.9378
315 2 9.54793 2.89273 10.7013
331 1 6.87186 2.8691 18.1246
332 2 6.69328 2.75122 16.9706
312 2 11.5197 3.50507 11.4079
309 2 10.0107 2.05673 17.08
310 4 11.2884 4.29335 9.86962
311 1 9.52427 3.68382 9.89723
87 1 12.9337 0.0959093 13.7252
270 3 6.714 6.62173 17.2944
207 3 11.9445 5.91037 16.6978
58 4 6.06663 6.71516 10.9317
176 2 14.0314 0.0155963 13.4686
265 3 4.78094 6.5806 11.9101
84 1 8.45545 -0.0584216 14.6632
71 1 11.0908 6.78594 14.3046
284 2 14.5777 1.3011 16.4419
355 2 8.53294 0.0132497 10.1412
3 2 4.58802 13.0099 5.66144
48 4 2.86832 9.11557 7.66839
50 4 1.35883 11.8605 5.88498
83 1 2.50646 12.195 4.43204
89 1 10.2358 7.73644 4.94041
91 1 8.58597 7.37487 7.88571
121 2 7.09761 7.92824 3.31173
187 2 7.48754 7.09947 8.01734
166 2 1.83719 12.9667 3.91634
167 2 2.47919 11.102 3.95868
168 2 3.59682 12.5695 4.72882
181 2 9.592 7.72144 3.98501
32 4 0.249025 13.7414 7.89777
183 2 10.0291 8.62609 5.73668
2 1 5.13192 13.7844 6.32363
188 2 8.82319 8.38296 8.25453
192 2 5.04944 12.2896 8.02119
361 2 3.60614 13.2489 3.01802
244 3 3.46808 7.92171 6.87747
340 2 4.12654 13.4124 1.11123
249 3 1.39385 13.0023 6.93349
261 3 5.34699 7.32981 5.22483
273 3 4.02132 9.84059 8.64453
285 4 9.26477 10.254 3.48242
337 2 2.26523 13.3152 1.65425
287 4 8.04039 9.06293 0.886903
5 2 5.59616 13.3477 7.26522
289 4 6.58012 10.7134 5.25914
290 1 6.25903 8.46038 1.54992
291 1 5.14897 10.4005 3.89401
292 1 6.52042 9.61534 6.69257
293 2 6.37789 12.4373 5.63744
294 2 6.32898 7.33011 1.72588
295 2 5.79387 8.75317 0.560729
296 2 5.84254 9.13506 2.51039
297 2 4.19971 11.02 3.96482
298 2 4.90779 9.32157 3.8542
299 2 5.78536 10.8004 3.00929
300 2 6.49467 10.4899 7.49739
301 2 7.27004 8.74009 6.9822
302 2 5.40531 9.24293 6.55574
335 1 1.228 13.1188 1.20225
304 3 8.90688 9.25794 2.21368
305 3 7.69902 10.4133 0.202028
306 3 6.4619 12.7383 1.32653
307 3 8.04442 10.3618 4.52177
248 3 2.14596 10.2237 6.72611
93 1 5.03917 12.3097 9.1588
329 2 8.04301 10.4928 9.0628
288 4 6.75189 11.4757 18.2325
62 4 8.71999 7.09243 12.0745
63 4 4.69066 10.5393 9.85254
64 4 7.68759 9.14141 14.1828
65 4 3.74606 10.5684 16.7086
66 4 6.78773 11.1136 12.1341
195 2 2.53501 9.72348 10.8794
134 2 10.031 7.35816 14.3574
86 1 2.5857 13.4307 11.9824
94 1 3.34801 10.3322 11.2655
95 1 4.02213 11.2324 15.0296
116 2 6.25449 8.41342 10.7581
118 2 4.5542 7.92161 16.4636
122 2 5.81499 12.4458 12.521
362 2 4.79129 12.974 14.1571
193 2 5.94754 12.8139 9.64493
175 2 2.94056 12.6906 12.8278
173 2 2.8156 13.0711 10.9173
194 2 4.03817 12.7433 9.52815
61 4 6.04944 7.15075 15.9935
196 2 2.99941 11.5011 11.5724
197 2 3.858 9.78969 12.1604
198 2 3.28558 12.18 15.0962
199 2 3.62709 10.3675 14.3468
200 2 5.15796 11.4658 14.9404
363 2 8.19827 12.2073 14.7118
271 3 9.58864 7.739 10.8543
169 2 1.42841 13.5201 13.7077
274 3 6.75426 8.3491 15.2175
275 3 8.1821 8.25707 12.9641
276 3 9.08675 9.86044 15.1175
277 3 3.13968 8.61591 16.5753
278 3 5.14245 10.8229 17.5084
279 3 2.62842 11.4987 17.4175
280 3 8.14095 11.6944 11.5141
281 3 6.23575 10.1301 10.7546
282 3 6.80237 10.4234 13.5138
328 1 9.10797 10.3848 9.34606
330 2 9.29479 9.45221 9.96585
342 1 7.53458 12.5979 16.9884
343 2 6.66681 12.6216 16.2218
344 2 8.47257 11.9463 16.6936
303 3 8.8243 7.87323 18.1521
ITEM: TIMESTEP
100
ITEM: NUMBER OF ATOMS
365
ITEM: BOX BOUNDS xy xz yz pp pp pp
-7.7317999999999998e+00 1.5380278000000001e+01 -7.7317999999999998e+00
-1.3819999999999999e-01 1.3846299999999999e+01 6.3077999999999995e-02
0.0000000000000000e+00 1.8322199999999999e+01 -1.3819999999999999e-01
ITEM: ATOMS id type x y z
7 4 1.04572 3.1897 0.248314
8 2 2.06658 2.19878 1.2851
9 2 1.42638 4.63222 0.91102
10 3 -0.447927 2.8261 0.498795
11 4 2.79986 0.520724 8.84614
13 4 1.29423 2.54439 6.90906
347 2 -2.76443 5.82336 1.15458
29 4 6.61137 0.678298 2.4887
30 4 2.77848 3.02058 4.26009
31 4 5.16492 2.84124 0.836012
37 4 4.55035 5.11306 2.7396
68 1 -2.2804 5.9984 4.9031
69 1 -0.727428 6.43008 7.57001
74 1 2.57428 1.40818 2.9754
75 1 5.08371 2.26884 6.10914
77 1 1.9346 6.77748 3.69725
107 2 3.53056 6.50464 2.54841
102 2 1.29744 2.57382 3.1257
131 2 -1.2813 5.42928 7.16303
109 2 2.94553 5.94518 5.22199
126 2 -1.50693 5.22284 4.57753
127 2 -2.5342 6.86939 4.05482
161 2 2.57392 5.48964 9.06659
130 2 0.492926 6.36168 7.53947
142 2 3.0782 1.16728 2.01735
143 2 2.05422 0.458648 3.27815
144 2 3.84442 1.45043 4.03983
145 2 4.78326 1.28824 6.58772
146 2 5.21102 2.24457 4.97751
147 2 4.47806 3.15456 6.50899
151 2 1.4812 6.03186 4.40563
96 2 -1.3514 5.24481 9.00556
153 2 1.76416 6.45543 2.61021
319 2 -1.53494 3.74272 4.71508
201 3 0.0554455 1.71555 6.05391
202 3 2.05789 1.59521 7.90972
205 3 0.491586 3.74612 7.71501
219 3 2.19732 3.17288 5.70872
220 3 5.41437 1.60185 1.91675
226 3 3.60658 4.14891 3.63197
227 3 4.64554 4.32466 1.33564
129 2 -1.18004 6.83067 8.52361
14 4 0.241138 2.57548 12.9065
346 2 -1.54701 3.88916 16.4642
19 4 -1.48627 5.07805 13.735
33 4 3.6267 2.91188 10.2762
35 4 3.41291 2.63974 16.6871
40 4 1.03045 6.30443 10.7746
42 4 4.75832 4.68707 14.7182
43 4 0.197745 6.06339 16.1789
99 2 4.36679 0.110678 17.2902
67 1 0.293435 1.5346 14.5357
76 1 3.30513 1.57772 15.1582
358 2 5.54181 0.528032 13.2109
204 3 -1.03066 2.6049 9.59494
103 2 2.01236 3.40067 10.5821
104 2 1.78966 2.57043 13.6671
110 2 0.928741 4.5922 16.5191
123 2 0.739056 0.371556 14.3645
15 4 -2.37951 6.35603 17.8862
125 2 0.806884 2.18061 15.3872
148 2 2.42534 0.909981 15.1034
149 2 4.2834 0.897453 15.3179
150 2 3.39831 2.19459 14.2143
237 3 -0.816953 6.41225 17.4026
203 3 -0.0144254 1.5645 11.7867
80 1 2.1047 6.55311 9.26393
206 3 -0.620213 3.84352 13.264
44 4 3.37234 6.63947 12.9181
209 3 -1.85225 6.09205 12.5326
221 3 3.67085 1.25623 9.96903
223 3 4.05951 1.69622 17.8139
224 3 1.52792 3.05803 17.0905
225 3 4.33821 3.02005 11.6727
231 3 0.760229 4.38864 10.2979
234 3 4.11551 4.08354 16.1929
16 4 -0.245247 3.90636 9.18943
236 3 -0.699258 5.67182 14.935
238 3 2.03064 6.49669 11.9165
239 3 3.52381 5.25779 13.7389
36 4 5.72492 3.11552 12.4661
229 3 4.24334 3.93635 9.28585
106 2 6.68396 1.66638 12.126
356 2 5.33513 0.239136 11.2564
235 3 5.67617 3.22284 13.9784
284 2 -0.740206 1.53061 16.3087
359 2 7.31603 0.491383 14.2221
345 2 -0.0670601 0.129964 9.63765
124 2 -0.900726 1.61911 14.6243
18 4 -1.42112 7.37372 6.01276
23 4 -3.09187 9.31491 7.78922
25 4 -4.04149 12.2206 6.73819
38 4 1.09362 8.42618 4.36098
45 4 0.147046 9.07999 1.30266
46 4 -1.67478 12.1668 4.59322
70 1 -5.74196 12.6202 5.90511
78 1 1.53633 8.13096 0.572086
79 1 -2.11304 10.706 3.48862
111 2 -1.46804 8.39602 1.14536
353 2 -5.34075 10.5121 8.46982
133 2 -6.33638 11.7477 6.36048
108 2 2.10153 9.40893 5.36593
156 2 2.27167 8.09663 1.42125
132 2 -5.66586 12.4175 4.79819
152 2 3.03853 7.28049 4.03549
157 2 -1.09695 10.2395 3.23687
158 2 -2.5167 11.2645 2.58934
159 2 -2.8101 10.0214 3.91381
348 2 -4.81485 9.4774 4.44737
210 3 -3.98276 8.25434 8.8377
211 3 -2.58156 8.34298 6.6247
213 3 -4.10919 10.4729 7.15923
214 3 -3.89492 13.2981 7.95187
228 3 -0.0584579 7.79223 5.2647
240 3 0.582295 9.10523 3.01571
241 3 -1.43726 13.4322 3.67583
242 3 -2.93861 12.3579 5.63385
243 3 0.152769 10.4319 0.468658
245 3 -1.8225 9.96162 8.54129
246 3 -0.720513 12.6047 8.67354
247 3 -0.0697768 11.7536 5.32215
155 2 0.929572 7.15919 0.348117
322 2 -3.5968 8.1781 0.93557
112 2 -0.643731 13.5708 1.1573
324 1 -5.62826 11.9231 2.7763
325 2 -5.90313 11.765 1.69614
326 2 -4.50983 11.8172 2.98859
327 2 -6.01956 12.9471 3.10977
113 2 1.67536 8.43753 8.83674
354 2 -6.0639 13.6425 6.1546
160 2 1.46167 6.93774 8.26158
251 3 3.12899 7.9946 13.8723
21 4 -1.55979 7.48215 11.8392
22 4 -2.98517 12.4781 16.6905
24 4 -5.98029 12.011 10.5002
26 4 -1.31203 9.77862 14.07
27 4 -5.11011 10.8893 14.9332
28 4 -3.25214 12.4228 12.7066
252 3 0.191017 10.7329 14.5976
232 3 -0.258583 7.26498 10.6082
51 4 2.24066 8.21947 15.2517
52 4 -0.19439 12.3053 15.4722
72 1 -1.84105 8.89112 15.5793
81 1 -0.456322 10.6357 10.7147
191 2 -5.76998 12.3484 13.2233
92 1 -6.08792 12.4147 14.3538
115 2 1.22523 9.56725 14.8723
254 3 -1.75174 12.7087 15.667
100 2 -3.96223 10.2531 13.8082
101 2 -4.3495 13.2292 13.7845
114 2 -3.08797 11.7617 10.1807
136 2 -3.44522 7.81253 14.832
137 2 -1.06772 9.17979 16.4091
138 2 -1.90427 7.7605 15.4065
139 2 -2.86215 9.42216 15.7388
154 2 2.11589 8.32017 17.892
98 2 -2.38438 11.7591 18.0979
163 2 -0.224935 9.59122 10.3415
164 2 -1.24782 10.6478 11.5248
165 2 0.451183 11.3462 10.8721
190 2 -5.69018 13.357 14.8177
49 4 -1.5885 11.3422 9.36448
208 3 -2.97412 8.04719 11.2281
212 3 -6.2609 13.2792 9.55403
215 3 -0.992916 8.66413 12.8999
216 3 -4.20541 11.6956 16.1765
217 3 -4.29556 12.0128 11.2641
218 3 -2.59174 11.0728 13.3641
357 2 -0.940256 13.3177 12.2507
253 3 0.383488 12.4385 16.9485
250 3 1.34662 7.06784 15.8494
352 2 -2.36773 9.14875 18.2683
17 4 -4.1247 7.44793 10.1861
162 2 2.84743 7.30199 9.67087
321 1 -2.94676 8.18476 18.2604
82 1 -1.98227 13.7252 12.2477
323 2 -3.68103 8.17127 17.3329
1 4 14.0979 1.18017 5.28236
349 2 14.3303 1.38067 1.37546
350 2 10.6024 0.963447 1.12411
4 2 12.3911 0.947975 6.76814
6 3 14.1539 0.350451 3.90935
318 1 13.1212 2.84425 4.65432
34 4 6.78844 2.85557 6.66242
39 4 5.33291 4.93549 8.52325
286 4 13.8445 0.0488491 2.30997
53 4 8.5277 2.68039 3.85266
55 4 9.77164 4.641 1.60309
56 4 6.52665 6.66392 4.3388
59 4 9.06873 6.39289 6.20661
85 1 10.0821 1.71823 4.36683
88 1 10.9903 5.93341 2.33879
90 1 10.3323 4.73672 6.15093
41 4 4.17125 6.66507 6.2413
170 2 11.1693 2.20722 4.45611
171 2 10.0664 0.9218 3.55925
172 2 9.69927 1.34229 5.41114
178 2 10.6157 6.46266 3.33333
179 2 10.9271 6.6937 1.38838
180 2 12.0372 5.34975 2.46426
184 2 10.7397 4.2847 5.24798
185 2 9.33851 4.15289 6.40432
186 2 11.0285 4.82985 7.01285
316 2 9.42658 3.18148 8.72837
222 3 7.4378 1.3491 7.32161
230 3 6.72239 4.01123 7.97287
336 2 8.77276 0.103315 0.75327
255 3 7.70772 1.6808 2.88734
256 3 7.62468 3.23521 5.25049
258 3 9.09744 4.05012 2.97611
259 3 10.6145 3.59889 0.786963
260 3 5.9037 5.59564 3.30313
263 3 8.47704 5.32744 0.593178
266 3 7.82937 6.33351 5.25683
189 2 8.78035 6.46461 8.505
128 2 12.0092 5.51422 5.37052
320 2 12.4448 2.76594 5.59061
341 2 11.8673 1.20146 2.32592
351 2 12.8147 2.4439 3.65883
339 1 11.9287 0.0673692 2.31011
313 2 12.1513 3.70192 8.71177
334 2 7.45658 3.9899 0.135731
308 4 10.9067 2.27983 0.0664426
2 1 13.0057 0.0100538 6.42939
32 4 7.98849 -0.00991175 7.92473
333 2 7.36624 2.05313 0.288333
233 3 4.61601 5.48073 7.23244
12 4 14.4008 1.27738 10.4828
20 4 10.7293 5.67119 15.7179
97 2 12.3468 4.32024 14.2574
54 4 11.8274 0.736311 12.2189
57 4 8.42771 6.32549 17.5822
60 4 10.0757 3.08645 13.6725
135 2 11.3998 6.3254 13.6014
73 1 8.89902 0.607117 9.48534
84 1 8.29099 0.0266619 14.5565
360 2 8.7151 0.543391 15.4673
105 2 6.57435 4.4639 11.8091
314 2 8.48096 4.6777 9.6993
117 2 9.12083 1.79312 14.2499
119 2 9.07562 4.14886 12.9377
120 2 9.93605 6.3966 12.8564
355 2 8.31593 -0.012167 10.3036
272 3 7.32919 6.01289 11.4827
141 2 8.91011 1.76371 9.64199
174 2 9.20704 0.105072 12.0201
317 3 11.1697 5.80448 10.0509
176 2 13.8607 -0.0670282 13.497
177 2 12.4094 0.956579 14.3938
257 3 12.9166 0.718108 10.9146
262 3 9.34751 5.88532 16.3886
264 3 5.68843 6.30757 9.45887
365 3 12.3752 1.99403 17.7656
267 3 11.091 2.52634 12.6295
268 3 10.9309 3.8652 14.843
269 3 5.82578 5.81943 14.8878
315 2 9.12971 3.21806 10.7405
331 1 6.89073 2.91351 18.2232
332 2 6.52542 2.86577 17.138
312 2 11.5485 3.44447 11.3515
309 2 9.81752 1.72356 17.2807
310 4 11.0915 4.23022 9.89869
311 1 9.23956 3.80228 9.77286
87 1 12.7554 0.015325 13.6978
270 3 6.82624 6.61049 17.0935
207 3 11.9747 5.76389 16.7701
283 4 13.8586 2.48654 17.447
140 2 9.94344 0.158847 9.2608
364 2 15.0499 0.0301349 17.6248
3 2 4.60009 13.0761 5.77456
48 4 2.86417 8.99901 7.72635
50 4 1.40926 11.8743 5.99239
83 1 2.59153 12.305 4.60393
89 1 10.2206 7.58021 5.00757
91 1 8.52693 7.32454 7.8226
121 2 7.07846 8.00151 3.38988
187 2 7.3763 7.48413 7.83809
166 2 1.99008 13.2035 4.11413
167 2 2.49079 11.332 3.95386
168 2 3.74445 12.6085 4.80424
181 2 9.64806 7.85028 4.02559
182 2 11.2981 7.04249 4.94624
183 2 10.1124 8.37735 5.88849
329 2 8.16155 10.6231 9.01279
188 2 9.18536 8.30485 7.95662
192 2 5.17425 12.445 8.24536
361 2 3.65502 13.3468 3.19635
244 3 3.32332 7.79916 6.88239
340 2 4.0836 13.4307 1.28349
249 3 1.50489 12.9837 7.07236
261 3 5.28253 7.26115 5.22416
273 3 4.12201 9.50446 8.68216
285 4 9.20543 10.2523 3.50968
337 2 2.32844 12.8803 1.69005
287 4 8.03199 9.11264 0.802694
5 2 5.74361 13.4563 7.40094
289 4 6.54175 10.6722 5.30602
290 1 6.38547 8.46784 1.58382
291 1 5.06489 10.3231 3.96411
292 1 6.5744 9.70731 6.85017
293 2 6.3339 12.362 5.73485
294 2 6.6256 7.35185 1.76099
295 2 5.80405 8.60335 0.593346
296 2 5.91206 9.1665 2.5714
297 2 4.14099 11.0029 4.22666
298 2 4.932 9.17621 4.04314
299 2 5.6233 10.6239 3.03033
300 2 6.68523 10.6327 7.55386
301 2 7.351 8.83069 7.15059
302 2 5.51739 9.2617 6.78656
335 1 1.25238 12.9541 1.33448
304 3 8.82083 9.38984 2.26979
305 3 7.65378 10.6938 0.0835258
306 3 6.31755 12.6144 1.39671
307 3 7.90143 10.4613 4.39988
248 3 2.19144 10.2147 6.70911
338 2 0.57167 12.7466 2.12005
288 4 6.60754 11.679 18.2138
62 4 8.76223 7.18049 11.9426
63 4 4.57533 10.4356 9.90772
64 4 7.78352 9.18197 14.2247
65 4 3.87805 10.5891 16.7164
66 4 6.80655 11.1019 12.0661
195 2 2.33703 9.86616 10.9026
134 2 10.0243 7.52809 14.2469
86 1 2.49743 13.5258 11.9203
94 1 3.18625 10.4252 11.2634
95 1 3.85424 11.1942 15
116 2 6.4243 8.45295 10.6458
118 2 4.55586 7.92008 16.3436
122 2 5.81586 12.3835 12.5767
362 2 4.62692 12.8945 14.1108
193 2 6.13441 12.3492 9.83888
175 2 2.80273 12.8291 12.8374
173 2 2.59117 13.0621 10.8793
194 2 4.33246 12.8578 9.86711
61 4 6.07464 7.19241 15.8892
196 2 2.88301 11.4974 11.4846
197 2 3.65604 9.94827 12.1718
198 2 3.35005 12.2525 15.1379
199 2 3.31132 10.5643 14.2465
200 2 5.007 11.2944 14.8132
363 2 8.06114 12.2051 14.6282
271 3 9.48694 7.95283 10.75
169 2 1.28749 13.7368 13.5883
274 3 6.80381 8.30449 15.112
275 3 8.35895 8.19119 13.0279
276 3 9.08372 9.83658 15.2422
277 3 3.20167 8.70231 16.4866
278 3 5.19102 10.9839 17.5211
279 3 2.61964 11.2518 17.518
280 3 8.16884 11.7179 11.5387
281 3 5.94939 10.0752 10.878
282 3 6.94533 10.4219 13.5079
328 1 9.2081 10.4917 9.36551
330 2 9.30283 9.51694 9.98625
342 1 7.18854 12.9603 16.9618
343 2 6.33248 13.0239 16.2191
344 2 8.14668 12.4978 16.5755
303 3 8.87999 7.8608 18.2602
93 1 5.13581 12.2323 9.35246
47 4 1.14573 11.6723 18.1435
71 1 10.9966 7.01883 14.4311
58 4 6.05544 6.87376 10.9303
265 3 4.7436 6.83633 11.9353
ITEM: TIMESTEP
200
ITEM: NUMBER OF ATOMS
365
ITEM: BOX BOUNDS xy xz yz pp pp pp
-7.7317999999999998e+00 1.5380278000000001e+01 -7.7317999999999998e+00
-1.3819999999999999e-01 1.3846299999999999e+01 6.3077999999999995e-02
0.0000000000000000e+00 1.8322199999999999e+01 -1.3819999999999999e-01
ITEM: ATOMS id type x y z
7 4 0.963257 3.21034 0.33311
8 2 2.02938 2.2444 1.29505
9 2 1.05 4.68006 1.12414
10 3 -0.595772 2.74887 0.4062
11 4 2.73802 0.464593 8.77594
13 4 1.23195 2.64287 6.80788
347 2 -2.69805 5.83972 1.09262
29 4 6.70117 0.773738 2.57231
30 4 2.68144 3.07905 4.25296
31 4 5.25136 2.63885 0.785805
37 4 4.55045 4.96805 2.60274
68 1 -2.15957 5.82817 4.85458
69 1 -0.808461 6.41069 7.53531
74 1 2.28755 1.46177 3.03006
75 1 5.12744 2.20935 6.29819
77 1 2.11149 6.75184 3.58795
107 2 3.54933 6.31767 2.28439
102 2 1.18773 2.60473 3.00214
131 2 -1.10597 5.36927 7.18817
109 2 2.99531 6.00453 5.20309
126 2 -1.27858 5.03851 4.65687
127 2 -2.41111 6.38567 3.8644
161 2 2.02704 5.63131 8.78395
130 2 0.350611 6.50101 7.64631
142 2 2.8884 1.39623 2.05613
143 2 1.67103 0.504026 3.19773
144 2 3.51989 1.34294 4.2753
145 2 5.14244 1.0768 6.4575
146 2 5.27335 2.56006 5.16383
147 2 4.37077 2.79942 6.89871
151 2 1.51848 6.05048 4.34553
96 2 -1.46628 5.18418 8.84024
153 2 1.83867 6.74812 2.43513
319 2 -1.59519 3.74373 4.33716
201 3 -0.0531021 1.90474 5.94665
202 3 1.96418 1.42846 7.58373
205 3 0.552636 3.76266 7.82492
219 3 2.26835 3.30415 5.70549
220 3 5.34439 1.55297 2.03772
226 3 3.62612 4.11716 3.54369
227 3 4.73715 4.08777 1.27486
129 2 -1.34107 6.74848 8.44804
80 1 1.91035 6.77069 9.08302
233 3 4.51436 5.60445 7.35333
14 4 0.151745 2.41977 13.0395
346 2 -1.72817 3.99994 16.7129
19 4 -1.34185 5.1303 13.6436
33 4 3.68055 2.91869 10.2774
35 4 3.34456 2.71963 16.6155
40 4 1.01922 6.40451 10.7257
42 4 4.73381 4.7447 14.6582
43 4 0.234093 6.06097 16.1358
99 2 4.20882 0.0886618 17.1918
67 1 0.244011 1.49854 14.7387
76 1 3.42705 1.56441 15.1458
358 2 5.59326 0.461847 13.0732
204 3 -1.28794 2.70044 9.49439
103 2 2.16012 3.76253 10.3937
104 2 1.7684 2.25632 13.7744
110 2 1.1916 4.74721 16.5696
123 2 0.794671 0.455614 14.6536
15 4 -2.32641 6.35849 17.8005
125 2 0.530644 2.11691 15.7284
148 2 2.39701 0.991055 15.0648
149 2 4.24662 0.864659 15.4363
150 2 3.7597 2.11006 14.2238
237 3 -0.764298 6.20284 17.3969
203 3 -0.0214394 1.61453 11.7102
16 4 -0.266083 3.95225 9.23323
206 3 -0.462543 3.81582 13.2322
44 4 3.34425 6.74824 12.8971
209 3 -1.81937 6.01043 12.4819
221 3 3.4855 1.41957 9.82179
223 3 4.08035 1.78605 17.7125
224 3 1.51291 3.18009 17.2213
225 3 4.27169 3.12544 11.6783
231 3 0.747963 4.42513 10.3403
234 3 4.10646 4.10372 16.2062
235 3 5.55183 3.33911 13.8938
236 3 -0.701239 5.84552 14.9398
238 3 1.99531 6.66455 11.8626
239 3 3.43807 5.41533 13.7398
36 4 5.7176 3.11436 12.4146
229 3 4.55913 3.74856 9.23083
106 2 6.57366 1.58164 12.0741
356 2 5.42556 0.0983135 11.1217
18 4 -1.38951 7.22538 5.89471
23 4 -3.11956 9.25766 7.7368
25 4 -3.99324 12.1631 6.75929
38 4 1.16312 8.3569 4.26157
45 4 0.268231 9.07088 1.34876
46 4 -1.46951 12.0841 4.63775
70 1 -5.62465 12.5262 5.99962
78 1 1.69737 8.17271 0.544774
79 1 -2.01843 10.6273 3.58692
111 2 -1.09906 8.04992 1.15793
353 2 -5.42815 10.3452 8.71036
133 2 -6.32264 11.6518 6.45702
108 2 1.94716 9.29883 5.3936
156 2 2.43408 8.04466 1.48121
132 2 -5.53922 12.4493 4.84736
152 2 3.12332 7.23676 3.93471
157 2 -1.50019 9.78627 4.08714
158 2 -1.57258 11.1126 2.54902
159 2 -3.1423 10.5443 3.56666
348 2 -4.82918 9.45948 4.32894
210 3 -3.95223 8.12798 8.73785
211 3 -2.41177 8.3776 6.3572
213 3 -4.19712 10.3214 7.29929
214 3 -3.99091 13.1806 8.02126
228 3 -0.104533 7.70822 5.06407
240 3 0.80846 9.12515 2.83485
241 3 -1.22329 13.3205 3.5781
242 3 -2.795 12.305 5.67468
243 3 0.0688258 10.5181 0.443759
245 3 -1.98327 10.088 8.45682
246 3 -0.742194 12.5889 8.83225
247 3 0.0408278 11.5504 5.52631
155 2 1.12908 7.14796 0.407775
322 2 -2.93866 8.33297 1.11135
112 2 -0.300351 13.821 1.26867
324 1 -5.3318 11.9311 2.89693
325 2 -5.21109 11.6088 1.80417
326 2 -4.36409 11.8466 3.46504
327 2 -5.87849 12.9776 3.04113
113 2 1.6319 8.69 8.71699
354 2 -6.01928 13.5448 6.40398
160 2 1.15506 7.3278 8.36302
338 2 0.59972 12.5793 2.18097
183 2 -4.69928 8.45625 5.65926
321 1 -2.74352 8.27967 0.000578866
251 3 3.12261 8.01635 13.9387
21 4 -1.60409 7.43726 11.7909
22 4 -2.95463 12.4656 16.6833
24 4 -5.97637 12.0601 10.4234
26 4 -1.28213 9.87191 14.0584
27 4 -5.00236 10.9832 15.1144
28 4 -3.29804 12.4171 12.5258
252 3 0.012772 10.7 14.5148
232 3 -0.453019 7.26517 10.607
51 4 2.24842 8.30823 15.2705
52 4 -0.182534 12.4706 15.3877
72 1 -2.04071 9.09213 15.5866
81 1 -0.636461 10.6347 10.8019
191 2 -6.07948 12.7633 13.517
92 1 -5.90637 12.5428 14.605
115 2 1.28647 9.65724 14.8357
254 3 -1.73651 12.8143 15.6864
100 2 -3.92169 10.3864 13.8902
101 2 -4.19238 13.1303 13.875
114 2 -3.09206 11.9018 10.0802
136 2 -3.35732 7.75602 14.8051
137 2 -1.35195 9.53923 16.4216
138 2 -1.75123 7.98298 15.4445
139 2 -3.09482 9.31741 15.7741
154 2 2.29995 8.3872 17.925
98 2 -2.27017 12.0167 18.1562
163 2 -0.152397 9.70577 10.4679
164 2 -1.51624 10.5272 11.4685
165 2 0.0698 11.4073 11.0766
190 2 -5.60186 13.5125 15.2366
49 4 -1.63337 11.3785 9.30494
208 3 -3.02897 7.88583 11.192
212 3 -6.40009 13.3344 9.52517
215 3 -1.25548 8.65357 13.061
216 3 -4.0522 11.4625 16.2904
217 3 -4.21159 12.2058 11.2611
218 3 -2.61596 11.0823 13.2967
357 2 -0.82558 13.192 11.9942
253 3 0.576314 12.4769 16.8199
250 3 1.22282 7.24834 15.7714
352 2 -1.83992 8.8355 18.0075
82 1 -1.84618 13.6233 12.0745
162 2 2.85515 7.27638 9.47618
344 2 -7.06774 12.7451 16.9536
47 4 1.1622 11.4554 18.1736
323 2 -3.6776 8.32999 17.7146
1 4 13.9802 1.30667 5.26246
349 2 14.2616 1.48462 1.56823
350 2 10.7085 1.01502 1.33563
4 2 12.4316 1.09441 6.90235
6 3 14.2723 0.279885 3.77931
318 1 12.9907 2.83886 4.68097
34 4 6.88306 2.64381 6.79745
39 4 5.4023 4.87683 8.49033
286 4 13.7707 0.0646187 2.3694
53 4 8.61433 2.78173 3.87974
55 4 9.8847 4.60109 1.61835
56 4 6.37769 6.71122 4.29582
59 4 9.113 6.37095 5.99967
85 1 9.97096 1.66827 4.58479
88 1 11.0649 5.97089 2.24354
90 1 10.3184 4.82361 6.06747
41 4 4.06553 6.69096 6.31769
170 2 11.1015 2.12082 4.66333
171 2 9.87499 0.750887 3.84798
172 2 9.44798 1.46551 5.61075
178 2 10.7281 6.52727 3.26025
179 2 11.1104 6.69497 1.32387
180 2 11.9835 5.33015 2.40536
184 2 10.5564 4.70683 4.96967
185 2 9.55842 4.14909 6.50644
186 2 11.2392 4.97604 6.76445
316 2 9.07569 3.39198 8.714
222 3 7.28931 1.23006 7.47253
230 3 6.58324 4.05569 7.83089
336 2 9.21466 0.0527615 1.12345
255 3 7.83054 1.74542 3.0398
256 3 7.71259 3.04521 5.52167
258 3 9.33748 3.92579 2.92649
259 3 10.5767 3.58691 0.663826
260 3 5.74501 5.65433 3.30192
263 3 8.57779 5.39575 0.632759
266 3 7.82904 6.29689 5.09394
189 2 9.14192 6.65229 8.52765
128 2 12.1608 5.39844 5.34552
320 2 12.348 3.01082 5.6249
341 2 11.7671 1.11714 2.65198
351 2 12.3826 2.38489 3.77847
333 2 7.68127 2.04504 0.05717
313 2 11.7052 3.54167 8.72145
334 2 7.34847 3.94998 0.169914
308 4 10.8727 2.17394 0.0518213
2 1 12.9386 0.137979 6.38776
12 4 14.3316 1.44699 10.4244
20 4 10.6118 5.67587 15.7219
97 2 12.4065 4.53545 14.1365
54 4 11.8046 0.744993 12.1515
57 4 8.42375 6.37147 17.7691
60 4 10.1594 3.10105 13.6742
135 2 11.394 6.20219 13.5294
73 1 8.92761 0.714531 9.62138
84 1 8.48709 0.132446 14.6444
360 2 9.0906 0.493017 15.5999
105 2 6.6656 4.32591 11.6904
314 2 8.44092 4.94764 9.52609
117 2 9.46583 1.86802 14.6514
119 2 8.79229 3.6818 13.0477
120 2 9.83042 6.27801 13.0146
355 2 8.60094 0.291765 10.6081