ITEM: TIMESTEP
0
ITEM: NUMBER OF ATOMS
365
ITEM: BOX BOUNDS xy xz yz pp pp pp
-7.7317999999999998e+00 1.5563499999999999e+01 -7.7317999999999998e+00
-1.3819999999999999e-01 1.3846299999999999e+01 2.4629999999999999e-01
0.0000000000000000e+00 1.8138977999999998e+01 -1.3819999999999999e-01
ITEM: ATOMS id type x y z
80 1 1.86804 6.33046 8.67942
8 2 0.038277 3.57488 1.68643
226 3 3.656 3.97764 3.52017
153 2 2.24253 6.75848 2.38914
11 4 2.98352 0.207179 8.80981
13 4 1.65269 2.02372 6.81326
160 2 1.91201 5.26189 8.18675
29 4 6.9939 0.650436 2.54096
30 4 2.40112 3.16275 4.13352
31 4 5.48673 2.81024 0.821347
319 2 -1.25681 3.9979 5.79746
220 3 5.93606 1.51304 1.73938
69 1 -0.348407 5.66336 6.45474
74 1 1.07387 2.34013 2.91831
75 1 5.17976 1.90973 5.50243
77 1 2.52071 6.77047 3.52806
96 2 -0.774929 4.78224 8.13449
102 2 0.581381 3.78314 3.37912
131 2 -1.48521 5.49997 6.72431
109 2 2.94688 6.44752 5.42586
126 2 -2.16785 6.06901 4.73641
107 2 3.98467 6.36353 2.31838
129 2 0.492783 5.87266 7.28092
130 2 -0.00987949 5.10681 5.56252
142 2 1.14777 2.28657 1.78599
143 2 0.338521 1.5467 3.24213
144 2 2.57882 1.48248 3.42224
145 2 5.22875 0.683411 5.65431
146 2 5.12509 2.26221 4.46492
147 2 4.35811 2.3696 6.04914
151 2 2.13092 5.92809 4.14824
37 4 4.74179 4.95423 2.85658
347 2 -2.22956 5.8235 1.07369
16 4 0.000944391 3.47724 9.00815
201 3 0.312284 1.2142 6.19182
202 3 2.75256 0.894755 7.40655
205 3 1.13159 2.95698 8.05982
219 3 2.29951 2.98925 5.70349
161 2 2.95838 6.71342 8.92349
179 2 -3.7855 6.90108 2.26477
14 4 0.497993 2.55892 12.6872
360 2 6.02919 0.726488 15.0148
19 4 -0.854682 5.16687 13.6075
33 4 3.74588 2.87314 10.0723
35 4 3.19405 2.71718 17.1046
40 4 1.23535 6.10672 10.4088
42 4 4.42027 4.34181 14.6234
229 3 4.42645 3.88939 9.07942
44 4 3.84205 6.32563 12.6195
67 1 0.952477 1.56027 14.2514
76 1 3.40537 0.9981 16.1407
43 4 0.971045 6.36142 15.7339
36 4 5.48201 2.66995 12.5566
103 2 2.16082 3.52985 10.1205
104 2 2.23573 2.5189 13.2576
110 2 2.30703 5.32869 16.014
123 2 0.561438 0.549288 13.8361
124 2 0.17302 2.10425 14.888
125 2 1.8047 1.29257 14.9478
15 4 -1.69204 6.50822 17.6408
149 2 4.41844 0.659602 16.5904
150 2 3.54244 1.40182 15.1122
10 3 -0.872898 2.5357 17.6032
203 3 0.182528 1.5217 11.4913
207 3 -2.9169 6.14659 16.6168
206 3 -0.385637 3.75004 13.1203
223 3 4.4971 2.60488 17.9847
209 3 -1.33177 6.31171 12.7018
221 3 3.43566 1.31869 9.78772
7 4 0.387093 3.23841 18.1023
224 3 1.74749 2.54311 17.8294
225 3 4.32402 2.88456 11.4816
231 3 0.711722 4.21051 10.1221
234 3 3.26109 4.02217 16.1574
106 2 6.22145 1.18415 12.2987
236 3 0.0463849 5.71438 14.6918
238 3 2.49854 6.34258 11.3581
239 3 3.49839 4.93815 13.4619
235 3 5.20634 2.79907 14.1456
356 2 4.18171 0.62232 12.4359
148 2 2.60262 0.207644 16.2674
237 3 0.17162 6.3307 17.0925
84 1 7.05814 0.081663 14.9741
97 2 -2.44713 4.82548 14.1789
9 2 0.375513 4.80671 17.5534
18 4 -0.805893 7.48883 5.84962
23 4 -2.22952 9.34121 8.07788
25 4 -3.5544 12.0612 6.91094
38 4 1.78583 8.47941 4.07829
45 4 1.06578 9.22656 1.08715
46 4 -1.39318 12.1098 4.65466
70 1 -5.29525 11.7292 6.33033
78 1 2.36622 8.16176 0.294526
79 1 -2.13602 10.5641 3.9169
354 2 -6.10288 12.325 6.83649
353 2 -4.92452 10.403 8.2535
113 2 0.963806 8.86856 7.71121
98 2 -4.0789 11.5679 0.526879
111 2 -0.65526 8.63839 0.918716
132 2 -5.1677 12.1114 5.25585
133 2 -5.47922 10.5518 6.41794
157 2 -1.1389 10.0334 3.69925
158 2 -2.78236 10.6162 3.03576
159 2 -2.68148 10.0272 4.71657
348 2 -5.21205 9.9101 4.38684
210 3 -3.37363 8.35051 8.68592
211 3 -1.41182 8.3938 6.9886
213 3 -2.96732 10.5833 7.25749
214 3 -3.57624 12.9678 8.69812
228 3 0.551724 8.01443 5.01153
240 3 1.28849 9.14052 2.62898
241 3 -1.14605 13.3146 3.54286
242 3 -2.65149 12.8545 5.88058
155 2 1.73107 7.14631 0.324018
152 2 3.59835 7.20353 3.81286
246 3 -0.344156 12.8354 8.76302
247 3 -0.0808666 11.6772 5.3658
321 1 -2.14864 7.55395 1.23015
322 2 -1.67161 7.89438 2.22773
323 2 -3.12673 8.06661 1.11342
324 1 -6.01468 12.3489 2.97303
68 1 -2.17758 7.20373 4.58055
326 2 -4.90941 12.53 3.394
127 2 -1.76929 7.63953 3.57699
182 2 -3.91755 8.51134 6.17778
162 2 1.24323 7.09315 8.17568
112 2 -0.0078111 13.5814 1.24947
243 3 1.30232 10.6688 0.404678
128 2 -3.1877 7.66479 4.96246
325 2 -6.11533 12.3406 1.85163
327 2 -6.8459 12.8912 3.57069
17 4 -3.63169 7.37733 9.93268
21 4 -1.21821 7.53177 11.7115
22 4 -3.85412 12.094 17.1687
24 4 -6.03932 11.629 10.0763
26 4 -1.41144 9.80464 13.7817
27 4 -5.60877 10.6822 14.8367
28 4 -3.78497 11.9182 12.3473
92 1 -6.37996 12.1908 14.0302
49 4 -1.12501 11.7323 9.61957
51 4 2.88281 8.37707 14.5557
52 4 -0.861653 12.2289 15.7369
72 1 -1.28287 8.70747 15.2356
81 1 -0.0880088 11.5568 11.1694
163 2 0.777056 12.2815 11.1817
254 3 -2.43208 12.0381 16.5088
352 2 -1.64273 8.35534 17.8099
190 2 -5.95318 13.1491 14.5807
100 2 -4.32028 10.0455 13.9224
101 2 -4.59902 12.8853 13.5176
114 2 -2.73389 12.3627 9.96211
115 2 2.31056 9.66965 13.5857
137 2 -0.416592 9.19764 15.8383
138 2 -0.990471 7.69383 14.7868
139 2 -2.2313 8.60053 15.8578
232 3 0.0494726 7.12991 10.6152
154 2 3.01867 8.32748 17.3798
191 2 -6.42823 12.3221 12.9047
164 2 0.27262 10.4682 11.4722
165 2 -1.02309 12.0389 11.8439
136 2 -3.85373 8.117 15.452
99 2 -4.2391 13.6306 17.7032
208 3 -2.55666 7.89165 11.0588
212 3 -6.35669 13.0038 9.19722
215 3 -0.800789 9.09788 12.5871
216 3 -4.93135 11.3362 16.3532
217 3 -4.72232 11.6046 11.1108
218 3 -3.14518 10.6632 13.1232
357 2 -2.24878 13.3749 11.5337
245 3 -1.30311 10.151 9.10836
250 3 1.53386 7.66953 15.0786
252 3 -0.642363 11.0157 14.3398
253 3 0.2085 12.1515 16.8105
82 1 -2.83273 13.5496 12.6041
364 2 -6.51137 12.1988 16.788
358 2 -1.99992 13.6193 13.4387
359 2 -0.426386 13.7172 13.9185
135 2 -4.04569 7.56245 13.4676
196 2 1.69552 10.8159 11.6334
1 4 14.1931 1.17483 5.36816
350 2 9.67235 1.54823 1.20561
286 4 13.5489 0.0579169 2.22865
4 2 12.4108 1.19639 6.73202
6 3 14.2167 0.476515 3.56891
56 4 6.51438 6.72189 4.59114
34 4 6.67287 2.67163 6.39916
39 4 5.34597 4.90667 8.34798
349 2 13.3021 1.518 1.29484
53 4 8.64288 2.68504 3.98528
55 4 9.57596 4.99204 1.91422
316 2 9.28074 3.8475 9.05705
340 2 11.4576 0.465483 1.00656
85 1 10.3109 2.16751 4.81505
88 1 10.496 6.44718 2.64967
90 1 10.6351 5.17902 6.00004
166 2 10.2923 0.127437 4.54973
170 2 10.8387 3.04319 5.2181
171 2 10.9721 1.63359 3.95448
172 2 9.90836 1.49365 5.63858
2 1 12.7262 0.232474 6.27094
227 3 5.39679 4.27617 1.57854
180 2 10.634 5.952 3.67027
184 2 11.1424 4.93368 4.96462
185 2 9.86972 4.37284 6.38605
186 2 11.381 5.65701 6.75995
189 2 9.42576 6.29731 8.49668
222 3 7.28285 1.4063 7.28977
230 3 6.27865 3.95468 7.32505
341 2 11.346 1.53265 2.63487
255 3 8.2268 1.46397 3.11427
256 3 7.67042 3.1093 5.19888
258 3 9.13684 4.0362 3.05848
259 3 10.7531 4.0939 0.958506
260 3 5.95007 5.46811 3.84692
263 3 8.21791 5.48678 0.570552
308 4 10.3542 2.75216 0.228744
313 2 11.125 4.1774 7.61492
339 1 11.7452 0.58849 2.08634
320 2 12.572 2.64796 5.85657
187 2 7.68698 6.80973 7.8887
266 3 7.93144 6.64707 5.36873
32 4 8.17844 0.212719 7.97019
59 4 9.30817 6.67887 6.16635
318 1 13.6198 2.95659 5.38123
233 3 4.52097 5.94543 7.3711
336 2 10.6024 0.0262246 0.0386185
351 2 13.5799 3.04707 4.21938
12 4 14.4521 1.08183 10.446
20 4 11.036 5.90873 15.6578
331 1 7.22372 2.91733 17.7144
54 4 11.9622 0.958228 12.5914
57 4 8.52285 6.36447 17.5143
60 4 10.7621 3.77012 13.1109
317 3 11.9566 5.83102 9.58674
73 1 9.17714 0.869959 9.43144
310 4 11.4741 4.39639 9.25157
87 1 12.9974 0.544399 14.1555
105 2 6.8756 3.46496 11.9592
169 2 7.87561 0.616646 15.6046
117 2 9.0579 3.48365 13.3378
119 2 10.657 4.72034 11.7931
120 2 10.006 6.45039 13.0838
365 3 11.8435 1.96962 17.7124
346 2 12.7817 3.11409 15.5972
140 2 10.211 0.37281 9.17596
332 2 6.66045 2.95245 16.744
272 3 7.86087 6.29307 11.4049
176 2 13.3038 1.5844 14.623
173 2 9.56036 0.0691244 12.1522
257 3 13.0308 0.567518 11.1956
262 3 9.67647 5.8707 16.4795
264 3 6.22958 5.76786 9.48744
58 4 6.44383 6.51954 10.8117
267 3 11.4314 2.4117 12.7514
268 3 11.2636 4.55642 14.3438
269 3 5.38241 5.51384 15.0855
204 3 14.0635 2.27236 9.47007
283 4 13.11 2.0895 16.8661
284 2 13.4025 0.592203 16.1046
265 3 5.31646 6.08942 11.7715
309 2 9.23447 2.6577 17.3715
315 2 10.3804 3.07807 10.6505
311 1 9.81949 4.10765 10.0986
312 2 12.6766 3.27111 9.57772
314 2 9.15102 4.75305 10.6715
270 3 7.0564 6.48473 16.7134
333 2 7.80102 2.00107 17.8848
355 2 8.66602 0.426522 10.3322
61 4 6.2156 6.799 15.4175
177 2 12.2815 -0.0856648 14.7342
334 2 7.74083 3.92202 18.0546
141 2 9.43716 1.91309 9.57395
362 2 13.8875 0.0447946 13.869
338 2 8.96634 0.269765 18.1127
361 2 3.77385 13.2623 2.70711
335 1 1.78675 13.551 0.427026
50 4 1.58898 12.0088 5.95377
83 1 2.60243 12.7946 4.50697
89 1 10.3845 8.42101 5.6152
91 1 8.78157 7.06792 7.91267
121 2 6.75197 8.00543 3.40313
307 3 7.40348 10.5997 4.19505
249 3 1.56015 13.3128 6.9144
167 2 1.90376 12.332 3.68701
168 2 3.57834 12.3657 4.46935
181 2 10.4987 8.19551 4.50493
3 2 4.11694 13.5862 5.60228
183 2 9.67943 9.23493 5.84328
303 3 8.66787 7.87547 0.0290974
188 2 9.05768 8.18526 8.25559
178 2 9.60038 7.18586 2.54165
306 3 6.14595 12.8343 1.21234
108 2 3.11779 9.39228 4.76988
248 3 2.43399 10.7571 6.51548
273 3 3.00369 9.85641 8.89525
261 3 5.38816 7.38364 5.42006
5 2 5.38645 13.2965 6.99231
285 4 8.80218 10.5813 3.4399
305 3 7.27492 10.4499 0.191253
287 4 7.86816 9.07527 0.904051
337 2 1.66662 13.1282 1.48356
289 4 6.03058 10.7759 4.97634
290 1 6.23403 8.33262 1.57766
291 1 4.57461 10.2012 3.6583
292 1 6.33432 9.82644 6.53889
293 2 5.75805 12.364 5.48611
294 2 6.4756 7.26321 1.95482
295 2 5.52914 8.22614 0.645488
296 2 5.63989 8.99651 2.3644
297 2 3.56665 10.6565 3.81784
298 2 4.6711 9.08106 3.94189
299 2 4.86179 10.4712 2.63013
300 2 7.32954 9.24474 6.25929
301 2 5.56871 9.11667 7.01919
302 2 6.47116 10.6937 7.28844
329 2 8.48957 10.1216 8.36543
304 3 8.7669 9.48714 2.17322
41 4 4.20944 7.1297 6.38681
244 3 3.36176 8.33719 6.92488
156 2 3.18471 8.22871 1.08116
328 1 9.49532 10.1151 8.88811
48 4 2.49521 9.49778 7.47803
192 2 3.37305 12.3564 9.06746
345 2 7.53812 13.6628 9.6615
62 4 9.15627 7.22427 11.7876
63 4 3.85968 10.3311 10.172
64 4 7.51449 8.93501 13.7064
65 4 4.12183 10.8303 15.9894
66 4 6.52203 10.7823 11.5109
71 1 10.8206 7.42397 14.5731
195 2 2.82451 9.0731 11.7019
93 1 4.04433 12.2855 9.98891
94 1 2.85017 10.3337 11.7835
95 1 4.61497 11.4314 14.2815
116 2 6.30879 8.22876 10.5017
118 2 5.03069 7.85873 15.8166
122 2 5.4425 12.1559 11.3874
47 4 1.64492 11.7559 17.5666
175 2 2.78192 12.3079 12.4334
363 2 7.80111 12.0627 14.3442
342 1 7.77701 12.7038 16.9465
194 2 3.50025 12.8368 11.0093
344 2 7.16836 12.7264 15.9778
193 2 5.10828 12.6799 9.73612
197 2 3.46441 10.8261 12.7101
198 2 3.93934 12.2704 13.7531
199 2 4.6519 10.3992 13.7596
200 2 5.61184 11.8376 14.3705
288 4 6.65786 11.616 17.9689
271 3 10.2063 7.52649 10.5299
134 2 9.69113 7.54213 14.6231
274 3 7.05528 7.48662 14.273
275 3 8.57009 8.48787 12.5092
276 3 8.52884 9.69358 14.9603
277 3 3.76917 8.96487 15.8259
278 3 5.35082 11.0882 17.0489
279 3 2.90015 11.6767 16.5256
280 3 7.93336 11.3207 10.991
281 3 5.69439 9.67493 10.4302
282 3 6.54768 10.1302 12.9646
86 1 2.71317 13.4881 12.6737
330 2 9.72505 9.22854 9.51342
174 2 2.58293 13.5851 13.8324
251 3 3.84321 7.58864 13.5499
343 2 7.79172 13.6805 17.47
ITEM: TIMESTEP
100
ITEM: NUMBER OF ATOMS
365
ITEM: BOX BOUNDS xy xz yz pp pp pp
-7.7317999999999998e+00 1.5563499999999999e+01 -7.7317999999999998e+00
-1.3819999999999999e-01 1.3846299999999999e+01 2.4629999999999999e-01
0.0000000000000000e+00 1.8138977999999998e+01 -1.3819999999999999e-01
ITEM: ATOMS id type x y z
80 1 1.8637 6.53061 8.74626
8 2 0.0427827 3.40012 1.7464
226 3 3.64381 4.06293 3.61283
153 2 1.97456 6.75038 2.38512
11 4 2.95905 0.207511 8.73496
13 4 1.40908 1.8847 6.88305
160 2 1.88153 5.43955 8.33802
29 4 7.04067 0.552524 2.42929
30 4 2.38872 3.23595 4.1703
31 4 5.60127 2.77159 0.886051
319 2 -1.31788 3.94088 5.81985
220 3 5.9517 1.55995 1.91846
69 1 -0.359371 5.59175 6.53077
74 1 1.03037 2.2768 2.99554
75 1 5.08302 1.90273 5.84016
77 1 2.39001 6.70286 3.5158
96 2 -0.785902 4.53869 8.13472
102 2 0.668881 3.8848 3.48373
131 2 -1.43842 5.43251 6.79115
109 2 3.22395 6.0712 5.20651
126 2 -2.13398 6.04872 4.40209
107 2 3.82395 6.19576 2.26471
129 2 0.414372 5.91943 7.39972
130 2 0.172205 4.88787 5.75291
142 2 1.25805 2.27363 1.90213
143 2 0.237623 1.4555 3.30842
144 2 2.48042 1.45516 3.58895
145 2 5.09889 0.711563 5.83601
146 2 5.07674 2.25595 4.76418
147 2 4.27855 2.27088 6.48636
151 2 1.7789 6.0425 4.23071
37 4 4.79781 4.96162 2.9552
347 2 -2.33868 6.11993 1.1608
7 4 0.202195 3.40521 0.0134381
201 3 0.0415036 1.1033 6.27955
202 3 2.55795 0.796528 7.21725
205 3 1.09681 2.72078 8.30618
219 3 2.0062 3.05606 5.66199
229 3 4.43191 3.77881 9.06173
223 3 4.16278 2.54876 0.00565905
14 4 0.53474 2.65789 12.685
360 2 5.95389 0.704634 14.9673
19 4 -0.924363 5.20368 13.6416
33 4 3.64854 2.86655 10.1645
35 4 3.21104 2.43479 17.132
40 4 1.2293 6.18151 10.4632
42 4 4.42529 4.33168 14.6395
9 2 0.586402 4.97805 17.9116
44 4 3.7573 6.23421 12.4165
67 1 0.764763 1.80276 14.3751
76 1 3.40847 0.93554 15.911
43 4 1.0008 6.29703 15.7369
36 4 5.57426 2.73828 12.5282
103 2 2.1044 3.55286 10.4263
104 2 2.24193 2.42066 13.4016
110 2 2.17114 5.03119 15.8536
123 2 0.0733639 0.835793 13.9775
124 2 0.10586 2.50687 15.0368
125 2 1.72338 1.44619 14.8962
15 4 -1.69028 6.78197 17.5363
149 2 4.39974 0.26097 16.0744
150 2 3.42791 1.56971 14.8976
10 3 -0.892844 2.7049 17.5938
203 3 0.1259 1.61231 11.6008
207 3 -2.89048 6.29322 16.6238
206 3 -0.162511 4.02128 12.9778
343 2 0.196275 0.10075 17.5696
209 3 -1.51545 6.35076 12.8163
221 3 3.37766 1.41552 9.70863
97 2 -2.37568 4.55929 14.2771
224 3 1.68474 2.45472 17.7254
225 3 4.44788 2.91283 11.4917
231 3 0.706799 4.25342 10.2523
234 3 3.2714 3.86848 16.0961
106 2 6.12186 1.13762 12.3303
236 3 -0.0770978 5.78963 14.7746
238 3 2.55251 6.30058 11.3767
239 3 3.40096 4.96612 13.5162
235 3 5.05505 3.01531 14.0698
356 2 4.0473 0.616004 12.4833
148 2 2.44826 0.392959 16.0701
237 3 0.224433 6.33565 17.2064
84 1 6.9038 0.193572 14.9009
359 2 7.3539 0.0213706 13.792
16 4 -0.0154999 3.44744 9.15868
18 4 -0.831186 7.41653 5.70629
23 4 -2.35202 9.28699 7.95055
25 4 -3.3781 12.007 6.94235
38 4 1.84013 8.49312 4.08586
45 4 1.13459 9.21422 1.0753
46 4 -1.29962 12.2535 4.69745
70 1 -5.10999 11.8422 6.15803
78 1 2.48003 8.24583 0.281276
79 1 -2.15723 10.6705 3.97055
354 2 -5.82461 12.2178 6.97072
353 2 -4.84165 10.401 8.46958
113 2 0.920716 9.22491 7.82475
98 2 -4.06122 11.6423 0.501686
111 2 -0.386568 8.34907 0.958004
132 2 -5.07633 12.522 5.23713
133 2 -5.29927 10.8112 5.97964
157 2 -1.33933 9.91354 4.40726
158 2 -2.29829 10.4921 2.86549
159 2 -3.10766 10.6474 4.59229
348 2 -5.01599 10.1492 4.33884
210 3 -3.50378 8.42787 8.59623
211 3 -1.43053 8.33757 6.85026
213 3 -2.98722 10.4074 7.00133
214 3 -3.59462 12.9983 8.66741
228 3 0.533385 8.14339 5.03066
240 3 1.53214 9.14584 2.58395
241 3 -1.2827 13.2882 3.39836
242 3 -2.54957 12.8404 5.86517
155 2 1.94783 7.22102 0.180829
327 2 -6.58418 12.9277 3.48407
246 3 -0.469837 12.8031 8.84057
247 3 0.189424 11.8775 5.36868
321 1 -2.28171 7.76455 1.07104
322 2 -1.86372 8.18851 2.08947
323 2 -3.30447 8.31421 0.665721
324 1 -5.97934 12.2632 2.72063
68 1 -2.19518 7.26274 4.41881
326 2 -4.81323 12.4211 2.83721
127 2 -1.91289 7.75943 3.39466
182 2 -4.00578 8.63277 5.85506
162 2 1.01155 7.21657 8.29804
112 2 -0.171867 13.5729 1.08881
243 3 1.09892 10.5974 0.293254
128 2 -3.24698 7.61969 4.85269
325 2 -6.40046 12.3015 1.61073
152 2 3.56542 7.13942 3.74536
161 2 2.83656 7.06507 8.85982
245 3 -1.09199 10.1481 9.03205
17 4 -3.62359 7.49824 9.88341
21 4 -1.27614 7.5763 11.7744
22 4 -3.80578 12.0291 17.0554
24 4 -6.11482 11.6051 10.1139
26 4 -1.38573 9.85132 13.9089
27 4 -5.62151 10.6542 15.0313
28 4 -3.85844 11.9006 12.5206
92 1 -6.50451 12.103 14.1339
49 4 -1.18205 11.6038 9.63499
51 4 2.79726 8.34367 14.4472
52 4 -0.967167 12.3574 15.7357
72 1 -1.84283 8.88617 15.3856
81 1 -0.0368457 11.4411 11.1277
163 2 1.00216 11.8718 11.0908
254 3 -2.40531 12.1311 16.45
352 2 -1.75947 8.60989 17.6237
190 2 -6.02458 12.9697 14.7508
100 2 -4.42923 10.0739 13.9199
101 2 -4.80356 12.9903 13.5605
114 2 -2.88093 12.0391 9.88693
358 2 -2.14753 13.6763 13.3508
137 2 -0.759865 8.7512 15.8763
138 2 -2.18176 7.87955 15.0173
139 2 -2.53533 9.43829 16.114
232 3 -0.0529663 7.21106 10.636
135 2 -3.67664 7.31011 13.7478
191 2 -6.35973 12.2159 13.0019
164 2 -0.0697161 10.3674 11.3648
165 2 -0.750858 12.0159 11.8564
136 2 -4.02371 8.10791 15.3935
99 2 -4.34977 13.6537 17.4991
208 3 -2.7447 7.95016 11.1928
212 3 -6.27867 12.9921 9.31878
215 3 -0.717722 8.8781 12.8291
216 3 -4.78081 11.1745 16.2596
217 3 -4.67505 11.6197 11.2087
218 3 -3.11674 10.7318 13.3214
357 2 -2.41035 13.2663 11.4718
115 2 2.17986 9.6555 13.4981
250 3 1.72682 7.58908 15.2038
252 3 -0.613126 11.1316 14.4207
253 3 0.176006 12.2979 16.8231
82 1 -2.95347 13.5078 12.5701
364 2 -6.50148 12.4032 16.9978
196 2 1.79829 10.6827 11.512
1 4 13.9866 1.17501 5.45455
350 2 9.73151 1.60463 1.24679
286 4 13.6951 0.020414 2.27827
4 2 12.3294 0.68528 7.15906
6 3 14.2281 0.433149 3.68561
56 4 6.48909 6.84555 4.58167
34 4 6.70795 2.60377 6.46813
39 4 5.48628 4.88483 8.31169
349 2 13.4611 1.42235 1.31846
53 4 8.66405 2.63058 3.94416
55 4 9.54193 5.03369 1.89086
351 2 13.3726 3.00383 4.16705
340 2 11.7257 0.68991 1.05812
85 1 10.2632 2.23308 4.85652
88 1 10.3487 6.6367 2.43289
90 1 10.8253 5.28092 5.80566
166 2 10.3482 0.230125 4.5367
170 2 10.5869 3.37245 5.15965
171 2 10.9992 1.76984 4.06503
172 2 10.2253 1.6292 5.76778
2 1 12.714 -0.0305901 6.37209
227 3 5.49308 4.16192 1.71182
180 2 10.5056 6.40215 3.52767
184 2 10.8843 4.98954 4.72521
185 2 10.0348 4.68797 6.50814
186 2 11.7923 5.51455 6.25066
189 2 9.75809 6.32222 8.22934
222 3 7.44046 1.44843 7.47335
230 3 6.37017 3.99694 7.27627
341 2 11.663 1.50758 2.87298
255 3 8.24187 1.35022 3.04212
256 3 7.67063 2.77088 5.18149
258 3 9.0355 4.05418 3.11838
259 3 10.7012 4.01124 1.02265
260 3 5.87684 5.51232 3.94275
263 3 8.27184 5.50246 0.57077
308 4 10.363 2.77177 0.160446
313 2 11.4289 4.16319 7.26519
339 1 11.9208 0.582142 2.2026
320 2 12.3914 2.79283 5.88268
338 2 8.75362 0.584477 0.13611
266 3 8.10723 6.57036 5.28041
32 4 8.2161 0.198847 8.11556
59 4 9.47468 6.78936 6.02922
318 1 13.434 3.00078 5.3075
233 3 4.6006 5.97043 7.53659
336 2 10.6283 0.12928 0.463728
316 2 9.32894 3.61188 8.77829
187 2 7.85249 6.67697 8.10321
310 4 11.4303 4.33711 8.9805
334 2 7.58953 3.9982 0.0263306
12 4 14.4283 1.06881 10.4675
20 4 11.0333 5.85045 15.6591
331 1 7.2988 2.82594 17.7969
54 4 12.0346 0.886475 12.6359
57 4 8.59047 6.31044 17.4204
60 4 10.6308 3.63317 13.1989
317 3 11.7521 5.73473 9.49523
73 1 9.32842 0.913897 9.50389
141 2 9.25577 2.04838 9.51164
87 1 13.0812 0.572518 14.2124
105 2 6.96751 3.51054 11.9876
169 2 7.70015 0.779553 15.443
117 2 9.00379 3.37857 13.5903
119 2 10.3181 4.48915 11.7491
120 2 10.1531 6.49071 12.8768
365 3 11.8169 2.01362 17.4864
346 2 12.9942 3.26603 15.5457
140 2 10.34 0.465208 9.30896
332 2 6.90104 2.85693 16.7766
272 3 7.8899 6.06341 11.3907
176 2 13.4795 1.64969 14.5363
173 2 9.78697 0.16477 11.8841
257 3 13.1132 0.58661 11.2791
262 3 9.61928 5.67162 16.343
264 3 6.49661 5.74639 9.3313
58 4 6.42368 6.5018 10.6471
267 3 11.2849 2.29793 12.7911
268 3 11.3415 4.42647 14.4059
269 3 5.60756 5.36736 15.1997
204 3 13.9455 2.17257 9.35812
283 4 13.1543 2.20556 16.784
284 2 13.5794 0.649218 16.1282
265 3 5.17391 6.15496 11.5521
309 2 9.22817 2.81822 17.2865
315 2 10.1412 3.28921 10.6039
311 1 9.78994 4.16907 9.87023
312 2 12.673 3.25564 9.39142
314 2 9.02802 4.86042 10.3536
270 3 7.01857 6.57851 16.8789
333 2 7.93973 1.92162 17.9714
355 2 8.82891 0.341914 10.3863
61 4 6.22647 6.76895 15.5435
177 2 12.1448 0.136695 14.8078
361 2 3.82334 13.3034 2.59619
335 1 1.78373 13.6193 0.504451
50 4 1.65294 12.1114 6.03025
83 1 2.46925 12.8677 4.46548
89 1 10.3223 8.47056 5.37345
91 1 8.90763 7.0547 7.84128
121 2 6.7084 7.95536 3.24661
307 3 7.44215 10.5774 4.27989
249 3 1.71425 13.5075 7.07528
167 2 1.69925 12.6219 3.67339
168 2 3.45581 12.3149 4.30039
181 2 10.3689 8.4643 4.20346
3 2 4.06091 13.4112 5.56861
183 2 9.45963 9.13415 5.81091
192 2 3.56785 12.3442 9.02318
188 2 9.13011 8.21791 8.23483
178 2 9.38156 7.33126 2.38874
306 3 6.19895 12.6677 1.30829
108 2 3.11447 9.29425 4.84261
248 3 2.54583 10.859 6.55537
273 3 3.25172 9.90342 8.82347
261 3 5.37398 7.50798 5.45479
5 2 5.55606 12.9601 6.83744
285 4 8.89861 10.5782 3.39133
305 3 7.44808 10.3748 0.0513438
287 4 7.85621 8.99554 0.83015
337 2 1.51995 13.0705 1.47238
289 4 6.09456 10.6421 5.11151
290 1 6.12635 8.36125 1.41372
291 1 4.6748 10.0669 3.81835
292 1 6.04244 9.71913 6.67124
293 2 5.58708 12.2578 5.2774
294 2 6.40869 7.32799 1.609
295 2 5.58947 8.49998 0.361677
296 2 5.54102 8.97102 2.34043
297 2 3.7698 10.6805 4.00457
298 2 4.51855 8.95685 3.73142
299 2 5.12463 10.5332 2.86069
300 2 6.91944 8.9363 6.74205
301 2 5.06439 9.21786 6.88038
302 2 6.2991 10.6477 7.38313
329 2 8.60654 9.98079 8.32774
304 3 8.71069 9.50604 2.16017
41 4 4.194 6.98376 6.34489
244 3 3.23501 8.21877 6.84399
156 2 3.28414 8.27635 1.15625
328 1 9.47045 10.0698 9.02802
48 4 2.51125 9.54681 7.48112
179 2 11.3276 7.07938 1.88955
345 2 7.49628 13.6252 9.72941
62 4 9.133 7.22269 11.7012
63 4 3.96287 10.3604 10.1623
64 4 7.61663 8.91482 13.6981
65 4 4.12131 10.9038 16.192
66 4 6.54447 10.7139 11.5135
71 1 10.9343 7.37189 14.5063
195 2 2.9559 9.05076 11.6927
93 1 4.30023 12.2608 9.90091
94 1 2.94512 10.2447 11.7695
95 1 4.41369 11.4263 14.3731
116 2 6.33404 8.18315 10.3137
118 2 4.92837 7.78527 15.8259
122 2 5.57829 12.1842 11.4616
47 4 1.59437 11.9818 17.4766
175 2 2.67473 12.2357 12.189
363 2 7.58893 12.0082 14.4787
342 1 7.75323 12.8876 17.1046
194 2 3.69967 12.6849 10.9495
344 2 7.14187 12.781 16.1092
193 2 5.20463 12.8365 9.70307
197 2 3.43582 10.7722 12.7004
198 2 3.80006 12.2155 13.7893
199 2 4.51425 10.424 13.8584
200 2 5.52768 11.8722 14.694
288 4 6.82411 11.5642 18.0272
271 3 9.94583 7.52316 10.397
134 2 9.93547 7.67354 14.1482
274 3 6.91278 7.54498 14.3174
275 3 8.70604 8.58527 12.4725
276 3 8.50769 9.65023 15.0333
277 3 3.92523 9.10642 15.8191
278 3 5.39595 11.333 17.0401
279 3 2.85422 11.8172 16.4589
280 3 7.90639 11.2123 10.846
281 3 5.82475 9.70963 10.4674
282 3 6.55386 10.1826 12.9927
86 1 2.6908 13.3502 12.5148
330 2 9.61276 9.08737 9.63924
174 2 2.26356 13.4465 13.5717
251 3 3.62186 7.56767 13.3391
303 3 8.98831 7.78046 17.925
154 2 3.17259 8.47137 17.3845
362 2 6.11113 13.6644 13.9236
ITEM: TIMESTEP
200
ITEM: NUMBER OF ATOMS
365
ITEM: BOX BOUNDS xy xz yz pp pp pp
-7.7317999999999998e+00 1.5563499999999999e+01 -7.7317999999999998e+00
-1.3819999999999999e-01 1.3846299999999999e+01 2.4629999999999999e-01
0.0000000000000000e+00 1.8138977999999998e+01 -1.3819999999999999e-01
ITEM: ATOMS id type x y z
80 1 1.58434 6.67772 8.62637
8 2 0.113677 3.08613 1.71755
226 3 3.61724 3.93626 3.71141
153 2 2.32018 6.78718 2.17913
11 4 2.95027 0.166217 8.82084
13 4 1.40823 1.94965 6.94835
160 2 1.85102 5.78497 7.99144
29 4 7.12627 0.493388 2.29761
30 4 2.40903 3.10327 4.28057
31 4 5.44361 2.6737 0.940405
319 2 -1.22128 3.71434 5.6904
220 3 5.86263 1.385 1.91929
69 1 -0.359744 5.57435 6.29614
74 1 1.29422 2.06444 2.93561
75 1 5.00197 1.9281 6.13795
77 1 2.58101 6.79381 3.29994
96 2 -0.769005 4.70242 8.02703
102 2 0.75214 3.61023 3.2949
131 2 -1.42548 5.13579 6.51311
109 2 3.12352 6.23758 5.11026
126 2 -1.93929 6.10432 4.1956
107 2 3.95313 6.06507 2.10847
129 2 0.376554 5.86736 7.23097
130 2 0.136705 4.9993 5.48263
142 2 1.62092 1.91847 1.88325
143 2 0.394694 1.41529 3.26181
144 2 2.74054 1.29386 3.77001
145 2 5.03955 0.692326 6.05554
146 2 4.90053 2.37587 5.06819
147 2 4.22315 2.34923 6.85742
151 2 2.37963 5.81368 3.81922
37 4 4.75834 4.80548 2.9939
347 2 -2.36729 6.16712 1.12794
219 3 2.01947 3.03834 5.80981
201 3 -0.0802139 1.31459 6.38457
202 3 2.56461 0.6602 7.26125
205 3 1.02356 2.69688 8.33954
16 4 -0.083514 3.51064 9.02292
227 3 5.37842 4.10992 1.75542
233 3 4.40964 5.93624 7.49682
229 3 4.51197 3.77102 9.06529
7 4 0.188161 3.3083 0.0119713
14 4 0.637202 2.75878 12.7521
360 2 5.6719 0.741524 15.021
19 4 -1.05625 5.21671 13.6673
33 4 3.66926 2.8975 10.1083
35 4 3.2058 2.6043 17.0037
40 4 1.09038 6.19627 10.348
42 4 4.53319 4.34046 14.5741
9 2 0.513292 4.89546 18.0549
44 4 3.59453 6.34884 12.5689
67 1 0.650193 1.88208 14.5146
76 1 3.38368 0.982754 15.9262
43 4 0.955305 6.21918 15.7823
36 4 5.63714 2.69656 12.4725
103 2 2.09829 3.54887 10.3818
104 2 2.21001 2.59251 13.5936
110 2 2.15193 5.03078 15.8126
123 2 0.0784319 0.998806 14.1692
124 2 0.0868872 2.70034 15.118
125 2 1.61271 1.52545 15.0602
15 4 -1.74129 6.71669 17.53
149 2 4.24162 0.304328 16.1448
150 2 3.53188 1.44572 14.8892
10 3 -0.865672 2.67018 17.4517
203 3 0.349696 1.66834 11.7287
207 3 -2.98071 6.30257 16.5594
206 3 -0.203473 4.01087 13.0794
343 2 0.4352 0.162576 17.7306
209 3 -1.70334 6.23508 12.609
221 3 3.42373 1.44817 9.66923
223 3 4.35826 2.3227 18.0736
224 3 1.75425 2.50907 17.7187
225 3 4.48423 2.84006 11.4302
231 3 0.666585 4.27058 10.151
234 3 3.35852 3.89002 16.0711
106 2 6.24365 1.06792 12.3111
236 3 -0.0610796 5.67733 14.7981
238 3 2.26527 6.30626 11.4948
239 3 3.53636 5.10086 13.5262
235 3 5.3205 2.99506 14.0389
356 2 3.9208 0.361668 12.5661
148 2 2.4305 0.40688 16.0829
237 3 0.168178 6.21524 17.2571
84 1 6.84426 0.470841 15.1215
359 2 7.25574 0.407599 14.0637
18 4 -0.712279 7.39956 5.58561
23 4 -2.28378 9.3158 7.86776
25 4 -3.48372 12.0541 6.83432
38 4 1.85235 8.45176 3.90103
45 4 1.10577 9.31213 1.00816
46 4 -1.18308 12.2316 4.6789
70 1 -5.17334 11.9509 5.97591
78 1 2.42365 8.20696 0.184012
79 1 -1.73201 10.6223 3.85368
354 2 -5.89706 12.5629 6.59267
353 2 -5.31608 10.4291 7.98826
113 2 0.992317 9.01627 7.77107
98 2 -3.72769 11.6538 0.533524
111 2 -0.540201 8.69122 0.887862
132 2 -4.95213 12.4061 4.9085
133 2 -5.4907 10.7897 5.88535
157 2 -1.05333 9.88851 4.34095
158 2 -1.77302 10.5137 2.72615
159 2 -2.81156 10.6337 4.29076
348 2 -4.8915 10.0556 4.07004
210 3 -3.39825 8.56393 8.71197
211 3 -1.38483 8.22887 6.73667
213 3 -3.06698 10.4984 7.0916
214 3 -3.60696 12.8329 8.65242
228 3 0.651174 7.98667 4.91547
240 3 1.42491 9.31647 2.54063
241 3 -1.03965 13.2105 3.39461
242 3 -2.4887 12.8939 5.92417
155 2 1.86765 7.24141 0.102793
327 2 -7.01761 12.8021 2.86427
246 3 -0.234122 12.684 8.88145
247 3 0.180614 11.929 5.36338
321 1 -2.26035 7.84466 1.08765
322 2 -1.86228 8.31773 2.05307
323 2 -3.22114 8.35392 0.752438
324 1 -6.19537 12.1219 2.48545
68 1 -1.98671 7.29705 4.22871
326 2 -5.18095 12.4595 2.68851
127 2 -1.46854 7.80802 3.27485
182 2 -3.84809 8.36441 5.77703
162 2 0.671826 7.30739 8.22987
112 2 -0.0985474 13.5383 0.857176
243 3 1.18293 10.6616 0.259047
128 2 -3.0941 7.71098 4.54199
325 2 -6.31281 11.7903 1.34869
245 3 -1.19587 10.1012 8.80923
161 2 2.5445 7.27222 8.9406
17 4 -3.67067 7.48127 9.86048
21 4 -1.29692 7.62716 11.8398
22 4 -3.77611 11.967 17.0391
24 4 -6.08116 11.6142 10.1911
26 4 -1.40606 9.99448 13.8881
27 4 -5.53931 10.5674 15.022
28 4 -3.81309 11.9455 12.3997
92 1 -6.43773 12.1391 14.3311
49 4 -1.12521 11.5138 9.53314
51 4 2.77722 8.44017 14.5787
52 4 -0.94276 12.5431 15.7367
72 1 -1.89526 9.12087 15.459
81 1 -0.213249 11.4317 11.2071
163 2 0.725476 11.9514 10.8547
254 3 -2.43729 12.2406 16.3119
352 2 -1.58167 8.53326 17.6191
190 2 -5.89386 12.9712 14.8354
100 2 -4.32277 10.0246 13.9112
101 2 -4.75331 12.8297 13.6158
114 2 -2.76298 12.0132 9.73976
364 2 -6.67011 12.3718 16.8049
137 2 -0.945151 9.29827 16.1352
138 2 -1.97342 8.06243 15.0007
139 2 -2.85582 9.4422 15.8891
232 3 -0.105044 7.16428 10.8019
154 2 2.98942 8.51595 17.2587
191 2 -6.66378 12.2976 13.2225
164 2 -0.158268 10.2689 11.2448
165 2 -0.575073 11.9231 12.1722
358 2 -2.19679 13.6749 13.6007
99 2 -4.49558 13.4986 17.395
208 3 -2.65897 7.99038 11.0628
212 3 -6.24028 13.112 9.44839
215 3 -0.788046 8.95529 12.8079
216 3 -4.70222 10.9884 16.272
217 3 -4.80277 11.6983 11.2875
218 3 -3.11573 10.7218 13.1186
357 2 -2.31574 13.3677 11.5382
115 2 2.07157 9.67853 13.5862
250 3 1.64556 7.51072 15.3115
252 3 -0.534963 11.3715 14.3672
253 3 0.252358 12.5134 16.8921
82 1 -2.85357 13.558 12.5798
195 2 2.67923 9.03672 11.6852
1 4 13.9552 1.12809 5.49681
350 2 10.0562 1.47499 0.98529
286 4 13.7635 -0.00516252 2.35744
4 2 12.2702 0.97956 7.2351
6 3 14.2436 0.432759 3.79689
56 4 6.45211 6.84495 4.55167
34 4 6.70832 2.5782 6.60576
39 4 5.38336 4.89846 8.278
349 2 13.5531 1.44924 1.38404
53 4 8.615 2.5182 3.89807
55 4 9.52858 5.02989 1.86632
351 2 13.1536 3.03819 4.09853
340 2 11.7427 0.56507 0.810351
85 1 10.2978 2.28666 4.7158
88 1 10.4474 6.51387 2.47995
90 1 10.747 5.33135 5.75235
166 2 10.3706 0.2432 4.52508
170 2 10.5247 3.46595 5.09327
171 2 11.1303 1.85794 3.97998
172 2 10.0451 1.58072 5.53459
334 2 7.52408 3.92535 0.161802
333 2 7.63336 1.98612 0.089239
180 2 10.8441 6.31588 3.60739
184 2 10.913 5.25428 4.62714
185 2 9.81264 4.65111 6.21357
186 2 11.6442 5.68235 6.44899
189 2 9.55992 6.52114 8.3369
222 3 7.39182 1.45996 7.59368
230 3 6.42081 4.00458 7.21883
341 2 11.5187 1.37 2.70889
255 3 8.47434 1.35734 2.81336
256 3 7.49481 2.5506 5.13881
258 3 8.8417 4.09134 3.0913
259 3 10.694 4.16995 1.02486
260 3 5.81557 5.56722 3.92285
263 3 8.18401 5.53799 0.613668
308 4 10.4187 2.90542 0.134955
313 2 11.2141 4.29938 7.33245
339 1 11.9551 0.505644 2.01414
320 2 12.402 2.75023 5.88762
2 1 12.6091 0.0610494 6.58062
266 3 7.95004 6.75767 5.24662
32 4 8.27505 0.159324 8.25506
59 4 9.35012 6.83073 5.9306
318 1 13.386 2.89764 5.2435
338 2 8.96952 0.42514 0.132266
310 4 11.4251 4.50773 9.06257
316 2 9.19374 3.77763 8.91507
12 4 14.4311 1.16485 10.6993
20 4 10.9691 5.88873 15.638
331 1 7.30379 2.76867 17.9435
54 4 12.0122 0.775157 12.6459
57 4 8.56399 6.41097 17.4436
60 4 10.6097 3.50347 13.2258
317 3 11.8758 5.91435 9.41877
73 1 9.23622 0.924945 9.65231
141 2 9.34908 2.11933 9.66716
87 1 13.0741 0.300993 14.2237
105 2 6.97772 3.58112 12.0566
169 2 7.38179 1.14764 15.8546
117 2 9.09598 3.15042 13.6158
119 2 10.3553 4.37878 11.7867