ITEM: TIMESTEP
0
ITEM: NUMBER OF ATOMS
365
ITEM: BOX BOUNDS xy xz yz pp pp pp
-7.7317999999999998e+00 1.5746722000000000e+01 -7.7317999999999998e+00
-1.3819999999999999e-01 1.3846299999999999e+01 4.2952199999999996e-01
0.0000000000000000e+00 1.8322199999999999e+01 -1.3819999999999999e-01
ITEM: ATOMS id type x y z
7 4 1.00486 3.21363 0.215362
8 2 2.0844 2.12499 1.23203
9 2 1.53528 4.64522 0.868497
10 3 -0.423095 2.98289 0.754763
11 4 3.04334 0.583067 8.85202
13 4 1.34827 2.37517 6.97153
347 2 -2.92647 6.05472 1.01243
29 4 6.5596 0.73813 2.43658
30 4 2.78247 2.94097 4.20073
31 4 5.17897 2.86311 0.694895
37 4 4.60545 5.07155 2.76574
68 1 -2.29498 5.98872 4.90119
69 1 -0.667384 6.28714 7.519
74 1 2.37346 1.35495 2.95422
75 1 5.27459 2.42317 6.11192
129 2 -1.07432 6.83667 8.47499
107 2 3.53202 6.3939 2.56174
102 2 1.38858 2.73275 2.81532
131 2 -1.16285 5.23068 7.22876
109 2 3.07271 6.00128 5.03872
126 2 -1.54021 5.14039 4.81653
127 2 -2.4758 6.43826 3.87601
161 2 2.62151 5.37786 8.96894
130 2 0.523986 6.15186 7.61967
142 2 2.94423 1.20475 2.01795
143 2 1.62861 0.52875 3.19211
144 2 3.71047 1.32951 4.12812
145 2 5.14288 1.31691 6.45161
146 2 5.35399 2.51362 4.93504
147 2 4.5768 3.17177 6.55634
151 2 1.49783 6.15138 4.44141
96 2 -1.19201 4.96724 8.88513
153 2 1.80231 6.648 2.49272
319 2 -1.30573 3.76477 5.12141
201 3 0.0996987 1.39306 6.33526
202 3 2.24629 1.56714 7.92894
205 3 0.81807 3.74568 7.77785
219 3 2.12722 2.92933 5.60085
220 3 5.36695 1.76487 1.91358
226 3 3.89031 4.03058 3.71275
227 3 4.70039 4.39616 1.32355
80 1 2.16622 6.54939 9.08131
233 3 4.67102 5.4604 7.07915
354 2 1.93502 0.003373 6.22289
160 2 1.62803 6.8164 8.09425
77 1 1.93828 6.89488 3.65159
14 4 0.442533 2.54478 12.9103
346 2 -1.08719 3.68783 16.2
19 4 -1.21943 5.006 13.7029
33 4 3.94099 3.05353 10.3508
35 4 3.69416 2.68636 16.6331
40 4 1.33689 6.18285 10.715
42 4 5.08281 4.62327 14.7948
43 4 0.458148 6.00613 16.102
99 2 4.48666 0.23905 17.2823
67 1 0.569269 1.58645 14.6775
76 1 4.04426 1.3402 15.3248
358 2 5.78411 0.565216 13.0717
204 3 -0.954132 2.4541 9.49027
103 2 2.24996 3.52632 10.5621
104 2 1.99792 2.57534 13.7867
110 2 1.31517 4.57358 16.2497
123 2 0.976421 0.518294 14.5789
15 4 -1.99103 6.48085 17.7529
125 2 0.976248 2.1597 15.6475
148 2 3.26149 0.480977 15.4816
149 2 5.07305 1.00175 15.4306
150 2 3.88625 1.9163 14.3849
237 3 -0.343821 6.31532 17.521
203 3 0.440919 1.65329 11.6542
283 4 -1.01312 2.54204 17.454
206 3 -0.40163 3.90211 13.0487
44 4 3.53914 6.49699 13.0276
209 3 -1.5016 6.23513 12.7903
221 3 3.85665 1.48551 9.89184
223 3 4.29939 1.8511 17.8031
224 3 1.77189 3.03024 17.0577
225 3 4.81324 3.22629 11.7299
231 3 0.914342 4.25559 10.5178
234 3 4.57738 3.97209 16.2863
16 4 -0.0222964 3.7578 9.24171
236 3 -0.538562 5.49923 15.0278
238 3 2.3269 6.44647 11.994
239 3 3.70033 5.13704 13.8822
345 2 0.240673 0.0667967 9.52757
229 3 4.60346 3.95853 9.32996
106 2 6.90875 1.6302 12.0607
356 2 6.29648 0.295287 11.2622
235 3 6.03682 3.27269 13.9529
18 4 -1.35077 7.28588 6.07654
23 4 -2.98611 9.2804 7.81826
25 4 -4.00191 12.4084 6.70753
38 4 1.04299 8.47479 4.30394
45 4 0.297708 9.07328 1.30661
46 4 -1.63408 12.3539 4.46804
70 1 -5.61656 12.7911 5.90558
78 1 1.58957 7.91401 0.726341
79 1 -1.94888 10.7757 3.5111
111 2 -1.38044 8.53588 1.17824
353 2 -5.29997 10.4466 8.44665
321 1 -3.02251 8.33126 0.107089
182 2 -3.93359 7.26862 4.92462
156 2 2.35334 7.94636 1.64893
132 2 -5.70875 12.5021 4.73473
152 2 3.06597 7.49267 3.87512
157 2 -0.974418 10.1999 3.58381
158 2 -2.31639 10.9547 2.48511
159 2 -2.73784 10.3469 4.2189
348 2 -4.56086 9.50392 4.28479
210 3 -3.79325 8.35186 8.85996
211 3 -2.43642 8.39325 6.57896
213 3 -4.01495 10.5619 7.29932
214 3 -3.81973 13.4255 7.93899
228 3 -0.120375 7.85857 5.14189
240 3 0.656318 9.26997 3.01592
241 3 -1.78117 13.5637 3.4473
242 3 -2.87041 12.4472 5.57974
243 3 0.466843 10.3776 0.415315
245 3 -1.75347 10.0679 8.5699
246 3 -0.802735 12.6045 8.57416
247 3 -0.0371396 11.8752 5.26472
155 2 0.917308 6.93778 0.753059
322 2 -3.12983 8.45054 1.23513
112 2 -0.708119 13.6637 1.08611
324 1 -5.89401 12.0098 2.80558
325 2 -5.99155 11.7401 1.66256
326 2 -4.71457 12.0676 3.16721
327 2 -6.51959 12.9092 3.1459
113 2 1.73392 8.40063 8.55338
108 2 2.07463 9.38768 5.40319
133 2 -6.28986 12.0688 6.53737
338 2 0.452206 12.652 2.00074
251 3 3.41418 7.71753 14.0002
21 4 -1.21447 7.47304 11.8869
22 4 -2.85053 12.5837 16.6607
24 4 -5.82169 11.8723 10.4721
26 4 -0.896642 9.92091 13.9568
27 4 -4.86771 10.9581 15.0093
28 4 -2.96727 12.4033 12.5378
252 3 0.327349 10.7148 14.6661
232 3 0.0101926 7.00857 10.7567
51 4 2.48644 8.18305 15.2936
52 4 -0.0631879 12.4319 15.49
72 1 -1.66255 8.85754 15.3147
81 1 0.118988 10.9948 10.6221
191 2 -5.80985 12.569 13.1891
92 1 -5.7792 12.4911 14.2801
115 2 1.54126 9.59299 14.9231
254 3 -1.61537 12.7729 15.6266
100 2 -3.82111 10.3772 13.7572
101 2 -4.12496 13.2529 13.5226
114 2 -2.90331 11.6899 10.223
136 2 -3.02397 7.51624 14.6793
137 2 -0.982317 9.17948 16.1982
138 2 -1.35834 7.82227 14.8628
139 2 -2.73157 8.98741 15.4858
154 2 2.58702 8.06041 18.008
98 2 -2.41815 11.9554 18.0835
163 2 0.0445371 9.90902 10.825
164 2 -0.11142 11.6984 11.4635
165 2 1.04327 11.2656 10.093
190 2 -5.26281 13.4572 14.8043
49 4 -1.33746 11.382 9.45259
208 3 -2.69721 7.95989 11.2508
212 3 -5.98653 13.2377 9.61635
215 3 -0.610662 8.66039 12.7822
216 3 -4.03814 11.6722 16.2169
217 3 -3.98591 12.0237 11.2447
218 3 -2.41604 11.0175 13.2791
357 2 -0.603787 13.0197 12.6244
253 3 0.492975 12.4723 17.0019
250 3 1.52955 7.04792 15.6867
352 2 -1.69442 8.75753 17.9066
17 4 -3.89817 7.5691 10.214
162 2 2.96761 7.3009 9.36832
47 4 1.46 11.7104 18.0566
82 1 -1.59551 13.6566 12.2823
323 2 -3.63377 8.28066 17.8921
364 2 -7.16314 13.5705 17.5206
1 4 14.1378 1.13694 5.39086
349 2 14.3329 1.58296 1.47523
350 2 10.8691 0.891838 0.801542
4 2 12.2197 0.869011 6.52923
6 3 14.3684 0.181069 3.80544
318 1 13.2959 2.81438 4.94244
34 4 7.0013 2.70224 6.7617
39 4 5.45244 5.01426 8.43424
286 4 13.8554 0.136311 2.29218
53 4 8.57036 2.73129 3.82861
55 4 9.67448 4.6849 1.63831
56 4 6.60408 6.65075 4.3283
59 4 9.17125 6.60407 6.19023
85 1 10.2173 1.85313 4.46929
88 1 10.9361 6.05606 2.27805
90 1 10.3435 4.95024 6.54528
41 4 4.25687 6.65989 6.10477
170 2 11.3308 2.28372 4.55231
171 2 10.1487 0.981072 3.7363
172 2 9.83061 1.5638 5.48804
178 2 10.7608 6.68567 3.26345
179 2 10.6626 6.72904 1.34384
180 2 11.9859 5.5256 2.30398
184 2 10.4927 4.34839 5.59753
185 2 9.67686 4.42272 7.28724
186 2 11.3041 5.13378 7.03234
316 2 9.79652 3.29939 8.72969
222 3 7.58535 1.37648 7.39441
230 3 6.82057 4.1569 7.92234
336 2 8.57061 0.134702 0.566856
255 3 7.77922 1.60622 2.97628
256 3 7.84046 2.94869 5.37338
258 3 9.01645 4.08947 3.03045
259 3 10.4948 3.5743 0.942233
260 3 5.97723 5.54296 3.35063
263 3 8.45773 5.45357 0.598723
266 3 7.86382 6.27113 5.42079
189 2 9.50948 6.56766 8.45611
128 2 11.9014 5.60231 5.53925
320 2 12.4307 2.57928 5.79622
341 2 11.7737 1.20922 2.31895
351 2 12.7908 2.8646 3.91423
308 4 11.0409 2.40229 0.00461367
313 2 12.4877 3.44916 8.77929
334 2 7.34771 4.0144 0.0181762
140 2 10.2131 0.0811058 9.02883
333 2 7.53243 2.18923 0.163438
339 1 11.9491 0.0211839 2.22411
12 4 14.6853 1.19431 10.4763
20 4 11.0486 5.55333 15.6743
97 2 12.563 4.26014 14.0534
54 4 12.1453 0.76307 12.2739
57 4 8.71184 6.35736 17.7136
60 4 10.4379 2.95891 13.7905
135 2 11.5853 6.42813 13.2455
73 1 9.22422 0.551197 9.30555
36 4 6.17227 3.184 12.4397
360 2 9.37147 0.43092 15.5005
105 2 7.31853 4.21434 11.7027
314 2 8.95335 4.48854 10.0041
117 2 9.77397 1.61283 14.6605
119 2 8.9245 3.55504 13.2194
120 2 9.94183 6.08178 13.0839
124 2 14.6642 1.61731 14.6096
272 3 7.67262 6.11807 11.5448
141 2 9.37507 1.65755 9.55787
174 2 9.53731 0.0621616 12.1509
317 3 11.5464 5.85984 9.98429
359 2 7.87963 0.604598 14.3296
177 2 12.97 1.03053 14.3951
257 3 13.2155 0.579856 11.025
262 3 9.63224 5.88178 16.2652
264 3 5.94413 6.24553 9.40371
365 3 12.9149 2.09986 17.8564
267 3 11.2925 2.50602 12.6212
268 3 11.1178 3.94302 14.7813
269 3 6.04865 5.86067 14.9378
315 2 9.76196 2.89273 10.7013
331 1 7.23435 2.8691 18.1246
332 2 7.03269 2.75122 16.9706
312 2 11.7478 3.50507 11.4079
309 2 10.3523 2.05673 17.08
310 4 11.4857 4.29335 9.86962
311 1 9.72222 3.68382 9.89723
87 1 13.2082 0.0959093 13.7252
270 3 7.05989 6.62173 17.2944
207 3 12.2785 5.91037 16.6978
58 4 6.28526 6.71516 10.9317
176 2 14.3008 0.0155963 13.4686
265 3 5.01914 6.5806 11.9101
84 1 8.74872 -0.0584216 14.6632
71 1 11.3768 6.78594 14.3046
284 2 14.9065 1.3011 16.4419
355 2 8.73576 0.0132497 10.1412
3 2 4.70124 13.0099 5.66144
48 4 3.02169 9.11557 7.66839
50 4 1.47653 11.8605 5.88498
83 1 2.5951 12.195 4.43204
89 1 10.3346 7.73644 4.94041
91 1 8.74368 7.37487 7.88571
121 2 7.16385 7.92824 3.31173
187 2 7.64789 7.09947 8.01734
166 2 1.91551 12.9667 3.91634
167 2 2.55836 11.102 3.95868
168 2 3.6914 12.5695 4.72882
181 2 9.6717 7.72144 3.98501
32 4 0.406981 13.7414 7.89777
183 2 10.1438 8.62609 5.73668
2 1 5.25839 13.7844 6.32363
188 2 8.98828 8.38296 8.25453
192 2 5.20986 12.2896 8.02119
361 2 3.6665 13.2489 3.01802
244 3 3.60563 7.92171 6.87747
340 2 4.14876 13.4124 1.11123
249 3 1.53252 13.0023 6.93349
261 3 5.45149 7.32981 5.22483
273 3 4.19421 9.84059 8.64453
285 4 9.33441 10.254 3.48242
337 2 2.29832 13.3152 1.65425
287 4 8.05813 9.06293 0.886903
5 2 5.74146 13.3477 7.26522
289 4 6.68531 10.7134 5.25914
290 1 6.29003 8.46038 1.54992
291 1 5.22685 10.4005 3.89401
292 1 6.65427 9.61534 6.69257
293 2 6.49064 12.4373 5.63744
294 2 6.3635 7.33011 1.72588
295 2 5.80508 8.75317 0.560729
296 2 5.89275 9.13506 2.51039
297 2 4.27901 11.02 3.96482
298 2 4.98487 9.32157 3.8542
299 2 5.84555 10.8004 3.00929
300 2 6.64461 10.4899 7.49739
301 2 7.40969 8.74009 6.9822
302 2 5.53642 9.24293 6.55574
335 1 1.25205 13.1188 1.20225
304 3 8.95115 9.25794 2.21368
305 3 7.70306 10.4133 0.202028
306 3 6.48843 12.7383 1.32653
307 3 8.13485 10.3618 4.52177
248 3 2.28048 10.2237 6.72611
93 1 5.22234 12.3097 9.1588
329 2 8.22427 10.4928 9.0628
288 4 7.11654 11.4757 18.2325
62 4 8.96148 7.09243 12.0745
63 4 4.88771 10.5393 9.85254
64 4 7.97125 9.14141 14.1828
65 4 4.08023 10.5684 16.7086
66 4 7.03041 11.1136 12.1341
195 2 2.75259 9.72348 10.8794
134 2 10.3182 7.35816 14.3574
86 1 2.82535 13.4307 11.9824
94 1 3.57332 10.3322 11.2655
95 1 4.32272 11.2324 15.0296
116 2 6.46965 8.41342 10.7581
118 2 4.88347 7.92161 16.4636
122 2 6.06541 12.4458 12.521
362 2 5.07443 12.974 14.1571
193 2 6.14044 12.8139 9.64493
175 2 3.19712 12.6906 12.8278
173 2 3.03394 13.0711 10.9173
194 2 4.22873 12.7433 9.52815
61 4 6.36931 7.15075 15.9935
196 2 3.23086 11.5011 11.5724
197 2 4.10121 9.78969 12.1604
198 2 3.5875 12.18 15.0962
199 2 3.91402 10.3675 14.3468
200 2 5.45677 11.4658 14.9404
363 2 8.49251 12.2073 14.7118
271 3 9.80572 7.739 10.8543
169 2 1.70256 13.5201 13.7077
274 3 7.05862 8.3491 15.2175
275 3 8.44138 8.25707 12.9641
276 3 9.3891 9.86044 15.1175
277 3 3.47119 8.61591 16.5753
278 3 5.49262 10.8229 17.5084
279 3 2.97677 11.4987 17.4175
280 3 8.37123 11.6944 11.5141
281 3 6.45084 10.1301 10.7546
282 3 7.07265 10.4234 13.5138
328 1 9.29489 10.3848 9.34606
330 2 9.49411 9.45221 9.96585
342 1 7.87435 12.5979 16.9884
343 2 6.99124 12.6216 16.2218
344 2 8.80644 11.9463 16.6936
303 3 9.18734 7.87323 18.1521
ITEM: TIMESTEP
100
ITEM: NUMBER OF ATOMS
365
ITEM: BOX BOUNDS xy xz yz pp pp pp
-7.7317999999999998e+00 1.5746722000000000e+01 -7.7317999999999998e+00
-1.3819999999999999e-01 1.3846299999999999e+01 4.2952199999999996e-01
0.0000000000000000e+00 1.8322199999999999e+01 -1.3819999999999999e-01
ITEM: ATOMS id type x y z
7 4 1.02912 3.20143 0.239473
8 2 2.03991 2.20951 1.27773
9 2 1.4301 4.64132 0.903588
10 3 -0.466767 2.85777 0.52665
11 4 2.97762 0.524008 8.82749
13 4 1.43078 2.54645 6.91645
347 2 -2.78201 5.79886 1.09365
29 4 6.67149 0.696285 2.47275
30 4 2.87608 3.02283 4.25237
31 4 5.19037 2.83596 0.832637
37 4 4.63227 5.11463 2.73685
68 1 -2.17397 5.99895 4.89141
69 1 -0.582343 6.4529 7.58843
74 1 2.63018 1.42155 2.95644
75 1 5.1968 2.27253 6.14248
77 1 2.04711 6.78345 3.72136
107 2 3.64157 6.53586 2.57352
102 2 1.36351 2.57143 3.15742
131 2 -1.15406 5.43053 7.17277
109 2 3.08383 5.91702 5.2082
126 2 -1.38816 5.21241 4.55441
127 2 -2.44358 6.80307 4.05961
161 2 2.74678 5.47427 9.07877
130 2 0.622759 6.38511 7.53528
142 2 3.06267 1.16197 1.96521
143 2 2.12908 0.491768 3.31424
144 2 3.97725 1.44552 3.9674
145 2 4.95253 1.28432 6.66962
146 2 5.27353 2.22846 4.98858
147 2 4.60157 3.14647 6.55447
151 2 1.59367 6.03493 4.43683
96 2 -1.16261 5.28366 9.06177
153 2 1.88669 6.46118 2.62636
319 2 -1.44461 3.72703 4.72204
201 3 0.167514 1.7041 6.04594
202 3 2.20248 1.59675 7.90502
205 3 0.657946 3.75071 7.71431
219 3 2.33364 3.14036 5.69652
220 3 5.43955 1.60468 1.92074
226 3 3.67982 4.1669 3.63896
227 3 4.70176 4.31721 1.33667
14 4 0.50164 2.56216 12.8991
346 2 -1.1942 3.83936 16.3988
19 4 -1.1962 5.07693 13.7321
33 4 3.81085 2.9158 10.2879
35 4 3.76074 2.64186 16.6792
40 4 1.25385 6.2965 10.7773
42 4 5.04614 4.70074 14.7091
43 4 0.538669 6.05638 16.155
99 2 4.68026 0.0866381 17.2989
67 1 0.621802 1.52588 14.5318
76 1 3.61796 1.5691 15.1663
358 2 5.86261 0.61309 13.1874
204 3 -0.82839 2.62962 9.6254
103 2 2.20064 3.36408 10.6358
104 2 2.07024 2.57589 13.5848
110 2 1.25505 4.59401 16.5016
123 2 1.05589 0.384883 14.3829
15 4 -2.02583 6.35364 17.867
125 2 1.15494 2.19564 15.3606
148 2 2.72868 0.884948 15.1521
149 2 4.60319 0.928792 15.2913
150 2 3.66188 2.15433 14.1812
237 3 -0.486577 6.38017 17.3745
203 3 0.215878 1.55581 11.7823
80 1 2.28867 6.54495 9.24486
206 3 -0.339063 3.85496 13.2568
44 4 3.63915 6.63919 12.9087
209 3 -1.59055 6.09486 12.5544
221 3 3.84779 1.27296 9.9565
223 3 4.42024 1.68467 17.8287
224 3 1.88991 3.06001 17.1046
225 3 4.5632 3.0034 11.6834
231 3 0.981427 4.39068 10.2989
234 3 4.43976 4.08443 16.1828
16 4 -0.0506904 3.92803 9.20641
236 3 -0.38412 5.6782 14.9232
238 3 2.29385 6.47496 11.9266
239 3 3.80657 5.26676 13.7615
284 2 -0.323999 1.55378 16.2677
229 3 4.42232 3.95149 9.30276
106 2 6.91108 1.69185 12.1119
356 2 5.555 0.273705 11.2344
235 3 5.93883 3.23268 13.9341
36 4 5.97101 3.12136 12.4311
359 2 7.58305 0.497462 14.2537
124 2 -0.559269 1.57377 14.6542
345 2 0.119129 0.141519 9.5988
18 4 -1.29365 7.35179 6.02132
23 4 -2.92689 9.32166 7.78266
25 4 -3.91621 12.2155 6.73272
38 4 1.18278 8.42148 4.36473
45 4 0.172504 9.06526 1.29543
46 4 -1.56758 12.1733 4.58411
70 1 -5.60823 12.604 5.93108
78 1 1.52846 8.1161 0.539989
79 1 -1.98255 10.6865 3.5048
111 2 -1.44349 8.39019 1.16651
353 2 -5.15745 10.5222 8.49985
108 2 2.17399 9.36846 5.35224
133 2 -6.19006 11.7187 6.44104
156 2 2.28611 8.07052 1.37215
132 2 -5.57784 12.3763 4.78817
152 2 3.09924 7.28954 4.0518
157 2 -0.979262 10.2085 3.26742
158 2 -2.36105 11.2812 2.5762
159 2 -2.72928 10.0357 3.93501
348 2 -4.79468 9.39248 4.40345
210 3 -3.78805 8.27659 8.85611
211 3 -2.44173 8.32695 6.62344
213 3 -3.96605 10.4874 7.16411
214 3 -3.7339 13.3189 7.94358
228 3 0.0576078 7.78607 5.25964
240 3 0.648336 9.11705 3.03407
241 3 -1.34991 13.4293 3.64308
242 3 -2.82354 12.3672 5.61841
243 3 0.1401 10.4172 0.454576
245 3 -1.63215 9.96334 8.50885
246 3 -0.561846 12.6177 8.68668
247 3 0.0360975 11.761 5.32456
155 2 0.90682 7.11745 0.31342
322 2 -3.57867 8.20777 0.96856
112 2 -0.491933 13.666 1.09826
324 1 -5.55329 11.9377 2.7899
325 2 -5.87963 11.8409 1.64523
326 2 -4.39966 11.828 2.92953
327 2 -5.91182 12.9652 3.15915
113 2 1.84171 8.44587 8.85158
354 2 -5.93644 13.6478 6.20136
338 2 0.638083 12.5428 2.09585
129 2 -1.06068 6.86755 8.54714
160 2 1.68938 6.94789 8.26308
251 3 3.41147 8.02053 13.8587
21 4 -1.32484 7.48158 11.8398
22 4 -2.68777 12.4492 16.6849
24 4 -5.76152 12.0038 10.5258
26 4 -1.02577 9.78528 14.072
27 4 -4.79478 10.8867 14.9424
28 4 -2.96534 12.4339 12.7236
252 3 0.482462 10.7307 14.5912
232 3 -0.0325541 7.27045 10.6277
51 4 2.54939 8.22175 15.242
52 4 0.101907 12.3016 15.4838
72 1 -1.57701 8.89454 15.5631
81 1 -0.255022 10.6219 10.673
191 2 -5.50641 12.343 13.2148
92 1 -5.7865 12.4318 14.3585
115 2 1.5187 9.57668 14.8953
254 3 -1.42814 12.6762 15.7102
100 2 -3.7449 10.2582 13.7732
101 2 -4.04532 13.2431 13.8025
114 2 -2.92383 11.7493 10.2022
136 2 -3.22351 7.80074 14.8063
137 2 -0.845804 9.18262 16.395
138 2 -1.60541 7.76913 15.3866
139 2 -2.59579 9.40287 15.7295
154 2 2.48271 8.30446 17.8613
98 2 -2.13526 11.7052 18.0851
163 2 -0.00792437 9.5807 10.3094
164 2 -1.09853 10.6143 11.5058
165 2 0.640866 11.3544 10.8283
190 2 -5.45363 13.3686 14.8574
49 4 -1.4208 11.3347 9.36672
208 3 -2.74956 8.02654 11.2348
212 3 -6.06058 13.2797 9.56229
215 3 -0.748464 8.67483 12.8836
216 3 -3.9252 11.6956 16.1546
217 3 -4.09645 11.9909 11.2376
218 3 -2.30972 11.0805 13.3649
357 2 -0.699794 13.2916 12.1861
253 3 0.705604 12.4479 16.9728
250 3 1.67801 7.06878 15.8284
352 2 -1.96651 9.14911 18.2839
17 4 -3.90656 7.4379 10.1951
162 2 3.04591 7.30639 9.62925
323 2 -3.30775 8.20337 17.3854
82 1 -1.73274 13.7346 12.2207
321 1 -2.55954 8.18959 18.297
1 4 14.1946 1.17459 5.28161
349 2 14.366 1.3942 1.35122
350 2 10.6288 1.05188 1.20716
4 2 12.4924 1.01396 6.79145
6 3 14.2042 0.345386 3.90826
318 1 13.2372 2.83233 4.65686
34 4 6.91707 2.84587 6.66571
39 4 5.50401 4.95039 8.51927
286 4 13.8839 0.0458051 2.30263
53 4 8.5896 2.68247 3.85408
55 4 9.78177 4.64622 1.59387
56 4 6.6291 6.64855 4.33436
59 4 9.15993 6.36224 6.21093
85 1 10.1674 1.71703 4.35152
88 1 11.0054 5.91806 2.35415
90 1 10.377 4.78809 6.155
41 4 4.29365 6.66715 6.24817
170 2 11.2889 2.20107 4.46415
171 2 10.1674 0.919926 3.53772
172 2 9.7877 1.2885 5.37675
178 2 10.6785 6.44069 3.32984
179 2 10.9456 6.69641 1.37696
180 2 12.01 5.29617 2.45736
184 2 10.7258 4.36131 5.23729
185 2 9.46093 4.11956 6.46137
186 2 11.1474 4.75297 6.90909
316 2 9.6183 3.17905 8.74863
222 3 7.57696 1.36849 7.33277
230 3 6.87888 4.02476 7.95286
336 2 8.95026 0.154926 1.0701
255 3 7.76193 1.70025 2.8925
256 3 7.73111 3.20626 5.23524
258 3 9.12958 4.05206 2.98082
259 3 10.6255 3.60285 0.76719
260 3 5.9997 5.58127 3.30464
263 3 8.4544 5.33582 0.589033
266 3 7.92346 6.33258 5.22957
189 2 8.94724 6.40897 8.47449
128 2 12.1778 5.55353 5.33355
320 2 12.5338 2.81049 5.54679
341 2 11.8698 1.3096 2.34582
351 2 12.8787 2.50686 3.66253
339 1 11.9838 0.112323 2.3003
313 2 12.3188 3.71593 8.67797
334 2 7.44252 3.99864 0.139904
308 4 10.9085 2.29443 0.0656445
32 4 8.14587 0.00234959 7.93529
2 1 13.1008 0.0280542 6.42747
333 2 7.36021 2.05757 0.252992
233 3 4.75597 5.4958 7.24897
12 4 14.6143 1.27105 10.4777
20 4 11.0385 5.68372 15.7132
97 2 12.6433 4.31925 14.2725
54 4 12.071 0.746388 12.2281
57 4 8.74823 6.33124 17.5879
60 4 10.3508 3.09844 13.6868
135 2 11.6722 6.31004 13.5862
73 1 9.08189 0.597969 9.49757
84 1 8.58312 0.0225624 14.5749
360 2 9.02901 0.552141 15.4693
105 2 6.80339 4.45639 11.7722
314 2 8.7367 4.7038 9.71316
117 2 9.42069 1.78975 14.2803
119 2 9.33138 4.15957 12.9765
120 2 10.1922 6.3695 12.8525
355 2 8.49015 0.00460452 10.3241
272 3 7.55249 6.00372 11.4753
141 2 9.10183 1.75343 9.64756
174 2 9.47361 0.159823 12.0437
317 3 11.383 5.79627 10.0594
283 4 14.2121 2.46235 17.4489
177 2 12.6825 0.953289 14.3953
257 3 13.1562 0.699509 10.9186
262 3 9.66884 5.87374 16.3854
264 3 5.89596 6.30854 9.45093
365 3 12.7352 1.97201 17.7683
267 3 11.3323 2.53928 12.6195
268 3 11.2372 3.87427 14.8648
269 3 6.14184 5.82016 14.8778
315 2 9.31257 3.22392 10.7708
331 1 7.26285 2.90401 18.1925
332 2 6.90402 2.86637 17.1082
312 2 11.7961 3.42643 11.304
309 2 10.1623 1.73343 17.2863
310 4 11.3031 4.2223 9.89988
311 1 9.44716 3.80393 9.77867
87 1 13.0164 0.0339169 13.6882
270 3 7.16061 6.60379 17.1026
207 3 12.3073 5.81638 16.7746
140 2 10.1101 0.137949 9.27119
176 2 14.1213 -0.0299066 13.4217
265 3 4.98709 6.83137 11.9348
364 2 15.3045 0.000893557 17.6726
3 2 4.66788 13.1267 5.79796
48 4 3.01519 9.00622 7.73671
50 4 1.52941 11.8693 5.99027
83 1 2.68345 12.3207 4.58678
89 1 10.3627 7.6087 5.02739
91 1 8.6496 7.3396 7.78805
121 2 7.1842 7.9789 3.34996
187 2 7.52536 7.52659 7.93772
166 2 2.11947 13.2128 4.15291
167 2 2.55981 11.3538 3.9211
168 2 3.83297 12.5974 4.81326
181 2 9.7425 7.84491 4.07014
248 3 2.31213 10.2187 6.71575
183 2 10.178 8.38355 5.95361
329 2 8.34754 10.6424 9.02574
188 2 9.29357 8.32202 8.0224
192 2 5.33753 12.4155 8.22468
361 2 3.73379 13.3986 3.1949
244 3 3.46332 7.80616 6.90231
340 2 4.11334 13.4768 1.261
249 3 1.62996 12.9919 7.06265
261 3 5.39192 7.25208 5.2077
273 3 4.29133 9.51338 8.67628
285 4 9.28203 10.2676 3.47426
337 2 2.42459 12.6234 1.59423
287 4 8.05474 9.11522 0.784138
5 2 5.82695 13.454 7.40255
289 4 6.64057 10.6739 5.32902
290 1 6.44027 8.46346 1.60501
291 1 5.16856 10.3098 4.00159
292 1 6.69094 9.7126 6.87011
293 2 6.42036 12.3684 5.75654
294 2 6.66049 7.34546 1.78568
295 2 5.83728 8.60702 0.574208
296 2 5.98518 9.16834 2.57465
297 2 4.19188 10.9866 4.25621
298 2 5.05577 9.17076 4.00875
299 2 5.724 10.6634 3.09061
300 2 6.76187 10.6254 7.58814
301 2 7.4594 8.8402 7.16615
302 2 5.63835 9.24157 6.76484
335 1 1.3242 12.9129 1.36884
304 3 8.88341 9.40597 2.23835
305 3 7.65029 10.6842 0.0830227
306 3 6.32498 12.5891 1.40799
307 3 8.00294 10.4509 4.40862
182 2 11.4356 7.03435 4.95369
288 4 6.96672 11.6697 18.22
62 4 8.99443 7.16756 11.9592
63 4 4.78451 10.4178 9.91213
64 4 8.0582 9.18967 14.2332
65 4 4.22537 10.5943 16.715
66 4 7.03488 11.0969 12.0757
195 2 2.52171 9.88062 10.9464
134 2 10.2916 7.5303 14.2061
86 1 2.74685 13.5242 11.9029
94 1 3.39196 10.4187 11.2827
95 1 4.19894 11.1869 14.9942
116 2 6.6854 8.49807 10.5941
118 2 4.86952 7.86929 16.3891
122 2 6.04564 12.3764 12.5755
362 2 4.92816 12.8908 14.1112
193 2 6.33408 12.3232 9.75546
175 2 3.07273 12.8107 12.834
173 2 2.77056 13.0532 10.8709
194 2 4.5801 12.7864 9.85724
61 4 6.38346 7.18628 15.9093
196 2 3.11615 11.5199 11.4921
197 2 3.79995 9.95062 12.2077
198 2 3.70501 12.2581 15.1492
199 2 3.66101 10.5765 14.2216
200 2 5.36459 11.2742 14.832
363 2 8.42663 12.0862 14.6927
271 3 9.70193 7.95066 10.76
169 2 1.5815 13.7041 13.5745
274 3 7.09708 8.31433 15.1411
275 3 8.62156 8.19774 13.0453
276 3 9.35881 9.85411 15.2324
277 3 3.53859 8.70649 16.4835
278 3 5.53631 10.9837 17.5165
279 3 2.95255 11.252 17.4905
280 3 8.38498 11.7243 11.5738
281 3 6.15058 10.068 10.8542
282 3 7.19001 10.4075 13.5156
328 1 9.40029 10.4999 9.38526
330 2 9.49133 9.52371 9.99949
342 1 7.53362 12.97 16.9775
343 2 6.70898 13.0086 16.2009
344 2 8.55195 12.5877 16.5933
303 3 9.24426 7.86896 18.2391
93 1 5.3173 12.1877 9.33565
47 4 1.50112 11.6558 18.1634
71 1 11.2592 7.02294 14.4109
58 4 6.28879 6.86385 10.9287
ITEM: TIMESTEP
200
ITEM: NUMBER OF ATOMS
365
ITEM: BOX BOUNDS xy xz yz pp pp pp
-7.7317999999999998e+00 1.5746722000000000e+01 -7.7317999999999998e+00
-1.3819999999999999e-01 1.3846299999999999e+01 4.2952199999999996e-01
0.0000000000000000e+00 1.8322199999999999e+01 -1.3819999999999999e-01
ITEM: ATOMS id type x y z
7 4 0.947779 3.24813 0.359106
8 2 2.07007 2.2381 1.26017
9 2 0.965509 4.74075 1.09574
10 3 -0.618116 2.75207 0.384781
11 4 2.88348 0.452353 8.77092
13 4 1.32848 2.60165 6.79902
347 2 -2.63853 5.81548 1.05741
29 4 6.78383 0.732567 2.50022
30 4 2.80177 3.10161 4.25577
31 4 5.31517 2.62333 0.768417
37 4 4.67853 4.98428 2.58166
68 1 -2.09455 5.8335 4.84854
69 1 -0.703537 6.46763 7.57935
74 1 2.41827 1.40143 2.98753
75 1 5.19913 2.20122 6.39423
77 1 2.23761 6.75852 3.60318
107 2 3.65214 6.3441 2.292
102 2 1.38041 2.69786 3.09108
131 2 -0.956869 5.40307 7.18125
109 2 3.08364 6.00129 5.22301
126 2 -1.30553 5.00889 4.72716
127 2 -2.20396 6.46036 3.8378
161 2 2.23631 5.64168 8.77043
130 2 0.367529 6.52933 7.97299
142 2 2.97918 1.33097 2.01426
143 2 1.74555 0.484898 3.17602
144 2 3.65331 1.30423 4.04598
145 2 5.15645 1.08281 6.53979
146 2 5.30029 2.4803 5.24957
147 2 4.44876 2.81273 6.96018
151 2 1.6403 6.07116 4.32349
96 2 -1.27801 5.18654 8.95941
80 1 2.11852 6.72574 9.07503
319 2 -1.50451 3.64254 4.37073
201 3 0.0329932 1.9105 5.96468
202 3 2.05927 1.40169 7.60575
205 3 0.698655 3.75663 7.80059
219 3 2.39796 3.26965 5.70891
220 3 5.41964 1.49745 2.00587
226 3 3.74086 4.16998 3.54358
227 3 4.79593 4.06215 1.27609
153 2 1.94477 6.76124 2.45388
233 3 4.63946 5.63044 7.36433
129 2 -1.36501 6.84831 8.34048
14 4 0.445321 2.39734 13.007
346 2 -1.36458 3.98464 16.6843
19 4 -1.03929 5.10787 13.6374
33 4 3.87432 2.90645 10.2715
35 4 3.69523 2.74243 16.6388
40 4 1.2577 6.41265 10.7327
42 4 5.04366 4.75051 14.6458
43 4 0.577289 6.06084 16.1038
99 2 4.54124 0.152216 17.2405
67 1 0.512601 1.41857 14.6875
76 1 3.7509 1.59965 15.1348
358 2 6.0511 0.398811 13.0131
204 3 -1.09446 2.70503 9.5133
103 2 2.30663 3.73827 10.451
104 2 2.03381 2.21496 13.7562
110 2 1.5196 4.74999 16.573
123 2 0.969636 0.387984 14.6101
15 4 -1.99868 6.36401 17.7451
125 2 0.928488 2.02959 15.6119
148 2 2.75114 1.02435 15.2383
149 2 4.67783 0.986919 15.4611
150 2 3.92646 2.09826 14.1188
237 3 -0.450199 6.19386 17.3659
203 3 0.246545 1.59645 11.6764
16 4 -0.0713396 3.9636 9.23189
206 3 -0.161288 3.80332 13.2269
44 4 3.62962 6.76223 12.8634
209 3 -1.53841 5.98531 12.496
221 3 3.69547 1.39895 9.79345
223 3 4.44564 1.79928 17.7389
224 3 1.89534 3.22818 17.2492
225 3 4.47772 3.10565 11.6911
231 3 0.930118 4.44111 10.3667
234 3 4.45755 4.10185 16.2006
36 4 5.96348 3.11228 12.3723
236 3 -0.357542 5.82719 14.8983
238 3 2.28109 6.67098 11.8637
239 3 3.76022 5.44033 13.77
235 3 5.84079 3.36465 13.8646
229 3 4.72606 3.79308 9.24032
106 2 6.82948 1.60642 12.0271
356 2 5.69015 0.234791 11.0855
18 4 -1.28859 7.2481 5.91377
23 4 -2.95016 9.27073 7.70978
25 4 -3.84872 12.1692 6.7415
38 4 1.27419 8.35762 4.27741
45 4 0.308777 9.01165 1.34438
46 4 -1.32758 12.0764 4.60843
70 1 -5.51321 12.4832 6.02865
78 1 1.68168 8.14282 0.498474
79 1 -1.8559 10.5934 3.60464
111 2 -1.07763 8.00284 1.09477
353 2 -5.19971 10.3214 8.69102
108 2 2.04253 9.33734 5.44094
133 2 -6.12244 11.5594 6.4888
156 2 2.40606 8.0561 1.40785
132 2 -5.39449 12.4013 4.8689
152 2 3.22554 7.23863 3.91206
157 2 -1.32362 9.75282 4.07192
158 2 -1.50016 11.0567 2.52553
159 2 -3.00899 10.4844 3.66223
348 2 -4.75413 9.44726 4.46562
210 3 -3.7488 8.13865 8.77213
211 3 -2.31111 8.3758 6.33003
213 3 -4.02296 10.3028 7.33761
214 3 -3.84454 13.2039 7.97573
228 3 0.0260725 7.67577 5.0232
240 3 0.944704 9.11821 2.87292
241 3 -1.09197 13.2822 3.5276
242 3 -2.67102 12.3214 5.62367
243 3 0.0571683 10.4308 0.425201
245 3 -1.80894 10.1091 8.40666
246 3 -0.57436 12.6036 8.82824
247 3 0.14718 11.5893 5.51556
155 2 1.08638 7.09942 0.420417
322 2 -2.9425 8.291 1.14172
112 2 -0.280159 13.7842 1.09877
324 1 -5.25212 11.9235 2.94913
325 2 -5.07353 11.6119 1.79314
326 2 -4.22643 11.7766 3.54626
327 2 -5.82525 12.9427 3.10828
113 2 1.87376 8.6284 8.78773
354 2 -5.9567 13.5168 6.44486
338 2 0.616328 12.2995 2.08401
182 2 -3.77003 7.0227 4.98334
160 2 1.5307 7.24861 8.24087
321 1 -2.73193 8.28512 0.0323157
251 3 3.38629 8.07371 13.8949
21 4 -1.35477 7.43773 11.8055
22 4 -2.64533 12.4595 16.7356
24 4 -5.76739 12.0442 10.4521
26 4 -1.01748 9.90085 14.0486
27 4 -4.70303 10.9646 15.0944
28 4 -3.04529 12.4451 12.5499
252 3 0.305458 10.7431 14.5597
232 3 -0.203385 7.28926 10.641
51 4 2.54808 8.32489 15.2421
52 4 0.124305 12.4648 15.4861
72 1 -1.73144 9.05798 15.5723
81 1 -0.434221 10.6087 10.7631
191 2 -5.82936 12.8055 13.3893
92 1 -5.65295 12.5066 14.4477
115 2 1.55748 9.68616 14.8575
254 3 -1.41479 12.7617 15.7712
100 2 -3.64611 10.2739 14.0102
101 2 -3.91604 13.2382 13.8293
114 2 -2.91385 11.8766 10.1041
136 2 -3.0582 7.72239 14.8007
137 2 -1.05432 9.55124 16.442
138 2 -1.43985 7.94966 15.4674
139 2 -2.80817 9.26706 15.7275
154 2 2.65174 8.34097 17.8364
98 2 -2.01636 12.0447 18.2138
163 2 0.00520935 9.66593 10.3849
164 2 -1.30216 10.529 11.4817
165 2 0.297602 11.3979 10.9948
190 2 -5.19097 13.3412 15.1462
49 4 -1.46119 11.3699 9.27342
208 3 -2.78043 7.85695 11.2126
212 3 -6.1932 13.3386 9.55124
215 3 -1.00061 8.68791 13.0719
216 3 -3.78571 11.4668 16.3218
217 3 -3.96708 12.2208 11.2857
218 3 -2.32861 11.1018 13.3153
357 2 -0.653887 13.0556 11.888
253 3 0.915104 12.5026 16.8785
250 3 1.54639 7.24797 15.7657
352 2 -1.37957 8.72791 18.0194
82 1 -1.63821 13.6286 12.0511
162 2 3.14684 7.22408 9.59419
323 2 -3.25839 8.33261 17.7115
47 4 1.49276 11.4333 18.2096
1 4 14.0762 1.29961 5.26188
349 2 14.3226 1.46158 1.5475
350 2 10.6722 1.05242 1.32395
4 2 12.4858 1.00836 6.89559
6 3 14.3599 0.271495 3.782
318 1 13.0328 2.76964 4.72247
34 4 6.98806 2.64143 6.85425
39 4 5.55767 4.90416 8.47674
286 4 13.808 0.042431 2.39088
53 4 8.66733 2.81267 3.93067
55 4 9.89656 4.62734 1.56188
56 4 6.49299 6.68209 4.30122
59 4 9.22513 6.40636 6.04036
85 1 10.0414 1.67337 4.60943
88 1 11.1117 5.97537 2.23405
90 1 10.3838 4.71452 6.05142
41 4 4.19823 6.71678 6.3142
170 2 11.1418 2.08526 4.67895
171 2 9.94667 0.769063 3.90495
172 2 9.59012 1.44245 5.6397
178 2 10.8116 6.5527 3.22334
179 2 11.0647 6.626 1.27001
180 2 12.0594 5.42265 2.41219
184 2 10.775 4.52043 4.96811
185 2 9.69036 3.89875 6.47321
186 2 11.2077 4.95672 6.86017
316 2 9.32777 3.3726 8.76605
222 3 7.39945 1.22979 7.53587
230 3 6.72404 4.0218 7.79645
2 1 12.9806 0.117436 6.37333
255 3 7.88078 1.71712 3.00722
256 3 7.88071 3.03555 5.40853
258 3 9.39982 3.94051 2.93049
259 3 10.5968 3.64994 0.609117
260 3 5.87881 5.64594 3.2929
263 3 8.49257 5.40803 0.647432
266 3 7.88645 6.33157 5.1342
189 2 9.35692 6.3703 8.31949
128 2 12.173 5.43759 5.24228
320 2 12.3804 3.03821 5.60789
341 2 11.8726 1.18724 2.61205
351 2 12.4364 2.44985 3.78739
32 4 8.16971 -0.033425 8.22537
313 2 11.9637 3.61309 8.70657
334 2 7.47911 3.9438 0.063841
308 4 10.8629 2.20579 0.0491127
333 2 7.63337 2.03426 0.0266209
12 4 14.5473 1.427 10.409
20 4 10.8983 5.69458 15.7231
97 2 12.7246 4.51029 14.1815
54 4 12.0225 0.776912 12.1565
57 4 8.72893 6.3843 17.7611
60 4 10.4515 3.10802 13.7145
135 2 11.6552 6.20458 13.4803
73 1 9.11749 0.712268 9.63248
84 1 8.7536 0.142551 14.7166
360 2 9.34081 0.561152 15.598
105 2 6.84865 4.27639 11.6252
314 2 8.65182 4.93315 9.57671
117 2 9.82056 1.81367 14.6252
119 2 9.06838 3.72552 13.184
120 2 10.0529 6.24673 13.0253
355 2 8.73684 0.248371 10.5906
272 3 7.64594 6.0031 11.6778