ITEM: TIMESTEP
0
ITEM: NUMBER OF ATOMS
365
ITEM: BOX BOUNDS xy xz yz pp pp pp
-7.7317999999999998e+00 1.5563499999999999e+01 -7.7317999999999998e+00
0.0000000000000000e+00 1.3891321999999999e+01 2.4629999999999999e-01
0.0000000000000000e+00 1.8322199999999999e+01 4.5022000000000006e-02
ITEM: ATOMS id type x y z
7 4 1.00271 3.21578 0.215362
8 2 2.07208 2.13731 1.23203
9 2 1.5266 4.6539 0.868497
10 3 -0.430643 2.99044 0.754763
11 4 2.95482 0.671587 8.85202
13 4 1.27856 2.44489 6.97153
347 2 -2.9366 6.06484 1.01243
29 4 6.53524 0.762496 2.43658
30 4 2.74046 2.98298 4.20073
31 4 5.17202 2.87006 0.694895
37 4 4.57779 5.0992 2.76574
68 1 -2.34399 6.03773 4.90119
69 1 -0.742574 6.36233 7.519
74 1 2.34392 1.38449 2.95422
75 1 5.21347 2.48429 6.11192
129 2 -1.15907 6.92142 8.47499
107 2 3.5064 6.41952 2.56174
102 2 1.36043 2.7609 2.81532
131 2 -1.23514 5.30297 7.22876
109 2 3.02233 6.05167 5.03872
126 2 -1.58837 5.18855 4.81653
127 2 -2.51456 6.47702 3.87601
161 2 2.53182 5.46755 8.96894
130 2 0.44779 6.22805 7.61967
142 2 2.92405 1.22493 2.01795
143 2 1.59668 0.560672 3.19211
144 2 3.66919 1.37079 4.12812
145 2 5.07836 1.38143 6.45161
146 2 5.30464 2.56297 4.93504
147 2 4.51124 3.23734 6.55634
151 2 1.45341 6.19579 4.44141
96 2 -1.28086 5.0561 8.88513
153 2 1.77738 6.67293 2.49272
319 2 -1.35695 3.81598 5.12141
201 3 0.0363461 1.45642 6.33526
202 3 2.167 1.64643 7.92894
205 3 0.740292 3.82345 7.77785
219 3 2.07121 2.98533 5.60085
220 3 5.34782 1.78401 1.91358
226 3 3.85318 4.06771 3.71275
227 3 4.68715 4.40939 1.32355
80 1 2.07541 6.6402 9.08131
233 3 4.60023 5.53119 7.07915
354 2 1.87279 0.0656019 6.22289
160 2 1.54709 6.89734 8.09425
77 1 1.90176 6.9314 3.65159
14 4 0.31343 2.67389 12.9103
346 2 -1.24919 3.84983 16.2
19 4 -1.35646 5.14303 13.7029
33 4 3.83748 3.15703 10.3508
35 4 3.52783 2.85269 16.6331
40 4 1.22974 6.29 10.715
42 4 4.93486 4.77121 14.7948
43 4 0.297128 6.16715 16.102
99 2 4.31383 0.411873 17.2823
67 1 0.422495 1.73322 14.6775
76 1 3.89101 1.49345 15.3248
358 2 5.65339 0.695933 13.0717
204 3 -1.04903 2.549 9.49027
103 2 2.14434 3.63194 10.5621
104 2 1.86005 2.7132 13.7867
110 2 1.15268 4.73607 16.2497
123 2 0.830632 0.664084 14.5789
15 4 -2.16855 6.65838 17.7529
125 2 0.819774 2.31618 15.6475
148 2 3.10667 0.635793 15.4816
149 2 4.91875 1.15606 15.4306
150 2 3.7424 2.06015 14.3849
237 3 -0.51903 6.49053 17.521
203 3 0.324377 1.76983 11.6542
283 4 -1.18766 2.71658 17.454
206 3 -0.532117 4.0326 13.0487
44 4 3.40887 6.62726 13.0276
209 3 -1.62951 6.36304 12.7903
221 3 3.75774 1.58443 9.89184
223 3 4.12136 2.02913 17.8031
224 3 1.60131 3.20081 17.0577
225 3 4.69594 3.34359 11.7299
231 3 0.809163 4.36077 10.5178
234 3 4.41452 4.13495 16.2863
16 4 -0.114713 3.85022 9.24171
236 3 -0.688841 5.64951 15.0278
238 3 2.20696 6.56641 11.994
239 3 3.5615 5.27586 13.8822
345 2 0.145398 0.162072 9.52757
229 3 4.51016 4.05183 9.32996
106 2 6.78815 1.75081 12.0607
356 2 6.18386 0.407909 11.2622
235 3 5.89729 3.41221 13.9529
18 4 -1.41154 7.34664 6.07654
23 4 -3.0643 9.35858 7.81826
25 4 -4.06899 12.4755 6.70753
38 4 0.999948 8.51783 4.30394
45 4 0.284642 9.08634 1.30661
46 4 -1.67876 12.3986 4.46804
70 1 -5.67562 12.8501 5.90558
78 1 1.58231 7.92127 0.726341
79 1 -1.98399 10.8108 3.5111
111 2 -1.39222 8.54766 1.17824
353 2 -5.38443 10.5311 8.44665
321 1 -3.02359 8.33233 0.107089
182 2 -3.98284 7.31787 4.92462
156 2 2.33685 7.96285 1.64893
132 2 -5.7561 12.5494 4.73473
152 2 3.02722 7.53142 3.87512
157 2 -1.01026 10.2357 3.58381
158 2 -2.34124 10.9795 2.48511
159 2 -2.78003 10.3891 4.2189
348 2 -4.60371 9.54677 4.28479
210 3 -3.88185 8.44046 8.85996
211 3 -2.50221 8.45904 6.57896
213 3 -4.08795 10.6349 7.29932
214 3 -3.89912 13.5048 7.93899
228 3 -0.171794 7.90998 5.14189
240 3 0.626158 9.30012 3.01592
241 3 -1.81564 13.5982 3.4473
242 3 -2.92621 12.5029 5.57974
243 3 0.462689 10.3817 0.415315
245 3 -1.83917 10.1536 8.5699
246 3 -0.888476 12.6903 8.57416
247 3 -0.0897868 11.9279 5.26472
155 2 0.909777 6.94531 0.753059
322 2 -3.14218 8.4629 1.23513
112 2 -0.71898 13.6746 1.08611
324 1 -5.92207 12.0378 2.80558
325 2 -6.00818 11.7567 1.66256
326 2 -4.74624 12.0993 3.16721
327 2 -6.55105 12.9407 3.1459
113 2 1.64838 8.48617 8.55338
108 2 2.0206 9.44171 5.40319
133 2 -6.35523 12.1341 6.53737
338 2 0.432198 12.672 2.00074
251 3 3.27418 7.85754 14.0002
21 4 -1.33334 7.59191 11.8869
22 4 -3.01714 12.7503 16.6607
24 4 -5.92642 11.977 10.4721
26 4 -1.03621 10.0605 13.9568
27 4 -5.0178 11.1081 15.0093
28 4 -3.09265 12.5287 12.5378
252 3 0.180687 10.8615 14.6661
232 3 -0.0973748 7.11613 10.7567
51 4 2.3335 8.33598 15.2936
52 4 -0.218088 12.5868 15.49
72 1 -1.8157 9.01069 15.3147
81 1 0.0127671 11.101 10.6221
191 2 -5.94174 12.7009 13.1891
92 1 -5.92201 12.6339 14.2801
115 2 1.39203 9.74222 14.9231
254 3 -1.77163 12.9292 15.6266
100 2 -3.95868 10.5148 13.7572
101 2 -4.26018 13.3882 13.5226
114 2 -3.00554 11.7922 10.223
136 2 -3.17076 7.66303 14.6793
137 2 -1.1443 9.34146 16.1982
138 2 -1.50697 7.9709 14.8628
139 2 -2.88643 9.14227 15.4858
154 2 2.40694 8.24049 18.008
98 2 -2.59899 12.1363 18.0835
163 2 -0.0637129 10.0173 10.825
164 2 -0.226055 11.813 11.4635
165 2 0.94234 11.3665 10.093
190 2 -5.41086 13.6052 14.8043
49 4 -1.43198 11.4765 9.45259
208 3 -2.80972 8.0724 11.2508
212 3 -6.08269 13.3339 9.61635
215 3 -0.738483 8.78821 12.7822
216 3 -4.20031 11.8344 16.2169
217 3 -4.09836 12.1362 11.2447
218 3 -2.54884 11.1503 13.2791
357 2 -0.73003 13.1459 12.6244
253 3 0.322956 12.6423 17.0019
250 3 1.37269 7.20478 15.6867
352 2 -1.87349 8.93659 17.9066
17 4 -4.00031 7.67124 10.214
162 2 2.87393 7.39459 9.36832
47 4 1.27943 11.8909 18.0566
82 1 -1.71833 13.7794 12.2823
323 2 -3.81269 8.45958 17.8921
364 2 -7.33834 13.7457 17.5206
1 4 14.0839 1.19085 5.39086
349 2 14.3181 1.59771 1.47523
350 2 10.8611 0.899853 0.801542
4 2 12.1545 0.934303 6.52923
6 3 14.3303 0.219123 3.80544
318 1 13.2464 2.86381 4.94244
34 4 6.93368 2.76985 6.7617
39 4 5.3681 5.0986 8.43424
286 4 13.8324 0.159233 2.29218
53 4 8.53208 2.76958 3.82861
55 4 9.6581 4.70129 1.63831
56 4 6.5608 6.69404 4.3283
59 4 9.10935 6.66597 6.19023
85 1 10.1726 1.89782 4.46929
88 1 10.9133 6.07884 2.27805
90 1 10.278 5.01569 6.54528
41 4 4.19582 6.72094 6.10477
170 2 11.2852 2.32924 4.55231
171 2 10.1113 1.01843 3.7363
172 2 9.77572 1.61868 5.48804
178 2 10.7282 6.7183 3.26345
179 2 10.6492 6.74248 1.34384
180 2 11.9629 5.54864 2.30398
184 2 10.4367 4.40437 5.59753
185 2 9.60398 4.49559 7.28724
186 2 11.2338 5.2041 7.03234
316 2 9.70923 3.38668 8.72969
222 3 7.51141 1.45043 7.39441
230 3 6.74135 4.23613 7.92234
336 2 8.56494 0.14037 0.566856
255 3 7.74946 1.63598 2.97628
256 3 7.78673 3.00243 5.37338
258 3 8.98615 4.11978 3.03045
259 3 10.4854 3.58372 0.942233
260 3 5.94372 5.57646 3.35063
263 3 8.45175 5.45955 0.598723
266 3 7.80961 6.32534 5.42079
189 2 9.42492 6.65222 8.45611
128 2 11.846 5.6577 5.53925
320 2 12.3727 2.63725 5.79622
341 2 11.7505 1.23241 2.31895
351 2 12.7516 2.90374 3.91423
308 4 11.0409 2.40233 0.00461367
313 2 12.3999 3.53695 8.77929
334 2 7.34752 4.01458 0.0181762
140 2 10.1228 0.171394 9.02883
333 2 7.53079 2.19087 0.163438
339 1 11.9269 0.043425 2.22411
12 4 14.5806 1.29908 10.4763
20 4 10.8918 5.71007 15.6743
97 2 12.4224 4.40067 14.0534
54 4 12.0226 0.885809 12.2739
57 4 8.53471 6.5345 17.7136
60 4 10.3 3.09682 13.7905
135 2 11.4528 6.56059 13.2455
73 1 9.13116 0.644252 9.30555
36 4 6.04787 3.3084 12.4397
360 2 9.21646 0.585924 15.5005
105 2 7.20151 4.33137 11.7027
314 2 8.85331 4.58858 10.0041
117 2 9.62736 1.75943 14.6605
119 2 8.79231 3.68724 13.2194
120 2 9.81099 6.21261 13.0839
124 2 14.5181 1.76341 14.6096
272 3 7.55717 6.23352 11.5448
141 2 9.2795 1.75312 9.55787
174 2 9.4158 0.183671 12.1509
317 3 11.4466 5.95968 9.98429
359 2 7.73633 0.747895 14.3296
177 2 12.8261 1.17448 14.3951
257 3 13.1053 0.690106 11.025
262 3 9.46959 6.04443 16.2652
264 3 5.85009 6.33957 9.40371
365 3 12.7363 2.27842 17.8564
267 3 11.1663 2.63223 12.6212
268 3 10.97 4.09083 14.7813
269 3 5.89927 6.01005 14.9378
315 2 9.65495 2.99975 10.7013
331 1 7.0531 3.05035 18.1246
332 2 6.86298 2.92092 16.9706
312 2 11.6338 3.61915 11.4079
309 2 10.1815 2.22753 17.08
310 4 11.387 4.39205 9.86962
311 1 9.62325 3.78279 9.89723
87 1 13.0709 0.233161 13.7252
270 3 6.88694 6.79467 17.2944
207 3 12.1115 6.07735 16.6978
58 4 6.17595 6.82448 10.9317
176 2 14.1661 0.150283 13.4686
265 3 4.90004 6.6997 11.9101
84 1 8.60208 0.0882109 14.6632
71 1 11.2338 6.92899 14.3046
284 2 14.7421 1.46552 16.4419
355 2 8.63435 0.114662 10.1412
3 2 4.64463 13.0665 5.66144
48 4 2.945 9.19225 7.66839
50 4 1.41768 11.9193 5.88498
83 1 2.55078 12.2393 4.43204
89 1 10.2852 7.78584 4.94041
91 1 8.66482 7.45373 7.88571
121 2 7.13073 7.96136 3.31173
187 2 7.56771 7.17965 8.01734
166 2 1.87635 13.0059 3.91634
167 2 2.51878 11.1416 3.95868
168 2 3.64411 12.6168 4.72882
181 2 9.63185 7.76129 3.98501
32 4 0.328003 13.8204 7.89777
183 2 10.0865 8.68346 5.73668
2 1 5.19515 13.8476 6.32363
188 2 8.90573 8.46551 8.25453
192 2 5.12965 12.3698 8.02119
361 2 3.63632 13.2791 3.01802
244 3 3.53686 7.99049 6.87747
340 2 4.13765 13.4235 1.11123
249 3 1.46318 13.0717 6.93349
261 3 5.39924 7.38206 5.22483
273 3 4.10777 9.92703 8.64453
285 4 9.29959 10.2888 3.48242
337 2 2.28177 13.3317 1.65425
287 4 8.04926 9.0718 0.886903
5 2 5.66881 13.4203 7.26522
289 4 6.63271 10.7659 5.25914
290 1 6.27453 8.47588 1.54992
291 1 5.18791 10.4394 3.89401
292 1 6.58734 9.68227 6.69257
293 2 6.43426 12.4937 5.63744
294 2 6.34624 7.34737 1.72588
295 2 5.79947 8.75878 0.560729
296 2 5.86765 9.16017 2.51039
297 2 4.23936 11.0596 3.96482
298 2 4.94633 9.36011 3.8542
299 2 5.81546 10.8305 3.00929
300 2 6.56964 10.5649 7.49739
301 2 7.33987 8.80991 6.9822
302 2 5.47087 9.30849 6.55574
335 1 1.24002 13.1309 1.20225
304 3 8.92902 9.28008 2.21368
305 3 7.70104 10.4153 0.202028
306 3 6.47517 12.7516 1.32653
307 3 8.08964 10.407 4.52177
248 3 2.21322 10.2909 6.72611
93 1 5.13076 12.4013 9.1588
329 2 8.13364 10.5834 9.0628
288 4 6.93422 11.658 18.2325
62 4 8.84074 7.21318 12.0745
63 4 4.78919 10.6378 9.85254
64 4 7.82942 9.28324 14.1828
65 4 3.91315 10.7355 16.7086
66 4 6.90907 11.2349 12.1341
195 2 2.6438 9.83227 10.8794
134 2 10.1746 7.50173 14.3574
86 1 2.70552 13.5505 11.9824
94 1 3.46067 10.4448 11.2655
95 1 4.17242 11.3827 15.0296
116 2 6.36207 8.521 10.7581
118 2 4.71884 8.08625 16.4636
122 2 5.9402 12.571 12.521
362 2 4.93286 13.1156 14.1571
193 2 6.04399 12.9104 9.64493
175 2 3.06884 12.8188 12.8278
173 2 2.92477 13.1802 10.9173
194 2 4.13345 12.8386 9.52815
61 4 6.20938 7.31069 15.9935
196 2 3.11514 11.6169 11.5724
197 2 3.9796 9.91129 12.1604
198 2 3.43654 12.331 15.0962
199 2 3.77056 10.511 14.3468
200 2 5.30736 11.6153 14.9404
363 2 8.34539 12.3544 14.7118
271 3 9.69718 7.84754 10.8543
169 2 1.56548 13.6572 13.7077
274 3 6.90644 8.50128 15.2175
275 3 8.31174 8.38671 12.9641
276 3 9.23793 10.0116 15.1175
277 3 3.30544 8.78166 16.5753
278 3 5.31754 10.998 17.5084
279 3 2.80259 11.6728 17.4175
280 3 8.25609 11.8095 11.5141
281 3 6.34329 10.2376 10.7546
282 3 6.93751 10.5585 13.5138
328 1 9.20143 10.4782 9.34606
330 2 9.39445 9.55187 9.96585
342 1 7.70447 12.7678 16.9884
343 2 6.82902 12.7838 16.2218
344 2 8.63951 12.1132 16.6936
303 3 9.00582 8.05475 18.1521
ITEM: TIMESTEP
100
ITEM: NUMBER OF ATOMS
365
ITEM: BOX BOUNDS xy xz yz pp pp pp
-7.7317999999999998e+00 1.5563499999999999e+01 -7.7317999999999998e+00
0.0000000000000000e+00 1.3891321999999999e+01 2.4629999999999999e-01
0.0000000000000000e+00 1.8322199999999999e+01 4.5022000000000006e-02
ITEM: ATOMS id type x y z
7 4 1.03482 3.19211 0.24622
8 2 2.05536 2.20291 1.29917
9 2 1.42215 4.64794 0.886687
10 3 -0.466321 2.85104 0.506668
11 4 2.8925 0.615994 8.83137
13 4 1.35787 2.61655 6.90526
347 2 -2.76624 5.82186 1.11949
29 4 6.64944 0.721894 2.47573
30 4 2.82239 3.06592 4.26213
31 4 5.17874 2.85848 0.833874
37 4 4.59234 5.14505 2.73455
68 1 -2.219 6.06147 4.91356
69 1 -0.646098 6.52375 7.57309
74 1 2.60522 1.45344 2.98394
75 1 5.13083 2.35854 6.14791
77 1 1.98778 6.81625 3.71158
107 2 3.59349 6.54892 2.56144
102 2 1.32844 2.63567 3.142
131 2 -1.2379 5.49759 7.13707
109 2 2.98555 6.0177 5.25796
126 2 -1.44064 5.25962 4.57442
127 2 -2.48641 6.91025 4.10385
161 2 2.68206 5.5818 9.07762
130 2 0.562062 6.4625 7.52335
142 2 3.07666 1.17625 2.0259
143 2 2.07005 0.523638 3.32343
144 2 3.93745 1.46087 4.03913
145 2 4.87569 1.36779 6.65392
146 2 5.23993 2.33588 4.9993
147 2 4.52281 3.22785 6.55969
151 2 1.55534 6.06059 4.43379
96 2 -1.23152 5.3577 9.04607
153 2 1.83182 6.47971 2.61501
319 2 -1.51586 3.82873 4.69199
201 3 0.104977 1.77029 6.04673
202 3 2.14071 1.6777 7.9032
205 3 0.571083 3.83148 7.71345
219 3 2.25228 3.22383 5.69304
220 3 5.43768 1.62714 1.91608
226 3 3.65465 4.18944 3.64013
227 3 4.67579 4.3424 1.34367
129 2 -1.11176 6.92184 8.54005
14 4 0.368832 2.70235 12.9065
346 2 -1.39253 4.04773 16.4281
19 4 -1.34291 5.21455 13.7361
33 4 3.714 2.99973 10.2829
35 4 3.58859 2.80635 16.688
40 4 1.13704 6.40523 10.7794
42 4 4.90937 4.83761 14.7123
43 4 0.373609 6.21822 16.1689
99 2 4.53073 0.258668 17.29
67 1 0.452497 1.66817 14.5419
76 1 3.47524 1.73914 15.1638
358 2 5.71101 0.675118 13.2025
204 3 -0.921585 2.71108 9.61409
103 2 2.08945 3.45716 10.5917
104 2 1.91848 2.71101 13.6251
110 2 1.10077 4.76438 16.4976
123 2 0.915429 0.494996 14.3718
15 4 -2.19676 6.5252 17.8752
125 2 0.977472 2.31953 15.3765
148 2 2.52412 1.14307 15.2076
149 2 4.35427 0.991793 15.2941
150 2 3.53773 2.29174 14.1953
237 3 -0.650809 6.56117 17.386
203 3 0.0921735 1.67866 11.8018
80 1 2.19378 6.63884 9.25794
206 3 -0.485576 3.97651 13.2691
44 4 3.49664 6.77287 12.9098
209 3 -1.71733 6.22139 12.5465
221 3 3.76353 1.34754 9.96145
223 3 4.24032 1.85743 17.8292
224 3 1.70471 3.22016 17.0948
225 3 4.43984 3.10868 11.6888
231 3 0.87562 4.48974 10.3004
234 3 4.2827 4.23042 16.1861
16 4 -0.141386 4.01423 9.18986
236 3 -0.536679 5.81676 14.9317
238 3 2.15379 6.60668 11.9218
239 3 3.66643 5.40928 13.7518
36 4 5.83917 3.24344 12.4508
229 3 4.33525 4.0309 9.29543
106 2 6.81912 1.80868 12.1328
356 2 5.49707 0.476318 11.2475
235 3 5.80998 3.37087 13.9576
284 2 -0.539901 1.74517 16.2968
359 2 7.4529 0.658769 14.2188
345 2 0.0286647 0.234237 9.64467
124 2 -0.733652 1.72526 14.6413
18 4 -1.36022 7.42696 6.01334
23 4 -3.0051 9.39278 7.79075
25 4 -3.97975 12.2923 6.74277
38 4 1.14086 8.46966 4.36298
45 4 0.156625 9.08618 1.29892
46 4 -1.62349 12.2045 4.59673
70 1 -5.68939 12.6967 5.91559
78 1 1.526 8.12562 0.558119
79 1 -2.04951 10.7267 3.5075
111 2 -1.46054 8.395 1.15553
353 2 -5.2525 10.6074 8.49335
108 2 2.13235 9.45771 5.38405
133 2 -6.27471 11.8499 6.38066
156 2 2.27218 8.09075 1.38968
132 2 -5.6282 12.4659 4.79097
152 2 3.0914 7.32332 4.03433
157 2 -1.03619 10.2469 3.25087
158 2 -2.46271 11.2886 2.59301
159 2 -2.76878 10.0546 3.96865
348 2 -4.78843 9.5066 4.41314
210 3 -3.88478 8.34508 8.85154
211 3 -2.50255 8.4156 6.62552
213 3 -4.03807 10.561 7.16356
214 3 -3.80933 13.3955 7.95226
228 3 0.000828991 7.84567 5.25547
240 3 0.613701 9.14581 3.02301
241 3 -1.38951 13.4556 3.64697
242 3 -2.8792 12.4241 5.635
243 3 0.141538 10.4254 0.455149
245 3 -1.73166 10.0431 8.52181
246 3 -0.649844 12.6916 8.67748
247 3 -0.025148 11.8096 5.33191
155 2 0.912081 7.14055 0.349009
322 2 -3.59724 8.21341 0.946373
112 2 -0.510888 13.7017 1.10419
324 1 -5.59442 11.9675 2.79216
325 2 -5.89518 11.8398 1.65647
326 2 -4.45635 11.8675 2.96561
327 2 -5.96737 13.0098 3.11746
113 2 1.75456 8.5218 8.84566
354 2 -6.0296 13.7279 6.13371
160 2 1.53175 7.00137 8.27391
251 3 3.2682 8.14913 13.8521
21 4 -1.44202 7.5951 11.8378
22 4 -2.83503 12.6261 16.6833
24 4 -5.86912 12.1171 10.5084
26 4 -1.16403 9.91876 14.0719
27 4 -4.95064 11.0301 14.95
28 4 -3.1029 12.56 12.7025
252 3 0.334611 10.8699 14.5849
232 3 -0.144182 7.38057 10.6185
51 4 2.39417 8.37325 15.2389
52 4 -0.054286 12.4601 15.4713
72 1 -1.69778 9.03229 15.5705
81 1 -0.351366 10.7369 10.6868
191 2 -5.6286 12.4368 13.2161
92 1 -5.95298 12.5547 14.3336
115 2 1.38491 9.72587 14.8748
254 3 -1.5915 12.8495 15.6798
100 2 -3.82183 10.3759 13.8027
101 2 -4.21567 13.3696 13.7313
114 2 -3.00746 11.8534 10.1992
136 2 -3.35196 7.94537 14.8409
137 2 -0.964842 9.32947 16.4041
138 2 -1.7406 7.91595 15.4147
139 2 -2.72237 9.54698 15.7315
154 2 2.29001 8.4903 17.8755
98 2 -2.2537 11.8903 18.0795
163 2 -0.0829658 9.69943 10.3069
164 2 -1.1939 10.7045 11.4985
165 2 0.539014 11.4801 10.8728
190 2 -5.59552 13.5456 14.782
49 4 -1.50724 11.4251 9.36103
208 3 -2.85626 8.14904 11.2245
212 3 -6.15891 13.3706 9.55859
215 3 -0.875834 8.80063 12.8855
216 3 -4.07237 11.8572 16.1735
217 3 -4.18056 12.1148 11.2539
218 3 -2.45878 11.2147 13.366
357 2 -0.83562 13.4113 12.2099
253 3 0.54895 12.6101 16.9539
250 3 1.51229 7.23107 15.8311
352 2 -2.14893 9.30952 18.2399
17 4 -4.01443 7.54623 10.1927
162 2 2.92505 7.41331 9.63475
323 2 -3.48636 8.34384 17.3313
82 1 -1.85818 13.8542 12.2179
321 1 -2.74758 8.36089 18.2716
1 4 14.1521 1.23107 5.27341
349 2 14.3571 1.39585 1.35174
350 2 10.5967 1.03662 1.18594
4 2 12.4561 1.05804 6.76481
6 3 14.1834 0.375286 3.90521
318 1 13.1752 2.89052 4.64114
34 4 6.85244 2.92995 6.66687
39 4 5.42054 5.01737 8.51751
286 4 13.8621 0.0647739 2.30394
53 4 8.56162 2.71278 3.85729
55 4 9.77912 4.66663 1.59165
56 4 6.56916 6.69444 4.33548
59 4 9.11798 6.43336 6.19689
85 1 10.1283 1.74523 4.36237
88 1 10.9991 5.95293 2.34903
90 1 10.3702 4.79998 6.15537
41 4 4.22942 6.73903 6.2521
170 2 11.2244 2.24206 4.45006
171 2 10.1154 0.928517 3.56538
172 2 9.75933 1.3583 5.41228
178 2 10.6387 6.49326 3.33072
179 2 10.9612 6.69674 1.37672
180 2 12.018 5.32786 2.49059
184 2 10.7639 4.37447 5.25252
185 2 9.34988 4.17538 6.41133
186 2 11.063 4.86343 7.00384
316 2 9.52727 3.27911 8.73812
222 3 7.51164 1.43818 7.322
230 3 6.80515 4.09273 7.96488
336 2 9.0174 0.167264 1.07103
255 3 7.73523 1.72092 2.90705
256 3 7.67329 3.27714 5.24042
258 3 9.11182 4.07413 2.98455
259 3 10.629 3.62596 0.778752
260 3 5.94616 5.62444 3.30632
263 3 8.47626 5.33946 0.607002
266 3 7.86715 6.37317 5.25855
189 2 8.84007 6.53366 8.51286
128 2 12.0988 5.55365 5.3579
320 2 12.4793 2.85308 5.55106
341 2 11.8703 1.31444 2.31988
351 2 12.848 2.52604 3.641
339 1 11.9626 0.12283 2.30383
313 2 12.2287 3.83248 8.69997
334 2 7.44562 4.00282 0.117644
2 1 13.0573 0.0839296 6.42267
32 4 8.07212 0.0751229 7.93003
308 4 10.9079 2.30067 0.0624406
333 2 7.3622 2.06323 0.225564
233 3 4.68939 5.56456 7.24299
12 4 14.5055 1.37936 10.4943
20 4 10.8837 5.83376 15.7164
97 2 12.4955 4.47568 14.2806
54 4 11.9479 0.863526 12.2213
57 4 8.59429 6.5158 17.5859
60 4 10.2133 3.23276 13.6807
135 2 11.5416 6.50498 13.5859
73 1 8.99754 0.685599 9.48351
84 1 8.43479 0.168455 14.5585
360 2 8.87711 0.688603 15.456
105 2 6.68588 4.58539 11.7889
314 2 8.61786 4.77551 9.71925
117 2 9.27298 1.93428 14.2681
119 2 9.20477 4.2813 12.9389
120 2 10.0586 6.50692 12.8682
355 2 8.41759 0.080906 10.3113
272 3 7.43743 6.12146 11.4874
141 2 9.01016 1.83532 9.63461
174 2 9.32361 0.197398 12.0086
317 3 11.2672 5.90228 10.071
283 4 14.0272 2.66657 17.4496
177 2 12.5622 1.09695 14.3817
257 3 13.034 0.826372 10.9089
262 3 9.51465 6.06237 16.3984
264 3 5.80201 6.39271 9.45262
365 3 12.5564 2.15649 17.7713
267 3 11.2094 2.65343 12.6288
268 3 11.0724 4.03029 14.8704
269 3 5.9926 5.96675 14.8798
315 2 9.2353 3.30122 10.7635
331 1 7.06311 3.11705 18.1917
332 2 6.67445 3.09953 17.111
312 2 11.696 3.53063 11.3095
309 2 9.9934 1.92924 17.2729
310 4 11.199 4.32786 9.90641
311 1 9.34786 3.8925 9.77988
87 1 12.9053 0.154563 13.6822
270 3 6.98969 6.769 17.1024
207 3 12.1421 5.95626 16.7718
364 2 15.1791 0.182008 17.6446
140 2 10.0305 0.227782 9.25086
176 2 14.0131 0.0781675 13.4574
3 2 4.62918 13.1351 5.83061
48 4 2.94534 9.07196 7.72806
50 4 1.46627 11.9365 5.9986
83 1 2.61887 12.4 4.60763
89 1 10.2726 7.63095 5.00237
91 1 8.60604 7.40529 7.81645
121 2 7.12885 8.02351 3.34939
187 2 7.45325 7.54586 7.80126
166 2 1.96647 13.2101 4.08147
167 2 2.58229 11.3835 4.02792
168 2 3.7422 12.7572 4.77032
181 2 9.67058 7.87835 4.01862
329 2 8.26517 10.7441 9.02993
183 2 10.1496 8.43448 5.8773
182 2 11.345 7.10277 4.93687
188 2 9.23477 8.39646 8.00652
192 2 5.29853 12.4995 8.18524
361 2 3.67507 13.4325 3.20852
244 3 3.40707 7.87577 6.89814
340 2 4.09902 13.4823 1.27781
249 3 1.56742 13.063 7.06773
261 3 5.32795 7.31349 5.20301
273 3 4.20376 9.58099 8.67527
285 4 9.23621 10.2947 3.4862
337 2 2.39245 12.5829 1.60624
287 4 8.04594 9.13273 0.799414
5 2 5.81725 13.4865 7.40476
289 4 6.59635 10.7257 5.31376
290 1 6.4113 8.48288 1.56325
291 1 5.13796 10.3308 3.96715
292 1 6.62633 9.76418 6.84701
293 2 6.37856 12.4119 5.72434
294 2 6.62392 7.34881 1.75127
295 2 5.82049 8.62936 0.561405
296 2 5.95329 9.16417 2.54969
297 2 4.25957 11.0811 4.2535
298 2 4.87058 9.22822 3.97598
299 2 5.69347 10.6142 3.04991
300 2 6.72536 10.7208 7.58848
301 2 7.42674 8.89083 7.16011
302 2 5.56369 9.30772 6.7573
335 1 1.30361 12.9276 1.36226
304 3 8.84542 9.42439 2.25521
305 3 7.65572 10.6985 0.0779505
306 3 6.32251 12.6077 1.40534
307 3 7.9504 10.5001 4.39987
248 3 2.2622 10.2707 6.72348
338 2 0.648896 12.6581 2.13707
288 4 6.79069 11.8584 18.2189
62 4 8.87209 7.29519 11.9592
63 4 4.66808 10.5236 9.9234
64 4 7.92139 9.32694 14.227
65 4 4.05374 10.7507 16.72
66 4 6.91905 11.2146 12.0596
195 2 2.42511 9.96446 10.9124
134 2 10.1689 7.69241 14.205
86 1 2.6261 13.6419 11.91
94 1 3.28022 10.5265 11.276
95 1 4.02719 11.3427 15.0062
116 2 6.55589 8.55416 10.6333
118 2 4.71417 8.05289 16.3674
122 2 5.93838 12.513 12.5511
362 2 4.79223 13.0203 14.1039
193 2 6.20273 12.4389 9.79998
175 2 2.95768 12.9464 12.844
173 2 2.71406 13.1681 10.868
194 2 4.3712 12.9356 9.82122
61 4 6.22731 7.34242 15.9032
196 2 2.99562 11.6164 11.4908
197 2 3.75126 10.0482 12.1881
198 2 3.55262 12.4151 15.1224
199 2 3.4624 10.7088 14.2648
200 2 5.20089 11.4003 14.8277
363 2 8.24021 12.3053 14.6718
271 3 9.59412 8.06415 10.756
169 2 1.43148 13.8586 13.5741
274 3 6.94946 8.45631 15.1254
275 3 8.48321 8.32834 13.0356
276 3 9.21717 9.98072 15.2393
277 3 3.36978 8.8629 16.4796
278 3 5.35584 11.1569 17.5265
279 3 2.78592 11.4154 17.4989
280 3 8.27765 11.8329 11.5483
281 3 6.05312 10.1853 10.8803
282 3 7.06431 10.5554 13.5135
328 1 9.3032 10.6026 9.37867
330 2 9.39314 9.63776 10.0033
342 1 7.35029 13.1442 16.9638
343 2 6.53461 13.2471 16.172
344 2 8.32727 12.6943 16.598
303 3 9.05628 8.04992 18.2537
47 4 1.32177 11.8347 18.1517
93 1 5.21779 12.3066 9.33114
71 1 11.1293 7.17081 14.4162
58 4 6.17632 6.99036 10.9232
265 3 4.86824 6.96586 11.9244
ITEM: TIMESTEP
200
ITEM: NUMBER OF ATOMS
365
ITEM: BOX BOUNDS xy xz yz pp pp pp
-7.7317999999999998e+00 1.5563499999999999e+01 -7.7317999999999998e+00
0.0000000000000000e+00 1.3891321999999999e+01 2.4629999999999999e-01
0.0000000000000000e+00 1.8322199999999999e+01 4.5022000000000006e-02
ITEM: ATOMS id type x y z
7 4 0.952456 3.22821 0.357665
8 2 2.02922 2.21852 1.29924
9 2 1.00506 4.69907 1.10503
10 3 -0.609179 2.76455 0.381665
11 4 2.82313 0.560655 8.75836
13 4 1.26597 2.7107 6.79944
347 2 -2.70309 5.8434 1.06973
29 4 6.78317 0.794487 2.527
30 4 2.73652 3.11466 4.2551
31 4 5.28218 2.65392 0.779733
37 4 4.61983 5.00909 2.58785
68 1 -2.12466 5.88244 4.88516
69 1 -0.76008 6.50849 7.56176
74 1 2.36173 1.48895 3.06595
75 1 5.14875 2.30098 6.3519
77 1 2.13885 6.79465 3.60306
107 2 3.62081 6.38392 2.29251
102 2 1.27793 2.62944 3.00681
131 2 -1.03665 5.48337 7.24754
109 2 3.02313 6.06082 5.20031
126 2 -1.35047 4.97942 4.68891
127 2 -2.286 6.4297 3.89912
161 2 2.15416 5.72722 8.78034
130 2 0.392719 6.54939 7.84275
142 2 2.90525 1.43734 2.08407
143 2 1.74548 0.533752 3.22544
144 2 3.59174 1.35972 4.27004
145 2 5.12988 1.20198 6.51442
146 2 5.26015 2.59899 5.22679
147 2 4.43608 2.9327 6.94564
151 2 1.67225 5.94808 4.23272
96 2 -1.37803 5.24312 8.92452
233 3 4.58181 5.69269 7.36132
319 2 -1.43622 3.69998 4.29166
201 3 -0.0195777 1.98957 5.93967
202 3 2.01157 1.5002 7.58479
205 3 0.611153 3.8363 7.80421
219 3 2.31581 3.37213 5.69827
220 3 5.41791 1.55318 2.00095
226 3 3.68457 4.17382 3.531
227 3 4.74626 4.10747 1.27446
153 2 1.89816 6.75129 2.47665
80 1 2.02722 6.83783 9.09507
14 4 0.285624 2.53392 13.0204
346 2 -1.55432 4.17893 16.6902
19 4 -1.20125 5.24672 13.6478
33 4 3.78131 2.99769 10.2795
35 4 3.54063 2.91341 16.6457
40 4 1.13947 6.51478 10.7372
42 4 4.88945 4.88281 14.6615
43 4 0.415313 6.20998 16.1132
99 2 4.37683 0.267864 17.2128
67 1 0.379769 1.58634 14.7247
76 1 3.57184 1.72671 15.1857
358 2 5.82834 0.519684 13.0686
204 3 -1.18965 2.81205 9.52511
103 2 2.21702 3.82131 10.3872
104 2 1.89208 2.35833 13.7208
110 2 1.38981 4.94411 16.5586
123 2 0.903264 0.562252 14.6685
15 4 -2.15128 6.51778 17.7815
125 2 0.769941 2.21156 15.6396
148 2 2.53062 1.15302 15.1285
149 2 4.41828 1.06385 15.4425
150 2 3.83793 2.24061 14.2043
237 3 -0.593497 6.34237 17.3917
203 3 0.0858752 1.71853 11.7096
16 4 -0.16091 4.05516 9.23106
206 3 -0.328033 3.936 13.2452
44 4 3.49466 6.89379 12.8794
209 3 -1.68233 6.12395 12.4935
221 3 3.59821 1.49664 9.80514
223 3 4.25467 1.96413 17.7313
224 3 1.72621 3.37097 17.2437
225 3 4.35158 3.22381 11.6984
231 3 0.850327 4.51996 10.3537
234 3 4.28449 4.25419 16.2204
235 3 5.68053 3.47612 13.8843
236 3 -0.534736 5.96258 14.9272
238 3 2.1344 6.77627 11.8691
239 3 3.61168 5.57378 13.753
36 4 5.83546 3.23281 12.4005
229 3 4.66994 3.86012 9.25341
106 2 6.68784 1.70853 12.0455
356 2 5.54008 0.306883 11.0587
18 4 -1.36002 7.30595 5.89937
23 4 -3.03153 9.3467 7.70829
25 4 -3.92294 12.2481 6.73172
38 4 1.21801 8.40321 4.24183
45 4 0.267075 9.0552 1.34652
46 4 -1.38502 12.1242 4.61689
70 1 -5.56694 12.588 6.00731
78 1 1.71422 8.13454 0.517476
79 1 -1.93566 10.6046 3.63332
111 2 -1.06127 8.00727 1.12014
353 2 -5.32566 10.4239 8.7335
108 2 1.99665 9.33489 5.36338
133 2 -6.23274 11.7174 6.48982
156 2 2.46227 8.04876 1.44039
132 2 -5.44888 12.457 4.82723
152 2 3.16478 7.25995 3.90628
157 2 -1.38952 9.77383 4.17248
158 2 -1.57958 11.0167 2.58548
159 2 -3.08617 10.5967 3.75048
348 2 -4.7518 9.48071 4.2884
210 3 -3.87684 8.20915 8.7438
211 3 -2.36709 8.45808 6.32919
213 3 -4.08407 10.3817 7.314
214 3 -3.91194 13.2805 7.99069
228 3 -0.0347784 7.75309 5.04571
240 3 0.879439 9.15899 2.85637
241 3 -1.13088 13.3165 3.52744
242 3 -2.72285 12.4062 5.61613
243 3 0.0184381 10.4537 0.403316
245 3 -1.89261 10.1634 8.44615
246 3 -0.646694 12.6743 8.79328
247 3 0.0909983 11.6172 5.54242
155 2 1.12114 7.12076 0.427229
322 2 -3.00282 8.27608 1.08315
182 2 -3.81263 7.0551 5.01477
324 1 -5.29423 11.983 2.91819
325 2 -5.08746 11.6614 1.78732
326 2 -4.28047 11.8792 3.5036
327 2 -5.87362 12.9963 3.08068
113 2 1.75932 8.77132 8.74993
354 2 -5.98787 13.6329 6.35133
160 2 1.31708 7.38313 8.29705
338 2 0.48709 12.554 2.17551
129 2 -1.36413 6.95546 8.33628
112 2 -0.234076 13.8214 1.1898
321 1 -2.71837 8.27011 0.00967501
251 3 3.25381 8.19706 13.8991
21 4 -1.47804 7.54363 11.7996
22 4 -2.80489 12.6216 16.705
24 4 -5.86366 12.1596 10.418
26 4 -1.14006 10.0125 14.0453
27 4 -4.82851 11.1084 15.1062
28 4 -3.16402 12.5456 12.536
252 3 0.150612 10.8709 14.5648
232 3 -0.343732 7.37998 10.6246
51 4 2.3956 8.4735 15.2444
52 4 -0.0349153 12.6185 15.4418
72 1 -1.8609 9.22317 15.5621
81 1 -0.545351 10.7297 10.7834
191 2 -5.89445 12.4282 13.4096
92 1 -5.79225 12.6755 14.5249
115 2 1.43479 9.85269 14.8467
254 3 -1.56953 12.9515 15.7293
100 2 -3.74235 10.4322 14.0056
101 2 -4.04524 13.3418 13.7986
114 2 -2.99969 11.9693 10.0934
136 2 -3.21425 7.88385 14.7928
137 2 -1.1596 9.72135 16.434
138 2 -1.58133 8.09088 15.4857
139 2 -2.95701 9.45365 15.7508
154 2 2.48662 8.51126 17.8822
98 2 -2.16879 12.177 18.1803
163 2 -0.130614 9.75642 10.4969
164 2 -1.38477 10.7232 11.5299
165 2 0.216373 11.4871 10.9791
190 2 -5.24195 13.6055 14.9184
49 4 -1.55609 11.4489 9.28331
208 3 -2.90598 7.98442 11.197
212 3 -6.297 13.4289 9.53017
215 3 -1.12747 8.83805 13.0728
216 3 -3.91395 11.6257 16.3061
217 3 -4.09261 12.3149 11.2599
218 3 -2.45058 11.2307 13.307
357 2 -0.744489 13.2205 11.9073
253 3 0.744769 12.6755 16.8314
250 3 1.38012 7.39255 15.7471
352 2 -1.5846 8.98731 18.0464
82 1 -1.74012 13.7355 12.0448
162 2 2.9887 7.33651 9.52001
323 2 -3.42687 8.44495 17.6206
47 4 1.32754 11.5848 18.165
1 4 14.0339 1.36966 5.22542
349 2 14.3071 1.47889 1.5417
350 2 10.7009 1.08054 1.30777
4 2 12.3433 1.11504 6.73913
6 3 14.3429 0.323642 3.76366
318 1 12.9886 2.85014 4.69695
34 4 6.93567 2.72239 6.82308
39 4 5.49517 4.98164 8.4966
286 4 13.798 0.0713366 2.37769
53 4 8.65689 2.82265 3.90054
55 4 9.8815 4.66365 1.60228
56 4 6.44185 6.73592 4.30611
59 4 9.13747 6.40453 5.9902
85 1 10.0192 1.71767 4.6007
88 1 11.0586 6.04304 2.25727
90 1 10.3544 4.84862 6.08005
41 4 4.13012 6.76514 6.3148
170 2 11.1041 2.16289 4.67021
171 2 9.95452 0.775405 3.95441
172 2 9.54073 1.54 5.66551
178 2 10.7751 6.61822 3.26528
179 2 11.1084 6.75328 1.35589
180 2 11.956 5.42865 2.44922
184 2 10.6094 4.72946 4.99848
185 2 9.6177 4.12485 6.46333
186 2 11.2697 4.97414 6.791
316 2 9.24537 3.48179 8.76973
222 3 7.33784 1.29415 7.5126
230 3 6.66213 4.13558 7.82484
2 1 12.9859 0.196246 6.34266
255 3 7.86063 1.77774 3.06022
256 3 7.75985 3.10766 5.52394
258 3 9.38225 3.95061 2.91839
259 3 10.6071 3.68066 0.609871
260 3 5.8207 5.67319 3.28863
263 3 8.6155 5.43106 0.684978
266 3 7.84835 6.35448 5.07564
189 2 9.27745 6.63871 8.49491
128 2 12.1469 5.50218 5.33052
320 2 12.3243 3.2753 5.49877
341 2 11.8478 1.17248 2.67239
351 2 12.393 2.4752 3.79112
308 4 10.8508 2.22545 0.0513492
313 2 11.8666 3.69482 8.76393
334 2 7.30995 3.95113 0.197141
32 4 8.11073 0.0377207 8.20712
12 4 14.4315 1.54455 10.4246
20 4 10.7594 5.85827 15.738
97 2 12.546 4.67024 14.1727
54 4 11.9047 0.888209 12.1435
57 4 8.59 6.56873 17.7829
60 4 10.2986 3.24892 13.6875
135 2 11.521 6.37025 13.4861
73 1 9.02376 0.788988 9.6188
84 1 8.61561 0.270672 14.6769
360 2 9.21734 0.688199 15.6156
105 2 6.75835 4.446 11.682
314 2 8.54161 5.02519 9.58407
117 2 9.60225 2.013 14.6452
119 2 8.93585 3.83749 13.0676
120 2 9.90189 6.4081 13.0942
355 2 8.68722 0.337297 10.5874
272 3 7.52186 6.11937 11.7101
141 2 9.02127 1.9962 9.64943
174 2 9.30761 0.560397 12.1352