ITEM: TIMESTEP
0
ITEM: NUMBER OF ATOMS
365
ITEM: BOX BOUNDS xy xz yz pp pp pp
-7.8091179999999998e+00 1.5719135000000000e+01 -7.8091179999999998e+00
-1.3819999999999999e-01 1.3846299999999999e+01 2.4876299999999998e-01
0.0000000000000000e+00 1.8322199999999999e+01 -1.3819999999999999e-01
ITEM: ATOMS id type x y z
7 4 1.01273 3.21363 0.215362
8 2 2.0928 2.12499 1.23203
9 2 1.54187 4.64522 0.868497
10 3 -0.434949 2.98289 0.754763
11 4 2.98437 0.583067 8.85202
13 4 1.29134 2.37517 6.97153
347 2 -2.96596 6.05472 1.01243
29 4 6.60059 0.73813 2.43658
30 4 2.76786 2.94097 4.20073
31 4 5.22374 2.86311 0.694895
37 4 4.62357 5.07155 2.76574
68 1 -2.36743 5.98872 4.90119
69 1 -0.75 6.28714 7.519
74 1 2.36736 1.35495 2.95422
75 1 5.2656 2.42317 6.11192
129 2 -1.17066 6.83667 8.47499
107 2 3.54147 6.3939 2.56174
102 2 1.37403 2.73275 2.81532
131 2 -1.24749 5.23068 7.22876
109 2 3.05255 6.00128 5.03872
126 2 -1.60426 5.14039 4.81653
127 2 -2.5397 6.43826 3.87601
161 2 2.55714 5.37786 8.96894
130 2 0.452267 6.15186 7.61967
142 2 2.95329 1.20475 2.01795
143 2 1.61265 0.52875 3.19211
144 2 3.70588 1.32951 4.12812
145 2 5.12915 1.31691 6.45161
146 2 5.35769 2.51362 4.93504
147 2 4.55635 3.17177 6.55634
151 2 1.46795 6.15138 4.44141
96 2 -1.29367 4.96724 8.88513
153 2 1.79516 6.648 2.49272
319 2 -1.37052 3.76477 5.12141
201 3 0.0367096 1.39306 6.33526
202 3 2.18867 1.56714 7.92894
205 3 0.747695 3.74568 7.77785
219 3 2.09192 2.92933 5.60085
220 3 5.4013 1.76487 1.91358
226 3 3.89172 4.03058 3.71275
227 3 4.73402 4.39616 1.32355
80 1 2.09616 6.54939 9.08131
233 3 4.64623 5.4604 7.07915
354 2 1.89152 0.003373 6.22289
160 2 1.56256 6.8164 8.09425
77 1 1.92078 6.89488 3.65159
14 4 0.316564 2.54478 12.9103
346 2 -1.26168 3.68783 16.2
19 4 -1.37002 5.006 13.7029
33 4 3.87585 3.05353 10.3508
35 4 3.5631 2.68636 16.6331
40 4 1.24204 6.18285 10.715
42 4 4.98421 4.62327 14.7948
43 4 0.300099 6.00613 16.102
99 2 4.35697 0.23905 17.2823
67 1 0.42672 1.58645 14.6775
76 1 3.92992 1.3402 15.3248
358 2 5.70993 0.565216 13.0717
204 3 -1.05953 2.4541 9.49027
103 2 2.16579 3.52632 10.5621
104 2 1.87865 2.57534 13.7867
110 2 1.1642 4.57358 16.2497
123 2 0.838938 0.518294 14.5789
15 4 -2.19024 6.48085 17.7529
125 2 0.827971 2.1597 15.6475
148 2 3.13774 0.480977 15.4816
149 2 4.96793 1.00175 15.4306
150 2 3.77982 1.9163 14.3849
237 3 -0.524221 6.31532 17.521
203 3 0.32762 1.65329 11.6542
283 4 -1.19953 2.54204 17.454
206 3 -0.537438 3.90211 13.0487
44 4 3.44295 6.49699 13.0276
209 3 -1.6458 6.23513 12.7903
221 3 3.79531 1.48551 9.89184
223 3 4.16257 1.8511 17.8031
224 3 1.61732 3.03024 17.0577
225 3 4.7429 3.22629 11.7299
231 3 0.817255 4.25559 10.5178
234 3 4.45866 3.97209 16.2863
16 4 -0.115861 3.7578 9.24171
236 3 -0.695729 5.49923 15.0278
238 3 2.22903 6.44647 11.994
239 3 3.59712 5.13704 13.8822
345 2 0.146852 0.0667967 9.52757
229 3 4.55527 3.95853 9.32996
106 2 6.85603 1.6302 12.0607
356 2 6.2457 0.295287 11.2622
235 3 5.95626 3.27269 13.9529
18 4 -1.42565 7.28588 6.07654
23 4 -3.09494 9.2804 7.81826
25 4 -4.10968 12.4084 6.70753
38 4 1.00995 8.47479 4.30394
45 4 0.287488 9.07328 1.30661
46 4 -1.69555 12.3539 4.46804
70 1 -5.73237 12.7911 5.90558
78 1 1.59813 7.91401 0.726341
79 1 -2.00383 10.7757 3.5111
111 2 -1.40615 8.53588 1.17824
353 2 -5.43828 10.4466 8.44665
321 1 -3.05382 8.33126 0.107089
182 2 -4.02267 7.26862 4.92462
156 2 2.36022 7.94636 1.64893
132 2 -5.81366 12.5021 4.73473
152 2 3.05749 7.49267 3.87512
157 2 -1.02036 10.1999 3.58381
158 2 -2.36465 10.9547 2.48511
159 2 -2.80783 10.3469 4.2189
348 2 -4.64974 9.50392 4.28479
210 3 -3.92067 8.35186 8.85996
211 3 -2.52724 8.39325 6.57896
213 3 -4.12882 10.5619 7.29932
214 3 -3.93812 13.4255 7.93899
228 3 -0.173511 7.85857 5.14189
240 3 0.63242 9.26997 3.01592
241 3 -1.8338 13.5637 3.4473
242 3 -2.95547 12.4472 5.57974
243 3 0.467316 10.3776 0.415315
245 3 -1.85756 10.0679 8.5699
246 3 -0.897361 12.6045 8.57416
247 3 -0.0906846 11.8752 5.26472
155 2 0.918875 6.93778 0.753059
322 2 -3.1736 8.45054 1.23513
112 2 -0.72617 13.6637 1.08611
324 1 -5.98129 12.0098 2.80558
325 2 -6.06826 11.7401 1.66256
326 2 -4.79371 12.0676 3.16721
327 2 -6.61656 12.9092 3.1459
113 2 1.66487 8.40063 8.55338
108 2 2.04081 9.38768 5.40319
133 2 -6.41878 12.0688 6.53737
338 2 0.43652 12.652 2.00074
251 3 3.30692 7.71753 14.0002
21 4 -1.34667 7.47304 11.8869
22 4 -3.04731 12.5837 16.6607
24 4 -5.98568 11.8723 10.4721
26 4 -1.04657 9.92091 13.9568
27 4 -5.06798 10.9581 15.0093
28 4 -3.12357 12.4033 12.5378
252 3 0.182494 10.7148 14.6661
232 3 -0.0983486 7.00857 10.7567
51 4 2.35684 8.18305 15.2936
52 4 -0.220269 12.4319 15.49
72 1 -1.83386 8.85754 15.3147
81 1 0.0128947 10.9948 10.6221
191 2 -6.00115 12.569 13.1891
92 1 -5.98123 12.4911 14.2801
115 2 1.40595 9.59299 14.9231
254 3 -1.78935 12.7729 15.6266
100 2 -3.99827 10.3772 13.7572
101 2 -4.30278 13.2529 13.5226
114 2 -3.0356 11.6899 10.223
136 2 -3.20247 7.51624 14.6793
137 2 -1.15574 9.17948 16.1982
138 2 -1.52204 7.82227 14.8628
139 2 -2.91529 8.98741 15.4858
154 2 2.431 8.06041 18.008
98 2 -2.62498 11.9554 18.0835
163 2 -0.06435 9.90902 10.825
164 2 -0.228315 11.6984 11.4635
165 2 0.951764 11.2656 10.093
190 2 -5.46497 13.4572 14.8043
49 4 -1.4463 11.382 9.45259
208 3 -2.83782 7.95989 11.2508
212 3 -6.14352 13.2377 9.61635
215 3 -0.745868 8.66039 12.7822
216 3 -4.24231 11.6722 16.2169
217 3 -4.13934 12.0237 11.2447
218 3 -2.57432 11.0175 13.2791
357 2 -0.737331 13.0197 12.6244
253 3 0.326186 12.4723 17.0019
250 3 1.38641 7.04792 15.6867
352 2 -1.89223 8.75753 17.9066
17 4 -4.04031 7.5691 10.214
162 2 2.90267 7.3009 9.36832
47 4 1.29223 11.7104 18.0566
82 1 -1.73551 13.6566 12.2823
323 2 -3.85082 8.28066 17.8921
364 2 -7.41173 13.5705 17.5206
1 4 14.2248 1.13694 5.39086
349 2 14.4613 1.58296 1.47523
350 2 10.9697 0.891838 0.801542
4 2 12.276 0.869011 6.52923
6 3 14.4736 0.181069 3.80544
318 1 13.3789 2.81438 4.94244
34 4 7.00302 2.70224 6.7617
39 4 5.42178 5.01426 8.43424
286 4 13.9708 0.136311 2.29218
53 4 8.6174 2.73129 3.82861
55 4 9.75468 4.6849 1.63831
56 4 6.62641 6.65075 4.3283
59 4 9.20044 6.60407 6.19023
85 1 10.2744 1.85313 4.46929
88 1 11.0224 6.05606 2.27805
90 1 10.3808 4.95024 6.54528
41 4 4.23778 6.65989 6.10477
170 2 11.3981 2.28372 4.55231
171 2 10.2124 0.981072 3.7363
172 2 9.87348 1.5638 5.48804
178 2 10.8355 6.68567 3.26345
179 2 10.7557 6.72904 1.34384
180 2 12.0825 5.5256 2.30398
184 2 10.5411 4.34839 5.59753
185 2 9.70002 4.42272 7.28724
186 2 11.3461 5.13378 7.03234
316 2 9.80632 3.29939 8.72969
222 3 7.58652 1.37648 7.39441
230 3 6.80876 4.1569 7.92234
336 2 8.65059 0.134702 0.566856
255 3 7.82696 1.60622 2.97628
256 3 7.86459 2.94869 5.37338
258 3 9.07601 4.08947 3.03045
259 3 10.5902 3.5743 0.942233
260 3 6.00316 5.54296 3.35063
263 3 8.53627 5.45357 0.598723
266 3 7.88771 6.27113 5.42079
189 2 9.51917 6.56766 8.45611
128 2 11.9645 5.60231 5.53925
320 2 12.4964 2.57928 5.79622
341 2 11.8681 1.20922 2.31895
351 2 12.8791 2.8646 3.91423
308 4 11.1513 2.40229 0.00461367
313 2 12.5239 3.44916 8.77929
334 2 7.421 4.0144 0.0181762
140 2 10.224 0.0811058 9.02883
333 2 7.6061 2.18923 0.163438
339 1 12.0461 0.0211839 2.22411
12 4 14.7264 1.19431 10.4763
20 4 11.0008 5.55333 15.6743
97 2 12.5466 4.26014 14.0534
54 4 12.1428 0.76307 12.2739
57 4 8.62005 6.35736 17.7136
60 4 10.403 2.95891 13.7905
135 2 11.5674 6.42813 13.2455
73 1 9.22247 0.551197 9.30555
36 4 6.10835 3.184 12.4397
360 2 9.30863 0.43092 15.5005
105 2 7.27352 4.21434 11.7027
314 2 8.94185 4.48854 10.0041
117 2 9.72364 1.61283 14.6605
119 2 8.88023 3.55504 13.2194
120 2 9.9091 6.08178 13.0839
124 2 14.6633 1.61731 14.6096
272 3 7.63274 6.11807 11.5448
141 2 9.37229 1.65755 9.55787
174 2 9.50996 0.0621616 12.1509
317 3 11.561 5.85984 9.98429
359 2 7.8137 0.604598 14.3296
177 2 12.9543 1.03053 14.3951
257 3 13.2363 0.579856 11.025
262 3 9.56429 5.88178 16.2652
264 3 5.90859 6.24553 9.40371
365 3 12.8637 2.09986 17.8564
267 3 11.278 2.50602 12.6212
268 3 11.0797 3.94302 14.7813
269 3 5.95826 5.86067 14.9378
315 2 9.7515 2.89273 10.7013
331 1 7.12364 2.8691 18.1246
332 2 6.93161 2.75122 16.9706
312 2 11.7501 3.50507 11.4079
309 2 10.2833 2.05673 17.08
310 4 11.5009 4.29335 9.86962
311 1 9.71948 3.68382 9.89723
87 1 13.2016 0.0959093 13.7252
270 3 6.95581 6.62173 17.2944
207 3 12.2326 5.91037 16.6978
58 4 6.23771 6.71516 10.9317
176 2 14.3078 0.0155963 13.4686
265 3 4.94904 6.5806 11.9101
84 1 8.6881 -0.0584216 14.6632
71 1 11.3461 6.78594 14.3046
284 2 14.8895 1.3011 16.4419
355 2 8.7207 0.0132497 10.1412
3 2 4.69108 13.0099 5.66144
48 4 2.97445 9.11557 7.66839
50 4 1.43186 11.8605 5.88498
83 1 2.57629 12.195 4.43204
89 1 10.3881 7.73644 4.94041
91 1 8.75147 7.37487 7.88571
121 2 7.20204 7.92824 3.31173
187 2 7.64339 7.09947 8.01734
166 2 1.89511 12.9667 3.91634
167 2 2.54396 11.102 3.95868
168 2 3.68055 12.5695 4.72882
181 2 9.72817 7.72144 3.98501
32 4 0.331283 13.7414 7.89777
183 2 10.1873 8.62609 5.73668
2 1 5.2471 13.7844 6.32363
188 2 8.99479 8.38296 8.25453
192 2 5.18095 12.2896 8.02119
361 2 3.67268 13.2489 3.01802
244 3 3.57223 7.92171 6.87747
340 2 4.17903 13.4124 1.11123
249 3 1.47781 13.0023 6.93349
261 3 5.45323 7.32981 5.22483
273 3 4.14884 9.84059 8.64453
285 4 9.39259 10.254 3.48242
337 2 2.30459 13.3152 1.65425
287 4 8.12975 9.06293 0.886903
5 2 5.7255 13.3477 7.26522
289 4 6.69904 10.7134 5.25914
290 1 6.33727 8.46038 1.54992
291 1 5.23979 10.4005 3.89401
292 1 6.65322 9.61534 6.69257
293 2 6.4986 12.4373 5.63744
294 2 6.40971 7.33011 1.72588
295 2 5.85747 8.75317 0.560729
296 2 5.92632 9.13506 2.51039
297 2 4.28176 11.02 3.96482
298 2 4.99579 9.32157 3.8542
299 2 5.87361 10.8004 3.00929
300 2 6.63534 10.4899 7.49739
301 2 7.41326 8.74009 6.9822
302 2 5.52558 9.24293 6.55574
335 1 1.25242 13.1188 1.20225
304 3 9.01831 9.25794 2.21368
305 3 7.77805 10.4133 0.202028
306 3 6.53992 12.7383 1.32653
307 3 8.17053 10.3618 4.52177
248 3 2.23535 10.2237 6.72611
93 1 5.18206 12.3097 9.1588
329 2 8.21498 10.4928 9.0628
288 4 7.00356 11.4757 18.2325
62 4 8.92914 7.09243 12.0745
63 4 4.83708 10.5393 9.85254
64 4 7.90772 9.14141 14.1828
65 4 3.95228 10.5684 16.7086
66 4 6.97816 11.1136 12.1341
195 2 2.67024 9.72348 10.8794
134 2 10.2763 7.35816 14.3574
86 1 2.73258 13.4307 11.9824
94 1 3.49528 10.3322 11.2655
95 1 4.21415 11.2324 15.0296
116 2 6.42569 8.41342 10.7581
118 2 4.76602 7.92161 16.4636
122 2 5.9996 12.4458 12.521
362 2 4.98219 12.974 14.1571
193 2 6.10443 12.8139 9.64493
175 2 3.09953 12.6906 12.8278
173 2 2.95402 13.0711 10.9173
194 2 4.17478 12.7433 9.52815
61 4 6.27147 7.15075 15.9935
196 2 3.14629 11.5011 11.5724
197 2 4.0194 9.78969 12.1604
198 2 3.4709 12.18 15.0962
199 2 3.80826 10.3675 14.3468
200 2 5.36044 11.4658 14.9404
363 2 8.42884 12.2073 14.7118
271 3 9.79415 7.739 10.8543
169 2 1.58114 13.5201 13.7077
274 3 6.9755 8.3491 15.2175
275 3 8.39486 8.25707 12.9641
276 3 9.33031 9.86044 15.1175
277 3 3.33849 8.61591 16.5753
278 3 5.37071 10.8229 17.5084
279 3 2.83062 11.4987 17.4175
280 3 8.33865 11.6944 11.5141
281 3 6.40672 10.1301 10.7546
282 3 7.00689 10.4234 13.5138
328 1 9.29344 10.3848 9.34606
330 2 9.48839 9.45221 9.96585
342 1 7.78151 12.5979 16.9884
343 2 6.89731 12.6216 16.2218
344 2 8.7259 11.9463 16.6936
303 3 9.09588 7.87323 18.1521
ITEM: TIMESTEP
100
ITEM: NUMBER OF ATOMS
365
ITEM: BOX BOUNDS xy xz yz pp pp pp
-7.8091179999999998e+00 1.5719135000000000e+01 -7.8091179999999998e+00
-1.3819999999999999e-01 1.3846299999999999e+01 2.4876299999999998e-01
0.0000000000000000e+00 1.8322199999999999e+01 -1.3819999999999999e-01
ITEM: ATOMS id type x y z
7 4 1.05733 3.18093 0.22434
8 2 2.08952 2.18369 1.25363
9 2 1.44267 4.61583 0.921227
10 3 -0.432662 2.79866 0.500251
11 4 2.90518 0.525728 8.83315
13 4 1.36899 2.5377 6.90729
347 2 -2.80405 5.7778 1.11897
29 4 6.72738 0.694324 2.47175
30 4 2.86613 3.02165 4.26047
31 4 5.2291 2.84277 0.839324
37 4 4.63901 5.10511 2.75787
68 1 -2.27436 6.00315 4.92493
69 1 -0.671439 6.45649 7.58366
74 1 2.63744 1.43016 2.94356
75 1 5.20207 2.28291 6.10466
77 1 2.03793 6.79665 3.73284
107 2 3.646 6.53173 2.61335
102 2 1.33438 2.5178 3.09231
131 2 -1.2459 5.43072 7.12835
109 2 3.0552 5.94309 5.22984
126 2 -1.50774 5.22414 4.57575
127 2 -2.52591 6.83863 4.10534
161 2 2.73964 5.49014 9.04148
130 2 0.513169 6.40931 7.53855
142 2 3.13346 1.24734 1.9692
143 2 2.16592 0.465528 3.24259
144 2 3.96266 1.42323 4.06155
145 2 5.00283 1.27864 6.61052
146 2 5.33999 2.26143 4.97484
147 2 4.55758 3.09988 6.50197
151 2 1.58848 6.0661 4.46658
96 2 -1.22043 5.2913 9.06492
153 2 1.89306 6.40699 2.64677
319 2 -1.51491 3.72708 4.7445
201 3 0.11663 1.71285 6.04573
202 3 2.13053 1.58853 7.90802
205 3 0.585902 3.73642 7.71306
219 3 2.29012 3.15314 5.70919
220 3 5.49998 1.58764 1.89621
226 3 3.70671 4.14842 3.6491
227 3 4.72803 4.31753 1.36548
129 2 -1.17492 6.83823 8.53377
14 4 0.350458 2.58755 12.9194
346 2 -1.36235 3.8628 16.4318
19 4 -1.37263 5.08535 13.7431
33 4 3.76317 2.93031 10.2737
35 4 3.61699 2.64924 16.693
40 4 1.15361 6.28818 10.808
42 4 4.93948 4.70241 14.7219
43 4 0.367631 6.06431 16.1661
99 2 4.57005 0.121834 17.268
67 1 0.450817 1.52334 14.5321
76 1 3.47246 1.56668 15.1954
358 2 5.71524 0.551084 13.203
204 3 -0.902649 2.61901 9.6174
103 2 2.14325 3.38117 10.601
104 2 1.91046 2.58605 13.665
110 2 1.09709 4.58303 16.5124
123 2 0.909968 0.354659 14.3461
15 4 -2.22796 6.34509 17.856
125 2 0.972401 2.17338 15.3879
148 2 2.5759 0.852011 15.1998
149 2 4.4635 0.904605 15.3429
150 2 3.52391 2.15871 14.2168
237 3 -0.671706 6.39751 17.3809
203 3 0.0770547 1.57335 11.809
284 2 -0.588532 1.55026 16.304
206 3 -0.505721 3.85782 13.2646
44 4 3.53281 6.63929 12.9153
209 3 -1.75466 6.09074 12.5532
221 3 3.77055 1.28357 9.95506
223 3 4.28963 1.71063 17.8191
224 3 1.72672 3.08049 17.0931
225 3 4.49611 3.01506 11.6682
231 3 0.890084 4.38472 10.3022
234 3 4.29817 4.08904 16.1939
16 4 -0.113531 3.90812 9.20613
236 3 -0.539461 5.69289 14.9323
238 3 2.21247 6.47735 11.929
239 3 3.70983 5.26485 13.7456
36 4 5.87787 3.11513 12.4512
229 3 4.37505 3.95945 9.28702
106 2 6.8504 1.67929 12.1269
356 2 5.50237 0.251922 11.2667
235 3 5.81741 3.25084 13.9538
80 1 2.20191 6.54467 9.2716
359 2 7.50691 0.466512 14.2406
345 2 0.0559572 0.126343 9.62898
18 4 -1.39006 7.36732 6.01032
23 4 -3.04159 9.31571 7.8072
25 4 -4.00957 12.2211 6.73399
38 4 1.12128 8.40833 4.36508
45 4 0.176525 9.08149 1.30414
46 4 -1.64072 12.1754 4.59927
70 1 -5.68803 12.5881 5.91645
78 1 1.53504 8.11713 0.528378
79 1 -2.06652 10.7142 3.49228
111 2 -1.44839 8.41213 1.13637
353 2 -5.27819 10.5075 8.48329
133 2 -6.27155 11.7215 6.42663
108 2 2.08908 9.43743 5.375
156 2 2.26975 8.04176 1.37472
132 2 -5.67955 12.3661 4.78618
152 2 3.08425 7.3112 4.07434
157 2 -1.04054 10.255 3.23837
158 2 -2.48492 11.3075 2.58777
159 2 -2.77949 10.0641 3.98549
348 2 -4.87241 9.47796 4.41151
210 3 -3.91736 8.25156 8.88073
211 3 -2.51984 8.3445 6.6483
213 3 -4.05577 10.4782 7.17771
214 3 -3.87435 13.3172 7.93806
228 3 -0.0417509 7.76756 5.24126
240 3 0.621836 9.08067 3.00778
241 3 -1.4007 13.4316 3.6502
242 3 -2.89677 12.3598 5.63753
243 3 0.162465 10.4321 0.45565
245 3 -1.77263 9.96987 8.54146
246 3 -0.651739 12.6086 8.67427
247 3 -0.0026423 11.7643 5.2918
155 2 0.913336 7.19013 0.300615
322 2 -3.58117 8.17798 0.972195
112 2 -0.494086 13.6577 1.1488
324 1 -5.64623 11.9073 2.78686
325 2 -5.97123 11.7632 1.65584
326 2 -4.51524 11.8123 2.93947
327 2 -6.00739 12.9311 3.1337
113 2 1.78169 8.45011 8.81142
354 2 -6.00823 13.6237 6.181
338 2 0.612216 12.6074 2.05006
160 2 1.5458 6.92408 8.32272
251 3 3.28253 7.96964 13.854
21 4 -1.46033 7.46123 11.8275
22 4 -2.865 12.4823 16.6759
24 4 -5.89264 12.0157 10.5127
26 4 -1.19547 9.78708 14.0641
27 4 -5.00929 10.8793 14.9416
28 4 -3.13619 12.3992 12.7248
252 3 0.326276 10.6858 14.6214
232 3 -0.153576 7.24225 10.6514
51 4 2.40317 8.23403 15.2416
52 4 -0.0465781 12.3028 15.4664
72 1 -1.74561 8.8681 15.5405
81 1 -0.389687 10.6193 10.6851
191 2 -5.65821 12.2892 13.2449
92 1 -5.9875 12.4293 14.3479
115 2 1.39427 9.57674 14.8978
254 3 -1.58094 12.6922 15.699
100 2 -3.84098 10.3119 13.814
101 2 -4.16536 13.2212 13.8289
114 2 -3.08468 11.774 10.1661
136 2 -3.41304 7.76469 14.7925
137 2 -0.996574 9.16225 16.3822
138 2 -1.7762 7.72789 15.3341
139 2 -2.79826 9.38565 15.7176
154 2 2.3263 8.31885 17.8554
98 2 -2.33343 11.7695 18.0976
163 2 -0.179947 9.56039 10.3065
164 2 -1.2471 10.6477 11.5318
165 2 0.540645 11.3328 10.8535
190 2 -5.61805 13.3656 14.8052
49 4 -1.52635 11.3486 9.36338
208 3 -2.86654 8.01044 11.2142
212 3 -6.21927 13.2905 9.57612
215 3 -0.901836 8.69039 12.8868
216 3 -4.09069 11.7155 16.1439
217 3 -4.27759 11.9935 11.2193
218 3 -2.45987 11.0838 13.3706
357 2 -0.895583 13.2664 12.2178
253 3 0.573208 12.4484 16.9518
250 3 1.52966 7.05322 15.8606
352 2 -2.13088 9.1113 18.2732
17 4 -4.0518 7.44529 10.2037
162 2 2.89855 7.33738 9.68056
321 1 -2.7709 8.18143 18.2923
82 1 -1.91849 13.7263 12.21
323 2 -3.49602 8.21037 17.3843
1 4 14.2929 1.17761 5.26399
349 2 14.4512 1.34938 1.36836
350 2 10.7453 0.987493 1.13611
4 2 12.6135 1.03198 6.74754
6 3 14.307 0.350299 3.90552
318 1 13.2989 2.83272 4.65965
34 4 6.93083 2.84468 6.66463
39 4 5.46409 4.94848 8.53201
286 4 13.959 0.0333202 2.31146
53 4 8.64367 2.68679 3.842
55 4 9.86902 4.64823 1.58627
56 4 6.64953 6.65115 4.34068
59 4 9.18368 6.39836 6.17071
85 1 10.212 1.72306 4.34913
88 1 11.0976 5.93153 2.30461
90 1 10.4682 4.74972 6.14587
41 4 4.28309 6.67394 6.26003
170 2 11.3608 2.19757 4.45376
171 2 10.1904 0.90189 3.55638
172 2 9.81702 1.31267 5.35494
178 2 10.717 6.4551 3.30869
179 2 11.0273 6.67663 1.36402
180 2 12.1374 5.35186 2.42065
184 2 10.8862 4.30594 5.25336
185 2 9.45175 4.1547 6.3894
186 2 11.1454 4.83079 7.0088
316 2 9.63295 3.15238 8.78482
222 3 7.58181 1.35301 7.32462
230 3 6.83684 4.01055 7.95348
336 2 9.11407 0.162569 1.02582
255 3 7.80597 1.70368 2.9176
256 3 7.75419 3.23212 5.26075
258 3 9.20175 4.05622 2.95643
259 3 10.7056 3.60029 0.784573
260 3 6.00155 5.58018 3.32372
263 3 8.54902 5.32236 0.576499
266 3 7.94018 6.32542 5.23019
189 2 8.92356 6.43656 8.46129
128 2 12.188 5.52659 5.37403
320 2 12.6099 2.7618 5.56152
341 2 12.0262 1.24097 2.35108
351 2 12.9784 2.47249 3.639
339 1 12.0452 0.0696791 2.33306
313 2 12.3709 3.74179 8.72751
334 2 7.512 4.02795 0.112278
308 4 11.0363 2.28217 0.0685618
2 1 13.1798 0.0212243 6.41168
32 4 8.13348 -0.00896237 7.92431
333 2 7.45801 2.06737 0.23929
233 3 4.74036 5.49581 7.2548
12 4 14.6618 1.27786 10.4866
20 4 10.9971 5.68147 15.7171
97 2 12.6072 4.31921 14.28
54 4 12.0985 0.729281 12.2248
57 4 8.67514 6.32732 17.572
60 4 10.3331 3.08374 13.6887
135 2 11.63 6.31525 13.5753
73 1 9.07005 0.575326 9.48021
84 1 8.51733 0.0252268 14.5809
360 2 8.9282 0.549759 15.5033
105 2 6.75192 4.41129 11.7585
314 2 8.71445 4.67282 9.66873
117 2 9.40385 1.78288 14.268
119 2 9.30916 4.1272 12.9599
120 2 10.1427 6.36355 12.8453
355 2 8.46676 0.00498748 10.3244
272 3 7.52235 6.05863 11.4783
141 2 9.08757 1.69655 9.57561
174 2 9.47365 0.137328 12.0659
317 3 11.3893 5.81056 10.0717
124 2 14.7 1.57813 14.6451
177 2 12.704 0.980125 14.4287
257 3 13.1781 0.720912 10.9175
262 3 9.6179 5.89622 16.3919
264 3 5.86902 6.29572 9.47432
365 3 12.7041 2.01617 17.7926
267 3 11.3433 2.52275 12.6348
268 3 11.2035 3.87667 14.8529
269 3 6.02333 5.8269 14.9014
315 2 9.3236 3.26737 10.7631
331 1 7.11639 2.93627 18.2003
332 2 6.72026 2.89063 17.1329
312 2 11.7318 3.40901 11.3383
309 2 10.1491 1.68562 17.269
310 4 11.315 4.25334 9.89218
311 1 9.46607 3.83008 9.76962
87 1 13.0326 0.00962897 13.6824
270 3 7.07037 6.59769 17.0817
207 3 12.2815 5.80874 16.7619
364 2 15.3341 0.000555471 17.6359
176 2 14.1305 -0.0624001 13.4519
140 2 10.091 0.0846295 9.2424
283 4 14.2037 2.48575 17.4386
3 2 4.65619 13.0435 6.03761
48 4 2.98558 8.99986 7.71879
50 4 1.48418 11.893 5.98468
83 1 2.67506 12.3863 4.6735
89 1 10.3774 7.58297 4.98431
91 1 8.67271 7.32656 7.80414
121 2 7.17818 7.95485 3.3689
187 2 7.52517 7.49946 7.84455
166 2 1.84137 12.9503 3.98484
167 2 3.0485 11.4696 4.07273
168 2 3.50264 13.098 5.03336
181 2 9.7669 7.80196 4.01413
182 2 11.4455 7.06167 4.94075
183 2 10.2274 8.37971 5.87338
329 2 8.39336 10.6197 9.0238
188 2 9.33502 8.30537 7.94296
192 2 5.21713 12.1199 8.22586
361 2 3.70714 13.4039 3.19726
244 3 3.45224 7.81303 6.88274
340 2 4.09546 13.4732 1.3212
249 3 1.55324 12.9951 7.07868
261 3 5.40788 7.25008 5.24532
273 3 4.25223 9.51549 8.68081
285 4 9.31079 10.2579 3.48794
337 2 2.41859 12.5775 1.61544
287 4 8.12476 9.1141 0.798102
5 2 6.06638 13.567 7.25108
289 4 6.67132 10.6762 5.31469
290 1 6.4935 8.4351 1.55932
291 1 5.19236 10.2583 3.97257
292 1 6.70315 9.70359 6.85792
293 2 6.41014 12.3766 5.71268
294 2 6.68806 7.31828 1.76607
295 2 5.90829 8.55933 0.552144
296 2 6.03017 9.1153 2.54463
297 2 4.32764 10.9231 4.3198
298 2 5.10124 9.13273 4.15044
299 2 5.67456 10.5309 3.01383
300 2 6.83621 10.6514 7.5614
301 2 7.47406 8.81008 7.16898
302 2 5.62409 9.27675 6.81787
335 1 1.34682 12.9205 1.35132
304 3 8.91629 9.3911 2.24946
305 3 7.70178 10.6863 0.0795532
306 3 6.35481 12.6014 1.40452
307 3 8.01121 10.4638 4.39164
248 3 2.29355 10.2298 6.70773
288 4 6.83909 11.6701 18.2169
62 4 8.97234 7.18798 11.9446
63 4 4.74268 10.4528 9.92274
64 4 8.00936 9.18201 14.2179
65 4 4.08533 10.5837 16.7255
66 4 7.00378 11.0947 12.0766
195 2 2.45124 9.87164 10.8548
134 2 10.2313 7.51327 14.2301
86 1 2.67128 13.5079 11.9374
94 1 3.34931 10.4324 11.2676
95 1 4.0563 11.1893 15.0094
116 2 6.65124 8.46796 10.5904
118 2 4.78634 7.93392 16.3688
122 2 6.00262 12.3675 12.5696
362 2 4.82859 12.885 14.1103
193 2 6.29997 12.45 9.74313
175 2 3.00061 12.8193 12.8859
173 2 2.74878 13.0406 10.91
194 2 4.43305 12.7195 9.8539
61 4 6.30313 7.19875 15.8923
196 2 3.07102 11.5717 11.4972
197 2 3.77248 9.91234 12.1891
198 2 3.55439 12.2359 15.164
199 2 3.552 10.5775 14.2068
200 2 5.21598 11.3121 14.857
363 2 8.37266 12.1654 14.6244
271 3 9.71774 7.97127 10.7566
169 2 1.4482 13.7205 13.6029
274 3 7.05004 8.29898 15.1083
275 3 8.56611 8.20513 13.0212
276 3 9.31307 9.87018 15.2175
277 3 3.41248 8.69677 16.4614
278 3 5.38689 10.9819 17.5179
279 3 2.80014 11.2107 17.4942
280 3 8.3696 11.7061 11.5432
281 3 6.07669 10.0749 10.8596
282 3 7.14756 10.4095 13.5026
328 1 9.42479 10.4938 9.37456
330 2 9.5287 9.52379 9.98655
342 1 7.41975 12.9497 16.9592
343 2 6.58917 13.0179 16.2096
344 2 8.37585 12.4951 16.5777
303 3 9.11131 7.86529 18.2441
47 4 1.35011 11.6578 18.1545
93 1 5.26474 12.125 9.37147
71 1 11.2173 7.00994 14.4027
58 4 6.24808 6.86502 10.9414
265 3 4.94789 6.84558 11.9457
ITEM: TIMESTEP
200
ITEM: NUMBER OF ATOMS
365
ITEM: BOX BOUNDS xy xz yz pp pp pp
-7.8091179999999998e+00 1.5719135000000000e+01 -7.8091179999999998e+00
-1.3819999999999999e-01 1.3846299999999999e+01 2.4876299999999998e-01
0.0000000000000000e+00 1.8322199999999999e+01 -1.3819999999999999e-01
ITEM: ATOMS id type x y z
7 4 1.00648 3.26154 0.359318
8 2 2.17129 2.25775 1.26564
9 2 1.0521 4.75857 1.13185
10 3 -0.552374 2.71322 0.383118
11 4 2.84064 0.472494 8.74805
13 4 1.26517 2.6237 6.79478
347 2 -2.7008 5.86334 1.07784
29 4 6.84367 0.779138 2.52458
30 4 2.81475 3.09297 4.29751
31 4 5.34567 2.64011 0.773871
37 4 4.65494 4.96623 2.64019
68 1 -2.21635 5.82806 4.88286
69 1 -0.78507 6.46723 7.56541
74 1 2.44025 1.35009 2.94688
75 1 5.22394 2.25207 6.24254
77 1 2.16449 6.74977 3.60552
107 2 3.65777 6.34959 2.3665
102 2 1.42274 2.83812 3.00974
131 2 -0.964312 5.4352 7.2433
109 2 3.11189 6.0499 5.20167
126 2 -1.45615 4.98051 4.62782
127 2 -2.33947 6.55532 3.95667
161 2 2.27481 5.73465 8.79579
130 2 0.26246 6.55167 7.88259
142 2 3.00649 1.2568 2.00704
143 2 1.71073 0.491999 3.11955
144 2 3.38937 1.31708 3.92143
145 2 5.30315 1.09994 6.42604
146 2 5.26681 2.54527 5.14301
147 2 4.44611 2.80999 6.84459
151 2 1.653 6.05833 4.45129
96 2 -1.32733 5.14793 8.97816
153 2 1.90815 6.59857 2.4835
319 2 -1.62967 3.62341 4.19031
201 3 -0.0260978 1.95962 5.89091
202 3 1.99965 1.38792 7.56362
205 3 0.638351 3.76828 7.82892
219 3 2.37529 3.25036 5.75116
220 3 5.47814 1.54371 1.962
226 3 3.75945 4.11811 3.60448
227 3 4.8165 4.09995 1.31825
80 1 2.04492 6.78954 9.1001
14 4 0.276316 2.41742 13.0586
346 2 -1.47971 3.9621 16.5846
19 4 -1.22778 5.12238 13.6717
33 4 3.80482 2.91386 10.2653
35 4 3.54301 2.74197 16.6314
40 4 1.15972 6.38924 10.7378
42 4 4.91519 4.76677 14.6583
43 4 0.385521 6.06227 16.1375
99 2 4.44632 0.172479 17.266
67 1 0.324701 1.45517 14.7396
76 1 3.60865 1.62527 15.1167
358 2 5.9148 0.443406 13.0335
204 3 -1.15889 2.69942 9.49527
103 2 2.26206 3.71432 10.4283
104 2 1.84249 2.27739 13.7781
110 2 1.32814 4.72788 16.547
123 2 0.895223 0.367295 14.6133
15 4 -2.20327 6.36449 17.7586
125 2 0.680188 2.12167 15.6595
148 2 2.57896 1.0895 15.2139
149 2 4.48269 0.974311 15.3724
150 2 3.7573 2.04314 14.1044
237 3 -0.621901 6.19505 17.4064
203 3 0.068969 1.59955 11.7217
16 4 -0.139834 3.951 9.24338
206 3 -0.349418 3.80057 13.2684
44 4 3.50692 6.7601 12.9002
209 3 -1.72453 6.01817 12.5291
221 3 3.6216 1.42308 9.76826
223 3 4.29629 1.81782 17.7424
224 3 1.72149 3.21787 17.2463
225 3 4.44827 3.11606 11.6689
231 3 0.8581 4.4124 10.3534
234 3 4.31437 4.12294 16.2044
235 3 5.71156 3.31408 13.8834
236 3 -0.555859 5.87194 14.9148
238 3 2.16766 6.63205 11.8792
239 3 3.62772 5.44976 13.7643
36 4 5.89184 3.16676 12.4027
229 3 4.64009 3.77622 9.22482
106 2 6.7266 1.68455 11.9775
356 2 5.5011 0.234698 11.1426
18 4 -1.41076 7.22973 5.88682
23 4 -3.06414 9.24154 7.72565
25 4 -3.92154 12.183 6.76748
38 4 1.17459 8.3157 4.23436
45 4 0.308972 9.01864 1.32674
46 4 -1.40122 12.0926 4.60939
70 1 -5.57129 12.4783 5.97347
78 1 1.71676 8.12282 0.50969
79 1 -1.97079 10.6373 3.59358
111 2 -1.08394 8.0068 1.10752
353 2 -5.33597 10.3605 8.72494
133 2 -6.15848 11.583 6.45931
108 2 1.97555 9.31479 5.33847
156 2 2.45606 7.95492 1.44568
132 2 -5.46682 12.3669 4.82999
152 2 3.20377 7.28274 3.85196
157 2 -1.47391 9.7991 4.0984
158 2 -1.61622 11.0322 2.52411
159 2 -3.08619 10.6191 3.7126
348 2 -4.76094 9.53052 4.19721
210 3 -3.9112 8.1409 8.7452
211 3 -2.4283 8.37301 6.31932
213 3 -4.11065 10.3428 7.30661
214 3 -3.9569 13.1937 7.99861
228 3 -0.0862789 7.67733 5.04313
240 3 0.841672 9.07592 2.80271
241 3 -1.16185 13.302 3.53478
242 3 -2.68304 12.3353 5.62771
243 3 0.0614896 10.4751 0.424912
245 3 -1.92308 10.082 8.43269
246 3 -0.739646 12.6203 8.91089
247 3 0.140789 11.5965 5.47435
155 2 1.14274 7.11516 0.334301
322 2 -2.94942 8.24757 1.10607
129 2 -1.43553 6.87488 8.35318
324 1 -5.36414 11.9259 2.88642
325 2 -5.19694 11.6572 1.737
326 2 -4.3234 11.7587 3.41546
327 2 -5.87725 12.9444 3.07316
113 2 1.82951 8.70629 8.73909
354 2 -5.98577 13.5238 6.37284
338 2 0.499796 12.537 2.13684
160 2 1.51018 7.30064 8.26497
112 2 -0.237334 13.8023 1.21552
251 3 3.25052 8.04737 13.8905
21 4 -1.49246 7.42969 11.8229
22 4 -2.81835 12.4733 16.7276
24 4 -5.91725 12.0389 10.4447
26 4 -1.16316 9.86832 14.0436
27 4 -4.90857 10.9774 15.0907
28 4 -3.19835 12.4112 12.509
252 3 0.163062 10.7014 14.588
232 3 -0.324542 7.24511 10.6737
51 4 2.38623 8.32782 15.2606
52 4 -0.00388124 12.4518 15.4715
72 1 -1.91473 9.09824 15.5751
81 1 -0.57719 10.6396 10.794
191 2 -5.94253 12.9607 13.4212
92 1 -5.82878 12.5264 14.4868
115 2 1.45848 9.73232 14.9115
254 3 -1.55319 12.7963 15.7638
100 2 -3.89506 10.3473 13.7973
101 2 -4.12039 13.1755 13.6922
114 2 -3.08241 11.9464 9.97713
136 2 -3.24682 7.72394 14.7435
137 2 -1.31391 9.57025 16.4427
138 2 -1.60642 7.9532 15.4335
139 2 -3.05276 9.29483 15.6524
154 2 2.52474 8.35993 17.8869
98 2 -2.1943 12.0297 18.2056
163 2 -0.141757 9.65275 10.4337
164 2 -1.4461 10.5607 11.5118
165 2 0.149913 11.4041 11.0274
190 2 -5.53432 13.348 15.2937
49 4 -1.60947 11.3955 9.31216
208 3 -2.89108 7.87303 11.1694
212 3 -6.31157 13.3477 9.57465
215 3 -1.12949 8.67505 13.0695
216 3 -3.92976 11.52 16.2626
217 3 -4.11458 12.1528 11.264
218 3 -2.50199 11.0601 13.304
357 2 -0.875714 13.1215 11.8973
253 3 0.776824 12.4876 16.8899
250 3 1.39858 7.24696 15.7745
352 2 -1.62907 8.76383 18.0221
82 1 -1.82714 13.6737 12.1157
162 2 3.01205 7.29798 9.69078
321 1 -2.53519 8.14766 18.3212
47 4 1.36027 11.4152 18.1624
323 2 -3.50551 8.43098 17.7378
1 4 14.1689 1.33256 5.2019
349 2 14.4149 1.41201 1.54743
350 2 10.8526 1.08386 1.26755
4 2 12.718 1.04738 7.06733
6 3 14.4477 0.23698 3.75138
318 1 13.0789 2.77429 4.62006
34 4 7.02435 2.67725 6.82637
39 4 5.51382 4.87088 8.50164
286 4 13.9214 0.0326373 2.35767
53 4 8.75166 2.79949 3.89828
55 4 9.97237 4.63597 1.6045
56 4 6.54306 6.66213 4.3058
59 4 9.26424 6.35905 5.97665
85 1 10.0654 1.68454 4.66158
88 1 11.1211 6.00483 2.24657
90 1 10.4441 4.78463 6.07063
41 4 4.20533 6.72619 6.32561
170 2 11.1988 2.07853 4.70453
171 2 9.97804 0.772462 3.9495
172 2 9.57637 1.49114 5.67123
178 2 10.8498 6.62181 3.26581
179 2 11.1776 6.6614 1.34609
180 2 12.0601 5.39022 2.43296
184 2 10.7915 4.57413 4.96753
185 2 9.58894 4.08385 6.33292
186 2 11.2751 4.69572 6.84436
316 2 9.32902 3.38506 8.69176
222 3 7.39142 1.24876 7.49282
230 3 6.66486 4.01852 7.81112
233 3 4.64182 5.66632 7.38996
255 3 7.93674 1.7451 3.04701
256 3 7.84271 3.06028 5.52281
258 3 9.47347 3.91825 2.91833
259 3 10.6438 3.61837 0.616311
260 3 5.8832 5.58772 3.34444
263 3 8.62698 5.38834 0.634341
266 3 7.9254 6.2988 5.05531
189 2 9.48388 6.37023 8.24503
128 2 12.1995 5.40037 5.30064
320 2 12.6213 2.9779 5.66848
341 2 11.9984 1.24123 2.58408
351 2 12.3216 2.51665 3.81258
339 1 11.9813 0.0197146 2.47619
313 2 12.0294 3.58675 8.72873
334 2 7.40887 3.97716 0.0496662
2 1 13.1914 0.168095 6.41604
32 4 8.14364 -0.0447792 8.2564
12 4 14.5887 1.42206 10.4133
20 4 10.8615 5.67738 15.705
97 2 12.6868 4.52514 14.2412
54 4 12.0929 0.764801 12.173
57 4 8.66586 6.35993 17.7123
60 4 10.4572 3.06459 13.7236
135 2 11.5824 6.22476 13.4377
73 1 9.09259 0.719213 9.64956
84 1 8.70174 0.0965434 14.6913
360 2 9.30232 0.41916 15.6257
105 2 6.80819 4.43267 11.6912
314 2 8.65779 4.97468 9.47744
117 2 9.80991 1.72994 14.6024
119 2 9.08381 3.61095 13.0993
120 2 10.0023 6.25274 13.0466
355 2 8.71048 0.190346 10.649
272 3 7.59125 5.97639 11.6965
141 2 9.09091 1.9363 9.6531
174 2 9.5414 0.452628 12.0869
317 3 11.2303 5.8012 10.0029