ITEM: TIMESTEP
0
ITEM: NUMBER OF ATOMS
365
ITEM: BOX BOUNDS xy xz yz pp pp pp
-7.7317999999999998e+00 1.5563499999999999e+01 -7.7317999999999998e+00
-1.3819999999999999e-01 1.3846299999999999e+01 2.4629999999999999e-01
0.0000000000000000e+00 1.8505421999999999e+01 -1.3819999999999999e-01
ITEM: ATOMS id type x y z
80 1 1.86804 6.33046 8.85477
8 2 0.038277 3.57488 1.7205
226 3 3.656 3.97764 3.59129
153 2 2.24253 6.75848 2.43741
11 4 2.98352 0.207179 8.98779
13 4 1.65269 2.02372 6.9509
160 2 1.91201 5.26189 8.35214
29 4 6.9939 0.650436 2.59229
30 4 2.40112 3.16275 4.21703
31 4 5.48673 2.81024 0.83794
319 2 -1.25681 3.9979 5.91458
220 3 5.93606 1.51304 1.77452
69 1 -0.348407 5.66336 6.58514
74 1 1.07387 2.34013 2.97727
75 1 5.17976 1.90973 5.6136
77 1 2.52071 6.77047 3.59933
96 2 -0.774929 4.78224 8.29882
102 2 0.581381 3.78314 3.44738
131 2 -1.48521 5.49997 6.86016
109 2 2.94688 6.44752 5.53547
126 2 -2.16785 6.06901 4.83209
107 2 3.98467 6.36353 2.36521
129 2 0.492783 5.87266 7.42801
130 2 -0.00987949 5.10681 5.67489
142 2 1.14777 2.28657 1.82207
143 2 0.338521 1.5467 3.30763
144 2 2.57882 1.48248 3.49138
145 2 5.22875 0.683411 5.76854
146 2 5.12509 2.26221 4.55512
147 2 4.35811 2.3696 6.17135
151 2 2.13092 5.92809 4.23204
37 4 4.74179 4.95423 2.91429
347 2 -2.22956 5.8235 1.09539
16 4 0.000944391 3.47724 9.19014
201 3 0.312284 1.2142 6.31691
202 3 2.75256 0.894755 7.55617
205 3 1.13159 2.95698 8.22264
219 3 2.29951 2.98925 5.81872
161 2 2.95838 6.71342 9.10376
179 2 -3.7855 6.90108 2.31052
14 4 0.497993 2.55892 12.9435
360 2 6.02919 0.726488 15.3181
19 4 -0.854682 5.16687 13.8824
33 4 3.74588 2.87314 10.2758
35 4 3.19405 2.71718 17.4502
40 4 1.23535 6.10672 10.6191
42 4 4.42027 4.34181 14.9189
229 3 4.42645 3.88939 9.26285
44 4 3.84205 6.32563 12.8744
67 1 0.952477 1.56027 14.5393
76 1 3.40537 0.9981 16.4668
43 4 0.971045 6.36142 16.0517
36 4 5.48201 2.66995 12.8103
103 2 2.16082 3.52985 10.3249
104 2 2.23573 2.5189 13.5255
110 2 2.30703 5.32869 16.3375
123 2 0.561438 0.549288 14.1156
124 2 0.17302 2.10425 15.1888
125 2 1.8047 1.29257 15.2497
15 4 -1.69204 6.50822 17.9972
149 2 4.41844 0.659602 16.9256
150 2 3.54244 1.40182 15.4175
10 3 -0.872898 2.5357 17.9588
203 3 0.182528 1.5217 11.7235
207 3 -2.9169 6.14659 16.9524
206 3 -0.385637 3.75004 13.3854
223 3 4.4971 2.60488 18.348
209 3 -1.33177 6.31171 12.9584
221 3 3.43566 1.31869 9.98545
7 4 0.387093 3.23841 18.468
224 3 1.74749 2.54311 18.1896
225 3 4.32402 2.88456 11.7135
231 3 0.711722 4.21051 10.3266
234 3 3.26109 4.02217 16.4838
106 2 6.22145 1.18415 12.5472
236 3 0.0463849 5.71438 14.9886
238 3 2.49854 6.34258 11.5875
239 3 3.49839 4.93815 13.7339
235 3 5.20634 2.79907 14.4313
356 2 4.18171 0.62232 12.6871
148 2 2.60262 0.207644 16.596
237 3 0.17162 6.3307 17.4378
84 1 7.05814 0.081663 15.2766
97 2 -2.44713 4.82548 14.4653
9 2 0.375513 4.80671 17.908
18 4 -0.805893 7.48883 5.96779
23 4 -2.22952 9.34121 8.24107
25 4 -3.5544 12.0612 7.05056
38 4 1.78583 8.47941 4.16068
45 4 1.06578 9.22656 1.10911
46 4 -1.39318 12.1098 4.7487
70 1 -5.29525 11.7292 6.45821
78 1 2.36622 8.16176 0.300476
79 1 -2.13602 10.5641 3.99603
354 2 -6.10288 12.325 6.9746
353 2 -4.92452 10.403 8.42024
113 2 0.963806 8.86856 7.867
98 2 -4.0789 11.5679 0.537523
111 2 -0.65526 8.63839 0.937276
132 2 -5.1677 12.1114 5.36203
133 2 -5.47922 10.5518 6.54759
157 2 -1.1389 10.0334 3.77398
158 2 -2.78236 10.6162 3.09709
159 2 -2.68148 10.0272 4.81185
348 2 -5.21205 9.9101 4.47546
210 3 -3.37363 8.35051 8.8614
211 3 -1.41182 8.3938 7.12978
213 3 -2.96732 10.5833 7.4041
214 3 -3.57624 12.9678 8.87384
228 3 0.551724 8.01443 5.11277
240 3 1.28849 9.14052 2.68209
241 3 -1.14605 13.3146 3.61443
242 3 -2.65149 12.8545 5.99938
155 2 1.73107 7.14631 0.330564
152 2 3.59835 7.20353 3.88989
246 3 -0.344156 12.8354 8.94005
247 3 -0.0808666 11.6772 5.4742
321 1 -2.14864 7.55395 1.255
322 2 -1.67161 7.89438 2.27273
323 2 -3.12673 8.06661 1.13592
324 1 -6.01468 12.3489 3.03309
68 1 -2.17758 7.20373 4.67309
326 2 -4.90941 12.53 3.46256
127 2 -1.76929 7.63953 3.64926
182 2 -3.91755 8.51134 6.30258
162 2 1.24323 7.09315 8.34084
112 2 -0.0078111 13.5814 1.27472
243 3 1.30232 10.6688 0.412853
128 2 -3.1877 7.66479 5.06272
325 2 -6.11533 12.3406 1.88903
327 2 -6.8459 12.8912 3.64283
17 4 -3.63169 7.37733 10.1333
21 4 -1.21821 7.53177 11.9481
22 4 -3.85412 12.094 17.5156
24 4 -6.03932 11.629 10.2799
26 4 -1.41144 9.80464 14.0602
27 4 -5.60877 10.6822 15.1365
28 4 -3.78497 11.9182 12.5967
92 1 -6.37996 12.1908 14.3136
49 4 -1.12501 11.7323 9.8139
51 4 2.88281 8.37707 14.8498
52 4 -0.861653 12.2289 16.0548
72 1 -1.28287 8.70747 15.5434
81 1 -0.0880088 11.5568 11.395
163 2 0.777056 12.2815 11.4076
254 3 -2.43208 12.0381 16.8423
352 2 -1.64273 8.35534 18.1697
190 2 -5.95318 13.1491 14.8753
100 2 -4.32028 10.0455 14.2036
101 2 -4.59902 12.8853 13.7907
114 2 -2.73389 12.3627 10.1634
115 2 2.31056 9.66965 13.8602
137 2 -0.416592 9.19764 16.1582
138 2 -0.990471 7.69383 15.0855
139 2 -2.2313 8.60053 16.1781
232 3 0.0494726 7.12991 10.8297
154 2 3.01867 8.32748 17.7309
191 2 -6.42823 12.3221 13.1654
164 2 0.27262 10.4682 11.7039
165 2 -1.02309 12.0389 12.0832
136 2 -3.85373 8.117 15.7642
99 2 -4.2391 13.6306 18.0609
208 3 -2.55666 7.89165 11.2822
212 3 -6.35669 13.0038 9.38302
215 3 -0.800789 9.09788 12.8413
216 3 -4.93135 11.3362 16.6836
217 3 -4.72232 11.6046 11.3353
218 3 -3.14518 10.6632 13.3884
357 2 -2.24878 13.3749 11.7667
245 3 -1.30311 10.151 9.29237
250 3 1.53386 7.66953 15.3832
252 3 -0.642363 11.0157 14.6295
253 3 0.2085 12.1515 17.1501
82 1 -2.83273 13.5496 12.8587
364 2 -6.51137 12.1988 17.1272
358 2 -1.99992 13.6193 13.7102
359 2 -0.426386 13.7172 14.1997
135 2 -4.04569 7.56245 13.7397
196 2 1.69552 10.8159 11.8684
1 4 14.1931 1.17483 5.4766
350 2 9.67235 1.54823 1.22997
286 4 13.5489 0.0579169 2.27367
4 2 12.4108 1.19639 6.86802
6 3 14.2167 0.476515 3.64101
56 4 6.51438 6.72189 4.68389
34 4 6.67287 2.67163 6.52844
39 4 5.34597 4.90667 8.51662
349 2 13.3021 1.518 1.321
53 4 8.64288 2.68504 4.06579
55 4 9.57596 4.99204 1.95289
316 2 9.28074 3.8475 9.24002
340 2 11.4576 0.465483 1.0269
85 1 10.3109 2.16751 4.91232
88 1 10.496 6.44718 2.7032
90 1 10.6351 5.17902 6.12126
166 2 10.2923 0.127437 4.64164
170 2 10.8387 3.04319 5.32351
171 2 10.9721 1.63359 4.03437
172 2 9.90836 1.49365 5.75249
2 1 12.7262 0.232474 6.39763
227 3 5.39679 4.27617 1.61043
180 2 10.634 5.952 3.74442
184 2 11.1424 4.93368 5.06492
185 2 9.86972 4.37284 6.51506
186 2 11.381 5.65701 6.89652
189 2 9.42576 6.29731 8.66833
222 3 7.28285 1.4063 7.43704
230 3 6.27865 3.95468 7.47303
341 2 11.346 1.53265 2.6881
255 3 8.2268 1.46397 3.17719
256 3 7.67042 3.1093 5.30391
258 3 9.13684 4.0362 3.12027
259 3 10.7531 4.0939 0.977869
260 3 5.95007 5.46811 3.92464
263 3 8.21791 5.48678 0.582079
308 4 10.3542 2.75216 0.233365
313 2 11.125 4.1774 7.76875
339 1 11.7452 0.58849 2.12848
320 2 12.572 2.64796 5.97489
187 2 7.68698 6.80973 8.04807
266 3 7.93144 6.64707 5.47719
32 4 8.17844 0.212719 8.1312
59 4 9.30817 6.67887 6.29093
318 1 13.6198 2.95659 5.48994
233 3 4.52097 5.94543 7.52001
336 2 10.6024 0.0262246 0.0393986
351 2 13.5799 3.04707 4.30462
12 4 14.4521 1.08183 10.6571
20 4 11.036 5.90873 15.9741
331 1 7.22372 2.91733 18.0722
54 4 11.9622 0.958228 12.8457
57 4 8.52285 6.36447 17.8681
60 4 10.7621 3.77012 13.3758
317 3 11.9566 5.83102 9.78041
73 1 9.17714 0.869959 9.62197
310 4 11.4741 4.39639 9.43847
87 1 12.9974 0.544399 14.4414
105 2 6.8756 3.46496 12.2008
169 2 7.87561 0.616646 15.9198
117 2 9.0579 3.48365 13.6073
119 2 10.657 4.72034 12.0314
120 2 10.006 6.45039 13.3481
365 3 11.8435 1.96962 18.0703
346 2 12.7817 3.11409 15.9123
140 2 10.211 0.37281 9.36133
332 2 6.66045 2.95245 17.0823
272 3 7.86087 6.29307 11.6353
176 2 13.3038 1.5844 14.9184
173 2 9.56036 0.0691244 12.3977
257 3 13.0308 0.567518 11.4218
262 3 9.67647 5.8707 16.8124
264 3 6.22958 5.76786 9.67911
58 4 6.44383 6.51954 11.0301
267 3 11.4314 2.4117 13.009
268 3 11.2636 4.55642 14.6335
269 3 5.38241 5.51384 15.3903
204 3 14.0635 2.27236 9.66138
283 4 13.11 2.0895 17.2068
284 2 13.4025 0.592203 16.4299
265 3 5.31646 6.08942 12.0094
309 2 9.23447 2.6577 17.7224
315 2 10.3804 3.07807 10.8656
311 1 9.81949 4.10765 10.3026
312 2 12.6766 3.27111 9.7712
314 2 9.15102 4.75305 10.8871
270 3 7.0564 6.48473 17.0511
333 2 7.80102 2.00107 18.2461
355 2 8.66602 0.426522 10.5409
61 4 6.2156 6.799 15.729
177 2 12.2815 -0.0856648 15.0318
334 2 7.74083 3.92202 18.4193
141 2 9.43716 1.91309 9.76736
362 2 13.8875 0.0447946 14.1492
338 2 8.96634 0.269765 18.4786
361 2 3.77385 13.2623 2.7618
335 1 1.78675 13.551 0.435653
50 4 1.58898 12.0088 6.07405
83 1 2.60243 12.7946 4.59802
89 1 10.3845 8.42101 5.72864
91 1 8.78157 7.06792 8.07253
121 2 6.75197 8.00543 3.47188
307 3 7.40348 10.5997 4.2798
249 3 1.56015 13.3128 7.05408
167 2 1.90376 12.332 3.76149
168 2 3.57834 12.3657 4.55964
181 2 10.4987 8.19551 4.59594
3 2 4.11694 13.5862 5.71546
183 2 9.67943 9.23493 5.96133
303 3 8.66787 7.87547 0.0296853
188 2 9.05768 8.18526 8.42237
178 2 9.60038 7.18586 2.593
306 3 6.14595 12.8343 1.23683
108 2 3.11779 9.39228 4.86624
248 3 2.43399 10.7571 6.64711
273 3 3.00369 9.85641 9.07495
261 3 5.38816 7.38364 5.52956
5 2 5.38645 13.2965 7.13357
285 4 8.80218 10.5813 3.50939
305 3 7.27492 10.4499 0.195117
287 4 7.86816 9.07527 0.922315
337 2 1.66662 13.1282 1.51353
289 4 6.03058 10.7759 5.07687
290 1 6.23403 8.33262 1.60954
291 1 4.57461 10.2012 3.73221
292 1 6.33432 9.82644 6.67099
293 2 5.75805 12.364 5.59694
294 2 6.4756 7.26321 1.99431
295 2 5.52914 8.22614 0.658529
296 2 5.63989 8.99651 2.41216
297 2 3.56665 10.6565 3.89496
298 2 4.6711 9.08106 4.02153
299 2 4.86179 10.4712 2.68326
300 2 7.32954 9.24474 6.38574
301 2 5.56871 9.11667 7.16099
302 2 6.47116 10.6937 7.43568
329 2 8.48957 10.1216 8.53443
304 3 8.7669 9.48714 2.21713
41 4 4.20944 7.1297 6.51584
244 3 3.36176 8.33719 7.06477
156 2 3.18471 8.22871 1.103
328 1 9.49532 10.1151 9.06766
48 4 2.49521 9.49778 7.6291
192 2 3.37305 12.3564 9.25064
345 2 7.53812 13.6628 9.85668
62 4 9.15627 7.22427 12.0257
63 4 3.85968 10.3311 10.3775
64 4 7.51449 8.93501 13.9833
65 4 4.12183 10.8303 16.3124
66 4 6.52203 10.7823 11.7435
71 1 10.8206 7.42397 14.8675
195 2 2.82451 9.0731 11.9383
93 1 4.04433 12.2855 10.1907
94 1 2.85017 10.3337 12.0215
95 1 4.61497 11.4314 14.57
116 2 6.30879 8.22876 10.7139
118 2 5.03069 7.85873 16.1361
122 2 5.4425 12.1559 11.6174
47 4 1.64492 11.7559 17.9215
175 2 2.78192 12.3079 12.6846
363 2 7.80111 12.0627 14.634
342 1 7.77701 12.7038 17.2889
194 2 3.50025 12.8368 11.2317
344 2 7.16836 12.7264 16.3006
193 2 5.10828 12.6799 9.93281
197 2 3.46441 10.8261 12.9669
198 2 3.93934 12.2704 14.031
199 2 4.6519 10.3992 14.0376
200 2 5.61184 11.8376 14.6608
288 4 6.65786 11.616 18.3319
271 3 10.2063 7.52649 10.7426
134 2 9.69113 7.54213 14.9185
274 3 7.05528 7.48662 14.5613
275 3 8.57009 8.48787 12.7619
276 3 8.52884 9.69358 15.2625
277 3 3.76917 8.96487 16.1456
278 3 5.35082 11.0882 17.3934
279 3 2.90015 11.6767 16.8594
280 3 7.93336 11.3207 11.2131
281 3 5.69439 9.67493 10.6409
282 3 6.54768 10.1302 13.2265
86 1 2.71317 13.4881 12.9298
330 2 9.72505 9.22854 9.70561
174 2 2.58293 13.5851 14.1118
251 3 3.84321 7.58864 13.8236
343 2 7.79172 13.6805 17.823
ITEM: TIMESTEP
100
ITEM: NUMBER OF ATOMS
365
ITEM: BOX BOUNDS xy xz yz pp pp pp
-7.7317999999999998e+00 1.5563499999999999e+01 -7.7317999999999998e+00
-1.3819999999999999e-01 1.3846299999999999e+01 2.4629999999999999e-01
0.0000000000000000e+00 1.8505421999999999e+01 -1.3819999999999999e-01
ITEM: ATOMS id type x y z
80 1 1.85947 6.56208 8.97585
8 2 0.110878 3.32442 1.7584
226 3 3.63847 4.03352 3.72508
153 2 2.02055 6.67668 2.55677
11 4 2.95679 0.236751 8.87784
13 4 1.40751 1.88528 7.00449
160 2 1.87044 5.47048 8.55142
29 4 7.03601 0.564196 2.51169
30 4 2.38598 3.2151 4.26335
31 4 5.59068 2.79697 0.944233
319 2 -1.11501 3.82365 5.83724
220 3 5.96041 1.57235 1.94925
69 1 -0.373574 5.68427 6.74521
74 1 0.984211 2.32388 3.07513
75 1 5.09207 1.88295 6.0007
77 1 2.39317 6.70116 3.67565
96 2 -0.813525 4.53017 8.30036
102 2 0.660495 3.85627 3.43262
131 2 -1.47123 5.60432 7.14369
109 2 3.20972 6.11546 5.3727
126 2 -2.12413 6.07059 4.54426
107 2 3.79842 6.20735 2.4314
129 2 0.430165 5.99405 7.56486
130 2 0.0254178 4.83968 6.01508
142 2 1.44339 2.19763 2.10235
143 2 0.208609 1.54063 3.367
144 2 2.55947 1.47138 3.67851
145 2 5.17381 0.717382 6.01346
146 2 5.06227 2.25437 4.90686
147 2 4.3052 2.22268 6.68625
151 2 1.81035 6.03965 4.38207
37 4 4.76777 4.93134 3.06761
347 2 -2.32245 6.02624 1.04869
219 3 1.9851 3.03055 5.76004
201 3 0.0560277 1.08086 6.36188
202 3 2.5645 0.796756 7.37739
205 3 1.08895 2.69412 8.4374
14 4 0.522824 2.70826 12.922
360 2 5.95222 0.649262 15.3178
19 4 -0.9228 5.21052 13.907
33 4 3.66823 2.85458 10.3173
35 4 3.21136 2.47638 17.4635
40 4 1.23135 6.1639 10.6916
42 4 4.4375 4.37378 14.9058
9 2 0.59001 4.94081 18.2549
44 4 3.76076 6.21932 12.6811
67 1 0.782766 1.75833 14.6005
76 1 3.39448 0.951709 16.2564
43 4 0.99349 6.26905 16.0342
36 4 5.5273 2.77608 12.7846
103 2 2.10807 3.51958 10.5919
104 2 2.21307 2.46863 13.5695
110 2 2.1682 4.98957 16.1384
123 2 0.192402 0.761244 14.2028
124 2 0.0379673 2.439 15.2329
125 2 1.7572 1.43878 15.1658
15 4 -1.67921 6.78741 17.8232
149 2 4.35699 0.310074 16.4221
150 2 3.42757 1.61109 15.2904
10 3 -0.89643 2.66556 17.9757
203 3 0.114471 1.67389 11.8558
207 3 -2.8757 6.34016 16.9324
206 3 -0.140126 4.05775 13.2387
223 3 4.41303 2.46758 18.4811
209 3 -1.50476 6.37093 13.075
221 3 3.39959 1.42373 9.83791
229 3 4.46 3.80365 9.26445
224 3 1.71242 2.50309 18.0841
225 3 4.44607 2.90255 11.6992
231 3 0.723596 4.23842 10.4263
234 3 3.28064 3.8529 16.382
106 2 6.11107 1.17918 12.6545
236 3 -0.0944017 5.80012 15.0613
238 3 2.52659 6.27725 11.6131
239 3 3.40062 4.9877 13.7733
235 3 4.97035 3.06162 14.3145
356 2 4.02061 0.579878 12.7283
148 2 2.456 0.392757 16.3576
237 3 0.225696 6.31027 17.4824
84 1 6.88986 0.161614 15.1955
97 2 -2.40968 4.56502 14.4814
359 2 7.3566 0.0360153 14.1225
16 4 0.00765966 3.43582 9.30715
343 2 0.311022 -0.00699633 17.9306
7 4 0.451833 3.26764 18.5046
18 4 -0.836621 7.4049 5.83636
23 4 -2.35139 9.27992 8.11572
25 4 -3.36964 11.9958 7.1024
38 4 1.8338 8.50609 4.14626
45 4 1.14896 9.23186 1.09633
46 4 -1.29049 12.2866 4.80633
70 1 -5.08764 11.815 6.29945
78 1 2.46473 8.28418 0.211556
79 1 -2.15816 10.6986 4.11151
354 2 -5.78233 12.1385 7.11412
353 2 -4.85833 10.4493 8.71023
113 2 0.993182 9.2163 7.9673
98 2 -4.06399 11.6672 0.464597
111 2 -0.396049 8.29512 0.90893
132 2 -5.01708 12.5745 5.4567
133 2 -5.23313 10.8277 6.03723
157 2 -1.35631 9.968 4.63509
158 2 -2.24967 10.4856 3.01174
159 2 -3.16839 10.7266 4.66304
348 2 -5.01647 10.1575 4.46699
210 3 -3.47676 8.44155 8.83304
211 3 -1.48304 8.36588 7.00521
213 3 -2.99945 10.4165 7.21556
214 3 -3.60849 13.0084 8.81536
228 3 0.563117 8.2015 5.09354
240 3 1.54374 9.09227 2.5943
241 3 -1.29932 13.3086 3.51224
242 3 -2.54165 12.8191 6.02389
155 2 1.94995 7.25508 0.087693
327 2 -6.57592 12.8756 3.55488
246 3 -0.473443 12.7834 9.03222
247 3 0.187243 11.9021 5.4745
321 1 -2.20289 7.66874 1.11332
322 2 -1.79079 8.07064 2.14042
323 2 -3.22027 8.23247 0.771646
324 1 -5.97018 12.2411 2.8155
68 1 -2.19413 7.26372 4.53402
326 2 -4.86942 12.3587 2.95889
127 2 -1.87531 7.73999 3.51277
182 2 -4.01246 8.6253 5.98958
162 2 1.01532 7.25072 8.59392
325 2 -6.35295 12.3532 1.69582
243 3 1.07286 10.5884 0.310263
128 2 -3.25076 7.65182 4.93686
112 2 -0.141897 13.4781 1.15975
245 3 -1.08922 10.1493 9.20267
152 2 3.60981 7.18461 3.96824
161 2 2.84113 7.09502 9.10128
17 4 -3.6159 7.49299 10.1072
21 4 -1.26917 7.57542 12.0303
22 4 -3.81201 12.0485 17.3779
24 4 -6.10412 11.5874 10.3468
26 4 -1.41034 9.86823 14.1814
27 4 -5.6396 10.6643 15.3091
28 4 -3.87053 11.8624 12.7332
92 1 -6.53106 12.1018 14.3882
49 4 -1.19009 11.5936 9.79885
51 4 2.79245 8.29619 14.732
52 4 -0.958167 12.3108 16.0536
72 1 -1.88638 8.87357 15.6551
81 1 -0.0798387 11.378 11.2873
163 2 0.941646 11.8726 11.0699
254 3 -2.39331 12.122 16.7646
352 2 -1.72772 8.51956 17.9911
190 2 -6.01491 12.9435 14.986
100 2 -4.42453 10.0149 14.2468
101 2 -4.79793 12.9319 13.7619
114 2 -2.85534 12.1166 9.97518
135 2 -3.70191 7.10484 14.0417
137 2 -0.839505 8.74062 16.1668
138 2 -2.19342 7.87526 15.2228
139 2 -2.63398 9.33875 16.3302
232 3 -0.0211137 7.17816 10.8854
358 2 -2.10317 13.6798 13.6017
191 2 -6.3478 12.1981 13.2611
164 2 -0.0379513 10.2893 11.4345
165 2 -0.661498 11.8442 12.1238
136 2 -4.02642 8.05489 15.6244
99 2 -4.34784 13.6405 17.8274
208 3 -2.71959 7.96329 11.4476
212 3 -6.27656 13.0222 9.52203
215 3 -0.723954 8.89823 13.0706
216 3 -4.8222 11.1666 16.567
217 3 -4.65592 11.6167 11.4252
218 3 -3.1225 10.728 13.5712
357 2 -2.36264 13.282 11.6978
115 2 2.14754 9.59115 13.7754
250 3 1.72772 7.54808 15.5025
252 3 -0.605929 11.1262 14.7125
253 3 0.182986 12.2761 17.1127
82 1 -2.93389 13.5039 12.8116
364 2 -6.51654 12.2436 17.2708
1 4 14.0257 1.17769 5.51634
350 2 9.67766 1.58099 1.18873
286 4 13.6917 0.0239946 2.34904
4 2 12.3619 0.669293 7.22856
6 3 14.2467 0.464733 3.73783
56 4 6.49415 6.82143 4.69093
34 4 6.71989 2.6277 6.62676
39 4 5.47834 4.89754 8.5147
349 2 13.4434 1.47893 1.45549
53 4 8.66834 2.67237 4.0126
55 4 9.55143 5.00493 1.91768
351 2 13.288 3.0029 4.28536
340 2 11.6716 0.531776 1.11531
85 1 10.3065 2.21234 4.85284
88 1 10.3403 6.59712 2.42519
90 1 10.7139 5.23639 6.02139
166 2 10.3361 0.20612 4.62132
170 2 10.6119 3.3943 5.29794
171 2 11.0682 1.77248 4.11688
172 2 10.1091 1.56666 5.74518
310 4 11.4511 4.37668 9.19988
227 3 5.4607 4.16026 1.7863
180 2 10.3858 6.31954 3.57722
184 2 10.7224 4.90153 4.93973
185 2 9.93562 4.69351 6.80422
186 2 11.6933 5.60092 6.39281
189 2 9.73051 6.32196 8.36409
222 3 7.44661 1.43997 7.60267
230 3 6.37579 3.95732 7.42664
341 2 11.6637 1.51496 2.85765
255 3 8.22722 1.36408 3.1036
256 3 7.65617 2.7645 5.32361
258 3 8.99961 4.06348 3.16288
259 3 10.7064 3.98821 1.08429
260 3 5.8818 5.50956 4.02021
263 3 8.2595 5.54155 0.539747
308 4 10.3647 2.76139 0.167515
313 2 11.5096 4.20853 7.45761
339 1 11.9103 0.546522 2.27278
320 2 12.5271 2.85858 6.09229
338 2 8.68257 0.413097 0.0357266
266 3 8.08944 6.57405 5.38791
32 4 8.20743 0.182223 8.2566
59 4 9.44982 6.82042 6.12073
318 1 13.4809 2.99103 5.39705
233 3 4.59223 5.9555 7.7271
316 2 9.34863 3.63688 9.01335
336 2 10.6317 0.0445311 0.402993
187 2 7.85588 6.73807 8.17687
334 2 7.58734 4.03305 0.0162185
12 4 14.4414 1.10332 10.6999
20 4 11.035 5.83952 15.9593
331 1 7.29413 2.85683 18.2465
54 4 12.0398 0.844977 12.8803
57 4 8.58119 6.34571 17.7642
60 4 10.6407 3.6369 13.4322
317 3 11.7572 5.78201 9.72243
73 1 9.34967 0.93966 9.63562
141 2 9.35615 2.05519 9.74415
87 1 13.0868 0.638122 14.4909
105 2 6.96679 3.50478 12.3108
169 2 7.6949 0.648034 15.7982
117 2 8.98559 3.42829 13.7409
119 2 10.4778 4.57308 11.9667
120 2 10.0812 6.46271 13.144
365 3 11.8263 2.04559 17.8395
346 2 13.0766 3.38341 15.9588
140 2 10.3051 0.437427 9.33408
332 2 6.85833 2.85112 17.196
272 3 7.84324 6.10271 11.5926
176 2 13.4243 1.73279 14.8523
173 2 9.92663 0.240829 12.0756
257 3 13.135 0.612806 11.5513
262 3 9.65409 5.69185 16.6932
264 3 6.47549 5.7536 9.52194
58 4 6.42598 6.48607 10.8685
267 3 11.304 2.2783 13.0907
268 3 11.3157 4.46109 14.658
269 3 5.60523 5.3673 15.4785
204 3 13.9557 2.20982 9.57945
283 4 13.1508 2.24742 17.1398
284 2 13.5512 0.705538 16.4243
265 3 5.17007 6.16879 11.7906
309 2 9.21626 2.83205 17.6986
315 2 10.2833 3.26244 10.7996
311 1 9.8217 4.14789 10.1094
312 2 12.6913 3.28864 9.65254
314 2 9.13956 4.93294 10.5712
270 3 7.038 6.59956 17.1833
333 2 7.98021 1.94559 18.4423
355 2 8.8342 0.329216 10.4744
61 4 6.22919 6.77984 15.8488
177 2 12.1696 0.0486109 15.0728
362 2 13.9659 -0.0382812 14.242
361 2 3.81437 13.3237 2.79253
335 1 1.78423 13.546 0.500926
50 4 1.63901 12.1202 6.18441
83 1 2.45674 12.8543 4.60748
89 1 10.3315 8.48502 5.46364
91 1 8.90115 7.07805 7.97049
121 2 6.66788 7.96925 3.35733
307 3 7.45845 10.5437 4.34944
249 3 1.71128 13.4797 7.21564
167 2 1.65341 12.5777 3.78132
168 2 3.47802 12.2782 4.42555
181 2 10.4284 8.40727 4.31121
3 2 4.05839 13.4209 5.67918
183 2 9.46655 9.19402 5.82323
2 1 4.99256 13.7965 6.42618
188 2 9.1379 8.18634 8.35633
178 2 9.45544 7.30588 2.29524
306 3 6.19897 12.726 1.39104
108 2 3.03037 9.44305 4.87271
248 3 2.54552 10.8673 6.69175
273 3 3.309 9.93471 8.99501
261 3 5.38511 7.4311 5.61935
5 2 5.55322 12.954 6.8555
285 4 8.89757 10.5398 3.45247
305 3 7.42682 10.3525 0.0718987
287 4 7.83437 9.01425 0.882473
337 2 1.56689 13.1162 1.53671
289 4 6.1222 10.6245 5.16079
290 1 6.11649 8.3761 1.55765
291 1 4.59512 10.1701 3.89316
292 1 5.99932 9.66748 6.75754
293 2 5.56259 12.2667 5.31995
294 2 6.30195 7.3548 1.76329
295 2 5.52003 8.48881 0.479031
296 2 5.56886 9.05205 2.5071
297 2 3.7556 10.9019 4.29448
298 2 4.68909 9.06712 4.3621
299 2 4.39358 10.0741 2.80128
300 2 6.86322 9.02094 6.94799
301 2 5.01805 9.14211 6.92627
302 2 6.12268 10.6124 7.42824
329 2 8.60766 9.97834 8.61822
304 3 8.69777 9.51334 2.19127
41 4 4.19936 6.95612 6.50117
244 3 3.29871 8.24641 7.00005
156 2 3.27377 8.29752 1.12011
48 4 2.57673 9.56182 7.63189
179 2 11.3872 7.00239 1.96702
154 2 3.16953 8.51226 17.6883
62 4 9.1212 7.22872 11.9413
63 4 3.96282 10.3661 10.4079
64 4 7.59979 8.91293 13.957
65 4 4.13953 10.891 16.5162
66 4 6.55566 10.7041 11.7516
71 1 10.8977 7.31725 14.7623
195 2 2.97923 9.06058 12.0045
93 1 4.30699 12.2457 10.181
94 1 2.92548 10.2559 12.0109
95 1 4.40164 11.4107 14.6708
116 2 6.30559 8.19641 10.5268
118 2 4.92067 7.76263 16.1434
122 2 5.57907 12.1434 11.66
47 4 1.59021 11.9634 17.8151
175 2 2.74692 12.2539 12.4262
363 2 7.59364 11.9833 14.72
342 1 7.76897 12.8114 17.4633
194 2 3.76305 12.7108 11.1726
344 2 7.07354 12.7766 16.4859
193 2 5.27214 12.6664 10.0073
197 2 3.40606 10.7885 12.9754
198 2 3.73692 12.2006 14.0754
199 2 4.59009 10.384 14.0993
200 2 5.44876 11.9661 14.9635
288 4 6.82051 11.5299 18.3721
271 3 9.97892 7.56973 10.6552
134 2 9.89808 7.58652 14.3676
274 3 6.93702 7.54813 14.5966
275 3 8.68766 8.57444 12.711
276 3 8.50261 9.64299 15.2552
277 3 3.90565 9.06481 16.1102
278 3 5.37654 11.2959 17.335
279 3 2.84577 11.7694 16.8069
280 3 7.90389 11.191 11.0565
281 3 5.81649 9.70079 10.736
282 3 6.55269 10.1813 13.2521
86 1 2.73554 13.3594 12.795
330 2 9.65067 9.12206 9.8805
174 2 2.16517 13.4433 13.8188
251 3 3.65178 7.49799 13.6392
196 2 1.82255 10.6459 11.7943
303 3 8.9424 7.76592 18.3248
328 1 9.47806 10.0785 9.28514
345 2 7.59032 13.6563 10.0081
192 2 3.55954 12.3428 9.26627
ITEM: TIMESTEP
200
ITEM: NUMBER OF ATOMS
365
ITEM: BOX BOUNDS xy xz yz pp pp pp
-7.7317999999999998e+00 1.5563499999999999e+01 -7.7317999999999998e+00
-1.3819999999999999e-01 1.3846299999999999e+01 2.4629999999999999e-01
0.0000000000000000e+00 1.8505421999999999e+01 -1.3819999999999999e-01
ITEM: ATOMS id type x y z
80 1 1.62006 6.80002 8.90732
8 2 0.225856 3.30361 1.71114
226 3 3.64551 3.91718 3.88383
153 2 2.21337 6.65599 2.3614
11 4 2.96388 0.154649 8.98594
13 4 1.41798 1.89438 7.0824
160 2 1.89891 5.93263 8.27066
29 4 7.10809 0.500147 2.3842
30 4 2.43156 3.06677 4.37777
31 4 5.42454 2.69332 0.99828
319 2 -0.986853 3.45894 5.78761
220 3 5.81493 1.36128 1.94946
69 1 -0.39227 5.76801 6.6352
74 1 1.29465 2.18021 2.99617
75 1 5.01484 1.91857 6.29195
77 1 2.544 6.76256 3.48946
96 2 -0.89965 4.53288 8.10449
102 2 0.720636 3.62072 3.37994
131 2 -1.40144 5.35189 6.89391
109 2 3.12245 6.27343 5.30654
126 2 -1.90765 6.07614 4.44436
107 2 3.94715 6.09866 2.25698
129 2 0.354348 6.03155 7.50989
130 2 0.0545183 5.32428 5.73232
142 2 1.58635 2.18364 1.93037
143 2 0.463119 1.45437 3.2158
144 2 2.67146 1.32789 3.8676
145 2 5.09622 0.697445 6.26333
146 2 4.88134 2.35065 5.25838
147 2 4.30777 2.32692 7.07155
151 2 2.36343 5.83636 4.15855
37 4 4.72408 4.80349 3.12227
347 2 -2.51185 6.00799 0.988356
219 3 2.00275 2.98204 5.91035
201 3 -0.0768092 1.25791 6.47209
202 3 2.49705 0.631791 7.39257
205 3 0.960471 2.66873 8.40705
7 4 0.194522 3.37575 0.00548979
233 3 4.32741 5.86397 7.7305
227 3 5.33719 4.08739 1.86024
16 4 -0.0848274 3.46777 9.1876
14 4 0.689632 2.84303 12.9721
360 2 5.68117 0.781705 15.2168
19 4 -1.09519 5.21737 13.9237
33 4 3.67927 2.89032 10.287
35 4 3.2108 2.62515 17.314
40 4 1.10354 6.21515 10.5881
42 4 4.54049 4.34814 14.8126
9 2 0.58114 4.89341 18.3631
44 4 3.58185 6.34597 12.8377
67 1 0.731581 1.85445 14.686
76 1 3.39047 1.03693 16.2536
43 4 0.925862 6.22254 16.0324
36 4 5.58673 2.69657 12.708
103 2 2.09529 3.5615 10.5382
104 2 2.19785 2.69258 13.7669
110 2 2.13949 5.00296 16.0317
123 2 0.244042 0.925131 14.2603
124 2 0.0506196 2.52818 15.3283
125 2 1.69656 1.56131 15.2515
343 2 0.601528 0.0626427 18.0188
149 2 4.30955 0.402385 16.5053
150 2 3.41808 1.5503 15.2193
10 3 -0.879279 2.69566 17.8984
203 3 0.402152 1.74816 11.9201
207 3 -3.00934 6.30583 16.8243
206 3 -0.20418 4.0373 13.358
359 2 7.30027 0.394851 14.4192
209 3 -1.71476 6.28951 12.9226
221 3 3.42971 1.48652 9.73449
229 3 4.56481 3.75808 9.27572
224 3 1.74167 2.49699 18.0317
225 3 4.42005 2.82743 11.663
231 3 0.688276 4.28524 10.2691
234 3 3.39021 3.90441 16.3781
106 2 6.28185 1.08101 12.5921
236 3 -0.133457 5.68291 15.1035
238 3 2.27882 6.28691 11.737
239 3 3.52909 5.12511 13.7963
235 3 5.27813 2.99371 14.2547
356 2 3.92656 0.429526 12.7826
148 2 2.39303 0.488389 16.4957
237 3 0.190761 6.24141 17.531
84 1 6.82107 0.426741 15.4016
15 4 -1.74058 6.6554 17.8099
223 3 4.42047 2.37373 18.4926
18 4 -0.724995 7.4728 5.71672
23 4 -2.31957 9.28521 8.03444
25 4 -3.48456 12.0568 6.98018
38 4 1.76453 8.44433 3.96009
45 4 1.11901 9.24316 0.992696
46 4 -1.18615 12.3148 4.84906
70 1 -5.14279 11.9933 6.11857
78 1 2.42334 8.18084 0.115046
79 1 -1.7642 10.7257 4.01117
354 2 -5.94727 12.4906 6.79086
353 2 -5.33751 10.5931 8.12679
113 2 1.07193 9.115 7.98218
98 2 -3.76015 11.5551 0.389694
111 2 -0.495508 8.55382 0.711923
132 2 -5.03205 12.5594 5.0379
133 2 -5.29785 10.8824 5.9631
157 2 -1.11229 9.95354 4.50566
158 2 -1.76756 10.5574 2.90348
159 2 -2.80878 10.6499 4.43834
348 2 -4.89192 9.95538 4.18308
210 3 -3.39534 8.56261 8.95073
211 3 -1.48888 8.32874 6.89035
213 3 -3.1422 10.5285 7.28034
214 3 -3.62322 12.8557 8.80225
228 3 0.580669 8.03673 5.01495
240 3 1.38193 9.18054 2.53772
241 3 -1.02427 13.3206 3.56847
242 3 -2.47533 12.9114 6.14314
155 2 1.9328 7.20288 0.118221
245 3 -1.18484 10.0974 8.95037
246 3 -0.263245 12.7002 9.07284
247 3 0.183071 11.949 5.5275
321 1 -2.17675 7.66863 1.06154
322 2 -1.68124 8.05771 2.03268
323 2 -3.0977 8.29345 0.814636
324 1 -6.21953 12.1217 2.5713
68 1 -2.00085 7.21996 4.34859
326 2 -5.12605 12.2872 2.93057
127 2 -1.56347 7.62937 3.32749
182 2 -3.86447 8.33912 5.91443
162 2 0.611249 7.43122 8.61119
325 2 -6.33496 12.0058 1.43394
243 3 1.16474 10.6374 0.294384
128 2 -3.07192 7.61401 4.62438
112 2 -0.0856244 13.392 1.11433
179 2 -3.82061 6.9413 1.91778
161 2 2.56776 7.46739 9.20642
17 4 -3.68587 7.51438 10.103
21 4 -1.28144 7.6444 12.0821
22 4 -3.79163 11.9403 17.3195
24 4 -6.04432 11.6372 10.3763
26 4 -1.41472 9.98157 14.151
27 4 -5.55063 10.5804 15.2243
28 4 -3.82899 11.9322 12.6251
92 1 -6.41208 12.167 14.5812
49 4 -1.09904 11.5201 9.6967
51 4 2.79181 8.40511 14.8318
52 4 -0.961827 12.5049 16.0403
72 1 -1.93225 9.10644 15.6865
81 1 -0.229373 11.3214 11.3094
163 2 0.450765 12.1741 11.5431
254 3 -2.46767 12.2113 16.5807
352 2 -1.72354 8.46466 17.904
190 2 -5.84737 13.0415 15.0894
100 2 -4.33333 10.0153 14.0945
101 2 -4.75682 12.9978 13.8116
114 2 -2.77457 11.9838 9.89046
358 2 -2.24114 13.6918 13.6896
137 2 -1.16122 9.44985 16.5068
138 2 -1.73961 8.00609 15.2967
139 2 -2.99348 9.2282 16.0052
232 3 -0.0696953 7.12266 11.0858
195 2 2.65408 9.05843 11.9102
191 2 -6.52209 12.2654 13.4607
164 2 0.283497 10.2064 11.4506
165 2 -1.23536 11.4258 11.9745
82 1 -2.85023 13.5805 12.8214
99 2 -4.48336 13.4689 17.6666
208 3 -2.62552 8.00692 11.2694
212 3 -6.18302 13.1445 9.69138
215 3 -0.751169 8.91915 13.0614
216 3 -4.73299 11.0201 16.5087
217 3 -4.76753 11.6523 11.4892
218 3 -3.13411 10.7231 13.3643
357 2 -2.33237 13.4071 11.7735
115 2 2.14246 9.6746 13.8195
250 3 1.66601 7.46806 15.5083
252 3 -0.612358 11.302 14.6869
253 3 0.214158 12.4447 17.1577
154 2 2.93725 8.43493 17.5349
1 4 14.001 1.05186 5.51798
350 2 10.0384 1.42298 1.01725
286 4 13.7228 -0.0134345 2.3739
4 2 12.4133 0.777843 7.22303
6 3 14.206 0.375605 3.81982
56 4 6.44996 6.79204 4.70566
34 4 6.76697 2.61296 6.75265
39 4 5.40876 4.89209 8.47188
349 2 13.5189 1.49541 1.4152
53 4 8.58175 2.55232 3.96755
55 4 9.52686 5.00718 1.92049
351 2 13.2858 3.12683 4.24059
340 2 11.7913 0.587877 0.901749
85 1 10.2579 2.29167 4.79785
88 1 10.458 6.4881 2.46413
90 1 10.7082 5.30831 5.88796
166 2 10.3495 0.241419 4.60062
170 2 10.4825 3.4486 5.23082
171 2 11.0042 1.94775 4.07348
172 2 10.1964 1.53967 5.69752
333 2 7.72151 2.01785 0.237457
316 2 9.23649 3.73868 9.23812
180 2 10.6654 6.32398 3.55228
184 2 10.9243 5.09448 4.81386
185 2 9.89633 4.62753 6.432
186 2 11.6302 5.61703 6.53412
189 2 9.65506 6.62977 8.54423
222 3 7.43937 1.48032 7.69541
230 3 6.45291 3.97323 7.39309
341 2 11.5837 1.40503 2.74254
255 3 8.45246 1.3468 2.86608
256 3 7.50379 2.56346 5.25157
258 3 8.82581 4.12043 3.11796
259 3 10.63 4.1264 1.09556
260 3 5.86577 5.49977 4.01396
263 3 8.20096 5.55328 0.589037
308 4 10.4201 2.8655 0.153153
313 2 11.2348 4.34627 7.54567
339 1 11.9487 0.541289 2.05242
320 2 12.4515 2.76012 5.91981
334 2 7.53641 3.98689 0.252846
266 3 8.02253 6.69691 5.39803
32 4 8.33835 0.156507 8.3959
59 4 9.38119 6.83239 6.12111
318 1 13.445 2.8122 5.29331
338 2 8.87735 0.369837 0.145641
12 4 14.4825 1.24284 10.9375
20 4 10.9577 5.90934 15.9202
331 1 7.33493 2.77995 18.4592
54 4 12.0395 0.811115 12.9164
57 4 8.55241 6.45982 17.8113
60 4 10.6058 3.51876 13.4671
317 3 11.8902 5.92035 9.66822
73 1 9.39272 0.872089 9.76752
141 2 9.42683 2.08213 9.91637
87 1 13.1001 0.323021 14.5082
105 2 6.97034 3.54012 12.3167
169 2 7.3622 1.01618 16.2533
117 2 9.05346 3.22245 13.6527
119 2 10.4896 4.49494 12.1099
120 2 10.0663 6.14376 13.1318
365 3 11.8191 2.42057 17.6857
346 2 13.2299 3.25926 15.6898
140 2 10.3856 0.522715 9.55351