ITEM: TIMESTEP
0
ITEM: NUMBER OF ATOMS
365
ITEM: BOX BOUNDS xy xz yz pp pp pp
-7.5933370000000000e+00 1.5563499999999999e+01 -7.5933370000000000e+00
-1.3819999999999999e-01 1.3846299999999999e+01 2.4629999999999999e-01
0.0000000000000000e+00 1.8322199999999999e+01 -1.3819999999999999e-01
ITEM: ATOMS id type x y z
7 4 1.03486 3.21363 0.215362
8 2 2.09342 2.12499 1.23203
9 2 1.57312 4.64522 0.868497
10 3 -0.400757 2.98289 0.754763
11 4 2.96132 0.583067 8.85202
13 4 1.30283 2.37517 6.97153
347 2 -2.87597 6.05472 1.01243
29 4 6.5428 0.73813 2.43658
30 4 2.77018 2.94097 4.20073
31 4 5.2007 2.86311 0.694895
37 4 4.62871 5.07155 2.76574
68 1 -2.28374 5.98872 4.90119
69 1 -0.679136 6.28714 7.519
74 1 2.35769 1.35495 2.95422
75 1 5.23816 2.42317 6.11192
129 2 -1.09007 6.83667 8.47499
107 2 3.57053 6.3939 2.56174
102 2 1.38797 2.73275 2.81532
131 2 -1.18228 5.23068 7.22876
109 2 3.08272 6.00128 5.03872
126 2 -1.53661 5.14039 4.81653
127 2 -2.44988 6.43826 3.87601
161 2 2.58628 5.37786 8.96894
130 2 0.509883 6.15186 7.61967
142 2 2.93625 1.20475 2.01795
143 2 1.60221 0.52875 3.19211
144 2 3.6828 1.32951 4.12812
145 2 5.09202 1.31691 6.45161
146 2 5.33015 2.51362 4.93504
147 2 4.54345 3.17177 6.55634
151 2 1.51526 6.15138 4.44141
96 2 -1.23052 4.96724 8.88513
153 2 1.84405 6.648 2.49272
319 2 -1.31891 3.76477 5.12141
201 3 0.0507546 1.39306 6.33526
202 3 2.18327 1.56714 7.92894
205 3 0.778335 3.74568 7.77785
219 3 2.10093 2.92933 5.60085
220 3 5.36561 1.76487 1.91358
226 3 3.89377 4.03058 3.71275
227 3 4.73121 4.39616 1.32355
80 1 2.14159 6.54939 9.08131
233 3 4.65537 5.4604 7.07915
354 2 1.87329 0.003373 6.22289
160 2 1.61586 6.8164 8.09425
77 1 1.97098 6.89488 3.65159
14 4 0.339852 2.54478 12.9103
346 2 -1.21109 3.68783 16.2
19 4 -1.30537 5.006 13.7029
33 4 3.86879 3.05353 10.3508
35 4 3.55594 2.68636 16.6331
40 4 1.29238 6.18285 10.715
42 4 4.98221 4.62327 14.7948
43 4 0.358403 6.00613 16.102
99 2 4.31753 0.23905 17.2823
67 1 0.439466 1.58645 14.6775
76 1 3.90557 1.3402 15.3248
358 2 5.66003 0.565216 13.0717
204 3 -1.02378 2.4541 9.49027
103 2 2.1804 3.52632 10.5621
104 2 1.88685 2.57534 13.7867
110 2 1.19964 4.57358 16.2497
123 2 0.836915 0.518294 14.5789
15 4 -2.10241 6.48085 17.7529
125 2 0.842551 2.1597 15.6475
148 2 3.11265 0.480977 15.4816
149 2 4.92993 1.00175 15.4306
150 2 3.76265 1.9163 14.3849
237 3 -0.454556 6.31532 17.521
203 3 0.341788 1.65329 11.6542
283 4 -1.16092 2.54204 17.454
206 3 -0.492111 3.90211 13.0487
44 4 3.47482 6.49699 13.0276
209 3 -1.56619 6.23513 12.7903
221 3 3.77334 1.48551 9.89184
223 3 4.14121 1.8511 17.8031
224 3 1.6329 3.03024 17.0577
225 3 4.72909 3.22629 11.7299
231 3 0.852513 4.25559 10.5178
234 3 4.45547 3.97209 16.2863
16 4 -0.0764383 3.7578 9.24171
236 3 -0.632715 5.49923 15.0278
238 3 2.27233 6.44647 11.994
239 3 3.61392 5.13704 13.8822
345 2 0.146784 0.0667967 9.52757
229 3 4.55045 3.95853 9.32996
106 2 6.80536 1.6302 12.0607
356 2 6.18766 0.295287 11.2622
235 3 5.93107 3.27269 13.9529
18 4 -1.33822 7.28588 6.07654
23 4 -2.9709 9.2804 7.81826
25 4 -3.9444 12.4084 6.70753
38 4 1.08502 8.47479 4.30394
45 4 0.375473 9.07328 1.30661
46 4 -1.55489 12.3539 4.46804
70 1 -5.54726 12.7911 5.90558
78 1 1.6615 7.91401 0.726341
79 1 -1.87597 10.7757 3.5111
111 2 -1.30678 8.53588 1.17824
353 2 -5.27933 10.4466 8.44665
321 1 -2.94026 8.33126 0.107089
182 2 -3.90978 7.26862 4.92462
156 2 2.41644 7.94636 1.64893
132 2 -5.63072 12.5021 4.73473
152 2 3.10244 7.49267 3.87512
157 2 -0.907987 10.1999 3.58381
158 2 -2.2315 10.9547 2.48511
159 2 -2.67624 10.3469 4.2189
348 2 -4.50835 9.50392 4.28479
210 3 -3.79766 8.35186 8.85996
211 3 -2.41779 8.39325 6.57896
213 3 -3.98178 10.5619 7.29932
214 3 -3.76427 13.4255 7.93899
228 3 -0.09282 7.85857 5.14189
240 3 0.719086 9.26997 3.01592
241 3 -1.67974 13.5637 3.4473
242 3 -2.80132 12.4472 5.57974
243 3 0.566497 10.3776 0.415315
245 3 -1.73784 10.0679 8.5699
246 3 -0.761784 12.6045 8.57416
247 3 0.0293624 11.8752 5.26472
155 2 0.979212 6.93778 0.753059
322 2 -3.05758 8.45054 1.23513
112 2 -0.582261 13.6637 1.08611
324 1 -5.80176 12.0098 2.80558
325 2 -5.89065 11.7401 1.66256
326 2 -4.62533 12.0676 3.16721
327 2 -6.42172 12.9092 3.1459
113 2 1.73303 8.40063 8.55338
108 2 2.11489 9.38768 5.40319
133 2 -6.23405 12.0688 6.53737
338 2 0.55887 12.652 2.00074
251 3 3.35241 7.71753 14.0002
21 4 -1.25771 7.47304 11.8869
22 4 -2.89004 12.5837 16.6607
24 4 -5.8069 11.8723 10.4721
26 4 -0.935947 9.92091 13.9568
27 4 -4.90709 10.9581 15.0093
28 4 -2.96767 12.4033 12.5378
252 3 0.288942 10.7148 14.6661
232 3 -0.0264778 7.00857 10.7567
51 4 2.41649 8.18305 15.2936
52 4 -0.0926011 12.4319 15.49
72 1 -1.72597 8.85754 15.3147
81 1 0.123516 10.9948 10.6221
191 2 -5.81505 12.569 13.1891
92 1 -5.79602 12.4911 14.2801
115 2 1.48909 9.59299 14.9231
254 3 -1.64273 12.7729 15.6266
100 2 -3.85387 10.3772 13.7572
101 2 -4.12663 13.2529 13.5226
114 2 -2.88787 11.6899 10.223
136 2 -3.09449 7.51624 14.6793
137 2 -1.05128 9.17948 16.1982
138 2 -1.42762 7.82227 14.8628
139 2 -2.79538 8.98741 15.4858
154 2 2.4889 8.06041 18.008
98 2 -2.47807 11.9554 18.0835
163 2 0.0361938 9.90902 10.825
164 2 -0.108207 11.6984 11.4635
165 2 1.05576 11.2656 10.093
190 2 -5.27517 13.4572 14.8043
49 4 -1.31745 11.382 9.45259
208 3 -2.72927 7.95989 11.2508
212 3 -5.94959 13.2377 9.61635
215 3 -0.650915 8.66039 12.7822
216 3 -4.08236 11.6722 16.2169
217 3 -3.97727 12.0237 11.2447
218 3 -2.43766 11.0175 13.2791
357 2 -0.598881 13.0197 12.6244
253 3 0.448962 12.4723 17.0019
250 3 1.44435 7.04792 15.6867
352 2 -1.78456 8.75753 17.9066
17 4 -3.92385 7.5691 10.214
162 2 2.94764 7.3009 9.36832
47 4 1.3979 11.7104 18.0566
82 1 -1.58084 13.6566 12.2823
323 2 -3.72853 8.28066 17.8921
364 2 -7.20132 13.5705 17.5206
1 4 14.0957 1.13694 5.39086
349 2 14.3341 1.58296 1.47523
350 2 10.8701 0.891838 0.801542
4 2 12.1636 0.869011 6.52923
6 3 14.3324 0.181069 3.80544
318 1 13.2749 2.81438 4.94244
34 4 6.96122 2.70224 6.7617
39 4 5.41888 5.01426 8.43424
286 4 13.834 0.136311 2.29218
53 4 8.55968 2.73129 3.82861
55 4 9.70507 4.6849 1.63831
56 4 6.62763 6.65075 4.3283
59 4 9.17586 6.60407 6.19023
85 1 10.1915 1.85313 4.46929
88 1 10.974 6.05606 2.27805
90 1 10.328 4.95024 6.54528
41 4 4.26288 6.65989 6.10477
170 2 11.3084 2.28372 4.55231
171 2 10.1214 0.981072 3.7363
172 2 9.79178 1.5638 5.48804
178 2 10.7953 6.68567 3.26345
179 2 10.7166 6.72904 1.34384
180 2 12.0183 5.5256 2.30398
184 2 10.4806 4.34839 5.59753
185 2 9.64876 4.42272 7.28724
186 2 11.2857 5.13378 7.03234
316 2 9.74288 3.29939 8.72969
222 3 7.52573 1.37648 7.39441
230 3 6.78352 4.1569 7.92234
336 2 8.56633 0.134702 0.566856
255 3 7.76575 1.60622 2.97628
256 3 7.81662 2.94869 5.37338
258 3 9.02727 4.08947 3.03045
259 3 10.5212 3.5743 0.942233
260 3 5.99941 5.54296 3.35063
263 3 8.50633 5.45357 0.598723
266 3 7.87273 6.27113 5.42079
189 2 9.49123 6.56766 8.45611
128 2 11.9025 5.60231 5.53925
320 2 12.3989 2.57928 5.79622
341 2 11.7628 1.20922 2.31895
351 2 12.7806 2.8646 3.91423
308 4 11.0649 2.40229 0.00461367
313 2 12.435 3.44916 8.77929
334 2 7.38767 4.0144 0.0181762
140 2 10.1243 0.0811058 9.02883
333 2 7.5527 2.18923 0.163438
339 1 11.9273 0.0211839 2.22411
12 4 14.5933 1.19431 10.4763
20 4 10.9486 5.55333 15.6743
97 2 12.4661 4.26014 14.0534
54 4 12.0311 0.76307 12.2739
57 4 8.59962 6.35736 17.7136
60 4 10.3306 2.95891 13.7905
135 2 11.5181 6.42813 13.2455
73 1 9.13737 0.551197 9.30555
36 4 6.08065 3.184 12.4397
360 2 9.22194 0.43092 15.5005
105 2 7.24453 4.21434 11.7027
314 2 8.89895 4.48854 10.0041
117 2 9.6446 1.61283 14.6605
119 2 8.82886 3.55504 13.2194
120 2 9.87279 6.08178 13.0839
124 2 14.5354 1.61731 14.6096
272 3 7.61922 6.11807 11.5448
141 2 9.29679 1.65755 9.55787
174 2 9.41734 0.0621616 12.1509
317 3 11.5059 5.85984 9.98429
359 2 7.74346 0.604598 14.3296
177 2 12.8375 1.03053 14.3951
257 3 13.1119 0.579856 11.025
262 3 9.52964 5.88178 16.2652
264 3 5.91325 6.24553 9.40371
365 3 12.7587 2.09986 17.8564
267 3 11.1923 2.50602 12.6212
268 3 11.0105 3.94302 14.7813
269 3 5.959 5.86067 14.9378
315 2 9.68468 2.89273 10.7013
331 1 7.08316 2.8691 18.1246
332 2 6.89177 2.75122 16.9706
312 2 11.6697 3.50507 11.4079
309 2 10.2034 2.05673 17.08
310 4 11.4307 4.29335 9.86962
311 1 9.66083 3.68382 9.89723
87 1 13.0729 0.0959093 13.7252
270 3 6.95447 6.62173 17.2944
207 3 12.1719 5.91037 16.6978
58 4 6.24392 6.71516 10.9317
176 2 14.1673 0.0155963 13.4686
265 3 4.96674 6.5806 11.9101
84 1 8.60261 -0.0584216 14.6632
71 1 11.3027 6.78594 14.3046
284 2 14.7564 1.3011 16.4419
355 2 8.63525 0.0132497 10.1412
3 2 4.77516 13.0099 5.66144
48 4 3.03674 9.11557 7.66839
50 4 1.53673 11.8605 5.88498
83 1 2.67306 12.195 4.43204
89 1 10.363 7.73644 4.94041
91 1 8.73917 7.37487 7.88571
121 2 7.21026 7.92824 3.31173
187 2 7.63931 7.09947 8.01734
166 2 2.00631 12.9667 3.91634
167 2 2.63009 11.102 3.95868
168 2 3.77016 12.5695 4.72882
181 2 9.70937 7.72144 3.98501
32 4 0.466012 13.7414 7.89777
183 2 10.1731 8.62609 5.73668
2 1 5.33347 13.7844 6.32363
188 2 8.99018 8.38296 8.25453
192 2 5.25315 12.2896 8.02119
361 2 3.76904 13.2489 3.01802
244 3 3.61659 7.92171 6.87747
340 2 4.27186 13.4124 1.11123
249 3 1.59373 13.0023 6.93349
261 3 5.47293 7.32981 5.22483
273 3 4.20682 9.84059 8.64453
285 4 9.40239 10.254 3.48242
337 2 2.41505 13.3152 1.65425
287 4 8.13995 9.06293 0.886903
5 2 5.80284 13.3477 7.26522
289 4 6.74024 10.7134 5.25914
290 1 6.35925 8.46038 1.54992
291 1 5.29221 10.4005 3.89401
292 1 6.684 9.61534 6.69257
293 2 6.55906 12.4373 5.63744
294 2 6.41967 7.33011 1.72588
295 2 5.88705 8.75317 0.560729
296 2 5.95919 9.13506 2.51039
297 2 4.34986 11.02 3.96482
298 2 5.03983 9.32157 3.8542
299 2 5.92369 10.8004 3.00929
300 2 6.6751 10.4899 7.49739
301 2 7.42779 8.74009 6.9822
302 2 5.56379 9.24293 6.55574
335 1 1.3713 13.1188 1.20225
304 3 9.02176 9.25794 2.21368
305 3 7.80519 10.4133 0.202028
306 3 6.60265 12.7383 1.32653
307 3 8.1936 10.3618 4.52177
248 3 2.31596 10.2237 6.72611
93 1 5.25454 12.3097 9.1588
329 2 8.23925 10.4928 9.0628
288 4 7.05035 11.4757 18.2325
62 4 8.91257 7.09243 12.0745
63 4 4.89532 10.5393 9.85254
64 4 7.92191 9.14141 14.1828
65 4 4.02009 10.5684 16.7086
66 4 7.02112 11.1136 12.1341
195 2 2.74186 9.72348 10.8794
134 2 10.2492 7.35816 14.3574
86 1 2.84073 13.4307 11.9824
94 1 3.56484 10.3322 11.2655
95 1 4.28588 11.2324 15.0296
116 2 6.44701 8.41342 10.7581
118 2 4.79929 7.92161 16.4636
122 2 6.0656 12.4458 12.521
362 2 5.06367 12.974 14.1571
193 2 6.17286 12.8139 9.64493
175 2 3.19671 12.6906 12.8278
173 2 3.05631 13.0711 10.9173
194 2 4.2616 12.7433 9.52815
61 4 6.28209 7.15075 15.9935
196 2 3.23102 11.5011 11.5724
197 2 4.07841 9.78969 12.1604
198 2 3.55948 12.18 15.0962
199 2 3.87531 10.3675 14.3468
200 2 5.42315 11.4658 14.9404
363 2 8.46857 12.2073 14.7118
271 3 9.77539 7.739 10.8543
169 2 1.70172 13.5201 13.7077
274 3 6.99108 8.3491 15.2175
275 3 8.39529 8.25707 12.9641
276 3 9.33767 9.86044 15.1175
277 3 3.39285 8.61591 16.5753
278 3 5.42709 10.8229 17.5084
279 3 2.91889 11.4987 17.4175
280 3 8.3739 11.6944 11.5141
281 3 6.4454 10.1301 10.7546
282 3 7.04276 10.4234 13.5138
328 1 9.30598 10.3848 9.34606
330 2 9.48972 9.45221 9.96585
342 1 7.83173 12.5979 16.9884
343 2 6.95646 12.6216 16.2218
344 2 8.76023 11.9463 16.6936
303 3 9.08592 7.87323 18.1521
ITEM: TIMESTEP
100
ITEM: NUMBER OF ATOMS
365
ITEM: BOX BOUNDS xy xz yz pp pp pp
-7.5933370000000000e+00 1.5563499999999999e+01 -7.5933370000000000e+00
-1.3819999999999999e-01 1.3846299999999999e+01 2.4629999999999999e-01
0.0000000000000000e+00 1.8322199999999999e+01 -1.3819999999999999e-01
ITEM: ATOMS id type x y z
7 4 1.06703 3.19473 0.238372
8 2 2.08725 2.19994 1.28202
9 2 1.46052 4.63563 0.902208
10 3 -0.427098 2.82825 0.520658
11 4 2.89995 0.523248 8.83773
13 4 1.38239 2.54778 6.91069
347 2 -2.70003 5.79825 1.11618
29 4 6.65293 0.69524 2.47989
30 4 2.8643 3.02729 4.25499
31 4 5.20565 2.83857 0.829679
37 4 4.63831 5.10905 2.74434
68 1 -2.16212 5.99879 4.89006
69 1 -0.584726 6.44448 7.57366
74 1 2.6284 1.42237 2.96594
75 1 5.16288 2.28585 6.12473
77 1 2.05776 6.77475 3.70471
107 2 3.65125 6.52709 2.55561
102 2 1.36424 2.58945 3.12575
131 2 -1.16698 5.43419 7.19155
109 2 3.0894 5.93357 5.21253
126 2 -1.37741 5.24318 4.541
127 2 -2.43405 6.85857 4.04453
161 2 2.66035 5.48268 9.01227
130 2 0.61493 6.34631 7.56838
142 2 3.10107 1.16723 1.99634
143 2 2.14717 0.478243 3.31028
144 2 3.97688 1.45356 4.03355
145 2 4.87233 1.29947 6.62072
146 2 5.24656 2.2579 4.98102
147 2 4.57757 3.16917 6.53648
151 2 1.58423 6.0497 4.42722
96 2 -1.20261 5.26979 9.02244
153 2 1.8785 6.45758 2.60844
319 2 -1.47033 3.74056 4.70836
201 3 0.124325 1.71449 6.05
202 3 2.14892 1.59204 7.9101
205 3 0.598474 3.74588 7.71711
219 3 2.29387 3.16323 5.70078
220 3 5.4476 1.61136 1.9226
226 3 3.6834 4.15928 3.63416
227 3 4.72065 4.32602 1.3321
14 4 0.397775 2.55866 12.8991
346 2 -1.33169 3.89355 16.4476
19 4 -1.28345 5.07436 13.7307
33 4 3.7553 2.90778 10.275
35 4 3.61831 2.6443 16.6856
40 4 1.2066 6.30457 10.7686
42 4 4.95706 4.69177 14.7182
43 4 0.428795 6.05897 16.1619
99 2 4.50584 0.0870374 17.2913
67 1 0.45796 1.50932 14.5264
76 1 3.49781 1.5921 15.1533
358 2 5.68623 0.537785 13.1937
204 3 -0.912065 2.62953 9.62076
103 2 2.14897 3.37781 10.594
104 2 1.96286 2.53444 13.6267
110 2 1.13272 4.58801 16.5094
123 2 0.899806 0.440924 14.3885
15 4 -2.13878 6.35955 17.8788
125 2 0.979911 2.20875 15.3613
148 2 2.57315 0.967662 15.1047
149 2 4.40241 0.857109 15.3008
150 2 3.59013 2.15736 14.2006
237 3 -0.587345 6.39195 17.3884
203 3 0.116403 1.55116 11.7857
80 1 2.25695 6.55862 9.24729
206 3 -0.435504 3.84493 13.2668
44 4 3.56921 6.6432 12.9172
209 3 -1.65943 6.1014 12.554
221 3 3.78759 1.25889 9.95608
223 3 4.26951 1.69127 17.8121
224 3 1.73839 3.04991 17.0942
225 3 4.48277 3.00559 11.6771
231 3 0.911195 4.39259 10.2982
234 3 4.31982 4.09034 16.1854
16 4 -0.115799 3.92168 9.19883
236 3 -0.480835 5.67912 14.929
238 3 2.22594 6.48535 11.9152
239 3 3.7291 5.27048 13.7541
36 4 5.87849 3.1013 12.4489
229 3 4.37686 3.93875 9.29557
106 2 6.82233 1.6381 12.1504
356 2 5.50732 0.329959 11.2372
235 3 5.84811 3.22496 13.9585
284 2 -0.525223 1.50968 16.2824
359 2 7.44578 0.493986 14.2414
345 2 0.0406688 0.139207 9.60963
124 2 -0.713133 1.56261 14.6323
18 4 -1.28044 7.36135 6.02526
23 4 -2.91134 9.32252 7.79336
25 4 -3.85133 12.2158 6.73734
38 4 1.20821 8.41764 4.36075
45 4 0.252428 9.07249 1.28394
46 4 -1.49609 12.1755 4.58734
70 1 -5.56171 12.6316 5.92484
78 1 1.61547 8.12034 0.552001
79 1 -1.92446 10.6998 3.49975
111 2 -1.36684 8.41382 1.1133
353 2 -5.14676 10.5239 8.49767
108 2 2.1999 9.37992 5.3689
133 2 -6.15956 11.7491 6.41923
156 2 2.38831 8.06297 1.38594
132 2 -5.50314 12.3937 4.79501
152 2 3.10984 7.29879 4.04705
157 2 -0.924153 10.1964 3.26279
158 2 -2.28646 11.2874 2.57548
159 2 -2.67125 10.0498 3.90654
348 2 -4.66885 9.42262 4.40969
210 3 -3.7991 8.26893 8.8533
211 3 -2.42743 8.33215 6.62594
213 3 -3.92948 10.4865 7.1597
214 3 -3.67541 13.2986 7.95673
228 3 0.0682156 7.77828 5.25769
240 3 0.68895 9.12069 3.03445
241 3 -1.25733 13.4341 3.66053
242 3 -2.75766 12.3663 5.62504
243 3 0.251312 10.4301 0.456761
245 3 -1.62424 9.9574 8.52119
246 3 -0.50606 12.6127 8.67852
247 3 0.103223 11.7572 5.31981
155 2 1.00416 7.11409 0.322736
322 2 -3.52015 8.18802 0.960062
112 2 -0.391075 13.6583 1.10376
324 1 -5.48195 11.9167 2.80345
325 2 -5.81511 11.7708 1.67307
326 2 -4.33183 11.8004 2.94931
327 2 -5.82694 12.9642 3.13024
113 2 1.8604 8.4579 8.87667
354 2 -5.88712 13.6548 6.15752
129 2 -1.03888 6.86958 8.51684
160 2 1.59849 6.98778 8.29179
251 3 3.33569 8.00015 13.8673
21 4 -1.37551 7.48577 11.8389
22 4 -2.71353 12.4542 16.6781
24 4 -5.74986 12.0074 10.5204
26 4 -1.07865 9.77319 14.0677
27 4 -4.83604 10.8843 14.9264
28 4 -3.00017 12.4285 12.7184
252 3 0.432873 10.7486 14.5978
232 3 -0.080628 7.26867 10.6138
51 4 2.47133 8.21941 15.2505
52 4 0.0782711 12.3124 15.4749
72 1 -1.62594 8.90161 15.5678
81 1 -0.254262 10.6172 10.6889
191 2 -5.55576 12.4285 13.2394
92 1 -5.80753 12.4279 14.3662
115 2 1.46031 9.5709 14.8852
254 3 -1.46689 12.6992 15.6828
100 2 -3.79191 10.2273 13.7525
101 2 -4.09123 13.2581 13.7806
114 2 -2.88899 11.7665 10.221
136 2 -3.31958 7.79077 14.799
137 2 -0.8619 9.19968 16.3887
138 2 -1.67698 7.77755 15.3995
139 2 -2.66742 9.42463 15.7472
154 2 2.37658 8.31382 17.8662
98 2 -2.12971 11.723 18.0776
163 2 -0.0244733 9.55417 10.345
164 2 -1.08385 10.6398 11.5263
165 2 0.670905 11.3212 10.8462
190 2 -5.45019 13.4196 14.8475
49 4 -1.38673 11.3344 9.36141
208 3 -2.79656 8.03998 11.2386
212 3 -6.01676 13.2867 9.57146
215 3 -0.784733 8.66599 12.8853
216 3 -3.94207 11.6795 16.1575
217 3 -4.07691 12.0019 11.262
218 3 -2.34374 11.0788 13.3667
357 2 -0.748714 13.2448 12.2482
253 3 0.665295 12.4594 16.9673
250 3 1.57683 7.0665 15.8417
352 2 -2.10778 9.14511 18.2819
17 4 -3.94623 7.44411 10.1871
162 2 3.0506 7.25439 9.66392
321 1 -2.6942 8.18602 18.2818
82 1 -1.74116 13.7277 12.2302
323 2 -3.43505 8.19612 17.3705
1 4 14.1582 1.18781 5.27953
349 2 14.3391 1.38638 1.36515
350 2 10.625 1.00555 1.14439
4 2 12.424 1.0315 6.75928
6 3 14.1837 0.343257 3.91767
318 1 13.1953 2.84884 4.64567
34 4 6.88211 2.85492 6.66257
39 4 5.47063 4.93501 8.5297
286 4 13.851 0.0453985 2.30998
53 4 8.57957 2.68148 3.8508
55 4 9.81651 4.64399 1.60167
56 4 6.64156 6.64754 4.33312
59 4 9.18109 6.38259 6.19528
85 1 10.1414 1.70942 4.36671
88 1 11.0542 5.92082 2.32595
90 1 10.4482 4.74243 6.14235
41 4 4.30362 6.66702 6.24793
170 2 11.252 2.20533 4.46338
171 2 10.1241 0.923635 3.55736
172 2 9.7627 1.32185 5.39688
178 2 10.7072 6.44139 3.31855
179 2 10.9877 6.68652 1.38318
180 2 12.0845 5.33002 2.43971
184 2 10.8559 4.32145 5.23312
185 2 9.43694 4.13331 6.37381
186 2 11.1359 4.80546 7.0023
316 2 9.57316 3.1576 8.75622
222 3 7.51474 1.35497 7.32569
230 3 6.84885 4.00704 7.97183
336 2 9.03264 0.171452 1.12636
255 3 7.75364 1.69035 2.89919
256 3 7.70932 3.22167 5.23765
258 3 9.1487 4.04848 2.97225
259 3 10.6584 3.59614 0.782545
260 3 6.00547 5.57376 3.3099
263 3 8.5231 5.31871 0.604148
266 3 7.93961 6.32475 5.24861
189 2 8.89759 6.4514 8.49323
128 2 12.1442 5.50809 5.34974
320 2 12.5095 2.8091 5.56003
341 2 11.8684 1.24111 2.331
351 2 12.8505 2.50243 3.64865
339 1 11.9478 0.101347 2.31028
313 2 12.2793 3.69008 8.69945
334 2 7.49389 3.98485 0.143045
2 1 13.0424 0.0490447 6.42186
32 4 8.0607 -0.011205 7.93946
308 4 10.9373 2.29058 0.0600956
333 2 7.38229 2.04577 0.278003
233 3 4.75024 5.48618 7.24136
12 4 14.5193 1.27743 10.4774
20 4 10.945 5.6697 15.718
97 2 12.5526 4.32649 14.2621
54 4 11.9602 0.751324 12.2186
57 4 8.65153 6.32781 17.5821
60 4 10.251 3.09581 13.6875
135 2 11.6074 6.30543 13.5984
73 1 8.99179 0.607589 9.4943
140 2 10.0222 0.139796 9.26948
360 2 8.85644 0.557058 15.488
105 2 6.74361 4.40838 11.7688
314 2 8.67413 4.70084 9.67395
117 2 9.32328 1.78276 14.2578
119 2 9.22563 4.15631 12.9879
120 2 10.14 6.37734 12.8488
355 2 8.404 0.0137728 10.3271
272 3 7.51187 6.02218 11.4782
141 2 9.0196 1.75718 9.63454
174 2 9.32733 0.114398 12.0459
317 3 11.3395 5.79747 10.0494
176 2 13.9827 -0.0670973 13.4506
177 2 12.5964 0.940554 14.4766
257 3 13.0472 0.720511 10.917
262 3 9.57238 5.87582 16.3883
264 3 5.85649 6.2998 9.46553
365 3 12.5834 1.98823 17.7618
267 3 11.2204 2.55505 12.6121
268 3 11.1431 3.87749 14.8554
269 3 6.05134 5.81308 14.8933
315 2 9.2619 3.2418 10.77
331 1 7.11809 2.9107 18.2109
332 2 6.75024 2.87069 17.125
312 2 11.7353 3.42724 11.314
309 2 10.019 1.74846 17.2729
310 4 11.252 4.22482 9.90147
311 1 9.39478 3.80726 9.77182
87 1 12.8906 0.016161 13.7051
270 3 7.06125 6.61266 17.0946
207 3 12.2117 5.79139 16.7814
364 2 15.1591 0.0185222 17.6336
283 4 14.0653 2.47396 17.4361
84 1 8.43899 0.0368494 14.5762
3 2 4.70497 13.0794 5.8789
48 4 3.03442 9.00287 7.74384
50 4 1.58977 11.8825 5.98552
83 1 2.76076 12.3308 4.59693
89 1 10.3428 7.58238 5.00885
91 1 8.66718 7.31885 7.82793
121 2 7.19576 7.96588 3.36663
187 2 7.52578 7.48941 7.82721
166 2 2.14758 13.22 4.13884
167 2 2.66947 11.3701 3.94822
168 2 3.92463 12.65 4.82749
181 2 9.77885 7.85267 4.02052
182 2 11.4238 7.02971 4.94113
183 2 10.2253 8.37973 5.8874
329 2 8.36409 10.65 9.02401
188 2 9.31874 8.29696 7.99423
192 2 5.3432 12.3438 8.24776
361 2 3.80429 13.391 3.18097
244 3 3.46734 7.79443 6.91005
340 2 4.21838 13.4605 1.26653
249 3 1.68913 12.9822 7.07856
261 3 5.40577 7.25917 5.20725
273 3 4.31749 9.5042 8.68436
285 4 9.35461 10.2532 3.49435
337 2 2.53927 12.5268 1.60441
287 4 8.13995 9.11047 0.791175
5 2 5.99083 13.5604 7.36183
289 4 6.69691 10.6755 5.32242
290 1 6.50455 8.46691 1.57683
291 1 5.21822 10.3201 3.97972
292 1 6.72952 9.70839 6.84554
293 2 6.44353 12.3732 5.7217
294 2 6.71974 7.34336 1.74988
295 2 5.89539 8.62207 0.580586
296 2 6.04645 9.16994 2.57498
297 2 4.30678 11.0219 4.24254
298 2 5.0333 9.19164 3.99494
299 2 5.77813 10.6224 3.06076
300 2 6.83065 10.6601 7.57145
301 2 7.51243 8.82851 7.15697
302 2 5.67246 9.27023 6.76364
335 1 1.43185 12.9213 1.37303
304 3 8.94875 9.39705 2.25609
305 3 7.76355 10.6819 0.0819045
306 3 6.44262 12.601 1.40476
307 3 8.06736 10.4565 4.41118
248 3 2.3603 10.2324 6.71021
338 2 0.789353 12.6658 2.16986
288 4 6.90181 11.6743 18.213
62 4 8.95148 7.1743 11.9455
63 4 4.79013 10.4245 9.9055
64 4 8.02065 9.19135 14.2336
65 4 4.16009 10.5868 16.7124
66 4 7.038 11.0959 12.0708
195 2 2.50081 9.90313 10.9502
134 2 10.2187 7.53357 14.1995
86 1 2.76542 13.5391 11.924
94 1 3.38464 10.435 11.2851
95 1 4.13199 11.1819 14.9929
116 2 6.65779 8.50403 10.592
118 2 4.80084 7.91058 16.3475
122 2 6.04242 12.3644 12.591
362 2 4.90306 12.8979 14.1199
193 2 6.34009 12.3768 9.76199
175 2 3.06361 12.7951 12.8404
173 2 2.83169 13.0802 10.8988
194 2 4.59483 12.8247 9.80599
61 4 6.3091 7.19304 15.8887
196 2 3.12312 11.5288 11.4968
197 2 3.80874 9.9621 12.208
198 2 3.64403 12.2589 15.1477
199 2 3.59957 10.5903 14.2044
200 2 5.29948 11.2709 14.827
363 2 8.37706 12.2095 14.674
271 3 9.66469 7.95328 10.7494
169 2 1.59171 13.7354 13.5911
274 3 7.0514 8.30201 15.1167
275 3 8.57097 8.19106 13.0389
276 3 9.31973 9.8589 15.2226
277 3 3.4491 8.70561 16.4887
278 3 5.47632 10.9713 17.5167
279 3 2.89694 11.2506 17.5059
280 3 8.39768 11.7179 11.5622
281 3 6.16447 10.0702 10.8647
282 3 7.1717 10.4186 13.5178
328 1 9.40916 10.5079 9.38188
330 2 9.49034 9.52515 9.99812
342 1 7.47183 12.9659 16.9665
343 2 6.62418 13.0098 16.2203
344 2 8.45277 12.524 16.5782
303 3 9.14006 7.85507 18.2498
93 1 5.32522 12.1832 9.33598
47 4 1.43561 11.6607 18.1515
71 1 11.1852 7.01665 14.4173
58 4 6.24944 6.85884 10.9336
265 3 4.93828 6.83743 11.9391
ITEM: TIMESTEP
200
ITEM: NUMBER OF ATOMS
365
ITEM: BOX BOUNDS xy xz yz pp pp pp
-7.5933370000000000e+00 1.5563499999999999e+01 -7.5933370000000000e+00
-1.3819999999999999e-01 1.3846299999999999e+01 2.4629999999999999e-01
0.0000000000000000e+00 1.8322199999999999e+01 -1.3819999999999999e-01
ITEM: ATOMS id type x y z
7 4 0.978734 3.21922 0.334038
8 2 2.04263 2.2068 1.31484
9 2 1.02613 4.68297 1.12153
10 3 -0.555755 2.74411 0.359649
11 4 2.81212 0.464094 8.77906
13 4 1.28784 2.62041 6.80006
347 2 -2.62271 5.84052 1.06835
29 4 6.77163 0.780709 2.54187
30 4 2.77492 3.07733 4.25144
31 4 5.30851 2.6285 0.761171
37 4 4.64952 4.95981 2.5995
68 1 -2.04384 5.8459 4.84763
69 1 -0.697703 6.40883 7.53909
74 1 2.37145 1.46631 3.04478
75 1 5.18654 2.24842 6.3563
77 1 2.25727 6.76691 3.60942
107 2 3.66602 6.31951 2.27357
102 2 1.30883 2.63631 2.94782
131 2 -0.978145 5.40487 7.23028
109 2 3.1295 6.00464 5.21276
126 2 -1.33861 4.99184 4.67679
127 2 -2.20064 6.35825 3.86372
161 2 2.10405 5.65735 8.72427
130 2 0.48375 6.51663 7.68923
142 2 2.9237 1.40038 2.07417
143 2 1.76074 0.49725 3.2182
144 2 3.5985 1.36276 4.25803
145 2 5.13111 1.12255 6.44309
146 2 5.27323 2.6076 5.22829
147 2 4.45927 2.82671 6.9813
151 2 1.65368 6.07693 4.34949
96 2 -1.36427 5.17066 8.86564
80 1 2.03769 6.78387 9.04924
319 2 -1.46089 3.59949 4.28698
201 3 -0.00369995 1.90982 5.95018
202 3 2.03274 1.40645 7.58713
205 3 0.637918 3.74363 7.81984
219 3 2.34479 3.29457 5.69394
220 3 5.43024 1.52316 1.9924
226 3 3.71773 4.12191 3.5486
227 3 4.80097 4.07336 1.26649
153 2 1.95925 6.79111 2.47247
14 4 0.334494 2.40778 12.9977
346 2 -1.50164 3.97563 16.6845
19 4 -1.123 5.11824 13.6416
33 4 3.83006 2.90638 10.2743
35 4 3.57062 2.75393 16.6284
40 4 1.18799 6.412 10.7031
42 4 4.95164 4.7466 14.6532
43 4 0.47164 6.07555 16.1225
99 2 4.36128 0.126188 17.2202
67 1 0.393192 1.52235 14.7289
76 1 3.59882 1.59742 15.1423
358 2 5.87712 0.430058 13.0152
204 3 -1.18531 2.72888 9.52039
103 2 2.28985 3.77352 10.3974
104 2 1.91907 2.23272 13.7381
110 2 1.39742 4.78075 16.6037
123 2 0.941704 0.446233 14.6596
15 4 -2.09473 6.36739 17.7884
125 2 0.745266 2.10239 15.7185
148 2 2.5178 1.02992 15.0723
149 2 4.48461 0.903121 15.464
150 2 3.90299 2.16158 14.1957
237 3 -0.534714 6.21403 17.3915
203 3 0.119305 1.58831 11.6905
356 2 5.52194 0.125061 11.0917
206 3 -0.239655 3.82487 13.2127
44 4 3.56052 6.75792 12.8764
209 3 -1.60866 5.99174 12.4848
221 3 3.62176 1.40822 9.80509
223 3 4.2856 1.79094 17.7016
224 3 1.76296 3.21004 17.2346
225 3 4.41607 3.11098 11.6905
231 3 0.889882 4.42567 10.3537
234 3 4.33972 4.1136 16.2308
235 3 5.73472 3.33456 13.8848
236 3 -0.468281 5.82709 14.9184
238 3 2.22291 6.66762 11.8378
239 3 3.66908 5.44076 13.7521
36 4 5.88342 3.11286 12.3969
229 3 4.69021 3.75466 9.23305
106 2 6.76161 1.61611 12.0253
16 4 -0.134472 3.965 9.24348
18 4 -1.28648 7.23786 5.89619
23 4 -2.93887 9.27059 7.71281
25 4 -3.79317 12.1642 6.73715
38 4 1.27572 8.36696 4.27826
45 4 0.356805 9.04926 1.32818
46 4 -1.2592 12.0921 4.61472
70 1 -5.45956 12.5223 6.03408
78 1 1.799 8.14048 0.49689
79 1 -1.81508 10.6181 3.58137
111 2 -1.02931 8.07046 1.12658
353 2 -5.2067 10.3552 8.68679
108 2 2.12315 9.31396 5.39569
133 2 -6.07579 11.6474 6.50346
156 2 2.51525 8.0905 1.42545
132 2 -5.36073 12.4122 4.82857
152 2 3.24002 7.25777 3.96553
157 2 -1.26395 9.79304 4.01034
158 2 -1.4798 11.1324 2.52408
159 2 -2.9655 10.4934 3.6488
348 2 -4.65672 9.46387 4.33721
210 3 -3.76383 8.15293 8.75863
211 3 -2.28834 8.37201 6.34526
213 3 -4.00705 10.3134 7.30535
214 3 -3.79416 13.1745 8.01402
228 3 0.0304169 7.68017 5.07356
240 3 0.971838 9.10998 2.86737
241 3 -1.01245 13.3084 3.56893
242 3 -2.60006 12.3268 5.63527
243 3 0.146543 10.4611 0.391798
245 3 -1.78229 10.0906 8.42014
246 3 -0.551294 12.5884 8.86099
247 3 0.225294 11.5849 5.52373
155 2 1.23941 7.11553 0.418709
322 2 -2.87393 8.22776 1.06713
160 2 1.34351 7.3595 8.28891
324 1 -5.18234 11.9368 2.91171
325 2 -4.95569 11.6167 1.78674
326 2 -4.21929 11.8117 3.57158
327 2 -5.71909 12.9555 3.01461
113 2 1.83947 8.73635 8.78522
354 2 -5.82511 13.5394 6.43003
338 2 0.639081 12.4123 2.19246
183 2 -4.57377 8.46006 5.67182
129 2 -1.27685 6.86095 8.38086
112 2 -0.118252 13.7903 1.1892
251 3 3.31077 8.05472 13.914
21 4 -1.41901 7.43132 11.7969
22 4 -2.6677 12.4613 16.6914
24 4 -5.7625 12.0671 10.434
26 4 -1.03424 9.88246 14.0781
27 4 -4.76801 10.9433 15.0762
28 4 -3.0426 12.4119 12.54
252 3 0.314716 10.7781 14.5325
232 3 -0.279848 7.27322 10.6218
51 4 2.47533 8.31535 15.2645
52 4 0.10776 12.4991 15.4743
72 1 -1.62661 9.06756 15.6355
81 1 -0.414321 10.6054 10.7801
191 2 -5.76848 12.2986 13.4454
92 1 -5.69916 12.5292 14.6101
115 2 1.51367 9.69122 14.864
254 3 -1.44959 12.808 15.712
100 2 -3.61309 10.3568 13.9386
101 2 -3.96311 13.0588 13.8217
114 2 -2.88809 11.879 10.0856
136 2 -3.4139 7.63139 14.9621
137 2 -0.908725 9.47456 16.4646
138 2 -1.4825 7.93486 15.4502
139 2 -2.66066 9.35678 15.7689
154 2 2.5645 8.34981 17.8428
98 2 -2.0082 11.9944 18.1468
163 2 0.0498079 9.66593 10.4355
164 2 -1.2892 10.4937 11.4747
165 2 0.288701 11.4042 11.05
190 2 -5.04547 13.4684 15.0278
49 4 -1.42977 11.374 9.29217
208 3 -2.85265 7.8741 11.2155
212 3 -6.16793 13.3718 9.55625
215 3 -1.06049 8.67079 13.0881
216 3 -3.79099 11.4911 16.2531
217 3 -3.97427 12.1948 11.2718
218 3 -2.344 11.1183 13.3088
357 2 -0.568986 13.1539 11.9049
253 3 0.862191 12.5334 16.876
250 3 1.44164 7.26973 15.7681
352 2 -1.5679 8.85528 18.0079
82 1 -1.61237 13.638 12.0793
162 2 3.00638 7.19458 9.39925
321 1 -2.44415 8.16094 18.2726
47 4 1.46132 11.4273 18.184
323 2 -3.43413 8.41692 17.7028
1 4 14.0468 1.32017 5.23396
349 2 14.292 1.44408 1.55062
350 2 10.6921 1.02878 1.27176
4 2 12.3843 1.05689 6.77619
6 3 14.3218 0.293882 3.78104
318 1 13.0436 2.80099 4.67129
34 4 6.96659 2.66321 6.84416
39 4 5.53804 4.88291 8.49849
286 4 13.7842 0.0507587 2.38362
53 4 8.65322 2.81697 3.93235
55 4 9.88604 4.6273 1.59
56 4 6.49586 6.68536 4.30397
59 4 9.22675 6.34302 5.99843
85 1 10.0311 1.67815 4.60312
88 1 11.09 5.98775 2.24536
90 1 10.4358 4.81084 6.04659
41 4 4.19354 6.70243 6.32853
170 2 11.1621 2.11223 4.66692
171 2 9.93454 0.766489 3.90017
172 2 9.56468 1.47284 5.64995
178 2 10.8145 6.56335 3.24794
179 2 11.1888 6.70748 1.3413
180 2 11.974 5.33333 2.40975
184 2 10.6489 4.70553 4.95651
185 2 9.67928 4.10887 6.49424
186 2 11.3808 4.89364 6.72175
316 2 9.33723 3.34835 8.74165
222 3 7.34498 1.22191 7.52839
230 3 6.7302 4.02013 7.81695
233 3 4.65289 5.6082 7.36521
255 3 7.87025 1.73879 3.0528
256 3 7.87514 3.04895 5.43978
258 3 9.38299 3.93774 2.92133
259 3 10.6019 3.62047 0.623123
260 3 5.85673 5.62484 3.30404
263 3 8.67524 5.40099 0.713699
266 3 7.93125 6.28949 5.09029
189 2 9.30556 6.6095 8.53238
128 2 12.2014 5.42696 5.30426
320 2 12.4126 3.08206 5.60105
341 2 11.7697 1.14404 2.65302
351 2 12.3692 2.58271 3.77549
308 4 10.8872 2.19683 0.0024564
313 2 11.906 3.63661 8.68902
334 2 7.39099 3.86625 0.20646
2 1 12.9661 0.194423 6.33092
32 4 8.09133 -0.0524539 8.23583
12 4 14.4315 1.42941 10.4053
20 4 10.789 5.63611 15.7375
97 2 12.6337 4.51234 14.1526
54 4 11.9238 0.77982 12.1591
57 4 8.6607 6.37308 17.7772
60 4 10.3572 3.09978 13.6994
135 2 11.6057 6.51117 13.4557
73 1 9.02197 0.715379 9.64033
140 2 10.1207 0.350857 9.31123
360 2 9.19557 0.512829 15.6846
105 2 6.80367 4.33112 11.6517
314 2 8.59291 4.90906 9.52782
117 2 9.7031 1.81619 14.6609
119 2 8.96614 3.73883 13.183
120 2 10.0146 6.16176 12.9829
355 2 8.62374 0.249266 10.6045
272 3 7.57291 5.96257 11.6969
141 2 9.01742 1.89805 9.6722
174 2 9.35833 0.479145 12.1219