ITEM: TIMESTEP
0
ITEM: NUMBER OF ATOMS
365
ITEM: BOX BOUNDS xy xz yz pp pp pp
-7.7317999999999998e+00 1.5563499999999999e+01 -7.7317999999999998e+00
-1.3819999999999999e-01 1.3846299999999999e+01 2.4629999999999999e-01
0.0000000000000000e+00 1.8505421999999999e+01 -1.3819999999999999e-01
ITEM: ATOMS id type x y z
7 4 1.00271 3.21363 0.217516
8 2 2.07208 2.12499 1.24435
9 2 1.5266 4.64522 0.877182
10 3 -0.430643 2.98289 0.76231
11 4 2.95482 0.583067 8.94054
13 4 1.27856 2.37517 7.04125
347 2 -2.9366 6.05472 1.02256
29 4 6.53524 0.73813 2.46095
30 4 2.74046 2.94097 4.24274
31 4 5.17202 2.86311 0.701844
37 4 4.57779 5.07155 2.79339
68 1 -2.34399 5.98872 4.9502
69 1 -0.742574 6.28714 7.59419
74 1 2.34392 1.35495 2.98376
75 1 5.21347 2.42317 6.17304
129 2 -1.15907 6.83667 8.55974
107 2 3.5064 6.3939 2.58736
102 2 1.36043 2.73275 2.84348
131 2 -1.23514 5.23068 7.30105
109 2 3.02233 6.00128 5.08911
126 2 -1.58837 5.14039 4.8647
127 2 -2.51456 6.43826 3.91477
161 2 2.53182 5.37786 9.05863
130 2 0.44779 6.15186 7.69586
142 2 2.92405 1.20475 2.03813
143 2 1.59668 0.52875 3.22403
144 2 3.66919 1.32951 4.1694
145 2 5.07836 1.31691 6.51613
146 2 5.30464 2.51362 4.98439
147 2 4.51124 3.17177 6.6219
151 2 1.45341 6.15138 4.48582
96 2 -1.28086 4.96724 8.97398
153 2 1.77738 6.648 2.51765
319 2 -1.35695 3.76477 5.17263
201 3 0.0363461 1.39306 6.39861
202 3 2.167 1.56714 8.00823
205 3 0.740292 3.74568 7.85563
219 3 2.07121 2.92933 5.65686
220 3 5.34782 1.76487 1.93272
226 3 3.85318 4.03058 3.74988
227 3 4.68715 4.39616 1.33679
80 1 2.07541 6.54939 9.17212
233 3 4.60023 5.4604 7.14994
354 2 1.87279 0.003373 6.28512
160 2 1.54709 6.8164 8.1752
77 1 1.90176 6.89488 3.68811
14 4 0.31343 2.54478 13.0394
346 2 -1.24919 3.68783 16.362
19 4 -1.35646 5.006 13.8399
33 4 3.83748 3.05353 10.4543
35 4 3.52783 2.68636 16.7995
40 4 1.22974 6.18285 10.8221
42 4 4.93486 4.62327 14.9428
43 4 0.297128 6.00613 16.263
99 2 4.31383 0.23905 17.4551
67 1 0.422495 1.58645 14.8242
76 1 3.89101 1.3402 15.478
358 2 5.65339 0.565216 13.2024
204 3 -1.04903 2.4541 9.58518
103 2 2.14434 3.52632 10.6677
104 2 1.86005 2.57534 13.9245
110 2 1.15268 4.57358 16.4122
123 2 0.830632 0.518294 14.7247
15 4 -2.16855 6.48085 17.9305
125 2 0.819774 2.1597 15.804
148 2 3.10667 0.480977 15.6364
149 2 4.91875 1.00175 15.5849
150 2 3.7424 1.9163 14.5288
237 3 -0.51903 6.31532 17.6962
203 3 0.324377 1.65329 11.7707
283 4 -1.18766 2.54204 17.6286
206 3 -0.532117 3.90211 13.1792
44 4 3.40887 6.49699 13.1579
209 3 -1.62951 6.23513 12.9182
221 3 3.75774 1.48551 9.99075
223 3 4.12136 1.8511 17.9811
224 3 1.60131 3.03024 17.2283
225 3 4.69594 3.22629 11.8472
231 3 0.809163 4.25559 10.623
234 3 4.41452 3.97209 16.4492
16 4 -0.114713 3.7578 9.33413
236 3 -0.688841 5.49923 15.1781
238 3 2.20696 6.44647 12.114
239 3 3.5615 5.13704 14.0211
345 2 0.145398 0.0667967 9.62284
229 3 4.51016 3.95853 9.42325
106 2 6.78815 1.6302 12.1814
356 2 6.18386 0.295287 11.3748
235 3 5.89729 3.27269 14.0925
18 4 -1.41154 7.28588 6.13731
23 4 -3.0643 9.2804 7.89645
25 4 -4.06899 12.4084 6.7746
38 4 0.999948 8.47479 4.34698
45 4 0.284642 9.07328 1.31968
46 4 -1.67876 12.3539 4.51272
70 1 -5.67562 12.7911 5.96463
78 1 1.58231 7.91401 0.733604
79 1 -1.98399 10.7757 3.54621
111 2 -1.39222 8.53588 1.19002
353 2 -5.38443 10.4466 8.53111
321 1 -3.02359 8.33126 0.10816
182 2 -3.98284 7.26862 4.97387
156 2 2.33685 7.94636 1.66542
132 2 -5.7561 12.5021 4.78208
152 2 3.02722 7.49267 3.91387
157 2 -1.01026 10.1999 3.61965
158 2 -2.34124 10.9547 2.50996
159 2 -2.78003 10.3469 4.26109
348 2 -4.60371 9.50392 4.32763
210 3 -3.88185 8.35186 8.94856
211 3 -2.50221 8.39325 6.64475
213 3 -4.08795 10.5619 7.37231
214 3 -3.89912 13.4255 8.01838
228 3 -0.171794 7.85857 5.19331
240 3 0.626158 9.26997 3.04607
241 3 -1.81564 13.5637 3.48177
242 3 -2.92621 12.4472 5.63554
243 3 0.462689 10.3776 0.419469
245 3 -1.83917 10.0679 8.6556
246 3 -0.888476 12.6045 8.6599
247 3 -0.0897868 11.8752 5.31737
155 2 0.909777 6.93778 0.760589
322 2 -3.14218 8.45054 1.24748
112 2 -0.71898 13.6637 1.09697
324 1 -5.92207 12.0098 2.83364
325 2 -6.00818 11.7401 1.67918
326 2 -4.74624 12.0676 3.19888
327 2 -6.55105 12.9092 3.17735
113 2 1.64838 8.40063 8.63891
108 2 2.0206 9.38768 5.45722
133 2 -6.35523 12.0688 6.60274
338 2 0.432198 12.652 2.02075
251 3 3.27418 7.71753 14.1402
21 4 -1.33334 7.47304 12.0058
22 4 -3.01714 12.5837 16.8273
24 4 -5.92642 11.8723 10.5768
26 4 -1.03621 9.92091 14.0963
27 4 -5.0178 10.9581 15.1594
28 4 -3.09265 12.4033 12.6632
252 3 0.180687 10.7148 14.8128
232 3 -0.0973748 7.00857 10.8643
51 4 2.3335 8.18305 15.4466
52 4 -0.218088 12.4319 15.6449
72 1 -1.8157 8.85754 15.4678
81 1 0.0127671 10.9948 10.7283
191 2 -5.94174 12.569 13.321
92 1 -5.92201 12.4911 14.4229
115 2 1.39203 9.59299 15.0723
254 3 -1.77163 12.7729 15.7829
100 2 -3.95868 10.3772 13.8948
101 2 -4.26018 13.2529 13.6578
114 2 -3.00554 11.6899 10.3253
136 2 -3.17076 7.51624 14.8261
137 2 -1.1443 9.17948 16.3602
138 2 -1.50697 7.82227 15.0115
139 2 -2.88643 8.98741 15.6407
154 2 2.40694 8.06041 18.1881
98 2 -2.59899 11.9554 18.2644
163 2 -0.0637129 9.90902 10.9333
164 2 -0.226055 11.6984 11.5781
165 2 0.94234 11.2656 10.1939
190 2 -5.41086 13.4572 14.9524
49 4 -1.43198 11.382 9.54711
208 3 -2.80972 7.95989 11.3633
212 3 -6.08269 13.2377 9.71252
215 3 -0.738483 8.66039 12.91
216 3 -4.20031 11.6722 16.3791
217 3 -4.09836 12.0237 11.3572
218 3 -2.54884 11.0175 13.4119
357 2 -0.73003 13.0197 12.7506
253 3 0.322956 12.4723 17.1719
250 3 1.37269 7.04792 15.8436
352 2 -1.87349 8.75753 18.0857
17 4 -4.00031 7.5691 10.3161
162 2 2.87393 7.3009 9.462
47 4 1.27943 11.7104 18.2371
82 1 -1.71833 13.6566 12.4051
323 2 -3.81269 8.28066 18.071
364 2 -7.33834 13.5705 17.6958
1 4 14.0839 1.13694 5.44477
349 2 14.3181 1.58296 1.48998
350 2 10.8611 0.891838 0.809557
4 2 12.1545 0.869011 6.59452
6 3 14.3303 0.181069 3.84349
318 1 13.2464 2.81438 4.99187
34 4 6.93368 2.70224 6.82932
39 4 5.3681 5.01426 8.51858
286 4 13.8324 0.136311 2.3151
53 4 8.53208 2.73129 3.86689
55 4 9.6581 4.6849 1.65469
56 4 6.5608 6.65075 4.37158
59 4 9.10935 6.60407 6.25213
85 1 10.1726 1.85313 4.51398
88 1 10.9133 6.05606 2.30083
90 1 10.278 4.95024 6.61073
41 4 4.19582 6.65989 6.16581
170 2 11.2852 2.28372 4.59784
171 2 10.1113 0.981072 3.77366
172 2 9.77572 1.5638 5.54292
178 2 10.7282 6.68567 3.29609
179 2 10.6492 6.72904 1.35728
180 2 11.9629 5.5256 2.32702
184 2 10.4367 4.34839 5.65351
185 2 9.60398 4.42272 7.36011
186 2 11.2338 5.13378 7.10267
316 2 9.70923 3.29939 8.81698
222 3 7.51141 1.37648 7.46836
230 3 6.74135 4.1569 8.00157
336 2 8.56494 0.134702 0.572524
255 3 7.74946 1.60622 3.00605
256 3 7.78673 2.94869 5.42712
258 3 8.98615 4.08947 3.06075
259 3 10.4854 3.5743 0.951655
260 3 5.94372 5.54296 3.38414
263 3 8.45175 5.45357 0.60471
266 3 7.80961 6.27113 5.475
189 2 9.42492 6.56766 8.54067
128 2 11.846 5.60231 5.59464
320 2 12.3727 2.57928 5.85419
341 2 11.7505 1.20922 2.34214
351 2 12.7516 2.8646 3.95338
308 4 11.0409 2.40229 0.00465981
313 2 12.3999 3.44916 8.86708
334 2 7.34752 4.0144 0.018358
140 2 10.1228 0.0811058 9.11911
333 2 7.53079 2.18923 0.165072
339 1 11.9269 0.0211839 2.24635
12 4 14.5806 1.19431 10.5811
20 4 10.8918 5.55333 15.8311
97 2 12.4224 4.26014 14.1939
54 4 12.0226 0.76307 12.3967
57 4 8.53471 6.35736 17.8907
60 4 10.3 2.95891 13.9284
135 2 11.4528 6.42813 13.3779
73 1 9.13116 0.551197 9.3986
36 4 6.04787 3.184 12.5641
360 2 9.21646 0.43092 15.6555
105 2 7.20151 4.21434 11.8197
314 2 8.85331 4.48854 10.1041
117 2 9.62736 1.61283 14.8071
119 2 8.79231 3.55504 13.3516
120 2 9.81099 6.08178 13.2147
124 2 14.5181 1.61731 14.7557
272 3 7.55717 6.11807 11.6603
141 2 9.2795 1.65755 9.65345
174 2 9.4158 0.0621616 12.2724
317 3 11.4466 5.85984 10.0841
359 2 7.73633 0.604598 14.4729
177 2 12.8261 1.03053 14.5391
257 3 13.1053 0.579856 11.1352
262 3 9.46959 5.88178 16.4278
264 3 5.85009 6.24553 9.49775
365 3 12.7363 2.09986 18.0349
267 3 11.1663 2.50602 12.7474
268 3 10.97 3.94302 14.9291
269 3 5.89927 5.86067 15.0872
315 2 9.65495 2.89273 10.8083
331 1 7.0531 2.8691 18.3058
332 2 6.86298 2.75122 17.1403
312 2 11.6338 3.50507 11.5219
309 2 10.1815 2.05673 17.2508
310 4 11.387 4.29335 9.96832
311 1 9.62325 3.68382 9.9962
87 1 13.0709 0.0959093 13.8625
270 3 6.88694 6.62173 17.4673
207 3 12.1115 5.91037 16.8648
58 4 6.17595 6.71516 11.041
176 2 14.1661 0.0155963 13.6033
265 3 4.90004 6.5806 12.0292
84 1 8.60208 -0.0584216 14.8099
71 1 11.2338 6.78594 14.4476
284 2 14.7421 1.3011 16.6064
355 2 8.63435 0.0132497 10.2426
3 2 4.64463 13.0099 5.71805
48 4 2.945 9.11557 7.74507
50 4 1.41768 11.8605 5.94383
83 1 2.55078 12.195 4.47637
89 1 10.2852 7.73644 4.98981
91 1 8.66482 7.37487 7.96457
121 2 7.13073 7.92824 3.34485
187 2 7.56771 7.09947 8.09752
166 2 1.87635 12.9667 3.9555
167 2 2.51878 11.102 3.99827
168 2 3.64411 12.5695 4.77611
181 2 9.63185 7.72144 4.02486
32 4 0.328003 13.7414 7.97675
183 2 10.0865 8.62609 5.79405
2 1 5.19515 13.7844 6.38687
188 2 8.90573 8.38296 8.33708
192 2 5.12965 12.2896 8.1014
361 2 3.63632 13.2489 3.0482
244 3 3.53686 7.92171 6.94625
340 2 4.13765 13.4124 1.12234
249 3 1.46318 13.0023 7.00283
261 3 5.39924 7.32981 5.27708
273 3 4.10777 9.84059 8.73098
285 4 9.29959 10.254 3.51724
337 2 2.28177 13.3152 1.6708
287 4 8.04926 9.06293 0.895772
5 2 5.66881 13.3477 7.33787
289 4 6.63271 10.7134 5.31173
290 1 6.27453 8.46038 1.56542
291 1 5.18791 10.4005 3.93295
292 1 6.58734 9.61534 6.7595
293 2 6.43426 12.4373 5.69381
294 2 6.34624 7.33011 1.74314
295 2 5.79947 8.75317 0.566336
296 2 5.86765 9.13506 2.5355
297 2 4.23936 11.02 4.00447
298 2 4.94633 9.32157 3.89274
299 2 5.81546 10.8004 3.03938
300 2 6.56964 10.4899 7.57237
301 2 7.33987 8.74009 7.05202
302 2 5.47087 9.24293 6.6213
335 1 1.24002 13.1188 1.21427
304 3 8.92902 9.25794 2.23581
305 3 7.70104 10.4133 0.204048
306 3 6.47517 12.7383 1.33979
307 3 8.08964 10.3618 4.56699
248 3 2.21322 10.2237 6.79338
93 1 5.13076 12.3097 9.25039
329 2 8.13364 10.4928 9.15343
288 4 6.93422 11.4757 18.4149
62 4 8.84074 7.09243 12.1952
63 4 4.78919 10.5393 9.95107
64 4 7.82942 9.14141 14.3246
65 4 3.91315 10.5684 16.8757
66 4 6.90907 11.1136 12.2554
195 2 2.6438 9.72348 10.9882
134 2 10.1746 7.35816 14.501
86 1 2.70552 13.4307 12.1022
94 1 3.46067 10.3322 11.3782
95 1 4.17242 11.2324 15.1799
116 2 6.36207 8.41342 10.8657
118 2 4.71884 7.92161 16.6282
122 2 5.9402 12.4458 12.6462
362 2 4.93286 12.974 14.2987
193 2 6.04399 12.8139 9.74138
175 2 3.06884 12.6906 12.9561
173 2 2.92477 13.0711 11.0265
194 2 4.13345 12.7433 9.62343
61 4 6.20938 7.15075 16.1534
196 2 3.11514 11.5011 11.6882
197 2 3.9796 9.78969 12.282
198 2 3.43654 12.18 15.2471
199 2 3.77056 10.3675 14.4902
200 2 5.30736 11.4658 15.0898
363 2 8.34539 12.2073 14.8589
271 3 9.69718 7.739 10.9628
169 2 1.56548 13.5201 13.8447
274 3 6.90644 8.3491 15.3697
275 3 8.31174 8.25707 13.0938
276 3 9.23793 9.86044 15.2687
277 3 3.30544 8.61591 16.7411
278 3 5.31754 10.8229 17.6835
279 3 2.80259 11.4987 17.5917
280 3 8.25609 11.6944 11.6292
281 3 6.34329 10.1301 10.8621
282 3 6.93751 10.4234 13.649
328 1 9.20143 10.3848 9.43952
330 2 9.39445 9.45221 10.0655
342 1 7.70447 12.5979 17.1583
343 2 6.82902 12.6216 16.384
344 2 8.63951 11.9463 16.8605
303 3 9.00582 7.87323 18.3336
ITEM: TIMESTEP
100
ITEM: NUMBER OF ATOMS
365
ITEM: BOX BOUNDS xy xz yz pp pp pp
-7.7317999999999998e+00 1.5563499999999999e+01 -7.7317999999999998e+00
-1.3819999999999999e-01 1.3846299999999999e+01 2.4629999999999999e-01
0.0000000000000000e+00 1.8505421999999999e+01 -1.3819999999999999e-01
ITEM: ATOMS id type x y z
7 4 1.04249 3.18651 0.221256
8 2 2.03875 2.19868 1.26049
9 2 1.4424 4.6456 0.917501
10 3 -0.436934 2.79795 0.504543
11 4 2.88757 0.532867 8.90755
13 4 1.362 2.53667 6.97647
347 2 -2.76852 5.84625 1.12299
29 4 6.64128 0.690441 2.50704
30 4 2.83228 3.02443 4.29752
31 4 5.1718 2.84011 0.853935
37 4 4.59134 5.10808 2.78017
68 1 -2.23387 5.99895 4.96932
69 1 -0.645491 6.42947 7.64013
74 1 2.57765 1.44118 2.97515
75 1 5.12529 2.29562 6.20299
77 1 2.00987 6.79333 3.77463
107 2 3.59118 6.52857 2.61706
102 2 1.2972 2.51837 3.08675
131 2 -1.21721 5.45627 7.18849
109 2 3.00228 5.91508 5.30774
126 2 -1.44319 5.22638 4.62599
127 2 -2.49197 6.78971 4.1909
129 2 -1.13243 6.82814 8.58417
130 2 0.542753 6.35468 7.59626
142 2 3.02973 1.23959 1.9617
143 2 2.10496 0.478741 3.29897
144 2 3.91969 1.44622 4.06873
145 2 4.88009 1.29384 6.69755
146 2 5.27227 2.26583 5.06399
147 2 4.48496 3.12865 6.57376
151 2 1.49511 6.09107 4.4621
96 2 -1.25183 5.25075 9.09446
153 2 1.78821 6.57864 2.67008
319 2 -1.5096 3.74044 4.79154
201 3 0.108924 1.7074 6.10671
202 3 2.12377 1.57982 7.97663
205 3 0.589247 3.7299 7.79241
219 3 2.25492 3.14073 5.77156
220 3 5.42359 1.583 1.91571
226 3 3.65127 4.17029 3.68617
227 3 4.67676 4.30218 1.38722
161 2 2.77817 5.54711 9.1782
14 4 0.355276 2.58671 13.0547
346 2 -1.36019 3.8442 16.6178
19 4 -1.34242 5.0901 13.8757
33 4 3.71762 2.91332 10.3541
35 4 3.58741 2.64092 16.8546
40 4 1.14413 6.29049 10.9123
42 4 4.89736 4.69586 14.8555
43 4 0.371429 6.04792 16.3266
99 2 4.53338 0.12366 17.4428
67 1 0.455853 1.54426 14.6719
76 1 3.46404 1.55568 15.3441
358 2 5.69302 0.581313 13.3703
204 3 -0.906494 2.62765 9.72547
103 2 2.10594 3.3321 10.6969
104 2 1.92924 2.58754 13.7827
110 2 1.08147 4.54004 16.7315
123 2 0.87898 0.376877 14.5396
15 4 -2.21204 6.35942 18.0249
125 2 1.00876 2.2218 15.5417
148 2 2.56622 0.845766 15.4689
149 2 4.48281 0.933339 15.4604
150 2 3.44327 2.14223 14.3518
237 3 -0.659453 6.38206 17.5387
203 3 0.0814894 1.58399 11.9338
284 2 -0.570401 1.52063 16.49
206 3 -0.489112 3.87937 13.3857
44 4 3.49119 6.63546 13.0455
209 3 -1.73034 6.1041 12.6877
221 3 3.76022 1.2784 10.0152
223 3 4.26811 1.71099 17.9812
224 3 1.70712 3.06158 17.2826
225 3 4.4439 3.00559 11.7629
231 3 0.893086 4.40084 10.3717
234 3 4.25269 4.08021 16.3533
16 4 -0.123522 3.9017 9.28766
236 3 -0.531697 5.68386 15.0781
238 3 2.17876 6.47187 12.0592
239 3 3.65858 5.26798 13.8837
36 4 5.82583 3.1231 12.5677
229 3 4.34057 3.94371 9.37269
106 2 6.76983 1.69087 12.2762
356 2 5.46635 0.33791 11.3995
235 3 5.73983 3.26478 14.084
80 1 2.20147 6.57467 9.38657
124 2 -0.774416 1.65085 14.7976
359 2 7.45746 0.472221 14.4034
345 2 0.0563685 0.144866 9.76122
18 4 -1.3627 7.36017 6.08874
23 4 -3.01251 9.30876 7.88541
25 4 -3.96654 12.2193 6.81126
38 4 1.13208 8.41339 4.40974
45 4 0.160251 9.08063 1.31954
46 4 -1.61638 12.1839 4.63981
70 1 -5.67979 12.6027 5.99465
78 1 1.51736 8.12526 0.547631
79 1 -2.02162 10.6992 3.54286
111 2 -1.45096 8.40457 1.14464
353 2 -5.25177 10.5189 8.57153
133 2 -6.29225 11.7777 6.46929
108 2 2.14302 9.41343 5.42656
156 2 2.27086 8.0601 1.4087
132 2 -5.63638 12.3709 4.85864
152 2 3.1074 7.29305 4.11764
157 2 -1.00346 10.2128 3.29209
158 2 -2.43585 11.2921 2.61467
159 2 -2.76421 10.0365 3.97683
348 2 -4.78854 9.40499 4.42273
210 3 -3.88213 8.26085 8.96089
211 3 -2.50726 8.32778 6.72263
213 3 -4.03023 10.4841 7.27051
214 3 -3.82586 13.3253 8.00786
228 3 -0.0211048 7.78198 5.3048
240 3 0.608512 9.10821 3.05965
241 3 -1.40807 13.439 3.6994
242 3 -2.87563 12.3574 5.6975
243 3 0.154318 10.431 0.485861
245 3 -1.73522 9.96438 8.61883
246 3 -0.639796 12.6104 8.75687
247 3 -0.00954252 11.7769 5.35799
155 2 0.893012 7.14232 0.303808
322 2 -3.61073 8.19816 0.919579
112 2 -0.589954 13.6247 1.15895
324 1 -5.58219 11.9196 2.86223
325 2 -5.90811 11.789 1.73461
326 2 -4.44144 11.7891 3.02836
327 2 -5.94153 12.9385 3.21756
113 2 1.70773 8.43529 8.84925
354 2 -5.99859 13.6364 6.21709
160 2 1.50812 6.86703 8.4568
251 3 3.26216 7.97214 13.9974
21 4 -1.44252 7.47 11.9548
22 4 -2.83851 12.4805 16.8394
24 4 -5.84506 12.0139 10.627
26 4 -1.17303 9.77951 14.1991
27 4 -4.95134 10.8897 15.0907
28 4 -3.10105 12.42 12.832
252 3 0.330389 10.6934 14.7578
232 3 -0.143955 7.2541 10.7635
51 4 2.3889 8.21495 15.3948
52 4 -0.0374309 12.2944 15.6307
72 1 -1.71978 8.88581 15.6774
81 1 -0.380112 10.6179 10.7906
191 2 -5.6353 12.3166 13.3522
92 1 -5.95449 12.4573 14.4973
115 2 1.36162 9.53997 15.0357
254 3 -1.57765 12.697 15.843
100 2 -3.87202 10.2108 13.927
101 2 -4.18642 13.2627 13.8938
114 2 -3.00805 11.7625 10.3171
136 2 -3.33424 7.79067 14.9683
137 2 -0.909207 9.2019 16.4872
138 2 -1.77261 7.72764 15.5143
139 2 -2.78477 9.43438 15.8552
154 2 2.27298 8.33437 18.0571
98 2 -2.28417 11.7549 18.2463
163 2 -0.145065 9.55402 10.4247
164 2 -1.20427 10.6285 11.6212
165 2 0.546111 11.3395 10.9478
190 2 -5.53481 13.402 15.0622
49 4 -1.51093 11.3438 9.46223
208 3 -2.84444 8.01832 11.3369
212 3 -6.14554 13.2851 9.67193
215 3 -0.883487 8.69736 13.0407
216 3 -4.07745 11.7271 16.3198
217 3 -4.19626 11.9815 11.3429
218 3 -2.46038 11.0675 13.5112
357 2 -0.868566 13.2594 12.3492
253 3 0.548088 12.4335 17.1109
250 3 1.52082 7.04625 16.0025
352 2 -2.10811 9.10098 18.4682
17 4 -4.01502 7.44383 10.3046
162 2 2.87489 7.40099 9.75202
321 1 -2.75807 8.1827 18.4467
82 1 -1.88795 13.716 12.3637
323 2 -3.46053 8.22781 17.5249
1 4 14.1535 1.16676 5.32123
349 2 14.3296 1.38296 1.39077
350 2 10.6384 0.946155 1.16721
4 2 12.461 0.964165 6.84752
6 3 14.1892 0.354679 3.94449
318 1 13.182 2.82446 4.71588
34 4 6.86605 2.84764 6.73333
39 4 5.41213 4.942 8.61806
286 4 13.8469 0.0411193 2.33137
53 4 8.55578 2.68555 3.87467
55 4 9.77427 4.64944 1.61027
56 4 6.57604 6.65474 4.38608
59 4 9.10515 6.39481 6.21756
85 1 10.1135 1.72533 4.3916
88 1 10.9936 5.94953 2.33195
90 1 10.3537 4.74165 6.21897
41 4 4.23222 6.66802 6.33626
170 2 11.2382 2.20468 4.48247
171 2 10.0861 0.889276 3.59826
172 2 9.73686 1.33555 5.40172
178 2 10.6475 6.464 3.32726
179 2 10.9088 6.69545 1.35958
180 2 12.021 5.33477 2.4287
184 2 10.7736 4.31612 5.32437
185 2 9.35003 4.13809 6.45909
186 2 11.0497 4.83913 7.07054
316 2 9.52776 3.17905 8.83104
222 3 7.51078 1.35993 7.38953
230 3 6.7855 4.01497 8.01837
336 2 8.92943 0.110916 0.785155
255 3 7.72005 1.70155 2.93544
256 3 7.67184 3.23254 5.30524
258 3 9.1121 4.05914 2.98301
259 3 10.62 3.60303 0.805365
260 3 5.9508 5.58064 3.34767
263 3 8.45921 5.3348 0.585247
266 3 7.85711 6.31959 5.28034
189 2 8.83968 6.44776 8.53975
128 2 12.1088 5.5139 5.43832
320 2 12.4792 2.76423 5.59592
341 2 11.8882 1.22115 2.36952
351 2 12.8581 2.47407 3.70731
339 1 11.94 0.0771184 2.37107
313 2 12.2803 3.72072 8.83346
334 2 7.44185 4.02189 0.146202
2 1 13.054 0.00817587 6.48025
308 4 10.9084 2.26855 0.100931
32 4 8.06208 -0.00472088 7.99625
333 2 7.40413 2.0826 0.327496
233 3 4.68356 5.49836 7.34192
12 4 14.517 1.29768 10.6042
20 4 10.8817 5.66826 15.8787
97 2 12.488 4.33072 14.415
54 4 11.9587 0.733809 12.3465
57 4 8.59515 6.33353 17.7617
60 4 10.2168 3.09178 13.8217
135 2 11.5052 6.34864 13.7518
73 1 9.0036 0.586143 9.54109
84 1 8.46133 0.0170901 14.7383
360 2 8.89493 0.538126 15.6707
105 2 6.68574 4.43368 11.8914
314 2 8.61817 4.68961 9.80241
117 2 9.28171 1.79011 14.411
119 2 9.18767 4.13256 13.0949
120 2 10.0619 6.37437 12.9759
355 2 8.41745 -0.0346602 10.3593
272 3 7.44702 6.03806 11.5892
141 2 9.01331 1.7238 9.70064
174 2 9.31363 0.0975076 12.1885
317 3 11.2725 5.80462 10.1649
140 2 10.032 0.122545 9.27644
177 2 12.6301 0.952813 14.5529
257 3 13.037 0.725815 11.0478
262 3 9.51796 5.89697 16.5758
264 3 5.79658 6.28006 9.57848
365 3 12.5488 1.98752 17.9406
267 3 11.2308 2.52806 12.7704
268 3 11.0887 3.88342 14.9988
269 3 5.98423 5.81061 15.0408
315 2 9.20223 3.20434 10.8405
331 1 7.07131 2.91327 18.4242
332 2 6.72309 2.8254 17.3459
312 2 11.5846 3.43369 11.4551
309 2 9.97277 1.68474 17.5249
310 4 11.1901 4.24014 9.99486
311 1 9.34676 3.8061 9.86977
87 1 12.9123 0.0180865 13.8087
270 3 6.9996 6.6113 17.2497
207 3 12.1506 5.79471 16.93
283 4 14.0442 2.4739 17.6207
176 2 14.0008 -0.0623095 13.5514
364 2 15.1976 0.0104833 17.8345
3 2 4.59936 13.1236 5.87406
48 4 2.95648 9.00003 7.7961
50 4 1.47107 11.8913 6.05084
83 1 2.63407 12.3838 4.70539
89 1 10.2786 7.57477 5.0303
91 1 8.59617 7.32915 7.85237
121 2 7.08616 7.96957 3.40648
187 2 7.45189 7.48111 7.88295
166 2 1.78395 12.97 4.05564
167 2 3.01157 11.4546 4.10371
168 2 3.50445 13.0825 5.05062
181 2 9.67283 7.81178 4.04498
182 2 11.3276 7.04952 4.97686
183 2 10.1397 8.39209 5.92219
329 2 8.26013 10.6205 9.15953
188 2 9.24457 8.3039 8.03223
192 2 5.31418 12.4556 8.33604
361 2 3.67813 13.4003 3.22901
244 3 3.43547 7.82118 6.98004
340 2 4.07676 13.4223 1.30988
249 3 1.56233 12.9878 7.14785
261 3 5.32821 7.23856 5.2795
273 3 4.19565 9.50783 8.75767
285 4 9.23085 10.2506 3.51707
337 2 2.36335 12.6512 1.62515
287 4 8.0517 9.11226 0.829146
5 2 5.75279 13.3829 7.42369
289 4 6.60532 10.6778 5.3499
290 1 6.42745 8.42954 1.60498
291 1 5.135 10.258 4.02739
292 1 6.61921 9.7199 6.90063
293 2 6.38522 12.3528 5.79046
294 2 6.67216 7.32097 1.80602
295 2 5.83441 8.53818 0.627385
296 2 5.97987 9.10781 2.60265
297 2 4.27089 10.9654 4.34746
298 2 4.96446 9.1448 4.1412
299 2 5.63539 10.5216 3.08368
300 2 6.75203 10.6774 7.6179
301 2 7.38986 8.82959 7.21568
302 2 5.55036 9.29903 6.82799
335 1 1.27331 12.9398 1.33531
304 3 8.83273 9.40882 2.26004
305 3 7.6406 10.6953 0.0977106
306 3 6.31117 12.614 1.41461
307 3 7.94559 10.4404 4.43534
248 3 2.28109 10.2141 6.76407
338 2 0.593232 12.804 2.12839
288 4 6.78392 11.6723 18.4052
62 4 8.88347 7.19346 12.0638
63 4 4.67609 10.454 10.0166
64 4 7.92352 9.17439 14.3501
65 4 4.05435 10.5796 16.8885
66 4 6.92167 11.0837 12.1881
195 2 2.506 9.90842 10.7837
134 2 10.1314 7.50114 14.3865
86 1 2.61266 13.515 12.0472
94 1 3.32777 10.4522 11.3401
95 1 4.01204 11.2115 15.1769
116 2 6.587 8.44314 10.6887
118 2 4.71994 7.89573 16.5029
122 2 5.92959 12.3557 12.6919
362 2 4.78239 12.9097 14.2307
193 2 6.22772 12.375 9.96849
175 2 2.92452 12.7857 12.9551
173 2 2.69145 13.0417 10.9675
194 2 4.4236 12.724 9.94983
61 4 6.24209 7.19177 16.0439
196 2 3.02404 11.5859 11.5804
197 2 3.68448 9.89861 12.2766
198 2 3.51406 12.2305 15.3332
199 2 3.52834 10.5937 14.3661
200 2 5.20037 11.3339 15.0441
363 2 8.26866 12.1294 14.8212
271 3 9.61555 7.97798 10.8786
169 2 1.44785 13.7048 13.7473
274 3 6.96788 8.30243 15.2482
275 3 8.48834 8.19521 13.159
276 3 9.22018 9.84236 15.3591
277 3 3.38009 8.70271 16.6065
278 3 5.35664 10.9791 17.6918
279 3 2.78663 11.236 17.6729
280 3 8.27203 11.7125 11.6491
281 3 6.01832 10.0748 10.9797
282 3 7.07062 10.399 13.6158
328 1 9.3088 10.511 9.48748
330 2 9.41705 9.53793 10.1099
342 1 7.35409 12.9528 17.1632
343 2 6.54767 13.0379 16.3806
344 2 8.33572 12.4647 16.8109
303 3 9.04443 7.8641 18.4541
47 4 1.33042 11.6712 18.3109
93 1 5.22693 12.1558 9.45002
71 1 11.0967 7.00587 14.5671
58 4 6.18004 6.85764 11.0402
265 3 4.89559 6.84927 12.0621
ITEM: TIMESTEP
200
ITEM: NUMBER OF ATOMS
365
ITEM: BOX BOUNDS xy xz yz pp pp pp
-7.7317999999999998e+00 1.5563499999999999e+01 -7.7317999999999998e+00
-1.3819999999999999e-01 1.3846299999999999e+01 2.4629999999999999e-01
0.0000000000000000e+00 1.8505421999999999e+01 -1.3819999999999999e-01
ITEM: ATOMS id type x y z
7 4 0.967871 3.28932 0.302505
8 2 1.97696 2.268 1.23307
9 2 1.06577 4.81591 1.0212
10 3 -0.562681 2.75503 0.404855
11 4 2.83556 0.461214 8.82466
13 4 1.25651 2.59772 6.85383
347 2 -2.71361 5.77392 1.03611
29 4 6.72775 0.769228 2.58274
30 4 2.78944 3.07042 4.32262
31 4 5.27802 2.63478 0.808134
37 4 4.58462 4.96215 2.64959
68 1 -2.15245 5.79655 4.9464
69 1 -0.680898 6.46097 7.6128
74 1 2.24753 1.49073 3.00167
75 1 5.14568 2.2317 6.35555
77 1 2.17816 6.7725 3.67978
107 2 3.56214 6.33816 2.32489
102 2 1.49284 2.63787 2.93592
131 2 -0.947563 5.38524 7.28778
109 2 3.03949 5.94376 5.28929
126 2 -1.40153 4.9267 4.88092
127 2 -2.3144 6.22302 3.94085
161 2 2.37745 5.86513 8.91647
130 2 0.379518 6.57647 7.85582
142 2 2.8467 1.31463 2.03197
143 2 1.59223 0.54045 3.28709
144 2 3.57008 1.34633 4.19535
145 2 5.21143 1.10946 6.64189
146 2 5.1994 2.45254 5.22725
147 2 4.45024 2.9014 6.96968
151 2 1.58052 6.11515 4.4356
96 2 -1.29306 5.23512 9.04958
112 2 7.47935 -0.00932618 1.2755
319 2 -1.60431 3.64619 4.33354
201 3 -0.040733 1.89468 6.00364
202 3 2.02516 1.3775 7.63997
205 3 0.624613 3.72124 7.87348
219 3 2.31628 3.26124 5.7728
220 3 5.35376 1.51235 2.04854
226 3 3.67985 4.16536 3.63848
227 3 4.73794 4.07596 1.32171
153 2 1.87338 6.882 2.53558
14 4 0.282115 2.43277 13.1745
346 2 -1.71315 4.00559 16.8272
19 4 -1.20659 5.12809 13.8187
33 4 3.78723 2.89651 10.3289
35 4 3.53137 2.74952 16.8101
40 4 1.14515 6.40656 10.8518
42 4 4.86716 4.73042 14.8103
43 4 0.409722 6.06341 16.2873
99 2 4.35669 0.157848 17.4168
67 1 0.368223 1.47393 14.8696
76 1 3.54709 1.57926 15.3709
358 2 5.72692 0.454522 13.2373
204 3 -1.15278 2.70519 9.61415
103 2 2.22617 3.66764 10.4689
104 2 1.85641 2.31416 13.8885
110 2 1.28792 4.72753 16.7897
123 2 0.904428 0.446249 14.7025
15 4 -2.17236 6.3896 17.9393
125 2 0.728766 2.04523 15.8549
148 2 2.44871 1.14252 15.451
149 2 4.39998 0.792806 15.6
150 2 3.67481 1.99219 14.3752
237 3 -0.602449 6.22798 17.5805
203 3 0.0844673 1.62874 11.8457
16 4 -0.140153 3.93914 9.29906
206 3 -0.347992 3.81234 13.3916
44 4 3.47346 6.75465 13.0334
209 3 -1.68014 6.0438 12.6965
221 3 3.62766 1.38986 9.84657
223 3 4.26897 1.83623 17.9279
224 3 1.65917 3.14028 17.3247
225 3 4.3919 3.13207 11.7597
231 3 0.871888 4.44139 10.4107
234 3 4.28805 4.12287 16.3441
235 3 5.63534 3.31324 14.0011
236 3 -0.534997 5.82241 15.092
238 3 2.12527 6.62578 12.0274
239 3 3.59606 5.44509 13.8951
36 4 5.81915 3.13807 12.5195
229 3 4.61507 3.77084 9.29305
106 2 6.6787 1.60835 12.201
356 2 5.49909 0.180044 11.2654
18 4 -1.35168 7.23951 5.98594
23 4 -3.04029 9.23926 7.83363
25 4 -3.91543 12.154 6.8196
38 4 1.1859 8.34849 4.29816
45 4 0.274647 9.03663 1.32791
46 4 -1.38713 12.0828 4.68297
70 1 -5.56251 12.4416 6.06503
78 1 1.69911 8.17134 0.492804
79 1 -1.90881 10.5762 3.64664
111 2 -1.0958 8.06181 1.0833
353 2 -5.32703 10.3546 8.83689
133 2 -6.20143 11.5295 6.50499
108 2 1.95974 9.40676 5.42289
156 2 2.381 8.10263 1.40795
132 2 -5.4609 12.3525 4.90543
152 2 3.20428 7.36532 4.05116
157 2 -1.35736 9.7065 4.06208
158 2 -1.56663 11.0711 2.60142
159 2 -3.04642 10.5166 3.77807
348 2 -4.70813 9.52053 4.26003
210 3 -3.87781 8.15768 8.86345
211 3 -2.3867 8.32412 6.44219
213 3 -4.08449 10.3097 7.40643
214 3 -3.90627 13.1652 8.05801
228 3 -0.0838691 7.68905 5.0899
240 3 0.862408 9.07922 2.88904
241 3 -1.15648 13.3243 3.59486
242 3 -2.70359 12.2867 5.69455
243 3 0.0251863 10.4908 0.438926
245 3 -1.87523 10.0701 8.52312
246 3 -0.688663 12.5975 8.96302
247 3 0.10139 11.6144 5.55833
155 2 1.17067 7.14557 0.372059
322 2 -2.9014 8.2677 1.0577
129 2 -1.28331 6.9388 8.41684
324 1 -5.26294 11.9679 2.9775
325 2 -5.09695 11.6855 1.81541
326 2 -4.2518 11.8023 3.58714
327 2 -5.8685 13.0149 3.17014
113 2 1.81446 8.79356 8.82478
354 2 -5.9831 13.4824 6.44779
160 2 1.38778 7.35505 8.43375
183 2 -4.66947 8.48809 5.72806
338 2 0.667876 12.5258 2.26045
251 3 3.23521 8.03871 14.0493
21 4 -1.47644 7.44609 11.9522
22 4 -2.81425 12.4752 16.841
24 4 -5.87954 12.0592 10.5311
26 4 -1.15185 9.88812 14.1613
27 4 -4.8732 10.9803 15.2268
28 4 -3.15906 12.4448 12.6755
252 3 0.148966 10.6957 14.6879
232 3 -0.32825 7.25009 10.7869
51 4 2.37873 8.3176 15.4151
52 4 -0.0254435 12.4433 15.5877
72 1 -1.86125 9.06679 15.7106
81 1 -0.564796 10.6348 10.9198
191 2 -5.86156 12.2239 13.4857
92 1 -5.84907 12.5434 14.6426
115 2 1.39957 9.65825 15.0329
254 3 -1.56969 12.8185 15.8532
100 2 -3.78328 10.3517 14.1572
101 2 -4.10656 13.1455 13.9171
114 2 -2.95869 11.8286 10.1565
136 2 -3.18418 7.7534 14.9031
137 2 -1.27141 9.51525 16.5684
138 2 -1.56959 7.97883 15.5986
139 2 -2.97176 9.29825 15.8362
154 2 2.49434 8.39236 18.0425
98 2 -2.16085 12.0067 18.2825
163 2 -0.0861243 9.67466 10.6185
164 2 -1.43192 10.5201 11.588
165 2 0.139105 11.4044 11.2035
190 2 -5.40037 13.5591 14.8564
49 4 -1.54589 11.3674 9.39203
208 3 -2.8858 7.88922 11.2899
212 3 -6.25996 13.364 9.66404
215 3 -1.118 8.70017 13.1698
216 3 -3.91722 11.5169 16.4045
217 3 -4.07547 12.1965 11.4149
218 3 -2.44623 11.104 13.4236
357 2 -0.770675 13.1818 12.0908
253 3 0.738678 12.4639 17.0078
250 3 1.40741 7.22498 15.9557
323 2 -3.46439 8.43097 17.8968
82 1 -1.78557 13.6463 12.2224
162 2 2.96322 7.4571 9.84012
321 1 -2.50884 8.17494 18.456
47 4 1.34099 11.4006 18.3559
352 2 -1.60888 8.81128 18.1515
80 1 2.05852 6.89476 9.25902
1 4 14.0285 1.27213 5.28127
349 2 14.2486 1.46535 1.56336
350 2 10.7049 1.05384 1.35189
4 2 12.4924 1.05271 6.9956
6 3 14.3262 0.217138 3.84175
318 1 12.9647 2.73825 4.71765
34 4 6.95695 2.67918 6.87823
39 4 5.47019 4.86969 8.56832
286 4 13.8333 0.055698 2.41573
53 4 8.6361 2.80047 3.92591
55 4 9.91039 4.61764 1.6348
56 4 6.46162 6.64494 4.34448
59 4 9.1676 6.36395 6.01816
85 1 9.94905 1.66211 4.69034
88 1 11.0794 5.9806 2.26752
90 1 10.3378 4.77884 6.09921
41 4 4.13648 6.71621 6.4046
170 2 11.0834 2.04901 4.77189
171 2 9.89127 0.748152 3.99319
172 2 9.46318 1.46443 5.68731
178 2 10.7946 6.55557 3.28354
179 2 11.0817 6.66164 1.35785
180 2 11.9835 5.3673 2.41621
184 2 10.6743 4.60281 5.05312
185 2 9.48049 4.10103 6.43164
186 2 11.1725 4.78797 6.90909
316 2 9.16748 3.4484 8.79767
222 3 7.33848 1.25382 7.55055
230 3 6.63894 4.04111 7.88926
336 2 9.19844 0.0057032 1.06744
255 3 7.82307 1.76413 3.07136
256 3 7.74528 3.04763 5.55764
258 3 9.39955 3.91007 2.95188
259 3 10.5878 3.64229 0.639697
260 3 5.81539 5.60513 3.34972
263 3 8.49096 5.3744 0.623823
266 3 7.84249 6.28707 5.09122
189 2 9.38482 6.51178 8.47527
128 2 12.1381 5.36611 5.40042
320 2 12.444 2.95112 5.72768
341 2 11.8769 1.27057 2.60003
351 2 12.255 2.48295 3.86941
339 1 11.8992 0.038782 2.4973
313 2 11.874 3.51016 8.88759
334 2 7.46043 3.97172 0.100787
2 1 12.9587 0.103023 6.40965
308 4 10.8705 2.21775 0.0565762
233 3 4.58642 5.64056 7.4481
333 2 7.66766 2.02093 0.146248
32 4 8.1011 -0.0376414 8.33497
12 4 14.4387 1.44707 10.535
20 4 10.7488 5.67513 15.8638
97 2 12.56 4.55704 14.3473
54 4 11.9501 0.750592 12.282
57 4 8.56627 6.3778 17.9069
60 4 10.3 3.07498 13.8871
135 2 11.4917 6.17801 13.6308
73 1 9.03882 0.736436 9.72142
84 1 8.63318 0.0962544 14.8084
360 2 9.22673 0.450671 15.7153
105 2 6.75036 4.35849 11.8222
314 2 8.54209 5.0013 9.59769
117 2 9.68595 1.78244 14.7978
119 2 8.91425 3.61812 13.2688
120 2 9.90504 6.22813 13.1607
355 2 8.67045 0.269522 10.6494