LAMMPS (2 Aug 2023 - Update 2)
  using 2 OpenMP thread(s) per MPI task
Reading data file ...
  triclinic box = (0 0 0) to (15.6782 14.2194 17.6383) with tilt (-7.0409 -1.0144 0.675)
  2 by 2 by 2 MPI processor grid
  reading atoms ...
  350 atoms
Finding 1-2 1-3 1-4 neighbors ...
  special bond factors lj:    0        0        0       
  special bond factors coul:  0        0        0       
     0 = max # of 1-2 neighbors
     0 = max # of 1-3 neighbors
     0 = max # of 1-4 neighbors
     1 = max # of special neighbors
  special bonds CPU = 0.001 seconds
  read_data CPU = 0.009 seconds
WARNING: Van der Waals parameters for element SI indicate inner wall+shielding, but earlier atoms indicate a different van der Waals method. This may cause division-by-zero errors. Keeping van der Waals setting for earlier atoms. (src/REAXFF/reaxff_ffield.cpp:251)
WARNING: Van der Waals parameters for element SI indicate inner wall+shielding, but earlier atoms indicate a different van der Waals method. This may cause division-by-zero errors. Keeping van der Waals setting for earlier atoms. (src/REAXFF/reaxff_ffield.cpp:251)
WARNING: New thermo_style command, previous thermo_modify settings will be lost (src/output.cpp:903)

CITE-CITE-CITE-CITE-CITE-CITE-CITE-CITE-CITE-CITE-CITE-CITE-CITE

Your simulation uses code contributions which should be cited:
- pair reaxff command: doi:10.1016/j.parco.2011.08.005
- fix qeq/reaxff command: doi:10.1016/j.parco.2011.08.005
The log file lists these citations in BibTeX format.

CITE-CITE-CITE-CITE-CITE-CITE-CITE-CITE-CITE-CITE-CITE-CITE-CITE

WARNING: Compute rdf cutoff less than neighbor cutoff - forcing a needless neighbor list build (src/compute_rdf.cpp:179)
WARNING: Fix qeq/reaxff group is not charge neutral, net charge = -10.66 (src/REAXFF/fix_qeq_reaxff.cpp:392)
Neighbor list info ...
  update: every = 10 steps, delay = 0 steps, check = no
  max neighbors/atom: 2000, page size: 100000
  master list distance cutoff = 12
  ghost atom cutoff = 12
  binsize = 6, bins = 4 3 3
  3 neighbor lists, perpetual/occasional/extra = 2 1 0
  (1) pair reaxff, perpetual
      attributes: half, newton off, ghost
      pair build: half/bin/newtoff/ghost
      stencil: full/ghost/bin/3d
      bin: standard
  (2) compute rdf, occasional
      attributes: half, newton on, cut 7
      pair build: half/bin/newton/tri
      stencil: half/bin/3d/tri
      bin: standard
  (3) fix qeq/reaxff, perpetual, copy from (1)
      attributes: half, newton off
      pair build: copy
      stencil: none
      bin: none
Setting up Verlet run ...
  Unit style    : real
  Current step  : 0
  Time step     : 0.5
Per MPI rank memory allocation (min/avg/max) = 129.9 | 130.6 | 131.3 Mbytes
   Step          Temp          PotEng         Press         Density         Volume    
         0   300           -30535.512      175786.22      1.6516858      3932.1873    
       100   1383.7917     -33980.84      -6308.5349      1.6516858      3932.1873    
       200   781.46282     -34691.386     -3098.4389      1.6516858      3932.1873    
       300   557.99137     -35194.215      11915.818      1.6516858      3932.1873    
       400   397.49732     -35428.852      13079.532      1.6516858      3932.1873    
       500   310.96568     -35566.495     -5553.1145      1.6516858      3932.1873    
       600   267.00592     -35650.5        4958.9972      1.6516858      3932.1873    
       700   295.38754     -35755.276     -1511.6807      1.6516858      3932.1873    
       800   301.97628     -35820.183      5290.9468      1.6516858      3932.1873    
       900   271.18206     -35861.282     -12002.085      1.6516858      3932.1873    
      1000   309.61523     -35981.43       3894.9372      1.6516858      3932.1873    
Loop time of 22.343 on 16 procs for 1000 steps with 350 atoms

Performance: 1.933 ns/day, 12.413 hours/ns, 44.757 timesteps/s, 15.665 katom-step/s
100.3% CPU use with 8 MPI tasks x 2 OpenMP threads

MPI task timing breakdown:
Section |  min time  |  avg time  |  max time  |%varavg| %total
---------------------------------------------------------------
Pair    | 16.021     | 16.523     | 17.15      |   7.5 | 73.95
Bond    | 0.0017059  | 0.0017823  | 0.0019392  |   0.2 |  0.01
Neigh   | 2.1903     | 2.2115     | 2.2473     |   1.3 |  9.90
Comm    | 0.30674    | 0.93295    | 1.434      |  31.6 |  4.18
Output  | 0.00054846 | 0.0038824  | 0.0050472  |   2.7 |  0.02
Modify  | 2.6049     | 2.6434     | 2.6691     |   1.3 | 11.83
Other   |            | 0.02649    |            |       |  0.12

Nlocal:          43.75 ave          52 max          38 min
Histogram: 2 0 0 2 2 0 1 0 0 1
Nghost:        3098.88 ave        3158 max        3048 min
Histogram: 1 1 0 1 1 2 0 1 0 1
Neighs:        27190.4 ave       31776 max       23787 min
Histogram: 2 0 0 2 2 0 1 0 0 1

Total # of neighbors = 217523
Ave neighs/atom = 621.49429
Ave special neighs/atom = 0
Neighbor list builds = 100
Dangerous builds not checked
Total wall time: 0:00:22
