LAMMPS (2 Aug 2023 - Update 2)
  using 2 OpenMP thread(s) per MPI task
Reading data file ...
  triclinic box = (0 0 0) to (15.6782 14.2194 17.6383) with tilt (-7.0409 -1.0144 0.675)
  2 by 2 by 2 MPI processor grid
  reading atoms ...
  350 atoms
Finding 1-2 1-3 1-4 neighbors ...
  special bond factors lj:    0        0        0       
  special bond factors coul:  0        0        0       
     0 = max # of 1-2 neighbors
     0 = max # of 1-3 neighbors
     0 = max # of 1-4 neighbors
     1 = max # of special neighbors
  special bonds CPU = 0.001 seconds
  read_data CPU = 0.009 seconds
WARNING: Van der Waals parameters for element SI indicate inner wall+shielding, but earlier atoms indicate a different van der Waals method. This may cause division-by-zero errors. Keeping van der Waals setting for earlier atoms. (src/REAXFF/reaxff_ffield.cpp:251)
WARNING: Van der Waals parameters for element SI indicate inner wall+shielding, but earlier atoms indicate a different van der Waals method. This may cause division-by-zero errors. Keeping van der Waals setting for earlier atoms. (src/REAXFF/reaxff_ffield.cpp:251)
WARNING: New thermo_style command, previous thermo_modify settings will be lost (src/output.cpp:903)

CITE-CITE-CITE-CITE-CITE-CITE-CITE-CITE-CITE-CITE-CITE-CITE-CITE

Your simulation uses code contributions which should be cited:
- pair reaxff command: doi:10.1016/j.parco.2011.08.005
- fix qeq/reaxff command: doi:10.1016/j.parco.2011.08.005
The log file lists these citations in BibTeX format.

CITE-CITE-CITE-CITE-CITE-CITE-CITE-CITE-CITE-CITE-CITE-CITE-CITE

WARNING: Fix qeq/reaxff group is not charge neutral, net charge = -10.66 (src/REAXFF/fix_qeq_reaxff.cpp:392)
Neighbor list info ...
  update: every = 10 steps, delay = 0 steps, check = no
  max neighbors/atom: 2000, page size: 100000
  master list distance cutoff = 12
  ghost atom cutoff = 12
  binsize = 6, bins = 4 3 3
  3 neighbor lists, perpetual/occasional/extra = 2 1 0
  (1) pair reaxff, perpetual
      attributes: half, newton off, ghost
      pair build: half/bin/newtoff/ghost
      stencil: full/ghost/bin/3d
      bin: standard
  (2) compute rdf, occasional
      attributes: half, newton on
      pair build: half/bin/newton/tri
      stencil: half/bin/3d/tri
      bin: standard
  (3) fix qeq/reaxff, perpetual, copy from (1)
      attributes: half, newton off
      pair build: copy
      stencil: none
      bin: none
Setting up Verlet run ...
  Unit style    : real
  Current step  : 0
  Time step     : 0.5
Per MPI rank memory allocation (min/avg/max) = 129.9 | 130.6 | 131.3 Mbytes
   Step          Temp          PotEng         Press         Density         Volume    
         0   300           -30535.512      175786.22      1.6516858      3932.1873    
       100   1383.7917     -33980.84      -6308.5349      1.6516858      3932.1873    
       200   781.46282     -34691.386     -3098.4389      1.6516858      3932.1873    
       300   557.99137     -35194.215      11915.818      1.6516858      3932.1873    
       400   397.49732     -35428.852      13079.532      1.6516858      3932.1873    
       500   310.96568     -35566.495     -5553.1145      1.6516858      3932.1873    
Loop time of 11.1609 on 16 procs for 500 steps with 350 atoms

Performance: 1.935 ns/day, 12.401 hours/ns, 44.799 timesteps/s, 15.680 katom-step/s
99.9% CPU use with 8 MPI tasks x 2 OpenMP threads

MPI task timing breakdown:
Section |  min time  |  avg time  |  max time  |%varavg| %total
---------------------------------------------------------------
Pair    | 7.971      | 8.2542     | 8.416      |   4.4 | 73.96
Bond    | 0.00085402 | 0.00088919 | 0.00096226 |   0.0 |  0.01
Neigh   | 1.0902     | 1.1061     | 1.1387     |   1.5 |  9.91
Comm    | 0.2213     | 0.38205    | 0.66454    |  20.4 |  3.42
Output  | 0.00029333 | 0.0019157  | 0.0024712  |   1.9 |  0.02
Modify  | 1.3682     | 1.4026     | 1.4184     |   1.4 | 12.57
Other   |            | 0.0132     |            |       |  0.12

Nlocal:          43.75 ave          51 max          36 min
Histogram: 1 0 0 0 2 2 2 0 0 1
Nghost:        3093.75 ave        3117 max        3065 min
Histogram: 1 1 0 0 2 0 1 0 1 2
Neighs:        27200.9 ave       31284 max       22514 min
Histogram: 1 0 0 0 2 2 2 0 0 1

Total # of neighbors = 217607
Ave neighs/atom = 621.73429
Ave special neighs/atom = 0
Neighbor list builds = 50
Dangerous builds not checked
Total wall time: 0:00:11
