ITEM: TIMESTEP
0
ITEM: NUMBER OF ATOMS
331
ITEM: BOX BOUNDS xy xz yz pp pp pp
-8.3499999999999996e+00 1.5708700000000000e+01 -8.2042000000000002e+00
-2.0055999999999998e+00 1.3086800000000000e+01 -1.4580000000000001e-01
0.0000000000000000e+00 1.7524799999999999e+01 -2.0055999999999998e+00
ITEM: ATOMS id type q x y z
1 4 1.05571 -0.763128 1.99368 4.48997
2 4 0.687496 -0.153796 4.31342 2.19687
3 1 -0.632261 0.12461 2.91861 5.92223
174 2 0.161152 -2.48394 5.39509 7.47064
5 1 -0.630301 1.74532 4.7642 3.4647
6 1 -0.588077 -1.59543 5.81438 1.79059
8 2 0.148197 0.708832 3.88594 5.61426
9 2 0.13613 0.838029 1.98769 6.12556
10 2 0.169228 -0.772661 3.04275 6.69019
11 2 0.134999 1.2914 0.296851 4.07736
12 2 0.011086 1.57531 4.01545 1.76141
13 2 0.144977 1.09158 4.33945 4.39039
14 2 0.147273 2.83561 4.86005 3.82987
263 4 0.934819 4.33274 4.32465 1.43474
16 2 0.115966 -2.5027 5.41594 2.36551
17 2 0.0252601 -1.27555 4.66731 0.611418
18 3 -0.750923 -0.735962 3.17429 3.08754
24 4 0.803218 5.00612 1.23599 4.34141
45 1 -0.661519 3.23563 2.12027 4.6917
47 1 -0.697728 3.59558 0.576372 8.43032
176 2 0.196212 -1.84291 3.89913 6.67404
7 2 0.127243 1.34445 5.79922 3.20542
78 2 0.165999 2.72213 3.08592 4.19156
79 2 0.134584 3.82401 2.38332 5.80025
80 2 0.137242 2.4825 1.30878 4.78116
46 1 -0.651526 6.25773 0.252946 0.362963
82 2 0.204836 4.09238 1.00963 7.58375
51 1 -0.639408 2.59304 5.51129 7.00779
163 2 0.0597177 -3.21657 5.10925 5.35565
154 1 -0.610334 -2.07126 4.98607 6.52168
93 2 0.208218 2.614 4.56883 7.65403
285 2 0.161025 2.52967 1.76344 0.609899
265 2 0.000532572 3.11509 3.72115 2.51003
117 3 -0.777801 5.85718 0.624282 5.54749
284 2 0.13728 0.600022 2.13214 0.959102
321 2 0.136535 5.52529 0.460204 1.29115
94 2 0.127078 2.16563 5.20035 5.90237
267 3 -0.804838 3.71706 5.615 0.74846
266 3 -0.765284 5.0264 3.17527 0.672527
96 2 0.142411 4.14774 3.93127 4.62267
4 1 -0.669055 0.173592 0.379422 3.97592
312 2 -0.0160448 3.52528 0.392468 3.84448
162 2 -0.0171601 2.61265 -0.105337 6.88846
170 2 -0.00617763 -0.681358 5.33904 7.90511
316 2 0.169378 -0.142825 0.471038 2.87074
87 2 0.189657 5.6107 2.42188 2.19114
175 2 0.0299491 -0.43651 5.64278 6.078
283 1 -0.672215 1.40333 1.79033 0.144886
15 2 0.0628755 -0.496326 6.1749 2.57617
83 2 0.157091 2.49467 0.786212 8.523
49 1 -0.684647 6.15876 2.07492 3.18564
19 4 0.765316 1.60013 1.01411 16.363
21 4 1.39817 2.45657 -1.15975 13.0224
22 4 1.41958 1.22472 1.25983 11.5574
23 4 1.0174 -0.954482 2.49783 13.5818
25 4 1.19471 6.13177 -0.0123232 17.269
27 4 1.03691 4.10945 1.50773 10.0066
29 4 1.51477 4.37834 0.481165 14.6575
150 4 1.00832 2.67895 5.21624 11.0141
81 2 0.176068 4.01068 -0.423088 8.83419
127 3 -0.740105 1.27539 4.27888 16.6058
48 1 -0.638889 5.40258 0.532793 11.0113
58 2 0.018605 0.162406 0.615647 15.4878
44 1 -0.647283 -1.50727 0.896334 14.3951
34 4 0.829492 -0.312682 4.35423 16.0838
75 2 0.184848 -0.76033 0.0835349 14.122
198 3 -0.760703 1.53848 5.35045 9.71946
311 2 0.102096 1.40096 2.74118 16.582
84 2 0.258858 5.84259 -0.35179 10.263
85 2 0.272737 4.8502 0.0758409 12.0401
171 2 0.116901 2.4963 3.53798 11.2827
112 3 -0.823977 0.545296 0.274178 10.028
113 3 -0.820573 1.60154 0.112125 12.5498
114 3 -0.800565 0.150323 2.28434 12.362
116 3 -0.78823 2.59386 1.93474 11.2485
119 3 -0.795132 4.14837 -0.593834 13.4537
120 3 -0.762958 5.55588 -0.0315289 15.7154
121 3 -0.758831 2.99733 0.72974 15.5576
122 3 -0.798529 5.01 2.69855 9.47593
125 3 -0.780411 4.91793 1.86194 14.0122
126 3 -0.810394 -0.684559 3.33451 14.9353
286 2 0.174257 0.976682 -1.14287 17.0618
59 2 -0.0266133 -0.784915 2.47142 9.48957
60 2 0.0117745 -2.51819 3.06331 12.8784
20 4 1.1622 -0.951141 0.787891 9.60973
77 2 0.158702 -1.74806 1.05463 15.4898
326 2 0.171296 7.45885 -1.09015 12.4046
62 2 -0.024731 -1.36649 4.26826 17.418
95 2 0.182609 1.93503 6.38381 7.54853
143 4 0.566481 -6.3811 11.4709 6.49519
144 4 0.668509 -1.93019 6.50939 5.29422
146 4 0.907561 -2.50636 9.23681 6.9164
294 2 0.150324 1.66242 8.29148 0.973815
300 2 0.199121 0.316171 10.0444 7.9775
231 2 0.196491 1.97826 8.20943 4.76012
322 2 0.158416 -0.772863 12.9725 0.789189
317 2 0.113326 -5.46239 9.72109 3.82678
235 2 0.174926 -1.24957 11.5265 5.1306
166 2 0.0710557 -4.12283 9.75713 7.16214
167 2 -0.0130455 -1.80397 10.5436 5.97635
169 2 -0.0183277 -6.16478 11.2087 4.79035
164 2 -0.0248675 -1.99777 6.58686 3.51459
230 2 0.138879 0.32688 8.69126 5.86074
234 2 0.198034 0.196106 10.9889 6.29745
183 2 0.170768 -0.242138 7.38433 7.56945
192 3 -0.780796 -2.33875 7.86299 6.05421
193 3 -0.767412 -5.725 10.2495 7.29296
199 3 -0.777649 -1.82269 9.09776 8.29104
206 4 0.675742 -1.78665 9.12384 1.33541
207 4 0.962811 0.396673 9.8188 3.91721
213 1 -0.626552 -3.12955 10.262 1.04355
214 1 -0.632392 0.847868 8.25705 4.78355
215 1 -0.640365 -0.147405 11.2001 5.16513
184 2 0.177381 1.50993 7.87719 8.17239
221 2 0.0111111 -2.30473 7.26381 1.18515
227 2 0.0962842 -3.96769 9.38843 1.61198
242 3 -0.718847 -0.773621 9.57043 2.5089
229 2 0.17051 -2.86377 11.2264 1.69026
157 1 -0.661928 0.511416 7.58658 8.47915
232 2 0.120083 0.288389 7.26063 4.41508
328 2 0.26948 -5.82954 8.48882 7.3716
261 2 0.187367 -6.92843 10.1312 16.3939
64 2 -0.0215695 -0.650256 5.94627 15.5107
115 3 -0.762468 -6.69187 11.0807 14.3275
145 4 0.959048 -1.86615 6.29042 12.2243
148 4 1.33584 -4.94543 9.65463 10.914
151 4 1.46155 -1.94275 10.1709 9.70369
200 3 -0.822376 -1.73064 11.685 9.13942
153 4 1.0175 0.0446523 9.79823 12.0555
155 1 -0.644927 -1.1055 7.03658 13.8765
156 1 -0.663124 -4.76353 7.97856 11.9215
274 2 0.170726 -0.740035 10.8451 16.4896
182 2 0.269278 -0.0699613 8.24854 9.26279
165 2 0.038265 -1.97691 8.08518 12.6572
149 4 1.01362 0.0930433 5.9417 9.34955
258 4 0.80531 -7.07602 9.55837 14.1548
177 2 0.171538 -0.362798 7.64371 14.3811
178 2 0.0907755 -0.535054 5.60259 13.5422
179 2 0.136203 -2.00722 6.87281 14.5733
180 2 0.175252 -3.96261 7.56194 11.2326
181 2 0.159151 -4.40383 8.03345 12.9741
220 2 -0.043658 -1.20644 7.39146 17.3165
188 2 0.0286632 -1.20516 10.3078 13.2348
194 3 -0.768625 -3.1737 5.57016 12.4902
195 3 -0.781147 -6.1249 9.41826 9.87157
196 3 -0.850078 -5.45065 10.7892 11.8663
197 3 -0.732921 -0.936718 6.06542 10.5785
147 4 1.06397 -7.0537 10.3251 8.85458
201 3 -0.828467 -3.40239 9.96086 10.31
202 3 -0.761285 2.34981 6.1452 12.3267
203 3 -0.841637 -0.757759 9.70181 10.6462
168 2 0.0846172 -7.26922 11.8358 9.62997
275 2 0.12548 -0.111954 9.07121 15.7913
204 3 -0.786612 1.06174 8.70033 12.626
260 2 -0.0043669 -5.74317 8.73524 13.4574
303 2 -0.0150722 -4.80154 6.21335 17.0893
320 2 0.175125 -2.55958 10.7499 17.0228
30 4 1.17368 3.04861 4.89526 17.4492
172 2 -0.0232971 1.62137 7.35502 14.7456
270 1 -0.65849 0.0127325 10.2384 15.7679
228 2 0.143139 -3.48874 8.43888 17.4543
28 4 1.44743 7.30173 1.16415 6.3788
31 4 1.25967 6.03439 3.45986 8.39607
35 4 1.22928 9.5521 1.94107 4.17063
37 4 1.47664 12.082 1.43135 5.93869
40 4 0.672482 10.9196 4.06609 2.49523
330 2 0.184155 13.0481 1.42341 0.475557
105 2 0.119488 12.1314 3.35943 0.636463
55 1 -0.668785 12.0402 2.80011 1.57944
56 1 -0.629742 7.93284 5.02675 5.49318
65 2 -0.0189757 9.32816 0.711973 2.99742
69 2 -0.0597731 11.7436 5.05718 3.64825
70 2 -0.0145719 10.2598 5.46306 1.48188
313 2 -0.00978289 10.444 2.27212 0.50932
89 2 0.174268 6.34818 2.96169 3.84722
296 2 0.0792136 9.07436 0.693221 0.532078
32 4 0.825166 4.3218 5.61076 6.4484
106 2 0.155289 11.5142 1.75737 1.61835
107 2 0.194307 12.9666 2.9898 2.39466
108 2 0.268426 7.99402 3.91262 5.47177
118 3 -0.81923 8.05584 -0.0425608 7.13059
123 3 -0.792351 6.79474 2.43116 7.40623
124 3 -0.754281 5.14039 4.72336 7.4948
128 3 -0.802157 8.3121 1.91101 5.23199
129 3 -0.846479 14.2997 0.242145 8.12393
131 3 -0.798208 13.4923 1.63113 5.11503
132 3 -0.830961 10.8745 1.58623 4.99109
133 3 -0.781204 11.998 -0.406375 6.48883
137 3 -0.781187 9.77237 3.31215 3.37136
139 3 -0.837657 12.0193 2.40953 7.26851
140 3 -0.800215 10.2939 4.3328 7.37088
42 4 0.778798 9.63017 5.54291 6.56896
264 2 -0.00902622 5.34963 4.83288 2.74703
26 4 1.30398 8.10797 -0.588073 8.62902
97 2 0.142596 5.86267 4.78769 4.29817
109 2 0.15432 7.03033 5.36241 4.84318
41 4 1.31212 11.0588 3.20224 8.23619
110 2 0.109356 7.67265 5.42955 6.71999
88 2 0.172152 7.08295 1.42703 3.05669
52 1 -0.667413 4.7308 5.03432 4.57311
98 2 0.145577 4.26094 5.81156 3.94594
72 2 0.00473627 9.62077 5.58997 4.78555
237 2 0.17179 12.7866 -0.326467 3.46832
315 2 0.201475 15.3613 -0.48581 4.48963
309 2 0.157414 13.6703 -1.46567 14.144
68 2 -0.00749318 12.4475 -0.742982 12.7116
33 4 0.998911 5.89386 3.19777 13.9115
36 4 1.25972 9.76441 1.36309 10.3742
38 4 0.683115 9.18321 1.06494 16.9793
39 4 0.952869 12.2648 -0.213034 11.0985
50 1 -0.658966 7.32505 4.25614 9.49925
53 1 -0.641166 7.41959 3.11348 12.4732
54 1 -0.629938 9.41862 0.18174 15.3887
306 2 0.151343 14.4507 -0.819309 16.7712
63 2 0.0401244 5.82056 3.92421 12.3002
66 2 -0.0117901 9.00088 2.30936 11.6269
67 2 0.0115506 9.39064 2.83916 17.2824
71 2 -0.00841631 12.0388 4.26687 9.13062
281 2 0.0212422 8.60424 4.47026 16.5234
327 2 0.185973 8.76106 -0.81188 13.7422
90 2 0.144864 6.97119 5.35834 9.47045
92 2 0.180729 7.4669 3.8564 10.5959
99 2 0.161845 8.255 3.87941 12.2119
100 2 0.137203 7.27036 2.18116 11.7159
101 2 0.0670134 7.81725 2.58037 13.9086
102 2 0.125267 10.6165 0.313217 15.3366
103 2 0.141792 8.74313 0.913027 14.7417
104 2 0.177618 8.95552 -0.956369 15.5384
130 3 -0.848507 8.65436 0.350245 9.72633
134 3 -0.753183 7.71628 0.512415 17.4548
135 3 -0.842215 13.6015 0.530087 10.7137
136 3 -0.856871 10.9965 0.601809 10.933
138 3 -0.857498 10.2911 2.42446 9.29236
141 3 -0.812623 5.94736 4.41884 15.0253
249 4 1.0202 10.9631 4.69093 12.9397
250 1 -0.683916 11.2391 2.78032 13.061
187 2 0.171474 4.84741 4.78337 10.604
252 2 0.151198 11.8479 2.5148 13.9356
253 2 0.188592 11.6913 2.42271 12.1261
254 2 0.144644 10.1689 2.33152 13.1363
304 1 -0.642136 13.6272 -1.38243 17.3537
256 2 0.160363 9.37093 4.23774 10.832
76 2 0.114261 13.1526 0.888209 13.6818
302 2 0.136118 11.2872 4.34729 17.045
91 2 0.199598 8.24762 4.15579 8.82328
310 2 0.163991 11.7795 -1.1636 14.2449
251 1 -0.663112 9.76428 5.09104 11.5289
301 1 -0.626916 10.2155 4.46178 17.412
86 2 0.171934 6.25921 1.3526 11.3518
222 2 0.00363959 4.77488 11.0531 8.44964
218 2 -0.0129049 9.8795 8.0854 5.63862
57 1 -0.6687 9.68117 7.32611 7.41692
61 2 0.0923127 4.65045 7.3229 6.68879
299 2 0.204066 1.57762 11.3046 7.40613
226 2 0.0867382 8.92596 8.87471 2.4577
298 1 -0.687179 0.977725 10.9161 8.20256
244 3 -0.850804 7.32031 9.60141 8.60048
248 3 -0.818712 6.04935 11.4493 6.14554
205 4 0.713098 8.48709 8.4451 4.60746
212 1 -0.631491 9.13468 9.73847 3.45372
209 4 1.02987 3.65598 10.6593 3.78463
247 3 -0.758024 4.93454 8.88048 6.99129
211 4 1.27495 5.76079 9.65395 5.59702
243 3 -0.734173 2.10055 10.3585 3.48383
216 1 -0.666801 4.33641 11.9751 2.61747
111 2 0.144783 8.57438 7.14305 7.70216
219 2 -0.017249 8.17199 6.69077 4.49533
245 3 -0.798413 7.1956 9.03302 5.24892
223 2 0.113262 3.54655 11.7567 5.13855
325 2 0.136389 10.2594 6.95753 0.784887
208 4 1.1859 5.24866 12.2381 7.26802
210 4 0.936769 6.01061 8.80897 8.55779
297 2 0.163426 2.04719 12.4222 2.03225
233 2 0.171958 0.471054 11.984 4.54237
295 1 -0.629929 1.02323 12.3926 1.50525
236 2 0.163361 5.28902 11.5903 2.10973
246 3 -0.779848 4.68113 9.53076 4.23749
238 2 0.165569 3.46218 12.3077 1.88704
292 2 0.1738 3.43821 9.02736 1.03256
161 2 0.0785692 7.60098 11.6576 6.57269
272 2 0.0698777 1.30833 10.7665 0.812489
305 2 0.148283 5.99241 12.861 0.50635
225 2 0.179491 8.62714 10.7126 3.36389
323 2 0.162824 0.224141 12.3191 2.32337
329 2 0.162082 10.4246 6.86279 8.19445
291 1 -0.647413 2.75904 8.1352 1.29106
293 2 0.19185 2.94454 7.59959 2.27969
43 4 0.92684 5.54967 5.55929 15.9651
73 2 -0.0138729 5.78018 7.05094 15.2453
255 2 0.141577 8.914 5.6579 12.0974
142 3 -0.803715 4.01887 5.55172 16.3919
74 2 -0.058836 6.62162 5.59457 17.2717
160 1 -0.664559 3.87749 8.27098 12.9862
159 1 -0.663447 0.187313 11.5777 12.8474
185 2 0.156198 4.58932 6.58564 11.3354
276 2 0.149291 5.83634 8.54996 17.0373
282 2 -0.0326664 8.81715 7.16729 15.7017
189 2 0.170255 3.59071 9.21847 12.4777
190 2 0.160458 4.46917 7.51204 12.3145
191 2 0.150791 4.11089 8.27015 14.0753
217 1 -0.639953 4.80694 9.67102 9.84642
239 2 0.122833 4.79315 8.53389 10.4237
262 2 0.137425 8.99944 8.38517 16.9182
241 2 0.137535 5.47423 10.4747 10.401
240 2 0.147904 3.7626 9.98868 9.49525
257 2 0.170392 10.3428 5.82471 10.8449
307 1 -0.641379 4.442 11.1791 14.2748
259 1 -0.64423 8.46918 9.03661 16.1583
269 4 0.895133 4.50752 10.5317 16.2741
271 1 -0.662048 5.27271 8.66259 16.1425
158 1 -0.683027 4.35312 5.82718 10.5364
318 2 0.151363 7.2765 8.90704 16.1565
277 2 0.133917 5.97074 8.8114 15.073
278 2 0.167722 4.3977 7.92061 15.9674
279 3 -0.759049 2.97051 10.3254 16.6908
280 4 0.621616 9.77638 5.69366 15.8187
186 2 0.183247 4.27051 6.21128 9.48933
268 4 0.766472 1.42251 10.1631 17.0897
287 1 -0.659099 6.95721 9.21393 13.3447
288 2 0.135952 6.65459 8.15654 13.5116
289 2 0.15424 7.35266 9.42476 12.2703
290 2 0.15001 6.00608 10.0585 13.7663
152 4 1.00036 2.14576 7.55646 13.1596
308 2 0.161032 4.23445 10.1327 13.7098
314 2 -0.0350079 3.78098 11.3638 10.3363
331 3 -0.749861 10.3923 5.20982 14.3858
273 2 0.185595 0.160127 10.7497 14.6744
324 2 0.144936 1.5683 10.8227 9.22441
319 2 0.169382 9.98551 7.34938 11.7793
224 2 -0.0369774 6.4572 7.2166 8.78586
173 2 0.110247 1.1556 11.5806 11.8417
ITEM: TIMESTEP
100
ITEM: NUMBER OF ATOMS
331
ITEM: BOX BOUNDS xy xz yz pp pp pp
-8.3558415999999998e+00 1.5708700000000000e+01 -8.2100416000000003e+00
-2.0055999999999998e+00 1.3086800000000000e+01 -1.4580000000000001e-01
0.0000000000000000e+00 1.7524799999999999e+01 -2.0055999999999998e+00
ITEM: ATOMS id type q x y z
1 4 1.06455 -0.825703 2.1409 4.49391
2 4 0.716487 -0.189819 4.31537 2.22696
3 1 -0.642711 0.128033 3.05136 5.93554
322 2 0.160549 7.33499 0.0939218 1.01898
5 1 -0.61811 1.68856 4.62404 3.49366
6 1 -0.614405 -1.19443 5.9387 1.73923
8 2 0.155731 0.713267 4.07409 5.97716
9 2 0.143928 0.765632 2.03238 6.11978
10 2 0.1598 -0.71902 3.12918 6.71136
11 2 0.144442 1.40731 0.722843 4.33432
12 2 0.0332125 1.57203 3.6403 2.06279
13 2 0.156765 1.06666 4.08064 4.52246
14 2 0.144934 2.81157 4.72592 3.85876
263 4 0.960174 4.41134 4.39884 1.47915
16 2 0.125505 -2.19934 5.89447 2.14982
17 2 0.00618666 -0.79953 4.6359 0.535049
18 3 -0.759469 -0.955395 3.21377 3.09975
24 4 0.814401 5.03732 1.28284 4.36464
45 1 -0.669543 3.24576 2.10143 4.95994
47 1 -0.648283 3.33329 0.606702 8.55009
176 2 0.165815 -1.73439 4.04743 6.79341
7 2 0.116149 1.27104 5.68878 3.19119
78 2 0.169841 2.76342 2.97659 4.3888
79 2 0.156458 3.74304 2.44835 5.94765
80 2 0.123436 2.5089 1.18738 5.09404
46 1 -0.65538 6.2644 0.420706 0.547694
82 2 0.176255 3.95568 1.12622 7.63396
51 1 -0.655472 2.65719 5.38187 6.88603
163 2 0.0456188 -3.48382 5.25284 5.71172
154 1 -0.620897 -2.00983 5.18758 6.64925
93 2 0.20307 2.60793 4.35615 7.4033
285 2 0.132978 2.20438 2.26108 0.941293
265 2 -0.00783601 3.2407 3.81149 2.57127
117 3 -0.767072 5.85531 0.505372 5.43291
284 2 0.160613 0.326443 1.84615 0.556131
321 2 0.149868 5.38589 0.50965 1.2669
94 2 0.141116 2.20531 5.38476 5.80305
267 3 -0.815761 3.69633 5.48387 0.59621
266 3 -0.789775 5.11744 3.28388 0.798225
96 2 0.151593 4.17395 3.86433 4.66217
4 1 -0.671055 0.372648 0.71758 3.93872
312 2 -0.00981856 3.48794 0.64971 3.71751
162 2 -0.0217034 2.66175 -0.19156 6.87626
170 2 -0.00192228 -0.499356 5.24454 7.97579
316 2 0.179904 0.364597 0.63175 2.83493
87 2 0.191569 5.72539 2.57648 2.3328
83 2 0.177257 2.16666 0.554539 8.45007
283 1 -0.687746 1.33705 1.77447 0.211262
49 1 -0.678934 6.24621 2.0905 3.26995
174 2 0.165197 -2.25992 5.65976 7.58363
175 2 0.0481786 -0.518683 5.81335 5.98981
19 4 0.784241 1.59667 0.934541 16.3299
21 4 1.42829 2.42182 -1.12344 13.1703
22 4 1.40698 1.09017 1.12925 11.5651
23 4 1.02949 -0.894521 2.37144 13.5705
25 4 1.18787 6.07562 0.0931262 17.2597
27 4 1.06879 4.07501 1.55375 10.0091
29 4 1.51415 4.4125 0.550249 14.7937
150 4 1.05163 2.62243 5.17554 11.0035
81 2 0.156916 3.80328 -0.431093 8.93335
127 3 -0.781275 1.05901 4.26751 16.6943
48 1 -0.671165 5.21266 0.491982 11.1453
58 2 0.0435979 0.420949 0.232089 15.2596
44 1 -0.666578 -1.31114 0.66106 14.4225
34 4 0.896556 -0.274945 4.33552 16.0252
75 2 0.206769 -0.558513 -0.00507426 13.9133
198 3 -0.780448 1.46672 5.15744 9.87803
311 2 0.075927 1.29198 2.60384 16.6915
84 2 0.250702 5.64134 -0.341373 10.4277
85 2 0.279328 4.69147 0.040581 12.1007
171 2 0.115431 2.54483 3.55671 11.6321
112 3 -0.823196 0.466702 0.420336 10.013
113 3 -0.85871 1.46703 -0.0724834 12.5236
114 3 -0.857919 0.0975388 2.00708 12.4424
116 3 -0.751081 2.57463 2.06986 10.9724
119 3 -0.780625 4.10178 -0.493562 13.6775
120 3 -0.770823 5.57362 -0.198295 15.7215
121 3 -0.79435 3.01929 0.743638 15.668
122 3 -0.78654 4.9963 2.68533 9.31552
125 3 -0.796968 5.0005 1.93968 14.0844
126 3 -0.817519 -0.490407 3.30092 14.8259
286 2 0.186919 1.43765 -1.22781 17.3096
59 2 -0.0420876 -1.12538 2.51409 9.31937
60 2 0.00865637 -2.32073 3.06424 12.7961
20 4 1.19776 -0.968605 0.856115 9.46173
77 2 0.144173 -1.27361 0.696614 15.5584
62 2 -0.0073141 -1.43889 4.10406 17.3127
86 2 0.169836 6.06789 1.2341 11.4516
95 2 0.169641 2.18459 6.2341 7.47369
143 4 0.581056 -6.28763 11.3734 6.49182
144 4 0.694894 -2.17611 6.52745 5.32813
146 4 0.91984 -2.50551 9.24955 6.87414
294 2 0.162883 1.69135 7.99238 1.22156
300 2 0.195849 0.426923 10.0088 7.75514
231 2 0.178899 1.87071 8.32871 5.47775
15 2 0.11316 -0.274526 6.51369 2.3648
317 2 0.130563 -5.39955 9.90574 3.61263
235 2 0.185169 -1.28344 11.4884 4.99322
166 2 0.0457314 -4.11638 9.77175 7.11364
167 2 -0.00874936 -1.7458 10.4423 5.90417
169 2 -0.0283511 -5.90815 11.0763 4.85806
164 2 -0.025264 -1.5606 6.24124 3.60156
230 2 0.179435 0.0330155 8.47817 5.70065
234 2 0.176525 0.218156 11.0922 6.2165
183 2 0.175784 0.172295 7.45552 7.67457
192 3 -0.804479 -2.33531 7.92151 5.97558
193 3 -0.78773 -5.80719 10.2352 7.39234
199 3 -0.832577 -1.82173 9.20272 8.24261
206 4 0.664513 -1.75325 9.17468 1.47533
207 4 1.04596 0.573879 9.83526 3.86234
213 1 -0.621969 -3.01128 10.4666 0.880924
214 1 -0.658619 0.830285 8.30903 4.9786
215 1 -0.632297 -0.179122 11.2005 5.01412
184 2 0.156608 1.8851 7.65919 8.55697
221 2 -0.0149871 -1.45114 7.54398 0.741796
227 2 -0.00801411 -3.30217 8.99907 2.16817
242 3 -0.743838 -0.639525 9.46649 2.58223
229 2 0.164652 -3.02978 11.2594 1.67326
157 1 -0.670318 0.735763 7.547 8.64453
232 2 0.150694 0.685899 7.43744 4.31012
328 2 0.265931 -5.86265 8.40867 7.52141
228 2 0.15205 -3.9977 10.3475 0.395539
261 2 0.177481 -6.71955 10.0151 16.6627
64 2 -0.0283629 -0.620855 5.86932 15.4492
115 3 -0.767514 -6.68555 11.1804 14.5146
145 4 0.989196 -1.79797 5.91148 12.1689
148 4 1.33031 -4.99221 9.70232 11.0554
151 4 1.39037 -2.07228 10.0706 9.58379
200 3 -0.800286 -1.77178 11.6484 9.1816
153 4 1.03771 0.0446197 9.79117 12.1337
155 1 -0.635824 -1.19163 6.87625 13.7961
156 1 -0.648271 -4.9476 8.04229 12.0715
274 2 0.154419 -0.403031 11.0702 16.3474
182 2 0.225852 0.369258 8.23691 9.46858
165 2 0.0844632 -1.98225 7.80546 12.6817
149 4 1.00746 0.156653 5.92923 9.4269
258 4 0.831275 -7.01218 9.64066 14.4034
177 2 0.160391 -0.385064 7.53815 14.2822
178 2 0.0653491 -0.445707 5.37761 13.3455
179 2 0.13893 -2.03051 6.59907 14.5183
180 2 0.161249 -4.13134 7.54544 11.3859
181 2 0.154889 -4.65119 7.84975 13.1879
172 2 -0.0126981 2.00513 6.95196 14.6493
188 2 0.0442582 -1.03947 10.355 13.3998
194 3 -0.821232 -3.17463 5.25399 12.5158
195 3 -0.751084 -6.37256 9.52731 9.99244
196 3 -0.834119 -5.32516 10.8042 12.1444
197 3 -0.762173 -1.04817 6.00401 10.6375
147 4 1.06505 -7.13457 10.3731 8.84791
201 3 -0.813989 -3.6248 9.94204 10.3656
202 3 -0.775304 2.28126 6.22676 12.1952
203 3 -0.784647 -0.859515 9.68521 10.9032
168 2 0.0600862 -7.26182 11.9256 9.4128
275 2 0.116329 -0.0977724 9.19025 15.6669
204 3 -0.817114 1.11288 8.73918 12.7524
260 2 0.00235485 -5.64381 8.61282 13.792
303 2 -0.0173003 -4.50081 6.16998 16.9109
320 2 0.181012 -2.40711 10.8664 17.1022
30 4 1.18182 2.92776 4.70816 17.3206
220 2 0.0667898 -2.07219 8.44644 17.3231
28 4 1.48142 7.30912 1.27472 6.25486
31 4 1.27435 6.09908 3.45799 8.28031
35 4 1.27421 9.5705 2.07927 4.1778
37 4 1.47462 12.0633 1.47483 5.92208
40 4 0.703732 10.9867 4.1085 2.53843
330 2 0.197975 13.138 1.51272 0.545468
105 2 0.0856244 11.9175 3.5302 0.548504
55 1 -0.654967 11.9857 2.81902 1.59775
56 1 -0.606422 8.06042 5.11605 5.21128
65 2 0.00754476 9.26153 0.851505 3.00041
69 2 -0.0747044 11.9712 5.05321 3.55427
70 2 -0.00374661 10.2728 5.37578 1.45346
313 2 -0.00748251 10.4318 2.44872 0.371906
89 2 0.185034 6.66912 2.97876 3.87759
296 2 0.120826 9.0498 0.581951 0.907007
32 4 0.824032 4.40994 5.64182 6.35406
106 2 0.169711 11.4004 1.84703 1.5501
107 2 0.216244 12.9542 2.91231 2.2672
108 2 0.247261 8.14518 3.99263 5.0827
118 3 -0.818415 7.90106 0.0887156 7.08163
123 3 -0.815785 6.81689 2.46743 7.34093
124 3 -0.757794 5.2933 4.77044 7.35279
128 3 -0.848634 8.24483 1.97932 5.11916
129 3 -0.825373 14.41 0.22595 8.02979
131 3 -0.814658 13.4398 1.62869 5.08759
132 3 -0.859224 10.8212 1.59691 4.91728
133 3 -0.811008 12.0021 -0.308321 6.72008
137 3 -0.813044 9.79497 3.31102 3.21148
139 3 -0.824907 11.9809 2.32041 7.28284
140 3 -0.767057 10.3708 4.36426 7.40702
42 4 0.745309 9.46944 5.62414 6.73226
264 2 -0.0177196 5.3468 5.10078 2.70443
26 4 1.29881 7.99171 -0.730358 8.45177
97 2 0.140068 5.88586 4.90607 4.36484
109 2 0.129476 7.17957 5.41386 4.43272
41 4 1.24599 11.1835 3.2972 8.33122
110 2 0.0866191 7.48667 5.35307 6.71971
88 2 0.176346 7.07136 1.35605 2.96679
52 1 -0.669398 4.67483 4.95194 4.51311
98 2 0.125902 4.10597 5.65603 3.83108
72 2 0.00860242 9.64467 5.77197 4.82885
315 2 0.188075 15.3883 -0.0790133 4.44832
309 2 0.166191 13.6134 -1.33943 13.9491
68 2 -0.0190862 12.4523 -0.880521 12.5762
33 4 1.04009 6.08279 3.10077 13.9744
36 4 1.29176 9.82397 1.3297 10.1554
38 4 0.712579 9.13627 1.14416 16.8552
39 4 0.970814 12.2083 -0.245096 11.0101
50 1 -0.660258 7.34489 4.1532 9.54587
53 1 -0.658541 7.47345 2.86564 12.474
54 1 -0.637841 9.56187 0.202253 15.2888
306 2 0.148701 14.298 -0.820302 16.578
63 2 0.0444605 6.06923 3.84885 12.25
66 2 0.00340913 8.89304 2.13529 11.3787
67 2 0.00738758 9.43279 2.91632 17.053
159 1 -0.65449 8.44842 -1.4229 12.7971
281 2 0.0146326 8.69025 4.46323 16.5806
327 2 0.189684 8.88378 -0.866036 13.6893
90 2 0.146878 6.99446 5.23951 9.5434
92 2 0.185379 7.3964 3.65167 10.5872
99 2 0.153842 8.33877 3.5935 12.152
100 2 0.149688 7.26485 1.91891 11.8763
101 2 0.0406371 7.86444 2.45264 14.0523
102 2 0.127514 10.7438 0.331377 15.3909
103 2 0.139776 8.9679 0.940585 14.5814
104 2 0.1956 9.07493 -0.872607 15.3943
130 3 -0.796948 8.75562 0.206992 9.47251
134 3 -0.755295 7.66754 0.762962 17.221
135 3 -0.844111 13.5629 0.28579 10.456
136 3 -0.875916 10.9472 0.58964 10.8847
138 3 -0.871115 10.2248 2.50619 9.27699
141 3 -0.839827 5.86291 4.28273 14.973
249 4 1.0595 11.09 4.65805 12.8904
250 1 -0.656923 11.4673 2.78124 12.9419
187 2 0.158724 4.79163 4.74305 10.5658
252 2 0.129695 12.0716 2.54834 13.9153
253 2 0.172074 11.9741 2.41128 11.9603
254 2 0.14769 10.4033 2.35637 13.0543
304 1 -0.623699 13.5642 -1.26431 17.3472
256 2 0.173029 9.60116 4.10285 10.9276
76 2 0.123255 13.332 0.595359 13.9274
302 2 0.127204 11.3294 4.09875 17.0852
91 2 0.212679 8.31053 3.91621 8.93396
310 2 0.167202 11.7698 -1.32473 14.4849
251 1 -0.678772 9.7251 5.00635 11.531
301 1 -0.60748 10.3285 4.52026 17.4685
71 2 -0.0313622 12.2916 4.07662 9.37272
326 2 0.183047 7.56793 -0.81291 12.3783
222 2 0.0086308 4.73711 11.0844 8.35963
218 2 -0.00866263 9.72535 8.10582 5.84054
57 1 -0.671122 9.75782 7.2854 7.59291
61 2 0.0697746 4.82397 7.29323 6.42355
299 2 0.183556 1.70094 11.3034 7.25517
226 2 0.0976337 8.88297 8.98228 2.46414
298 1 -0.693669 0.989871 10.8855 8.04755
244 3 -0.805852 7.20906 9.55942 8.67777
248 3 -0.822072 6.08995 11.5584 6.05086
205 4 0.705492 8.50934 8.43381 4.61463
212 1 -0.63733 9.21422 9.75063 3.47707
209 4 1.0103 3.58529 10.863 4.06626
247 3 -0.788823 5.11204 8.83855 7.13218
211 4 1.29768 5.84061 9.72599 5.59491
243 3 -0.768257 2.07887 10.296 3.59143
216 1 -0.652573 4.15318 11.9358 2.64082
111 2 0.136798 8.6664 7.08801 8.17825
219 2 -0.0150522 8.20348 6.71804 4.12839
245 3 -0.814617 7.21414 9.04768 5.21989
223 2 0.0845942 3.26984 11.8314 5.48973
325 2 0.113491 10.6453 7.3066 0.756193
225 2 0.16702 8.54441 10.7067 3.56883
210 4 0.994334 5.80054 8.75308 8.54293
297 2 0.160976 1.90428 12.5195 2.26411
233 2 0.16298 0.533063 12.0381 4.5059
295 1 -0.656591 0.947949 12.5765 1.57912
236 2 0.163676 4.76653 11.1195 2.00524
246 3 -0.799612 4.67962 9.72186 4.49146
238 2 0.175084 3.29709 12.4367 2.07152
292 2 0.158365 3.36709 8.9518 0.645509
161 2 0.0718416 7.69827 11.466 6.48011
272 2 0.0440781 1.39822 10.8233 0.949426
293 2 0.180002 3.39567 7.64204 2.11476
291 1 -0.637387 2.83941 7.99334 1.14722
323 2 0.160012 -0.0197102 12.3374 2.11858
329 2 0.158231 10.6691 6.87169 8.2184
237 2 0.170097 4.80569 12.711 3.2541
305 2 0.128932 6.02579 12.7753 0.460122
208 4 1.21947 5.21396 12.2569 7.19947
43 4 0.933033 5.45243 5.39903 15.9047
73 2 -0.0203174 5.95673 7.0174 15.2789
255 2 0.155421 8.72982 5.40086 11.8747
142 3 -0.797103 3.894 5.45372 16.2545
74 2 -0.0617005 6.47425 5.52903 17.2316
160 1 -0.641985 3.87576 8.39187 12.6963
173 2 0.120199 1.28945 11.6142 11.9296
185 2 0.135456 4.56183 6.77203 11.1441
276 2 0.127265 6.10929 8.57918 17.1071
282 2 -0.0319167 8.9538 7.1581 15.6503
189 2 0.156254 3.38579 9.42943 12.3716
190 2 0.146842 4.59851 7.89805 11.8966
191 2 0.136594 4.27026 8.32729 13.7725
217 1 -0.647265 4.4561 9.61507 9.6806
239 2 0.124204 4.32062 8.49989 10.2636
270 1 -0.651307 0.26396 10.2992 15.6807
241 2 0.142841 5.10149 10.3515 10.2883
240 2 0.145401 3.45706 10.0921 9.34402
257 2 0.169807 10.3467 5.78635 10.9842
307 1 -0.651714 4.50881 11.1471 14.3036
259 1 -0.651773 8.67467 8.97871 16.2845
269 4 0.86829 4.49536 10.6388 16.2541
271 1 -0.645777 5.4326 8.71081 16.1191
158 1 -0.643702 4.26358 5.81085 10.388
318 2 0.145739 7.41836 8.87147 16.35
277 2 0.155986 6.05394 8.83347 15.1171
278 2 0.16124 4.53199 8.02954 16.1744
279 3 -0.732905 2.8994 10.3831 16.7371
280 4 0.626013 9.91807 5.69271 15.8125
186 2 0.170095 4.09773 6.18483 9.27799
268 4 0.756994 1.39327 9.9794 17.1443
287 1 -0.668846 7.09199 9.31175 13.4368
288 2 0.121362 6.74895 8.18641 13.5212
289 2 0.175429 7.50829 9.48945 12.4379
290 2 0.166558 6.09488 10.0292 13.7179
152 4 1.01819 2.17661 7.62289 13.0769
308 2 0.156338 4.27212 10.1376 13.6587
314 2 -0.0229299 3.72657 11.3612 10.2532
331 3 -0.749036 10.4881 5.14922 14.4073
273 2 0.188338 0.301699 10.7097 14.5957
324 2 0.155408 1.48967 10.7835 9.08897
319 2 0.165141 9.71085 7.64466 11.8835
224 2 -0.0284189 6.11471 7.12902 8.81321
262 2 0.129096 9.20618 8.19376 16.9061
ITEM: TIMESTEP
200
ITEM: NUMBER OF ATOMS
331
ITEM: BOX BOUNDS xy xz yz pp pp pp
-8.3616831999999999e+00 1.5708700000000000e+01 -8.2158832000000004e+00
-2.0055999999999998e+00 1.3086800000000000e+01 -1.4580000000000001e-01
0.0000000000000000e+00 1.7524799999999999e+01 -2.0055999999999998e+00
ITEM: ATOMS id type q x y z
1 4 1.02855 -0.881438 2.25754 4.62392
2 4 0.695607 -0.166063 4.48832 2.29696
3 1 -0.657748 0.0659898 3.23834 5.98058
322 2 0.155398 7.4229 0.151117 1.13785
5 1 -0.648296 1.831 4.79512 3.45441
6 1 -0.588085 -1.3094 6.04497 1.629
8 2 0.157235 0.274177 4.265 5.65818
9 2 0.155124 0.950448 2.50968 5.99261
10 2 0.163872 -0.544084 3.13829 6.9661
11 2 0.122793 1.22943 0.675241 4.71976
12 2 0.0166084 1.6286 4.05915 1.84208
13 2 0.146811 1.22749 4.29423 4.34163
14 2 0.145458 2.92457 4.85339 3.89841
263 4 0.982583 4.31565 4.37419 1.39707
16 2 0.128069 -2.27071 5.61486 2.01176
17 2 0.00103564 -0.813336 4.55245 0.649349
18 3 -0.7469 -0.983186 3.44377 3.15296
24 4 0.772326 5.13678 1.37611 4.29558
45 1 -0.656472 3.31265 2.14097 4.76786
47 1 -0.685023 3.21896 0.419857 8.6156
176 2 0.220728 -1.9006 4.00234 6.84598
7 2 0.14105 1.48289 5.81586 3.30103
78 2 0.153047 2.80707 3.13042 4.21639
79 2 0.157228 3.52907 2.4072 5.87585
80 2 0.132777 2.53761 1.29184 4.81891
46 1 -0.657342 6.33533 0.639398 0.767629
82 2 0.183068 3.3675 0.970605 7.67718
51 1 -0.677465 2.6036 5.52965 6.92132
163 2 0.0702562 -3.34836 5.00725 5.4555
154 1 -0.614299 -2.13341 5.04336 6.63349
93 2 0.209623 2.5475 4.65903 7.58624
285 2 0.122876 2.08302 2.23248 1.05452
265 2 -0.0116289 3.25423 3.72714 2.5725
117 3 -0.740384 5.83402 0.595272 5.61668
284 2 0.137396 0.255279 1.77902 0.412062
321 2 0.145976 5.60767 0.798091 1.62462
94 2 0.147609 2.14344 5.30033 5.87614
267 3 -0.820901 3.62117 5.49317 0.644008
266 3 -0.791458 5.12499 3.40328 0.623829
96 2 0.150581 4.22775 3.94499 4.70614
4 1 -0.655875 0.273347 0.809812 4.05822
312 2 -0.011467 3.73654 0.602267 3.58441
162 2 -0.0148704 2.65108 -0.296566 6.86903
170 2 -0.0036576 -0.716715 5.0686 7.99963
316 2 0.166369 0.5468 1.04211 2.97936
87 2 0.189608 5.85639 2.66233 2.18427
175 2 0.0443177 -0.643394 5.82183 6.26346
283 1 -0.668578 1.43385 1.74769 0.164009
174 2 0.160538 -2.59474 5.45322 7.53498
19 4 0.793709 1.68914 1.01223 16.4318
21 4 1.47404 2.54923 -1.15458 13.1695
22 4 1.45611 1.12273 1.19015 11.5175
23 4 1.05391 -0.861274 2.35305 13.5142
25 4 1.18684 6.13447 0.183622 17.2463
27 4 1.0589 3.9905 1.48318 9.97786
29 4 1.46539 4.41554 0.494347 14.8115
150 4 0.995111 2.63545 5.0739 11.1423
81 2 0.172779 4.05489 -0.464357 8.8876
127 3 -0.772891 1.08606 4.21211 16.5121
48 1 -0.68918 5.27682 0.633249 11.0077
58 2 0.0166934 0.251485 0.761216 15.4819
44 1 -0.649447 -1.38377 0.688575 14.4204
34 4 0.911034 -0.3504 4.2366 15.9083
83 2 0.2041 2.16271 0.230745 8.84887
198 3 -0.716956 1.38676 5.08328 9.82594
311 2 0.0990892 1.39538 2.69502 16.5519
84 2 0.253009 5.6815 -0.154818 10.2599
85 2 0.27098 4.84156 0.152893 11.9084
171 2 0.125767 2.61699 3.43153 11.732
112 3 -0.812225 0.382665 0.437952 9.92141
113 3 -0.827182 1.51797 -0.0672951 12.4194
114 3 -0.862158 0.0741271 2.13707 12.2695
116 3 -0.788306 2.4485 1.96275 11.1869
119 3 -0.806628 3.96124 -0.50084 13.4565
120 3 -0.76779 5.45758 -0.347114 15.7997