ITEM: TIMESTEP
0
ITEM: NUMBER OF ATOMS
331
ITEM: BOX BOUNDS xy xz yz pp pp pp
-8.3499999999999996e+00 1.5708700000000000e+01 -8.2042000000000002e+00
-2.0055999999999998e+00 1.3086800000000000e+01 -1.4580000000000001e-01
0.0000000000000000e+00 1.7524799999999999e+01 -2.0055999999999998e+00
ITEM: ATOMS id type q x y z element
1 4 0.653283 -1.36514 3.22078 4.7465 Si
2 4 0.276903 -0.283433 4.93976 2.61508 Si
3 1 -0.129839 0.332372 3.00054 5.91051 C
6 1 -0.127436 -1.05542 4.70736 0.674151 C
8 2 0.0353768 0.63067 4.02491 6.12044 H
9 2 0.00852523 1.04177 2.44543 5.34102 H
10 2 0.0766292 -0.0765973 2.46816 6.75688 H
17 2 0.0297539 -1.85935 5.45281 0.638836 H
18 3 -0.613623 -1.29231 4.54254 3.81537 O
285 2 0.0152562 0.997359 3.10485 1.22498 H
166 2 0.0856782 0.707053 -0.688443 8.07324 H
283 1 -0.115365 1.32014 2.34092 0.566578 C
111 2 0.0645472 -1.85813 4.33627 7.86455 H
315 2 0.0226745 -0.98574 1.97843 2.53409 H
15 2 0.0301631 -1.40447 3.68424 0.586528 H
175 2 0.0348176 -3.26802 6.1416 2.95764 H
284 2 0.0286701 0.528399 1.69878 0.218866 H
5 1 -0.11836 1.79302 4.92176 3.00565 C
57 1 -0.0904312 -2.19314 5.31415 7.56586 C
317 2 0.019468 1.27693 0.508008 2.72304 H
329 2 0.0632768 -1.9662 5.53658 6.54706 H
316 2 0.0202023 -0.658528 0.912291 4.01972 H
95 2 0.0691155 3.88572 5.00717 7.94066 H
82 2 0.0992416 4.67441 0.91552 8.05965 H
321 2 0.0319016 3.95975 0.161147 1.25751 H
81 2 0.0778712 3.14308 0.0748856 8.64073 H
47 1 -0.0982532 3.60456 0.995923 8.26225 C
14 2 0.0245306 1.89147 4.12469 3.73401 H
88 2 0.0678234 6.40865 1.62954 3.11754 H
83 2 0.0254175 2.99015 1.57405 7.5498 H
12 2 0.0825685 2.00728 5.90604 3.40495 H
49 1 -0.0980312 5.85831 2.55834 2.94905 C
167 2 0.288721 5.35872 0.0410237 6.42359 H
286 2 0.0551294 2.24926 1.86508 0.850839 H
13 2 0.0267595 2.24368 4.7136 2.04143 H
24 4 0.139725 4.60935 1.5738 4.55926 Si
45 1 -0.105364 4.07694 3.44731 5.33699 C
312 2 0.014816 3.2443 0.694156 3.92863 H
78 2 0.0285775 3.1585 3.17165 5.82561 H
79 2 0.0221444 3.98401 4.06393 4.44918 H
80 2 0.0752082 4.82789 3.73043 6.0404 H
117 3 -0.613454 5.87003 0.491926 5.66692 O
87 2 0.0624673 5.08289 2.6283 2.19009 H
22 4 0.799411 0.827711 1.60009 10.5172 Si
23 4 0.400806 0.240885 2.14808 12.835 Si
34 4 0.346154 -1.3021 4.21982 13.8654 Si
44 1 -0.0798166 -0.439801 0.499008 13.9102 C
168 2 0.280841 0.173157 -0.773206 10.8048 H
77 2 0.121964 0.387438 -0.219868 13.8975 H
112 3 -0.684407 -0.588096 2.17775 9.91989 O
113 3 -0.697038 1.09208 -0.396797 10.7244 O
126 3 -0.555464 -0.977992 3.21329 12.6187 O
183 2 0.0781153 -0.119192 4.88293 10.5907 H
76 2 0.0275014 -0.685462 0.974958 14.8539 H
62 2 0.0739668 -2.90663 2.81998 16.0056 H
261 2 0.0483935 -0.180955 -1.60254 15.7054 H
60 2 0.107846 -3.28941 4.6022 10.919 H
71 2 0.059642 -2.84706 4.74767 10.2011 H
64 2 0.123293 1.61114 3.7005 9.1288 H
16 2 0.0109067 -0.406316 2.97889 17.5061 H
266 3 -0.6951 4.49083 0.588132 17.3924 O
120 3 -0.764403 4.65629 -0.996227 15.3741 O
85 2 0.0508241 4.7675 1.60727 12.0402 H
19 4 0.291445 1.89424 1.4373 16.3509 Si
122 3 -0.640137 4.66604 3.56631 9.71345 O
53 1 -0.109951 6.82149 -0.125913 13.7535 C
267 3 -0.690327 3.75193 4.15452 16.5861 O
114 3 -0.698892 1.98524 3.10721 13.5653 O
311 2 0.278337 3.9243 4.23109 15.5167 H
86 2 0.0543719 5.51654 0.721328 10.6666 H
171 2 0.307079 2.46847 2.9786 12.6771 H
263 4 0.521274 4.23958 1.998 16.5182 Si
63 2 0.331437 2.4328 2.33051 14.0568 H
25 4 0.967987 5.28885 -0.744877 16.9099 Si
27 4 0.565816 3.66425 2.27768 9.95537 Si
29 4 1.13967 3.57602 -0.214391 14.4026 Si
48 1 -0.0919086 4.61175 0.978631 11.19 C
84 2 0.110545 3.90418 0.193492 11.3573 H
125 3 -0.672458 4.48013 1.74436 14.4342 O
116 3 -0.690646 2.11276 2.59387 10.5521 O
119 3 -0.79066 3.34062 -0.935656 12.9451 O
121 3 -0.673162 2.1811 0.454874 15.0279 O
101 2 0.043074 6.35568 -0.235523 12.7695 H
99 2 0.0949108 6.51371 -0.763163 14.5707 H
144 4 0.266856 -4.22914 7.96665 4.42049 Si
146 4 0.638344 -3.82069 10.278 6.11437 Si
147 4 0.659937 -6.03363 9.52958 6.91544 Si
46 1 -0.132502 -3.4327 12.7529 0.729362 C
192 3 -0.599628 -3.8841 9.55521 4.66772 O
61 2 0.053423 -5.59022 9.49486 2.28755 H
195 3 -0.691239 -5.88373 10.4055 8.30066 O
199 3 -0.737886 -2.92216 9.65581 7.31374 O
161 2 0.101373 -7.83365 12.1045 8.28007 H
212 1 -0.109891 -6.85199 12.5183 2.48042 C
154 1 -0.0946149 -2.73967 7.03732 3.35246 C
325 2 0.0227164 -4.58566 8.30135 0.473945 H
174 2 0.0290733 -2.52343 7.84514 2.67765 H
151 4 1.31872 -2.41312 10.4764 8.64937 Si
225 2 0.0258454 -7.02564 12.3572 1.40582 H
163 2 0.0187964 -3.88515 7.05869 5.8984 H
180 2 0.06548 -4.78197 7.5244 8.44692 H
219 2 0.0646701 -4.97798 9.75488 2.52386 H
322 2 0.0293362 -2.56803 12.512 1.33134 H
226 2 0.0512346 -5.92647 12.0999 2.89337 H
320 2 0.0263114 -3.7473 11.9573 0.0692746 H
164 2 0.00712761 -1.29811 9.28724 0.423266 H
74 2 0.0396781 -1.92335 10.875 2.99616 H
328 2 0.0382494 -1.93955 6.10295 8.26922 H
324 2 0.0834328 0.162279 10.9179 6.60079 H
176 2 0.0722666 -2.03422 6.83245 4.16125 H
70 2 0.0291093 -1.8652 10.3507 2.81344 H
7 2 0.0211696 -0.160231 6.66957 2.81475 H
213 1 -0.12933 1.50441 8.96944 1.4977 C
227 2 0.00870811 0.911424 9.78652 1.89684 H
228 2 0.0321251 1.0245 8.01135 1.52414 H
200 3 -0.770358 -1.89955 12.04 8.26778 O
207 4 0.407201 1.54758 8.8239 5.3498 Si
230 2 0.0403477 2.17583 7.21209 7.1555 H
215 1 -0.0985918 -0.477609 8.23198 5.16826 C
234 2 0.0769533 -0.902856 8.96095 5.83784 H
233 2 0.0311878 -0.703045 8.42237 4.12849 H
242 3 -0.565092 2.43188 8.00072 4.2322 O
231 2 0.0416358 1.47737 8.73592 7.82839 H
235 2 0.0477844 -0.542242 7.23373 5.51232 H
299 2 0.0530849 0.732243 10.3056 8.18433 H
148 4 0.992959 -5.05808 9.84269 9.69893 Si
165 2 0.00914805 -3.93575 7.72022 12.5155 H
179 2 0.0340595 -2.66864 7.99173 15.7905 H
181 2 0.0535911 -3.43017 7.87532 9.57502 H
194 3 -0.664134 -3.34764 5.17813 13.0925 O
196 3 -0.734155 -5.62534 10.0863 11.2471 O
201 3 -0.793433 -3.66811 10.5938 9.6479 O
258 4 0.295611 -7.00981 9.82254 14.3804 Si
260 2 0.030521 -5.29968 9.83001 14.6708 H
21 4 1.16256 -6.12261 11.4038 12.1391 Si
155 1 -0.128287 -3.50697 7.35961 15.4621 C
115 3 -0.673598 -7.27349 10.8566 13.1397 O
178 2 0.0127845 -4.44101 7.88563 15.2819 H
177 2 0.0640232 -3.58708 6.42128 15.9906 H
145 4 0.60444 -2.98521 6.71344 13.5478 Si
156 1 -0.117666 -4.48627 7.82333 9.43126 C
262 2 0.0351003 -7.03956 10.8312 16.7614 H
327 2 0.111085 -3.3438 10.1241 11.9478 H
159 1 -0.082214 -2.36661 10.4162 12.3172 C
319 2 0.0456939 -5.01761 7.29694 10.1926 H
259 1 -0.11428 -7.88564 10.6322 16.1021 C
153 4 0.64045 -1.00988 9.4246 10.9777 Si
184 2 0.0390259 1.1639 6.18602 10.6696 H
149 4 0.486026 -0.257776 6.05852 12.8793 Si
188 2 0.0641172 -2.17175 11.4759 12.2169 H
273 2 0.0352571 -0.763229 9.73404 15.9173 H
170 2 0.301526 1.58104 4.94929 14.2476 H
203 3 -0.736266 -1.26171 9.47936 9.36624 O
198 3 -0.670496 1.29495 5.9433 14.4326 O
270 1 -0.0619393 0.118656 9.40955 15.3931 C
150 4 0.599897 2.29674 6.96256 13.6171 Si
157 1 -0.0821791 0.133887 5.91029 10.8455 C
182 2 0.0768607 -0.548735 6.64555 10.456 H
204 3 -0.649346 0.238602 8.65288 11.6342 O
326 2 0.0563128 -2.13518 10.015 13.3013 H
274 2 0.112168 0.129997 8.37065 15.0955 H
197 3 -0.612513 -1.44237 7.07255 13.3118 O
58 2 0.0324339 0.164312 4.75894 16.4855 H
220 2 0.077068 0.832051 4.71331 16.3531 H
28 4 1.18908 7.25986 1.78335 6.6806 Si
65 2 0.000419324 8.74564 0.137203 4.2986 H
118 3 -0.762714 8.14964 0.825039 7.64989 O
123 3 -0.753702 6.21304 2.64632 7.59307 O
128 3 -0.787188 8.07894 2.47831 5.40863 O
137 3 -0.65244 8.98736 2.28852 2.79738 O
35 4 1.04339 9.15751 1.81841 4.3535 Si
40 4 0.263664 7.80859 3.17609 2.12112 Si
52 1 -0.0880283 6.4956 5.25339 5.91516 C
96 2 0.0986979 6.6767 4.17121 5.95573 H
98 2 0.0328183 5.68204 5.62106 5.35002 H
89 2 0.0357815 6.11527 3.38993 3.56311 H
55 1 -0.106485 7.86724 5.18124 2.61431 C
105 2 0.0443291 6.86843 5.60844 2.4345 H
106 2 0.0324042 8.67056 5.61515 1.9404 H
107 2 0.0414266 8.14583 5.2117 3.64451 H
224 2 0.271486 8.2129 4.96895 8.30443 H
26 4 0.81931 7.7929 -0.514848 8.43452 Si
109 2 0.0925044 9.66401 4.22657 6.14926 H
97 2 0.0388606 7.43944 5.72409 5.68999 H
67 2 0.0280215 4.81295 5.07194 2.41593 H
11 2 0.0729879 13.3194 1.30198 3.58358 H
281 2 -0.00183428 11.056 4.96281 0.251058 H
330 2 0.018219 14.1125 1.13977 0.0978822 H
264 2 0.0699393 12.0762 4.78636 3.02353 H
56 1 -0.0839943 10.4593 4.9053 5.76628 C
59 2 0.0924784 10.9489 2.21529 1.84192 H
208 4 0.809336 13.1198 -0.448313 7.37639 Si
132 3 -0.770594 10.7297 1.99852 4.61542 O
110 2 0.0901355 11.322 4.45964 5.21252 H
222 2 0.139257 10.8681 -0.143794 7.84517 H
131 3 -0.710788 13.0191 3.09287 5.67936 O
133 3 -0.692364 12.2951 -0.0506474 5.58109 O
238 2 0.0591309 12.167 -0.163287 2.75272 H
129 3 -0.696668 13.9666 0.863034 7.90312 O
139 3 -0.792813 11.1315 1.67105 7.37984 O
72 2 0.0347983 11.1103 2.8003 1.39111 H
37 4 1.13294 11.7973 1.93331 5.8622 Si
42 4 0.314572 11.4146 5.15097 7.61661 Si
323 2 0.0668331 9.74735 0.213027 1.14299 H
108 2 0.0244033 10.1137 5.86141 5.40067 H
4 1 -0.124322 14.3669 1.59438 3.51375 C
162 2 0.0113879 10.063 5.74436 2.32263 H
223 2 0.304924 11.387 -0.242044 5.5613 H
50 1 -0.0897486 7.583 2.59767 10.4112 C
134 3 -0.667389 6.88815 -0.533623 17.1885 O
90 2 0.0965931 8.57782 2.92414 10.0962 H
91 2 0.0793333 7.3866 1.53598 10.256 H
92 2 0.036014 7.23372 2.97139 11.3539 H
33 4 0.601308 6.06794 1.64537 14.3559 Si
130 3 -0.693832 8.15375 -0.549715 10.5289 O
141 3 -0.644859 7.09272 2.50527 15.3165 O
31 4 0.725008 6.1986 3.45055 9.02318 Si
100 2 0.0330643 7.88196 -0.028032 13.727 H
282 2 0.0553768 8.88325 3.62812 15.9684 H
251 1 -0.111083 9.46526 4.37322 13.2047 C
43 4 0.53816 6.83427 2.54554 16.9647 Si
256 2 0.042442 9.08422 3.37526 13.1237 H
124 3 -0.635978 7.37262 5.30333 8.88026 O
38 4 0.253932 8.11832 0.48113 17.4776 Si
104 2 0.0486694 9.12303 0.970616 15.2756 H
142 3 -0.689198 6.4061 4.04595 17.4618 O
41 4 1.03889 11.0159 2.4878 8.80766 Si
68 2 0.0346592 10.8761 0.0913937 13.2434 H
257 2 0.0586457 9.62945 4.86761 12.2761 H
252 2 0.052092 12.6306 1.77462 13.5226 H
280 4 0.234938 10.3526 4.19887 16.6804 Si
54 1 -0.0977956 9.62172 0.461643 16.0974 C
254 2 0.0155194 10.8272 1.68846 13.5206 H
249 4 0.600866 11.4444 4.12506 13.8989 Si
138 3 -0.768131 10.5386 1.66678 10.0626 O
331 3 -0.627212 11.5022 4.24532 15.5225 O
39 4 0.618942 12.5199 -1.06256 9.80503 Si
36 4 0.805871 9.9768 0.109485 10.1287 Si
135 3 -0.672852 13.243 0.28238 10.3756 O
20 4 0.892312 13.6971 1.59785 9.4231 Si
253 2 0.100246 11.717 2.29412 12.0421 H
140 3 -0.684518 10.9533 4.08919 8.79157 O
304 1 -0.126824 13.1643 -0.551996 16.9639 C
305 2 0.0225137 13.4908 0.0418795 16.1344 H
250 1 -0.0997739 11.7068 2.16262 13.1204 C
306 2 0.036013 12.2899 -0.222537 17.4859 H
103 2 0.0176354 10.3916 1.05616 16.5788 H
102 2 0.106213 9.89314 -0.56278 15.8723 H
75 2 0.0531445 14.4008 0.119154 13.3797 H
136 3 -0.756346 10.9573 -1.07445 9.57488 O
294 2 0.0487746 5.35398 7.39873 2.34788 H
209 4 0.499075 3.55753 10.7311 4.14457 Si
206 4 0.262285 2.92017 8.75277 2.91887 Si
292 2 0.0345565 3.69119 7.06656 1.59646 H
243 3 -0.61178 1.76294 10.8624 5.06293 O
246 3 -0.691091 4.89955 10.0566 4.76862 O
295 1 -0.101136 0.927091 12.4921 0.810643 C
297 2 0.0789407 0.00671308 12.8176 0.402727 H
298 1 -0.0814957 0.713528 11.1331 7.49483 C
237 2 0.0344882 5.00548 11.5004 2.39675 H
291 1 -0.12473 4.57578 7.71055 1.6781 C
51 1 -0.0986277 4.20549 6.02887 8.10895 C
296 2 0.0101431 0.896997 11.697 1.56191 H
214 1 -0.103498 2.23434 8.29359 7.19011 C
248 3 -0.794735 5.42394 11.1058 7.33618 O
211 4 1.02863 5.46857 9.86948 6.33324 Si
293 2 0.00829644 4.66613 8.72175 1.25476 H
300 2 0.0779933 1.64444 11.6656 7.36121 H
236 2 0.00743375 3.21288 11.6195 1.81912 H
276 2 0.0330093 4.37931 10.827 0.0943418 H
216 1 -0.120597 4.00031 11.8694 2.52564 C
313 2 0.195576 1.05736 10.767 4.19004 H
93 2 0.0410577 3.92221 6.71984 7.309 H
232 2 0.0418214 3.2331 8.70202 7.26355 H
229 2 0.0222676 2.11621 9.20662 0.635397 H
69 2 0.113177 7.29392 8.04064 5.10606 H
205 4 0.12509 7.51513 11.6373 3.26466 Si
193 3 -0.59273 8.81717 10.1058 5.63358 O
244 3 -0.639327 9.02844 7.44965 7.18018 O
247 3 -0.718883 6.29849 8.5151 6.8282 O
218 2 0.0730904 6.93594 7.69786 4.60219 H
301 1 -0.121779 10.1391 8.05737 0.0318909 C
277 2 0.0156914 5.99875 11.6155 0.113657 H
73 2 0.288741 6.3456 9.6934 3.15527 H
245 3 -0.64016 7.2955 9.57234 2.83279 O
210 4 0.5141 7.35474 8.04649 7.95267 Si
32 4 0.285511 6.29743 5.95093 7.86667 Si
143 4 0.319433 7.69181 11.3001 5.68679 Si
265 2 0.243866 8.62914 7.56729 6.23497 H
169 2 0.234039 7.13417 9.60288 1.84499 H
303 2 0.0363988 9.31348 7.90827 0.750601 H
160 1 -0.138173 3.04503 9.0335 10.6291 C
187 2 0.0363769 4.62502 7.0063 12.5629 H
202 3 -0.630689 2.17861 8.60965 13.5594 O
189 2 0.0143474 4.02164 8.96427 11.1078 H
190 2 0.0589391 2.89064 9.88731 9.99674 H
268 4 0.273459 1.67747 9.65123 16.7063 Si
269 4 0.298286 4.28844 10.7968 16.0039 Si
185 2 0.0538454 3.78756 5.55503 11.8854 H
279 3 -0.548317 2.67421 10.7494 16.0467 O
158 1 -0.109233 4.04154 6.12213 12.7771 C
152 4 0.599891 1.69423 9.2104 12.1593 Si
314 2 4.00024e-06 4.52208 10.9772 11.141 H
172 2 -0.00314817 1.68437 10.946 12.3229 H
278 2 0.0713018 5.39825 8.49742 16.2803 H
271 1 -0.110139 5.06713 9.17994 17.0401 C
191 2 0.0273266 2.7011 8.10735 10.2183 H
173 2 0.228973 0.06211 11.5534 10.6123 H
307 1 -0.0949424 5.06723 10.3962 14.0708 C
275 2 0.091132 0.433564 10.0905 14.6106 H
272 2 0.0336917 2.46707 8.1299 16.7593 H
310 2 0.0668478 4.15457 10.2907 13.4836 H
30 4 0.756749 5.059 4.87122 17.2931 Si
186 2 0.0653337 4.422 5.51729 13.5986 H
94 2 0.0441314 4.04633 6.35816 9.12678 H
66 2 0.242532 6.57351 6.46292 16.3937 H
221 2 0.254467 6.40963 5.48734 15.4231 H
309 2 0.0455405 5.62931 11.2865 13.8482 H
290 2 0.0223384 8.10893 7.40435 14.9784 H
308 2 0.0452524 5.67152 9.51832 14.1129 H
127 3 -0.687543 5.78309 6.21403 15.891 O
289 2 0.0553113 7.11444 7.96442 13.559 H
318 2 0.013412 7.17957 9.83046 16.3762 H
240 2 0.0421628 6.45369 7.67902 10.3986 H
302 2 0.0247895 9.71758 6.6748 16.7263 H
288 2 0.0412465 8.87393 7.50664 13.3566 H
287 1 -0.10637 8.09787 7.87436 14.0077 C
217 1 -0.1065 7.18289 8.38456 9.99926 C
239 2 0.061827 8.14742 8.29742 10.4561 H
241 2 0.0406363 6.82182 9.39648 9.95182 H
255 2 0.0359291 9.00193 4.97448 13.9407 H
ITEM: TIMESTEP
100
ITEM: NUMBER OF ATOMS
331
ITEM: BOX BOUNDS xy xz yz pp pp pp
-8.5170000000000012e+00 1.6022874000000002e+01 -8.3682840000000009e+00
-2.0055999999999998e+00 1.3086800000000000e+01 -1.4871600000000001e-01
0.0000000000000000e+00 1.7524799999999999e+01 -2.0055999999999998e+00
ITEM: ATOMS id type q x y z element
1 4 0.611767 -1.45998 3.18472 4.72338 Si
2 4 0.274794 -0.367416 4.95158 2.66129 Si
3 1 -0.122059 0.209334 2.97922 5.8325 C
6 1 -0.125607 -1.16345 4.6761 0.73528 C
8 2 0.0350951 0.621118 3.95944 5.85605 H
9 2 0.00886588 0.761213 2.27141 5.22794 H
10 2 0.0803393 -0.134189 2.56403 6.76037 H
17 2 0.0333349 -1.90586 5.46352 0.609543 H
18 3 -0.606465 -1.36966 4.61007 3.88233 O
285 2 0.0136603 0.734242 3.40303 1.05852 H
16 2 0.0196904 -0.315566 4.84536 0.0697541 H
283 1 -0.115582 1.20216 2.5871 0.563088 C
111 2 0.0520087 -1.63699 4.69239 7.89945 H
315 2 0.018172 -1.11747 1.89046 2.46812 H
15 2 0.0266728 -1.56741 3.65528 0.721882 H
87 2 0.0691917 5.02513 3.03724 2.14233 H
284 2 0.0327674 0.543861 1.80368 0.212133 H
5 1 -0.110549 1.67358 4.76424 3.04614 C
57 1 -0.0923872 -2.13195 5.48986 7.37214 C
317 2 0.0268827 1.81821 0.0825262 3.11248 H
329 2 0.0851277 -2.00939 5.40422 6.29445 H
316 2 0.0156513 -0.605841 0.939557 3.95149 H
225 2 0.0217191 0.898027 -0.0344093 1.52227 H
82 2 0.0887347 4.61139 1.16324 7.73642 H
321 2 0.0300646 4.08779 0.333919 1.57825 H
81 2 0.0699991 3.24493 0.152852 8.48315 H
47 1 -0.103188 3.58745 1.12507 8.12969 C
14 2 0.021449 1.99823 3.79491 2.69461 H
88 2 0.0655152 5.95966 1.43917 2.45077 H
83 2 0.0261147 2.85638 1.70346 7.59757 H
12 2 0.0534566 1.7482 4.87916 4.12499 H
49 1 -0.0914391 5.74156 2.47953 2.75443 C
167 2 0.290473 5.30425 -0.0110386 6.31272 H
286 2 0.0512059 2.10707 2.234 1.03584 H
13 2 0.0524545 2.08754 5.57602 2.46346 H
24 4 0.107936 4.64534 1.58459 4.55736 Si
45 1 -0.111739 3.7151 3.14104 5.6547 C
312 2 0.0225832 3.44738 0.575024 3.81107 H
78 2 0.0227411 2.71177 2.79541 5.82479 H
79 2 0.0256727 3.78213 4.05089 5.08823 H
80 2 0.0803454 4.34186 3.15453 6.5449 H
117 3 -0.635917 5.90258 0.41785 5.6545 O
22 4 0.799856 0.872579 1.76406 10.5561 Si
23 4 0.400674 0.214092 2.08431 12.8781 Si
34 4 0.348974 -1.39777 4.2432 13.7688 Si
44 1 -0.0819548 -0.395046 0.387093 14.0293 C
168 2 0.263794 0.162392 -0.477107 11.2312 H
77 2 0.114319 0.205161 -0.46578 13.6715 H
112 3 -0.702974 -0.417325 2.43299 9.83794 O
113 3 -0.703186 1.06108 -0.21536 10.8678 O
126 3 -0.575948 -0.962289 3.15247 12.6005 O
183 2 0.0746586 0.51561 4.86676 10.9011 H
76 2 0.0495456 -0.28315 0.621978 15.0808 H
101 2 0.0445451 6.07249 -0.545365 13.0932 H
134 3 -0.658029 6.73752 -0.529229 17.3297 O
60 2 0.102526 -2.51143 4.22065 10.979 H
71 2 0.0902231 -1.89754 3.93983 10.4871 H
64 2 0.0954143 1.46473 3.96964 8.83911 H
99 2 0.0716151 7.03008 -0.888087 14.6021 H
266 3 -0.681536 4.45139 0.74901 17.4808 O
120 3 -0.764257 4.46583 -1.00894 15.4789 O
85 2 0.0496324 4.63024 1.03744 12.0515 H
19 4 0.296273 1.82479 1.37974 16.3132 Si
122 3 -0.660586 4.8853 3.46704 9.87228 O
53 1 -0.103719 6.88038 -0.260245 13.7405 C
267 3 -0.699025 3.71082 4.20959 16.5003 O
114 3 -0.687565 2.03831 2.98509 13.3522 O
311 2 0.258933 3.89886 4.15887 15.4039 H
86 2 0.0578915 5.63748 0.695549 10.5862 H
171 2 0.324231 2.43006 3.14789 12.4543 H
263 4 0.552466 4.10867 2.04419 16.5457 Si
63 2 0.288296 2.56549 2.10746 13.7071 H
25 4 0.949954 5.15823 -0.723122 16.9846 Si
27 4 0.583541 3.77492 2.2079 9.93895 Si
29 4 1.1802 3.46976 -0.242158 14.4623 Si
48 1 -0.0874642 4.66222 0.713717 11.0231 C
84 2 0.102398 4.08084 -0.179331 10.8009 H
125 3 -0.687142 4.52406 1.66082 14.5585 O
116 3 -0.674983 2.29686 2.66905 10.5105 O
119 3 -0.8224 3.15507 -0.929486 12.9952 O
121 3 -0.688579 2.09743 0.168192 15.231 O
262 2 0.0900269 1.50285 -1.68436 16.2113 H
166 2 0.118932 0.0584221 -0.949625 8.80844 H
20 4 0.861822 -1.79133 1.75792 9.30731 Si
144 4 0.277816 -4.18029 8.1 4.31118 Si
146 4 0.611756 -3.91156 10.3258 6.20129 Si
147 4 0.710125 -6.16919 9.5563 6.81511 Si
46 1 -0.129574 -3.76049 12.8158 0.766439 C
192 3 -0.598018 -3.73897 9.58807 4.74572 O
61 2 0.0786241 -4.77059 10.0503 2.8406 H
195 3 -0.729217 -6.06328 10.1922 8.29391 O
199 3 -0.731094 -3.07266 9.65071 7.44203 O
299 2 0.0821721 0.447981 10.3013 8.1768 H
212 1 -0.107008 -6.79897 12.5639 2.34084 C
154 1 -0.105188 -2.84286 7.36432 2.96645 C
325 2 0.0285512 -4.51528 8.31815 0.548255 H
174 2 0.0318101 -2.33299 8.21326 2.53663 H
151 4 1.37968 -2.43325 10.5667 8.68154 Si
175 2 0.0210375 -3.44563 6.82226 2.24469 H
163 2 0.0119763 -4.30307 7.16667 5.79007 H
180 2 0.0737366 -5.04879 7.70637 8.45471 H
219 2 0.045818 -4.13658 10.2341 2.45871 H
322 2 0.025294 -2.9183 12.1822 1.01099 H
226 2 0.0489878 -6.11592 11.7638 2.1288 H
320 2 0.0326848 -4.53323 12.3165 0.190565 H
164 2 0.00601792 -1.09871 9.46476 0.147904 H
74 2 0.0439856 -1.11981 10.8085 3.58604 H
328 2 0.0396737 -1.96581 6.46966 7.77513 H
324 2 0.0720435 -0.186277 10.9935 6.66811 H
176 2 0.0769811 -2.27021 6.72657 3.61122 H
70 2 0.0222058 -1.11961 10.9979 2.97281 H
7 2 0.020403 -0.256684 6.70424 2.61426 H
213 1 -0.123097 1.50814 9.05108 1.55213 C
227 2 0.0163529 0.819364 9.63487 2.12313 H
228 2 0.0380187 1.11427 8.06608 1.31709 H
200 3 -0.77719 -1.95524 12.0519 8.29926 O
207 4 0.448633 1.73575 8.6881 5.1923 Si
230 2 0.0364457 2.20792 7.15198 7.1189 H
215 1 -0.0977971 -0.301178 8.21489 5.24422 C
234 2 0.0659977 -0.710824 8.28173 6.24442 H
233 2 0.0500799 -0.742206 8.87452 4.52305 H
242 3 -0.556905 2.42674 7.77876 4.06215 O
231 2 0.0381228 1.60176 8.72543 7.73389 H
235 2 0.054936 -0.157502 7.17692 4.90192 H
193 3 -0.621037 -6.846 10.2478 5.51369 O
148 4 1.05214 -5.11223 9.89222 9.62677 Si
165 2 -0.0041215 -3.8397 7.76898 12.2203 H
179 2 0.0286929 -3.45938 8.44699 15.2048 H
181 2 0.0498945 -3.43275 8.00918 9.20714 H
194 3 -0.660234 -3.38546 5.32282 13.0236 O
196 3 -0.77596 -5.76742 10.1269 11.1225 O
201 3 -0.831463 -3.75549 10.7104 9.55159 O
258 4 0.292365 -7.09188 9.82237 14.3001 Si
260 2 0.0329285 -5.36576 9.90673 14.691 H
21 4 1.20476 -6.13248 11.402 12.0549 Si
155 1 -0.118482 -3.61673 7.38852 15.2799 C
115 3 -0.654276 -7.36711 10.774 12.9948 O
178 2 0.0321125 -4.63285 7.01928 15.2472 H
177 2 0.0526586 -2.94205 6.79729 15.8853 H
145 4 0.607301 -2.97837 6.84263 13.399 Si
156 1 -0.120726 -4.49179 7.92231 9.33964 C
275 2 0.100025 0.360075 9.91869 14.674 H
327 2 0.0624979 -3.56391 9.5801 11.98 H
159 1 -0.0970714 -2.61658 10.0165 12.2414 C
319 2 0.0395542 -4.79326 7.41641 10.2327 H
259 1 -0.105119 -7.55258 10.7573 16.1335 C
153 4 0.68451 -1.13815 9.24587 10.8981 Si
184 2 0.06029 0.844677 6.63884 10.6893 H
149 4 0.449644 -0.236365 6.17045 12.9364 Si
188 2 0.069751 -2.56121 11.0471 11.9188 H
273 2 0.0479109 -0.688286 10.0557 16.1491 H
170 2 0.286579 1.60224 4.95942 14.3818 H
203 3 -0.779348 -1.17155 9.71517 9.35628 O
198 3 -0.661627 1.27179 5.96489 14.5452 O
270 1 -0.0696291 0.0851949 9.49832 15.6294 C
150 4 0.597497 2.23751 6.99086 13.7122 Si
157 1 -0.0909698 0.128537 5.86969 10.9257 C
182 2 0.0410523 -0.813589 5.99588 10.4128 H
204 3 -0.678808 0.237634 8.76173 11.4858 O
326 2 0.0594693 -2.24575 9.82774 13.2356 H
274 2 0.0750046 -0.0620789 8.4215 15.6162 H
197 3 -0.610336 -1.41135 7.22982 13.3688 O
58 2 0.0631162 -0.247353 5.88831 16.3964 H
220 2 0.028674 -0.294313 5.31748 16.8461 H
28 4 1.22274 7.15238 1.80367 6.5986 Si
65 2 -0.00764404 9.11974 0.228112 4.44878 H
118 3 -0.749057 7.99038 0.94039 7.70691 O
123 3 -0.765968 6.2845 2.71705 7.59871 O
128 3 -0.782899 8.13139 2.5004 5.46101 O
137 3 -0.669312 8.92375 2.24978 2.7752 O
35 4 1.00437 9.21215 1.91581 4.33869 Si
40 4 0.268644 7.79199 3.18862 2.10299 Si
52 1 -0.0926862 6.66917 5.30358 5.64776 C
96 2 0.0972494 6.98848 4.28959 5.57388 H
98 2 0.0286796 5.64249 5.54032 5.31433 H
89 2 0.0344744 6.07346 3.03935 3.60544 H
55 1 -0.111888 8.22465 5.19928 2.44166 C
105 2 0.0586061 7.37554 5.6796 2.05972 H
106 2 0.0243959 9.13971 5.35114 1.93127 H
107 2 0.0337781 8.36282 5.21189 3.51678 H
224 2 0.278204 8.36548 4.89565 8.52074 H
26 4 0.802012 7.77968 -0.4576 8.49482 Si
109 2 0.124577 9.81246 4.09983 5.93165 H
162 2 0.00995116 10.4731 6.01116 2.37561 H
67 2 0.0298592 4.48401 5.18001 3.0887 H
11 2 0.0517138 13.3568 1.10549 3.55307 H
281 2 -0.00523257 10.7503 4.88501 0.224176 H
97 2 0.0255256 7.40866 5.93093 5.20148 H
306 2 0.0359856 12.599 1.30455 0.476914 H
56 1 -0.0727466 10.5022 4.9185 5.92679 C
59 2 0.0663295 11.3854 2.25028 2.52505 H
208 4 0.706099 13.0112 -0.522137 7.59351 Si
132 3 -0.753585 10.7649 2.22066 4.76266 O
110 2 0.073595 11.2733 4.85003 5.14531 H
222 2 0.172981 9.88921 0.480339 6.85173 H
131 3 -0.692618 13.0196 3.05765 5.79554 O
133 3 -0.673176 12.1757 -0.183201 5.7079 O
264 2 0.0683338 12.5617 3.79817 2.81322 H
129 3 -0.668254 14.1405 0.732387 7.97148 O
139 3 -0.785108 11.0279 1.80423 7.38675 O
72 2 0.0828166 10.9826 2.92002 2.48307 H
37 4 1.13373 11.8467 1.84017 5.9715 Si
42 4 0.335036 11.5502 5.07703 7.71977 Si
323 2 0.0745735 9.80633 0.32068 1.1386 H
38 4 0.276494 8.10682 2.49633 0.0128201 Si
4 1 -0.138035 14.3474 1.55569 3.48169 C
50 1 -0.0742694 7.82805 2.56033 10.4001 C
136 3 -0.7426 10.9385 -0.90471 9.54034 O
90 2 0.0841135 8.49777 3.39201 10.5194 H
91 2 0.124109 8.1933 1.78192 9.781 H
92 2 0.026056 7.2973 2.23901 11.3087 H
33 4 0.625265 6.09646 1.59786 14.2688 Si
130 3 -0.695687 8.14355 -0.652421 10.5363 O
141 3 -0.671592 7.09311 2.27986 15.3436 O
31 4 0.761425 6.32114 3.35858 9.10204 Si
100 2 0.0401705 7.79463 0.0162521 13.2284 H
282 2 0.044444 8.91043 3.75932 15.7895 H
251 1 -0.109667 9.40485 4.57082 13.2416 C
43 4 0.601858 6.74709 2.52283 16.9313 Si
256 2 0.0400567 8.96515 3.58718 13.332 H
124 3 -0.64096 7.42678 5.26701 8.87983 O
75 2 0.0344283 14.2827 0.374955 13.7125 H
104 2 0.0375932 9.62434 1.40824 15.771 H
142 3 -0.705122 6.36704 3.97183 17.4805 O
41 4 0.985989 11.1069 2.40537 8.90664 Si
68 2 0.0254091 11.0004 0.0295799 13.3468 H
257 2 0.0629245 9.46021 4.96404 12.2313 H
252 2 0.0568259 12.7771 2.06502 13.4865 H
280 4 0.220562 10.3769 4.21921 16.6412 Si
54 1 -0.0922426 9.6512 0.505664 16.3554 C
254 2 0.0171718 11.0845 1.46445 13.517 H
249 4 0.565789 11.4517 4.21544 13.8814 Si
138 3 -0.752755 10.2844 1.64499 10.0944 O
331 3 -0.60742 11.612 4.29135 15.5258 O
39 4 0.533805 12.5222 -0.799454 9.8695 Si
36 4 0.840402 9.97729 0.0874008 10.2768 Si
135 3 -0.664883 13.2813 0.634517 10.363 O
261 2 0.0321266 15.4189 -1.80656 15.9566 H
253 2 0.090782 11.7425 2.39361 12.0238 H
140 3 -0.644154 11.1704 4.08335 8.95895 O
304 1 -0.124149 13.1854 -0.769249 17.2077 C
305 2 0.0268462 13.1683 0.0497365 16.4971 H
250 1 -0.101933 11.794 2.24637 13.0896 C
62 2 0.0805498 12.364 2.59915 15.8904 H
103 2 0.0334016 10.3863 0.541039 17.1524 H
102 2 0.0925243 9.58508 -0.420188 15.7789 H
95 2 0.104277 4.17212 5.04306 8.85867 H
330 2 0.0149131 14.1608 -1.08434 17.4921 H
294 2 0.0445654 5.26836 7.14054 2.33636 H
209 4 0.464566 3.73486 10.4556 4.0376 Si
206 4 0.235913 2.98185 8.62731 2.72529 Si
292 2 0.0403875 3.69547 6.93221 1.37072 H
243 3 -0.626269 1.87976 10.7126 4.84162 O
246 3 -0.694366 5.00225 9.6882 4.73077 O
295 1 -0.106274 1.16967 12.4293 1.05762 C
297 2 0.0523886 0.0792195 12.4322 0.998391 H
298 1 -0.0856188 0.554724 11.0815 7.45232 C
237 2 0.0371297 4.96372 12.0266 2.60149 H
291 1 -0.122075 4.60464 7.5582 1.58677 C
51 1 -0.0955084 4.49072 5.9965 8.42618 C
296 2 0.00742587 1.60543 11.7123 1.67729 H
214 1 -0.105636 2.30745 8.22105 7.10191 C
248 3 -0.729548 5.43617 11.0569 7.41468 O
211 4 1.0099 5.64208 9.9061 6.23668 Si
293 2 0.00934094 4.86795 8.57684 1.23765 H
300 2 0.071226 1.5375 11.2396 7.10298 H
236 2 0.00663134 3.52896 11.2904 1.67884 H
169 2 0.246292 7.28576 9.56722 1.85777 H
216 1 -0.126311 3.90484 11.7917 2.55354 C
313 2 0.209244 1.32683 10.9973 3.94183 H
93 2 0.0328676 3.99312 6.26913 7.52163 H
232 2 0.0629758 3.32526 8.58423 7.10254 H
303 2 0.034182 9.51189 7.76445 0.869186 H
69 2 0.0911731 7.14009 8.10838 4.39791 H
205 4 0.12618 7.47393 11.6915 3.28334 Si
223 2 0.276897 3.13707 12.2608 5.8278 H
244 3 -0.6653 8.84131 7.51501 7.24225 O
247 3 -0.726688 6.21206 8.56696 6.96424 O
218 2 0.0918287 6.41598 7.81156 4.80081 H
301 1 -0.116191 10.2354 8.04853 0.124851 C
277 2 0.0207693 5.76272 11.4501 0.529797 H
73 2 0.262383 6.42844 9.30575 2.99104 H
245 3 -0.638132 7.40971 9.6147 2.80385 O
210 4 0.644521 7.32272 7.93447 7.915 Si
32 4 0.29139 6.39604 5.71923 7.72092 Si
143 4 0.314193 7.75999 11.4065 5.5246 Si
265 2 0.20996 8.84722 7.4849 6.11762 H
161 2 0.110998 7.38919 11.7537 8.68611 H
238 2 0.0451888 3.23014 12.552 2.90907 H
229 2 0.014253 1.92811 9.55257 0.707407 H
108 2 0.0292846 9.98579 5.88336 5.88 H
160 1 -0.128724 3.039 8.78129 10.6826 C
187 2 0.0399838 4.6488 6.7822 12.6226 H
202 3 -0.6395 2.06072 8.62343 13.4039 O
189 2 0.0206002 3.93081 9.13851 11.1479 H
190 2 0.0458814 2.7905 9.2984 9.76481 H
268 4 0.277908 1.72689 9.81392 16.8068 Si
269 4 0.297694 4.30617 10.6436 16.1626 Si
185 2 0.0442841 3.42877 5.58607 11.9795 H
279 3 -0.553276 2.72464 10.8229 16.088 O
158 1 -0.111966 3.8939 6.03581 12.843 C
152 4 0.660053 1.63478 9.30843 12.0336 Si
314 2 0.00275498 4.8315 10.7462 10.5232 H
172 2 -0.0164703 1.63888 11.0258 12.2449 H
278 2 0.056677 5.91189 8.6501 16.446 H
271 1 -0.111489 5.19609 9.04207 17.1553 C
191 2 0.0273434 3.00632 7.69802 10.5978 H
173 2 0.250272 0.137306 11.4475 10.5436 H
307 1 -0.0922811 4.836 10.6448 14.154 C
276 2 0.0423724 4.38482 8.37905 17.3649 H
272 2 0.0448982 2.04914 8.14128 16.306 H
310 2 0.0673278 3.89886 10.7169 13.6466 H
30 4 0.7591 5.0025 4.84415 17.2098 Si
186 2 0.0488856 4.14956 5.34447 13.628 H
94 2 0.0379289 4.56928 6.80002 9.15045 H
66 2 0.253722 6.82665 6.12108 16.3361 H
221 2 0.264879 6.10757 5.51534 15.2482 H
309 2 0.0388977 5.50746 11.4667 13.9948 H
290 2 0.0251044 8.23426 7.45878 14.925 H
308 2 0.0460902 5.30843 9.66832 14.0928 H
127 3 -0.70727 5.91362 6.1684 15.9265 O
289 2 0.0568075 7.53828 7.79667 13.28 H
318 2 0.0166738 8.10667 9.9497 16.8565 H
240 2 0.0498977 7.09756 7.53846 10.3901 H
302 2 0.0262156 9.70352 6.74123 16.8917 H
288 2 0.0356556 9.34293 7.52027 13.4865 H
287 1 -0.107383 8.40209 7.82315 13.9245 C
217 1 -0.0971089 7.39249 8.46571 9.92634 C
239 2 0.0766871 8.44085 8.65267 10.0708 H
241 2 0.0514689 6.81118 9.36756 10.0147 H
255 2 0.0292924 9.07784 5.29278 13.9851 H
ITEM: TIMESTEP
200
ITEM: NUMBER OF ATOMS
331
ITEM: BOX BOUNDS xy xz yz pp pp pp
-8.6839999999999993e+00 1.6337047999999999e+01 -8.5323680000000000e+00
-2.0055999999999998e+00 1.3086800000000000e+01 -1.5163199999999932e-01
0.0000000000000000e+00 1.7524799999999999e+01 -2.0055999999999998e+00
ITEM: ATOMS id type q x y z element
1 4 0.625415 -1.64245 3.07723 4.77267 Si
2 4 0.259701 -0.607973 5.03591 2.85144 Si
3 1 -0.110684 -0.0224306 2.77845 5.97318 C
6 1 -0.125176 -1.26349 4.7481 0.928234 C
8 2 0.035668 0.326604 3.77835 6.19971 H
9 2 0.00999696 0.668439 2.15994 5.46085 H
10 2 0.118319 -0.540984 2.25026 6.75908 H
17 2 0.0288126 -2.11565 5.40106 0.887823 H
18 3 -0.603006 -1.6668 4.57021 4.03542 O
285 2 0.0206466 1.17459 3.33323 1.15282 H
16 2 0.023334 -0.416526 5.00753 0.309699 H
283 1 -0.115238 1.33323 2.46119 0.531791 C
111 2 0.0640042 -1.84948 4.88202 8.02096 H
117 3 -0.64944 6.06064 0.334742 5.5053 O
15 2 0.0266977 -1.4648 3.69289 0.980853 H
87 2 0.0717959 4.90234 2.92316 2.15813 H
284 2 0.0256598 0.455896 1.94184 0.220671 H
5 1 -0.111988 1.39533 4.67861 3.19096 C
57 1 -0.0864801 -2.38045 5.53281 7.33493 C
317 2 0.0231856 1.87997 0.384535 2.83422 H
329 2 0.0947138 -2.24363 5.24962 6.30109 H
80 2 0.0962555 4.34423 3.05946 6.74901 H
225 2 0.0238328 0.900307 0.119001 1.32069 H
82 2 0.0562475 4.12018 1.37146 7.57139 H
321 2 0.020324 4.20284 0.178623 1.82805 H
81 2 0.0597799 3.28514 0.0528451 8.43012 H
47 1 -0.115432 3.34475 1.10037 8.23662 C
14 2 0.0197761 1.55153 3.77302 2.62562 H
88 2 0.0647563 6.16584 1.73965 2.71873 H
83 2 0.0312211 2.38943 1.52761 7.97705 H