ITEM: TIMESTEP
0
ITEM: NUMBER OF ATOMS
331
ITEM: BOX BOUNDS xy xz yz pp pp pp
-8.3499999999999996e+00 1.5708700000000000e+01 -8.2042000000000002e+00
-2.0055999999999998e+00 1.3086800000000000e+01 -1.4580000000000001e-01
0.0000000000000000e+00 1.7524799999999999e+01 -2.0055999999999998e+00
ITEM: ATOMS id type q x y z element
1 4 0.653283 -1.36514 3.22078 4.7465 Si
2 4 0.276903 -0.283433 4.93976 2.61508 Si
3 1 -0.129839 0.332372 3.00054 5.91051 C
6 1 -0.127436 -1.05542 4.70736 0.674151 C
8 2 0.0353768 0.63067 4.02491 6.12044 H
9 2 0.00852523 1.04177 2.44543 5.34102 H
10 2 0.0766292 -0.0765973 2.46816 6.75688 H
17 2 0.0297539 -1.85935 5.45281 0.638836 H
18 3 -0.613623 -1.29231 4.54254 3.81537 O
285 2 0.0152562 0.997359 3.10485 1.22498 H
166 2 0.0856782 0.707053 -0.688443 8.07324 H
283 1 -0.115365 1.32014 2.34092 0.566578 C
111 2 0.0645472 -1.85813 4.33627 7.86455 H
315 2 0.0226745 -0.98574 1.97843 2.53409 H
15 2 0.0301631 -1.40447 3.68424 0.586528 H
175 2 0.0348176 -3.26802 6.1416 2.95764 H
284 2 0.0286701 0.528399 1.69878 0.218866 H
5 1 -0.11836 1.79302 4.92176 3.00565 C
57 1 -0.0904312 -2.19314 5.31415 7.56586 C
317 2 0.019468 1.27693 0.508008 2.72304 H
329 2 0.0632768 -1.9662 5.53658 6.54706 H
316 2 0.0202023 -0.658528 0.912291 4.01972 H
95 2 0.0691155 3.88572 5.00717 7.94066 H
82 2 0.0992416 4.67441 0.91552 8.05965 H
321 2 0.0319016 3.95975 0.161147 1.25751 H
81 2 0.0778712 3.14308 0.0748856 8.64073 H
47 1 -0.0982532 3.60456 0.995923 8.26225 C
14 2 0.0245306 1.89147 4.12469 3.73401 H
88 2 0.0678234 6.40865 1.62954 3.11754 H
83 2 0.0254175 2.99015 1.57405 7.5498 H
12 2 0.0825685 2.00728 5.90604 3.40495 H
49 1 -0.0980312 5.85831 2.55834 2.94905 C
167 2 0.288721 5.35872 0.0410237 6.42359 H
286 2 0.0551294 2.24926 1.86508 0.850839 H
13 2 0.0267595 2.24368 4.7136 2.04143 H
24 4 0.139725 4.60935 1.5738 4.55926 Si
45 1 -0.105364 4.07694 3.44731 5.33699 C
312 2 0.014816 3.2443 0.694156 3.92863 H
78 2 0.0285775 3.1585 3.17165 5.82561 H
79 2 0.0221444 3.98401 4.06393 4.44918 H
80 2 0.0752082 4.82789 3.73043 6.0404 H
117 3 -0.613454 5.87003 0.491926 5.66692 O
87 2 0.0624673 5.08289 2.6283 2.19009 H
22 4 0.799411 0.827711 1.60009 10.5172 Si
23 4 0.400806 0.240885 2.14808 12.835 Si
34 4 0.346154 -1.3021 4.21982 13.8654 Si
44 1 -0.0798166 -0.439801 0.499008 13.9102 C
168 2 0.280841 0.173157 -0.773206 10.8048 H
77 2 0.121964 0.387438 -0.219868 13.8975 H
112 3 -0.684407 -0.588096 2.17775 9.91989 O
113 3 -0.697038 1.09208 -0.396797 10.7244 O
126 3 -0.555464 -0.977992 3.21329 12.6187 O
183 2 0.0781153 -0.119192 4.88293 10.5907 H
76 2 0.0275014 -0.685462 0.974958 14.8539 H
62 2 0.0739668 -2.90663 2.81998 16.0056 H
261 2 0.0483935 -0.180955 -1.60254 15.7054 H
60 2 0.107846 -3.28941 4.6022 10.919 H
71 2 0.059642 -2.84706 4.74767 10.2011 H
64 2 0.123293 1.61114 3.7005 9.1288 H
16 2 0.0109067 -0.406316 2.97889 17.5061 H
266 3 -0.6951 4.49083 0.588132 17.3924 O
120 3 -0.764403 4.65629 -0.996227 15.3741 O
85 2 0.0508241 4.7675 1.60727 12.0402 H
19 4 0.291445 1.89424 1.4373 16.3509 Si
122 3 -0.640137 4.66604 3.56631 9.71345 O
53 1 -0.109951 6.82149 -0.125913 13.7535 C
267 3 -0.690327 3.75193 4.15452 16.5861 O
114 3 -0.698892 1.98524 3.10721 13.5653 O
311 2 0.278337 3.9243 4.23109 15.5167 H
86 2 0.0543719 5.51654 0.721328 10.6666 H
171 2 0.307079 2.46847 2.9786 12.6771 H
263 4 0.521274 4.23958 1.998 16.5182 Si
63 2 0.331437 2.4328 2.33051 14.0568 H
25 4 0.967987 5.28885 -0.744877 16.9099 Si
27 4 0.565816 3.66425 2.27768 9.95537 Si
29 4 1.13967 3.57602 -0.214391 14.4026 Si
48 1 -0.0919086 4.61175 0.978631 11.19 C
84 2 0.110545 3.90418 0.193492 11.3573 H
125 3 -0.672458 4.48013 1.74436 14.4342 O
116 3 -0.690646 2.11276 2.59387 10.5521 O
119 3 -0.79066 3.34062 -0.935656 12.9451 O
121 3 -0.673162 2.1811 0.454874 15.0279 O
101 2 0.043074 6.35568 -0.235523 12.7695 H
99 2 0.0949108 6.51371 -0.763163 14.5707 H
144 4 0.266856 -4.22914 7.96665 4.42049 Si
146 4 0.638344 -3.82069 10.278 6.11437 Si
147 4 0.659937 -6.03363 9.52958 6.91544 Si
46 1 -0.132502 -3.4327 12.7529 0.729362 C
192 3 -0.599628 -3.8841 9.55521 4.66772 O
61 2 0.053423 -5.59022 9.49486 2.28755 H
195 3 -0.691239 -5.88373 10.4055 8.30066 O
199 3 -0.737886 -2.92216 9.65581 7.31374 O
161 2 0.101373 -7.83365 12.1045 8.28007 H
212 1 -0.109891 -6.85199 12.5183 2.48042 C
154 1 -0.0946149 -2.73967 7.03732 3.35246 C
325 2 0.0227164 -4.58566 8.30135 0.473945 H
174 2 0.0290733 -2.52343 7.84514 2.67765 H
151 4 1.31872 -2.41312 10.4764 8.64937 Si
225 2 0.0258454 -7.02564 12.3572 1.40582 H
163 2 0.0187964 -3.88515 7.05869 5.8984 H
180 2 0.06548 -4.78197 7.5244 8.44692 H
219 2 0.0646701 -4.97798 9.75488 2.52386 H
322 2 0.0293362 -2.56803 12.512 1.33134 H
226 2 0.0512346 -5.92647 12.0999 2.89337 H
320 2 0.0263114 -3.7473 11.9573 0.0692746 H
164 2 0.00712761 -1.29811 9.28724 0.423266 H
74 2 0.0396781 -1.92335 10.875 2.99616 H
328 2 0.0382494 -1.93955 6.10295 8.26922 H
324 2 0.0834328 0.162279 10.9179 6.60079 H
176 2 0.0722666 -2.03422 6.83245 4.16125 H
70 2 0.0291093 -1.8652 10.3507 2.81344 H
7 2 0.0211696 -0.160231 6.66957 2.81475 H
213 1 -0.12933 1.50441 8.96944 1.4977 C
227 2 0.00870811 0.911424 9.78652 1.89684 H
228 2 0.0321251 1.0245 8.01135 1.52414 H
200 3 -0.770358 -1.89955 12.04 8.26778 O
207 4 0.407201 1.54758 8.8239 5.3498 Si
230 2 0.0403477 2.17583 7.21209 7.1555 H
215 1 -0.0985918 -0.477609 8.23198 5.16826 C
234 2 0.0769533 -0.902856 8.96095 5.83784 H
233 2 0.0311878 -0.703045 8.42237 4.12849 H
242 3 -0.565092 2.43188 8.00072 4.2322 O
231 2 0.0416358 1.47737 8.73592 7.82839 H
235 2 0.0477844 -0.542242 7.23373 5.51232 H
299 2 0.0530849 0.732243 10.3056 8.18433 H
148 4 0.992959 -5.05808 9.84269 9.69893 Si
165 2 0.00914805 -3.93575 7.72022 12.5155 H
179 2 0.0340595 -2.66864 7.99173 15.7905 H
181 2 0.0535911 -3.43017 7.87532 9.57502 H
194 3 -0.664134 -3.34764 5.17813 13.0925 O
196 3 -0.734155 -5.62534 10.0863 11.2471 O
201 3 -0.793433 -3.66811 10.5938 9.6479 O
258 4 0.295611 -7.00981 9.82254 14.3804 Si
260 2 0.030521 -5.29968 9.83001 14.6708 H
21 4 1.16256 -6.12261 11.4038 12.1391 Si
155 1 -0.128287 -3.50697 7.35961 15.4621 C
115 3 -0.673598 -7.27349 10.8566 13.1397 O
178 2 0.0127845 -4.44101 7.88563 15.2819 H
177 2 0.0640232 -3.58708 6.42128 15.9906 H
145 4 0.60444 -2.98521 6.71344 13.5478 Si
156 1 -0.117666 -4.48627 7.82333 9.43126 C
262 2 0.0351003 -7.03956 10.8312 16.7614 H
327 2 0.111085 -3.3438 10.1241 11.9478 H
159 1 -0.082214 -2.36661 10.4162 12.3172 C
319 2 0.0456939 -5.01761 7.29694 10.1926 H
259 1 -0.11428 -7.88564 10.6322 16.1021 C
153 4 0.64045 -1.00988 9.4246 10.9777 Si
184 2 0.0390259 1.1639 6.18602 10.6696 H
149 4 0.486026 -0.257776 6.05852 12.8793 Si
188 2 0.0641172 -2.17175 11.4759 12.2169 H
273 2 0.0352571 -0.763229 9.73404 15.9173 H
170 2 0.301526 1.58104 4.94929 14.2476 H
203 3 -0.736266 -1.26171 9.47936 9.36624 O
198 3 -0.670496 1.29495 5.9433 14.4326 O
270 1 -0.0619393 0.118656 9.40955 15.3931 C
150 4 0.599897 2.29674 6.96256 13.6171 Si
157 1 -0.0821791 0.133887 5.91029 10.8455 C
182 2 0.0768607 -0.548735 6.64555 10.456 H
204 3 -0.649346 0.238602 8.65288 11.6342 O
326 2 0.0563128 -2.13518 10.015 13.3013 H
274 2 0.112168 0.129997 8.37065 15.0955 H
197 3 -0.612513 -1.44237 7.07255 13.3118 O
58 2 0.0324339 0.164312 4.75894 16.4855 H
220 2 0.077068 0.832051 4.71331 16.3531 H
28 4 1.18908 7.25986 1.78335 6.6806 Si
65 2 0.000419324 8.74564 0.137203 4.2986 H
118 3 -0.762714 8.14964 0.825039 7.64989 O
123 3 -0.753702 6.21304 2.64632 7.59307 O
128 3 -0.787188 8.07894 2.47831 5.40863 O
137 3 -0.65244 8.98736 2.28852 2.79738 O
35 4 1.04339 9.15751 1.81841 4.3535 Si
40 4 0.263664 7.80859 3.17609 2.12112 Si
52 1 -0.0880283 6.4956 5.25339 5.91516 C
96 2 0.0986979 6.6767 4.17121 5.95573 H
98 2 0.0328183 5.68204 5.62106 5.35002 H
89 2 0.0357815 6.11527 3.38993 3.56311 H
55 1 -0.106485 7.86724 5.18124 2.61431 C
105 2 0.0443291 6.86843 5.60844 2.4345 H
106 2 0.0324042 8.67056 5.61515 1.9404 H
107 2 0.0414266 8.14583 5.2117 3.64451 H
224 2 0.271486 8.2129 4.96895 8.30443 H
26 4 0.81931 7.7929 -0.514848 8.43452 Si
109 2 0.0925044 9.66401 4.22657 6.14926 H
97 2 0.0388606 7.43944 5.72409 5.68999 H
67 2 0.0280215 4.81295 5.07194 2.41593 H
11 2 0.0729879 13.3194 1.30198 3.58358 H
281 2 -0.00183428 11.056 4.96281 0.251058 H
330 2 0.018219 14.1125 1.13977 0.0978822 H
264 2 0.0699393 12.0762 4.78636 3.02353 H
56 1 -0.0839943 10.4593 4.9053 5.76628 C
59 2 0.0924784 10.9489 2.21529 1.84192 H
208 4 0.809336 13.1198 -0.448313 7.37639 Si
132 3 -0.770594 10.7297 1.99852 4.61542 O
110 2 0.0901355 11.322 4.45964 5.21252 H
222 2 0.139257 10.8681 -0.143794 7.84517 H
131 3 -0.710788 13.0191 3.09287 5.67936 O
133 3 -0.692364 12.2951 -0.0506474 5.58109 O
238 2 0.0591309 12.167 -0.163287 2.75272 H
129 3 -0.696668 13.9666 0.863034 7.90312 O
139 3 -0.792813 11.1315 1.67105 7.37984 O
72 2 0.0347983 11.1103 2.8003 1.39111 H
37 4 1.13294 11.7973 1.93331 5.8622 Si
42 4 0.314572 11.4146 5.15097 7.61661 Si
323 2 0.0668331 9.74735 0.213027 1.14299 H
108 2 0.0244033 10.1137 5.86141 5.40067 H
4 1 -0.124322 14.3669 1.59438 3.51375 C
162 2 0.0113879 10.063 5.74436 2.32263 H
223 2 0.304924 11.387 -0.242044 5.5613 H
50 1 -0.0897486 7.583 2.59767 10.4112 C
134 3 -0.667389 6.88815 -0.533623 17.1885 O
90 2 0.0965931 8.57782 2.92414 10.0962 H
91 2 0.0793333 7.3866 1.53598 10.256 H
92 2 0.036014 7.23372 2.97139 11.3539 H
33 4 0.601308 6.06794 1.64537 14.3559 Si
130 3 -0.693832 8.15375 -0.549715 10.5289 O
141 3 -0.644859 7.09272 2.50527 15.3165 O
31 4 0.725008 6.1986 3.45055 9.02318 Si
100 2 0.0330643 7.88196 -0.028032 13.727 H
282 2 0.0553768 8.88325 3.62812 15.9684 H
251 1 -0.111083 9.46526 4.37322 13.2047 C
43 4 0.53816 6.83427 2.54554 16.9647 Si
256 2 0.042442 9.08422 3.37526 13.1237 H
124 3 -0.635978 7.37262 5.30333 8.88026 O
38 4 0.253932 8.11832 0.48113 17.4776 Si
104 2 0.0486694 9.12303 0.970616 15.2756 H
142 3 -0.689198 6.4061 4.04595 17.4618 O
41 4 1.03889 11.0159 2.4878 8.80766 Si
68 2 0.0346592 10.8761 0.0913937 13.2434 H
257 2 0.0586457 9.62945 4.86761 12.2761 H
252 2 0.052092 12.6306 1.77462 13.5226 H
280 4 0.234938 10.3526 4.19887 16.6804 Si
54 1 -0.0977956 9.62172 0.461643 16.0974 C
254 2 0.0155194 10.8272 1.68846 13.5206 H
249 4 0.600866 11.4444 4.12506 13.8989 Si
138 3 -0.768131 10.5386 1.66678 10.0626 O
331 3 -0.627212 11.5022 4.24532 15.5225 O
39 4 0.618942 12.5199 -1.06256 9.80503 Si
36 4 0.805871 9.9768 0.109485 10.1287 Si
135 3 -0.672852 13.243 0.28238 10.3756 O
20 4 0.892312 13.6971 1.59785 9.4231 Si
253 2 0.100246 11.717 2.29412 12.0421 H
140 3 -0.684518 10.9533 4.08919 8.79157 O
304 1 -0.126824 13.1643 -0.551996 16.9639 C
305 2 0.0225137 13.4908 0.0418795 16.1344 H
250 1 -0.0997739 11.7068 2.16262 13.1204 C
306 2 0.036013 12.2899 -0.222537 17.4859 H
103 2 0.0176354 10.3916 1.05616 16.5788 H
102 2 0.106213 9.89314 -0.56278 15.8723 H
75 2 0.0531445 14.4008 0.119154 13.3797 H
136 3 -0.756346 10.9573 -1.07445 9.57488 O
294 2 0.0487746 5.35398 7.39873 2.34788 H
209 4 0.499075 3.55753 10.7311 4.14457 Si
206 4 0.262285 2.92017 8.75277 2.91887 Si
292 2 0.0345565 3.69119 7.06656 1.59646 H
243 3 -0.61178 1.76294 10.8624 5.06293 O
246 3 -0.691091 4.89955 10.0566 4.76862 O
295 1 -0.101136 0.927091 12.4921 0.810643 C
297 2 0.0789407 0.00671308 12.8176 0.402727 H
298 1 -0.0814957 0.713528 11.1331 7.49483 C
237 2 0.0344882 5.00548 11.5004 2.39675 H
291 1 -0.12473 4.57578 7.71055 1.6781 C
51 1 -0.0986277 4.20549 6.02887 8.10895 C
296 2 0.0101431 0.896997 11.697 1.56191 H
214 1 -0.103498 2.23434 8.29359 7.19011 C
248 3 -0.794735 5.42394 11.1058 7.33618 O
211 4 1.02863 5.46857 9.86948 6.33324 Si
293 2 0.00829644 4.66613 8.72175 1.25476 H
300 2 0.0779933 1.64444 11.6656 7.36121 H
236 2 0.00743375 3.21288 11.6195 1.81912 H
276 2 0.0330093 4.37931 10.827 0.0943418 H
216 1 -0.120597 4.00031 11.8694 2.52564 C
313 2 0.195576 1.05736 10.767 4.19004 H
93 2 0.0410577 3.92221 6.71984 7.309 H
232 2 0.0418214 3.2331 8.70202 7.26355 H
229 2 0.0222676 2.11621 9.20662 0.635397 H
69 2 0.113177 7.29392 8.04064 5.10606 H
205 4 0.12509 7.51513 11.6373 3.26466 Si
193 3 -0.59273 8.81717 10.1058 5.63358 O
244 3 -0.639327 9.02844 7.44965 7.18018 O
247 3 -0.718883 6.29849 8.5151 6.8282 O
218 2 0.0730904 6.93594 7.69786 4.60219 H
301 1 -0.121779 10.1391 8.05737 0.0318909 C
277 2 0.0156914 5.99875 11.6155 0.113657 H
73 2 0.288741 6.3456 9.6934 3.15527 H
245 3 -0.64016 7.2955 9.57234 2.83279 O
210 4 0.5141 7.35474 8.04649 7.95267 Si
32 4 0.285511 6.29743 5.95093 7.86667 Si
143 4 0.319433 7.69181 11.3001 5.68679 Si
265 2 0.243866 8.62914 7.56729 6.23497 H
169 2 0.234039 7.13417 9.60288 1.84499 H
303 2 0.0363988 9.31348 7.90827 0.750601 H
160 1 -0.138173 3.04503 9.0335 10.6291 C
187 2 0.0363769 4.62502 7.0063 12.5629 H
202 3 -0.630689 2.17861 8.60965 13.5594 O
189 2 0.0143474 4.02164 8.96427 11.1078 H
190 2 0.0589391 2.89064 9.88731 9.99674 H
268 4 0.273459 1.67747 9.65123 16.7063 Si
269 4 0.298286 4.28844 10.7968 16.0039 Si
185 2 0.0538454 3.78756 5.55503 11.8854 H
279 3 -0.548317 2.67421 10.7494 16.0467 O
158 1 -0.109233 4.04154 6.12213 12.7771 C
152 4 0.599891 1.69423 9.2104 12.1593 Si
314 2 4.00024e-06 4.52208 10.9772 11.141 H
172 2 -0.00314817 1.68437 10.946 12.3229 H
278 2 0.0713018 5.39825 8.49742 16.2803 H
271 1 -0.110139 5.06713 9.17994 17.0401 C
191 2 0.0273266 2.7011 8.10735 10.2183 H
173 2 0.228973 0.06211 11.5534 10.6123 H
307 1 -0.0949424 5.06723 10.3962 14.0708 C
275 2 0.091132 0.433564 10.0905 14.6106 H
272 2 0.0336917 2.46707 8.1299 16.7593 H
310 2 0.0668478 4.15457 10.2907 13.4836 H
30 4 0.756749 5.059 4.87122 17.2931 Si
186 2 0.0653337 4.422 5.51729 13.5986 H
94 2 0.0441314 4.04633 6.35816 9.12678 H
66 2 0.242532 6.57351 6.46292 16.3937 H
221 2 0.254467 6.40963 5.48734 15.4231 H
309 2 0.0455405 5.62931 11.2865 13.8482 H
290 2 0.0223384 8.10893 7.40435 14.9784 H
308 2 0.0452524 5.67152 9.51832 14.1129 H
127 3 -0.687543 5.78309 6.21403 15.891 O
289 2 0.0553113 7.11444 7.96442 13.559 H
318 2 0.013412 7.17957 9.83046 16.3762 H
240 2 0.0421628 6.45369 7.67902 10.3986 H
302 2 0.0247895 9.71758 6.6748 16.7263 H
288 2 0.0412465 8.87393 7.50664 13.3566 H
287 1 -0.10637 8.09787 7.87436 14.0077 C
217 1 -0.1065 7.18289 8.38456 9.99926 C
239 2 0.061827 8.14742 8.29742 10.4561 H
241 2 0.0406363 6.82182 9.39648 9.95182 H
255 2 0.0359291 9.00193 4.97448 13.9407 H
ITEM: TIMESTEP
100
ITEM: NUMBER OF ATOMS
331
ITEM: BOX BOUNDS xy xz yz pp pp pp
-8.2042000000000002e+00 1.5824636000000000e+01 -8.2042000000000002e+00
-2.0055999999999998e+00 1.3086800000000000e+01 1.1593599999999959e-01
0.0000000000000000e+00 1.7524799999999999e+01 -2.0055999999999998e+00
ITEM: ATOMS id type q x y z element
1 4 0.61408 -1.45869 3.18598 4.72304 Si
2 4 0.276079 -0.368135 4.95002 2.66286 Si
3 1 -0.12218 0.209926 2.978 5.83375 C
6 1 -0.124913 -1.16988 4.67455 0.734214 C
8 2 0.0351462 0.621402 3.95836 5.8571 H
9 2 0.00894971 0.761927 2.27024 5.22923 H
10 2 0.0797395 -0.133469 2.56285 6.76165 H
17 2 0.0341999 -1.91834 5.45825 0.629138 H
18 3 -0.606048 -1.36337 4.61024 3.88714 O
285 2 0.0135076 0.730068 3.40577 1.05505 H
16 2 0.0201933 -0.32371 4.84824 0.0457966 H
283 1 -0.115727 1.20027 2.58799 0.562405 C
111 2 0.0517582 -1.63693 4.69253 7.89954 H
315 2 0.0183051 -1.11681 1.89116 2.468 H
15 2 0.0271675 -1.56669 3.65191 0.734795 H
87 2 0.0690932 5.02511 3.03731 2.14234 H
284 2 0.0326531 0.542749 1.80376 0.211536 H
5 1 -0.110642 1.673 4.76449 3.04258 C
57 1 -0.0923766 -2.13191 5.48985 7.37206 C
317 2 0.0271418 1.82051 0.0801862 3.10945 H
329 2 0.0853534 -2.0094 5.40393 6.29438 H
316 2 0.0157592 -0.605759 0.938713 3.95066 H
225 2 0.0216279 0.891459 -0.0273119 1.52384 H
82 2 0.0887655 4.61146 1.16152 7.73729 H
321 2 0.0300305 4.08774 0.333961 1.57829 H
81 2 0.0698845 3.24268 0.153445 8.48299 H
47 1 -0.103176 3.58715 1.1251 8.12968 C
14 2 0.0214311 1.99829 3.79543 2.69092 H
88 2 0.0654745 5.95955 1.43915 2.45063 H
83 2 0.0261089 2.85749 1.7046 7.59687 H
12 2 0.0535387 1.74826 4.87934 4.12142 H
49 1 -0.0914865 5.74151 2.47952 2.75442 C
167 2 0.290565 5.30411 -0.0109936 6.31254 H
286 2 0.0510097 2.10417 2.2362 1.03775 H
13 2 0.0523551 2.08593 5.57655 2.45962 H
24 4 0.108145 4.6453 1.58457 4.55735 Si
45 1 -0.111658 3.71502 3.141 5.65474 C
312 2 0.0227881 3.44717 0.575038 3.81099 H
78 2 0.0227801 2.71166 2.79542 5.82466 H
79 2 0.0256994 3.78212 4.05094 5.08842 H
80 2 0.0803895 4.34171 3.15432 6.545 H
117 3 -0.635908 5.90261 0.417834 5.65446 O
22 4 0.800504 0.872923 1.76471 10.5559 Si
23 4 0.400352 0.21399 2.08431 12.8782 Si
34 4 0.350049 -1.39851 4.24309 13.7688 Si
44 1 -0.0819928 -0.395008 0.387018 14.0295 C
168 2 0.262514 0.164056 -0.471485 11.2451 H
77 2 0.114085 0.205112 -0.46612 13.6722 H
112 3 -0.712623 -0.415865 2.43397 9.83825 O
113 3 -0.70382 1.06 -0.215982 10.8682 O
126 3 -0.575989 -0.962512 3.15235 12.6006 O
183 2 0.0748241 0.515724 4.8668 10.9013 H
76 2 0.0497352 -0.283572 0.621884 15.081 H
101 2 0.0445997 6.07244 -0.54542 13.0933 H
134 3 -0.661805 6.73576 -0.530306 17.3297 O
60 2 0.102614 -2.51145 4.22043 10.9788 H
71 2 0.0903099 -1.89749 3.93943 10.4871 H
64 2 0.095459 1.46472 3.96973 8.83905 H
99 2 0.0715129 7.03022 -0.888123 14.602 H
266 3 -0.681814 4.45124 0.749218 17.4809 O
120 3 -0.764409 4.46569 -1.00897 15.4787 O
85 2 0.0496319 4.63015 1.03728 12.0515 H
19 4 0.296248 1.82475 1.37983 16.313 Si
122 3 -0.660579 4.8853 3.46697 9.87227 O
53 1 -0.103773 6.8804 -0.260273 13.7405 C
267 3 -0.699021 3.71082 4.2096 16.5003 O
114 3 -0.687521 2.03832 2.98505 13.3521 O
311 2 0.258947 3.899 4.15881 15.4038 H
86 2 0.0579148 5.63746 0.695578 10.5862 H
171 2 0.32423 2.43007 3.14788 12.4543 H
263 4 0.552566 4.1084 2.04436 16.5457 Si
63 2 0.288273 2.56551 2.10743 13.7071 H
25 4 0.951248 5.15806 -0.723434 16.9846 Si
27 4 0.58338 3.77508 2.20788 9.9389 Si
29 4 1.1805 3.46971 -0.242182 14.4621 Si
48 1 -0.0874972 4.66219 0.713652 11.023 C
84 2 0.102313 4.08087 -0.179413 10.8007 H
125 3 -0.687053 4.52408 1.6608 14.5586 O
116 3 -0.675111 2.297 2.66911 10.5105 O
119 3 -0.822695 3.15509 -0.929495 12.9951 O
121 3 -0.688965 2.09749 0.168177 15.231 O
262 2 0.0912273 1.4787 -1.66347 16.2042 H
166 2 0.119267 0.0934432 -0.975293 8.86375 H
20 4 0.874946 -1.76342 1.75566 9.30563 Si
144 4 0.278189 -4.18044 8.10088 4.31121 Si
146 4 0.613664 -3.91146 10.3258 6.20183 Si
147 4 0.708793 -6.16669 9.5557 6.81607 Si
46 1 -0.129608 -3.76076 12.8155 0.766697 C
192 3 -0.598101 -3.73938 9.58864 4.74613 O
61 2 0.0789243 -4.77124 10.0518 2.84084 H
195 3 -0.729943 -6.06339 10.1923 8.29422 O
199 3 -0.731485 -3.07263 9.65075 7.44212 O
299 2 0.0821953 0.448073 10.3013 8.17677 H
212 1 -0.10688 -6.80371 12.5646 2.33935 C
154 1 -0.104984 -2.84175 7.36861 2.96591 C
325 2 0.0285996 -4.51597 8.31838 0.549171 H
174 2 0.0317826 -2.34059 8.22126 2.53259 H
151 4 1.3799 -2.43319 10.5668 8.68186 Si
175 2 0.0214326 -3.44367 6.82056 2.24825 H
163 2 0.011929 -4.30242 7.16613 5.78929 H
180 2 0.0737062 -5.04886 7.70635 8.45479 H
219 2 0.0458527 -4.13715 10.235 2.45876 H
322 2 0.0253366 -2.91849 12.1821 1.011 H
226 2 0.0489538 -6.11956 11.767 2.12146 H
320 2 0.0327 -4.53342 12.3168 0.190306 H
164 2 0.00599725 -1.09872 9.46516 0.147946 H
74 2 0.0439526 -1.11959 10.8085 3.58596 H
328 2 0.0396787 -1.96579 6.46976 7.77482 H
324 2 0.0720376 -0.186337 10.9935 6.66819 H
176 2 0.0768401 -2.26011 6.73622 3.60756 H
70 2 0.0222069 -1.11937 10.9984 2.97312 H
7 2 0.0200797 -0.256688 6.70227 2.60675 H
213 1 -0.123106 1.50832 9.05119 1.55227 C
227 2 0.0163432 0.819236 9.63455 2.1233 H
228 2 0.0380244 1.1147 8.06623 1.31669 H
200 3 -0.777229 -1.95526 12.0518 8.29929 O
207 4 0.448652 1.73582 8.68824 5.19219 Si
230 2 0.0364486 2.20793 7.152 7.11877 H
215 1 -0.0977975 -0.30099 8.21491 5.24422 C
234 2 0.0659739 -0.710721 8.28135 6.24441 H
233 2 0.0500503 -0.742099 8.87466 4.5232 H
242 3 -0.556882 2.42675 7.77881 4.06213 O
231 2 0.0381226 1.60182 8.72545 7.73382 H
235 2 0.0550544 -0.156939 7.17707 4.90159 H
193 3 -0.621117 -6.83002 10.2577 5.51051 O
148 4 1.05191 -5.11195 9.89223 9.62702 Si
165 2 -0.00410547 -3.84026 7.76915 12.2204 H
179 2 0.0286957 -3.4599 8.44708 15.2042 H
181 2 0.0498975 -3.43273 8.00914 9.20705 H
194 3 -0.660318 -3.38536 5.32274 13.0235 O
196 3 -0.776313 -5.7675 10.1268 11.1225 O
201 3 -0.831618 -3.75544 10.7105 9.55153 O
258 4 0.292396 -7.09208 9.82282 14.3003 Si
260 2 0.0329611 -5.36649 9.90737 14.6916 H
21 4 1.20461 -6.13198 11.4015 12.0553 Si
155 1 -0.118538 -3.61681 7.38866 15.2799 C
115 3 -0.654451 -7.36717 10.7741 12.9946 O
178 2 0.0319967 -4.63264 7.01869 15.2469 H
177 2 0.0526357 -2.94132 6.79834 15.8853 H
145 4 0.607136 -2.97873 6.84262 13.3989 Si
156 1 -0.120709 -4.49174 7.92225 9.33966 C
275 2 0.10008 0.361042 9.91881 14.675 H
327 2 0.0624536 -3.56397 9.57999 11.98 H
159 1 -0.0970706 -2.61666 10.0164 12.2414 C
319 2 0.039555 -4.79314 7.41637 10.2327 H
259 1 -0.105372 -7.56016 10.7572 16.1334 C
153 4 0.684494 -1.13813 9.2458 10.8982 Si
184 2 0.0602634 0.844519 6.63894 10.6896 H
149 4 0.44949 -0.236457 6.17027 12.9365 Si
188 2 0.0697557 -2.56132 11.047 11.9187 H
273 2 0.0479128 -0.687409 10.0555 16.1499 H
170 2 0.2866 1.6023 4.95932 14.3817 H
203 3 -0.779457 -1.17157 9.71523 9.35627 O
198 3 -0.661611 1.27179 5.96482 14.5452 O
270 1 -0.0696257 0.0859107 9.49808 15.6301 C
150 4 0.597638 2.2375 6.99088 13.7122 Si
157 1 -0.0909675 0.128488 5.86967 10.926 C
182 2 0.041025 -0.813621 5.99573 10.4129 H
204 3 -0.678793 0.237635 8.76171 11.4858 O
326 2 0.0595017 -2.24582 9.82775 13.2356 H
274 2 0.0750123 -0.0616941 8.42132 15.6163 H
197 3 -0.61013 -1.41137 7.2299 13.3688 O
58 2 0.0631638 -0.24662 5.891 16.3972 H
220 2 0.0288909 -0.292709 5.3189 16.8455 H
318 2 0.0168134 -7.5823 9.9491 16.8596 H
28 4 1.22275 7.1523 1.8037 6.59858 Si
65 2 -0.00749849 9.11997 0.227989 4.44869 H
118 3 -0.748989 7.9903 0.940466 7.70691 O
123 3 -0.765961 6.28448 2.71702 7.59876 O
128 3 -0.782855 8.13136 2.50041 5.46102 O
137 3 -0.669362 8.92355 2.24964 2.77498 O
35 4 1.00418 9.21205 1.91581 4.33865 Si
40 4 0.266731 7.79181 3.1887 2.10316 Si
52 1 -0.0927327 6.6692 5.30359 5.64768 C
96 2 0.0972718 6.98858 4.28962 5.5738 H
98 2 0.0286864 5.64249 5.5403 5.31428 H
89 2 0.0345527 6.07348 3.03927 3.60542 H
55 1 -0.111797 8.22491 5.19932 2.44171 C
105 2 0.0586482 7.3762 5.67975 2.05871 H
106 2 0.0244315 9.14041 5.35098 1.93208 H
107 2 0.0338449 8.3621 5.21192 3.51695 H
224 2 0.278228 8.36547 4.89567 8.52072 H
26 4 0.801926 7.77968 -0.457571 8.49483 Si
109 2 0.124637 9.81361 4.09938 5.9308 H
162 2 0.0102493 10.4751 6.00877 2.37728 H
67 2 0.0298561 4.48395 5.17984 3.0889 H
11 2 0.0519475 13.3571 1.10602 3.55244 H
281 2 -0.0051593 10.742 4.89026 0.229157 H
97 2 0.0254786 7.40865 5.93095 5.20138 H
306 2 0.0362691 12.571 1.31492 0.465491 H
56 1 -0.0726525 10.5027 4.91869 5.92621 C
59 2 0.0663335 11.3794 2.24226 2.5253 H
208 4 0.70884 13.0069 -0.520967 7.59385 Si
132 3 -0.753559 10.7648 2.22084 4.76233 O
110 2 0.0738977 11.2736 4.85215 5.14427 H
222 2 0.173091 9.89034 0.479332 6.85068 H
131 3 -0.692534 13.0198 3.05786 5.7958 O
133 3 -0.672808 12.1752 -0.182425 5.70468 O
264 2 0.0623404 12.487 3.74445 2.76237 H
129 3 -0.671487 14.1365 0.732221 7.96967 O
139 3 -0.785346 11.0277 1.80436 7.38709 O
72 2 0.0836278 10.972 2.90986 2.48067 H
37 4 1.13442 11.8462 1.84079 5.97152 Si
42 4 0.33511 11.5503 5.07669 7.71978 Si
323 2 0.0742767 9.80779 0.320141 1.13828 H
38 4 0.282465 8.08217 2.4969 0.0127549 Si
4 1 -0.137804 14.3479 1.55569 3.48125 C
50 1 -0.0742331 7.82807 2.56036 10.4002 C
136 3 -0.742894 10.9381 -0.905192 9.54129 O
90 2 0.084143 8.49772 3.39208 10.5194 H
91 2 0.124069 8.19334 1.78201 9.7809 H
92 2 0.0260844 7.2973 2.23894 11.3086 H
33 4 0.625042 6.09645 1.59781 14.2686 Si
130 3 -0.695679 8.14349 -0.652441 10.5365 O
141 3 -0.671559 7.09312 2.27976 15.3435 O
31 4 0.761609 6.32113 3.35858 9.10203 Si
100 2 0.0401464 7.79459 0.0162532 13.2283 H
282 2 0.04436 8.90942 3.76094 15.7872 H
251 1 -0.109684 9.40513 4.57088 13.2417 C
43 4 0.599574 6.74705 2.52291 16.9313 Si
256 2 0.040001 8.96554 3.5876 13.332 H
124 3 -0.640906 7.42677 5.26699 8.87983 O
75 2 0.0343794 14.2828 0.374965 13.7123 H
104 2 0.0372645 9.62301 1.40768 15.7712 H
142 3 -0.704706 6.36696 3.97188 17.4805 O
41 4 0.988181 11.108 2.40515 8.90676 Si
68 2 0.0253249 10.9995 0.0271719 13.3463 H
257 2 0.0629761 9.46025 4.96371 12.2314 H
252 2 0.0570347 12.777 2.0656 13.4862 H
280 4 0.220292 10.3741 4.22182 16.6403 Si
54 1 -0.0926603 9.64992 0.50537 16.3561 C
254 2 0.0169784 11.0855 1.4632 13.5157 H
249 4 0.565451 11.4518 4.2163 13.8819 Si
138 3 -0.752986 10.2845 1.64514 10.0942 O
331 3 -0.606424 11.6118 4.28851 15.5272 O
39 4 0.534257 12.5218 -0.798982 9.86939 Si
36 4 0.840782 9.97726 0.0878211 10.277 Si
135 3 -0.665277 13.2818 0.634616 10.3622 O
95 2 0.104295 4.17222 5.04311 8.85889 H
253 2 0.0909319 11.743 2.39453 12.024 H
140 3 -0.64431 11.1704 4.08309 8.95891 O
304 1 -0.124091 13.1766 -0.767091 17.2087 C
305 2 0.0267927 13.1767 0.0512248 16.4962 H
250 1 -0.101879 11.7942 2.24743 13.0896 C
62 2 0.0787747 12.2661 2.53961 15.8703 H
103 2 0.0331171 10.3836 0.541225 17.1538 H
102 2 0.092256 9.58468 -0.420437 15.7793 H
330 2 0.0150222 14.1456 -1.08124 17.5173 H
294 2 0.0445792 5.26825 7.14023 2.3364 H
209 4 0.464022 3.73577 10.4557 4.03781 Si
206 4 0.23599 2.98193 8.6273 2.72531 Si
292 2 0.0403905 3.69534 6.93213 1.37071 H
243 3 -0.626486 1.88017 10.7125 4.84114 O
246 3 -0.694184 5.00247 9.68792 4.7316 O
295 1 -0.10641 1.1698 12.4294 1.05736 C
297 2 0.0524485 0.0794225 12.434 0.996784 H
298 1 -0.0856006 0.554749 11.0815 7.45231 C
237 2 0.0368024 4.97616 12.0006 2.58761 H
291 1 -0.122083 4.60461 7.55804 1.58679 C
51 1 -0.0954828 4.49076 5.99651 8.42624 C
296 2 0.00741526 1.6032 11.7123 1.67852 H
214 1 -0.105596 2.30748 8.22107 7.10182 C
248 3 -0.729304 5.43327 11.0592 7.41332 O
211 4 1.00865 5.64261 9.90721 6.23702 Si
293 2 0.00933785 4.86799 8.5767 1.23782 H
300 2 0.0711156 1.53743 11.2396 7.10284 H
236 2 0.00657612 3.51308 11.2992 1.6827 H
169 2 0.246324 7.2859 9.56721 1.8579 H
216 1 -0.126363 3.91087 11.79 2.55348 C
313 2 0.209272 1.32748 10.9974 3.94111 H
93 2 0.0328802 3.99308 6.26902 7.52171 H
232 2 0.0630702 3.32531 8.58422 7.10241 H
303 2 0.034177 9.51128 7.76455 0.869867 H
69 2 0.0905877 7.13956 8.10707 4.39627 H
205 4 0.126195 7.47415 11.6907 3.28478 Si
161 2 0.109921 7.42827 11.6765 8.70708 H
244 3 -0.66522 8.84095 7.51486 7.24231 O
247 3 -0.726937 6.21199 8.56805 6.9642 O
218 2 0.091846 6.41678 7.81178 4.80282 H
301 1 -0.116212 10.2345 8.04971 0.12565 C
277 2 0.0205646 5.77316 11.4601 0.523263 H
73 2 0.262183 6.42832 9.30563 2.99053 H
245 3 -0.638364 7.40983 9.61464 2.804 O
210 4 0.643669 7.32216 7.9345 7.91491 Si
32 4 0.291293 6.396 5.71924 7.72085 Si
143 4 0.31585 7.76513 11.4022 5.52428 Si
265 2 0.209629 8.84731 7.48485 6.1178 H
229 2 0.0142176 1.92843 9.55315 0.707937 H
238 2 0.0457606 3.25529 12.5623 2.91694 H
223 2 0.276751 3.14394 12.2481 5.82311 H
108 2 0.029319 9.98519 5.88286 5.88027 H
160 1 -0.128648 3.039 8.78125 10.6826 C
187 2 0.0400454 4.64882 6.78214 12.6226 H
202 3 -0.639449 2.06068 8.62345 13.4038 O
189 2 0.0206007 3.93079 9.13854 11.1479 H
190 2 0.0459208 2.79049 9.29827 9.76477 H
268 4 0.278024 1.72731 9.81201 16.8072 Si
269 4 0.297824 4.3064 10.6439 16.163 Si
185 2 0.0442925 3.4287 5.58608 11.9795 H
279 3 -0.553368 2.7249 10.8192 16.0865 O
158 1 -0.111906 3.89387 6.0358 12.843 C
152 4 0.66016 1.63476 9.30846 12.0336 Si
314 2 0.00257376 4.83088 10.7478 10.5225 H
172 2 -0.0164098 1.63884 11.0259 12.2449 H
278 2 0.0564207 5.9151 8.6576 16.4382 H
271 1 -0.11145 5.20293 9.0443 17.1544 C
191 2 0.0273777 3.00638 7.69797 10.5979 H
173 2 0.250328 0.137376 11.4475 10.5436 H
307 1 -0.0921932 4.83579 10.6457 14.1541 C
276 2 0.0424986 4.39894 8.38181 17.37 H
272 2 0.0448197 2.05052 8.13937 16.3099 H
310 2 0.0673966 3.89854 10.718 13.647 H
30 4 0.759083 5.00241 4.84424 17.2099 Si
186 2 0.0489278 4.1495 5.34445 13.628 H
94 2 0.0379586 4.56936 6.80011 9.15041 H
66 2 0.253742 6.8265 6.12117 16.3364 H
221 2 0.2649 6.10758 5.51529 15.2484 H
309 2 0.0388795 5.50728 11.4675 13.9947 H
290 2 0.0251304 8.23442 7.45892 14.925 H
308 2 0.0461584 5.30803 9.66916 14.0924 H
127 3 -0.707168 5.91359 6.16839 15.9265 O
289 2 0.0568351 7.53836 7.79665 13.28 H
255 2 0.0292018 9.07718 5.29273 13.9843 H
240 2 0.0499805 7.0977 7.5384 10.3898 H
302 2 0.0261501 9.70239 6.7437 16.8939 H
288 2 0.0356333 9.34304 7.52046 13.4865 H
287 1 -0.107366 8.40218 7.82325 13.9244 C
217 1 -0.097386 7.39245 8.46576 9.92615 C
239 2 0.0765078 8.44084 8.65271 10.0705 H
241 2 0.0507968 6.81098 9.36753 10.015 H
261 2 0.0308856 7.1957 11.2545 15.9649 H
ITEM: TIMESTEP
200
ITEM: NUMBER OF ATOMS
331
ITEM: BOX BOUNDS xy xz yz pp pp pp
-8.2042000000000002e+00 1.6086372000000001e+01 -8.2042000000000002e+00
-2.0055999999999998e+00 1.3086800000000000e+01 3.7767200000000045e-01
0.0000000000000000e+00 1.7524799999999999e+01 -2.0055999999999998e+00
ITEM: ATOMS id type q x y z element
1 4 0.659384 -1.42215 3.11929 4.79436 Si
2 4 0.271437 -0.576431 5.10093 2.83233 Si
3 1 -0.122191 0.231924 2.87293 5.94699 C
6 1 -0.126018 -1.25617 4.75846 0.886597 C
8 2 0.0322193 0.554347 3.89536 6.10024 H
9 2 0.00875171 0.889699 2.26738 5.3767 H
10 2 0.100215 -0.197796 2.36195 6.79308 H
17 2 0.0269037 -2.13597 5.39209 0.831536 H
18 3 -0.629092 -1.52385 4.52633 4.03763 O
285 2 0.0207795 1.03303 3.34167 1.14829 H
16 2 0.0236092 -0.417962 5.04976 0.284572 H
283 1 -0.116929 1.14093 2.47377 0.516279 C
111 2 0.0566116 -1.46476 4.91837 8.00232 H
315 2 0.0191887 -1.2696 2.09533 2.54317 H
15 2 0.0277364 -1.42246 3.68404 0.93485 H
87 2 0.0729506 4.76554 2.83844 2.11964 H
284 2 0.0254823 0.217634 1.97384 0.331819 H
5 1 -0.110759 1.45385 4.71785 3.11164 C
57 1 -0.0924979 -2.02464 5.57091 7.34421 C
317 2 0.0241879 1.85882 0.379263 2.73173 H
329 2 0.0847335 -1.98605 5.29995 6.3044 H
316 2 0.018182 -0.55751 0.932461 3.75917 H
225 2 0.0246726 0.766377 0.0755855 1.28196 H
82 2 0.0596877 4.12872 1.347 7.61162 H
321 2 0.0175152 4.06179 0.127136 1.83118 H
81 2 0.0646538 3.28692 0.0646198 8.436 H
47 1 -0.110552 3.34593 1.11316 8.2607 C
14 2 0.0227395 1.61526 3.8469 2.49422 H
88 2 0.0672294 6.07496 1.75666 2.73115 H
83 2 0.033553 2.38419 1.54831 8.03824 H
12 2 0.0404668 1.49167 4.53521 4.17296 H