ITEM: TIMESTEP
0
ITEM: NUMBER OF ATOMS
274
ITEM: BOX BOUNDS xy xz yz pp pp pp
-8.3797999999999995e+00 1.8013900000000000e+01 -8.3797999999999995e+00
0.0000000000000000e+00 1.3273200000000001e+01 1.1950000000000001e+00
0.0000000000000000e+00 1.6075500000000002e+01 4.3120000000000003e-01
ITEM: ATOMS id type q x y z
119 2 -0.00430576 7.37526 1.23518 5.25322
12 4 1.32239 -0.870909 6.3079 5.31647
7 4 1.14708 0.920894 2.09119 5.10743
9 4 1.24686 -0.422304 4.69065 1.86353
10 4 1.60781 0.372093 4.30644 7.31615
242 1 -0.676458 3.2936 0.584475 2.89345
21 4 0.808633 5.74105 1.46597 5.6585
26 4 1.26594 5.45717 4.55075 6.8884
41 1 -0.651264 0.754564 0.419044 5.99651
44 1 -0.66675 4.14965 3.77198 1.7531
55 3 -0.811344 1.11186 0.899791 1.07573
56 3 -0.843998 -0.36477 2.34832 4.32122
58 3 -0.78699 -1.75035 4.45071 2.76404
59 3 -0.831363 -0.0398458 3.36975 1.10913
243 2 0.159851 3.44574 1.7237 2.84851
61 3 -0.780314 1.19579 3.06768 6.2823
62 3 -0.852736 -0.624353 5.22379 6.42569
74 3 -0.790243 5.49457 0.393369 7.29962
78 3 -0.859426 0.74192 5.4181 2.67125
81 3 -0.777132 5.78223 2.98415 5.98138
84 3 -0.80825 2.99553 5.82697 4.14497
85 3 -0.832046 5.02397 5.78172 5.95211
113 2 0.110628 -1.45835 5.38447 3.98952
111 2 -0.00472518 2.27113 1.88708 4.0131
112 2 -0.0212 -0.962387 5.56263 0.529897
5 4 1.35853 0.371247 2.02738 0.227848
118 2 -0.0308404 4.53757 1.07611 4.32878
24 4 1.29593 4.95359 4.93586 0.439556
222 3 -0.787215 6.2497 1.35716 1.11943
223 2 -0.0992495 6.22703 0.867697 3.89463
141 2 0.194712 4.46764 2.69365 1.65969
142 2 0.190067 3.02201 3.93733 1.66115
143 2 0.189232 4.56617 4.30483 2.68781
220 4 1.01825 6.72519 0.241763 2.22281
135 2 0.244275 0.578529 0.594354 7.0986
82 3 -0.822993 1.51881 5.26651 7.92498
267 2 0.171267 -3.66096 6.26892 0.406547
244 2 0.12263 3.0248 0.174358 3.94263
138 2 0.172251 1.56067 0.744134 12.3912
8 4 1.2567 1.85377 2.68574 10.9737
13 4 1.23629 0.404794 4.95639 12.3105
229 2 -0.0378213 3.61064 6.37989 13.4966
20 4 1.29109 4.44144 2.89803 9.20296
23 4 1.2533 6.9386 2.93318 11.1909
99 3 -0.821677 7.9036 1.25761 8.40017
226 4 0.913724 3.52429 6.38263 15.1746
42 1 -0.658868 2.32239 1.5448 12.4098
57 3 -0.822094 0.43769 2.07572 10.382
63 3 -0.86395 -0.340257 3.91674 13.3556
64 3 -0.830473 1.83622 4.3766 11.9884
65 3 -0.827254 -2.38818 6.30293 9.54181
66 3 -0.878427 -0.515562 5.3899 11.0602
73 3 -0.829271 3.12022 2.56812 9.96057
75 3 -0.860841 5.69766 2.92454 10.2184
76 3 -0.841993 7.08537 1.60524 12.0438
80 3 -0.793973 4.48281 4.12681 8.18656
123 2 -0.0526674 5.1666 6.00262 10.8331
137 2 0.172914 3.33331 1.13195 12.0166
114 2 -0.0295307 0.789442 6.32667 13.2582
248 2 0.169683 3.52164 3.94964 15.8902
124 2 0.0582283 3.25893 5.21513 12.0746
136 2 0.177232 2.5007 2.16767 13.451
179 4 1.25595 7.24098 2.43971 15.6814
183 1 -0.669144 5.86945 1.49881 14.809
77 3 -0.747637 6.92659 4.16882 15.6921
60 3 -0.846417 -0.474363 3.49288 8.35773
196 2 0.181042 5.35728 2.21835 14.2122
117 2 0.110626 4.85345 1.45918 8.31862
227 3 -0.835922 4.90589 5.95077 15.7567
195 2 0.287801 6.39802 0.598733 14.2062
245 1 -0.679701 2.99421 3.21647 15.1884
246 2 0.158066 2.64565 3.7133 14.2363
247 2 0.171234 3.73742 2.39459 14.9381
262 3 -0.829843 0.332272 2.03789 15.369
228 2 -0.0227955 2.42613 5.11969 15.2886
14 4 1.56157 -0.990419 6.61829 10.2676
29 4 0.954947 3.65172 6.58993 11.1706
266 2 0.0937312 -1.59069 4.8253 15.8203
121 2 -0.0213482 6.74854 4.2489 12.2576
197 2 0.192265 5.29069 1.16496 15.7809
86 3 -0.829045 2.73407 6.60447 9.92363
27 4 1.36733 1.78263 6.64227 8.69417
15 4 1.03115 -5.17511 10.1581 0.0284757
3 3 -0.786448 -5.74092 11.5133 0.967686
268 2 0.23355 -4.38982 8.65074 1.56036
16 4 1.50821 -3.09373 7.97488 6.56486
17 4 1.24248 -4.49623 9.87467 4.72632
154 2 0.17109 1.07727 9.54171 7.27848
161 2 0.189033 -0.983851 10.0789 0.503756
31 4 1.21456 -2.0736 10.2075 2.97162
33 4 1.16018 -0.0589194 11.071 5.50767
48 1 -0.655185 -0.99241 8.88163 2.07454
49 1 -0.633345 0.1378 9.46859 6.57262
272 2 0.175223 0.800239 10.3225 0.346656
68 3 -0.863699 -1.87127 7.40807 5.65391
28 4 1.28497 4.21536 6.56153 4.91333
70 3 -0.825578 -4.22226 8.71352 5.73358
79 3 -0.847523 0.567658 7.09686 4.86674
87 3 -0.815838 1.97382 7.83524 2.62123
30 4 1.02412 2.31539 8.2206 1.10573
89 3 -0.763424 -2.06047 11.6222 1.88737
90 3 -0.812149 -3.55359 9.73837 3.3139
93 3 -0.81485 -1.01775 10.6692 4.29481
94 3 -0.808952 -0.539052 12.1423 6.54333
115 2 -0.0378913 -4.03097 11.2986 5.50983
147 2 0.185 2.05724 7.52188 6.52288
151 2 0.185696 0.00644404 9.38375 1.56015
152 2 0.161086 -1.62503 8.42768 1.25377
153 2 0.194907 -0.817708 8.20562 3.01825
251 1 -0.670879 -5.32591 8.5341 0.951386
155 2 0.280244 0.23433 8.54924 5.85781
156 2 0.29817 -0.926382 9.3979 7.12251
46 1 -0.671346 2.59995 7.95251 7.48116
148 2 0.167353 3.69692 7.67343 7.58859
265 2 0.193436 -4.25197 12.8225 2.43286
19 4 1.3601 -1.33312 12.8326 7.85669
1 4 1.29541 -6.53924 12.526 1.9059
69 3 -0.802784 -6.01343 9.93971 4.32228
91 3 -0.820738 -2.41525 9.32328 7.81287
271 2 0.17154 1.75564 10.434 1.98743
47 1 -0.667403 1.77714 10.0502 0.958638
25 4 1.42154 1.58706 6.55171 3.57003
122 2 0.0109183 3.57705 7.92472 5.791
149 2 0.144146 2.38553 9.10864 7.61191
133 2 0.140556 -6.54265 12.8413 5.82168
270 2 0.183806 0.588865 12.115 1.71841
159 2 0.193034 1.10828 9.70949 11.5158
18 4 1.22621 -1.93069 8.33392 12.8931
22 4 1.18641 -0.668922 12.9684 12.183
32 4 0.95538 -2.25361 10.2485 9.042
35 4 1.18736 -1.21026 10.6867 14.5043
50 1 -0.650687 2.00582 10.3963 11.7131
160 2 0.153101 1.09091 10.8936 14.7839
158 2 0.241033 1.60032 11.4479 12.0722
51 1 -0.633025 0.252588 11.2309 15.5242
162 2 0.227345 0.167233 12.3564 15.638
72 3 -0.828669 -1.46252 7.96864 11.3902
83 3 -0.783009 0.116057 7.14801 9.21939
88 3 -0.785431 2.93055 7.71824 15.8671
92 3 -0.802013 -1.20242 11.3939 8.96965
95 3 -0.797621 3.64879 7.95372 12.0081
96 3 -0.794265 -0.889657 9.08144 13.7778
97 3 -0.794685 -1.49396 12.0601 13.2221
98 3 -0.784038 -2.5003 10.7594 15.4083
116 2 -0.046248 -3.40839 9.14672 12.6924
120 2 0.0297379 -0.695721 12.1967 10.6843
126 2 0.0711295 -1.91684 9.20631 10.3753
127 2 -0.0468747 -3.81161 10.752 9.42328
128 2 0.0402822 2.14943 9.85413 13.5357
139 2 0.164998 -4.3952 10.995 13.6586
187 3 -0.79573 0.91779 12.955 12.651
43 1 -0.662525 -5.41795 10.9178 14.1418
71 3 -0.846104 -2.37068 7.02219 13.6579
140 2 0.180322 -5.63558 11.8355 14.7133
235 2 0.163432 11.5676 1.3061 2.88034
37 4 1.27457 12.9885 1.99468 5.6344
221 1 -0.651448 8.60957 0.273993 2.04274
39 4 1.26378 11.2397 3.94265 7.48412
45 1 -0.660942 7.13351 5.12681 7.57796
54 1 -0.662012 10.5205 5.38327 6.55
101 3 -0.815263 13.9003 2.96946 4.79713
102 3 -0.850864 13.8235 1.08148 6.59441
250 2 0.180121 11.9338 4.65367 0.458325
4 4 1.45879 14.996 2.72619 3.67788
106 3 -0.789745 11.8742 2.93601 6.37502
232 3 -0.802769 14.429 1.4913 2.72362
129 2 -0.00842532 11.9848 1.07481 4.53978
130 2 0.0746833 7.65181 5.85509 3.35369
169 2 0.249807 10.9994 6.37438 6.78828
207 4 1.24693 14.4695 0.326107 7.83836
146 2 0.193647 7.84856 4.44923 7.05703
103 3 -0.798855 5.89096 6.18144 1.21274
145 2 0.158414 7.36935 6.24593 7.38403
170 2 0.178357 9.4157 5.34081 6.81183
171 2 0.189239 10.7804 4.96578 5.45187
225 2 0.115101 8.80617 0.522978 3.21792
224 2 0.177192 9.0413 1.07162 1.38943
231 1 -0.648771 11.7726 0.229141 2.77737
273 2 0.180715 9.33075 0.202628 0.0969628
11 4 1.48473 13.059 6.02134 8.74315
36 4 1.24569 8.99666 2.25869 9.22474
52 1 -0.689425 10.2968 1.21043 10.0875
186 1 -0.665773 8.82034 6.15137 9.86454
100 3 -0.801482 8.30757 3.27637 10.3817
107 3 -0.789432 12.7101 4.40815 8.65194
110 2 0.0102344 14.7519 2.79914 10.4789
105 3 -0.795935 9.93635 3.29466 8.14665
202 2 0.172834 14.0062 3.7096 11.8234
163 2 0.176088 11.1359 2.00546 10.1445
144 2 0.194458 7.04349 4.89791 8.7352
165 2 0.231629 9.94449 0.805367 11.0756
172 4 0.999875 16.1065 2.61629 14.1679
173 1 -0.662027 14.3795 1.6926 13.6759
174 2 0.062673 14.4365 2.94138 14.9724
175 2 0.0592569 15.6567 1.20306 13.0235
176 2 0.167885 13.8598 2.23922 12.8778
184 1 -0.658062 10.9617 0.662469 15.0693
178 4 1.10899 13.9335 5.74588 14.3687
180 4 1.24546 9.88992 1.58895 13.881
181 4 1.30155 11.8601 3.98023 12.6702
205 2 0.203378 9.22065 5.15999 9.11705
185 1 -0.686971 13.0581 3.23796 11.3086
177 2 0.175278 13.7208 0.840721 14.0923
189 3 -0.777309 10.808 2.79762 13.2885
190 3 -0.802927 12.8158 4.73603 13.7555
192 3 -0.763518 11.1102 5.08758 11.7305
263 3 -0.845918 15.577 1.01732 8.69487
199 2 0.173557 11.9609 1.19628 14.9621
200 2 0.267531 12.8562 3.62254 10.2188
201 2 0.124221 12.8977 2.09896 11.5485
182 4 1.02492 10.5621 6.2237 10.6024
204 2 0.168597 8.23047 5.76705 10.7453
6 4 1.32517 16.0381 2.35191 9.3862
164 2 0.154056 10.3966 0.391481 9.23915
188 3 -0.75985 8.61372 2.09225 14.724
249 1 -0.645848 14.066 5.66186 16.0516
237 1 -0.668663 7.75062 10.6967 0.173139
257 2 0.158755 2.33971 10.9715 5.85662
167 2 0.172494 8.89989 7.07153 1.83891
53 1 -0.645377 8.23918 7.33349 2.67975
104 3 -0.789864 5.16134 7.1535 3.85553
134 2 0.247777 8.42772 12.6953 5.46272
125 2 -0.00944633 3.97307 8.37229 0.815038
2 3 -0.82117 9.32754 11.7866 3.13735
166 2 0.0314642 7.3248 8.53641 2.06848
168 2 0.169082 8.89749 7.70984 3.53288
206 4 1.22369 9.32321 10.3809 3.85789
215 2 0.162267 4.94886 9.60844 6.98421
208 4 1.02964 7.41474 10.3722 6.64907
209 1 -0.664496 5.85962 9.18903 6.47797
255 2 0.150005 1.61427 12.5205 4.98746
211 3 -0.767279 8.40852 10.3397 5.13367
212 3 -0.7672 6.68925 11.7902 7.29092
213 2 -0.0112923 8.97652 9.1741 2.7066
254 1 -0.678825 1.74339 11.3948 5.03264
216 2 0.160257 6.17969 8.25624 6.95547
217 2 0.180139 5.70786 9.03182 5.33656
230 4 1.09948 5.35446 12.8695 2.599
234 2 0.185519 3.16243 12.7158 1.67722
253 2 0.154247 11.5074 7.64138 0.230441
238 3 -0.792758 5.42968 12.0943 1.09009
240 2 0.168113 8.05037 10.9622 1.25345
38 4 0.966091 6.3458 6.95343 2.46496
233 2 0.155227 2.83369 12.4003 3.66321
258 1 -0.695958 5.78035 11.7157 4.08908
259 2 0.166554 6.58995 11.0245 3.64565
260 2 0.157904 4.81466 11.2182 4.30107
261 2 0.223189 6.21782 12.2654 4.93941
274 2 0.199575 9.50277 9.60744 7.70546
150 2 0.149656 2.75872 10.4087 0.388518
252 2 0.151726 10.4573 8.67628 1.51989
256 2 0.150156 2.02139 10.9326 3.97623
239 2 0.0984941 7.03245 9.52679 0.0611419
67 3 -0.836249 13.0757 6.7471 7.2725
198 2 0.173462 2.61682 12.4514 14.6111
40 4 0.92241 5.92209 11.4907 12.9209
108 3 -0.839401 4.69135 10.6065 12.8154
109 3 -0.780903 6.63939 11.6211 14.3111
214 2 -0.0505913 4.89377 12.6989 8.90337
132 2 -0.0445662 6.88582 11.0506 11.6505
236 4 0.992835 7.33205 11.941 15.8866
203 2 0.163274 8.34992 6.93033 9.24635
131 2 -0.0218271 5.60355 13.0574 12.4133
193 2 0.0581133 11.3192 9.66496 15.12
218 2 0.125598 7.77601 8.7584 8.23918
194 2 0.00281063 9.44303 7.32232 11.3151
241 2 0.1726 9.88346 10.9953 15.4963
269 2 0.161316 10.5837 10.7866 13.4498
264 2 0.116653 8.76239 12.9772 15.7122
219 2 0.182261 8.43222 10.5683 8.86539
34 4 1.00253 3.55508 9.62049 12.4888
191 3 -0.780697 11.6663 6.81354 9.6142
157 2 0.120326 2.70845 10.4495 10.5719
210 1 -0.644787 8.49221 9.75091 8.0876
ITEM: TIMESTEP
100
ITEM: NUMBER OF ATOMS
274
ITEM: BOX BOUNDS xy xz yz pp pp pp
-8.3797999999999995e+00 1.8011331599999998e+01 -8.3797999999999995e+00
0.0000000000000000e+00 1.3273200000000001e+01 1.1924315999999990e+00
0.0000000000000000e+00 1.6075500000000002e+01 4.3120000000000003e-01
ITEM: ATOMS id type q x y z
119 2 -0.00181013 7.42461 1.10155 5.22301
12 4 1.32064 -0.871052 6.39482 5.25806
7 4 1.13816 0.844813 2.12147 5.06202
9 4 1.25507 -0.461299 4.67793 1.79325
10 4 1.60111 0.426133 4.34035 7.17429
242 1 -0.693105 3.34969 0.521651 3.04902
21 4 0.835739 5.83971 1.36761 5.66527
26 4 1.19091 5.42782 4.38288 6.89951
41 1 -0.664128 0.751616 0.458154 5.99429
44 1 -0.683536 3.97599 4.03271 1.97837
55 3 -0.838047 1.10822 0.878547 1.20676
56 3 -0.853153 -0.509042 2.28525 4.3223
58 3 -0.80444 -1.71794 4.46557 2.74176
59 3 -0.861994 0.0981534 3.38659 1.06159
243 2 0.165031 3.5799 1.58174 3.01643
61 3 -0.808191 1.14625 3.27855 6.08923
62 3 -0.859856 -0.539353 5.37749 6.41711
74 3 -0.780304 5.60945 0.280812 7.30352
78 3 -0.878048 0.70705 5.35103 2.63934
81 3 -0.78944 5.60752 2.82302 5.95155
84 3 -0.817261 2.97479 5.9342 4.09143
85 3 -0.785939 4.80643 5.62734 5.78461
113 2 0.11366 -1.43275 5.40425 3.96906
111 2 0.00193047 2.24003 1.85919 4.04143
112 2 -0.0143439 -0.826103 5.96884 0.742516
5 4 1.39228 0.501081 2.04348 0.322055
118 2 -0.0175144 4.678 0.938521 4.46254
24 4 1.25331 4.72564 4.87765 0.432065
222 3 -0.764015 6.26371 1.47385 1.06242
223 2 -0.0806164 6.3275 0.772837 3.82284
141 2 0.17962 4.28884 2.99906 1.96542
142 2 0.190416 2.79636 4.15442 1.86801
143 2 0.225506 4.4473 4.63023 2.77241
220 4 1.0153 6.8149 0.369645 2.11919
135 2 0.221711 0.813216 0.739725 7.08631
25 4 1.45787 1.58287 6.4192 3.44688
267 2 0.176341 -3.5067 6.25395 0.253882
248 2 0.161134 2.23552 3.53512 0.0839027
138 2 0.151645 1.14398 0.881856 12.6982
8 4 1.18167 1.85388 2.65722 11.1798
13 4 1.27665 0.354839 4.93903 12.4195
229 2 -0.0348483 3.49265 6.44312 13.3328
20 4 1.31716 4.56681 2.77568 9.30843
23 4 1.28974 7.001 2.96811 11.2072
99 3 -0.810634 7.86071 1.15483 8.55349
226 4 0.936249 3.41128 6.33994 15.1058
42 1 -0.662447 2.12074 1.52951 12.6021
57 3 -0.781656 0.291049 2.25983 10.5097
63 3 -0.85186 -0.360201 3.8931 13.3969
64 3 -0.828378 1.77977 4.41834 11.9399
65 3 -0.863498 -2.28658 6.24113 9.57182
66 3 -0.84995 -0.683705 5.36745 11.3729
73 3 -0.769178 3.23369 2.39754 10.0115
75 3 -0.859297 5.6703 2.99359 10.3648
76 3 -0.843607 7.00425 1.57744 11.9168
80 3 -0.759076 4.55251 4.04681 8.35313
86 3 -0.79572 2.81747 6.58478 9.99181
137 2 0.167506 3.03146 0.934015 12.1923
114 2 -0.0319169 0.746556 6.33402 13.3682
197 2 0.164183 5.26649 1.32948 15.4621
124 2 0.0648047 3.28209 5.18567 11.9936
136 2 0.186756 2.46827 2.13964 13.6508
179 4 1.27051 7.32392 2.559 15.4714
183 1 -0.676167 5.90499 1.68572 14.5684
77 3 -0.742447 6.91366 4.1019 15.5656
60 3 -0.81927 -0.409981 3.5205 8.29467
196 2 0.174301 5.42883 2.47428 13.9329
117 2 0.109168 5.06407 1.37395 8.42275
227 3 -0.844515 4.76874 5.84833 15.5797
195 2 0.25187 6.1723 0.712406 13.9914
245 1 -0.652469 3.09185 3.25571 15.2354
246 2 0.151679 2.66473 3.7793 14.3454
247 2 0.156628 4.10177 2.57874 14.961
262 3 -0.79905 0.612997 2.09494 15.3331
228 2 -0.0202691 2.22107 5.12575 15.3163
14 4 1.46792 -0.94374 6.58978 10.2856
29 4 0.906567 3.79109 6.61725 11.2608
266 2 0.0718104 -1.55289 4.6399 15.4992
27 4 1.4229 1.68319 6.53784 8.89035
121 2 -0.0132113 6.85395 4.10237 12.4421
82 3 -0.784941 1.59262 5.15464 8.04679
270 2 0.170132 0.414776 12.1231 1.39296
3 3 -0.767842 -5.82261 11.255 1.05798
268 2 0.226373 -4.81355 8.63327 1.92224
16 4 1.46345 -3.18724 7.91844 6.52661
17 4 1.23904 -4.48557 9.83957 4.74471
154 2 0.165299 0.825269 9.32197 7.5504
161 2 0.186775 -1.03393 10.13 0.340277
31 4 1.2612 -1.98424 10.3304 3.00322
33 4 1.09665 0.115935 10.9842 5.56706
48 1 -0.649036 -1.09801 8.93841 1.98729
49 1 -0.663016 0.0437818 9.37307 6.65277
272 2 0.174588 0.809398 10.2791 0.271465
68 3 -0.852461 -1.90626 7.51317 5.57768
28 4 1.23055 4.18549 6.63711 4.84201
70 3 -0.815479 -4.39294 8.57053 5.66106
79 3 -0.826017 0.552556 7.06328 4.84113
87 3 -0.796667 1.933 7.71838 2.5172
30 4 0.951534 2.55603 8.29453 1.14396
89 3 -0.785644 -2.1329 11.7467 2.00595
90 3 -0.82785 -3.3625 9.79644 3.55588
93 3 -0.781265 -0.852345 10.7064 4.22136
94 3 -0.818883 -0.384711 12.2087 6.50616
115 2 -0.0190687 -4.1197 11.1779 5.74025
147 2 0.224808 1.77941 7.50548 6.5214
151 2 0.197803 -0.0906744 9.34547 1.55465
152 2 0.173227 -1.87777 8.71151 1.18359
153 2 0.189183 -1.06297 8.13849 2.87701
251 1 -0.655867 -5.40662 8.47132 0.995042
155 2 0.273122 0.214559 8.55717 5.87013
156 2 0.273852 -1.07729 9.29184 7.08864
46 1 -0.655974 2.361 7.78191 7.45443
148 2 0.167754 3.45973 7.4558 7.53957
133 2 0.176317 -6.73141 12.7029 5.57776
19 4 1.36538 -1.30448 12.6425 7.85862
1 4 1.29457 -6.57642 12.5669 2.06803
69 3 -0.809617 -6.05037 10.1966 4.32882
91 3 -0.849153 -2.59216 9.28207 7.79916
122 2 0.00650735 3.55142 7.85183 5.85355
47 1 -0.65058 1.77467 9.97326 0.905387
149 2 0.146076 2.13615 8.85804 7.8205
244 2 0.141048 -5.32603 12.8362 4.05255
253 2 0.163571 -4.96703 7.68018 0.294083
265 2 0.204258 -4.26492 12.6926 2.50909
271 2 0.165197 1.59159 10.1652 2.03925
159 2 0.204416 1.00612 9.82919 12.0211
18 4 1.22295 -1.97396 8.3204 12.8798
22 4 1.21259 -0.594061 13.0371 12.0434
32 4 0.969703 -2.37992 10.1506 9.0237
35 4 1.2297 -1.25258 10.8006 14.3184
50 1 -0.663603 1.89424 10.5784 11.878
160 2 0.159563 1.09545 11.0269 14.754
158 2 0.237686 1.58444 11.7016 12.0964
51 1 -0.641997 0.218927 11.28 15.4581
162 2 0.203019 0.0998806 12.3758 15.7476
72 3 -0.800038 -1.32839 8.12503 11.4913
83 3 -0.860391 0.33303 7.14857 9.37897
88 3 -0.733342 2.93989 7.66478 15.8033
92 3 -0.84632 -1.54994 11.4834 9.15688
95 3 -0.786351 3.61639 8.0967 12.008
96 3 -0.780705 -0.946938 9.2491 13.7206
97 3 -0.828074 -1.25684 12.0248 13.1209
98 3 -0.771311 -2.62752 10.6757 15.309
116 2 -0.0413242 -3.24352 9.34836 12.6139
120 2 0.0785734 -0.832353 12.2663 10.5583
126 2 0.0893813 -1.73347 9.07621 10.2043
127 2 -0.0331658 -3.84602 10.5958 9.81198
128 2 0.0375411 2.33348 10.0311 13.6824
139 2 0.170037 -4.18609 11.0716 13.6632
140 2 0.169713 -5.51142 12.0476 14.5489
43 1 -0.647146 -5.25603 11.0865 14.0479
71 3 -0.823169 -2.47124 6.94478 13.6052
157 2 0.122135 2.36634 10.5757 10.6775
269 2 0.146048 -5.93041 11.0431 13.1018
15 4 1.0463 -4.11636 10.6104 16.073
235 2 0.166995 11.5158 1.39405 3.05598
37 4 1.29815 13.0179 2.06431 5.70663
221 1 -0.674478 8.69756 0.216273 2.11314
39 4 1.26578 11.2497 3.93999 7.39144
45 1 -0.666257 7.03842 4.96752 7.61079
54 1 -0.674053 10.4965 5.49243 6.5967
101 3 -0.813652 13.9596 3.05084 4.8457
102 3 -0.85834 13.7141 1.16836 6.79297
250 2 0.187087 12.0959 4.86765 0.52709
4 4 1.45619 14.9535 2.73444 3.64952
106 3 -0.809696 11.8472 2.90944 6.29488
232 3 -0.796653 14.2838 1.50251 2.74267
129 2 -0.00311086 12.0994 1.04756 4.56088
130 2 0.0282078 7.60755 5.73119 3.33295
169 2 0.197942 10.6635 6.27599 7.37669
207 4 1.22712 14.5665 0.310559 7.80575
146 2 0.158599 7.78183 4.34593 6.93174
103 3 -0.789805 5.66655 6.02422 1.28799
145 2 0.148111 7.15994 6.13891 7.52138
170 2 0.166023 9.41725 5.24161 6.44454
171 2 0.211941 11.0363 5.71421 5.65318
273 2 0.177304 9.44765 0.365403 0.138693
224 2 0.165563 9.1018 1.19757 1.76405
231 1 -0.673535 11.6705 0.30795 2.79909
11 4 1.50679 13.1149 6.0228 8.88309
36 4 1.2761 8.97764 2.28909 9.07875
52 1 -0.676767 10.2619 1.1234 9.71742
186 1 -0.665212 8.87938 6.1049 9.86201
100 3 -0.814564 8.27329 3.28942 10.3341
107 3 -0.791199 12.5241 4.42936 8.74089
110 2 0.0168079 14.4737 2.94455 10.1149
105 3 -0.804053 9.95538 3.20378 8.11399
202 2 0.183152 13.8787 3.76164 11.9323
163 2 0.183398 11.2523 1.59479 9.63564
144 2 0.2094 7.00471 4.62085 8.72966
165 2 0.230247 9.97589 0.841139 10.7758
172 4 0.965969 16.1412 2.51738 14.1492
173 1 -0.639691 14.3872 1.67736 13.7756
174 2 0.0770486 14.4539 2.58738 15.1353
175 2 0.0165882 15.908 1.09796 12.9534
176 2 0.170905 13.7454 2.24996 12.9124
184 1 -0.664955 11.0584 0.780707 15.113
178 4 1.0775 13.9181 5.57228 14.3459
180 4 1.2971 9.97907 1.69809 13.9042
181 4 1.35776 11.6874 3.99466 12.6657
205 2 0.201868 9.2281 5.17057 9.12646
185 1 -0.690842 12.9742 3.30072 11.3117
177 2 0.170576 13.7379 0.739232 14.1669
189 3 -0.818053 10.9113 2.76249 13.1624
190 3 -0.79176 12.7295 4.56042 13.8081
192 3 -0.781715 10.8476 5.22504 11.9266
263 3 -0.855111 15.6365 1.07783 8.7216
199 2 0.182345 12.0955 1.17681 15.0544
200 2 0.271468 12.7671 3.74485 10.2786
201 2 0.138958 12.8998 2.16285 11.3455
182 4 1.02824 10.6167 6.1672 10.6282
204 2 0.172094 8.06601 5.83711 10.6255
6 4 1.30698 15.969 2.42165 9.38197
249 1 -0.64502 14.1939 5.653 16.0605
188 3 -0.802827 8.77222 2.27013 14.6862
187 3 -0.7913 9.36743 0.460923 12.4601
123 2 -0.0467368 5.40175 6.31373 10.8121
237 1 -0.653828 7.83044 10.3926 0.0160159
257 2 0.128659 2.21221 10.3946 5.95365
167 2 0.175267 8.96456 6.99942 2.06166
53 1 -0.64882 8.13542 7.39192 2.66941
104 3 -0.805007 5.26725 7.32763 3.68442
134 2 0.265591 8.24381 12.8468 5.71272
125 2 -0.00740506 4.24994 8.26081 1.27705
225 2 0.171802 0.701758 12.7792 3.15891
166 2 0.0731126 7.39072 8.51585 1.98136
168 2 0.148875 8.39394 7.65542 3.74453
206 4 1.27216 9.26807 10.5218 3.98704
215 2 0.155932 5.09868 9.25771 7.02277
208 4 1.04794 7.37755 10.31 6.67721
209 1 -0.684399 5.86047 9.16875 6.25985
255 2 0.148619 2.36536 12.2336 5.29646
211 3 -0.778205 8.36819 10.5629 5.26407
212 3 -0.782373 6.72286 11.7808 7.09219
213 2 -0.0053291 8.67413 9.20423 3.0624
254 1 -0.667359 1.94365 11.1678 5.02587
216 2 0.155673 6.31254 8.14847 6.23417
217 2 0.182443 5.46836 9.45223 5.25789
230 4 1.08216 5.23794 12.8658 2.50865
234 2 0.173802 3.02397 12.8353 1.74869
67 3 -0.82271 13.122 6.646 7.3056
238 3 -0.775116 5.68804 12.1057 1.0243
240 2 0.165503 8.07472 10.4077 1.08567
38 4 1.00796 6.27856 6.75694 2.57378
233 2 0.158523 2.81763 12.4871 3.6319
258 1 -0.645828 6.00064 11.8319 3.90728
259 2 0.166336 6.59997 10.9346 3.48562
260 2 0.116955 4.85543 11.4767 4.24506
261 2 0.23132 6.4974 12.3994 4.70598
274 2 0.176965 9.31437 9.0508 7.62885
150 2 0.144314 2.74639 10.5354 0.545317
252 2 0.160226 10.3076 8.45702 1.13512
256 2 0.165892 2.18072 10.7611 4.05206
2 3 -0.824017 9.36177 11.861 3.21559
198 2 0.154073 2.58376 12.5453 14.6063
40 4 0.91707 6.019 11.5389 12.9798
108 3 -0.8007 4.78584 10.6618 12.6584
109 3 -0.795258 6.50024 11.5598 14.4403
214 2 -0.0388417 4.94972 12.6576 8.8821
132 2 -0.0485193 7.2972 11.1594 12.0868
236 4 0.994227 7.47518 11.8824 15.7967
203 2 0.142496 8.56727 7.02636 9.24262
131 2 -0.0181184 5.75337 13.1499 12.4036
193 2 0.0519365 11.4113 9.68183 14.9749
218 2 0.135346 7.78327 9.12171 8.77737
194 2 0.00820277 9.72487 7.57833 10.9435
241 2 0.17074 9.99802 11.0081 15.359
239 2 0.110808 8.14748 9.80712 15.8453
264 2 0.0547015 9.01651 12.5548 15.2401
219 2 0.176319 8.81105 10.7297 8.60499
34 4 0.995985 3.48917 9.6774 12.395
191 3 -0.817707 11.9806 6.73966 9.8027
210 1 -0.657267 8.51483 9.68838 8.14704
164 2 0.160393 1.84822 12.9994 9.08349
ITEM: TIMESTEP
200
ITEM: NUMBER OF ATOMS
274
ITEM: BOX BOUNDS xy xz yz pp pp pp
-8.3797999999999995e+00 1.8008763200000001e+01 -8.3797999999999995e+00
0.0000000000000000e+00 1.3273200000000001e+01 1.1898632000000013e+00
0.0000000000000000e+00 1.6075500000000002e+01 4.3120000000000003e-01
ITEM: ATOMS id type q x y z
119 2 -0.0147449 7.51181 1.16188 5.25659
12 4 1.31236 -0.843319 6.34052 5.30598
7 4 1.08704 0.917227 2.14847 5.01029
9 4 1.25547 -0.404628 4.57202 1.85269
10 4 1.58882 0.379418 4.33853 7.2453
242 1 -0.673525 3.36556 0.251241 3.22514
21 4 0.822888 5.84737 1.41239 5.66896
26 4 1.28734 5.28879 4.24728 6.84888
41 1 -0.66782 0.671982 0.673726 6.13881
44 1 -0.674051 3.80273 3.78416 1.82211
55 3 -0.820068 1.41208 0.95784 1.17808
56 3 -0.798463 -0.42395 2.2978 3.9774
58 3 -0.796146 -1.77985 4.54249 2.70226
59 3 -0.851063 0.014889 3.21241 0.981782
243 2 0.149862 3.75352 1.29759 3.10512
61 3 -0.790965 1.13086 3.33278 5.97901
62 3 -0.877226 -0.46875 5.42855 6.5205
74 3 -0.791653 5.6631 0.344969 7.30667
78 3 -0.887973 0.750253 5.26276 2.59723
81 3 -0.821917 5.64506 2.91874 5.9869
84 3 -0.812995 2.93529 5.86303 3.96744
85 3 -0.785441 4.65537 5.50734 5.98282
113 2 0.110508 -1.46019 5.33698 4.02439
111 2 -0.00580072 2.42654 1.77853 4.19704
112 2 -0.0187962 -0.883184 5.49704 0.525496
5 4 1.34314 0.612512 1.99992 0.245914
118 2 -0.0166936 4.48368 0.887299 4.70427
24 4 1.29341 4.7507 4.88028 0.568151
222 3 -0.793528 6.35498 1.44477 0.97716
223 2 -0.0897557 6.26452 0.939879 3.8377
141 2 0.180408 3.63496 2.7192 1.44323
142 2 0.227797 2.84304 4.37109 1.96348
143 2 0.184888 4.39349 3.81078 2.7552
220 4 1.03843 6.80713 0.435388 2.14308
135 2 0.235509 0.603163 0.966941 7.22008
25 4 1.41472 1.52426 6.46562 3.34451
267 2 0.18147 -3.66959 6.19446 0.457377
28 4 1.20353 4.07712 6.53975 4.87473
138 2 0.15691 1.34003 0.937466 12.7156
8 4 1.27356 1.84801 2.59655 11.1783
13 4 1.2487 0.390866 4.96105 12.6215
229 2 -0.0585788 3.55524 6.52567 13.2831
20 4 1.26764 4.50563 2.71918 9.3692
23 4 1.26424 6.95037 2.89619 11.2034
99 3 -0.811207 8.00037 1.15873 8.31781
226 4 0.885517 3.43845 6.36825 15.088
42 1 -0.666138 2.28877 1.56357 12.635
57 3 -0.82696 0.408523 2.29176 10.4866
63 3 -0.881113 -0.292957 3.9056 13.5786
64 3 -0.793509 1.83548 4.34761 12.1895
65 3 -0.849548 -2.32876 6.15676 9.53891
66 3 -0.825455 -0.407186 5.36421 11.3587
73 3 -0.79169 3.07818 2.48979 10.1732
75 3 -0.853601 5.57658 3.18791 10.4395
76 3 -0.850353 7.00105 1.5104 12.022
80 3 -0.755239 4.37165 3.81924 8.27956
27 4 1.3784 1.70707 6.55814 8.79753
137 2 0.156244 3.1677 0.954363 12.1999
114 2 -0.0471669 0.693059 6.36923 13.4622
197 2 0.171646 5.45078 1.25867 15.8526
124 2 0.120618 2.87282 5.44516 11.6709
136 2 0.193405 2.63631 2.15841 13.6397
179 4 1.31619 7.35337 2.56301 15.5567
183 1 -0.658679 5.86632 1.66765 14.7766
77 3 -0.765562 6.87686 4.11416 15.7423
60 3 -0.831302 -0.518066 3.45816 8.26314
196 2 0.174178 5.12014 2.18283 14.1274
117 2 0.0708781 5.05998 1.33333 8.55717
227 3 -0.832859 4.77451 5.92724 15.7723
195 2 0.249163 6.41065 0.818563 14.1908
245 1 -0.673116 3.16754 3.28197 15.2318
246 2 0.170492 2.77263 3.61993 14.2157
247 2 0.175721 4.12473 2.57948 15.1116
262 3 -0.810618 0.613227 1.84854 15.1249
228 2 -0.0319771 2.32285 5.12498 15.0816
14 4 1.51404 -1.04706 6.64792 10.3877
82 3 -0.777283 1.55908 5.0911 8.14237
266 2 0.0837882 -1.46443 4.81925 15.7429
248 2 0.174235 3.31465 4.14191 16.026
253 2 0.180067 -4.89367 7.81661 0.0934679
3 3 -0.804686 -6.05779 11.3669 1.02594
268 2 0.183071 -5.08839 8.87329 1.67876
16 4 1.47106 -3.22847 7.91613 6.57202
17 4 1.25795 -4.5356 9.90352 4.90434
154 2 0.178303 0.887213 9.32784 7.60727
161 2 0.197823 -1.09323 10.1111 0.281129
31 4 1.29315 -1.92079 10.3751 3.15955
33 4 1.11669 0.255981 10.8746 5.61875
48 1 -0.638802 -1.22792 8.99562 2.03382
49 1 -0.6488 0.103843 9.27447 6.75541
272 2 0.17152 0.710011 10.2742 0.359805
68 3 -0.836054 -1.94371 7.4434 5.65311
251 1 -0.675012 -5.48805 8.57568 0.608914
70 3 -0.814683 -4.42431 8.45423 5.61945
79 3 -0.83765 0.451097 7.08973 4.66509
87 3 -0.802505 1.80517 7.7334 2.25983
30 4 1.04071 2.32258 8.17775 0.834535
89 3 -0.782599 -1.9735 11.774 2.09329
90 3 -0.820978 -3.39463 10.155 3.76786
93 3 -0.790697 -0.841343 10.6381 4.28835
94 3 -0.809997 -0.247417 11.9425 6.61463
115 2 -0.0114188 -4.1413 11.0326 6.11253
147 2 0.19059 1.84812 7.39962 6.44851
151 2 0.18784 -0.0981892 9.43914 1.59974
152 2 0.171327 -2.01952 8.80417 1.20191
153 2 0.193921 -1.16298 8.142 2.83796
271 2 0.170396 1.56621 10.2413 2.12404
155 2 0.263077 0.188981 8.43435 5.9901
156 2 0.272048 -0.965504 9.33001 7.12218
46 1 -0.671383 2.38808 7.72767 7.41882
148 2 0.17284 3.48645 7.45508 7.38281
133 2 0.152101 -6.78489 12.901 5.90592
19 4 1.3481 -1.24456 12.5931 7.83983
1 4 1.29294 -6.53551 12.5404 2.06462
69 3 -0.856962 -5.91814 10.3389 4.34966
91 3 -0.823223 -2.75378 9.38752 7.70834
122 2 -0.00564284 3.33355 7.8732 5.69561
47 1 -0.638754 1.70971 10.0124 0.957538
149 2 0.153522 2.20191 8.84149 7.6643
265 2 0.19897 -4.35292 12.1869 2.5746
244 2 0.145537 -5.34954 12.8722 4.29173
159 2 0.207829 1.03851 9.68954 12.0907
18 4 1.27341 -1.95143 8.2912 12.8758
22 4 1.2573 -0.622581 12.9773 12.0824
32 4 0.928959 -2.59372 10.3265 8.96264
35 4 1.29752 -1.32763 10.8896 14.2329
50 1 -0.680212 1.86787 10.4065 11.9468
160 2 0.169086 1.14976 10.6787 14.7868
158 2 0.240156 1.63424 11.5038 12.3244
51 1 -0.641465 0.257983 11.0982 15.3471
162 2 0.203968 0.342249 12.1884 15.4809
72 3 -0.846738 -1.44794 7.93043 11.4249
83 3 -0.789368 0.245691 7.08235 9.42937
88 3 -0.800458 2.84475 7.8198 15.6585
92 3 -0.830336 -1.42573 11.4211 9.12567
95 3 -0.808734 3.87981 8.23186 11.7718
96 3 -0.821926 -1.07864 9.35181 13.6544
97 3 -0.880344 -1.2199 12.0129 13.115
98 3 -0.78822 -2.63361 10.8795 15.3151
116 2 -0.0307703 -3.47494 8.91756 12.5973
120 2 0.0638422 -0.723017 12.2616 10.5616
126 2 0.0332148 -2.37455 9.28907 10.2549
127 2 -0.0584983 -4.06513 11.0635 9.38975
128 2 0.0283496 2.30035 9.48802 13.6415
139 2 0.152285 -4.56511 11.4568 13.4217
140 2 0.172504 -5.684 12.0036 14.741
43 1 -0.657044 -5.44773 11.1273 14.0491
71 3 -0.865693 -2.39329 6.99778 13.5948
157 2 0.148671 2.19769 10.4324 10.7527
15 4 1.05419 -4.09348 10.7641 16.0484
29 4 0.944929 3.86873 6.79646 11.1542
86 3 -0.79139 2.8826 6.73372 9.96552
235 2 0.172253 11.5005 1.36742 3.04627
37 4 1.2881 12.9881 2.14872 5.74672
221 1 -0.661087 8.67767 0.541587 2.0662
39 4 1.25855 11.1342 3.91404 7.39049
45 1 -0.65095 7.10614 4.73918 7.25311
54 1 -0.671459 10.6817 5.5248 6.53971
101 3 -0.839714 13.9376 3.06608 4.83158
102 3 -0.854646 13.7795 1.23598 6.82677
250 2 0.175746 12.0592 4.54543 0.371871
4 4 1.4358 14.8615 2.78837 3.5822
106 3 -0.831754 11.7829 2.89372 6.37622
232 3 -0.815397 14.1569 1.66236 2.66848
129 2 0.000300483 12.2387 1.07456 4.55026
130 2 0.0536284 7.72063 5.65704 3.0566
169 2 0.204403 10.7072 6.31505 7.32493
207 4 1.28447 14.5112 0.342067 7.85628
146 2 0.220241 7.69046 3.74676 7.0938
103 3 -0.795477 5.53105 6.0667 1.366
145 2 0.158108 7.48252 5.61012 6.58764
170 2 0.164618 9.64377 5.35954 6.14386
171 2 0.226905 11.3586 5.82339 5.7202
134 2 0.223207 16.489 0.249471 5.7437
224 2 0.185023 8.85559 1.21709 1.19467
231 1 -0.672634 11.7672 0.321585 2.79107
225 2 0.117992 8.8157 1.03765 3.16261
230 4 1.10854 13.7023 0.128667 2.39918
105 3 -0.815101 9.71347 3.25944 8.02847
234 2 0.167426 11.2649 0.185704 1.7891
11 4 1.48739 13.0734 5.98878 8.87203
36 4 1.34499 9.00255 2.19714 9.01104
52 1 -0.669757 10.385 1.04901 9.68359
186 1 -0.67556 9.06681 6.2752 9.84547
100 3 -0.839876 8.20549 2.85012 10.2815
107 3 -0.775478 12.5176 4.33547 8.70824
110 2 0.0185145 14.5898 2.88248 10.2201
121 2 -0.00747721 7.25805 4.18079 12.2488
202 2 0.160355 14.0418 3.68558 11.9161
163 2 0.17189 11.3791 1.52293 9.62643
144 2 0.175508 7.05712 4.98822 8.37252
165 2 0.236645 9.97536 0.766442 10.8055
172 4 1.03788 16.2779 2.47646 14.2538
173 1 -0.652344 14.5677 1.58061 13.7398
174 2 0.0473766 14.7321 2.453 15.2532