ITEM: TIMESTEP
0
ITEM: NUMBER OF ATOMS
274
ITEM: BOX BOUNDS xy xz yz pp pp pp
-8.3797999999999995e+00 1.8013900000000000e+01 -8.3797999999999995e+00
0.0000000000000000e+00 1.3273200000000001e+01 1.1950000000000001e+00
0.0000000000000000e+00 1.6075500000000002e+01 4.3120000000000003e-01
ITEM: ATOMS id type q x y z
119 2 -0.0213965 7.35725 1.57263 5.14972
5 4 1.27832 0.517768 1.92119 0.297227
7 4 1.16878 1.26329 2.15697 5.38329
9 4 1.30547 -0.18009 4.3815 1.97218
10 4 1.59218 0.282691 4.41153 7.33326
242 1 -0.672744 3.19903 0.44963 3.23371
21 4 0.789122 5.71806 1.87379 5.48021
26 4 1.26139 5.39153 4.91552 6.93932
41 1 -0.707435 2.06168 0.678004 6.28983
44 1 -0.682224 3.82269 3.71854 1.53513
55 3 -0.779624 1.14953 0.679784 1.23629
56 3 -0.828989 -0.0339598 1.91639 4.55729
58 3 -0.808618 -1.23033 3.58403 2.84419
59 3 -0.818637 0.707063 3.44561 1.05431
243 2 0.178778 3.08328 1.41604 2.68804
61 3 -0.782296 1.26435 3.3557 6.36949
62 3 -0.818742 -0.590712 5.30312 6.22391
74 3 -0.787381 5.48322 0.82428 7.03588
78 3 -0.851948 0.659864 5.44597 2.75082
81 3 -0.769897 5.6183 3.44465 5.86162
84 3 -0.772574 2.84668 5.82943 4.14268
85 3 -0.786392 4.71571 6.20213 6.17717
99 3 -0.838308 8.20051 1.2472 7.81447
111 2 0.00425382 2.66129 2.04908 4.32282
112 2 -0.0172739 -1.09605 5.28284 0.979583
244 2 0.152463 2.81553 0.415307 4.35013
118 2 -0.0134506 4.35886 1.42411 4.46352
133 2 0.21846 1.84878 0.857449 7.3679
134 2 0.167259 3.15396 0.515718 6.13229
223 2 -0.0950848 6.23908 1.11295 3.73173
141 2 0.17755 4.08679 2.64891 1.27877
142 2 0.246722 2.74842 3.95664 1.30844
143 2 0.204065 4.17818 4.07922 2.57078
220 4 1.01013 6.82519 0.295365 2.06189
222 3 -0.778077 6.12851 1.12279 0.908121
113 2 -0.000156869 -1.95885 6.3464 4.37579
24 4 1.27033 4.99984 4.67363 0.418657
248 2 0.163266 3.39208 3.38942 14.8333
8 4 1.3001 1.72025 2.39377 10.4527
13 4 1.26628 0.175405 4.40577 12.3541
14 4 1.52655 -1.44023 6.46994 10.7726
20 4 1.27299 4.63071 3.15762 9.25904
23 4 1.19711 7.00698 2.56723 11.1231
27 4 1.36781 1.39017 6.55584 9.36429
77 3 -0.756915 7.0364 4.01375 15.6102
42 1 -0.653744 2.04117 1.02858 11.7078
57 3 -0.799903 0.396411 1.72876 9.5003
63 3 -0.825855 -0.444467 3.54889 13.5537
64 3 -0.833877 1.16799 3.59998 11.5101
65 3 -0.825014 -2.57308 6.16823 9.60788
66 3 -0.833928 -1.09585 4.98747 11.5218
73 3 -0.80165 3.16134 2.75259 9.84172
75 3 -0.824147 5.70222 3.23786 10.4485
76 3 -0.840192 6.64996 0.964644 11.6035
80 3 -0.783986 4.65847 4.45414 8.35951
82 3 -0.826426 1.20694 5.40608 8.24512
86 3 -0.805639 2.57518 6.46056 10.4213
114 2 -0.0263517 1.00432 5.6208 13.0853
137 2 0.175006 3.16348 0.933939 11.927
124 2 -0.0513958 4.01029 5.74358 12.5214
136 2 0.154518 1.46135 1.25223 12.6629
179 4 1.24467 7.30544 2.29291 15.4065
183 1 -0.69261 5.859 1.61926 14.3925
60 3 -0.819413 -0.749779 3.48444 8.13961
195 2 0.243854 6.14074 1.31994 13.3091
196 2 0.172383 5.07447 2.44484 14.417
197 2 0.212255 5.59151 0.728958 15.0439
227 3 -0.834584 5.26994 6.09907 15.6783
228 2 -0.0502737 3.02235 6.66757 14.323
245 1 -0.670961 2.75083 2.4239 14.7472
246 2 0.178675 2.02133 2.42639 13.8432
247 2 0.177854 3.31977 1.4645 14.8736
117 2 0.0985921 5.07464 1.87228 8.18961
71 3 -0.799936 -2.71671 6.7254 14.2958
262 3 -0.791956 0.112714 2.22611 15.8515
1 4 1.27586 -6.47449 12.3304 1.99179
3 3 -0.784013 -5.77946 11.4739 0.757769
265 2 0.160022 -4.29719 12.4766 2.7214
16 4 1.53909 -2.87447 8.49799 7.05394
17 4 1.22777 -4.12539 10.2878 4.78168
271 2 0.170722 0.772786 10.4575 1.91462
30 4 1.08055 2.74238 8.63807 1.45904
31 4 1.26306 -1.88268 10.1589 2.85496
33 4 1.13192 -0.0297726 11.0124 5.32382
48 1 -0.653129 -1.06712 8.72359 1.74885
49 1 -0.650416 0.755239 9.65653 6.53402
67 3 -0.814802 -3.86551 7.14295 7.46196
68 3 -0.828787 -1.44977 7.89606 6.42951
252 2 0.205574 -4.97229 8.53534 1.53637
70 3 -0.849191 -3.54704 9.38938 5.93286
79 3 -0.823659 0.486542 7.10129 4.88372
87 3 -0.834134 2.03064 7.80925 2.61261
88 3 -0.814197 2.87532 7.89567 0.112382
89 3 -0.791198 -1.8994 11.5325 2.00984
90 3 -0.77282 -3.53619 9.89476 3.26687
93 3 -0.801904 -0.852535 10.2117 4.07848
94 3 -0.856038 -0.835255 12.0825 6.17436
115 2 -0.014888 -3.54273 11.8269 5.21982
147 2 0.196362 1.90128 7.77212 7.22983
151 2 0.198513 -0.0103384 9.23507 1.5042
152 2 0.174314 -1.77983 8.60778 0.860951
153 2 0.178214 -1.01327 7.80477 2.43922
135 2 0.223559 -6.94671 12.7066 5.88755
155 2 0.263903 0.733883 8.57966 6.0248
156 2 0.231636 0.0428872 9.68328 7.38265
251 1 -0.649486 -5.22971 8.79009 0.457449
161 2 0.200636 -1.05914 9.96647 0.158798
28 4 1.20165 4.13647 6.77548 4.81539
19 4 1.33835 -1.2758 12.9917 7.39493
12 4 1.34589 -0.852764 6.67659 5.56453
69 3 -0.831189 -5.76212 10.4775 4.57671
154 2 0.143672 1.79835 9.96876 6.83111
272 2 0.189259 1.3778 10.3007 0.129026
47 1 -0.673729 1.6289 10.2301 1.17217
25 4 1.47936 1.53499 6.54592 3.51881
15 4 1.06835 -4.16667 10.8237 15.6868
18 4 1.25277 -2.30725 8.0658 13.3793
22 4 1.23511 -0.612302 12.6318 11.7541
32 4 0.997588 -2.60517 10.8494 9.12403
35 4 1.21025 -1.27696 10.7144 14.0675
268 2 0.158796 -3.24303 8.77791 15.7586
46 1 -0.639328 2.09706 8.03832 8.33009
157 2 0.172063 1.96425 10.1359 10.5523
51 1 -0.643422 0.0263731 11.187 15.3709
162 2 0.230733 -0.35708 12.2291 15.6804
72 3 -0.814551 -2.01607 7.536 11.9432
83 3 -0.806187 -0.117612 7.07223 10.1409
91 3 -0.822042 -2.68929 9.52852 8.27791
92 3 -0.811602 -1.40528 11.7468 8.91852
95 3 -0.851163 3.89084 8.21838 11.7191
96 3 -0.778694 -1.16724 8.92914 13.9292
97 3 -0.845407 -1.05018 11.3961 12.6386
98 3 -0.782578 -2.84163 11.1167 14.8696
116 2 -0.0429617 -3.69185 8.96466 13.3912
120 2 0.094071 -0.376765 11.956 10.2322
126 2 -0.000609562 -2.69138 10.4133 10.799
127 2 -0.0249925 -3.99704 11.7997 8.90056
128 2 0.0353671 2.0173 10.0913 12.8235
187 3 -0.806619 0.851974 13.1398 12.1862
148 2 0.180343 3.19093 8.03378 8.60152
139 2 0.161301 -4.99365 11.4688 13.3151
160 2 0.162358 0.96489 11.2997 14.7333
138 2 0.148827 -6.7475 12.912 11.1754
149 2 0.17082 1.49388 8.9568 8.73374
29 4 0.959689 3.86863 6.73843 11.2517
43 1 -0.662781 -5.89217 11.2008 13.8939
140 2 0.167543 -6.00267 12.0254 14.6241
226 4 0.973025 4.41911 7.23185 15.1294
235 2 0.16938 11.5233 1.59988 2.52613
37 4 1.26039 12.8702 2.12204 5.53814
38 4 1.01708 6.55671 6.45671 2.79676
39 4 1.34318 11.2041 4.16644 7.27492
45 1 -0.679248 7.12862 5.60647 7.45154
54 1 -0.672334 10.228 5.60698 6.46512
101 3 -0.764362 14.2164 2.85971 5.08368
102 3 -0.819881 13.2711 0.776867 6.41727
103 3 -0.757197 6.12088 5.53847 1.61731
4 4 1.53316 15.3656 2.28787 3.92756
106 3 -0.804939 11.8501 3.22528 6.07539
255 2 0.157884 9.75306 0.216132 4.81154
129 2 0.00139703 12.0307 1.37778 4.25654
130 2 0.0495891 7.8211 5.56081 3.75098
267 2 0.149867 11.3679 6.17248 0.490176
250 2 0.169695 10.3114 4.50243 0.0567851
146 2 0.183934 7.76663 4.6865 7.40623
105 3 -0.795746 10.005 3.27923 7.94352
169 2 0.209124 10.8068 6.52724 6.66405
170 2 0.178681 9.09697 5.65111 6.76688
171 2 0.167611 10.3521 5.27132 5.37353
221 1 -0.637202 8.63696 0.299339 1.65922
224 2 0.189661 8.66874 0.990097 0.734502
225 2 0.105427 8.94621 0.881341 2.73586
231 1 -0.684758 11.8386 0.569641 2.49074
232 3 -0.814265 14.6857 1.02234 3.14075
266 2 0.0538591 12.7567 3.99056 0.133636
249 1 -0.61396 11.4009 4.9477 0.234289
234 2 0.172717 11.6975 0.16181 1.40814
145 2 0.164575 7.35618 6.40634 6.71302
11 4 1.46315 12.8662 6.30835 8.84294
36 4 1.32469 9.14094 2.16751 8.78292
52 1 -0.671209 10.5496 1.01656 9.42648
188 3 -0.807096 8.62571 1.82114 14.641
100 3 -0.817384 8.24185 2.65049 10.0729
107 3 -0.804514 12.2507 4.64873 8.41621
110 2 0.0277279 14.6226 2.9511 10.3973
203 2 0.170259 8.75865 6.27562 9.26357
123 2 -0.0178854 5.25009 6.33882 10.5057
163 2 0.179421 11.4953 1.51439 9.08377
6 4 1.30434 15.7441 2.30051 9.12163
165 2 0.220948 10.4304 1.05205 10.553
172 4 0.971702 15.9235 2.3843 14.6003
173 1 -0.651964 14.3482 1.15638 14.0359
174 2 0.0352738 14.145 2.59973 15.0675
175 2 0.084283 15.5715 0.708285 13.733
176 2 0.152051 13.7863 1.47752 13.1108
263 3 -0.861773 14.7711 1.28273 8.452
178 4 1.03289 13.2165 5.46918 14.714
180 4 1.19244 9.88561 1.4226 13.5811
181 4 1.27142 11.5457 4.04443 12.2712
184 1 -0.676971 11.1572 0.500413 14.5463
185 1 -0.707518 12.9463 3.49549 11.0768
121 2 0.00178367 7.35024 3.60252 12.4374
189 3 -0.768534 10.6682 2.75528 12.7826
190 3 -0.779838 12.3335 4.69787 13.4529
192 3 -0.752905 10.5557 5.42314 11.5052
144 2 0.179233 7.14 6.03137 8.49507
199 2 0.177465 12.042 1.20796 14.5481
200 2 0.25684 12.6021 3.83076 10.0663
201 2 0.140335 12.8416 2.37401 11.3356
202 2 0.241865 13.8741 4.04213 11.4333
177 2 0.200146 13.7557 0.409944 14.6697
2 3 -0.76778 9.14753 11.4838 2.96151
270 2 0.174929 0.786735 12.0607 1.4489
207 4 1.29126 5.76883 13.0271 7.60607
53 1 -0.636485 8.40273 7.15947 3.3238
104 3 -0.814529 5.33746 6.95098 3.74333
122 2 -0.0309942 3.60116 8.34243 5.10856
125 2 -0.025603 4.30083 9.03375 1.94901
150 2 0.128535 2.54807 10.9335 1.41508
166 2 0.0707377 7.78991 7.9324 2.07739
168 2 0.150448 8.29476 7.76433 4.2726
206 4 1.19777 9.56296 10.45 4.1905
215 2 0.170043 7.12542 8.15783 7.03561
208 4 1.10753 7.6145 10.5481 6.8837
209 1 -0.660333 6.47309 9.04439 6.78592
253 2 0.109445 10.4356 8.38896 0.251767
211 3 -0.767712 8.61909 10.5428 5.6143
212 3 -0.806256 6.81684 11.9103 7.10629
213 2 0.0119732 9.44956 8.86104 3.42119
254 1 -0.67751 1.4946 11.9489 4.55619
216 2 0.166238 6.04834 9.01065 5.70453
217 2 0.141748 5.6403 9.27855 7.56335
239 2 0.109774 6.89717 9.1735 1.13592
230 4 1.13334 5.309 12.7519 2.6439
237 1 -0.672766 7.78039 9.95315 0.564397
238 3 -0.770979 5.60141 11.9364 1.1729
240 2 0.222536 8.3725 10.5395 1.34368
257 2 0.134503 2.33007 11.3681 5.10248
256 2 0.158028 1.50891 11.7838 3.4177
258 1 -0.663203 5.38712 11.2763 3.90128
259 2 0.149564 5.49584 10.2743 3.31965
260 2 0.141739 4.35398 11.5216 4.33947
261 2 0.227688 6.2171 11.5199 4.61867
167 2 0.157554 9.53589 6.9352 3.15679
233 2 0.159992 2.81429 12.8385 3.24605
34 4 0.999686 3.72817 9.67376 12.2549
40 4 0.91254 6.32826 10.6918 13.3274
108 3 -0.822736 4.80969 10.3758 13.175
109 3 -0.824898 6.92616 11.0467 14.7149
131 2 -0.049635 6.62881 11.9482 12.3379
132 2 -0.0644007 7.20533 9.52692 12.598
158 2 0.118929 3.60289 11.2228 10.546
159 2 0.220194 2.02163 11.7354 11.6112
186 1 -0.674189 8.83167 7.23094 9.91425
191 3 -0.787026 11.8849 7.32821 9.84235
214 2 -0.0438838 4.69394 12.1609 8.59729
194 2 -0.00470815 9.68079 7.93932 11.5145
204 2 0.167358 8.80295 8.25915 9.3678
205 2 0.140479 8.08635 7.21567 10.7563
218 2 0.133137 8.4136 9.7969 9.47037
229 2 -0.0187282 5.1524 7.86408 13.8474
269 2 0.147157 10.1193 11.0721 13.1611
236 4 1.036 7.54208 11.5303 16.0591
210 1 -0.663516 8.84362 10.0787 8.46996
264 2 0.0411797 9.06648 12.1965 15.8547
50 1 -0.674007 2.61559 10.8363 11.1517
219 2 0.178894 9.26064 11.1035 8.5139
193 2 0.0562259 11.2218 9.92382 14.5667
182 4 1.01767 10.5845 6.7649 10.6504
198 2 0.170532 2.95425 12.3519 13.9238
164 2 0.168989 2.02293 12.8015 9.00875
274 2 0.18738 9.55755 9.33497 8.13062
273 2 0.182597 2.32465 13.2448 15.5533
241 2 0.164007 9.56618 9.98136 15.8107
ITEM: TIMESTEP
100
ITEM: NUMBER OF ATOMS
274
ITEM: BOX BOUNDS xy xz yz pp pp pp
-8.3797999999999995e+00 1.7988215999999998e+01 -8.3797999999999995e+00
0.0000000000000000e+00 1.3273200000000001e+01 1.1693159999999985e+00
0.0000000000000000e+00 1.6075500000000002e+01 4.3120000000000003e-01
ITEM: ATOMS id type q x y z
119 2 -0.0411478 7.50485 1.98291 4.95739
5 4 1.22748 0.395564 1.88223 0.348296
7 4 1.13677 1.26965 2.14663 5.44629
9 4 1.25331 -0.219291 4.43275 1.91461
10 4 1.60813 0.328616 4.5035 7.29369
242 1 -0.693906 3.30201 0.56004 3.12885
21 4 0.787065 5.8681 1.90209 5.50269
26 4 1.30285 5.32574 4.75312 6.89738
41 1 -0.689606 1.73813 0.546445 6.22933
44 1 -0.683449 3.85585 3.47051 1.5915
55 3 -0.810643 1.10803 0.736911 1.20812
56 3 -0.787031 -0.106264 1.97628 4.67048
58 3 -0.84128 -1.30053 3.65392 2.84299
59 3 -0.791064 0.868596 3.47037 1.2291
243 2 0.176145 3.41149 1.61074 2.67163
61 3 -0.768154 1.35957 3.50196 6.24648
62 3 -0.82614 -0.524554 5.43572 6.34021
74 3 -0.804593 5.47209 0.770245 7.06184
78 3 -0.8266 0.531554 5.50653 2.76583
81 3 -0.779463 5.33568 3.41311 5.74818
84 3 -0.762655 2.94328 5.91996 4.18118
85 3 -0.777048 4.59219 6.01373 6.24656
99 3 -0.826092 8.08021 1.19095 7.84385
111 2 0.0214075 2.48998 2.01895 4.22034
112 2 -0.0384726 -1.05538 5.22687 0.686082
244 2 0.138658 3.00884 0.447412 4.24241
118 2 -0.0116097 4.7014 1.1528 4.38238
133 2 0.197503 1.19889 0.811969 7.29441
134 2 0.16128 2.87093 0.383144 6.29996
223 2 -0.0947776 6.40421 1.10314 3.71373
141 2 0.18309 4.38576 2.46214 1.36125
142 2 0.274172 2.68371 3.47682 1.38613
143 2 0.192305 4.13778 3.90745 2.61349
220 4 0.972296 6.8649 0.352861 2.03483
222 3 -0.799742 6.26554 1.14861 0.744451
113 2 -0.0063056 -2.12747 6.31164 4.32428
24 4 1.23794 4.86761 4.63589 0.509477
248 2 0.174211 3.35043 3.26948 15.0034
8 4 1.30271 1.63072 2.28912 10.5498
13 4 1.28672 0.0727616 4.42311 12.3318
14 4 1.56546 -1.53411 6.5164 10.7613
20 4 1.29254 4.59233 3.06986 9.23112
23 4 1.25542 7.03958 2.63721 11.028
27 4 1.36641 1.40083 6.5107 9.4588
77 3 -0.759411 6.81774 4.05009 15.6449
42 1 -0.653761 2.00566 0.738344 11.575
57 3 -0.805838 0.389048 1.73275 9.64022
63 3 -0.868483 -0.463643 3.4707 13.4315
64 3 -0.819343 1.05129 3.53907 11.4991
65 3 -0.856872 -2.59464 6.26788 9.65046
66 3 -0.850949 -1.18704 5.08755 11.5163
73 3 -0.786089 3.14884 2.59843 9.73511
75 3 -0.853028 5.69283 3.12814 10.3723
76 3 -0.851141 6.94643 1.11635 11.5875
80 3 -0.807701 4.73603 4.36644 8.35823
82 3 -0.819947 1.22866 5.35721 8.40173
86 3 -0.793959 2.43275 6.23682 10.7289
114 2 -0.0162848 1.04316 5.60514 13.0452
137 2 0.162858 3.1819 0.722817 11.6492
124 2 -0.0454502 4.27644 5.67349 12.5713
136 2 0.158919 1.51363 0.802872 12.5851
179 4 1.21929 7.33094 2.33955 15.381
183 1 -0.685023 5.9204 1.51588 14.5225
60 3 -0.841269 -0.687235 3.53895 8.05068
195 2 0.240379 6.23532 1.2277 13.4741
196 2 0.174936 5.09185 2.3188 14.5707
197 2 0.20479 5.78135 0.631204 15.2503
227 3 -0.790703 5.01968 6.15876 15.784
29 4 0.930322 3.81648 6.70461 11.296
245 1 -0.662191 2.69335 2.35248 14.8711
246 2 0.174958 1.93267 2.40933 13.9846
247 2 0.179697 3.23749 1.33716 14.9956
117 2 0.11231 5.09321 1.74833 8.18293
71 3 -0.8007 -2.47549 6.71136 14.3673
123 2 -0.0146528 5.09068 6.4538 10.1877
1 4 1.31836 -6.42442 12.4995 2.01081
3 3 -0.783484 -5.75841 11.4451 0.914063
25 4 1.48326 1.44372 6.59173 3.56096
16 4 1.52854 -2.8305 8.49278 7.02938
17 4 1.28241 -4.0927 10.2275 4.74637
271 2 0.150209 1.24871 10.3445 2.36472
30 4 1.02615 2.66879 8.77083 1.45814
31 4 1.27269 -1.87111 10.1806 2.72226
33 4 1.11596 -0.0127779 11.1234 5.25418
48 1 -0.674153 -1.1403 8.71626 1.67645
49 1 -0.674851 0.563469 9.73291 6.43067
67 3 -0.799557 -3.84601 7.27683 7.50469
68 3 -0.818438 -1.40375 7.78111 6.4912
265 2 0.151047 -4.25597 12.6292 2.84228
70 3 -0.830205 -3.62641 9.26237 5.83317
79 3 -0.848359 0.540462 7.21358 4.69709
87 3 -0.79729 1.80527 7.81767 2.49334
88 3 -0.801987 2.89043 8.14832 0.0269243
89 3 -0.784776 -1.86134 11.5243 1.89773
90 3 -0.767677 -3.41132 9.71376 3.32776
93 3 -0.797131 -0.877629 10.4691 3.99629
94 3 -0.852081 -0.901625 12.1746 6.08328
115 2 -0.0307333 -3.53185 11.7941 5.11762
147 2 0.194442 2.10655 7.70522 7.34361
151 2 0.202917 -0.0868131 9.14436 1.45284
152 2 0.17828 -1.85408 8.64663 0.813963
153 2 0.190446 -1.10083 7.76265 2.24166
135 2 0.236685 -7.17763 12.4899 5.68134
155 2 0.26616 0.591449 8.83177 5.73914
156 2 0.243467 -0.219215 9.56802 7.25422
251 1 -0.632675 -5.54091 8.71379 0.469127
268 2 0.17976 -4.48843 8.23768 0.423067
28 4 1.22437 4.16395 6.7625 4.8799
19 4 1.34391 -1.39691 12.9221 7.39682
12 4 1.30615 -0.88055 6.6947 5.46777
69 3 -0.800431 -5.62316 10.1775 4.62682
154 2 0.148615 1.55015 9.99709 6.87192
272 2 0.18902 0.684637 10.4757 0.453563
47 1 -0.647653 1.57598 10.3685 1.16926
15 4 1.04739 -4.10676 10.8435 15.7603
18 4 1.24214 -2.38032 8.00629 13.3468
22 4 1.25629 -0.465926 12.7038 11.7527
32 4 0.970509 -2.59145 10.7269 9.16714
35 4 1.2873 -1.28629 10.6474 14.0782
228 2 -0.0333459 3.06166 7.057 14.1929
46 1 -0.654577 2.08698 8.0369 8.45385
157 2 0.177067 1.95956 10.2692 10.7057
51 1 -0.650892 0.272517 11.0582 15.1858
162 2 0.210798 -0.0188945 12.0983 15.5045
72 3 -0.849452 -2.00263 7.5679 11.8959
83 3 -0.770593 -0.0788593 7.12758 10.1018
91 3 -0.849279 -2.56446 9.4979 8.27301
92 3 -0.800626 -1.38979 11.7643 8.99467
95 3 -0.834889 3.82203 8.20319 11.7852
96 3 -0.773302 -1.26075 9.01002 13.9104
97 3 -0.822706 -1.04346 11.5934 12.7101
98 3 -0.8066 -2.71735 10.8824 14.8357
116 2 -0.0444328 -3.8727 8.7949 13.1536
120 2 0.0921538 -0.312721 12.0041 10.1956
126 2 -0.0147343 -2.72973 10.2469 10.7557
127 2 -0.0393708 -4.06669 11.487 8.99113
128 2 0.0336189 2.10535 10.1327 13.0339
226 4 0.970585 4.43921 7.42911 15.1411
148 2 0.155192 3.13356 8.33695 8.84228
139 2 0.160051 -4.92072 11.3394 13.4106
160 2 0.175513 1.18844 11.0281 14.5579
138 2 0.162037 -6.78692 12.6898 10.9458
149 2 0.19296 1.30717 8.79352 8.71041
140 2 0.156345 -5.97721 12.0204 14.9753
43 1 -0.634322 -5.79229 11.1824 14.0845
187 3 -0.793709 1.00319 13.0825 12.3212
161 2 0.187591 0.31391 10.2974 16.0583
235 2 0.16076 11.9745 1.80008 2.46511
37 4 1.28199 12.8423 2.04565 5.52038
169 2 0.228747 10.8579 6.53097 6.8815
39 4 1.32242 11.2277 4.09212 7.31541
45 1 -0.680512 7.20257 5.2418 7.12458
54 1 -0.658549 10.383 5.60881 6.49157
101 3 -0.789312 14.191 2.7616 5.04528
102 3 -0.832567 13.0414 0.833034 6.49158
103 3 -0.742966 6.03867 5.69863 1.52265
4 4 1.48309 15.287 2.44276 3.85172
106 3 -0.80204 11.8542 3.15943 6.15231
255 2 0.159549 9.82027 0.251228 4.77086
129 2 -0.000416887 11.9215 1.35643 4.20365
130 2 0.0412331 7.71284 5.41386 3.71833
267 2 0.178821 11.6608 5.95962 0.681929
207 4 1.24315 14.0802 0.234733 7.66101
146 2 0.198289 7.67991 4.27766 7.34323
105 3 -0.792806 9.82789 3.21055 7.95056
145 2 0.15982 7.48774 5.64899 6.10505
170 2 0.182058 9.20956 5.51258 6.71795
171 2 0.176333 10.6507 5.33453 5.42477
221 1 -0.657097 8.68483 0.397395 1.77058
224 2 0.177522 8.70234 1.17704 0.901257
225 2 0.121953 8.92785 0.851796 2.84147
231 1 -0.647742 11.8301 0.661372 2.33773
232 3 -0.795396 14.4504 1.13419 2.99285
266 2 0.065548 12.2457 3.96771 0.395269
249 1 -0.652844 11.4082 5.11535 0.0112287
234 2 0.165634 11.5647 0.344006 1.24883
233 2 0.157547 11.0818 0.160446 3.1463
144 2 0.163049 7.27853 6.02503 8.00099
11 4 1.50693 12.8174 6.41061 8.90835
36 4 1.35674 9.09762 2.10016 8.79352
52 1 -0.673508 10.4488 0.883969 9.43462
188 3 -0.788176 8.72139 2.11659 14.3332
100 3 -0.836912 8.3017 2.69037 10.0128
107 3 -0.805388 12.2717 4.72331 8.3419
110 2 0.0317356 14.8005 3.04132 10.2616
203 2 0.161974 8.70873 6.26877 9.21838
202 2 0.221033 13.8788 3.97159 11.4543
163 2 0.172882 11.3138 0.976487 8.67123
6 4 1.32114 15.7965 2.38156 9.03379
165 2 0.20543 10.6704 1.30729 10.4618
172 4 1.03188 15.8929 2.48503 14.5641
173 1 -0.66645 14.6243 1.17853 14.0304
174 2 -0.00630816 14.168 2.74877 15.0514
175 2 0.122871 15.4998 0.634521 13.2804
176 2 0.153601 13.7607 1.64719 13.426
263 3 -0.862466 14.8437 1.28185 8.50569
178 4 1.05612 13.3882 5.41637 14.5959
180 4 1.27355 9.98992 1.56425 13.5086
181 4 1.31863 11.7339 4.00831 12.2808
184 1 -0.642882 10.9636 0.507353 14.7525
185 1 -0.698713 12.9806 3.46731 10.8876
121 2 0.00920869 7.44787 3.59044 12.4427
189 3 -0.809581 10.9492 2.61534 12.7748
190 3 -0.841521 12.5682 4.70239 13.4077
192 3 -0.797136 10.6537 5.11948 11.6103
177 2 0.197319 14.2764 0.615352 14.9494
199 2 0.156093 11.7991 1.28126 14.9822
200 2 0.26872 12.7313 3.90673 9.8406
201 2 0.146543 13.0248 2.3221 10.9062
182 4 1.03676 10.4878 6.43743 10.7305
250 2 0.167631 11.4806 5.12081 16.0217
262 3 -0.815483 16.823 2.084 15.7823
122 2 -0.0366389 3.59962 8.29912 5.35516
270 2 0.195337 0.801217 12.2559 1.48827
167 2 0.174163 9.32733 6.78723 3.22994
53 1 -0.650231 8.32822 7.06371 3.48763
104 3 -0.84729 5.40339 6.98981 3.90342
236 4 1.04145 6.36091 11.0706 0.0723311
125 2 -0.0370221 4.1718 9.17982 2.24344
150 2 0.142037 2.56848 10.9944 0.904081
166 2 0.0647183 7.73961 8.01184 2.37984
168 2 0.16037 8.27911 7.6152 4.45638
206 4 1.19183 9.59485 10.4033 4.13046
215 2 0.161693 6.96648 8.33537 7.39191
208 4 1.09433 7.71299 10.5898 6.85615
209 1 -0.656319 6.5895 9.08097 6.62958
2 3 -0.804603 9.51141 11.5372 3.0862
211 3 -0.78511 8.61563 10.6098 5.50592
212 3 -0.793225 6.67743 11.8103 7.27377
213 2 -0.0010163 8.9699 8.93167 3.48414
254 1 -0.685505 1.5705 12.0292 4.45772
216 2 0.177128 6.75967 8.78159 5.52781
217 2 0.164449 5.61368 9.56342 6.87335
239 2 0.0923585 6.85862 9.25308 0.995352
230 4 1.14686 5.27871 12.6746 2.56556
237 1 -0.652922 7.94827 9.89788 0.588949
238 3 -0.813584 5.70228 11.8634 1.23304
240 2 0.198602 8.68463 10.0718 1.42911
257 2 0.134635 2.47676 11.5597 5.01012
256 2 0.163113 1.57469 11.8543 3.34439
258 1 -0.668546 5.4102 11.4163 3.9208
259 2 0.163179 5.76594 10.3961 3.68888
260 2 0.123875 4.22301 11.4674 4.16714
261 2 0.210116 6.14382 12.0367 4.59017
252 2 0.172732 10.9455 8.73771 1.67218
38 4 1.00932 6.47297 6.51025 2.87716
34 4 1.01237 3.75349 9.69829 12.407
40 4 0.938417 6.34011 10.9036 13.3236
108 3 -0.844644 4.90936 10.3495 13.1602
109 3 -0.823282 6.92648 11.1768 14.7198
131 2 -0.0394478 6.46214 12.2043 12.3857
132 2 -0.0617576 7.39031 9.98965 12.4623
158 2 0.12951 3.5732 11.1773 10.6977
159 2 0.237326 2.13057 11.8034 11.7605
186 1 -0.661222 8.82754 7.14231 9.96216
191 3 -0.842745 11.7179 7.03713 9.84849
214 2 -0.0251604 4.67923 12.4562 8.88875
194 2 -0.00469957 9.73087 7.76353 11.5486
204 2 0.159484 8.8713 8.25262 9.41926
205 2 0.123688 8.06943 7.16449 10.8301
218 2 0.14551 8.29923 9.83041 9.34076
229 2 -0.0139867 5.51888 8.06866 14.0218
269 2 0.138315 10.101 11.2592 13.3265
241 2 0.164987 9.56017 9.83665 15.7727
210 1 -0.650163 8.90981 10.1358 8.48712
264 2 0.0653644 9.17435 12.1312 15.9681
50 1 -0.686721 2.64174 10.851 11.3275
219 2 0.172937 9.47182 11.1134 8.59855
193 2 0.0745521 11.134 9.79678 14.6639
253 2 0.131871 11.643 8.52065 15.956
198 2 0.181663 2.90277 12.4637 14.135
164 2 0.163703 1.61159 12.6633 9.45538
274 2 0.175296 9.61064 9.30713 8.06358
273 2 0.175183 1.84339 13.0494 15.7034
ITEM: TIMESTEP
200
ITEM: NUMBER OF ATOMS
274
ITEM: BOX BOUNDS xy xz yz pp pp pp
-8.3797999999999995e+00 1.7962531999999999e+01 -8.3797999999999995e+00
0.0000000000000000e+00 1.3273200000000001e+01 1.1436320000000002e+00
0.0000000000000000e+00 1.6075500000000002e+01 4.3120000000000003e-01
ITEM: ATOMS id type q x y z
119 2 -0.0330174 7.29409 1.81811 4.90913
5 4 1.26016 0.518341 1.90057 0.417103
7 4 1.11718 1.26386 2.21033 5.23158
9 4 1.26899 -0.224898 4.45316 1.93262
10 4 1.57745 0.429375 4.38692 7.1954
242 1 -0.673425 3.30678 0.551233 2.89118
21 4 0.80174 5.69169 1.7518 5.43055
26 4 1.31403 5.25404 4.64177 6.77802
41 1 -0.665171 1.44831 0.721189 6.39937
44 1 -0.666082 3.70036 3.7206 1.74259
55 3 -0.824103 1.07436 0.630213 1.34576
56 3 -0.816979 -0.199667 2.07708 4.57572
58 3 -0.852411 -1.35395 3.64591 2.78945
59 3 -0.80422 0.823751 3.55333 1.12059
243 2 0.159724 3.3893 1.69373 2.5469
61 3 -0.793207 1.54887 3.33581 6.24829
62 3 -0.823809 -0.397725 5.35976 6.25171
74 3 -0.800524 5.53855 0.594898 6.98944
78 3 -0.863615 0.615538 5.57327 2.66887
81 3 -0.816354 5.42157 3.27001 5.85515
84 3 -0.800761 2.82161 6.11787 4.11923
85 3 -0.789902 4.55742 5.94636 6.1666
99 3 -0.846488 7.9883 1.31099 7.84744
111 2 -0.0102604 2.46216 1.9547 4.00411
112 2 -0.01314 -1.19661 5.30913 0.801534
244 2 0.115385 2.95275 0.344921 3.99647
118 2 -0.030699 4.50079 1.25813 4.30194
133 2 0.231585 1.21313 0.915787 7.47192
134 2 0.139477 2.58784 0.556515 6.31697
223 2 -0.0916093 6.33475 1.05264 3.6021
141 2 0.157335 4.25036 2.68266 1.61197
142 2 0.280243 2.53835 3.69218 1.45944
143 2 0.203545 3.89786 4.2317 2.7499
220 4 1.02895 6.90431 0.449947 1.92039
222 3 -0.798062 6.55148 1.41046 0.684584
113 2 0.00568003 -1.76495 6.28694 4.20457
24 4 1.27647 4.76823 4.79921 0.619116
60 3 -0.820585 -0.656841 3.59163 8.03051
248 2 0.181587 3.29676 3.38328 14.9225
8 4 1.28684 1.63778 2.22702 10.5452
13 4 1.25757 0.167874 4.38253 12.3367
14 4 1.52322 -1.50504 6.51765 10.7165
20 4 1.30086 4.59239 2.9269 9.21897
23 4 1.26991 6.9853 2.63472 11.08
27 4 1.35101 1.31705 6.55122 9.45658
77 3 -0.76593 6.75151 4.02773 15.6624
42 1 -0.655539 1.98586 0.720873 11.685
57 3 -0.79362 0.303418 1.72895 9.57813
63 3 -0.838362 -0.614101 3.67809 13.6083
64 3 -0.827299 1.01733 3.34651 11.5656
65 3 -0.819851 -2.5167 6.1438 9.57486
66 3 -0.821541 -0.962618 5.03209 11.3744
73 3 -0.784689 3.16563 2.59573 9.81044
75 3 -0.856924 5.62375 2.88863 10.3919
76 3 -0.846694 6.98365 1.17577 11.7708
80 3 -0.788794 4.71523 4.25332 8.34388
82 3 -0.789941 1.109 5.41039 8.36164
86 3 -0.764579 2.51668 6.16079 10.7887
114 2 -0.00890027 1.1737 5.63374 12.9098
137 2 0.165291 3.10973 0.49249 11.5637
124 2 -0.0416613 4.558 5.49256 12.4383
136 2 0.161 1.7115 0.933216 12.7731
179 4 1.29787 7.40005 2.5793 15.3273
183 1 -0.679919 6.04319 1.51435 14.5839
71 3 -0.814257 -2.34738 6.77033 14.3624
195 2 0.263018 6.39368 1.30783 13.4853
196 2 0.175827 5.1272 2.20598 14.6698
197 2 0.221953 6.03598 0.639475 15.2691
227 3 -0.827351 4.91834 6.05994 15.863
117 2 0.101507 5.06909 1.65999 8.08081
245 1 -0.67262 2.67118 2.42097 14.8671
246 2 0.175692 1.86944 2.50472 14.0612
247 2 0.165566 3.2795 1.47072 14.8206
262 3 -0.780506 0.134871 2.35763 15.9871
29 4 0.926142 3.86013 6.67078 11.3658
1 4 1.34458 -6.5209 12.3509 2.08518
3 3 -0.798246 -5.67095 11.3382 0.979842
25 4 1.46737 1.47169 6.7038 3.39218
16 4 1.55018 -2.836 8.50286 7.09788
17 4 1.25768 -4.23788 10.0929 4.58613
271 2 0.176805 1.07597 10.7046 2.21211
30 4 1.04329 2.68233 8.898 1.38325
31 4 1.21675 -1.94258 10.1927 2.75888
33 4 1.14394 0.00262587 11.1764 5.19067
48 1 -0.648616 -1.11072 8.81943 1.74402
49 1 -0.658759 0.705445 9.7893 6.40819
67 3 -0.785284 -3.90718 7.26131 7.51819
68 3 -0.825403 -1.56533 7.82054 6.40677
265 2 0.174422 -4.16186 12.8025 2.58592
70 3 -0.781019 -3.63569 9.35512 5.86213
79 3 -0.824392 0.546723 7.39719 4.85298
87 3 -0.809754 1.89039 7.94546 2.46312
88 3 -0.802772 2.97418 8.13045 0.0215208
89 3 -0.767279 -1.91573 11.7908 1.85323
90 3 -0.807104 -3.38495 9.67042 3.2917
93 3 -0.791972 -0.703562 10.5355 3.91063
94 3 -0.856559 -0.793469 12.1039 6.20377
115 2 -0.0392189 -4.20184 11.767 4.83311
147 2 0.183463 2.23282 7.77261 7.50112
151 2 0.197796 -0.0065538 9.31933 1.45912
152 2 0.171447 -1.90976 8.69551 0.903108
153 2 0.185131 -1.01957 7.93483 2.44917
135 2 0.251414 -7.50538 12.7158 5.96323
155 2 0.292704 0.678012 8.7993 5.87617
156 2 0.217048 -0.098392 9.8748 7.24012
251 1 -0.66214 -5.33625 8.71043 0.483336
268 2 0.197833 -4.31321 8.34135 0.386713
28 4 1.22265 4.0344 6.84529 4.91685
19 4 1.4075 -1.36173 12.9114 7.43491
12 4 1.3078 -0.744118 6.73208 5.49553
69 3 -0.812005 -5.84182 9.87868 4.36153
154 2 0.14126 1.73835 10.1421 6.68747
272 2 0.182834 0.791073 10.5884 0.352013
47 1 -0.671451 1.57935 10.4705 1.19126
161 2 0.187282 -0.871458 10.0139 0.103073
15 4 1.10097 -4.0842 10.8484 15.8913
18 4 1.21938 -2.20758 7.98016 13.3005
22 4 1.2304 -0.424494 12.7298 11.808
32 4 0.975826 -2.50277 10.718 9.29762
35 4 1.21228 -1.19567 10.7239 14.1086
228 2 -0.0160113 3.18993 7.08964 14.1331
46 1 -0.656835 2.1195 8.07469 8.61244
157 2 0.164812 1.9919 9.84852 10.7949
51 1 -0.645194 0.283339 11.1127 15.1926
162 2 0.200892 0.041738 12.2444 15.3848
72 3 -0.86709 -2.23144 7.48793 11.7631
83 3 -0.800016 -0.0494079 7.16799 9.99444
91 3 -0.85187 -2.64001 9.57536 8.23021
92 3 -0.816825 -1.44345 11.8443 9.0185
95 3 -0.839972 3.73315 8.08502 12.0613
96 3 -0.792165 -1.11325 9.09136 13.6876
97 3 -0.828572 -1.14098 11.6799 12.7754
98 3 -0.760538 -2.64903 10.9951 15.2514
116 2 -0.036232 -3.72731 8.766 13.555
120 2 0.0714946 -0.283814 12.01 10.2595
126 2 -0.0125558 -2.3701 10.131 10.7967
127 2 -0.0396245 -3.95859 11.384 9.62898
128 2 0.0155427 2.13791 10.3116 13.1148
226 4 0.969795 4.47722 7.35268 15.1441
148 2 0.150322 3.12844 8.33234 9.09947
139 2 0.153454 -4.78662 11.6557 13.4154
160 2 0.150076 1.231 10.9831 14.5711
138 2 0.156552 -7.02599 12.7292 11.2431
149 2 0.190676 1.33288 8.87017 8.73619
140 2 0.151037 -5.63706 12.2004 14.9013
43 1 -0.679048 -5.7032 11.4037 14.0536
235 2 0.160279 12.0455 1.74556 2.55217
37 4 1.29858 12.8444 1.99595 5.55156
169 2 0.219019 10.736 6.41943 6.93902
39 4 1.35949 11.1616 4.01342 7.27466
45 1 -0.657396 7.10886 5.1213 6.76071
54 1 -0.663614 10.3114 5.5266 6.41234
101 3 -0.767139 14.0071 2.88769 4.91693
102 3 -0.845588 13.1776 0.739464 6.41728
103 3 -0.789847 5.81693 5.66641 1.68432
4 4 1.52454 15.2711 2.41801 3.75662
106 3 -0.816493 11.84 3.00421 6.22868
255 2 0.157119 9.7605 0.3935 4.77056
129 2 0.00291227 11.8917 1.41781 4.23949
130 2 0.0470828 7.6699 5.36145 3.74784
267 2 0.17482 11.2568 6.16764 0.225109
233 2 0.15733 11.1361 0.184717 3.2524
146 2 0.183816 7.60971 4.07948 6.95544
105 3 -0.814413 9.98355 3.22331 7.97038
145 2 0.163421 7.39011 5.60135 5.77148
170 2 0.182089 9.15512 5.37764 6.55335
171 2 0.178537 10.654 5.44201 5.33718
221 1 -0.655118 8.78796 0.466277 2.0022
224 2 0.171979 9.0457 1.31454 1.30297
225 2 0.121761 8.81614 0.750071 3.17961
231 1 -0.682186 11.8918 0.656468 2.40767
232 3 -0.820565 14.694 1.04357 3.06679
266 2 0.0890695 12.4238 4.31916 0.557505
144 2 0.156791 7.23127 5.83736 7.66039
234 2 0.174627 11.5483 0.432001 1.39105
11 4 1.48529 12.8093 6.29275 8.89275
36 4 1.3146 9.04326 2.13792 8.76924
52 1 -0.676099 10.3415 0.868496 9.35717
188 3 -0.790577 8.63581 2.31971 14.2344
100 3 -0.807034 8.26941 2.8295 10.1124
107 3 -0.782382 12.2376 4.71773 8.38176
110 2 0.0355802 14.8797 3.10714 10.2227
203 2 0.132327 8.72488 5.92968 9.30269
202 2 0.200755 14.0762 3.71353 11.4771
163 2 0.176111 11.2454 1.20317 8.66836
6 4 1.32581 15.7449 2.40328 8.97706
165 2 0.216863 10.5288 1.12565 10.4425
172 4 0.96306 15.835 2.53749 14.6291
173 1 -0.639747 14.622 1.1703 14.0012
174 2 0.0258358 14.0201 2.53382 15.1177
175 2 0.0904952 15.837 0.647348 13.5467
176 2 0.140762 14.2146 1.84812 13.0723
263 3 -0.857114 14.8214 1.28347 8.45508
178 4 1.04898 13.5637 5.40286 14.5947