ITEM: TIMESTEP
0
ITEM: NUMBER OF ATOMS
373
ITEM: BOX BOUNDS xy xz yz pp pp pp
-1.0794400000000000e+01 2.0438599999999997e+01 -1.0794400000000000e+01
-3.3405999999999998e+00 1.4057499999999999e+01 1.3894000000000000e+00
0.0000000000000000e+00 1.7550000000000001e+01 -3.3405999999999998e+00
ITEM: ATOMS id type x y z
3 4 4.63716 1.3511 2.88143
4 4 6.3355 -1.25238 7.06241
5 4 5.95793 1.48154 5.50986
7 4 4.30669 4.37066 2.06584
9 4 5.22429 3.37765 7.9909
327 2 -0.0728501 5.77232 6.04858
33 3 5.91965 0.62539 2.10391
34 2 3.26674 0.531446 2.39725
356 1 -1.62017 5.18886 8.31953
36 3 4.65093 1.39804 4.45671
37 3 6.39903 0.0602617 6.09064
41 3 4.48732 2.84071 2.32766
42 1 3.1165 4.89922 0.641965
43 2 2.67935 4.90551 2.51896
325 1 -0.261828 4.85653 5.4167
46 3 5.57716 2.44624 6.71803
214 2 -3.25973 5.51241 0.429624
48 3 4.3253 4.57713 7.52041
328 2 0.588324 4.66222 4.59851
321 1 -3.5447 4.55243 4.80451
359 2 -1.06377 5.06865 7.25654
117 2 2.34017 4.02266 0.673152
330 2 7.98409 0.0882522 3.86988
178 4 1.80061 1.13267 6.78771
35 2 5.67949 -1.06042 8.68864
181 1 1.90048 2.58563 5.60314
329 1 8.31829 -0.432175 2.93454
183 3 0.622462 1.47915 7.87582
326 2 -0.489369 3.90673 6.04659
190 2 2.15931 2.08693 4.60243
191 2 2.9236 3.00154 6.08991
192 2 1.03627 3.36954 5.53938
199 4 -0.990433 4.61203 1.27176
200 4 -1.81153 5.26059 4.31146
202 2 0.738457 4.67732 1.51704
203 1 0.0786041 2.98475 0.799592
205 3 -1.39557 4.84254 2.72671
210 2 -1.02848 2.41608 0.799379
211 2 0.736925 2.72595 1.69582
119 2 2.72777 5.91462 0.739774
320 2 3.27738 0.663339 7.50729
10 4 4.01079 5.76903 6.52694
337 2 1.4484 -0.231693 5.93818
322 2 -4.13765 5.19947 5.49794
283 2 4.31617 0.314698 0.307706
61 2 7.2691 2.03364 4.56358
331 2 9.27437 -0.0223883 2.45924
204 1 -2.21697 5.43852 0.032735
213 2 -1.70038 6.51743 0.219409
357 2 -2.60955 4.47905 8.3639
2 4 3.93312 -0.609688 10.6967
6 4 4.05934 -0.101162 14.1296
287 2 7.4185 -0.907307 16.4776
32 1 5.80203 -0.335919 10.512
38 3 3.37678 -0.316767 12.2534
39 3 4.83748 -1.30602 14.7599
40 1 2.71212 0.198531 15.2857
50 3 5.05895 1.35568 13.957
52 1 2.64176 4.34305 10.8401
111 2 5.7086 0.533072 9.71433
112 2 6.53343 -1.0534 10.1661
113 2 5.94373 0.0360977 11.6585
114 2 1.82413 0.23029 14.5859
115 2 2.87667 1.25788 15.6904
116 2 2.82109 -0.646394 16.0325
129 2 2.89944 3.74475 9.88747
131 2 1.83475 3.73435 11.7051
118 2 5.49937 1.37792 17.3777
180 4 0.329052 0.973937 11.9437
185 2 1.9218 0.161311 12.2176
186 3 0.0729344 1.35952 10.408
188 1 0.552727 2.73216 12.838
196 2 0.20647 3.60468 12.2036
197 2 1.61507 2.72763 13.2052
198 2 -0.321671 2.37735 13.5991
45 2 4.32198 2.37618 9.03543
189 2 -0.642913 3.55968 8.88913
314 2 0.213101 -1.32525 14.3438
215 2 -0.77458 1.69056 16.6027
285 2 8.01011 -1.80425 14.8723
279 4 5.95525 -2.58238 15.392
212 2 1.89592 -0.243938 17.3079
281 1 7.65313 -1.92307 15.974
11 4 5.94983 2.69083 13.5164
286 2 8.22826 -2.68822 16.7168
53 3 4.95415 3.65889 12.3528
339 2 3.02976 0.256394 9.57786
179 4 -0.484152 1.87624 8.97366
126 2 7.53785 1.01048 12.898
258 2 1.0749 -2.7169 17.3433
358 2 -0.913627 5.20755 9.27454
143 2 -0.635617 12.5742 5.06489
257 2 -9.54005 13.8987 0.512908
31 1 -4.93434 11.966 1.77691
49 1 3.13036 7.43299 7.16895
55 1 2.39298 7.37597 3.98108
332 2 -2.47077 12.3962 2.99317
57 2 0.805614 8.47452 3.6277
59 1 -0.769086 11.479 5.27203
60 1 0.41666 9.28708 7.2313
1 4 -3.86022 13.5634 1.63482
108 2 -4.80429 11.247 0.917135
109 2 -6.02631 12.4177 1.89388
110 2 -4.38162 11.5818 2.72495
352 1 -3.78066 11.1376 6.36825
365 2 -2.76182 11.9846 7.34122
125 2 2.00783 7.65265 7.41088
236 2 -1.95677 10.103 0.602467
137 2 2.55955 7.41259 5.20675
141 2 -1.8947 11.3257 5.67038
145 2 0.113238 8.71584 6.27848
144 2 1.33525 8.77545 7.78909
248 2 -7.12835 11.477 7.77079
146 2 -0.499461 9.26484 7.95003
201 4 -2.30991 8.49197 4.24159
206 1 -2.05059 9.09082 2.39746
207 3 -1.97145 6.94893 4.47565
208 1 -4.21725 8.4957 4.57103
209 2 -1.52719 9.6439 5.35666
216 2 -1.36838 8.17539 2.1317
217 2 -1.5607 10.0238 2.60582
218 2 -2.91954 9.18605 1.71957
219 2 -4.44242 8.90527 3.47299
220 2 -4.55708 9.2483 5.38603
221 2 -4.51826 7.41837 4.76931
142 2 -0.482719 10.7925 4.42532
354 2 -3.64758 10.0251 6.53468
243 1 -7.20956 10.3196 7.87716
247 2 -6.33543 9.71682 7.50582
353 2 -5.5252 11.3869 6.39423
360 2 -4.57379 6.47963 7.81671
355 2 -3.60728 11.4012 5.29996
297 2 -4.43437 8.33673 8.37716
290 1 -4.01812 7.52736 7.68831
295 2 -4.04919 7.86182 6.54294
296 2 -2.25698 8.15628 7.78097
136 2 1.62236 6.66341 3.68229
56 3 2.41899 8.97935 1.40548
135 2 3.45887 7.06733 3.38821
47 2 2.22166 5.96062 6.34067
234 2 -0.764442 11.9887 0.401377
13 4 2.37671 9.03983 3.07304
282 2 -6.8665 10.7436 16.8915
44 1 2.54748 4.80464 16.5634
121 2 1.93371 5.61981 16.0951
74 1 -3.99531 6.93207 14.9057
280 1 -5.63508 10.6667 16.8141
252 1 -8.88257 10.5493 17.188
132 2 2.70643 6.13649 13.0829
348 1 -4.86753 9.88694 13.9816
162 2 -3.01803 6.51505 14.4079
163 2 -4.04473 6.95129 16.0765
164 2 -4.36518 8.00535 14.5491
166 2 -6.74211 9.4326 13.4993
233 3 -1.60062 10.1368 17.4697
338 2 -1.51915 7.24952 16.378
231 4 -0.551209 9.21423 16.734
232 1 -0.461885 7.34282 17.0427
12 4 4.26226 4.857 11.7389
235 2 0.456209 6.94732 16.4675
238 4 -7.14802 10.295 9.75774
336 2 -0.752834 10.7426 14.4036
241 2 -5.67833 9.51466 10.1418
242 3 -6.95882 11.7999 10.2724
140 2 -0.368665 11.8493 9.01756
120 2 3.00417 4.13457 15.7515
334 2 -0.139587 9.00264 14.2238
351 2 -5.24537 10.0835 12.9456
159 2 -4.4136 4.71277 13.3558
284 2 -5.31698 9.58858 16.4498
256 2 -8.41693 10.5528 16.1863
289 4 -2.57135 7.67073 11.9935
291 1 -1.92596 9.44855 12.1456
292 3 -2.57204 7.17879 10.397
293 1 -1.37702 6.65643 12.9367
294 2 -3.93552 7.23118 12.9454
298 2 -1.3002 9.80328 11.2481
299 2 -1.32787 9.56251 13.2884
300 2 -2.99807 9.84806 12.1146
301 2 -0.98164 5.69882 12.3923
302 2 -1.69874 6.38529 14.0254
303 2 -0.532659 7.44929 13.0006
333 1 -0.193049 9.92803 14.8911
349 2 -5.4757 9.2424 14.6632
350 2 -3.74037 9.51592 13.9629
122 2 2.00448 4.22022 17.3565
8 4 4.01099 5.63887 17.3626
134 2 3.98788 5.56361 14.2619
288 4 -2.60896 6.72678 8.86258
174 2 2.75603 7.7752 9.91319
54 1 3.8022 6.05654 13.2526
130 2 2.21909 5.35011 10.6436
67 1 11.3786 4.63242 8.44853
16 4 7.48257 6.50238 0.757921
17 4 10.3817 3.90436 6.96837
347 2 13.8762 1.02241 2.03865
324 2 14.8812 4.43458 3.80557
184 2 14.311 2.86836 7.34563
65 1 8.99015 2.62267 7.69268
66 1 11.5385 3.09461 5.57296
341 2 13.3482 3.27583 2.32393
62 3 5.26759 5.44448 2.60874
71 3 7.29878 5.66396 4.66305
72 3 9.44699 5.13895 6.22583
138 2 10.4223 -1.0011 7.56513
139 2 11.997 -1.35874 8.5646
147 2 8.70587 1.98237 6.75107
148 2 7.99071 3.03198 8.09584
150 2 11.1341 3.49647 4.61032
151 2 11.4117 1.98745 5.69487
152 2 12.5093 3.47552 5.88959
372 2 16.688 0.781945 3.83373
157 2 10.3859 5.9764 3.70033
177 4 15.7376 1.12409 7.83737
64 2 6.69089 5.38047 1.72243
223 1 11.6812 6.22473 0.492414
225 2 10.7689 5.88324 1.11211
343 2 11.8737 4.55567 1.63263
342 2 11.7755 3.85491 3.41477
259 4 11.9188 2.17157 1.02283
262 2 10.6027 2.57166 2.25096
304 4 15.4007 0.0949039 4.76611
305 1 14.8761 1.55972 3.68119
306 3 15.563 0.493482 6.28727
307 2 13.6713 1.19389 3.8298
308 2 15.2305 1.30126 2.6057
309 2 15.113 2.71408 4.05227
346 2 12.2424 -0.0126016 1.3954
340 1 12.1294 3.63976 2.3388
149 2 9.53151 2.02854 8.50534
344 1 13.0912 0.756693 1.11172
319 2 13.3084 1.85468 8.59632
345 2 13.6294 0.582232 0.150408
316 1 14.3395 2.2796 8.38192
182 3 17.1271 1.3953 8.48301
155 2 12.1671 3.86272 8.59032
68 3 6.56817 3.77897 8.76189
370 3 8.55638 5.83131 0.107771
323 2 15.915 3.59307 5.31232
317 2 14.7787 2.84217 9.22064
51 1 7.49713 2.0732 12.6565
187 1 17.8181 -0.00991581 12.3958
311 2 15.9191 -1.85988 14.2732
76 3 6.53495 3.55198 14.711
368 2 15.1353 -2.227 16.1366
127 2 8.31426 2.66749 13.0983
128 2 7.41104 2.26376 11.5366
369 2 16.7651 -2.85101 16.7346
310 4 17.4906 -2.64185 14.6505
161 2 13.3543 3.38712 14.0981
169 2 8.70042 4.53774 10.5755
153 2 10.6136 4.65072 9.27669
193 2 17.0696 0.257708 11.5406
315 2 19.6684 -2.2788 15.9581
77 3 7.76047 3.68393 17.2689
366 1 15.9321 -2.92201 15.863
260 4 12.3938 -0.0357412 15.5529
261 4 12.8389 -2.31798 13.1448
263 3 12.8339 -0.672215 17.1771
264 1 13.1711 1.64607 15.0629
265 1 10.4905 0.222862 15.8184
266 3 12.6729 -1.25983 14.3457
194 2 17.4839 0.224665 13.4275
269 1 11.6387 -1.85087 11.7799
270 2 13.3507 1.43741 13.9008
271 2 14.0982 2.11556 15.5807
272 2 12.1763 2.25088 15.2693
273 2 10.1896 0.346335 14.7078
274 2 10.32 1.24887 16.6
275 2 10.0396 -0.700887 16.1856
276 2 12.4463 -1.85131 10.9345
277 2 11.0486 -0.949885 11.8957
195 2 18.3065 -1.03 12.2418
318 2 14.5252 0.454178 9.02753
227 2 13.1671 2.47917 16.9465
312 1 18.8691 -1.64546 15.3645
313 2 18.3165 -0.809185 15.9454
73 1 13.4879 4.4128 13.6172
63 3 4.70747 6.16546 5.22406
23 4 7.13706 8.83738 2.89125
24 4 3.44125 11.1294 5.21915
25 4 5.63266 11.2665 1.75964
26 4 7.42232 7.99652 7.86099
28 4 5.84189 10.3714 6.82287
364 2 2.43884 11.5069 0.336368
156 2 8.98973 7.11475 3.04618
83 3 6.22418 7.8701 3.72415
84 3 8.10647 7.94078 1.7921
85 3 8.14432 10.1061 3.65796
86 3 2.81973 10.3178 3.92439
87 3 4.23616 12.6614 4.38367
88 3 2.11431 11.4372 6.13683
89 3 6.20735 9.87776 1.95167
90 2 4.98506 12.0191 3.08877
92 3 8.25627 7.67022 6.58565
371 3 6.72088 12.194 1.1405
97 3 7.1773 10.6509 6.00459
98 3 4.49409 10.4087 6.08677
99 3 5.79911 8.69559 7.48042
100 2 5.83749 11.4206 8.13659
255 2 8.50651 9.94191 0.599817
123 2 3.6296 8.29351 6.59956
70 1 9.61522 6.8134 3.9692
19 4 8.60742 6.17884 5.38444
158 2 10.1858 7.68614 4.49486
222 4 11.432 7.93123 0.329513
229 2 9.5498 11.4826 5.36546
228 4 8.40145 10.2482 5.18855
373 2 4.2663 11.1679 0.651282
230 2 9.19646 8.89394 5.86757
249 2 10.8348 9.9106 7.681
224 2 10.508 8.83907 1.37264
58 1 0.21605 12.3043 8.21839
251 1 9.09286 10.7142 0.0290847
91 3 7.08868 6.6598 8.62459
124 2 3.75764 7.20172 8.26271
15 4 5.90544 6.38209 4.18532
226 2 12.9552 7.35189 1.18255
154 2 11.7079 5.65132 8.15569
14 4 0.63953 11.117 6.70259
253 2 9.90598 11.2623 0.68181
18 4 6.61657 5.52472 9.58243
362 2 3.35324 7.6742 16.1653
21 4 6.78292 4.4905 16.0806
22 4 10.7976 7.24787 13.5757
27 4 4.52486 9.19761 10.4856
29 4 7.89247 7.13213 14.8942
30 4 6.95507 8.80726 12.6848
69 3 5.22265 5.58488 10.5168
75 3 13.1072 5.11407 16.4013
20 4 13.4172 5.79959 14.9121
78 3 5.47051 4.9006 16.715
244 2 9.18847 11.7337 10.4081
80 1 8.11483 5.4365 10.7642
81 1 11.1195 6.4131 11.8586
82 3 12.1033 6.86677 14.5301
254 2 10.9418 6.94456 16.6163
94 2 4.20437 10.8359 10.4451
95 1 3.02322 8.24977 10.9704
367 2 4.79538 10.091 15.7966
101 3 7.45609 5.92515 15.8694
102 3 9.3101 6.88437 14.1507
103 3 8.3186 8.39864 16.0857
104 3 8.28083 8.60994 11.6085
105 3 5.63308 8.91082 11.6012
106 3 6.71522 7.51459 13.7989
107 3 7.09888 10.164 13.5409
133 2 4.23589 7.05892 13.1198
335 2 0.809261 10.3445 15.3815
268 2 3.62176 11.2621 12.8651
240 3 10.6317 9.49673 10.3353
165 2 10.9364 9.23414 12.1312
167 2 10.4485 9.63045 13.9589
168 2 8.69588 6.41398 10.6225
170 2 7.50963 5.3379 11.7478
171 2 11.7963 5.43499 12.0774
172 2 11.6888 7.09963 11.2302
173 2 10.0669 6.0924 11.4877
175 2 2.35997 9.1526 11.3214
237 4 8.71799 9.34553 10.2718
239 1 8.1991 11.1419 10.5178
245 2 7.75184 11.1464 11.5494
250 4 9.22097 8.75689 17.286
246 2 7.44253 11.3544 9.67649
96 2 5.12752 9.01163 8.88557
278 2 0.229641 11.1521 11.8508
267 2 1.38616 10.1952 13.713
160 2 12.7407 4.66628 12.7137
361 1 4.16422 7.61077 16.9376
176 2 3.34207 7.4205 11.874
363 2 5.14179 7.96134 16.505
79 1 11.157 9.11668 13.2573
93 3 8.18051 9.0077 8.78784
ITEM: TIMESTEP
100
ITEM: NUMBER OF ATOMS
373
ITEM: BOX BOUNDS xy xz yz pp pp pp
-1.0794400000000000e+01 2.0438599999999997e+01 -1.0794400000000000e+01
-3.3389296999999996e+00 1.4050471249999999e+01 1.3894000000000000e+00
0.0000000000000000e+00 1.7550000000000001e+01 -3.3389296999999996e+00
ITEM: ATOMS id type x y z
3 4 4.6647 1.3567 2.84478
4 4 6.4611 -1.23337 7.02086
5 4 5.86909 1.47865 5.54642
7 4 4.19264 4.4368 2.09522
9 4 5.25899 3.39685 8.01326
117 2 2.3305 3.98744 0.54682
33 3 5.87713 0.56522 2.21295
34 2 3.35526 0.415608 2.43498
356 1 -1.44613 5.18735 8.50042
36 3 4.68757 1.36982 4.39906
37 3 6.20249 0.0461424 6.15852
41 3 4.31115 2.85223 2.32272
42 1 3.15078 4.87307 0.613815
43 2 2.57053 5.03771 2.44041
325 1 -0.19474 4.9561 5.5412
46 3 5.56519 2.48088 6.81382
214 2 -3.45059 5.70575 0.344654
48 3 4.29742 4.54679 7.58019
328 2 0.535917 4.87155 4.68469
321 1 -3.54735 4.54497 4.98173
359 2 -1.02324 5.04275 7.38182
204 1 -2.38615 5.53225 0.0963652
330 2 8.11091 -0.174614 4.08385
178 4 1.81555 1.19618 6.68866
35 2 5.99932 -1.04451 8.71338
181 1 2.0702 2.64771 5.4737
61 2 7.21766 2.23168 4.8994
183 3 0.729815 1.59813 7.76337
326 2 -0.627251 3.95162 5.95504
190 2 2.16623 1.93466 4.51111
191 2 3.0348 2.99879 5.94724
192 2 1.28691 3.4276 5.45593
199 4 -1.11393 4.76487 1.2522
200 4 -1.86382 5.25317 4.40028
202 2 0.653048 5.00858 1.23605
203 1 0.0207147 3.26823 0.682709
205 3 -1.58439 4.81555 2.73396
210 2 -1.00663 2.55809 0.756284
211 2 0.793657 2.93955 1.4097
119 2 2.8139 5.91911 0.551049
320 2 3.19857 0.430098 7.29187
331 2 9.19907 -0.38366 2.57496
337 2 1.20843 0.0248898 5.63712
322 2 -4.07838 5.27872 5.63825
257 2 1.39433 0.000691375 0.259885
2 4 4.03283 -0.691995 10.685
6 4 4.16748 -0.0641059 14.0683
287 2 7.83465 -1.1276 16.035
32 1 5.86024 -0.283532 10.5202
38 3 3.48647 -0.344703 12.2058
39 3 5.03219 -1.44178 14.64
40 1 2.83566 0.100815 15.303
50 3 5.09541 1.38255 14.1388
52 1 2.56049 4.56732 10.8344
111 2 5.60535 0.572022 9.61885
112 2 6.73248 -1.00994 10.3287
113 2 6.16254 0.28868 11.449
114 2 1.95024 -0.251915 14.5952
115 2 2.95315 1.19642 15.6589
116 2 3.19426 -0.729053 16.087
129 2 2.87199 3.97188 9.86359
131 2 1.81057 3.93242 11.5814
213 2 -0.382127 3.17864 17.4985
180 4 0.461236 1.02064 11.8982
185 2 2.04646 0.294899 12.0246
186 3 -0.0119327 1.42479 10.3485
188 1 0.649519 2.79502 12.8046
196 2 0.181471 3.61456 12.1601
197 2 1.62757 3.0306 13.2296
198 2 -0.114457 2.33672 13.6581
45 2 4.346 2.47797 9.081
189 2 -0.416572 3.61834 9.05459
314 2 0.372223 -1.48318 14.3495
215 2 -0.840681 1.47257 16.6647
285 2 8.13899 -2.34919 14.5997
279 4 5.84418 -2.65647 15.2903
212 2 1.85171 0.0406272 17.167
281 1 7.671 -2.16792 15.6158
11 4 6.00424 2.74142 13.7
286 2 8.19321 -2.89002 16.4338
53 3 5.02243 3.6212 12.4501
339 2 3.14635 0.370483 9.69455
179 4 -0.320965 1.89711 8.82428
283 2 5.46177 -2.64946 17.5482
120 2 2.74973 3.90094 16.1733
118 2 5.42197 1.3528 17.3468
357 2 -2.27182 4.42952 8.84197
329 1 -2.51278 13.2529 3.08395
327 2 -0.241093 5.90106 6.10424
31 1 -4.83752 11.7404 1.96788
49 1 3.16947 7.46784 7.18698
55 1 2.37136 7.35913 4.09577
332 2 -2.35796 12.1806 3.32876
57 2 0.841085 8.47361 3.64871
59 1 -0.567428 11.3667 5.20503
60 1 0.435985 9.17856 7.40342
1 4 -3.87857 13.4215 1.82086
108 2 -4.90303 11.2333 0.962924
109 2 -5.81424 11.9065 2.46611
110 2 -4.18278 11.2578 2.72463
352 1 -3.63168 11.3038 6.12819
365 2 -2.49076 12.1632 7.11189
125 2 2.12586 8.17607 7.20983
236 2 -1.92014 9.8906 0.557358
137 2 2.64777 7.50048 5.2119
141 2 -1.71579 11.3838 5.56141
145 2 0.864526 8.43797 6.62251
144 2 0.974472 9.20227 8.3768
248 2 -7.31507 11.1427 7.39503
146 2 -0.642022 9.1009 7.57299
201 4 -2.418 8.46815 4.23764
206 1 -1.99697 8.89284 2.42487
207 3 -1.96822 6.95604 4.44244
208 1 -4.31677 8.4678 4.68338
209 2 -1.63084 9.75204 5.21459
216 2 -1.16115 8.19948 2.22731
217 2 -1.64837 9.966 2.35336
218 2 -3.00113 8.70423 1.88029
219 2 -4.55042 8.79616 3.53924
220 2 -4.57106 9.1859 5.51261
221 2 -4.71243 7.43589 4.84092
142 2 -0.148713 10.525 4.59309
354 2 -3.40605 10.2593 6.30077
243 1 -7.22232 10.1528 7.89001
247 2 -6.27243 9.61904 7.60877
353 2 -5.27339 11.2514 6.55201
360 2 -4.62418 6.68704 7.97065
355 2 -3.50307 11.6653 5.01486
297 2 -4.09651 8.659 8.42225
290 1 -3.82431 7.75207 7.79042
295 2 -3.99595 7.97929 6.6847
296 2 -1.97909 7.96155 7.73272
136 2 1.43284 6.74943 3.89095
234 2 -0.754007 11.732 0.282423
135 2 3.32799 6.93761 3.50552
47 2 2.31421 6.04142 6.31324
140 2 -0.763498 11.9606 8.6822
56 3 2.38368 9.01234 1.56942
143 2 -0.385574 12.3459 4.67335
10 4 4.01994 5.79796 6.53758
122 2 0.426038 8.03927 0.102894
282 2 -6.93431 10.4938 16.8053
44 1 2.43073 4.86841 16.715
121 2 1.92414 5.60024 16.0252
74 1 -4.10687 7.01676 15.1722
280 1 -5.75998 10.5576 16.8206
252 1 -8.92073 10.5093 17.1827
132 2 2.69441 6.14674 13.122
348 1 -4.82364 9.8224 13.9435
162 2 -3.1447 6.63362 14.7328
163 2 -4.11077 6.97585 16.2856
164 2 -4.424 8.09748 14.7783
166 2 -6.71441 9.48457 13.4253
233 3 -1.66974 10.1172 17.5286
338 2 -1.85609 7.28856 16.968
231 4 -0.590479 9.17584 16.8082
232 1 -0.688153 7.22201 17.1621
12 4 4.2551 4.89462 11.6751
235 2 -0.184419 6.74837 16.2512
238 4 -7.09093 10.2818 9.72791
336 2 -1.21061 10.415 14.7299
241 2 -5.69844 9.49165 10.2531
242 3 -7.01211 11.8064 10.2015
79 1 -7.88443 9.20482 13.1426
159 2 -4.41192 4.80977 13.5251
334 2 -0.156469 8.91262 14.2139
351 2 -4.87439 10.0123 12.8647
130 2 2.21001 5.61256 10.6853
284 2 -5.22877 9.53527 16.9678
256 2 -8.8937 10.771 16.0793
289 4 -2.65589 7.56739 12.0605
291 1 -2.01227 9.36664 12.1268
292 3 -2.74045 7.12612 10.4179
293 1 -1.54741 6.47201 13.0959
294 2 -4.00781 7.2568 13.2313
298 2 -1.45534 9.70347 11.1677
299 2 -1.4346 9.46515 13.2003
300 2 -2.99052 9.87648 12.1882
301 2 -1.52985 5.4612 12.4764
302 2 -1.81521 6.37597 14.1966
303 2 -0.570667 7.24463 12.9003
333 1 -0.396372 9.67765 14.9819
349 2 -5.59943 9.08201 14.33
350 2 -3.82301 9.34742 14.2118
358 2 -0.674727 5.44167 9.30539
54 1 3.8198 6.01876 13.1947
134 2 4.14515 5.51762 14.1395
288 4 -2.59946 6.67531 8.87184
67 1 11.5713 4.5519 8.50742
16 4 7.48457 6.50305 0.750467
17 4 10.4385 3.95339 7.05877
347 2 13.8815 0.980859 2.00934
324 2 15.0313 4.35613 4.0338
184 2 14.7246 3.15602 7.42242
65 1 9.01235 2.59577 7.64299
66 1 11.365 2.99823 5.60113
341 2 13.4961 3.2642 2.07833
62 3 5.33638 5.44681 2.56394
71 3 7.34177 5.56314 4.80323
72 3 9.59208 5.14746 6.36676
138 2 11.2185 -0.818216 8.01541
155 2 12.6005 3.95546 8.422
147 2 8.83172 2.21531 6.62433
148 2 8.1369 3.16207 8.14886
150 2 11.4211 3.62546 4.66992
151 2 10.7912 2.02216 5.41706
152 2 12.4275 2.8458 6.13484
372 2 16.8222 0.531545 3.8608
157 2 10.314 5.8006 3.62481
177 4 15.6941 1.15984 7.71975
64 2 6.79459 5.35709 1.84414
223 1 11.596 6.2448 0.482093
225 2 10.5406 5.89812 1.10958
343 2 12.108 4.68057 1.6227
342 2 12.0501 3.8439 3.3174
259 4 11.8314 2.25246 1.01334
262 2 10.6772 2.60502 2.36215
304 4 15.4081 0.0782581 4.84052
305 1 15.1506 1.45493 3.52284
306 3 15.4875 0.667934 6.29604
307 2 13.7853 1.12751 3.7831
308 2 15.512 1.33994 2.45318
309 2 15.4604 2.47986 3.98867
346 2 12.1335 0.0393579 1.39419
340 1 12.3218 3.67222 2.25938
149 2 9.68365 1.88091 8.28868
344 1 13.0481 0.814397 1.10819
319 2 13.3836 1.78821 8.17021
345 2 13.5723 0.583144 0.03649
316 1 14.3499 2.32868 8.35144
182 3 17.2062 1.40092 8.37549
370 3 8.58997 5.85395 0.182539
323 2 15.681 3.60995 5.56967
258 2 18.5731 0.320128 0.222974
226 2 12.9193 6.76745 1.34634
317 2 14.246 2.95668 9.31063
51 1 7.60812 2.28356 12.8319
187 1 17.9897 0.0869628 12.5254
311 2 15.9005 -1.82115 14.4227
76 3 6.61774 3.62923 14.8848
368 2 14.9489 -2.50398 16.1656
127 2 8.3414 2.76389 13.5961
128 2 7.46993 2.92961 11.8581
68 3 6.53049 3.82162 8.86519
310 4 17.5132 -2.66523 14.6257
161 2 13.5291 3.3956 14.2231
169 2 8.57429 4.06523 10.6348
153 2 11.0177 4.29113 9.43898
193 2 17.1866 0.208531 11.7559
313 2 18.4548 -0.843176 15.7779
126 2 7.80907 1.21543 12.6701
315 2 19.678 -2.37768 16.0735
260 4 12.2703 0.020239 15.5823
261 4 12.5712 -2.37805 13.2496
263 3 12.8947 -0.54321 17.1153
264 1 13.3392 1.5817 15.1318
265 1 10.4475 0.500031 15.6828
266 3 12.2587 -1.02055 14.3413
194 2 17.7197 0.491792 13.528
269 1 11.8283 -1.89828 11.6192
270 2 13.6433 1.46749 14.0815
271 2 14.1555 1.90969 15.7867
272 2 12.3805 2.29829 15.1931
273 2 9.89626 0.857102 14.7036
274 2 10.2794 1.34125 16.5844
275 2 10.0582 -0.4952 16.0292
276 2 12.8189 -1.40168 11.2306
277 2 10.8913 -1.21209 11.7494
195 2 18.568 -0.950472 12.5603
318 2 14.4307 0.496282 8.89224
227 2 13.1719 2.35095 16.9637
312 1 18.9276 -1.7624 15.3254
63 3 4.83318 6.12689 5.23303
23 4 7.17242 8.81735 2.80947
24 4 3.41607 11.0526 5.20243
25 4 5.63101 11.2842 1.67962
26 4 7.51446 7.95207 7.91775
28 4 5.84942 10.1946 6.8721
364 2 2.60816 11.7673 0.0841803
156 2 9.15572 7.18879 3.05984
83 3 6.24844 7.83116 3.79478
84 3 8.17244 7.97392 1.86752
85 3 8.27504 9.85796 3.65266
86 3 3.03945 10.1392 3.97765
87 3 4.27874 12.6215 4.41449
88 3 2.15312 11.3877 6.22028
89 3 6.10921 9.78911 1.93311
90 2 5.00948 12.0074 3.10561
92 3 8.33818 7.68708 6.62062
371 3 6.70699 12.2511 1.11321
97 3 7.23216 10.6025 6.0805
98 3 4.52704 10.325 5.92129
99 3 5.86238 8.77217 7.56281
100 2 5.70115 11.363 8.07413
255 2 8.60644 9.88074 0.833675
123 2 3.88844 8.19446 6.59736
70 1 9.7515 6.74232 3.93045
19 4 8.66838 6.23405 5.34276
158 2 10.4652 7.50499 4.43105
222 4 11.492 7.89718 0.460096
229 2 9.44196 11.5523 5.14658
228 4 8.3948 10.2675 5.17378
373 2 4.16359 11.3745 0.70771
230 2 9.23104 9.00203 5.96955
249 2 10.8503 9.444 7.83675
224 2 11.0691 9.02889 1.67871
58 1 0.266378 12.1522 8.32006
251 1 9.00954 10.6614 0.156477
91 3 7.18957 6.59301 8.75936
124 2 3.58818 7.23172 8.28888
15 4 5.98677 6.32441 4.21437
13 4 2.40913 9.00348 3.13231
154 2 11.7485 5.62775 8.34219
14 4 0.691253 11.1236 6.82363
253 2 9.81252 11.3508 0.645186
18 4 6.61883 5.5086 9.7389
362 2 3.31182 7.40441 16.091
21 4 6.84042 4.5778 16.2163
22 4 10.8404 7.28924 13.494
27 4 4.59086 9.29186 10.5728
29 4 8.01256 7.26078 14.897
30 4 6.97044 8.80886 12.635
69 3 5.44959 5.9079 10.7345
75 3 13.1359 5.13957 16.5485
20 4 13.3135 5.81037 15.087
78 3 5.27286 4.92899 16.8582
244 2 9.04095 11.8255 10.8085
80 1 8.17256 5.13166 10.8634
81 1 11.101 6.2788 11.9076
82 3 12.1448 6.60691 14.4284
254 2 10.763 6.82482 16.7207
94 2 4.5359 10.9836 10.0687
95 1 3.14199 8.28411 10.9617
367 2 4.67578 9.95398 15.342
101 3 7.51014 5.95153 15.6276
102 3 9.39636 6.89099 14.0438
103 3 8.36851 8.49345 15.958
104 3 8.13965 8.74091 11.4937
105 3 5.60596 9.03778 11.7452
106 3 6.75541 7.64347 13.7563
107 3 7.00211 10.2665 13.5203
133 2 4.28619 7.03695 13.1534
335 2 0.807117 10.309 15.685
268 2 3.36519 11.2456 13.0982
240 3 10.6487 9.58072 10.297
165 2 10.8706 9.36319 12.0375
167 2 10.4465 9.68992 13.8096
168 2 8.76727 6.07253 10.4131
170 2 7.82743 5.34457 11.9415
171 2 12.101 5.57735 12.115
172 2 11.3052 7.15868 11.1785
173 2 10.1541 5.64521 11.723
175 2 2.44949 9.12766 11.2755
237 4 8.71177 9.59941 10.2527
239 1 8.01359 11.3153 10.4521
245 2 7.17362 11.2871 11.2657
250 4 9.12953 8.76228 17.4422
246 2 7.65905 11.6608 9.44108
96 2 5.25696 8.8037 9.04693
278 2 0.74113 11.0942 11.2302
267 2 0.978277 10.1791 13.6792
93 3 8.23483 9.09513 8.85203
361 1 4.2615 7.6128 16.8389
176 2 3.34412 7.44549 11.7961
363 2 5.11081 7.94305 16.2444
366 1 5.0746 10.9024 15.8012
73 1 13.5365 4.46676 13.7955
160 2 12.6794 4.61899 12.8736
139 2 1.06902 11.8189 9.13205
369 2 5.91849 10.6983 16.6454
174 2 2.95144 7.89362 9.91729
8 4 3.96701 5.72167 17.4261
77 3 7.81351 3.7575 17.2536
ITEM: TIMESTEP
200
ITEM: NUMBER OF ATOMS
373
ITEM: BOX BOUNDS xy xz yz pp pp pp
0.0000000000000000e+00 2.8693399999999997e+01 8.2547999999999995e+00
-3.3372593999999998e+00 1.4043442499999999e+01 1.3894000000000000e+00
0.0000000000000000e+00 1.7550000000000001e+01 -3.3372593999999998e+00
ITEM: ATOMS id type x y z
3 4 4.55658 1.42172 2.86069
4 4 6.47915 -1.26448 7.11554
5 4 5.92192 1.52837 5.48428
7 4 4.17723 4.40131 2.05739
9 4 5.21148 3.42025 7.87859
342 2 12.0026 3.77194 3.45517
33 3 5.66609 0.587152 2.18729
34 2 3.12444 0.611063 2.50651
337 2 1.69686 -0.109327 5.75478
36 3 4.67641 1.4349 4.50077
37 3 6.14845 0.090325 6.3106
41 3 4.39804 2.88322 2.34516
42 1 3.16855 4.99421 0.592331
63 3 4.8731 5.978 5.29047
320 2 3.30683 0.890154 7.60945
46 3 5.70119 2.65349 6.61513
191 2 3.21752 3.00328 5.79744
48 3 4.24612 4.64178 7.63312
68 3 6.48861 3.86136 8.79168
61 2 7.30784 1.83565 4.63048
154 2 11.9545 5.36998 8.21917
330 2 8.07449 -0.0239679 3.9174
67 1 11.6729 4.30532 8.56407
343 2 12.0638 4.58504 1.71139
16 4 7.59563 6.67237 0.641971
17 4 10.3681 3.86063 7.07386
370 3 8.59983 5.87405 0.0469954
65 1 9.04428 2.69885 7.94267
66 1 11.3958 3.02901 5.66038
62 3 5.34028 5.45901 2.65573
71 3 7.51259 5.57552 4.61233
72 3 9.6643 5.05953 6.31558
283 2 4.34175 0.517901 0.0249647
155 2 12.5958 3.54582 8.44855
147 2 8.7942 1.94663 7.13791
148 2 8.11979 3.25022 8.21404
150 2 11.2399 3.44601 4.54066
151 2 10.8114 1.98479 5.8372
157 2 10.7607 6.02018 3.88652
64 2 6.56563 5.58733 1.6192
223 1 11.7527 6.2223 0.54018
262 2 10.7663 2.55304 2.35111
225 2 10.601 6.00097 1.11914
190 2 2.19964 2.11314 4.41294
2 4 3.99207 -0.657907 10.6402
6 4 4.1617 -0.122398 14.0428
287 2 7.66309 -1.14989 16.1748
32 1 5.81396 -0.397663 10.5818
38 3 3.55149 -0.171856 12.3572
39 3 5.08766 -1.36669 14.6683
118 2 5.45123 1.25379 17.3334
50 3 5.06594 1.26642 14.1505
264 1 13.1993 1.5086 15.1258
111 2 5.82853 0.378836 9.72909
112 2 6.56089 -1.29784 10.4572
113 2 5.80091 0.10087 11.7657
339 2 2.95326 0.121957 9.46743
53 3 4.97928 3.63223 12.5193
116 2 2.59682 -1.09518 15.7081
286 2 8.27953 -2.96584 16.6285
11 4 5.87234 2.70167 13.6333
281 1 7.70069 -2.21869 15.8262
279 4 5.94882 -2.77092 15.3388
285 2 8.06729 -2.26799 14.7794
35 2 6.09808 -1.24602 8.78611
51 1 7.48147 2.06611 12.894
76 3 6.34459 3.65834 14.8466
227 2 13.2115 2.38277 16.9049
127 2 8.25539 2.58732 13.59
128 2 7.29054 2.51787 11.8108
265 1 10.2535 0.407013 15.6687
260 4 12.0849 -0.0631726 15.6554
275 2 9.80564 -0.542432 16.1462
274 2 10.1911 1.39928 16.4576
273 2 9.93277 0.535329 14.5619
272 2 12.2747 2.28344 15.1383
161 2 13.4984 3.36981 14.3715
169 2 8.39543 4.08 10.7778
153 2 10.8892 4.17431 9.44091
126 2 7.51444 0.913856 12.9191
45 2 4.31775 2.37554 8.83226
149 2 9.51183 2.20427 8.85838
329 1 16.5201 13.2864 3.11434
295 2 15.108 8.11877 6.498
31 1 14.0881 11.6235 1.8327
290 1 15.3288 7.69542 7.62908
297 2 14.8781 8.40209 8.34791
332 2 16.5597 12.2379 3.55886
355 2 15.75 11.9535 5.02293
257 2 9.50208 13.7044 0.412762
353 2 13.8809 11.2315 6.46174
1 4 15.0999 13.2597 1.84796
108 2 14.0406 11.3539 0.745179
109 2 13.0764 11.8085 2.28352
110 2 14.7883 10.9883 2.4594
352 1 15.5906 11.4612 6.00544
365 2 16.5357 12.1271 7.2113
247 2 12.7316 9.64082 7.64224
243 1 11.7786 10.3048 7.93697
354 2 15.9746 10.4027 5.94513
221 2 14.2318 7.79312 4.92199
220 2 14.6941 9.59719 5.32885
219 2 14.5981 9.13889 3.41496
248 2 11.7498 11.3782 7.61826
208 1 14.7639 8.73862 4.57266
360 2 14.6387 6.40691 7.79226
253 2 9.8361 11.2204 0.8901
23 4 7.13751 8.83217 2.8281
226 2 13.0864 6.84095 1.37339
26 4 7.5454 8.04332 7.93307
15 4 6.08399 6.32498 4.20924
156 2 9.42115 7.13062 3.1468
89 3 6.18854 9.86356 2.02681
233 3 15.9471 13.305 0.153198
83 3 6.28542 7.80694 3.78475
224 2 10.9415 8.96499 1.71601
249 2 10.8089 9.77541 7.7187
230 2 9.24754 9.04605 6.17374
84 3 8.2259 7.84997 1.79284
228 4 8.43816 10.2235 5.22115
229 2 9.65901 11.3982 5.35524
222 4 11.5963 7.92411 0.554673
158 2 10.2931 7.78223 4.78374
19 4 8.7456 6.18661 5.36979
70 1 9.94569 6.81473 4.10649
85 3 8.26595 9.7748 3.75336
255 2 8.49047 10.0265 0.188273
92 3 8.31453 7.76676 6.4572
331 2 17.4192 13.5424 2.51602
282 2 12.1281 10.5503 16.9248
350 2 15.2898 9.55562 13.7808
349 2 13.5351 8.98947 14.2172
74 1 14.9714 7.04459 15.225
280 1 13.3034 10.49 16.7956
252 1 10.1129 10.6432 17.1832
300 2 16.0551 9.68622 11.9538
348 1 14.1948 9.78544 13.7953
162 2 15.9579 6.49586 14.9484
163 2 14.8854 7.11614 16.3732
164 2 14.6983 8.04572 14.691
166 2 12.255 9.44317 13.3817
167 2 10.4428 9.54965 13.8323
294 2 15.1602 7.02027 13.2805
291 1 17.0725 9.32222 12.2056
256 2 10.5974 10.6187 16.1603
284 2 13.7294 9.41524 16.5679
351 2 13.8592 10.2839 12.8589
238 4 12.0978 10.2747 9.73085
336 2 17.662 10.4168 14.729
241 2 13.3387 9.18169 10.197
242 3 12.318 11.8678 10.1967
79 1 11.1592 9.12258 13.1014
159 2 14.6652 4.83694 13.5178
18 4 6.79211 5.44452 9.7643
77 3 7.92927 3.81922 17.0847
21 4 6.83796 4.58643 16.1368
22 4 10.9904 7.24652 13.5336
29 4 8.04077 7.18231 14.8265
75 3 13.1642 5.20614 16.5934
160 2 12.8982 4.62606 12.8631
73 1 13.5781 4.49658 13.8308
20 4 13.3512 5.84585 15.0733
165 2 10.8825 9.34513 11.9568
80 1 8.02706 5.13695 11.1335
81 1 11.1467 6.14116 12.0099
93 3 8.35455 9.11793 8.89136
82 3 12.1585 6.808 14.5971
254 2 11.158 7.55105 16.5684
101 3 7.57513 5.87049 15.5961
102 3 9.40536 6.92794 14.0332
250 4 9.10965 8.86769 17.2836
103 3 8.49503 8.46221 15.8242
104 3 8.20376 8.99181 11.632
237 4 8.76044 9.64672 10.3282
240 3 10.632 9.76486 10.3321
173 2 10.1097 5.72946 11.7962
172 2 11.322 7.04162 11.3111
171 2 11.9037 5.29575 12.1188
170 2 7.47085 5.10494 12.1212
168 2 8.90899 5.8477 11.1804
91 3 7.37918 6.66422 8.86699
299 2 17.4704 9.65967 13.2083
69 3 5.39104 5.68287 10.6087
251 1 10.5663 7.6199 17.5123
244 2 9.20744 11.95 10.2359
213 2 17.211 6.64716 0.356231
323 2 16.2691 3.47783 5.69286
182 3 17.18 1.70349 8.2949
347 2 13.6293 0.738459 1.9377
324 2 14.8918 3.96638 4.38606
184 2 14.9122 3.34595 7.95928
316 1 14.2342 2.2795 8.33896
327 2 18.9923 5.86862 6.13821
341 2 13.4364 3.1752 2.23797
319 2 13.3342 1.98189 7.62239
344 1 12.9212 0.672285 0.995479
340 1 12.2964 3.656 2.33196
138 2 11.9716 -1.35118 8.57383
346 2 12.0095 -0.0674937 1.15468
309 2 15.635 2.33558 3.67534
308 2 15.2077 1.1775 2.19406
307 2 13.8033 1.26989 3.85652
306 3 15.5806 0.64281 6.18959
178 4 21.0405 1.28989 6.64912
372 2 16.8094 0.547416 3.84446
305 1 15.1411 1.39433 3.27628
177 4 15.774 1.30039 7.79513
304 4 15.348 0.0840512 4.69929
259 4 11.8557 2.18236 1.03085
117 2 21.25 4.52935 0.51621
356 1 17.707 5.38447 8.57847
322 2 15.2158 5.08172 5.85612
43 2 21.6322 4.95635 2.44646
325 1 18.8653 4.88131 5.56193
214 2 15.7186 5.48069 0.599531
119 2 22.0998 6.13826 0.580282
211 2 19.659 2.74522 1.30896
210 2 17.9306 2.59327 0.473458
205 3 17.6133 4.86792 2.80615
203 1 18.9698 3.20508 0.526778
202 2 19.5158 5.04093 0.711183
200 4 17.1958 5.27232 4.49074
199 4 17.8434 4.6986 1.24535
192 2 20.3559 3.48797 5.48324