ITEM: TIMESTEP
0
ITEM: NUMBER OF ATOMS
274
ITEM: BOX BOUNDS xy xz yz pp pp pp
-8.3797999999999995e+00 1.8013900000000000e+01 -8.3797999999999995e+00
0.0000000000000000e+00 1.3273200000000001e+01 1.1950000000000001e+00
0.0000000000000000e+00 1.6075500000000002e+01 4.3120000000000003e-01
ITEM: ATOMS id type q x y z
119 2 -0.0213965 7.35725 1.57263 5.14972
5 4 1.27832 0.517768 1.92119 0.297227
7 4 1.16878 1.26329 2.15697 5.38329
9 4 1.30547 -0.18009 4.3815 1.97218
10 4 1.59218 0.282691 4.41153 7.33326
242 1 -0.672744 3.19903 0.44963 3.23371
21 4 0.789122 5.71806 1.87379 5.48021
26 4 1.26139 5.39153 4.91552 6.93932
41 1 -0.707435 2.06168 0.678004 6.28983
44 1 -0.682224 3.82269 3.71854 1.53513
55 3 -0.779624 1.14953 0.679784 1.23629
56 3 -0.828989 -0.0339598 1.91639 4.55729
58 3 -0.808618 -1.23033 3.58403 2.84419
59 3 -0.818637 0.707063 3.44561 1.05431
243 2 0.178778 3.08328 1.41604 2.68804
61 3 -0.782296 1.26435 3.3557 6.36949
62 3 -0.818742 -0.590712 5.30312 6.22391
74 3 -0.787381 5.48322 0.82428 7.03588
78 3 -0.851948 0.659864 5.44597 2.75082
81 3 -0.769897 5.6183 3.44465 5.86162
84 3 -0.772574 2.84668 5.82943 4.14268
85 3 -0.786392 4.71571 6.20213 6.17717
99 3 -0.838308 8.20051 1.2472 7.81447
111 2 0.00425382 2.66129 2.04908 4.32282
112 2 -0.0172739 -1.09605 5.28284 0.979583
244 2 0.152463 2.81553 0.415307 4.35013
118 2 -0.0134506 4.35886 1.42411 4.46352
133 2 0.21846 1.84878 0.857449 7.3679
134 2 0.167259 3.15396 0.515718 6.13229
223 2 -0.0950848 6.23908 1.11295 3.73173
141 2 0.17755 4.08679 2.64891 1.27877
142 2 0.246722 2.74842 3.95664 1.30844
143 2 0.204065 4.17818 4.07922 2.57078
220 4 1.01013 6.82519 0.295365 2.06189
222 3 -0.778077 6.12851 1.12279 0.908121
113 2 -0.000156869 -1.95885 6.3464 4.37579
24 4 1.27033 4.99984 4.67363 0.418657
248 2 0.163266 3.39208 3.38942 14.8333
8 4 1.3001 1.72025 2.39377 10.4527
13 4 1.26628 0.175405 4.40577 12.3541
14 4 1.52655 -1.44023 6.46994 10.7726
20 4 1.27299 4.63071 3.15762 9.25904
23 4 1.19711 7.00698 2.56723 11.1231
27 4 1.36781 1.39017 6.55584 9.36429
77 3 -0.756915 7.0364 4.01375 15.6102
42 1 -0.653744 2.04117 1.02858 11.7078
57 3 -0.799903 0.396411 1.72876 9.5003
63 3 -0.825855 -0.444467 3.54889 13.5537
64 3 -0.833877 1.16799 3.59998 11.5101
65 3 -0.825014 -2.57308 6.16823 9.60788
66 3 -0.833928 -1.09585 4.98747 11.5218
73 3 -0.80165 3.16134 2.75259 9.84172
75 3 -0.824147 5.70222 3.23786 10.4485
76 3 -0.840192 6.64996 0.964644 11.6035
80 3 -0.783986 4.65847 4.45414 8.35951
82 3 -0.826426 1.20694 5.40608 8.24512
86 3 -0.805639 2.57518 6.46056 10.4213
114 2 -0.0263517 1.00432 5.6208 13.0853
137 2 0.175006 3.16348 0.933939 11.927
124 2 -0.0513958 4.01029 5.74358 12.5214
136 2 0.154518 1.46135 1.25223 12.6629
179 4 1.24467 7.30544 2.29291 15.4065
183 1 -0.69261 5.859 1.61926 14.3925
60 3 -0.819413 -0.749779 3.48444 8.13961
195 2 0.243854 6.14074 1.31994 13.3091
196 2 0.172383 5.07447 2.44484 14.417
197 2 0.212255 5.59151 0.728958 15.0439
227 3 -0.834584 5.26994 6.09907 15.6783
228 2 -0.0502737 3.02235 6.66757 14.323
245 1 -0.670961 2.75083 2.4239 14.7472
246 2 0.178675 2.02133 2.42639 13.8432
247 2 0.177854 3.31977 1.4645 14.8736
117 2 0.0985921 5.07464 1.87228 8.18961
71 3 -0.799936 -2.71671 6.7254 14.2958
262 3 -0.791956 0.112714 2.22611 15.8515
1 4 1.27586 -6.47449 12.3304 1.99179
3 3 -0.784013 -5.77946 11.4739 0.757769
265 2 0.160022 -4.29719 12.4766 2.7214
16 4 1.53909 -2.87447 8.49799 7.05394
17 4 1.22777 -4.12539 10.2878 4.78168
271 2 0.170722 0.772786 10.4575 1.91462
30 4 1.08055 2.74238 8.63807 1.45904
31 4 1.26306 -1.88268 10.1589 2.85496
33 4 1.13192 -0.0297726 11.0124 5.32382
48 1 -0.653129 -1.06712 8.72359 1.74885
49 1 -0.650416 0.755239 9.65653 6.53402
67 3 -0.814802 -3.86551 7.14295 7.46196
68 3 -0.828787 -1.44977 7.89606 6.42951
252 2 0.205574 -4.97229 8.53534 1.53637
70 3 -0.849191 -3.54704 9.38938 5.93286
79 3 -0.823659 0.486542 7.10129 4.88372
87 3 -0.834134 2.03064 7.80925 2.61261
88 3 -0.814197 2.87532 7.89567 0.112382
89 3 -0.791198 -1.8994 11.5325 2.00984
90 3 -0.77282 -3.53619 9.89476 3.26687
93 3 -0.801904 -0.852535 10.2117 4.07848
94 3 -0.856038 -0.835255 12.0825 6.17436
115 2 -0.014888 -3.54273 11.8269 5.21982
147 2 0.196362 1.90128 7.77212 7.22983
151 2 0.198513 -0.0103384 9.23507 1.5042
152 2 0.174314 -1.77983 8.60778 0.860951
153 2 0.178214 -1.01327 7.80477 2.43922
135 2 0.223559 -6.94671 12.7066 5.88755
155 2 0.263903 0.733883 8.57966 6.0248
156 2 0.231636 0.0428872 9.68328 7.38265
251 1 -0.649486 -5.22971 8.79009 0.457449
161 2 0.200636 -1.05914 9.96647 0.158798
28 4 1.20165 4.13647 6.77548 4.81539
19 4 1.33835 -1.2758 12.9917 7.39493
12 4 1.34589 -0.852764 6.67659 5.56453
69 3 -0.831189 -5.76212 10.4775 4.57671
154 2 0.143672 1.79835 9.96876 6.83111
272 2 0.189259 1.3778 10.3007 0.129026
47 1 -0.673729 1.6289 10.2301 1.17217
25 4 1.47936 1.53499 6.54592 3.51881
15 4 1.06835 -4.16667 10.8237 15.6868
18 4 1.25277 -2.30725 8.0658 13.3793
22 4 1.23511 -0.612302 12.6318 11.7541
32 4 0.997588 -2.60517 10.8494 9.12403
35 4 1.21025 -1.27696 10.7144 14.0675
268 2 0.158796 -3.24303 8.77791 15.7586
46 1 -0.639328 2.09706 8.03832 8.33009
157 2 0.172063 1.96425 10.1359 10.5523
51 1 -0.643422 0.0263731 11.187 15.3709
162 2 0.230733 -0.35708 12.2291 15.6804
72 3 -0.814551 -2.01607 7.536 11.9432
83 3 -0.806187 -0.117612 7.07223 10.1409
91 3 -0.822042 -2.68929 9.52852 8.27791
92 3 -0.811602 -1.40528 11.7468 8.91852
95 3 -0.851163 3.89084 8.21838 11.7191
96 3 -0.778694 -1.16724 8.92914 13.9292
97 3 -0.845407 -1.05018 11.3961 12.6386
98 3 -0.782578 -2.84163 11.1167 14.8696
116 2 -0.0429617 -3.69185 8.96466 13.3912
120 2 0.094071 -0.376765 11.956 10.2322
126 2 -0.000609562 -2.69138 10.4133 10.799
127 2 -0.0249925 -3.99704 11.7997 8.90056
128 2 0.0353671 2.0173 10.0913 12.8235
187 3 -0.806619 0.851974 13.1398 12.1862
148 2 0.180343 3.19093 8.03378 8.60152
139 2 0.161301 -4.99365 11.4688 13.3151
160 2 0.162358 0.96489 11.2997 14.7333
138 2 0.148827 -6.7475 12.912 11.1754
149 2 0.17082 1.49388 8.9568 8.73374
29 4 0.959689 3.86863 6.73843 11.2517
43 1 -0.662781 -5.89217 11.2008 13.8939
140 2 0.167543 -6.00267 12.0254 14.6241
226 4 0.973025 4.41911 7.23185 15.1294
235 2 0.16938 11.5233 1.59988 2.52613
37 4 1.26039 12.8702 2.12204 5.53814
38 4 1.01708 6.55671 6.45671 2.79676
39 4 1.34318 11.2041 4.16644 7.27492
45 1 -0.679248 7.12862 5.60647 7.45154
54 1 -0.672334 10.228 5.60698 6.46512
101 3 -0.764362 14.2164 2.85971 5.08368
102 3 -0.819881 13.2711 0.776867 6.41727
103 3 -0.757197 6.12088 5.53847 1.61731
4 4 1.53316 15.3656 2.28787 3.92756
106 3 -0.804939 11.8501 3.22528 6.07539
255 2 0.157884 9.75306 0.216132 4.81154
129 2 0.00139703 12.0307 1.37778 4.25654
130 2 0.0495891 7.8211 5.56081 3.75098
267 2 0.149867 11.3679 6.17248 0.490176
250 2 0.169695 10.3114 4.50243 0.0567851
146 2 0.183934 7.76663 4.6865 7.40623
105 3 -0.795746 10.005 3.27923 7.94352
169 2 0.209124 10.8068 6.52724 6.66405
170 2 0.178681 9.09697 5.65111 6.76688
171 2 0.167611 10.3521 5.27132 5.37353
221 1 -0.637202 8.63696 0.299339 1.65922
224 2 0.189661 8.66874 0.990097 0.734502
225 2 0.105427 8.94621 0.881341 2.73586
231 1 -0.684758 11.8386 0.569641 2.49074
232 3 -0.814265 14.6857 1.02234 3.14075
266 2 0.0538591 12.7567 3.99056 0.133636
249 1 -0.61396 11.4009 4.9477 0.234289
234 2 0.172717 11.6975 0.16181 1.40814
145 2 0.164575 7.35618 6.40634 6.71302
11 4 1.46315 12.8662 6.30835 8.84294
36 4 1.32469 9.14094 2.16751 8.78292
52 1 -0.671209 10.5496 1.01656 9.42648
188 3 -0.807096 8.62571 1.82114 14.641
100 3 -0.817384 8.24185 2.65049 10.0729
107 3 -0.804514 12.2507 4.64873 8.41621
110 2 0.0277279 14.6226 2.9511 10.3973
203 2 0.170259 8.75865 6.27562 9.26357
123 2 -0.0178854 5.25009 6.33882 10.5057
163 2 0.179421 11.4953 1.51439 9.08377
6 4 1.30434 15.7441 2.30051 9.12163
165 2 0.220948 10.4304 1.05205 10.553
172 4 0.971702 15.9235 2.3843 14.6003
173 1 -0.651964 14.3482 1.15638 14.0359
174 2 0.0352738 14.145 2.59973 15.0675
175 2 0.084283 15.5715 0.708285 13.733
176 2 0.152051 13.7863 1.47752 13.1108
263 3 -0.861773 14.7711 1.28273 8.452
178 4 1.03289 13.2165 5.46918 14.714
180 4 1.19244 9.88561 1.4226 13.5811
181 4 1.27142 11.5457 4.04443 12.2712
184 1 -0.676971 11.1572 0.500413 14.5463
185 1 -0.707518 12.9463 3.49549 11.0768
121 2 0.00178367 7.35024 3.60252 12.4374
189 3 -0.768534 10.6682 2.75528 12.7826
190 3 -0.779838 12.3335 4.69787 13.4529
192 3 -0.752905 10.5557 5.42314 11.5052
144 2 0.179233 7.14 6.03137 8.49507
199 2 0.177465 12.042 1.20796 14.5481
200 2 0.25684 12.6021 3.83076 10.0663
201 2 0.140335 12.8416 2.37401 11.3356
202 2 0.241865 13.8741 4.04213 11.4333
177 2 0.200146 13.7557 0.409944 14.6697
2 3 -0.76778 9.14753 11.4838 2.96151
270 2 0.174929 0.786735 12.0607 1.4489
207 4 1.29126 5.76883 13.0271 7.60607
53 1 -0.636485 8.40273 7.15947 3.3238
104 3 -0.814529 5.33746 6.95098 3.74333
122 2 -0.0309942 3.60116 8.34243 5.10856
125 2 -0.025603 4.30083 9.03375 1.94901
150 2 0.128535 2.54807 10.9335 1.41508
166 2 0.0707377 7.78991 7.9324 2.07739
168 2 0.150448 8.29476 7.76433 4.2726
206 4 1.19777 9.56296 10.45 4.1905
215 2 0.170043 7.12542 8.15783 7.03561
208 4 1.10753 7.6145 10.5481 6.8837
209 1 -0.660333 6.47309 9.04439 6.78592
253 2 0.109445 10.4356 8.38896 0.251767
211 3 -0.767712 8.61909 10.5428 5.6143
212 3 -0.806256 6.81684 11.9103 7.10629
213 2 0.0119732 9.44956 8.86104 3.42119
254 1 -0.67751 1.4946 11.9489 4.55619
216 2 0.166238 6.04834 9.01065 5.70453
217 2 0.141748 5.6403 9.27855 7.56335
239 2 0.109774 6.89717 9.1735 1.13592
230 4 1.13334 5.309 12.7519 2.6439
237 1 -0.672766 7.78039 9.95315 0.564397
238 3 -0.770979 5.60141 11.9364 1.1729
240 2 0.222536 8.3725 10.5395 1.34368
257 2 0.134503 2.33007 11.3681 5.10248
256 2 0.158028 1.50891 11.7838 3.4177
258 1 -0.663203 5.38712 11.2763 3.90128
259 2 0.149564 5.49584 10.2743 3.31965
260 2 0.141739 4.35398 11.5216 4.33947
261 2 0.227688 6.2171 11.5199 4.61867
167 2 0.157554 9.53589 6.9352 3.15679
233 2 0.159992 2.81429 12.8385 3.24605
34 4 0.999686 3.72817 9.67376 12.2549
40 4 0.91254 6.32826 10.6918 13.3274
108 3 -0.822736 4.80969 10.3758 13.175
109 3 -0.824898 6.92616 11.0467 14.7149
131 2 -0.049635 6.62881 11.9482 12.3379
132 2 -0.0644007 7.20533 9.52692 12.598
158 2 0.118929 3.60289 11.2228 10.546
159 2 0.220194 2.02163 11.7354 11.6112
186 1 -0.674189 8.83167 7.23094 9.91425
191 3 -0.787026 11.8849 7.32821 9.84235
214 2 -0.0438838 4.69394 12.1609 8.59729
194 2 -0.00470815 9.68079 7.93932 11.5145
204 2 0.167358 8.80295 8.25915 9.3678
205 2 0.140479 8.08635 7.21567 10.7563
218 2 0.133137 8.4136 9.7969 9.47037
229 2 -0.0187282 5.1524 7.86408 13.8474
269 2 0.147157 10.1193 11.0721 13.1611
236 4 1.036 7.54208 11.5303 16.0591
210 1 -0.663516 8.84362 10.0787 8.46996
264 2 0.0411797 9.06648 12.1965 15.8547
50 1 -0.674007 2.61559 10.8363 11.1517
219 2 0.178894 9.26064 11.1035 8.5139
193 2 0.0562259 11.2218 9.92382 14.5667
182 4 1.01767 10.5845 6.7649 10.6504
198 2 0.170532 2.95425 12.3519 13.9238
164 2 0.168989 2.02293 12.8015 9.00875
274 2 0.18738 9.55755 9.33497 8.13062
273 2 0.182597 2.32465 13.2448 15.5533
241 2 0.164007 9.56618 9.98136 15.8107
ITEM: TIMESTEP
100
ITEM: NUMBER OF ATOMS
274
ITEM: BOX BOUNDS xy xz yz pp pp pp
-8.3797999999999995e+00 1.8013900000000000e+01 -8.3797999999999995e+00
0.0000000000000000e+00 1.3246653600000000e+01 1.1950000000000001e+00
0.0000000000000000e+00 1.6075500000000002e+01 4.3033760000000004e-01
ITEM: ATOMS id type q x y z
119 2 -0.0411447 7.50478 1.98307 4.95817
5 4 1.22751 0.39564 1.88225 0.348313
7 4 1.13673 1.26967 2.14661 5.44628
9 4 1.25332 -0.219239 4.43281 1.91453
10 4 1.60822 0.328896 4.50387 7.2934
242 1 -0.694021 3.30222 0.560533 3.12829
21 4 0.787 5.86815 1.9021 5.50267
26 4 1.30292 5.32575 4.75319 6.8974
41 1 -0.689662 1.7383 0.546467 6.2291
44 1 -0.683407 3.85584 3.47039 1.59169
55 3 -0.810598 1.10798 0.736769 1.20809
56 3 -0.787184 -0.106166 1.97625 4.67048
58 3 -0.841345 -1.30046 3.65405 2.84289
59 3 -0.791103 0.868602 3.47032 1.22906
243 2 0.176178 3.41297 1.61128 2.67133
61 3 -0.768257 1.35954 3.50195 6.24653
62 3 -0.826199 -0.524589 5.43579 6.34011
74 3 -0.804571 5.47217 0.770229 7.0619
78 3 -0.826616 0.531582 5.50654 2.76583
81 3 -0.77943 5.33576 3.4132 5.74824
84 3 -0.762671 2.94326 5.91995 4.1812
85 3 -0.777056 4.59217 6.01376 6.24659
99 3 -0.826091 8.08025 1.19096 7.84386
111 2 0.0214217 2.48932 2.01968 4.21902
112 2 -0.0384687 -1.05539 5.22691 0.685979
244 2 0.138745 3.00655 0.448007 4.24071
118 2 -0.0116038 4.70093 1.15326 4.38321
133 2 0.197504 1.19925 0.81207 7.29412
134 2 0.161288 2.87107 0.383324 6.29959
223 2 -0.0947923 6.40446 1.10253 3.71249
141 2 0.183108 4.38569 2.46186 1.36151
142 2 0.274186 2.68365 3.47666 1.38638
143 2 0.192309 4.13777 3.90736 2.61364
220 4 0.972294 6.86482 0.352923 2.03492
222 3 -0.799746 6.26547 1.14858 0.744597
113 2 -0.00631366 -2.12752 6.3117 4.32422
24 4 1.23797 4.86763 4.63592 0.509466
248 2 0.174216 3.35048 3.2696 15.0036
8 4 1.30276 1.63125 2.28919 10.55
13 4 1.28668 0.0726285 4.42309 12.3319
14 4 1.56547 -1.5341 6.51639 10.7613
20 4 1.29259 4.59227 3.06988 9.2311
23 4 1.25516 7.03944 2.63763 11.0279
27 4 1.36639 1.40085 6.51073 9.45883
77 3 -0.759407 6.81765 4.05027 15.6449
42 1 -0.6537 2.00576 0.73813 11.5752
57 3 -0.805833 0.390037 1.73248 9.64058
63 3 -0.868469 -0.463909 3.47072 13.4315
64 3 -0.819462 1.05121 3.53907 11.4992
65 3 -0.856885 -2.59463 6.26787 9.65046
66 3 -0.851061 -1.18699 5.08757 11.5162
73 3 -0.786217 3.14886 2.59844 9.73515
75 3 -0.853004 5.69274 3.12839 10.3723
76 3 -0.851142 6.94548 1.11626 11.5874
80 3 -0.807722 4.73601 4.36646 8.35823
82 3 -0.820049 1.22874 5.35729 8.40176
86 3 -0.793981 2.43277 6.23683 10.7289
114 2 -0.0163036 1.043 5.60512 13.0453
137 2 0.162813 3.18209 0.722495 11.6494
124 2 -0.04547 4.27647 5.67373 12.5714
136 2 0.158872 1.5137 0.802581 12.5853
179 4 1.21931 7.33136 2.33962 15.3812
183 1 -0.684929 5.92 1.5156 14.5222
60 3 -0.841331 -0.687029 3.53961 8.05048
195 2 0.240368 6.23465 1.22765 13.4736
196 2 0.174965 5.09075 2.31776 14.5699
197 2 0.20479 5.77996 0.630562 15.2488
227 3 -0.790716 5.0197 6.15878 15.784
29 4 0.930398 3.81646 6.70463 11.296
245 1 -0.662171 2.69341 2.35251 14.8711
246 2 0.174928 1.93268 2.40935 13.9845
247 2 0.179672 3.2375 1.33707 14.9958
117 2 0.112337 5.09326 1.74825 8.18287
71 3 -0.800722 -2.47544 6.71144 14.3673
123 2 -0.0146548 5.09073 6.45383 10.1877
1 4 1.31855 -6.42471 12.4994 2.01081
3 3 -0.783202 -5.75807 11.4452 0.91417
25 4 1.48328 1.44373 6.59174 3.56096
16 4 1.52854 -2.83051 8.49278 7.0294
17 4 1.28242 -4.09273 10.2275 4.74638
271 2 0.150227 1.24875 10.3446 2.36461
30 4 1.02611 2.66877 8.77084 1.45815
31 4 1.27262 -1.8711 10.1807 2.72228
33 4 1.11601 -0.0126757 11.1235 5.2541
48 1 -0.674162 -1.14022 8.71608 1.67634
49 1 -0.674818 0.563503 9.73295 6.43061
67 3 -0.799564 -3.846 7.27683 7.50468
68 3 -0.818447 -1.40376 7.78114 6.49121
265 2 0.151181 -4.2571 12.6289 2.84209
70 3 -0.830204 -3.62641 9.2624 5.83317
79 3 -0.848367 0.540465 7.21359 4.6971
87 3 -0.797307 1.80527 7.81766 2.49333
88 3 -0.802085 2.89049 8.14833 0.026941
89 3 -0.784783 -1.86135 11.5243 1.89772
90 3 -0.767621 -3.41139 9.71374 3.32778
93 3 -0.797133 -0.877557 10.4691 3.99634
94 3 -0.852051 -0.901605 12.1746 6.08331
115 2 -0.0307375 -3.53185 11.7941 5.1176
147 2 0.194434 2.1065 7.70527 7.34359
151 2 0.202949 -0.0869432 9.14405 1.45279
152 2 0.178298 -1.8539 8.64642 0.81391
153 2 0.190466 -1.10074 7.76256 2.24159
135 2 0.236675 -7.17733 12.4898 5.68141
155 2 0.266164 0.591451 8.83175 5.73906
156 2 0.243467 -0.219237 9.5681 7.25414
251 1 -0.632339 -5.54165 8.71343 0.470046
268 2 0.179759 -4.48892 8.23934 0.420098
28 4 1.2244 4.16389 6.76248 4.87997
19 4 1.34385 -1.39686 12.922 7.39695
12 4 1.30616 -0.880585 6.69478 5.46772
69 3 -0.800417 -5.62316 10.1775 4.62681
154 2 0.148646 1.55017 9.997 6.87197
272 2 0.189006 0.684554 10.4757 0.453599
47 1 -0.647669 1.57599 10.3685 1.16925
15 4 1.04719 -4.10718 10.8439 15.7601
18 4 1.24213 -2.38031 8.00634 13.3468
22 4 1.2563 -0.465852 12.7044 11.7525
32 4 0.970496 -2.59136 10.727 9.16716
35 4 1.28732 -1.28619 10.6474 14.0783
228 2 -0.0333581 3.06159 7.057 14.193
46 1 -0.654593 2.08697 8.03691 8.45384
157 2 0.17702 1.95803 10.2694 10.7071
51 1 -0.650852 0.272417 11.0582 15.186
162 2 0.210791 -0.0189932 12.0983 15.5046
72 3 -0.849451 -2.00264 7.56791 11.8959
83 3 -0.770609 -0.0788585 7.12758 10.1018
91 3 -0.849279 -2.56441 9.49797 8.27301
92 3 -0.80057 -1.38958 11.7643 8.99498
95 3 -0.834965 3.82174 8.20321 11.7849
96 3 -0.773321 -1.26075 9.01009 13.9103
97 3 -0.822502 -1.04221 11.5938 12.7104
98 3 -0.806705 -2.7174 10.8822 14.8352
116 2 -0.0444587 -3.87276 8.79493 13.1536
120 2 0.0920958 -0.31152 12.0042 10.1957
126 2 -0.0147561 -2.72966 10.2468 10.7557
127 2 -0.0393646 -4.06656 11.4872 8.99119
128 2 0.0335534 2.10602 10.134 13.0354
226 4 0.970512 4.4392 7.42912 15.1411
148 2 0.15521 3.13357 8.33695 8.84224
139 2 0.160138 -4.92001 11.3407 13.4161
160 2 0.175556 1.18819 11.028 14.5578
138 2 0.162068 -6.78686 12.6896 10.9459
149 2 0.192962 1.30718 8.79355 8.71044
140 2 0.156561 -5.98049 12.0194 14.9763
43 1 -0.634549 -5.79335 11.1822 14.0858
187 3 -0.793863 1.00323 13.0809 12.3214
161 2 0.187582 0.313874 10.2973 16.0584
235 2 0.160578 11.9723 1.80074 2.46548
37 4 1.28218 12.8414 2.047 5.51954
169 2 0.228759 10.8577 6.53128 6.8813
39 4 1.32268 11.2275 4.0923 7.31561
45 1 -0.680472 7.20256 5.24184 7.1246
54 1 -0.658557 10.3829 5.60905 6.49153
101 3 -0.789351 14.1911 2.76165 5.04496
102 3 -0.832557 13.0395 0.834965 6.49055
103 3 -0.743041 6.03865 5.69862 1.52257
4 4 1.48323 15.2876 2.44284 3.85155
106 3 -0.802186 11.8538 3.16046 6.15236
255 2 0.159532 9.82018 0.251501 4.77058
129 2 -0.000527546 11.9196 1.358 4.20312
130 2 0.0413555 7.7137 5.41519 3.71775
267 2 0.178838 11.6609 5.95967 0.681935
207 4 1.24319 14.0811 0.238893 7.66037
146 2 0.198283 7.67992 4.27764 7.34328
105 3 -0.792862 9.82783 3.21059 7.95058
145 2 0.159827 7.48773 5.64904 6.10501
170 2 0.182045 9.2094 5.51275 6.71796
171 2 0.17639 10.6505 5.33468 5.42496
221 1 -0.657481 8.68492 0.397584 1.77069
224 2 0.177672 8.70234 1.17635 0.901961
225 2 0.122264 8.92785 0.851356 2.83939
231 1 -0.647557 11.8294 0.661808 2.33776
232 3 -0.795329 14.4507 1.13455 2.99284
266 2 0.06555 12.2467 3.96774 0.395372
249 1 -0.652847 11.4087 5.11525 0.0113939
234 2 0.165712 11.5653 0.343906 1.24774
233 2 0.157515 11.0804 0.161999 3.14647
144 2 0.163051 7.2785 6.02511 8.00105
11 4 1.50696 12.8174 6.41065 8.90836
36 4 1.35673 9.0976 2.10019 8.79345
52 1 -0.673517 10.449 0.884099 9.43431
188 3 -0.788322 8.72143 2.11685 14.3335
100 3 -0.836989 8.30163 2.69048 10.0127
107 3 -0.805416 12.2717 4.72334 8.34188
110 2 0.0318838 14.8011 3.0431 10.2626
203 2 0.161964 8.70871 6.26882 9.21839
202 2 0.220956 13.8786 3.97188 11.4549
163 2 0.172994 11.3133 0.976131 8.67001
6 4 1.32095 15.7977 2.38351 9.035
165 2 0.205253 10.6716 1.30794 10.461
172 4 1.03195 15.8931 2.48475 14.5641
173 1 -0.666283 14.6238 1.17906 14.0297
174 2 -0.00622982 14.1682 2.74854 15.0517
175 2 0.12289 15.5009 0.632349 13.284
176 2 0.153739 13.7619 1.64578 13.4221
263 3 -0.862581 14.8427 1.28469 8.5071
178 4 1.05616 13.3884 5.41642 14.5959
180 4 1.2732 9.98969 1.56476 13.5083
181 4 1.31871 11.7339 4.00838 12.281
184 1 -0.643362 10.9637 0.50722 14.7521
185 1 -0.698675 12.9805 3.46738 10.8876
121 2 0.00913414 7.44779 3.59073 12.4426
189 3 -0.809716 10.9495 2.6157 12.7751
190 3 -0.841534 12.5683 4.70255 13.4077
192 3 -0.797174 10.6536 5.11955 11.6103
177 2 0.197097 14.2734 0.620348 14.9512
199 2 0.156657 11.797 1.27779 14.983
200 2 0.268755 12.7314 3.90684 9.84058
201 2 0.146641 13.025 2.32231 10.9062
182 4 1.03673 10.4877 6.43749 10.7305
250 2 0.16757 11.4812 5.12021 16.0215
262 3 -0.815416 16.8229 2.08399 15.7822
122 2 -0.0366423 3.59961 8.29914 5.35518
270 2 0.195365 0.801131 12.256 1.48822
167 2 0.174091 9.32754 6.78859 3.22889
53 1 -0.650215 8.32827 7.06422 3.48691
104 3 -0.847305 5.4033 6.98965 3.90349
236 4 1.04042 6.35264 11.0684 0.0740888
125 2 -0.037191 4.17179 9.17983 2.24351
150 2 0.142158 2.56843 10.9943 0.903992
166 2 0.0643223 7.73822 8.01184 2.3785
168 2 0.160383 8.27927 7.61617 4.45529
206 4 1.1919 9.59487 10.4034 4.1304
215 2 0.161778 6.96619 8.33551 7.39188
208 4 1.09363 7.71237 10.5904 6.8565
209 1 -0.656272 6.58959 9.08114 6.62959
2 3 -0.804493 9.51149 11.5374 3.08648
211 3 -0.784886 8.61558 10.6098 5.50582
212 3 -0.793023 6.6774 11.813 7.27472
213 2 -0.00116641 8.96984 8.93213 3.48371
254 1 -0.68552 1.57028 12.0294 4.45772
216 2 0.177166 6.75931 8.7815 5.52778
217 2 0.164237 5.6134 9.5645 6.87365
239 2 0.0910692 6.85308 9.26488 0.995093
230 4 1.1476 5.27755 12.6754 2.56655
237 1 -0.65175 7.94853 9.90195 0.586051
238 3 -0.813997 5.69564 11.8646 1.23423
240 2 0.197629 8.68596 10.0586 1.43228
257 2 0.134658 2.47699 11.5603 5.00985
256 2 0.163095 1.57451 11.8545 3.34426
258 1 -0.668468 5.41087 11.4169 3.92166
259 2 0.16292 5.76451 10.3965 3.68607
260 2 0.123416 4.22066 11.4686 4.16854
261 2 0.210389 6.14308 12.0317 4.5933
252 2 0.172592 10.9469 8.73181 1.67403
38 4 1.00925 6.47274 6.51071 2.87674
34 4 1.01313 3.75301 9.69818 12.4065
40 4 0.938951 6.33841 10.903 13.3222
108 3 -0.845185 4.90939 10.3491 13.1567
109 3 -0.823066 6.91912 11.1758 14.7206
131 2 -0.0393336 6.46104 12.2054 12.3854
132 2 -0.0618693 7.39141 9.98903 12.4629
158 2 0.129833 3.57056 11.178 10.6978
159 2 0.237652 2.12898 11.8046 11.7624
186 1 -0.66124 8.8276 7.14243 9.96211
191 3 -0.842768 11.7179 7.03713 9.84849
214 2 -0.0246897 4.67973 12.4656 8.89009
194 2 -0.00474096 9.73087 7.76366 11.5485
204 2 0.159515 8.87113 8.25238 9.41925
205 2 0.12366 8.06954 7.16454 10.8301
218 2 0.145574 8.29924 9.8304 9.34017
229 2 -0.0140868 5.51879 8.06864 14.0217
269 2 0.138242 10.1017 11.2609 13.3253
253 2 0.131662 11.6414 8.52084 15.9565
210 1 -0.650155 8.90949 10.1359 8.4868
264 2 0.067096 9.18068 12.1129 15.9737
50 1 -0.686738 2.64101 10.8515 11.3281
219 2 0.172942 9.47207 11.1131 8.59894
193 2 0.0749557 11.131 9.79821 14.6636
241 2 0.164344 9.55288 9.82829 15.7709
198 2 0.18182 2.90143 12.4654 14.1333
164 2 0.163715 1.61176 12.6635 9.4561
274 2 0.17536 9.61026 9.30725 8.06375
273 2 0.175183 1.8425 13.0482 15.702
ITEM: TIMESTEP
200
ITEM: NUMBER OF ATOMS
274
ITEM: BOX BOUNDS xy xz yz pp pp pp
-8.3797999999999995e+00 1.8013900000000000e+01 -8.3797999999999995e+00
0.0000000000000000e+00 1.3220107200000001e+01 1.1950000000000001e+00
0.0000000000000000e+00 1.6075500000000002e+01 4.2947520000000006e-01
ITEM: ATOMS id type q x y z
119 2 -0.0331983 7.29578 1.82054 4.91118
5 4 1.25984 0.502433 1.91296 0.40725
7 4 1.11746 1.26842 2.2133 5.23277
9 4 1.26497 -0.226899 4.46094 1.92869
10 4 1.57934 0.429832 4.38874 7.1955
242 1 -0.671253 3.29734 0.560726 2.90328
21 4 0.804969 5.69153 1.76478 5.42831
26 4 1.31371 5.25215 4.64726 6.7774
41 1 -0.671029 1.46042 0.722734 6.39276
44 1 -0.666697 3.69172 3.73621 1.75074
55 3 -0.823329 1.06925 0.637829 1.34817
56 3 -0.816046 -0.19698 2.07712 4.58073
58 3 -0.851788 -1.35251 3.65543 2.79774
59 3 -0.802978 0.820728 3.56236 1.10673
243 2 0.158637 3.39273 1.70286 2.55502
61 3 -0.793582 1.54861 3.34034 6.25134
62 3 -0.824246 -0.398454 5.35977 6.25125
74 3 -0.799958 5.54635 0.604931 6.99171
78 3 -0.86305 0.620323 5.57654 2.66721
81 3 -0.817125 5.41347 3.2756 5.84544
84 3 -0.800982 2.82229 6.11587 4.12107
85 3 -0.789707 4.55768 5.95397 6.17135
99 3 -0.847635 7.97978 1.31963 7.84288
111 2 -0.00907616 2.45213 1.97291 4.01202
112 2 -0.0145569 -1.2016 5.3237 0.804175
244 2 0.115522 2.98222 0.35225 4.0237
118 2 -0.0299789 4.51301 1.25406 4.30638
133 2 0.232443 1.19091 0.949278 7.44388
134 2 0.146243 2.57105 0.504812 6.35885
223 2 -0.0919231 6.31121 1.0727 3.60726
141 2 0.156873 4.2417 2.69803 1.64507
142 2 0.281042 2.52885 3.69783 1.46392
143 2 0.205689 3.88101 4.26529 2.74921
220 4 1.02201 6.90414 0.470699 1.91858
222 3 -0.800787 6.53186 1.42537 0.671607
113 2 0.00575274 -1.76728 6.28758 4.20591
24 4 1.27696 4.75727 4.80409 0.622672
60 3 -0.821551 -0.65519 3.59359 8.03213
248 2 0.183816 3.32049 3.38171 14.8863
8 4 1.28792 1.63935 2.22706 10.5475
13 4 1.25889 0.172146 4.38623 12.3349
14 4 1.52325 -1.50475 6.51838 10.7152
20 4 1.29841 4.58644 2.93493 9.22126
23 4 1.26956 6.98342 2.64255 11.0772
27 4 1.35169 1.31746 6.55086 9.45619
77 3 -0.761539 6.77211 4.01684 15.6491
42 1 -0.658345 1.98931 0.722323 11.6849
57 3 -0.792067 0.298825 1.73258 9.57719
63 3 -0.841229 -0.598986 3.69008 13.6131
64 3 -0.827647 1.01725 3.34507 11.5661
65 3 -0.820641 -2.51617 6.1439 9.57505
66 3 -0.822594 -0.963873 5.03071 11.3762
73 3 -0.78626 3.1574 2.59939 9.81722
75 3 -0.858448 5.62435 2.90796 10.3907
76 3 -0.853291 6.99107 1.18215 11.774
80 3 -0.788017 4.70781 4.25877 8.34008
82 3 -0.790163 1.1103 5.41196 8.35912
86 3 -0.765138 2.51523 6.15731 10.7869
114 2 -0.00836993 1.17988 5.63716 12.8946
137 2 0.16435 3.10898 0.49936 11.5585
124 2 -0.0407634 4.55631 5.48543 12.4357
136 2 0.162118 1.71524 0.935086 12.767
179 4 1.31267 7.41279 2.58274 15.3201
183 1 -0.680756 6.0403 1.52665 14.5984
71 3 -0.814803 -2.34541 6.76587 14.3597
195 2 0.258337 6.41773 1.34057 13.5066
196 2 0.181797 5.04656 2.05187 14.6573
197 2 0.219548 6.12807 0.637527 15.2853
227 3 -0.827929 4.9419 6.06007 15.865
117 2 0.100986 5.07336 1.66838 8.08144
245 1 -0.673109 2.67874 2.43529 14.8523
246 2 0.176568 1.88003 2.51039 14.058
247 2 0.15899 3.27401 1.45773 14.8293
262 3 -0.784421 0.151739 2.36841 16.0003
29 4 0.926058 3.85972 6.66552 11.3646
1 4 1.34654 -6.52704 12.3436 2.08553
3 3 -0.801914 -5.69528 11.3154 0.988924
25 4 1.46583 1.47439 6.70572 3.39193
16 4 1.5506 -2.8364 8.50199 7.09719
17 4 1.2591 -4.23658 10.0926 4.58836
271 2 0.175848 1.07276 10.7891 2.2232
30 4 1.04815 2.67026 8.91094 1.37151
31 4 1.21682 -1.94356 10.1805 2.75641
33 4 1.14395 0.0119359 11.1722 5.19335
48 1 -0.651769 -1.10366 8.82186 1.74061
49 1 -0.663673 0.704362 9.78584 6.41231
67 3 -0.785312 -3.90761 7.25951 7.51819
68 3 -0.826118 -1.56463 7.8209 6.40678
265 2 0.172099 -4.17253 12.7565 2.54761
70 3 -0.781282 -3.63617 9.35413 5.86319
79 3 -0.82313 0.546095 7.39445 4.85309
87 3 -0.807756 1.89312 7.94859 2.45762
88 3 -0.802942 2.97681 8.1311 0.0237527
89 3 -0.764032 -1.90749 11.7732 1.84777
90 3 -0.808888 -3.38821 9.67028 3.29561
93 3 -0.786324 -0.699472 10.5274 3.91069
94 3 -0.854521 -0.794548 12.0829 6.2065
115 2 -0.0389522 -4.19765 11.7687 4.8372
147 2 0.183575 2.23013 7.77673 7.50137
151 2 0.199116 -0.000109039 9.31188 1.4524
152 2 0.170813 -1.90259 8.69485 0.904658
153 2 0.18473 -1.00226 7.92214 2.42079
135 2 0.253041 -7.52376 12.7033 5.94945
155 2 0.292701 0.67342 8.80225 5.88686
156 2 0.219549 -0.0838582 9.86548 7.2394
251 1 -0.675655 -5.35867 8.69529 0.468383
268 2 0.197855 -4.3598 8.2591 0.458815
28 4 1.22319 4.03458 6.84653 4.91695
19 4 1.41034 -1.35878 12.8944 7.44281
12 4 1.30868 -0.746206 6.73211 5.49613
69 3 -0.811931 -5.84373 9.87653 4.365
154 2 0.141333 1.73309 10.1168 6.70136
272 2 0.179509 0.779681 10.5699 0.371192
47 1 -0.672117 1.58314 10.4766 1.21266
161 2 0.187645 -0.883907 10.012 0.108043
15 4 1.10046 -4.07117 10.841 15.8849
18 4 1.21979 -2.20624 7.97947 13.2983
22 4 1.23551 -0.428348 12.7263 11.8072
32 4 0.977845 -2.50626 10.7116 9.30374
35 4 1.2122 -1.18794 10.7162 14.1106
228 2 -0.0178077 3.17984 7.07415 14.1586
46 1 -0.656782 2.11991 8.07616 8.61397
157 2 0.165484 2.00023 9.83521 10.7737
51 1 -0.644941 0.292266 11.1133 15.1988
162 2 0.200533 0.0478219 12.2426 15.3858
72 3 -0.866928 -2.23169 7.49163 11.7584
83 3 -0.800361 -0.0489434 7.1678 9.99408
91 3 -0.851039 -2.64493 9.57278 8.23326
92 3 -0.820013 -1.44021 11.8259 9.02293
95 3 -0.839509 3.7335 8.07954 12.0627
96 3 -0.791947 -1.107 9.08047 13.6938
97 3 -0.828301 -1.13463 11.6619 12.7731
98 3 -0.759417 -2.63382 10.9988 15.2547
116 2 -0.0346905 -3.72309 8.77117 13.5505
120 2 0.0727807 -0.289007 12.0193 10.2556
126 2 -0.0118387 -2.3724 10.1253 10.8032
127 2 -0.0404255 -3.95854 11.3894 9.62673
128 2 0.015661 2.12558 10.3041 13.096
226 4 0.971532 4.48586 7.34595 15.1439
148 2 0.150064 3.13139 8.326 9.10008
139 2 0.155875 -4.88985 11.6554 13.3066
160 2 0.150567 1.23589 10.9778 14.5786
138 2 0.157814 -7.02199 12.7143 11.2372
149 2 0.190041 1.33843 8.87614 8.74154
140 2 0.155246 -5.55164 12.186 14.8411
43 1 -0.673038 -5.69887 11.4071 14.056
235 2 0.159723 12.0261 1.77554 2.55895
37 4 1.29921 12.8447 2.00421 5.5555
169 2 0.218785 10.7344 6.42366 6.94102
39 4 1.36127 11.1629 4.01926 7.27508
45 1 -0.658034 7.10806 5.1224 6.76248
54 1 -0.663618 10.3108 5.53127 6.41169
101 3 -0.769791 14.0092 2.89257 4.91785
102 3 -0.847494 13.1695 0.746642 6.42047
103 3 -0.791645 5.80765 5.67202 1.67847
4 4 1.52278 15.2695 2.42844 3.76179
106 3 -0.817863 11.8359 3.01319 6.22705
255 2 0.154044 9.78252 0.448986 4.76751
129 2 0.00450847 11.8682 1.43785 4.24754
130 2 0.047239 7.65568 5.36747 3.70379
267 2 0.171563 11.2731 6.18068 0.200306
233 2 0.159226 11.1421 0.197102 3.24441
146 2 0.183485 7.60414 4.07828 6.96072
105 3 -0.813966 9.98902 3.23151 7.97612
145 2 0.163558 7.39106 5.59657 5.7715
170 2 0.182147 9.1554 5.38049 6.55239
171 2 0.17874 10.6527 5.45241 5.33526
221 1 -0.654208 8.7777 0.444925 2.00705
224 2 0.169631 9.04463 1.2781 1.2813
225 2 0.122623 8.81081 0.756437 3.17484
231 1 -0.68326 11.8841 0.679727 2.4175
232 3 -0.822438 14.6859 1.05067 3.06303
266 2 0.0887017 12.4362 4.32032 0.554579
144 2 0.157309 7.23429 5.84004 7.65783
234 2 0.17484 11.5221 0.474512 1.39974
11 4 1.48544 12.8092 6.29156 8.8935
36 4 1.30788 9.04625 2.14505 8.77204
52 1 -0.679615 10.3406 0.871679 9.35494
188 3 -0.796016 8.63843 2.33218 14.2355
100 3 -0.806333 8.26952 2.84384 10.118
107 3 -0.784262 12.2405 4.71827 8.38556
110 2 0.0351137 14.8555 3.09877 10.2118
203 2 0.133227 8.72408 5.93066 9.30681
202 2 0.19966 14.1014 3.71918 11.4886
163 2 0.177127 11.2374 1.19679 8.6615
6 4 1.32444 15.7392 2.41004 8.98051
165 2 0.216304 10.5408 1.123 10.4319
172 4 0.947596 15.854 2.56053 14.6419
173 1 -0.631601 14.5642 1.13803 13.9826
174 2 0.0180253 14.1353 2.58704 15.1514
175 2 0.091931 15.82 0.789094 13.6355
176 2 0.144362 14.1843 1.8419 13.1088
263 3 -0.857567 14.8109 1.28727 8.46247
178 4 1.04904 13.5697 5.4012 14.5945