ITEM: TIMESTEP
0
ITEM: NUMBER OF ATOMS
373
ITEM: BOX BOUNDS xy xz yz pp pp pp
-1.0794400000000000e+01 2.0438599999999997e+01 -1.0794400000000000e+01
-3.3405999999999998e+00 1.4057499999999999e+01 1.3894000000000000e+00
0.0000000000000000e+00 1.7550000000000001e+01 -3.3405999999999998e+00
ITEM: ATOMS id type x y z
3 4 4.63716 1.3511 2.88143
4 4 6.3355 -1.25238 7.06241
5 4 5.95793 1.48154 5.50986
7 4 4.30669 4.37066 2.06584
9 4 5.22429 3.37765 7.9909
327 2 -0.0728501 5.77232 6.04858
33 3 5.91965 0.62539 2.10391
34 2 3.26674 0.531446 2.39725
356 1 -1.62017 5.18886 8.31953
36 3 4.65093 1.39804 4.45671
37 3 6.39903 0.0602617 6.09064
41 3 4.48732 2.84071 2.32766
42 1 3.1165 4.89922 0.641965
43 2 2.67935 4.90551 2.51896
325 1 -0.261828 4.85653 5.4167
46 3 5.57716 2.44624 6.71803
214 2 -3.25973 5.51241 0.429624
48 3 4.3253 4.57713 7.52041
328 2 0.588324 4.66222 4.59851
321 1 -3.5447 4.55243 4.80451
359 2 -1.06377 5.06865 7.25654
117 2 2.34017 4.02266 0.673152
330 2 7.98409 0.0882522 3.86988
178 4 1.80061 1.13267 6.78771
35 2 5.67949 -1.06042 8.68864
181 1 1.90048 2.58563 5.60314
329 1 8.31829 -0.432175 2.93454
183 3 0.622462 1.47915 7.87582
326 2 -0.489369 3.90673 6.04659
190 2 2.15931 2.08693 4.60243
191 2 2.9236 3.00154 6.08991
192 2 1.03627 3.36954 5.53938
199 4 -0.990433 4.61203 1.27176
200 4 -1.81153 5.26059 4.31146
202 2 0.738457 4.67732 1.51704
203 1 0.0786041 2.98475 0.799592
205 3 -1.39557 4.84254 2.72671
210 2 -1.02848 2.41608 0.799379
211 2 0.736925 2.72595 1.69582
119 2 2.72777 5.91462 0.739774
320 2 3.27738 0.663339 7.50729
10 4 4.01079 5.76903 6.52694
337 2 1.4484 -0.231693 5.93818
322 2 -4.13765 5.19947 5.49794
283 2 4.31617 0.314698 0.307706
61 2 7.2691 2.03364 4.56358
331 2 9.27437 -0.0223883 2.45924
204 1 -2.21697 5.43852 0.032735
213 2 -1.70038 6.51743 0.219409
357 2 -2.60955 4.47905 8.3639
2 4 3.93312 -0.609688 10.6967
6 4 4.05934 -0.101162 14.1296
287 2 7.4185 -0.907307 16.4776
32 1 5.80203 -0.335919 10.512
38 3 3.37678 -0.316767 12.2534
39 3 4.83748 -1.30602 14.7599
40 1 2.71212 0.198531 15.2857
50 3 5.05895 1.35568 13.957
52 1 2.64176 4.34305 10.8401
111 2 5.7086 0.533072 9.71433
112 2 6.53343 -1.0534 10.1661
113 2 5.94373 0.0360977 11.6585
114 2 1.82413 0.23029 14.5859
115 2 2.87667 1.25788 15.6904
116 2 2.82109 -0.646394 16.0325
129 2 2.89944 3.74475 9.88747
131 2 1.83475 3.73435 11.7051
118 2 5.49937 1.37792 17.3777
180 4 0.329052 0.973937 11.9437
185 2 1.9218 0.161311 12.2176
186 3 0.0729344 1.35952 10.408
188 1 0.552727 2.73216 12.838
196 2 0.20647 3.60468 12.2036
197 2 1.61507 2.72763 13.2052
198 2 -0.321671 2.37735 13.5991
45 2 4.32198 2.37618 9.03543
189 2 -0.642913 3.55968 8.88913
314 2 0.213101 -1.32525 14.3438
215 2 -0.77458 1.69056 16.6027
285 2 8.01011 -1.80425 14.8723
279 4 5.95525 -2.58238 15.392
212 2 1.89592 -0.243938 17.3079
281 1 7.65313 -1.92307 15.974
11 4 5.94983 2.69083 13.5164
286 2 8.22826 -2.68822 16.7168
53 3 4.95415 3.65889 12.3528
339 2 3.02976 0.256394 9.57786
179 4 -0.484152 1.87624 8.97366
126 2 7.53785 1.01048 12.898
258 2 1.0749 -2.7169 17.3433
358 2 -0.913627 5.20755 9.27454
143 2 -0.635617 12.5742 5.06489
257 2 -9.54005 13.8987 0.512908
31 1 -4.93434 11.966 1.77691
49 1 3.13036 7.43299 7.16895
55 1 2.39298 7.37597 3.98108
332 2 -2.47077 12.3962 2.99317
57 2 0.805614 8.47452 3.6277
59 1 -0.769086 11.479 5.27203
60 1 0.41666 9.28708 7.2313
1 4 -3.86022 13.5634 1.63482
108 2 -4.80429 11.247 0.917135
109 2 -6.02631 12.4177 1.89388
110 2 -4.38162 11.5818 2.72495
352 1 -3.78066 11.1376 6.36825
365 2 -2.76182 11.9846 7.34122
125 2 2.00783 7.65265 7.41088
236 2 -1.95677 10.103 0.602467
137 2 2.55955 7.41259 5.20675
141 2 -1.8947 11.3257 5.67038
145 2 0.113238 8.71584 6.27848
144 2 1.33525 8.77545 7.78909
248 2 -7.12835 11.477 7.77079
146 2 -0.499461 9.26484 7.95003
201 4 -2.30991 8.49197 4.24159
206 1 -2.05059 9.09082 2.39746
207 3 -1.97145 6.94893 4.47565
208 1 -4.21725 8.4957 4.57103
209 2 -1.52719 9.6439 5.35666
216 2 -1.36838 8.17539 2.1317
217 2 -1.5607 10.0238 2.60582
218 2 -2.91954 9.18605 1.71957
219 2 -4.44242 8.90527 3.47299
220 2 -4.55708 9.2483 5.38603
221 2 -4.51826 7.41837 4.76931
142 2 -0.482719 10.7925 4.42532
354 2 -3.64758 10.0251 6.53468
243 1 -7.20956 10.3196 7.87716
247 2 -6.33543 9.71682 7.50582
353 2 -5.5252 11.3869 6.39423
360 2 -4.57379 6.47963 7.81671
355 2 -3.60728 11.4012 5.29996
297 2 -4.43437 8.33673 8.37716
290 1 -4.01812 7.52736 7.68831
295 2 -4.04919 7.86182 6.54294
296 2 -2.25698 8.15628 7.78097
136 2 1.62236 6.66341 3.68229
56 3 2.41899 8.97935 1.40548
135 2 3.45887 7.06733 3.38821
47 2 2.22166 5.96062 6.34067
234 2 -0.764442 11.9887 0.401377
13 4 2.37671 9.03983 3.07304
282 2 -6.8665 10.7436 16.8915
44 1 2.54748 4.80464 16.5634
121 2 1.93371 5.61981 16.0951
74 1 -3.99531 6.93207 14.9057
280 1 -5.63508 10.6667 16.8141
252 1 -8.88257 10.5493 17.188
132 2 2.70643 6.13649 13.0829
348 1 -4.86753 9.88694 13.9816
162 2 -3.01803 6.51505 14.4079
163 2 -4.04473 6.95129 16.0765
164 2 -4.36518 8.00535 14.5491
166 2 -6.74211 9.4326 13.4993
233 3 -1.60062 10.1368 17.4697
338 2 -1.51915 7.24952 16.378
231 4 -0.551209 9.21423 16.734
232 1 -0.461885 7.34282 17.0427
12 4 4.26226 4.857 11.7389
235 2 0.456209 6.94732 16.4675
238 4 -7.14802 10.295 9.75774
336 2 -0.752834 10.7426 14.4036
241 2 -5.67833 9.51466 10.1418
242 3 -6.95882 11.7999 10.2724
140 2 -0.368665 11.8493 9.01756
120 2 3.00417 4.13457 15.7515
334 2 -0.139587 9.00264 14.2238
351 2 -5.24537 10.0835 12.9456
159 2 -4.4136 4.71277 13.3558
284 2 -5.31698 9.58858 16.4498
256 2 -8.41693 10.5528 16.1863
289 4 -2.57135 7.67073 11.9935
291 1 -1.92596 9.44855 12.1456
292 3 -2.57204 7.17879 10.397
293 1 -1.37702 6.65643 12.9367
294 2 -3.93552 7.23118 12.9454
298 2 -1.3002 9.80328 11.2481
299 2 -1.32787 9.56251 13.2884
300 2 -2.99807 9.84806 12.1146
301 2 -0.98164 5.69882 12.3923
302 2 -1.69874 6.38529 14.0254
303 2 -0.532659 7.44929 13.0006
333 1 -0.193049 9.92803 14.8911
349 2 -5.4757 9.2424 14.6632
350 2 -3.74037 9.51592 13.9629
122 2 2.00448 4.22022 17.3565
8 4 4.01099 5.63887 17.3626
134 2 3.98788 5.56361 14.2619
288 4 -2.60896 6.72678 8.86258
174 2 2.75603 7.7752 9.91319
54 1 3.8022 6.05654 13.2526
130 2 2.21909 5.35011 10.6436
67 1 11.3786 4.63242 8.44853
16 4 7.48257 6.50238 0.757921
17 4 10.3817 3.90436 6.96837
347 2 13.8762 1.02241 2.03865
324 2 14.8812 4.43458 3.80557
184 2 14.311 2.86836 7.34563
65 1 8.99015 2.62267 7.69268
66 1 11.5385 3.09461 5.57296
341 2 13.3482 3.27583 2.32393
62 3 5.26759 5.44448 2.60874
71 3 7.29878 5.66396 4.66305
72 3 9.44699 5.13895 6.22583
138 2 10.4223 -1.0011 7.56513
139 2 11.997 -1.35874 8.5646
147 2 8.70587 1.98237 6.75107
148 2 7.99071 3.03198 8.09584
150 2 11.1341 3.49647 4.61032
151 2 11.4117 1.98745 5.69487
152 2 12.5093 3.47552 5.88959
372 2 16.688 0.781945 3.83373
157 2 10.3859 5.9764 3.70033
177 4 15.7376 1.12409 7.83737
64 2 6.69089 5.38047 1.72243
223 1 11.6812 6.22473 0.492414
225 2 10.7689 5.88324 1.11211
343 2 11.8737 4.55567 1.63263
342 2 11.7755 3.85491 3.41477
259 4 11.9188 2.17157 1.02283
262 2 10.6027 2.57166 2.25096
304 4 15.4007 0.0949039 4.76611
305 1 14.8761 1.55972 3.68119
306 3 15.563 0.493482 6.28727
307 2 13.6713 1.19389 3.8298
308 2 15.2305 1.30126 2.6057
309 2 15.113 2.71408 4.05227
346 2 12.2424 -0.0126016 1.3954
340 1 12.1294 3.63976 2.3388
149 2 9.53151 2.02854 8.50534
344 1 13.0912 0.756693 1.11172
319 2 13.3084 1.85468 8.59632
345 2 13.6294 0.582232 0.150408
316 1 14.3395 2.2796 8.38192
182 3 17.1271 1.3953 8.48301
155 2 12.1671 3.86272 8.59032
68 3 6.56817 3.77897 8.76189
370 3 8.55638 5.83131 0.107771
323 2 15.915 3.59307 5.31232
317 2 14.7787 2.84217 9.22064
51 1 7.49713 2.0732 12.6565
187 1 17.8181 -0.00991581 12.3958
311 2 15.9191 -1.85988 14.2732
76 3 6.53495 3.55198 14.711
368 2 15.1353 -2.227 16.1366
127 2 8.31426 2.66749 13.0983
128 2 7.41104 2.26376 11.5366
369 2 16.7651 -2.85101 16.7346
310 4 17.4906 -2.64185 14.6505
161 2 13.3543 3.38712 14.0981
169 2 8.70042 4.53774 10.5755
153 2 10.6136 4.65072 9.27669
193 2 17.0696 0.257708 11.5406
315 2 19.6684 -2.2788 15.9581
77 3 7.76047 3.68393 17.2689
366 1 15.9321 -2.92201 15.863
260 4 12.3938 -0.0357412 15.5529
261 4 12.8389 -2.31798 13.1448
263 3 12.8339 -0.672215 17.1771
264 1 13.1711 1.64607 15.0629
265 1 10.4905 0.222862 15.8184
266 3 12.6729 -1.25983 14.3457
194 2 17.4839 0.224665 13.4275
269 1 11.6387 -1.85087 11.7799
270 2 13.3507 1.43741 13.9008
271 2 14.0982 2.11556 15.5807
272 2 12.1763 2.25088 15.2693
273 2 10.1896 0.346335 14.7078
274 2 10.32 1.24887 16.6
275 2 10.0396 -0.700887 16.1856
276 2 12.4463 -1.85131 10.9345
277 2 11.0486 -0.949885 11.8957
195 2 18.3065 -1.03 12.2418
318 2 14.5252 0.454178 9.02753
227 2 13.1671 2.47917 16.9465
312 1 18.8691 -1.64546 15.3645
313 2 18.3165 -0.809185 15.9454
73 1 13.4879 4.4128 13.6172
63 3 4.70747 6.16546 5.22406
23 4 7.13706 8.83738 2.89125
24 4 3.44125 11.1294 5.21915
25 4 5.63266 11.2665 1.75964
26 4 7.42232 7.99652 7.86099
28 4 5.84189 10.3714 6.82287
364 2 2.43884 11.5069 0.336368
156 2 8.98973 7.11475 3.04618
83 3 6.22418 7.8701 3.72415
84 3 8.10647 7.94078 1.7921
85 3 8.14432 10.1061 3.65796
86 3 2.81973 10.3178 3.92439
87 3 4.23616 12.6614 4.38367
88 3 2.11431 11.4372 6.13683
89 3 6.20735 9.87776 1.95167
90 2 4.98506 12.0191 3.08877
92 3 8.25627 7.67022 6.58565
371 3 6.72088 12.194 1.1405
97 3 7.1773 10.6509 6.00459
98 3 4.49409 10.4087 6.08677
99 3 5.79911 8.69559 7.48042
100 2 5.83749 11.4206 8.13659
255 2 8.50651 9.94191 0.599817
123 2 3.6296 8.29351 6.59956
70 1 9.61522 6.8134 3.9692
19 4 8.60742 6.17884 5.38444
158 2 10.1858 7.68614 4.49486
222 4 11.432 7.93123 0.329513
229 2 9.5498 11.4826 5.36546
228 4 8.40145 10.2482 5.18855
373 2 4.2663 11.1679 0.651282
230 2 9.19646 8.89394 5.86757
249 2 10.8348 9.9106 7.681
224 2 10.508 8.83907 1.37264
58 1 0.21605 12.3043 8.21839
251 1 9.09286 10.7142 0.0290847
91 3 7.08868 6.6598 8.62459
124 2 3.75764 7.20172 8.26271
15 4 5.90544 6.38209 4.18532
226 2 12.9552 7.35189 1.18255
154 2 11.7079 5.65132 8.15569
14 4 0.63953 11.117 6.70259
253 2 9.90598 11.2623 0.68181
18 4 6.61657 5.52472 9.58243
362 2 3.35324 7.6742 16.1653
21 4 6.78292 4.4905 16.0806
22 4 10.7976 7.24787 13.5757
27 4 4.52486 9.19761 10.4856
29 4 7.89247 7.13213 14.8942
30 4 6.95507 8.80726 12.6848
69 3 5.22265 5.58488 10.5168
75 3 13.1072 5.11407 16.4013
20 4 13.4172 5.79959 14.9121
78 3 5.47051 4.9006 16.715
244 2 9.18847 11.7337 10.4081
80 1 8.11483 5.4365 10.7642
81 1 11.1195 6.4131 11.8586
82 3 12.1033 6.86677 14.5301
254 2 10.9418 6.94456 16.6163
94 2 4.20437 10.8359 10.4451
95 1 3.02322 8.24977 10.9704
367 2 4.79538 10.091 15.7966
101 3 7.45609 5.92515 15.8694
102 3 9.3101 6.88437 14.1507
103 3 8.3186 8.39864 16.0857
104 3 8.28083 8.60994 11.6085
105 3 5.63308 8.91082 11.6012
106 3 6.71522 7.51459 13.7989
107 3 7.09888 10.164 13.5409
133 2 4.23589 7.05892 13.1198
335 2 0.809261 10.3445 15.3815
268 2 3.62176 11.2621 12.8651
240 3 10.6317 9.49673 10.3353
165 2 10.9364 9.23414 12.1312
167 2 10.4485 9.63045 13.9589
168 2 8.69588 6.41398 10.6225
170 2 7.50963 5.3379 11.7478
171 2 11.7963 5.43499 12.0774
172 2 11.6888 7.09963 11.2302
173 2 10.0669 6.0924 11.4877
175 2 2.35997 9.1526 11.3214
237 4 8.71799 9.34553 10.2718
239 1 8.1991 11.1419 10.5178
245 2 7.75184 11.1464 11.5494
250 4 9.22097 8.75689 17.286
246 2 7.44253 11.3544 9.67649
96 2 5.12752 9.01163 8.88557
278 2 0.229641 11.1521 11.8508
267 2 1.38616 10.1952 13.713
160 2 12.7407 4.66628 12.7137
361 1 4.16422 7.61077 16.9376
176 2 3.34207 7.4205 11.874
363 2 5.14179 7.96134 16.505
79 1 11.157 9.11668 13.2573
93 3 8.18051 9.0077 8.78784
ITEM: TIMESTEP
100
ITEM: NUMBER OF ATOMS
373
ITEM: BOX BOUNDS xy xz yz pp pp pp
-1.0794400000000000e+01 2.0429824999999997e+01 -1.0794400000000000e+01
-3.3405999999999998e+00 1.4057499999999999e+01 1.3806249999999984e+00
0.0000000000000000e+00 1.7550000000000001e+01 -3.3405999999999998e+00
ITEM: ATOMS id type x y z
3 4 4.66328 1.35738 2.84478
4 4 6.45759 -1.23399 7.02086
5 4 5.86632 1.47939 5.54642
7 4 4.19159 4.43902 2.09522
9 4 5.25498 3.39855 8.01326
117 2 2.33023 3.98944 0.54682
33 3 5.87603 0.565503 2.21295
34 2 3.35404 0.415815 2.43498
356 1 -1.45038 5.18994 8.50042
36 3 4.68537 1.3705 4.39906
37 3 6.19941 0.0461655 6.15852
41 3 4.30999 2.85366 2.32272
42 1 3.15047 4.87551 0.613815
43 2 2.56931 5.04023 2.44041
325 1 -0.19751 4.95858 5.5412
46 3 5.56179 2.48212 6.81382
214 2 -3.45076 5.70861 0.344654
48 3 4.29363 4.54906 7.58019
328 2 0.533574 4.87399 4.68469
321 1 -3.54984 4.54724 4.98173
359 2 -1.02693 5.04527 7.38182
204 1 -2.3862 5.53502 0.0963652
330 2 8.10886 -0.174701 4.08385
178 4 1.8122 1.19678 6.68866
35 2 5.99496 -1.04503 8.71338
181 1 2.06747 2.64903 5.4737
61 2 7.21521 2.23279 4.8994
183 3 0.725934 1.59893 7.76337
326 2 -0.630228 3.95359 5.95504
190 2 2.16397 1.93563 4.51111
191 2 3.03182 3.00029 5.94724
192 2 1.28418 3.42932 5.45593
199 4 -1.11456 4.76726 1.2522
200 4 -1.86602 5.25579 4.40028
202 2 0.65243 5.01109 1.23605
203 1 0.0203734 3.26987 0.682709
205 3 -1.58575 4.81796 2.73396
210 2 -1.00701 2.55937 0.756284
211 2 0.792952 2.94102 1.4097
119 2 2.81362 5.92207 0.551049
320 2 3.19492 0.430314 7.29187
331 2 9.19778 -0.383852 2.57496
337 2 1.20561 0.0249022 5.63712
322 2 -4.0812 5.28136 5.63825
257 2 1.3942 0.000691721 0.259885
2 4 4.02749 -0.692341 10.685
6 4 4.16045 -0.064138 14.0683
287 2 7.82664 -1.12816 16.035
32 1 5.85498 -0.283674 10.5202
38 3 3.48037 -0.344876 12.2058
39 3 5.02487 -1.4425 14.64
40 1 2.82801 0.100866 15.303
50 3 5.08835 1.38324 14.1388
52 1 2.55508 4.5696 10.8344
111 2 5.60054 0.572309 9.61885
112 2 6.72731 -1.01044 10.3287
113 2 6.15681 0.288825 11.449
114 2 1.94294 -0.252041 14.5952
115 2 2.94532 1.19702 15.6589
116 2 3.18622 -0.729418 16.087
129 2 2.86706 3.97387 9.86359
131 2 1.80478 3.93439 11.5814
213 2 -0.390876 3.18023 17.4985
180 4 0.455287 1.02115 11.8982
185 2 2.04045 0.295047 12.0246
186 3 -0.0171069 1.4255 10.3485
188 1 0.643116 2.79642 12.8046
196 2 0.175391 3.61637 12.1601
197 2 1.62096 3.03212 13.2296
198 2 -0.121286 2.33789 13.6581
45 2 4.34146 2.47921 9.081
189 2 -0.4211 3.62015 9.05459
314 2 0.365048 -1.48393 14.3495
215 2 -0.849013 1.47331 16.6647
285 2 8.13169 -2.35037 14.5997
279 4 5.83653 -2.6578 15.2903
212 2 1.84312 0.0406475 17.167
281 1 7.66319 -2.16901 15.6158
11 4 5.99739 2.74279 13.7
286 2 8.18499 -2.89146 16.4338
53 3 5.01621 3.62301 12.4501
339 2 3.14151 0.370669 9.69455
179 4 -0.325377 1.89806 8.82428
283 2 5.453 -2.65079 17.5482
120 2 2.74164 3.90289 16.1733
118 2 5.41329 1.35348 17.3468
357 2 -2.27624 4.43173 8.84197
329 1 -2.51432 13.2595 3.08395
327 2 -0.244145 5.90401 6.10424
31 1 -4.8385 11.7463 1.96788
49 1 3.16588 7.47157 7.18698
55 1 2.36931 7.36282 4.09577
332 2 -2.35962 12.1867 3.32876
57 2 0.83926 8.47785 3.64871
59 1 -0.570031 11.3724 5.20503
60 1 0.432283 9.18315 7.40342
1 4 -3.87948 13.4282 1.82086
108 2 -4.90351 11.2389 0.962924
109 2 -5.81547 11.9125 2.46611
110 2 -4.18414 11.2635 2.72463
352 1 -3.63475 11.3094 6.12819
365 2 -2.49432 12.1693 7.11189
125 2 2.12226 8.18016 7.20983
236 2 -1.92042 9.89555 0.557358
137 2 2.64516 7.50423 5.2119
141 2 -1.71857 11.3895 5.56141
145 2 0.861214 8.44219 6.62251
144 2 0.970284 9.20687 8.3768
248 2 -7.31876 11.1483 7.39503
146 2 -0.645809 9.10545 7.57299
201 4 -2.42012 8.47239 4.23764
206 1 -1.99818 8.89729 2.42487
207 3 -1.97044 6.95952 4.44244
208 1 -4.31911 8.47203 4.68338
209 2 -1.63345 9.75692 5.21459
216 2 -1.16227 8.20358 2.22731
217 2 -1.64955 9.97098 2.35336
218 2 -3.00208 8.70858 1.88029
219 2 -4.55219 8.80056 3.53924
220 2 -4.57382 9.19049 5.51261
221 2 -4.71485 7.43961 4.84092
142 2 -0.151009 10.5303 4.59309
354 2 -3.4092 10.2644 6.30077
243 1 -7.22627 10.1579 7.89001
247 2 -6.27624 9.62385 7.60877
353 2 -5.27667 11.257 6.55201
360 2 -4.62817 6.69038 7.97065
355 2 -3.50558 11.6711 5.01486
297 2 -4.10072 8.66333 8.42225
290 1 -3.8282 7.75595 7.79042
295 2 -3.99929 7.98329 6.6847
296 2 -1.98295 7.96554 7.73272
136 2 1.43089 6.75281 3.89095
234 2 -0.754148 11.7378 0.282423
135 2 3.32623 6.94108 3.50552
47 2 2.31106 6.04445 6.31324
140 2 -0.767839 11.9666 8.6822
56 3 2.38289 9.01685 1.56942
143 2 -0.387911 12.352 4.67335
10 4 4.01667 5.80086 6.53758
122 2 0.425987 8.04329 0.102894
282 2 -6.94272 10.4991 16.8053
44 1 2.42237 4.87084 16.715
121 2 1.91613 5.60304 16.0252
74 1 -4.11446 7.02027 15.1722
280 1 -5.76839 10.5629 16.8206
252 1 -8.92932 10.5146 17.1827
132 2 2.68784 6.14981 13.122
348 1 -4.83061 9.82732 13.9435
162 2 -3.15206 6.63694 14.7328
163 2 -4.11891 6.97934 16.2856
164 2 -4.43139 8.10153 14.7783
166 2 -6.72112 9.48931 13.4253
233 3 -1.67851 10.1222 17.5286
338 2 -1.86457 7.2922 16.968
231 4 -0.598883 9.18043 16.8082
232 1 -0.696734 7.22563 17.1621
12 4 4.24926 4.89707 11.6751
235 2 -0.192545 6.75174 16.2512
238 4 -7.09579 10.287 9.72791
336 2 -1.21798 10.4203 14.7299
241 2 -5.70357 9.4964 10.2531
242 3 -7.01721 11.8123 10.2015
79 1 -7.891 9.20942 13.1426
159 2 -4.41868 4.81217 13.5251
334 2 -0.163575 8.91708 14.2139
351 2 -4.88082 10.0173 12.8647
130 2 2.20466 5.61536 10.6853
284 2 -5.23725 9.54004 16.9678
256 2 -8.90174 10.7764 16.0793
289 4 -2.66192 7.57118 12.0605
291 1 -2.01834 9.37132 12.1268
292 3 -2.74566 7.12969 10.4179
293 1 -1.55396 6.47525 13.0959
294 2 -4.01442 7.26043 13.2313
298 2 -1.46093 9.70832 11.1677
299 2 -1.4412 9.46989 13.2003
300 2 -2.99661 9.88142 12.1882
301 2 -1.53609 5.46393 12.4764
302 2 -1.82231 6.37916 14.1966
303 2 -0.577117 7.24825 12.9003
333 1 -0.403863 9.68249 14.9819
349 2 -5.6066 9.08655 14.33
350 2 -3.83011 9.3521 14.2118
358 2 -0.67938 5.4444 9.30539
54 1 3.8132 6.02177 13.1947
134 2 4.13808 5.52038 14.1395
288 4 -2.6039 6.67865 8.87184
67 1 11.567 4.55418 8.50742
16 4 7.48419 6.50631 0.750467
17 4 10.4349 3.95536 7.05877
347 2 13.8805 0.98135 2.00934
324 2 15.0292 4.35831 4.0338
184 2 14.7209 3.1576 7.42242
65 1 9.00852 2.59707 7.64299
66 1 11.3622 2.99973 5.60113
341 2 13.495 3.26583 2.07833
62 3 5.3351 5.44953 2.56394
71 3 7.33936 5.56592 4.80323
72 3 9.58889 5.15004 6.36676
138 2 11.2145 -0.818625 8.01541
155 2 12.5963 3.95744 8.422
147 2 8.82841 2.21642 6.62433
148 2 8.13283 3.16365 8.14886
150 2 11.4187 3.62728 4.66992
151 2 10.7885 2.02317 5.41706
152 2 12.4245 2.84723 6.13484
372 2 16.8202 0.531811 3.8608
157 2 10.3122 5.8035 3.62481
177 4 15.6902 1.16042 7.71975
64 2 6.79367 5.35977 1.84414
223 1 11.5958 6.24793 0.482093
225 2 10.54 5.90107 1.10958
343 2 12.1072 4.68291 1.6227
342 2 12.0484 3.84582 3.3174
259 4 11.8309 2.25359 1.01334
262 2 10.6761 2.60632 2.36215
304 4 15.4056 0.0782972 4.84052
305 1 15.1488 1.45565 3.52284
306 3 15.4843 0.668269 6.29604
307 2 13.7834 1.12807 3.7831
308 2 15.5108 1.34061 2.45318
309 2 15.4584 2.48111 3.98867
346 2 12.1328 0.0393776 1.39419
340 1 12.3207 3.67405 2.25938
149 2 9.67951 1.88185 8.28868
344 1 13.0476 0.814805 1.10819
319 2 13.3795 1.7891 8.17021
345 2 13.5722 0.583436 0.03649
316 1 14.3457 2.32985 8.35144
182 3 17.202 1.40162 8.37549
370 3 8.58988 5.85688 0.182539
323 2 15.6782 3.61176 5.56967
258 2 18.5729 0.320288 0.222974
226 2 12.9187 6.77083 1.34634
317 2 14.2414 2.95816 9.31063
51 1 7.6017 2.28471 12.8319
187 1 17.9834 0.0870063 12.5254
311 2 15.8933 -1.82206 14.4227
76 3 6.6103 3.63105 14.8848
368 2 14.9408 -2.50523 16.1656
127 2 8.33461 2.76527 13.5961
128 2 7.464 2.93108 11.8581
68 3 6.52605 3.82353 8.86519
310 4 17.5058 -2.66656 14.6257
161 2 13.522 3.3973 14.2231
169 2 8.56897 4.06726 10.6348
153 2 11.013 4.29327 9.43898
193 2 17.1807 0.208635 11.7559
313 2 18.4469 -0.843598 15.7779
126 2 7.80273 1.21604 12.6701
315 2 19.67 -2.37887 16.0735
260 4 12.2625 0.0202491 15.5823
261 4 12.5646 -2.37923 13.2496
263 3 12.8861 -0.543482 17.1153
264 1 13.3317 1.58249 15.1318
265 1 10.4397 0.500281 15.6828
266 3 12.2515 -1.02106 14.3413
194 2 17.7129 0.492038 13.528
269 1 11.8225 -1.89923 11.6192
270 2 13.6363 1.46822 14.0815
271 2 14.1476 1.91064 15.7867
272 2 12.3729 2.29944 15.1931
273 2 9.8889 0.857531 14.7036
274 2 10.2711 1.34192 16.5844
275 2 10.0501 -0.495448 16.0292
276 2 12.8133 -1.40238 11.2306
277 2 10.8854 -1.21269 11.7494
195 2 18.5618 -0.950947 12.5603
318 2 14.4263 0.49653 8.89224
227 2 13.1634 2.35212 16.9637
312 1 18.92 -1.76328 15.3254
63 3 4.83056 6.12995 5.23303
23 4 7.17102 8.82176 2.80947
24 4 3.41346 11.0581 5.20243
25 4 5.63017 11.2898 1.67962
26 4 7.5105 7.95605 7.91775
28 4 5.84598 10.1997 6.8721
364 2 2.60812 11.7732 0.0841803
156 2 9.15419 7.19239 3.05984
83 3 6.24654 7.83508 3.79478
84 3 8.1715 7.97791 1.86752
85 3 8.27321 9.86289 3.65266
86 3 3.03746 10.1442 3.97765
87 3 4.27654 12.6279 4.41449
88 3 2.15001 11.3934 6.22028
89 3 6.10825 9.79401 1.93311
90 2 5.00792 12.0134 3.10561
92 3 8.33487 7.69093 6.62062
371 3 6.70644 12.2573 1.11321
97 3 7.22912 10.6078 6.0805
98 3 4.52408 10.3302 5.92129
99 3 5.8586 8.77656 7.56281
100 2 5.69711 11.3687 8.07413
255 2 8.60603 9.88568 0.833675
123 2 3.88514 8.19856 6.59736
70 1 9.74954 6.74569 3.93045
19 4 8.66571 6.23717 5.34276
158 2 10.463 7.50874 4.43105
222 4 11.4918 7.90113 0.460096
229 2 9.43939 11.5581 5.14658
228 4 8.39221 10.2727 5.17378
373 2 4.16324 11.3802 0.70771
230 2 9.22806 9.00653 5.96955
249 2 10.8464 9.44873 7.83675
224 2 11.0683 9.03341 1.67871
58 1 0.262218 12.1583 8.32006
251 1 9.00946 10.6667 0.156477
91 3 7.18519 6.59631 8.75936
124 2 3.58404 7.23533 8.28888
15 4 5.98466 6.32758 4.21437
13 4 2.40756 9.00798 3.13231
154 2 11.7443 5.63056 8.34219
14 4 0.687842 11.1292 6.82363
253 2 9.8122 11.3565 0.645186
18 4 6.61396 5.51136 9.7389
362 2 3.30378 7.40812 16.091
21 4 6.83231 4.58009 16.2163
22 4 10.8336 7.29288 13.494
27 4 4.58557 9.29651 10.5728
29 4 8.00511 7.26441 14.897
30 4 6.96412 8.81326 12.635
69 3 5.44423 5.91086 10.7345
75 3 13.1276 5.14214 16.5485
20 4 13.3059 5.81328 15.087
78 3 5.26443 4.93146 16.8582
244 2 9.03555 11.8314 10.8085
80 1 8.16712 5.13423 10.8634
81 1 11.095 6.28195 11.9076
82 3 12.1376 6.61021 14.4284
254 2 10.7546 6.82824 16.7207
94 2 4.53086 10.9891 10.0687
95 1 3.1365 8.28825 10.9617
367 2 4.66811 9.95896 15.342
101 3 7.50233 5.95451 15.6276
102 3 9.38934 6.89443 14.0438
103 3 8.36053 8.4977 15.958
104 3 8.13391 8.74529 11.4937
105 3 5.60009 9.0423 11.7452
106 3 6.74853 7.6473 13.7563
107 3 6.99535 10.2716 13.5203
133 2 4.27961 7.04047 13.1534
335 2 0.799275 10.3142 15.685
268 2 3.35864 11.2512 13.0982
240 3 10.6435 9.58551 10.297
165 2 10.8646 9.36788 12.0375
167 2 10.4396 9.69477 13.8096
168 2 8.76207 6.07556 10.4131
170 2 7.82146 5.34724 11.9415
171 2 12.0949 5.58014 12.115
172 2 11.2996 7.16226 11.1785
173 2 10.1482 5.64803 11.723
175 2 2.44385 9.13223 11.2755
237 4 8.70664 9.60421 10.2527
239 1 8.00836 11.321 10.4521
245 2 7.16799 11.2927 11.2657
250 4 9.12081 8.76666 17.4422
246 2 7.65433 11.6666 9.44108
96 2 5.25244 8.8081 9.04693
278 2 0.735515 11.0998 11.2302
267 2 0.971437 10.1842 13.6792
93 3 8.23041 9.09968 8.85203
361 1 4.25309 7.61661 16.8389
176 2 3.33822 7.44921 11.7961
363 2 5.10269 7.94702 16.2444
366 1 5.0667 10.9078 15.8012
73 1 13.5296 4.469 13.7955
160 2 12.673 4.6213 12.8736
139 2 1.06446 11.8249 9.13205
369 2 5.91017 10.7036 16.6454
174 2 2.94648 7.89757 9.91729
8 4 3.9583 5.72453 17.4261
77 3 7.80489 3.75938 17.2536
ITEM: TIMESTEP
200
ITEM: NUMBER OF ATOMS
373
ITEM: BOX BOUNDS xy xz yz pp pp pp
0.0000000000000000e+00 2.8675849999999997e+01 8.2547999999999995e+00
-3.3405999999999998e+00 1.4057499999999999e+01 1.3718499999999985e+00
0.0000000000000000e+00 1.7550000000000001e+01 -3.3405999999999998e+00
ITEM: ATOMS id type x y z
3 4 4.55393 1.42419 2.86036
4 4 6.47172 -1.2647 7.11557
5 4 5.91609 1.52985 5.48514
7 4 4.17571 4.40499 2.05774
9 4 5.20404 3.42416 7.87769
342 2 11.9997 3.7798 3.45634
33 3 5.66309 0.588657 2.18702
34 2 3.12123 0.615123 2.50497
337 2 1.69001 -0.108564 5.75503
36 3 4.6723 1.43635 4.5007
37 3 6.14173 0.0907108 6.311
41 3 4.39682 2.88645 2.34553
42 1 3.16786 4.99835 0.592274
63 3 4.86887 5.98525 5.29075
320 2 3.29914 0.891602 7.61046
46 3 5.69429 2.65522 6.61571
191 2 3.21087 3.00727 5.79795
48 3 4.239 4.64626 7.63153
68 3 6.48015 3.86606 8.79061
61 2 7.3032 1.83723 4.63257
154 2 11.9461 5.37564 8.2199
330 2 8.07186 -0.024923 3.91909
67 1 11.6625 4.31067 8.56451
343 2 12.0623 4.58985 1.7114
16 4 7.59465 6.67985 0.642317
17 4 10.3608 3.86536 7.07367
370 3 8.59883 5.88006 0.0480828
65 1 9.03624 2.70282 7.94219
66 1 11.3899 3.03248 5.66017
62 3 5.33715 5.46381 2.65612
71 3 7.50794 5.58213 4.61228
72 3 9.65771 5.06476 6.3153
283 2 4.34416 0.522943 0.024468
155 2 12.5844 3.55285 8.45556
147 2 8.78636 1.9493 7.13788
148 2 8.11154 3.25439 8.21336
150 2 11.2372 3.45163 4.54104
151 2 10.8042 1.98914 5.8343
157 2 10.7571 6.0276 3.88797
64 2 6.56292 5.59688 1.61862
223 1 11.7524 6.22822 0.540537
262 2 10.7704 2.55818 2.34698
225 2 10.5997 6.00664 1.1189
190 2 2.19369 2.11504 4.41617
2 4 3.98096 -0.659633 10.6397
6 4 4.14736 -0.122847 14.0427
287 2 7.64779 -1.15261 16.1757
32 1 5.80278 -0.398531 10.5815
38 3 3.53971 -0.172295 12.3579
39 3 5.07278 -1.36772 14.6681
118 2 5.43238 1.25448 17.3334
50 3 5.05259 1.26871 14.1504
264 1 13.1828 1.51107 15.126
111 2 5.81967 0.375555 9.72626
112 2 6.54568 -1.30097 10.4592
113 2 5.78995 0.100982 11.7665
339 2 2.94221 0.1195 9.46708
53 3 4.96649 3.63633 12.5197
116 2 2.58276 -1.09495 15.7089
286 2 8.26333 -2.97024 16.6294
11 4 5.8584 2.70448 13.6337
281 1 7.68502 -2.22175 15.8267
279 4 5.93309 -2.7734 15.339
285 2 8.05474 -2.2698 14.7802
35 2 6.08972 -1.24693 8.78866
51 1 7.46812 2.06927 12.8947
76 3 6.32958 3.66211 14.8466
227 2 13.1941 2.38492 16.9057
127 2 8.24113 2.59009 13.5922
128 2 7.2775 2.52156 11.8121
265 1 10.2378 0.408567 15.6693
260 4 12.0693 -0.062098 15.6554
275 2 9.78628 -0.539833 16.1454
274 2 10.1758 1.40187 16.4572
273 2 9.91976 0.537007 14.5614
272 2 12.259 2.28568 15.1385
161 2 13.4829 3.37318 14.3722
169 2 8.38472 4.08294 10.777
153 2 10.8736 4.18381 9.43792
126 2 7.49875 0.916437 12.9203
45 2 4.30952 2.37982 8.83201
149 2 9.50298 2.20861 8.85883
329 1 16.5173 13.3007 3.11396
295 2 15.1012 8.125 6.49228
31 1 14.0863 11.6361 1.83205
290 1 15.3209 7.70181 7.62791
297 2 14.8713 8.41273 8.34683
332 2 16.5529 12.2489 3.55687
355 2 15.7441 11.966 5.02294
257 2 9.50195 13.7172 0.41268
353 2 13.8761 11.2458 6.46396
1 4 15.0984 13.2729 1.848
108 2 14.0378 11.3645 0.744472
109 2 13.074 11.8204 2.28368
110 2 14.7871 11.0011 2.4586
352 1 15.5842 11.4734 6.00489
365 2 16.5308 12.1408 7.21286
247 2 12.7235 9.65123 7.64334
243 1 11.7705 10.3152 7.93745
354 2 15.9662 10.4141 5.94381
221 2 14.2251 7.80302 4.92316
220 2 14.6897 9.60766 5.32892
219 2 14.5944 9.14858 3.41401
248 2 11.7419 11.3891 7.61913
208 1 14.7594 8.74793 4.57265
360 2 14.6382 6.42328 7.79228
253 2 9.83493 11.2354 0.890579
23 4 7.13419 8.84065 2.82816
226 2 13.0845 6.8488 1.37416
26 4 7.53679 8.05104 7.93326
15 4 6.07962 6.33179 4.20935
156 2 9.41788 7.13746 3.14767
89 3 6.18646 9.87335 2.02723
233 3 15.9467 13.3182 0.153386
83 3 6.28125 7.81473 3.78381
224 2 10.9401 8.9714 1.71609
249 2 10.801 9.78599 7.71883
230 2 9.2404 9.0539 6.17472
84 3 8.22392 7.85692 1.79234
228 4 8.43228 10.2321 5.2217
229 2 9.65348 11.4072 5.35613
222 4 11.596 7.93115 0.554496
158 2 10.2877 7.78958 4.7846
19 4 8.74008 6.19299 5.37043
70 1 9.94106 6.82165 4.1073
85 3 8.2617 9.78336 3.75361
255 2 8.4915 10.0375 0.191088
92 3 8.30768 7.77383 6.45802
331 2 17.4189 13.5554 2.5179
282 2 12.1111 10.5602 16.9253
350 2 15.274 9.56 13.7883
349 2 13.5179 9.00051 14.2181
74 1 14.9562 7.05077 15.2247
280 1 13.2859 10.5009 16.7947
252 1 10.0956 10.6521 17.1831
300 2 16.0404 9.69268 11.9617
348 1 14.1807 9.79436 13.7969
162 2 15.9412 6.50054 14.9472
163 2 14.8729 7.1242 16.3743
164 2 14.6829 8.05248 14.6909
166 2 12.2425 9.4524 13.3816
167 2 10.429 9.55792 13.8315
294 2 15.1469 7.02635 13.2805
291 1 17.0596 9.33035 12.2042
256 2 10.5802 10.6265 16.16
284 2 13.7131 9.42448 16.5698
351 2 13.8523 10.288 12.8553
238 4 12.0879 10.2857 9.73171
336 2 17.6472 10.4285 14.7324
241 2 13.3289 9.19269 10.1989
242 3 12.3074 11.8797 10.1971
79 1 11.1461 9.13106 13.101
159 2 14.6519 4.8417 13.5196
18 4 6.78178 5.4503 9.76348
77 3 7.91256 3.82464 17.0844
21 4 6.82184 4.59174 16.1362
22 4 10.9769 7.25413 13.5341
29 4 8.02605 7.18923 14.8268
75 3 13.1482 5.21114 16.5937
160 2 12.8859 4.62885 12.8649
73 1 13.5636 4.50106 13.8317
20 4 13.3362 5.85123 15.0736
165 2 10.8703 9.354 11.9563
80 1 8.01524 5.14169 11.1338
81 1 11.1353 6.14651 12.0101
93 3 8.3457 9.12653 8.8917
82 3 12.1444 6.81382 14.597
254 2 11.14 7.55922 16.5691
101 3 7.55948 5.87628 15.5946
102 3 9.3908 6.93567 14.0337
250 4 9.09174 8.87644 17.2839
103 3 8.47858 8.46916 15.8247
104 3 8.19211 9.00163 11.6327
237 4 8.75028 9.656 10.3284
240 3 10.6213 9.77509 10.3323
173 2 10.1043 5.72511 11.8053
172 2 11.3067 7.04884 11.3129
171 2 11.8935 5.30451 12.1165
170 2 7.45883 5.11064 12.124
168 2 8.88806 5.86202 11.168
91 3 7.36942 6.67147 8.86709
299 2 17.4661 9.66258 13.2062
69 3 5.38062 5.68785 10.6076
251 1 10.5484 7.62829 17.5133
244 2 9.19751 11.9601 10.2361
213 2 17.2119 6.65348 0.355137
323 2 16.2651 3.48458 5.69298
182 3 17.172 1.70493 8.29444
347 2 13.6252 0.743358 1.93928
324 2 14.8899 3.97104 4.3845
184 2 14.9041 3.348 7.95988
316 1 14.2273 2.28043 8.33799
327 2 18.9874 5.87203 6.14189
341 2 13.4336 3.17805 2.24194
319 2 13.3272 1.9838 7.62087
344 1 12.9198 0.675902 0.995722
340 1 12.2931 3.66106 2.33346
138 2 11.9634 -1.35369 8.57341
346 2 12.0065 -0.0748676 1.15288
309 2 15.6277 2.33284 3.67995
308 2 15.2105 1.17583 2.19381
307 2 13.7974 1.26348 3.85064
306 3 15.5738 0.641736 6.18857
178 4 21.0331 1.29181 6.64966
372 2 16.8053 0.545002 3.84613
305 1 15.1379 1.39293 3.27495
177 4 15.7663 1.30052 7.79487
304 4 15.3427 0.082229 4.69888
259 4 11.8549 2.18483 1.02972
117 2 21.2486 4.53384 0.516998
356 1 17.701 5.38758 8.57866
322 2 15.2095 5.08714 5.85461
43 2 21.6292 4.95935 2.44635
325 1 18.8592 4.88639 5.56252
214 2 15.7184 5.48603 0.601442
119 2 22.0996 6.14305 0.581308
211 2 19.6588 2.74979 1.30858
210 2 17.931 2.59591 0.473087
205 3 17.6105 4.87253 2.80605
203 1 18.9698 3.20943 0.52608
202 2 19.5155 5.04659 0.711479
200 4 17.1917 5.27836 4.49078
199 4 17.8422 4.70347 1.24535
192 2 20.3499 3.49118 5.48372