ITEM: TIMESTEP
0
ITEM: NUMBER OF ATOMS
274
ITEM: BOX BOUNDS xy xz yz pp pp pp
-8.3797999999999995e+00 1.8013900000000000e+01 -8.3797999999999995e+00
0.0000000000000000e+00 1.3273200000000001e+01 1.1950000000000001e+00
0.0000000000000000e+00 1.6075500000000002e+01 4.3120000000000003e-01
ITEM: ATOMS id type q x y z
119 2 -0.0213965 7.35725 1.57263 5.14972
5 4 1.27832 0.517768 1.92119 0.297227
7 4 1.16878 1.26329 2.15697 5.38329
9 4 1.30547 -0.18009 4.3815 1.97218
10 4 1.59218 0.282691 4.41153 7.33326
242 1 -0.672744 3.19903 0.44963 3.23371
21 4 0.789122 5.71806 1.87379 5.48021
26 4 1.26139 5.39153 4.91552 6.93932
41 1 -0.707435 2.06168 0.678004 6.28983
44 1 -0.682224 3.82269 3.71854 1.53513
55 3 -0.779624 1.14953 0.679784 1.23629
56 3 -0.828989 -0.0339598 1.91639 4.55729
58 3 -0.808618 -1.23033 3.58403 2.84419
59 3 -0.818637 0.707063 3.44561 1.05431
243 2 0.178778 3.08328 1.41604 2.68804
61 3 -0.782296 1.26435 3.3557 6.36949
62 3 -0.818742 -0.590712 5.30312 6.22391
74 3 -0.787381 5.48322 0.82428 7.03588
78 3 -0.851948 0.659864 5.44597 2.75082
81 3 -0.769897 5.6183 3.44465 5.86162
84 3 -0.772574 2.84668 5.82943 4.14268
85 3 -0.786392 4.71571 6.20213 6.17717
99 3 -0.838308 8.20051 1.2472 7.81447
111 2 0.00425382 2.66129 2.04908 4.32282
112 2 -0.0172739 -1.09605 5.28284 0.979583
244 2 0.152463 2.81553 0.415307 4.35013
118 2 -0.0134506 4.35886 1.42411 4.46352
133 2 0.21846 1.84878 0.857449 7.3679
134 2 0.167259 3.15396 0.515718 6.13229
223 2 -0.0950848 6.23908 1.11295 3.73173
141 2 0.17755 4.08679 2.64891 1.27877
142 2 0.246722 2.74842 3.95664 1.30844
143 2 0.204065 4.17818 4.07922 2.57078
220 4 1.01013 6.82519 0.295365 2.06189
222 3 -0.778077 6.12851 1.12279 0.908121
113 2 -0.000156869 -1.95885 6.3464 4.37579
24 4 1.27033 4.99984 4.67363 0.418657
248 2 0.163266 3.39208 3.38942 14.8333
8 4 1.3001 1.72025 2.39377 10.4527
13 4 1.26628 0.175405 4.40577 12.3541
14 4 1.52655 -1.44023 6.46994 10.7726
20 4 1.27299 4.63071 3.15762 9.25904
23 4 1.19711 7.00698 2.56723 11.1231
27 4 1.36781 1.39017 6.55584 9.36429
77 3 -0.756915 7.0364 4.01375 15.6102
42 1 -0.653744 2.04117 1.02858 11.7078
57 3 -0.799903 0.396411 1.72876 9.5003
63 3 -0.825855 -0.444467 3.54889 13.5537
64 3 -0.833877 1.16799 3.59998 11.5101
65 3 -0.825014 -2.57308 6.16823 9.60788
66 3 -0.833928 -1.09585 4.98747 11.5218
73 3 -0.80165 3.16134 2.75259 9.84172
75 3 -0.824147 5.70222 3.23786 10.4485
76 3 -0.840192 6.64996 0.964644 11.6035
80 3 -0.783986 4.65847 4.45414 8.35951
82 3 -0.826426 1.20694 5.40608 8.24512
86 3 -0.805639 2.57518 6.46056 10.4213
114 2 -0.0263517 1.00432 5.6208 13.0853
137 2 0.175006 3.16348 0.933939 11.927
124 2 -0.0513958 4.01029 5.74358 12.5214
136 2 0.154518 1.46135 1.25223 12.6629
179 4 1.24467 7.30544 2.29291 15.4065
183 1 -0.69261 5.859 1.61926 14.3925
60 3 -0.819413 -0.749779 3.48444 8.13961
195 2 0.243854 6.14074 1.31994 13.3091
196 2 0.172383 5.07447 2.44484 14.417
197 2 0.212255 5.59151 0.728958 15.0439
227 3 -0.834584 5.26994 6.09907 15.6783
228 2 -0.0502737 3.02235 6.66757 14.323
245 1 -0.670961 2.75083 2.4239 14.7472
246 2 0.178675 2.02133 2.42639 13.8432
247 2 0.177854 3.31977 1.4645 14.8736
117 2 0.0985921 5.07464 1.87228 8.18961
71 3 -0.799936 -2.71671 6.7254 14.2958
262 3 -0.791956 0.112714 2.22611 15.8515
1 4 1.27586 -6.47449 12.3304 1.99179
3 3 -0.784013 -5.77946 11.4739 0.757769
265 2 0.160022 -4.29719 12.4766 2.7214
16 4 1.53909 -2.87447 8.49799 7.05394
17 4 1.22777 -4.12539 10.2878 4.78168
271 2 0.170722 0.772786 10.4575 1.91462
30 4 1.08055 2.74238 8.63807 1.45904
31 4 1.26306 -1.88268 10.1589 2.85496
33 4 1.13192 -0.0297726 11.0124 5.32382
48 1 -0.653129 -1.06712 8.72359 1.74885
49 1 -0.650416 0.755239 9.65653 6.53402
67 3 -0.814802 -3.86551 7.14295 7.46196
68 3 -0.828787 -1.44977 7.89606 6.42951
252 2 0.205574 -4.97229 8.53534 1.53637
70 3 -0.849191 -3.54704 9.38938 5.93286
79 3 -0.823659 0.486542 7.10129 4.88372
87 3 -0.834134 2.03064 7.80925 2.61261
88 3 -0.814197 2.87532 7.89567 0.112382
89 3 -0.791198 -1.8994 11.5325 2.00984
90 3 -0.77282 -3.53619 9.89476 3.26687
93 3 -0.801904 -0.852535 10.2117 4.07848
94 3 -0.856038 -0.835255 12.0825 6.17436
115 2 -0.014888 -3.54273 11.8269 5.21982
147 2 0.196362 1.90128 7.77212 7.22983
151 2 0.198513 -0.0103384 9.23507 1.5042
152 2 0.174314 -1.77983 8.60778 0.860951
153 2 0.178214 -1.01327 7.80477 2.43922
135 2 0.223559 -6.94671 12.7066 5.88755
155 2 0.263903 0.733883 8.57966 6.0248
156 2 0.231636 0.0428872 9.68328 7.38265
251 1 -0.649486 -5.22971 8.79009 0.457449
161 2 0.200636 -1.05914 9.96647 0.158798
28 4 1.20165 4.13647 6.77548 4.81539
19 4 1.33835 -1.2758 12.9917 7.39493
12 4 1.34589 -0.852764 6.67659 5.56453
69 3 -0.831189 -5.76212 10.4775 4.57671
154 2 0.143672 1.79835 9.96876 6.83111
272 2 0.189259 1.3778 10.3007 0.129026
47 1 -0.673729 1.6289 10.2301 1.17217
25 4 1.47936 1.53499 6.54592 3.51881
15 4 1.06835 -4.16667 10.8237 15.6868
18 4 1.25277 -2.30725 8.0658 13.3793
22 4 1.23511 -0.612302 12.6318 11.7541
32 4 0.997588 -2.60517 10.8494 9.12403
35 4 1.21025 -1.27696 10.7144 14.0675
268 2 0.158796 -3.24303 8.77791 15.7586
46 1 -0.639328 2.09706 8.03832 8.33009
157 2 0.172063 1.96425 10.1359 10.5523
51 1 -0.643422 0.0263731 11.187 15.3709
162 2 0.230733 -0.35708 12.2291 15.6804
72 3 -0.814551 -2.01607 7.536 11.9432
83 3 -0.806187 -0.117612 7.07223 10.1409
91 3 -0.822042 -2.68929 9.52852 8.27791
92 3 -0.811602 -1.40528 11.7468 8.91852
95 3 -0.851163 3.89084 8.21838 11.7191
96 3 -0.778694 -1.16724 8.92914 13.9292
97 3 -0.845407 -1.05018 11.3961 12.6386
98 3 -0.782578 -2.84163 11.1167 14.8696
116 2 -0.0429617 -3.69185 8.96466 13.3912
120 2 0.094071 -0.376765 11.956 10.2322
126 2 -0.000609562 -2.69138 10.4133 10.799
127 2 -0.0249925 -3.99704 11.7997 8.90056
128 2 0.0353671 2.0173 10.0913 12.8235
187 3 -0.806619 0.851974 13.1398 12.1862
148 2 0.180343 3.19093 8.03378 8.60152
139 2 0.161301 -4.99365 11.4688 13.3151
160 2 0.162358 0.96489 11.2997 14.7333
138 2 0.148827 -6.7475 12.912 11.1754
149 2 0.17082 1.49388 8.9568 8.73374
29 4 0.959689 3.86863 6.73843 11.2517
43 1 -0.662781 -5.89217 11.2008 13.8939
140 2 0.167543 -6.00267 12.0254 14.6241
226 4 0.973025 4.41911 7.23185 15.1294
235 2 0.16938 11.5233 1.59988 2.52613
37 4 1.26039 12.8702 2.12204 5.53814
38 4 1.01708 6.55671 6.45671 2.79676
39 4 1.34318 11.2041 4.16644 7.27492
45 1 -0.679248 7.12862 5.60647 7.45154
54 1 -0.672334 10.228 5.60698 6.46512
101 3 -0.764362 14.2164 2.85971 5.08368
102 3 -0.819881 13.2711 0.776867 6.41727
103 3 -0.757197 6.12088 5.53847 1.61731
4 4 1.53316 15.3656 2.28787 3.92756
106 3 -0.804939 11.8501 3.22528 6.07539
255 2 0.157884 9.75306 0.216132 4.81154
129 2 0.00139703 12.0307 1.37778 4.25654
130 2 0.0495891 7.8211 5.56081 3.75098
267 2 0.149867 11.3679 6.17248 0.490176
250 2 0.169695 10.3114 4.50243 0.0567851
146 2 0.183934 7.76663 4.6865 7.40623
105 3 -0.795746 10.005 3.27923 7.94352
169 2 0.209124 10.8068 6.52724 6.66405
170 2 0.178681 9.09697 5.65111 6.76688
171 2 0.167611 10.3521 5.27132 5.37353
221 1 -0.637202 8.63696 0.299339 1.65922
224 2 0.189661 8.66874 0.990097 0.734502
225 2 0.105427 8.94621 0.881341 2.73586
231 1 -0.684758 11.8386 0.569641 2.49074
232 3 -0.814265 14.6857 1.02234 3.14075
266 2 0.0538591 12.7567 3.99056 0.133636
249 1 -0.61396 11.4009 4.9477 0.234289
234 2 0.172717 11.6975 0.16181 1.40814
145 2 0.164575 7.35618 6.40634 6.71302
11 4 1.46315 12.8662 6.30835 8.84294
36 4 1.32469 9.14094 2.16751 8.78292
52 1 -0.671209 10.5496 1.01656 9.42648
188 3 -0.807096 8.62571 1.82114 14.641
100 3 -0.817384 8.24185 2.65049 10.0729
107 3 -0.804514 12.2507 4.64873 8.41621
110 2 0.0277279 14.6226 2.9511 10.3973
203 2 0.170259 8.75865 6.27562 9.26357
123 2 -0.0178854 5.25009 6.33882 10.5057
163 2 0.179421 11.4953 1.51439 9.08377
6 4 1.30434 15.7441 2.30051 9.12163
165 2 0.220948 10.4304 1.05205 10.553
172 4 0.971702 15.9235 2.3843 14.6003
173 1 -0.651964 14.3482 1.15638 14.0359
174 2 0.0352738 14.145 2.59973 15.0675
175 2 0.084283 15.5715 0.708285 13.733
176 2 0.152051 13.7863 1.47752 13.1108
263 3 -0.861773 14.7711 1.28273 8.452
178 4 1.03289 13.2165 5.46918 14.714
180 4 1.19244 9.88561 1.4226 13.5811
181 4 1.27142 11.5457 4.04443 12.2712
184 1 -0.676971 11.1572 0.500413 14.5463
185 1 -0.707518 12.9463 3.49549 11.0768
121 2 0.00178367 7.35024 3.60252 12.4374
189 3 -0.768534 10.6682 2.75528 12.7826
190 3 -0.779838 12.3335 4.69787 13.4529
192 3 -0.752905 10.5557 5.42314 11.5052
144 2 0.179233 7.14 6.03137 8.49507
199 2 0.177465 12.042 1.20796 14.5481
200 2 0.25684 12.6021 3.83076 10.0663
201 2 0.140335 12.8416 2.37401 11.3356
202 2 0.241865 13.8741 4.04213 11.4333
177 2 0.200146 13.7557 0.409944 14.6697
2 3 -0.76778 9.14753 11.4838 2.96151
270 2 0.174929 0.786735 12.0607 1.4489
207 4 1.29126 5.76883 13.0271 7.60607
53 1 -0.636485 8.40273 7.15947 3.3238
104 3 -0.814529 5.33746 6.95098 3.74333
122 2 -0.0309942 3.60116 8.34243 5.10856
125 2 -0.025603 4.30083 9.03375 1.94901
150 2 0.128535 2.54807 10.9335 1.41508
166 2 0.0707377 7.78991 7.9324 2.07739
168 2 0.150448 8.29476 7.76433 4.2726
206 4 1.19777 9.56296 10.45 4.1905
215 2 0.170043 7.12542 8.15783 7.03561
208 4 1.10753 7.6145 10.5481 6.8837
209 1 -0.660333 6.47309 9.04439 6.78592
253 2 0.109445 10.4356 8.38896 0.251767
211 3 -0.767712 8.61909 10.5428 5.6143
212 3 -0.806256 6.81684 11.9103 7.10629
213 2 0.0119732 9.44956 8.86104 3.42119
254 1 -0.67751 1.4946 11.9489 4.55619
216 2 0.166238 6.04834 9.01065 5.70453
217 2 0.141748 5.6403 9.27855 7.56335
239 2 0.109774 6.89717 9.1735 1.13592
230 4 1.13334 5.309 12.7519 2.6439
237 1 -0.672766 7.78039 9.95315 0.564397
238 3 -0.770979 5.60141 11.9364 1.1729
240 2 0.222536 8.3725 10.5395 1.34368
257 2 0.134503 2.33007 11.3681 5.10248
256 2 0.158028 1.50891 11.7838 3.4177
258 1 -0.663203 5.38712 11.2763 3.90128
259 2 0.149564 5.49584 10.2743 3.31965
260 2 0.141739 4.35398 11.5216 4.33947
261 2 0.227688 6.2171 11.5199 4.61867
167 2 0.157554 9.53589 6.9352 3.15679
233 2 0.159992 2.81429 12.8385 3.24605
34 4 0.999686 3.72817 9.67376 12.2549
40 4 0.91254 6.32826 10.6918 13.3274
108 3 -0.822736 4.80969 10.3758 13.175
109 3 -0.824898 6.92616 11.0467 14.7149
131 2 -0.049635 6.62881 11.9482 12.3379
132 2 -0.0644007 7.20533 9.52692 12.598
158 2 0.118929 3.60289 11.2228 10.546
159 2 0.220194 2.02163 11.7354 11.6112
186 1 -0.674189 8.83167 7.23094 9.91425
191 3 -0.787026 11.8849 7.32821 9.84235
214 2 -0.0438838 4.69394 12.1609 8.59729
194 2 -0.00470815 9.68079 7.93932 11.5145
204 2 0.167358 8.80295 8.25915 9.3678
205 2 0.140479 8.08635 7.21567 10.7563
218 2 0.133137 8.4136 9.7969 9.47037
229 2 -0.0187282 5.1524 7.86408 13.8474
269 2 0.147157 10.1193 11.0721 13.1611
236 4 1.036 7.54208 11.5303 16.0591
210 1 -0.663516 8.84362 10.0787 8.46996
264 2 0.0411797 9.06648 12.1965 15.8547
50 1 -0.674007 2.61559 10.8363 11.1517
219 2 0.178894 9.26064 11.1035 8.5139
193 2 0.0562259 11.2218 9.92382 14.5667
182 4 1.01767 10.5845 6.7649 10.6504
198 2 0.170532 2.95425 12.3519 13.9238
164 2 0.168989 2.02293 12.8015 9.00875
274 2 0.18738 9.55755 9.33497 8.13062
273 2 0.182597 2.32465 13.2448 15.5533
241 2 0.164007 9.56618 9.98136 15.8107
ITEM: TIMESTEP
100
ITEM: NUMBER OF ATOMS
274
ITEM: BOX BOUNDS xy xz yz pp pp pp
-8.3965595999999998e+00 1.8049927799999999e+01 -8.3965595999999998e+00
0.0000000000000000e+00 1.3273200000000001e+01 1.1973900000000000e+00
0.0000000000000000e+00 1.6075500000000002e+01 4.3120000000000003e-01
ITEM: ATOMS id type q x y z
119 2 -0.0411013 7.5049 1.98283 4.95736
5 4 1.22935 0.395458 1.88211 0.348484
7 4 1.13674 1.26972 2.14658 5.44621
9 4 1.25337 -0.219279 4.43279 1.91461
10 4 1.60817 0.328753 4.50366 7.29356
242 1 -0.694015 3.30158 0.559439 3.12936
21 4 0.787036 5.86796 1.90197 5.50256
26 4 1.3029 5.32573 4.75313 6.8974
41 1 -0.689661 1.73815 0.546488 6.22925
44 1 -0.683446 3.85587 3.4705 1.5915
55 3 -0.810335 1.10844 0.737022 1.20824
56 3 -0.78707 -0.106278 1.97628 4.67063
58 3 -0.841352 -1.3005 3.65399 2.84302
59 3 -0.791143 0.868633 3.47051 1.22919
243 2 0.176253 3.41148 1.60971 2.67156
61 3 -0.768188 1.35962 3.50191 6.2464
62 3 -0.826184 -0.52454 5.43573 6.34017
74 3 -0.804589 5.47214 0.770262 7.06183
78 3 -0.826611 0.531548 5.50652 2.76582
81 3 -0.779417 5.33573 3.41313 5.74822
84 3 -0.762647 2.94326 5.91995 4.1812
85 3 -0.777043 4.59216 6.01375 6.2466
99 3 -0.826063 8.08019 1.19095 7.84385
111 2 0.0213999 2.48972 2.01919 4.21974
112 2 -0.0384932 -1.05537 5.22687 0.686031
244 2 0.138572 3.00838 0.447594 4.24252
118 2 -0.0116134 4.70109 1.15229 4.38236
133 2 0.197514 1.19914 0.812171 7.29435
134 2 0.161261 2.8709 0.383237 6.29971
223 2 -0.0947945 6.40394 1.10326 3.71403
141 2 0.183146 4.38587 2.46227 1.36113
142 2 0.274209 2.68376 3.47684 1.38614
143 2 0.192314 4.1379 3.90753 2.61339
220 4 0.972291 6.86495 0.352903 2.03487
222 3 -0.799696 6.26558 1.14861 0.744421
113 2 -0.00631459 -2.12749 6.31165 4.32426
24 4 1.23788 4.8676 4.63586 0.509497
248 2 0.174176 3.35085 3.26926 15.0027
8 4 1.30276 1.63093 2.28915 10.5499
13 4 1.28668 0.0726395 4.42291 12.3318
14 4 1.56548 -1.53411 6.51638 10.7614
20 4 1.29255 4.59237 3.06985 9.23115
23 4 1.25555 7.03964 2.63737 11.028
27 4 1.36639 1.40083 6.5107 9.4588
77 3 -0.759429 6.81776 4.05005 15.6449
42 1 -0.653738 2.0057 0.738245 11.575
57 3 -0.805778 0.389533 1.73272 9.64044
63 3 -0.868262 -0.463814 3.4704 13.4314
64 3 -0.819407 1.05132 3.53914 11.4991
65 3 -0.856874 -2.59464 6.26788 9.65046
66 3 -0.851 -1.18701 5.08759 11.5163
73 3 -0.786154 3.14888 2.59843 9.73512
75 3 -0.853133 5.69285 3.12788 10.3724
76 3 -0.851177 6.94717 1.11678 11.5878
80 3 -0.807735 4.73605 4.36643 8.35827
82 3 -0.819996 1.22868 5.35724 8.40171
86 3 -0.793971 2.43274 6.2368 10.7289
114 2 -0.0162879 1.04297 5.60484 13.0455
137 2 0.162809 3.18197 0.722665 11.6493
124 2 -0.0454572 4.27644 5.67325 12.5712
136 2 0.158949 1.51363 0.802775 12.5852
179 4 1.21925 7.33084 2.33949 15.3809
183 1 -0.685093 5.92052 1.5159 14.5226
60 3 -0.841385 -0.687147 3.5392 8.05051
195 2 0.240406 6.23554 1.22766 13.4743
196 2 0.174938 5.0925 2.31925 14.571
197 2 0.204806 5.78167 0.6316 15.2507
227 3 -0.790712 5.0197 6.15878 15.784
29 4 0.930417 3.81648 6.70448 11.296
245 1 -0.66194 2.69369 2.35249 14.8708
246 2 0.175195 1.93343 2.40935 13.9841
247 2 0.179782 3.23792 1.33742 14.9948
117 2 0.112308 5.09319 1.74837 8.18289
71 3 -0.800734 -2.47541 6.71144 14.3673
123 2 -0.0146711 5.09069 6.45377 10.1876
1 4 1.31919 -6.42666 12.498 2.01281
3 3 -0.782944 -5.75833 11.4449 0.91468
25 4 1.48329 1.44371 6.59173 3.56096
16 4 1.52852 -2.83051 8.49278 7.02938
17 4 1.28227 -4.09273 10.2275 4.74634
271 2 0.150222 1.2487 10.3445 2.36467
30 4 1.02611 2.66876 8.77085 1.45814
31 4 1.27267 -1.8711 10.1805 2.72225
33 4 1.11602 -0.0127856 11.1235 5.25414
48 1 -0.67414 -1.14036 8.7164 1.67642
49 1 -0.674838 0.563499 9.73287 6.4307
67 3 -0.799552 -3.846 7.27683 7.50468
68 3 -0.818439 -1.40375 7.78113 6.4912
265 2 0.151149 -4.25733 12.6281 2.84311
70 3 -0.830234 -3.62645 9.26237 5.83315
79 3 -0.848349 0.540469 7.21359 4.6971
87 3 -0.797294 1.80526 7.81766 2.49333
88 3 -0.802092 2.89049 8.14834 0.0269322
89 3 -0.78475 -1.86133 11.5243 1.89776
90 3 -0.767671 -3.41133 9.71377 3.32776
93 3 -0.797114 -0.87763 10.4691 3.99627
94 3 -0.852076 -0.901632 12.1746 6.08331
115 2 -0.0307391 -3.53167 11.794 5.1176
147 2 0.19444 2.10654 7.70522 7.34361
151 2 0.202926 -0.0868206 9.14448 1.45278
152 2 0.178261 -1.85423 8.6468 0.813938
153 2 0.190441 -1.10089 7.76274 2.24158
135 2 0.236599 -7.17764 12.4898 5.68169
155 2 0.266168 0.591439 8.83175 5.73913
156 2 0.243464 -0.219172 9.56796 7.25421
251 1 -0.632419 -5.5416 8.71352 0.470043
268 2 0.179744 -4.48895 8.23983 0.418846
28 4 1.22441 4.1639 6.76247 4.87997
19 4 1.34388 -1.39692 12.922 7.39689
12 4 1.30618 -0.880558 6.69472 5.46776
69 3 -0.800607 -5.6234 10.1782 4.62612
154 2 0.148627 1.55012 9.99688 6.87204
272 2 0.188997 0.684555 10.4758 0.453568
47 1 -0.647674 1.57598 10.3686 1.16925
15 4 1.04714 -4.10729 10.8439 15.7602
18 4 1.24214 -2.38029 8.00636 13.3468
22 4 1.2567 -0.465706 12.7037 11.7525
32 4 0.970474 -2.59134 10.727 9.16712
35 4 1.28739 -1.28621 10.6475 14.0783
228 2 -0.0333455 3.06161 7.05702 14.193
46 1 -0.654606 2.08697 8.0369 8.45384
157 2 0.177008 1.96027 10.2684 10.7046
51 1 -0.650891 0.272591 11.0584 15.1859
162 2 0.210767 -0.0189512 12.0986 15.5046
72 3 -0.849439 -2.00263 7.56792 11.8959
83 3 -0.770598 -0.0788655 7.1276 10.1018
91 3 -0.84927 -2.56443 9.49793 8.27302
92 3 -0.800662 -1.3896 11.7644 8.99494
95 3 -0.835075 3.82194 8.20288 11.7853
96 3 -0.773333 -1.26075 9.01016 13.9103
97 3 -0.82271 -1.04293 11.5936 12.7105
98 3 -0.806647 -2.7174 10.8821 14.8353
116 2 -0.0444511 -3.87275 8.79497 13.1536
120 2 0.0921311 -0.312078 12.0039 10.1953
126 2 -0.014777 -2.72982 10.2469 10.7557
127 2 -0.0393899 -4.06654 11.4872 8.99112
128 2 0.0335637 2.10579 10.1345 13.034
226 4 0.970484 4.43921 7.42912 15.1411
148 2 0.155175 3.13355 8.33697 8.84227
139 2 0.160157 -4.92004 11.3409 13.4163
160 2 0.175545 1.18852 11.0283 14.558
138 2 0.162055 -6.78688 12.6896 10.9459
149 2 0.19294 1.30715 8.79352 8.7104
140 2 0.156628 -5.98072 12.0195 14.9764
43 1 -0.634511 -5.79331 11.1822 14.0859
187 3 -0.793603 1.00209 13.0818 12.3209
161 2 0.187585 0.313925 10.2975 16.0583
235 2 0.160612 11.973 1.8015 2.46604
37 4 1.28193 12.8427 2.04527 5.52103
169 2 0.228762 10.858 6.53087 6.88152
39 4 1.32236 11.2277 4.09206 7.31533
45 1 -0.680499 7.20256 5.2418 7.12458
54 1 -0.65853 10.383 5.60873 6.49157
101 3 -0.789388 14.1909 2.76158 5.04535
102 3 -0.83302 13.0438 0.832731 6.49262
103 3 -0.743041 6.03863 5.69861 1.52254
4 4 1.48319 15.287 2.44285 3.85183
106 3 -0.802083 11.8544 3.15899 6.1525
255 2 0.159506 9.82049 0.251214 4.77081
129 2 -0.000481322 11.9215 1.35484 4.20512
130 2 0.041401 7.7137 5.41511 3.71775
267 2 0.178837 11.6609 5.9597 0.681939
207 4 1.24423 14.084 0.235212 7.65935
146 2 0.1983 7.67988 4.27764 7.34323
105 3 -0.792803 9.82785 3.21057 7.95052
145 2 0.159837 7.48769 5.64899 6.10503
170 2 0.18208 9.20963 5.51252 6.71794
171 2 0.176317 10.6508 5.33445 5.42468
221 1 -0.656941 8.68468 0.397359 1.77057
224 2 0.177546 8.70213 1.17704 0.900966
225 2 0.121867 8.92791 0.852054 2.84199
231 1 -0.647545 11.8296 0.662329 2.33856
232 3 -0.795412 14.4507 1.13463 2.99284
266 2 0.0655117 12.2466 3.96785 0.395426
249 1 -0.652853 11.4088 5.11529 0.011377
234 2 0.16575 11.565 0.344949 1.24899
233 2 0.157455 11.0809 0.161162 3.14712
144 2 0.163051 7.27852 6.02505 8.001
11 4 1.50694 12.8174 6.41062 8.90835
36 4 1.35673 9.09765 2.10016 8.79349
52 1 -0.673479 10.449 0.88404 9.43426
188 3 -0.788127 8.72141 2.11641 14.333
100 3 -0.836882 8.30175 2.69036 10.0128
107 3 -0.805385 12.2717 4.72331 8.34187
110 2 0.0316802 14.8014 3.04176 10.2618
203 2 0.161979 8.70874 6.26873 9.21837
202 2 0.220999 13.8789 3.97151 11.4545
163 2 0.172982 11.3138 0.975548 8.67044
6 4 1.32115 15.7971 2.38235 9.03417
165 2 0.205351 10.6713 1.30815 10.461
172 4 1.03096 15.8929 2.48497 14.5643
173 1 -0.666452 14.6239 1.17978 14.03
174 2 -0.00646875 14.1689 2.74928 15.053
175 2 0.122925 15.4994 0.633768 13.282
176 2 0.153648 13.7615 1.64958 13.4236
263 3 -0.862663 14.845 1.28172 8.50622
178 4 1.05608 13.3883 5.41643 14.5959
180 4 1.27337 9.99017 1.56443 13.5088
181 4 1.31867 11.7339 4.00837 12.2809
184 1 -0.643059 10.9634 0.507146 14.7527
185 1 -0.698653 12.9804 3.46735 10.8876
121 2 0.00920248 7.44784 3.59097 12.4425
189 3 -0.809623 10.9493 2.61536 12.775
190 3 -0.841534 12.5683 4.70242 13.4077
192 3 -0.79717 10.6537 5.1195 11.6103
177 2 0.197277 14.2744 0.616953 14.9488
199 2 0.156179 11.7968 1.28135 14.9853
200 2 0.268723 12.7313 3.90678 9.84051
201 2 0.146572 13.0247 2.32211 10.9063
182 4 1.03676 10.4878 6.43743 10.7305
250 2 0.167549 11.4812 5.12027 16.0215
262 3 -0.815806 16.8292 2.08401 15.7822
122 2 -0.0366556 3.59961 8.29915 5.3552
270 2 0.195356 0.801127 12.2558 1.48831
167 2 0.174107 9.32749 6.78855 3.22884
53 1 -0.650202 8.3282 7.06401 3.4869
104 3 -0.847316 5.4033 6.98966 3.9035
236 4 1.04033 6.35174 11.068 0.0743039
125 2 -0.0372145 4.17174 9.17982 2.24349
150 2 0.142134 2.56854 10.9944 0.904109
166 2 0.064253 7.73813 8.01178 2.37843
168 2 0.160395 8.27926 7.6161 4.45518
206 4 1.19077 9.59446 10.4039 4.1298
215 2 0.161685 6.96627 8.33531 7.39191
208 4 1.09488 7.71324 10.5896 6.85602
209 1 -0.656437 6.58926 9.0808 6.62944
2 3 -0.804784 9.50753 11.5395 3.08343
211 3 -0.785087 8.61577 10.6096 5.50593
212 3 -0.793969 6.68024 11.8102 7.27326
213 2 -0.00115867 8.97036 8.93164 3.48421
254 1 -0.685536 1.57031 12.0291 4.45793
216 2 0.177178 6.75879 8.7808 5.52806
217 2 0.164373 5.61358 9.56311 6.87326
239 2 0.0909301 6.85281 9.26587 0.995095
230 4 1.14767 5.27767 12.6753 2.56656
237 1 -0.651601 7.94864 9.90228 0.585636
238 3 -0.814194 5.69499 11.8645 1.23429
240 2 0.197616 8.68563 10.057 1.433
257 2 0.134565 2.47684 11.5599 5.01012
256 2 0.163095 1.57472 11.8542 3.3445
258 1 -0.668449 5.4112 11.417 3.9219
259 2 0.162886 5.7639 10.3965 3.68545
260 2 0.123171 4.21985 11.469 4.16869
261 2 0.21055 6.14282 12.0295 4.59479
252 2 0.172624 10.9493 8.73143 1.6745
38 4 1.00927 6.47272 6.51073 2.87672
34 4 1.01321 3.75309 9.69769 12.4064
40 4 0.938898 6.33837 10.903 13.3221
108 3 -0.8452 4.90938 10.3491 13.1563
109 3 -0.823145 6.91829 11.1759 14.7208
131 2 -0.0394137 6.46131 12.2051 12.3848
132 2 -0.0618786 7.39177 9.98897 12.4632
158 2 0.129706 3.57287 11.178 10.6984
159 2 0.237331 2.12962 11.8027 11.7595
186 1 -0.661202 8.82749 7.14223 9.9622
191 3 -0.842747 11.7179 7.03713 9.84849
214 2 -0.0248371 4.68273 12.4567 8.88663
194 2 -0.00474612 9.73087 7.76352 11.5485
204 2 0.159474 8.87131 8.2527 9.41927
205 2 0.123669 8.06934 7.16439 10.8301
218 2 0.145515 8.29947 9.83034 9.341
229 2 -0.0140992 5.51886 8.06863 14.0218
269 2 0.13825 10.1018 11.2611 13.3254
253 2 0.131665 11.6409 8.52098 15.957
210 1 -0.650109 8.91004 10.1358 8.4873
264 2 0.0674576 9.18188 12.11 15.9751
50 1 -0.68679 2.64161 10.8509 11.3269
219 2 0.172973 9.47199 11.1134 8.59867
193 2 0.0749884 11.1311 9.79817 14.6637
241 2 0.164254 9.55234 9.82695 15.7707
198 2 0.181693 2.90426 12.4655 14.134
164 2 0.163703 1.61144 12.6636 9.45614
274 2 0.175277 9.61091 9.3071 8.06366
273 2 0.175188 1.84177 13.0469 15.7019
ITEM: TIMESTEP
200
ITEM: NUMBER OF ATOMS
274
ITEM: BOX BOUNDS xy xz yz pp pp pp
-8.4133192000000001e+00 1.8085955600000002e+01 -8.4133192000000001e+00
0.0000000000000000e+00 1.3273200000000001e+01 1.1997800000000001e+00
0.0000000000000000e+00 1.6075500000000002e+01 4.3120000000000003e-01
ITEM: ATOMS id type q x y z
119 2 -0.0324809 7.28954 1.82325 4.90593
5 4 1.26466 0.494348 1.89882 0.412884
7 4 1.12198 1.23525 2.21307 5.23749
9 4 1.26807 -0.232577 4.45169 1.93606
10 4 1.56873 0.425575 4.38612 7.19058
242 1 -0.675587 3.29906 0.550439 2.89782
21 4 0.800185 5.69289 1.74622 5.42917
26 4 1.31377 5.25789 4.64068 6.77768
41 1 -0.660685 1.45415 0.730365 6.39566
44 1 -0.668142 3.68511 3.72986 1.74981
55 3 -0.825788 1.06225 0.639755 1.33931
56 3 -0.826319 -0.224936 2.07296 4.59016
58 3 -0.851788 -1.36189 3.65131 2.79205
59 3 -0.80436 0.812472 3.54534 1.12214
243 2 0.158953 3.36806 1.69568 2.56092
61 3 -0.797763 1.54145 3.32447 6.24554
62 3 -0.824644 -0.403125 5.36183 6.25281
74 3 -0.801346 5.54446 0.58963 6.99421
78 3 -0.863641 0.615563 5.56482 2.67402
81 3 -0.815229 5.42185 3.26652 5.86104
84 3 -0.801939 2.81807 6.11787 4.11805
85 3 -0.789501 4.55746 5.94433 6.16456
99 3 -0.846946 7.98847 1.31015 7.83982
111 2 -0.00865409 2.44743 1.95521 3.98386
112 2 -0.0131877 -1.19926 5.31502 0.805053
244 2 0.116286 2.93377 0.344808 4.00372
118 2 -0.030566 4.49417 1.24403 4.32471
133 2 0.231383 1.17719 0.981717 7.47034
134 2 0.14244 2.59688 0.576912 6.28888
223 2 -0.0907957 6.34175 1.05143 3.60414
141 2 0.156292 4.23694 2.6928 1.63821
142 2 0.280282 2.52489 3.68984 1.46688
143 2 0.204985 3.87423 4.25508 2.75153
220 4 1.02925 6.90826 0.444628 1.91931
222 3 -0.795751 6.54929 1.40329 0.686812
113 2 0.00605478 -1.76326 6.28318 4.20216
24 4 1.27468 4.75172 4.79967 0.626426
60 3 -0.816934 -0.676076 3.59023 8.03063
248 2 0.182007 3.281 3.39089 14.9085
8 4 1.2819 1.61966 2.22692 10.5516
13 4 1.25647 0.151061 4.38291 12.3324
14 4 1.5254 -1.51703 6.50932 10.7187
20 4 1.30208 4.59423 2.92395 9.21648
23 4 1.26957 6.98674 2.63403 11.0809
27 4 1.35269 1.3096 6.54836 9.45619
77 3 -0.764958 6.77492 4.01562 15.6543
42 1 -0.652259 1.97139 0.720345 11.6756
57 3 -0.788311 0.285081 1.72302 9.59978
63 3 -0.839386 -0.620842 3.69243 13.6233
64 3 -0.82882 1.00204 3.34118 11.5684
65 3 -0.817503 -2.52867 6.13214 9.59528
66 3 -0.824201 -0.977734 5.01634 11.3638
73 3 -0.779983 3.16679 2.60005 9.7918
75 3 -0.856804 5.62197 2.87999 10.3936
76 3 -0.845219 6.9879 1.17903 11.7727
80 3 -0.787939 4.71959 4.25166 8.34449
82 3 -0.788242 1.10482 5.40696 8.37025
86 3 -0.764462 2.51274 6.15757 10.7891
114 2 -0.00864288 1.15094 5.64193 12.8886
137 2 0.16345 3.10837 0.515483 11.537
124 2 -0.0422091 4.55335 5.49275 12.4413
136 2 0.161226 1.7009 0.931573 12.7708
179 4 1.30126 7.41452 2.57853 15.323
183 1 -0.678845 6.0577 1.50645 14.5923
117 2 0.1021 5.07213 1.65887 8.08088
195 2 0.263191 6.40314 1.30848 13.4898
196 2 0.175113 5.14685 2.20451 14.6882
197 2 0.224326 6.04353 0.622236 15.2652
227 3 -0.828759 4.94114 6.06506 15.8724
71 3 -0.814778 -2.36355 6.76835 14.3534
245 1 -0.674191 2.6654 2.43163 14.853
246 2 0.176439 1.88084 2.50253 14.0476
247 2 0.166208 3.28391 1.48357 14.8173
262 3 -0.784764 0.144511 2.35436 15.9951
29 4 0.924553 3.85676 6.66817 11.3651
1 4 1.33667 -6.54782 12.3655 2.08774
3 3 -0.796712 -5.70354 11.3272 0.957701
25 4 1.46457 1.46782 6.70215 3.39511
16 4 1.55001 -2.84568 8.5028 7.0942
17 4 1.26776 -4.24607 10.0897 4.58693
271 2 0.177286 1.06177 10.6809 2.20499
30 4 1.04426 2.66984 8.90359 1.37897
31 4 1.21245 -1.94781 10.1849 2.7691
33 4 1.14281 0.0282841 11.1734 5.18908
48 1 -0.655662 -1.12853 8.82725 1.74673
49 1 -0.670327 0.688621 9.80594 6.39693
67 3 -0.782781 -3.923 7.26628 7.51447
68 3 -0.824534 -1.57133 7.80923 6.40961
265 2 0.17434 -4.18227 12.8174 2.58515
70 3 -0.7816 -3.6492 9.34434 5.85933
79 3 -0.826277 0.546473 7.39945 4.85518
87 3 -0.809643 1.88401 7.94747 2.46383
88 3 -0.802311 2.97043 8.13894 0.0211627
89 3 -0.764315 -1.9332 11.7834 1.85135
90 3 -0.806992 -3.39289 9.66286 3.29912
93 3 -0.789951 -0.696005 10.538 3.91155
94 3 -0.845386 -0.80402 12.0994 6.20512
115 2 -0.0379645 -4.21099 11.7561 4.83488
147 2 0.184427 2.22153 7.76749 7.50343
151 2 0.198588 -0.0472375 9.33366 1.47934
152 2 0.172785 -1.90267 8.67185 0.893073
153 2 0.184424 -1.03994 7.97563 2.48157
135 2 0.247974 -7.57177 12.7485 5.93688
155 2 0.293519 0.642398 8.83676 5.83684
156 2 0.222417 -0.122481 9.91759 7.18448
251 1 -0.678703 -5.35494 8.7058 0.532964
268 2 0.197148 -4.34343 8.2973 0.530932
28 4 1.22337 4.0321 6.84323 4.91603
19 4 1.40996 -1.37668 12.9214 7.43908
12 4 1.30889 -0.74431 6.73057 5.49571
69 3 -0.809178 -5.82849 9.88425 4.36893
154 2 0.140929 1.72313 10.1285 6.7033
272 2 0.182768 0.765059 10.6009 0.352396
47 1 -0.672963 1.56203 10.4712 1.18468
161 2 0.18741 -0.902919 10.0096 0.106634
15 4 1.10326 -4.05158 10.8191 15.9192
18 4 1.22249 -2.21067 7.97791 13.2952
22 4 1.22826 -0.430836 12.7285 11.809
32 4 0.975294 -2.50526 10.7145 9.29528
35 4 1.2092 -1.18837 10.7183 14.1054
228 2 -0.0181047 3.18228 7.07725 14.1597
46 1 -0.656795 2.11274 8.07163 8.61559
157 2 0.164786 1.98393 9.85077 10.7956
51 1 -0.644763 0.284742 11.1127 15.1936
162 2 0.20283 0.0517073 12.2399 15.3847
72 3 -0.869775 -2.23347 7.4853 11.7656
83 3 -0.798408 -0.0614661 7.15973 9.98162
91 3 -0.851854 -2.64562 9.56928 8.23012
92 3 -0.816012 -1.44792 11.8442 9.01076
95 3 -0.838175 3.73054 8.08564 12.0573
96 3 -0.79129 -1.10677 9.07182 13.6903
97 3 -0.829685 -1.13922 11.6746 12.7769
98 3 -0.760992 -2.64057 10.9949 15.2564
116 2 -0.0391588 -3.72574 8.78147 13.5344
120 2 0.0698714 -0.290236 12.0089 10.2653
126 2 -0.0134111 -2.37179 10.1292 10.7954
127 2 -0.0390207 -3.96005 11.3792 9.63347
128 2 0.0159824 2.13097 10.306 13.1143
226 4 0.971742 4.48384 7.35109 15.1505
148 2 0.150326 3.12465 8.32382 9.102
139 2 0.156641 -4.93665 11.7393 13.2709
160 2 0.150293 1.24363 10.9758 14.5888
138 2 0.158229 -7.06929 12.7279 11.229
149 2 0.191688 1.32868 8.86968 8.74007
140 2 0.156443 -5.62827 12.1715 14.8966
43 1 -0.674265 -5.76523 11.4493 14.0111
235 2 0.159789 12.0061 1.76468 2.54978
37 4 1.30288 12.8606 2.00444 5.55601
169 2 0.218145 10.7317 6.42519 6.94822
39 4 1.35799 11.1728 4.0155 7.27856
45 1 -0.65825 7.11267 5.12215 6.75913
54 1 -0.663045 10.3174 5.52752 6.41914
101 3 -0.762923 14.0169 2.89787 4.93004
102 3 -0.845423 13.1947 0.747542 6.41494
103 3 -0.789861 5.80668 5.66971 1.68229
4 4 1.51639 15.3006 2.41837 3.763
106 3 -0.817463 11.8627 3.00762 6.23838
255 2 0.157327 9.84179 0.404522 4.80077
129 2 0.00328046 11.8935 1.44252 4.24389
130 2 0.0484278 7.67063 5.36412 3.69775
267 2 0.172611 11.3075 6.21771 0.169595
233 2 0.155865 11.1318 0.173167 3.27441
146 2 0.183325 7.61151 4.08134 6.95222
105 3 -0.815318 9.99492 3.22978 7.97833
145 2 0.163935 7.39127 5.60197 5.76995
170 2 0.181577 9.1593 5.36746 6.56226
171 2 0.178995 10.6597 5.44687 5.34288
221 1 -0.65178 8.7826 0.472168 2.00854
224 2 0.172845 9.0383 1.3052 1.29629
225 2 0.125283 8.8168 0.770273 3.1775
231 1 -0.677759 11.8881 0.662451 2.42898
232 3 -0.821334 14.7104 1.03741 3.06439
266 2 0.0896979 12.4405 4.33228 0.54798
144 2 0.15666 7.2352 5.83802 7.65863
234 2 0.172837 11.5416 0.417636 1.40808
11 4 1.47889 12.8243 6.29637 8.89312
36 4 1.30998 9.05039 2.14298 8.76961
52 1 -0.675747 10.3453 0.87074 9.35409
188 3 -0.790793 8.63883 2.31684 14.227
100 3 -0.806933 8.27026 2.83204 10.1122
107 3 -0.781175 12.2535 4.71443 8.39143
110 2 0.0364043 14.8605 3.12156 10.2211
203 2 0.133266 8.74403 5.95828 9.28996
202 2 0.2014 14.1273 3.74963 11.4472
163 2 0.175716 11.2503 1.1962 8.66264
6 4 1.32124 15.7487 2.41275 8.97785
165 2 0.215939 10.5439 1.1302 10.436
172 4 0.95834 15.8902 2.54182 14.6387
173 1 -0.645677 14.6328 1.16111 13.9991
174 2 0.0256345 14.0957 2.55677 15.1201
175 2 0.100421 15.7998 0.764122 13.6355
176 2 0.141902 14.2126 1.811 13.0686
263 3 -0.858827 14.8417 1.29178 8.44957
178 4 1.04781 13.5781 5.40243 14.588
180 4 1.25243 9.9483 1.50862 13.472