ITEM: TIMESTEP
0
ITEM: NUMBER OF ATOMS
274
ITEM: BOX BOUNDS xy xz yz pp pp pp
-8.3797999999999995e+00 1.8013900000000000e+01 -8.3797999999999995e+00
0.0000000000000000e+00 1.3273200000000001e+01 1.1950000000000001e+00
0.0000000000000000e+00 1.6075500000000002e+01 4.3120000000000003e-01
ITEM: ATOMS id type q x y z
119 2 -0.00430576 7.37526 1.23518 5.25322
12 4 1.32239 -0.870909 6.3079 5.31647
7 4 1.14708 0.920894 2.09119 5.10743
9 4 1.24686 -0.422304 4.69065 1.86353
10 4 1.60781 0.372093 4.30644 7.31615
242 1 -0.676458 3.2936 0.584475 2.89345
21 4 0.808633 5.74105 1.46597 5.6585
26 4 1.26594 5.45717 4.55075 6.8884
41 1 -0.651264 0.754564 0.419044 5.99651
44 1 -0.66675 4.14965 3.77198 1.7531
55 3 -0.811344 1.11186 0.899791 1.07573
56 3 -0.843998 -0.36477 2.34832 4.32122
58 3 -0.78699 -1.75035 4.45071 2.76404
59 3 -0.831363 -0.0398458 3.36975 1.10913
243 2 0.159851 3.44574 1.7237 2.84851
61 3 -0.780314 1.19579 3.06768 6.2823
62 3 -0.852736 -0.624353 5.22379 6.42569
74 3 -0.790243 5.49457 0.393369 7.29962
78 3 -0.859426 0.74192 5.4181 2.67125
81 3 -0.777132 5.78223 2.98415 5.98138
84 3 -0.80825 2.99553 5.82697 4.14497
85 3 -0.832046 5.02397 5.78172 5.95211
113 2 0.110628 -1.45835 5.38447 3.98952
111 2 -0.00472518 2.27113 1.88708 4.0131
112 2 -0.0212 -0.962387 5.56263 0.529897
5 4 1.35853 0.371247 2.02738 0.227848
118 2 -0.0308404 4.53757 1.07611 4.32878
24 4 1.29593 4.95359 4.93586 0.439556
222 3 -0.787215 6.2497 1.35716 1.11943
223 2 -0.0992495 6.22703 0.867697 3.89463
141 2 0.194712 4.46764 2.69365 1.65969
142 2 0.190067 3.02201 3.93733 1.66115
143 2 0.189232 4.56617 4.30483 2.68781
220 4 1.01825 6.72519 0.241763 2.22281
135 2 0.244275 0.578529 0.594354 7.0986
82 3 -0.822993 1.51881 5.26651 7.92498
267 2 0.171267 -3.66096 6.26892 0.406547
244 2 0.12263 3.0248 0.174358 3.94263
138 2 0.172251 1.56067 0.744134 12.3912
8 4 1.2567 1.85377 2.68574 10.9737
13 4 1.23629 0.404794 4.95639 12.3105
229 2 -0.0378213 3.61064 6.37989 13.4966
20 4 1.29109 4.44144 2.89803 9.20296
23 4 1.2533 6.9386 2.93318 11.1909
99 3 -0.821677 7.9036 1.25761 8.40017
226 4 0.913724 3.52429 6.38263 15.1746
42 1 -0.658868 2.32239 1.5448 12.4098
57 3 -0.822094 0.43769 2.07572 10.382
63 3 -0.86395 -0.340257 3.91674 13.3556
64 3 -0.830473 1.83622 4.3766 11.9884
65 3 -0.827254 -2.38818 6.30293 9.54181
66 3 -0.878427 -0.515562 5.3899 11.0602
73 3 -0.829271 3.12022 2.56812 9.96057
75 3 -0.860841 5.69766 2.92454 10.2184
76 3 -0.841993 7.08537 1.60524 12.0438
80 3 -0.793973 4.48281 4.12681 8.18656
123 2 -0.0526674 5.1666 6.00262 10.8331
137 2 0.172914 3.33331 1.13195 12.0166
114 2 -0.0295307 0.789442 6.32667 13.2582
248 2 0.169683 3.52164 3.94964 15.8902
124 2 0.0582283 3.25893 5.21513 12.0746
136 2 0.177232 2.5007 2.16767 13.451
179 4 1.25595 7.24098 2.43971 15.6814
183 1 -0.669144 5.86945 1.49881 14.809
77 3 -0.747637 6.92659 4.16882 15.6921
60 3 -0.846417 -0.474363 3.49288 8.35773
196 2 0.181042 5.35728 2.21835 14.2122
117 2 0.110626 4.85345 1.45918 8.31862
227 3 -0.835922 4.90589 5.95077 15.7567
195 2 0.287801 6.39802 0.598733 14.2062
245 1 -0.679701 2.99421 3.21647 15.1884
246 2 0.158066 2.64565 3.7133 14.2363
247 2 0.171234 3.73742 2.39459 14.9381
262 3 -0.829843 0.332272 2.03789 15.369
228 2 -0.0227955 2.42613 5.11969 15.2886
14 4 1.56157 -0.990419 6.61829 10.2676
29 4 0.954947 3.65172 6.58993 11.1706
266 2 0.0937312 -1.59069 4.8253 15.8203
121 2 -0.0213482 6.74854 4.2489 12.2576
197 2 0.192265 5.29069 1.16496 15.7809
86 3 -0.829045 2.73407 6.60447 9.92363
27 4 1.36733 1.78263 6.64227 8.69417
15 4 1.03115 -5.17511 10.1581 0.0284757
3 3 -0.786448 -5.74092 11.5133 0.967686
268 2 0.23355 -4.38982 8.65074 1.56036
16 4 1.50821 -3.09373 7.97488 6.56486
17 4 1.24248 -4.49623 9.87467 4.72632
154 2 0.17109 1.07727 9.54171 7.27848
161 2 0.189033 -0.983851 10.0789 0.503756
31 4 1.21456 -2.0736 10.2075 2.97162
33 4 1.16018 -0.0589194 11.071 5.50767
48 1 -0.655185 -0.99241 8.88163 2.07454
49 1 -0.633345 0.1378 9.46859 6.57262
272 2 0.175223 0.800239 10.3225 0.346656
68 3 -0.863699 -1.87127 7.40807 5.65391
28 4 1.28497 4.21536 6.56153 4.91333
70 3 -0.825578 -4.22226 8.71352 5.73358
79 3 -0.847523 0.567658 7.09686 4.86674
87 3 -0.815838 1.97382 7.83524 2.62123
30 4 1.02412 2.31539 8.2206 1.10573
89 3 -0.763424 -2.06047 11.6222 1.88737
90 3 -0.812149 -3.55359 9.73837 3.3139
93 3 -0.81485 -1.01775 10.6692 4.29481
94 3 -0.808952 -0.539052 12.1423 6.54333
115 2 -0.0378913 -4.03097 11.2986 5.50983
147 2 0.185 2.05724 7.52188 6.52288
151 2 0.185696 0.00644404 9.38375 1.56015
152 2 0.161086 -1.62503 8.42768 1.25377
153 2 0.194907 -0.817708 8.20562 3.01825
251 1 -0.670879 -5.32591 8.5341 0.951386
155 2 0.280244 0.23433 8.54924 5.85781
156 2 0.29817 -0.926382 9.3979 7.12251
46 1 -0.671346 2.59995 7.95251 7.48116
148 2 0.167353 3.69692 7.67343 7.58859
265 2 0.193436 -4.25197 12.8225 2.43286
19 4 1.3601 -1.33312 12.8326 7.85669
1 4 1.29541 -6.53924 12.526 1.9059
69 3 -0.802784 -6.01343 9.93971 4.32228
91 3 -0.820738 -2.41525 9.32328 7.81287
271 2 0.17154 1.75564 10.434 1.98743
47 1 -0.667403 1.77714 10.0502 0.958638
25 4 1.42154 1.58706 6.55171 3.57003
122 2 0.0109183 3.57705 7.92472 5.791
149 2 0.144146 2.38553 9.10864 7.61191
133 2 0.140556 -6.54265 12.8413 5.82168
270 2 0.183806 0.588865 12.115 1.71841
159 2 0.193034 1.10828 9.70949 11.5158
18 4 1.22621 -1.93069 8.33392 12.8931
22 4 1.18641 -0.668922 12.9684 12.183
32 4 0.95538 -2.25361 10.2485 9.042
35 4 1.18736 -1.21026 10.6867 14.5043
50 1 -0.650687 2.00582 10.3963 11.7131
160 2 0.153101 1.09091 10.8936 14.7839
158 2 0.241033 1.60032 11.4479 12.0722
51 1 -0.633025 0.252588 11.2309 15.5242
162 2 0.227345 0.167233 12.3564 15.638
72 3 -0.828669 -1.46252 7.96864 11.3902
83 3 -0.783009 0.116057 7.14801 9.21939
88 3 -0.785431 2.93055 7.71824 15.8671
92 3 -0.802013 -1.20242 11.3939 8.96965
95 3 -0.797621 3.64879 7.95372 12.0081
96 3 -0.794265 -0.889657 9.08144 13.7778
97 3 -0.794685 -1.49396 12.0601 13.2221
98 3 -0.784038 -2.5003 10.7594 15.4083
116 2 -0.046248 -3.40839 9.14672 12.6924
120 2 0.0297379 -0.695721 12.1967 10.6843
126 2 0.0711295 -1.91684 9.20631 10.3753
127 2 -0.0468747 -3.81161 10.752 9.42328
128 2 0.0402822 2.14943 9.85413 13.5357
139 2 0.164998 -4.3952 10.995 13.6586
187 3 -0.79573 0.91779 12.955 12.651
43 1 -0.662525 -5.41795 10.9178 14.1418
71 3 -0.846104 -2.37068 7.02219 13.6579
140 2 0.180322 -5.63558 11.8355 14.7133
235 2 0.163432 11.5676 1.3061 2.88034
37 4 1.27457 12.9885 1.99468 5.6344
221 1 -0.651448 8.60957 0.273993 2.04274
39 4 1.26378 11.2397 3.94265 7.48412
45 1 -0.660942 7.13351 5.12681 7.57796
54 1 -0.662012 10.5205 5.38327 6.55
101 3 -0.815263 13.9003 2.96946 4.79713
102 3 -0.850864 13.8235 1.08148 6.59441
250 2 0.180121 11.9338 4.65367 0.458325
4 4 1.45879 14.996 2.72619 3.67788
106 3 -0.789745 11.8742 2.93601 6.37502
232 3 -0.802769 14.429 1.4913 2.72362
129 2 -0.00842532 11.9848 1.07481 4.53978
130 2 0.0746833 7.65181 5.85509 3.35369
169 2 0.249807 10.9994 6.37438 6.78828
207 4 1.24693 14.4695 0.326107 7.83836
146 2 0.193647 7.84856 4.44923 7.05703
103 3 -0.798855 5.89096 6.18144 1.21274
145 2 0.158414 7.36935 6.24593 7.38403
170 2 0.178357 9.4157 5.34081 6.81183
171 2 0.189239 10.7804 4.96578 5.45187
225 2 0.115101 8.80617 0.522978 3.21792
224 2 0.177192 9.0413 1.07162 1.38943
231 1 -0.648771 11.7726 0.229141 2.77737
273 2 0.180715 9.33075 0.202628 0.0969628
11 4 1.48473 13.059 6.02134 8.74315
36 4 1.24569 8.99666 2.25869 9.22474
52 1 -0.689425 10.2968 1.21043 10.0875
186 1 -0.665773 8.82034 6.15137 9.86454
100 3 -0.801482 8.30757 3.27637 10.3817
107 3 -0.789432 12.7101 4.40815 8.65194
110 2 0.0102344 14.7519 2.79914 10.4789
105 3 -0.795935 9.93635 3.29466 8.14665
202 2 0.172834 14.0062 3.7096 11.8234
163 2 0.176088 11.1359 2.00546 10.1445
144 2 0.194458 7.04349 4.89791 8.7352
165 2 0.231629 9.94449 0.805367 11.0756
172 4 0.999875 16.1065 2.61629 14.1679
173 1 -0.662027 14.3795 1.6926 13.6759
174 2 0.062673 14.4365 2.94138 14.9724
175 2 0.0592569 15.6567 1.20306 13.0235
176 2 0.167885 13.8598 2.23922 12.8778
184 1 -0.658062 10.9617 0.662469 15.0693
178 4 1.10899 13.9335 5.74588 14.3687
180 4 1.24546 9.88992 1.58895 13.881
181 4 1.30155 11.8601 3.98023 12.6702
205 2 0.203378 9.22065 5.15999 9.11705
185 1 -0.686971 13.0581 3.23796 11.3086
177 2 0.175278 13.7208 0.840721 14.0923
189 3 -0.777309 10.808 2.79762 13.2885
190 3 -0.802927 12.8158 4.73603 13.7555
192 3 -0.763518 11.1102 5.08758 11.7305
263 3 -0.845918 15.577 1.01732 8.69487
199 2 0.173557 11.9609 1.19628 14.9621
200 2 0.267531 12.8562 3.62254 10.2188
201 2 0.124221 12.8977 2.09896 11.5485
182 4 1.02492 10.5621 6.2237 10.6024
204 2 0.168597 8.23047 5.76705 10.7453
6 4 1.32517 16.0381 2.35191 9.3862
164 2 0.154056 10.3966 0.391481 9.23915
188 3 -0.75985 8.61372 2.09225 14.724
249 1 -0.645848 14.066 5.66186 16.0516
237 1 -0.668663 7.75062 10.6967 0.173139
257 2 0.158755 2.33971 10.9715 5.85662
167 2 0.172494 8.89989 7.07153 1.83891
53 1 -0.645377 8.23918 7.33349 2.67975
104 3 -0.789864 5.16134 7.1535 3.85553
134 2 0.247777 8.42772 12.6953 5.46272
125 2 -0.00944633 3.97307 8.37229 0.815038
2 3 -0.82117 9.32754 11.7866 3.13735
166 2 0.0314642 7.3248 8.53641 2.06848
168 2 0.169082 8.89749 7.70984 3.53288
206 4 1.22369 9.32321 10.3809 3.85789
215 2 0.162267 4.94886 9.60844 6.98421
208 4 1.02964 7.41474 10.3722 6.64907
209 1 -0.664496 5.85962 9.18903 6.47797
255 2 0.150005 1.61427 12.5205 4.98746
211 3 -0.767279 8.40852 10.3397 5.13367
212 3 -0.7672 6.68925 11.7902 7.29092
213 2 -0.0112923 8.97652 9.1741 2.7066
254 1 -0.678825 1.74339 11.3948 5.03264
216 2 0.160257 6.17969 8.25624 6.95547
217 2 0.180139 5.70786 9.03182 5.33656
230 4 1.09948 5.35446 12.8695 2.599
234 2 0.185519 3.16243 12.7158 1.67722
253 2 0.154247 11.5074 7.64138 0.230441
238 3 -0.792758 5.42968 12.0943 1.09009
240 2 0.168113 8.05037 10.9622 1.25345
38 4 0.966091 6.3458 6.95343 2.46496
233 2 0.155227 2.83369 12.4003 3.66321
258 1 -0.695958 5.78035 11.7157 4.08908
259 2 0.166554 6.58995 11.0245 3.64565
260 2 0.157904 4.81466 11.2182 4.30107
261 2 0.223189 6.21782 12.2654 4.93941
274 2 0.199575 9.50277 9.60744 7.70546
150 2 0.149656 2.75872 10.4087 0.388518
252 2 0.151726 10.4573 8.67628 1.51989
256 2 0.150156 2.02139 10.9326 3.97623
239 2 0.0984941 7.03245 9.52679 0.0611419
67 3 -0.836249 13.0757 6.7471 7.2725
198 2 0.173462 2.61682 12.4514 14.6111
40 4 0.92241 5.92209 11.4907 12.9209
108 3 -0.839401 4.69135 10.6065 12.8154
109 3 -0.780903 6.63939 11.6211 14.3111
214 2 -0.0505913 4.89377 12.6989 8.90337
132 2 -0.0445662 6.88582 11.0506 11.6505
236 4 0.992835 7.33205 11.941 15.8866
203 2 0.163274 8.34992 6.93033 9.24635
131 2 -0.0218271 5.60355 13.0574 12.4133
193 2 0.0581133 11.3192 9.66496 15.12
218 2 0.125598 7.77601 8.7584 8.23918
194 2 0.00281063 9.44303 7.32232 11.3151
241 2 0.1726 9.88346 10.9953 15.4963
269 2 0.161316 10.5837 10.7866 13.4498
264 2 0.116653 8.76239 12.9772 15.7122
219 2 0.182261 8.43222 10.5683 8.86539
34 4 1.00253 3.55508 9.62049 12.4888
191 3 -0.780697 11.6663 6.81354 9.6142
157 2 0.120326 2.70845 10.4495 10.5719
210 1 -0.644787 8.49221 9.75091 8.0876
ITEM: TIMESTEP
100
ITEM: NUMBER OF ATOMS
274
ITEM: BOX BOUNDS xy xz yz pp pp pp
-8.3765848999999974e+00 1.8013900000000000e+01 -8.3765848999999974e+00
0.0000000000000000e+00 1.3273200000000001e+01 1.1950000000000001e+00
0.0000000000000000e+00 1.6075500000000002e+01 4.3120000000000003e-01
ITEM: ATOMS id type q x y z
119 2 -0.00180914 7.42453 1.10151 5.22296
12 4 1.32064 -0.871053 6.39482 5.25806
7 4 1.13815 0.844815 2.12147 5.06201
9 4 1.25509 -0.461298 4.67793 1.79325
10 4 1.60111 0.426131 4.34035 7.1743
242 1 -0.693116 3.34971 0.521636 3.04909
21 4 0.835744 5.83968 1.3676 5.66525
26 4 1.19091 5.42782 4.38288 6.89951
41 1 -0.664122 0.751618 0.458154 5.99429
44 1 -0.683529 3.97579 4.03268 1.97825
55 3 -0.838046 1.10824 0.87856 1.20677
56 3 -0.853154 -0.50904 2.28525 4.32231
58 3 -0.804446 -1.71793 4.46556 2.74176
59 3 -0.862023 0.0981936 3.38666 1.06158
243 2 0.165032 3.57998 1.58172 3.01638
61 3 -0.808189 1.14625 3.27855 6.08924
62 3 -0.859855 -0.539353 5.37749 6.41711
74 3 -0.78031 5.60946 0.280814 7.30352
78 3 -0.87805 0.707049 5.35103 2.63934
81 3 -0.78944 5.60753 2.82301 5.95155
84 3 -0.81726 2.9748 5.9342 4.09143
85 3 -0.785939 4.80643 5.62734 5.78461
113 2 0.113659 -1.43272 5.40425 3.96905
111 2 0.00193551 2.23998 1.85919 4.04141
112 2 -0.0143472 -0.826111 5.96886 0.742489
5 4 1.39225 0.501059 2.04348 0.322096
118 2 -0.0175188 4.67792 0.938477 4.46267
24 4 1.2533 4.7256 4.87764 0.432044
222 3 -0.764005 6.2637 1.47385 1.06243
223 2 -0.0806129 6.32742 0.772834 3.82283
141 2 0.179616 4.28846 2.99899 1.96517
142 2 0.190417 2.79613 4.15457 1.86777
143 2 0.22551 4.4471 4.63003 2.77238
220 4 1.0153 6.81489 0.369641 2.1192
135 2 0.22171 0.813216 0.739716 7.08632
25 4 1.45787 1.58287 6.4192 3.44688
267 2 0.176341 -3.5067 6.25395 0.253881
248 2 0.161141 2.23508 3.53549 0.0837925
138 2 0.151648 1.14411 0.881731 12.6983
8 4 1.18168 1.85389 2.65722 11.1798
13 4 1.27665 0.354838 4.93903 12.4195
229 2 -0.0348512 3.49256 6.44304 13.3328
20 4 1.31717 4.56681 2.77568 9.30842
23 4 1.28972 7.00099 2.96818 11.2071
99 3 -0.810614 7.86071 1.15484 8.55349
226 4 0.936236 3.41122 6.3399 15.1058
42 1 -0.662449 2.12073 1.52953 12.6021
57 3 -0.781646 0.29105 2.25982 10.5097
63 3 -0.851857 -0.360201 3.8931 13.3969
64 3 -0.828379 1.77977 4.41834 11.9398
65 3 -0.863499 -2.28658 6.24113 9.57182
66 3 -0.84995 -0.683706 5.36745 11.3729
73 3 -0.769177 3.23369 2.39754 10.0115
75 3 -0.859288 5.67029 2.99361 10.3648
76 3 -0.843592 7.00404 1.57747 11.9167
80 3 -0.759077 4.55251 4.04681 8.35313
86 3 -0.795718 2.81747 6.58478 9.99182
137 2 0.167501 3.03148 0.934023 12.1924
114 2 -0.0319192 0.746558 6.33402 13.3682
197 2 0.164198 5.26635 1.32962 15.462
124 2 0.0647982 3.28208 5.18571 11.9937
136 2 0.186753 2.4683 2.13963 13.6509
179 4 1.27051 7.32393 2.559 15.4713
183 1 -0.676187 5.90496 1.68571 14.5685
77 3 -0.742444 6.91367 4.10188 15.5656
60 3 -0.819268 -0.409984 3.5205 8.29467
196 2 0.174317 5.42897 2.47423 13.9329
117 2 0.109166 5.06407 1.37396 8.42274
227 3 -0.844511 4.7687 5.84829 15.5797
195 2 0.251856 6.1722 0.712312 13.9915
245 1 -0.652461 3.09209 3.25578 15.2352
246 2 0.151667 2.66535 3.77923 14.345
247 2 0.156661 4.10192 2.57898 14.9609
262 3 -0.799052 0.61302 2.09494 15.3331
228 2 -0.0202645 2.22119 5.12585 15.3168
14 4 1.46792 -0.943741 6.58978 10.2856
29 4 0.90657 3.79108 6.61725 11.2608
266 2 0.0718084 -1.55289 4.6399 15.4992
27 4 1.4229 1.68319 6.53784 8.89035
121 2 -0.0132208 6.85397 4.10244 12.4421
82 3 -0.78494 1.59263 5.15464 8.04679
270 2 0.170131 0.414725 12.1232 1.39288
3 3 -0.767849 -5.8226 11.255 1.05797
268 2 0.226372 -4.81356 8.63325 1.92225
16 4 1.46345 -3.18724 7.91844 6.52662
17 4 1.23904 -4.48557 9.83957 4.74471
154 2 0.165301 0.825268 9.32197 7.55041
161 2 0.186775 -1.03392 10.13 0.340277
31 4 1.2612 -1.98424 10.3304 3.00322
33 4 1.09665 0.115933 10.9842 5.56706
48 1 -0.649036 -1.09801 8.93841 1.98729
49 1 -0.663014 0.0437816 9.37307 6.65277
272 2 0.174589 0.809399 10.2791 0.271469
68 3 -0.852461 -1.90626 7.51318 5.57768
28 4 1.23055 4.18549 6.63711 4.84201
70 3 -0.815479 -4.39294 8.57053 5.66106
79 3 -0.826018 0.552557 7.06328 4.84113
87 3 -0.796668 1.93299 7.71838 2.51721
30 4 0.951539 2.55604 8.29454 1.14397
89 3 -0.785646 -2.1329 11.7467 2.00595
90 3 -0.82785 -3.3625 9.79644 3.55588
93 3 -0.781265 -0.852345 10.7064 4.22136
94 3 -0.818878 -0.384715 12.2087 6.50616
115 2 -0.0190714 -4.1197 11.1779 5.74025
147 2 0.224808 1.77941 7.50549 6.5214
151 2 0.197802 -0.09067 9.34548 1.55465
152 2 0.173226 -1.87777 8.71151 1.18359
153 2 0.189183 -1.06296 8.13848 2.877
251 1 -0.655866 -5.40662 8.47133 0.995039
155 2 0.273122 0.21456 8.55716 5.87014
156 2 0.273853 -1.07729 9.29183 7.08865
46 1 -0.655974 2.361 7.78191 7.45443
148 2 0.167753 3.45973 7.4558 7.53957
133 2 0.176321 -6.7314 12.7029 5.57775
19 4 1.36539 -1.30448 12.6425 7.85861
1 4 1.29455 -6.57639 12.5669 2.06804
69 3 -0.809616 -6.05037 10.1966 4.32882
91 3 -0.849153 -2.59216 9.28207 7.79916
122 2 0.00650664 3.55142 7.85183 5.85355
47 1 -0.650581 1.77467 9.97327 0.90539
149 2 0.146077 2.13616 8.85804 7.8205
244 2 0.141074 -5.32562 12.8363 4.05248
253 2 0.163571 -4.96703 7.6802 0.294068
265 2 0.204242 -4.26493 12.6924 2.50892
271 2 0.165198 1.5916 10.1652 2.03924
159 2 0.204405 1.00621 9.82919 12.0211
18 4 1.22295 -1.97396 8.3204 12.8798
22 4 1.21254 -0.594435 13.037 12.0433
32 4 0.969707 -2.37992 10.1506 9.02369
35 4 1.22973 -1.2526 10.8006 14.3184
50 1 -0.663603 1.89425 10.5786 11.8781
160 2 0.15956 1.09546 11.0269 14.754
158 2 0.237684 1.58426 11.7018 12.0965
51 1 -0.642003 0.218939 11.28 15.4581
162 2 0.203017 0.0999156 12.3758 15.7476
72 3 -0.800038 -1.32839 8.12503 11.4913
83 3 -0.860392 0.33303 7.14857 9.37897
88 3 -0.733335 2.93994 7.66481 15.8034
92 3 -0.846332 -1.54995 11.4834 9.15687
95 3 -0.78634 3.61637 8.09671 12.0079
96 3 -0.780705 -0.946935 9.24909 13.7206
97 3 -0.828099 -1.25705 12.0247 13.1209
98 3 -0.771308 -2.62752 10.6757 15.309
116 2 -0.0413231 -3.24351 9.34836 12.6139
120 2 0.0785859 -0.832651 12.2662 10.5583
126 2 0.0893798 -1.73347 9.07621 10.2043
127 2 -0.0331689 -3.84602 10.5958 9.81198
128 2 0.0375451 2.33351 10.0311 13.6825
139 2 0.170041 -4.18608 11.0717 13.6632
140 2 0.169711 -5.51142 12.0476 14.5489
43 1 -0.647147 -5.25602 11.0865 14.0479
71 3 -0.82317 -2.47124 6.94478 13.6052
157 2 0.122125 2.36636 10.576 10.6776
269 2 0.146044 -5.9304 11.0431 13.1018
15 4 1.04631 -4.11637 10.6104 16.073
235 2 0.166996 11.5158 1.39405 3.05598
37 4 1.29815 13.0179 2.06431 5.70663
221 1 -0.674481 8.69757 0.216272 2.11314
39 4 1.26578 11.2497 3.93998 7.39144
45 1 -0.666255 7.03841 4.96752 7.61079
54 1 -0.674054 10.4965 5.49243 6.59671
101 3 -0.813651 13.9596 3.05084 4.8457
102 3 -0.858338 13.7141 1.16836 6.79297
250 2 0.187088 12.0959 4.86765 0.52709
4 4 1.45618 14.9535 2.73444 3.64952
106 3 -0.809694 11.8472 2.90944 6.29489
232 3 -0.796656 14.2838 1.50251 2.74267
129 2 -0.00310991 12.0994 1.04757 4.56088
130 2 0.0282096 7.60756 5.7312 3.33296
169 2 0.197942 10.6635 6.27599 7.37669
207 4 1.22712 14.5665 0.31056 7.80575
146 2 0.158602 7.78183 4.34593 6.93174
103 3 -0.789801 5.66653 6.0242 1.28802
145 2 0.148111 7.15993 6.13891 7.52138
170 2 0.166023 9.41725 5.24161 6.44454
171 2 0.211941 11.0363 5.7142 5.65318
273 2 0.177307 9.44763 0.365448 0.138613
224 2 0.165563 9.10162 1.19762 1.76394
231 1 -0.673536 11.6705 0.307951 2.79909
11 4 1.50679 13.1149 6.0228 8.88309
36 4 1.27611 8.97766 2.28907 9.07879
52 1 -0.676777 10.2618 1.12338 9.7176
186 1 -0.665212 8.87939 6.1049 9.86201
100 3 -0.814577 8.2733 3.28942 10.3341
107 3 -0.791199 12.5241 4.42936 8.74089
110 2 0.016808 14.4737 2.94455 10.1149
105 3 -0.804053 9.95538 3.20376 8.114
202 2 0.183155 13.8787 3.76165 11.9323
163 2 0.183401 11.252 1.59519 9.63622
144 2 0.209401 7.0047 4.62085 8.72966
165 2 0.230256 9.97552 0.841282 10.7759
172 4 0.96596 16.1413 2.51739 14.1492
173 1 -0.639694 14.3872 1.67737 13.7757
174 2 0.0770609 14.454 2.58729 15.1351
175 2 0.0165877 15.908 1.09789 12.9534
176 2 0.170905 13.7454 2.24998 12.9124
184 1 -0.664935 11.0583 0.780689 15.1129
178 4 1.0775 13.9181 5.57228 14.3459
180 4 1.29711 9.97898 1.69804 13.9042
181 4 1.35774 11.6874 3.99464 12.6657
205 2 0.201868 9.2281 5.17056 9.12647
185 1 -0.690845 12.9742 3.30072 11.3117
177 2 0.170574 13.7379 0.739219 14.1669
189 3 -0.818044 10.9113 2.76243 13.1624
190 3 -0.791756 12.7295 4.56041 13.8081
192 3 -0.781715 10.8476 5.22503 11.9266
263 3 -0.85511 15.6365 1.07783 8.7216
199 2 0.182346 12.0955 1.17672 15.0543
200 2 0.271466 12.7671 3.74486 10.2786
201 2 0.138953 12.8998 2.16285 11.3455
182 4 1.02824 10.6167 6.1672 10.6282
204 2 0.17209 8.06601 5.83711 10.6255
6 4 1.30697 15.969 2.42165 9.38197
249 1 -0.645019 14.1939 5.653 16.0605
188 3 -0.802828 8.77226 2.27017 14.6863
187 3 -0.791287 9.36708 0.461026 12.4601
123 2 -0.046737 5.40174 6.31374 10.8121
237 1 -0.653843 7.83045 10.3926 0.0160144
257 2 0.128661 2.21222 10.3946 5.95364
167 2 0.175266 8.96456 6.99942 2.06166
53 1 -0.648821 8.13542 7.39192 2.66941
104 3 -0.805005 5.26725 7.32764 3.68442
134 2 0.26559 8.24381 12.8468 5.71271
125 2 -0.00740434 4.24995 8.26083 1.27709
225 2 0.171815 0.702062 12.7792 3.15878
166 2 0.0731094 7.39072 8.51584 1.98135
168 2 0.148875 8.39392 7.65542 3.74454
206 4 1.27216 9.26807 10.5218 3.98705
215 2 0.155931 5.09868 9.25771 7.02277
208 4 1.04794 7.37755 10.31 6.67721
209 1 -0.684399 5.86047 9.16875 6.25985
255 2 0.148622 2.36537 12.2336 5.29646
211 3 -0.778206 8.36819 10.5629 5.26406
212 3 -0.782373 6.72286 11.7808 7.09219
213 2 -0.00532927 8.67414 9.20422 3.0624
254 1 -0.667358 1.94365 11.1678 5.02587
216 2 0.155672 6.31254 8.14847 6.23417
217 2 0.182442 5.46836 9.45224 5.25789
230 4 1.08216 5.23794 12.8658 2.50865
234 2 0.173803 3.02397 12.8353 1.74868
67 3 -0.82271 13.122 6.646 7.3056
238 3 -0.775117 5.68803 12.1057 1.0243
240 2 0.165503 8.07471 10.4077 1.08567
38 4 1.00796 6.27856 6.75694 2.57378
233 2 0.158519 2.81763 12.4871 3.6319
258 1 -0.645828 6.00064 11.8319 3.90728
259 2 0.166336 6.59997 10.9346 3.48562
260 2 0.116955 4.85543 11.4767 4.24506
261 2 0.23132 6.4974 12.3994 4.70598
274 2 0.176965 9.31437 9.0508 7.62885
150 2 0.144317 2.74638 10.5354 0.545318
252 2 0.160224 10.3076 8.45705 1.1351
256 2 0.16589 2.18072 10.7611 4.05206
2 3 -0.824005 9.36176 11.861 3.21559
198 2 0.154052 2.58354 12.5452 14.6062
40 4 0.917066 6.019 11.5389 12.9798
108 3 -0.800693 4.78583 10.6617 12.6584
109 3 -0.795253 6.50025 11.5598 14.4403
214 2 -0.0388415 4.94972 12.6576 8.8821
132 2 -0.0485193 7.2972 11.1594 12.0868
236 4 0.994229 7.47518 11.8824 15.7967
203 2 0.142496 8.56727 7.02636 9.24261
131 2 -0.018122 5.75338 13.1499 12.4036
193 2 0.0519375 11.4113 9.68183 14.9749
218 2 0.135345 7.78327 9.12171 8.77737
194 2 0.00820252 9.72486 7.57833 10.9435
241 2 0.17074 9.998 11.0082 15.359
239 2 0.110826 8.14774 9.80707 15.8453
264 2 0.054696 9.01646 12.5548 15.2401
219 2 0.17632 8.81105 10.7297 8.60499
34 4 0.995977 3.48913 9.67745 12.395
191 3 -0.817706 11.9807 6.73966 9.8027
210 1 -0.657266 8.51483 9.68838 8.14704
164 2 0.160382 1.84891 12.9991 9.08401
ITEM: TIMESTEP
200
ITEM: NUMBER OF ATOMS
274
ITEM: BOX BOUNDS xy xz yz pp pp pp
-8.3733697999999990e+00 1.8013900000000000e+01 -8.3733697999999990e+00
0.0000000000000000e+00 1.3273200000000001e+01 1.1950000000000001e+00
0.0000000000000000e+00 1.6075500000000002e+01 4.3120000000000003e-01
ITEM: ATOMS id type q x y z
119 2 -0.0145058 7.51173 1.16072 5.2608
12 4 1.31235 -0.843337 6.34044 5.30597
7 4 1.08653 0.917065 2.14762 5.01027
9 4 1.25558 -0.404984 4.57231 1.85319
10 4 1.58892 0.379393 4.33853 7.24538
242 1 -0.673256 3.36371 0.250745 3.22566
21 4 0.822609 5.84588 1.41237 5.66905
26 4 1.28721 5.28878 4.24737 6.84876
41 1 -0.66823 0.6715 0.673716 6.13943
44 1 -0.67412 3.80085 3.78451 1.82266
55 3 -0.81989 1.41042 0.957635 1.17873
56 3 -0.798273 -0.424817 2.29728 3.9771
58 3 -0.796324 -1.77996 4.54236 2.7025
59 3 -0.85106 0.0130699 3.21296 0.981198
243 2 0.149747 3.75703 1.29531 3.10332
61 3 -0.790667 1.13058 3.33245 5.97906
62 3 -0.877234 -0.468667 5.42855 6.52053
74 3 -0.791868 5.66262 0.344586 7.30729
78 3 -0.888074 0.750415 5.26274 2.59722
81 3 -0.821921 5.64483 2.91899 5.98564
84 3 -0.812948 2.93517 5.86295 3.96741
85 3 -0.78543 4.65531 5.5075 5.98302
113 2 0.110491 -1.46017 5.33686 4.02458
111 2 -0.00567333 2.42635 1.77874 4.19514
112 2 -0.0187046 -0.883547 5.49833 0.526679
5 4 1.34367 0.609703 1.99954 0.245382
118 2 -0.0167883 4.47768 0.885501 4.70845
24 4 1.2936 4.74891 4.88082 0.568245
222 3 -0.793618 6.35301 1.44428 0.976789
223 2 -0.0899253 6.2637 0.939845 3.83723
141 2 0.180415 3.63344 2.71983 1.44294
142 2 0.228054 2.84143 4.37068 1.96503
143 2 0.184737 4.39243 3.81026 2.7556
220 4 1.03799 6.80479 0.435199 2.14334
135 2 0.23556 0.60263 0.960633 7.22348
25 4 1.41476 1.52421 6.46579 3.3445
267 2 0.181293 -3.67437 6.19478 0.459203
28 4 1.20331 4.07688 6.53985 4.87502
138 2 0.156904 1.33978 0.937516 12.7152
8 4 1.27363 1.84791 2.59673 11.1784
13 4 1.24864 0.390974 4.961 12.6214
229 2 -0.0586199 3.55624 6.52577 13.2834
20 4 1.26772 4.50488 2.71994 9.36916
23 4 1.26445 6.94977 2.89606 11.2035
99 3 -0.81134 7.99943 1.15865 8.31845
226 4 0.885513 3.43997 6.36797 15.0882
42 1 -0.665931 2.28869 1.56332 12.6349
57 3 -0.826893 0.408482 2.29155 10.4865
63 3 -0.880995 -0.293166 3.90511 13.5783
64 3 -0.793511 1.8356 4.34784 12.1894
65 3 -0.849525 -2.32878 6.15683 9.53893
66 3 -0.825446 -0.407217 5.3642 11.3587
73 3 -0.791901 3.07789 2.49046 10.1735
75 3 -0.853574 5.57642 3.18879 10.4391
76 3 -0.850832 6.99977 1.51063 12.0216
80 3 -0.755321 4.37127 3.81961 8.27928
27 4 1.37841 1.70706 6.55805 8.79754
137 2 0.156186 3.16749 0.954182 12.1993
114 2 -0.0471737 0.692853 6.36884 13.4624
197 2 0.17171 5.45299 1.25713 15.8526
124 2 0.120479 2.87362 5.44514 11.6717
136 2 0.193313 2.63701 2.15934 13.6401
179 4 1.31602 7.35458 2.56374 15.5563
183 1 -0.658468 5.86677 1.66728 14.7761
77 3 -0.76561 6.8776 4.11425 15.7414
60 3 -0.831216 -0.518142 3.45811 8.26313
196 2 0.174366 5.12076 2.18096 14.1271
117 2 0.0708335 5.06001 1.33393 8.55762
227 3 -0.832983 4.77623 5.92685 15.7727
195 2 0.249133 6.41222 0.817647 14.1907
245 1 -0.673016 3.1692 3.28245 15.2318
246 2 0.170347 2.77548 3.62102 14.215
247 2 0.175849 4.12532 2.57941 15.1123
262 3 -0.810518 0.616699 1.84852 15.127
228 2 -0.0319362 2.32374 5.12518 15.0812
14 4 1.51409 -1.04707 6.64791 10.3878
82 3 -0.777336 1.559 5.09102 8.14238
266 2 0.0838149 -1.46432 4.8209 15.7415
248 2 0.174421 3.316 4.14142 16.0255
253 2 0.18011 -4.89573 7.8146 0.093866
3 3 -0.804827 -6.05689 11.3669 1.02627
268 2 0.182875 -5.08863 8.87327 1.67912
16 4 1.47101 -3.22847 7.9161 6.57194
17 4 1.25801 -4.53537 9.9036 4.90424
154 2 0.178283 0.88788 9.32587 7.6078
161 2 0.198085 -1.0947 10.1102 0.280281
31 4 1.29321 -1.92072 10.3752 3.15953
33 4 1.11601 0.256656 10.8748 5.61856
48 1 -0.63857 -1.22848 8.99553 2.03368
49 1 -0.64879 0.104104 9.27406 6.75565
272 2 0.171607 0.708999 10.2747 0.359785
68 3 -0.836071 -1.94367 7.44335 5.65309
251 1 -0.674822 -5.4891 8.57467 0.608419
70 3 -0.81472 -4.42419 8.45421 5.61924
79 3 -0.837691 0.451092 7.08954 4.66495
87 3 -0.802563 1.805 7.73391 2.26004
30 4 1.04063 2.32127 8.17803 0.834651
89 3 -0.782484 -1.9711 11.7731 2.09297
90 3 -0.821178 -3.39478 10.156 3.76767
93 3 -0.790631 -0.840938 10.6379 4.28845
94 3 -0.810523 -0.246852 11.9422 6.61607
115 2 -0.0114074 -4.14118 11.0325 6.11272
147 2 0.190545 1.84815 7.39956 6.44876
151 2 0.187804 -0.0980511 9.43928 1.59886
152 2 0.171327 -2.02052 8.8041 1.20164
153 2 0.19387 -1.16368 8.14232 2.83819
271 2 0.170443 1.56515 10.2434 2.12263
155 2 0.263027 0.18935 8.43368 5.99017
156 2 0.272186 -0.964021 9.33001 7.12134
46 1 -0.671399 2.38817 7.72765 7.41887
148 2 0.172883 3.48651 7.45524 7.38266
133 2 0.152849 -6.78725 12.9136 5.90127
19 4 1.34907 -1.24273 12.5926 7.83945
1 4 1.29303 -6.53454 12.5404 2.06478
69 3 -0.856951 -5.91795 10.3389 4.34977
91 3 -0.823029 -2.75346 9.38761 7.70828
122 2 -0.00562746 3.33308 7.87358 5.69602
47 1 -0.638888 1.70865 10.0133 0.956889
149 2 0.15345 2.20134 8.8415 7.6645
265 2 0.198954 -4.3545 12.1833 2.5758
244 2 0.145262 -5.34477 12.8734 4.29415
159 2 0.207925 1.03751 9.68899 12.09
18 4 1.27352 -1.95122 8.29112 12.8757
22 4 1.25773 -0.621346 12.9779 12.0822
32 4 0.928787 -2.59344 10.327 8.96251
35 4 1.29722 -1.3263 10.8898 14.2319
50 1 -0.680169 1.86755 10.4054 11.9468
160 2 0.169072 1.14947 10.6769 14.7859
158 2 0.240108 1.63543 11.5023 12.3255
51 1 -0.64128 0.258827 11.0975 15.3472
162 2 0.203911 0.344409 12.1885 15.4805
72 3 -0.846821 -1.44787 7.93034 11.4251
83 3 -0.789367 0.245635 7.08234 9.42946
88 3 -0.800409 2.8456 7.81922 15.6584
92 3 -0.830268 -1.42474 11.4214 9.12536
95 3 -0.808802 3.88017 8.23205 11.7717
96 3 -0.822036 -1.07835 9.35154 13.6541
97 3 -0.880662 -1.2175 12.0135 13.1149
98 3 -0.788189 -2.63169 10.8792 15.3165
116 2 -0.030794 -3.47455 8.91739 12.5973
120 2 0.0638394 -0.724367 12.262 10.5619
126 2 0.0331369 -2.37495 9.28902 10.2544
127 2 -0.0584864 -4.0647 11.0649 9.3889
128 2 0.028374 2.29989 9.48677 13.6411
139 2 0.152202 -4.56479 11.4575 13.4214
140 2 0.172407 -5.68265 12.0025 14.7427
43 1 -0.657072 -5.44617 11.1266 14.0492
71 3 -0.865787 -2.39339 6.99769 13.5948
157 2 0.148695 2.19798 10.432 10.7527
15 4 1.05439 -4.09102 10.7638 16.048
29 4 0.945021 3.86851 6.7966 11.1542
86 3 -0.791395 2.88268 6.73398 9.96536
235 2 0.17229 11.4989 1.36965 3.04655
37 4 1.2882 12.9878 2.14906 5.74684
221 1 -0.661076 8.67676 0.540069 2.06769
39 4 1.25859 11.134 3.91399 7.39064
45 1 -0.651008 7.10612 4.73902 7.25306
54 1 -0.671463 10.6816 5.52476 6.53979
101 3 -0.839637 13.9374 3.06593 4.83123
102 3 -0.854698 13.7793 1.23685 6.82719
250 2 0.175354 12.055 4.54275 0.37294
4 4 1.436 14.861 2.78825 3.58173
106 3 -0.831835 11.7825 2.89417 6.37609
232 3 -0.815246 14.1555 1.66226 2.66887
129 2 0.000408857 12.2381 1.07285 4.55208
130 2 0.0528973 7.70981 5.66108 3.05658
169 2 0.204401 10.7073 6.31482 7.32514
207 4 1.28441 14.5103 0.342577 7.85659
146 2 0.220176 7.69097 3.74694 7.09404
103 3 -0.795469 5.52978 6.06759 1.36479
145 2 0.158119 7.48258 5.60994 6.58785
170 2 0.164585 9.64369 5.35935 6.14406
171 2 0.226906 11.3585 5.82329 5.72027
134 2 0.22287 16.4854 0.249349 5.74269
224 2 0.184707 8.85247 1.21521 1.19315
231 1 -0.672544 11.7654 0.323802 2.79184
225 2 0.117923 8.81204 1.03927 3.16292
230 4 1.1087 13.6984 0.128796 2.39934
105 3 -0.814973 9.71363 3.25887 8.02855
234 2 0.16758 11.262 0.189065 1.79095
11 4 1.48737 13.0734 5.98882 8.87201
36 4 1.34505 9.00128 2.1964 9.01133
52 1 -0.669787 10.3833 1.04869 9.68495
186 1 -0.675529 9.06687 6.27515 9.84545
100 3 -0.839934 8.20494 2.84973 10.2816
107 3 -0.775438 12.5176 4.33544 8.70824
110 2 0.0185135 14.5895 2.88168 10.2199
121 2 -0.00744376 7.2578 4.17981 12.25
202 2 0.16042 14.0421 3.68551 11.9162
163 2 0.171844 11.378 1.52137 9.62583
144 2 0.175515 7.05688 4.98812 8.37246
165 2 0.236738 9.97439 0.766679 10.8064
172 4 1.03662 16.2776 2.47681 14.2542
173 1 -0.652337 14.5672 1.58103 13.7398
174 2 0.0471579 14.7326 2.45522 15.253