ITEM: TIMESTEP
0
ITEM: NUMBER OF ATOMS
366
ITEM: BOX BOUNDS xy xz yz pp pp pp
-7.5839999999999996e+00 1.5901800000000000e+01 -7.5839999999999996e+00
0.0000000000000000e+00 1.4340199999999999e+01 1.7780000000000001e-01
0.0000000000000000e+00 1.7246500000000001e+01 4.3709999999999999e-01
ITEM: ATOMS id type q x y z
126 3 -0.734409 5.89621 3.40112 6.23124
5 4 1.06637 1.15571 2.378 5.43309
9 4 1.39639 0.278975 4.19064 1.49109
11 4 0.299258 0.236966 4.58001 7.09756
27 4 0.717389 1.66134 6.677 2.84504
29 4 0.701123 5.17788 4.04774 7.57101
64 1 -0.0955424 2.71069 2.34789 3.99576
69 1 -0.103302 -1.76546 4.66721 6.86322
70 1 -0.12165 0.865824 6.51674 7.68761
76 1 -0.0460653 5.84096 0.723587 4.88241
77 1 -0.125437 3.44658 6.35925 3.76267
79 1 -0.110756 4.01869 5.53768 6.7848
98 3 -0.784269 -0.308936 1.95669 4.73957
99 3 -0.763023 1.65018 1.50941 6.72765
102 3 -0.807373 -0.881406 3.69672 2.82202
103 3 -0.829354 0.963747 2.79357 0.973883
104 3 -0.755796 -0.650871 4.87427 0.263283
105 3 -0.658389 1.14159 3.95477 5.85395
115 3 -0.950568 6.96607 0.953927 0.998951
124 3 -0.730019 1.30105 5.40564 1.87809
116 3 -0.694246 3.72337 0.566644 8.46136
199 2 0.0685829 2.38125 2.86515 3.18865
200 2 0.0925368 2.74575 1.24658 3.884
201 2 0.0501483 3.50973 2.86452 4.51784
215 2 0.01818 -1.86282 5.73078 6.66099
355 3 -0.76923 1.45512 0.251842 0.305779
78 1 -0.114844 0.391026 6.67419 4.39324
217 2 0.0319026 1.2813 6.999 6.82122
4 4 1.08981 2.7029 0.372781 7.24341
241 2 0.0908478 0.497535 5.62594 4.7018
125 3 -0.724627 4.13731 3.19865 8.47133
236 2 0.110358 6.54875 0.533973 4.07929
237 2 0.0629998 5.00905 1.23442 4.56531
238 2 0.0308321 3.09779 5.64152 4.51525
208 2 0.0310721 -2.86614 6.86583 1.46934
312 2 0.0599771 6.10483 2.65228 2.72123
324 1 -0.0675396 4.07339 0.780141 1.45073
245 2 0.0697208 3.62313 5.09687 5.86576
326 2 0.118549 4.62375 0.107948 0.774988
305 1 -0.130637 5.36706 3.45667 2.91275
310 3 -0.803661 4.74283 5.65389 0.866978
219 2 0.0186736 -0.0181278 6.99973 8.05813
313 2 0.0340486 4.35757 3.26169 2.5853
314 2 0.0444917 5.43518 4.03446 3.79476
240 2 0.0725034 3.98831 5.91891 2.98495
325 2 0.0917291 3.69526 1.707 1.03985
358 2 0.049164 4.37881 0.828343 2.42904
214 2 0.107642 -1.94458 4.05782 6.00517
210 2 0.0406071 -1.32237 6.78095 2.39105
244 2 0.0416338 3.31381 5.80386 7.54851
218 2 0.0299086 1.58318 6.27877 8.51937
242 2 0.0353191 -0.59686 6.95926 4.00094
212 2 0.14677 1.50628 2.97626 8.49061
3 4 1.57992 1.31971 2.16802 16.9844
8 4 0.708447 1.84811 1.66331 11.7419
10 4 1.10971 -0.940202 6.81149 17.0826
22 4 1.4185 4.03546 2.0093 9.63795
25 4 1.62796 4.12008 2.06326 15.439
26 4 1.66197 6.65328 2.56695 11.4798
30 4 1.62393 5.24042 4.50379 13.6194
32 4 0.755386 3.65848 6.77821 12.3
65 1 -0.116911 -0.124519 1.66183 11.2881
66 1 -0.0918677 1.927 2.96196 13.2953
213 2 0.0179654 -0.161929 3.38534 9.23481
81 1 -0.0903519 1.3745 5.79995 14.6568
82 1 -0.14819 1.84675 6.47096 11.4132
100 3 -0.858339 0.229901 2.30119 15.8083
68 1 -0.0805602 0.776052 3.69929 8.86677
106 3 -0.828518 -2.16224 6.76763 15.9945
254 2 0.0126186 2.14361 6.59544 10.3585
117 3 -0.78666 2.64145 2.13442 10.4555
119 3 -0.90526 3.64175 0.680757 14.7061
120 3 -0.888808 5.53231 1.85653 16.2693
121 3 -0.832963 2.86118 2.58405 16.3274
122 3 -0.838317 5.38171 2.06334 10.5486
123 3 -0.862257 7.20697 1.33562 12.3464
127 3 -0.893255 4.49345 3.23931 14.4172
131 3 -0.810301 4.09725 5.48699 13.1217
228 2 0.0299147 -1.03606 7.03455 13.2275
203 2 0.00632653 -0.370113 2.70115 11.3849
253 2 0.0263541 1.65246 5.47367 11.7453
205 2 0.12103 2.93685 3.41343 13.2387
206 2 0.111491 1.71154 2.41446 14.1891
207 2 0.00790387 1.17294 3.70492 13.0505
211 2 0.043015 1.22406 4.46402 9.44754
332 2 0.0172244 -0.580391 4.12288 13.8223
227 2 0.0421909 -2.28053 6.9816 11.9309
331 1 -0.103759 -1.60927 3.83197 14.1156
20 4 1.68607 6.87367 2.45865 17.0888
250 2 0.0877256 0.845903 5.04315 15.2459
251 2 0.127871 2.44877 5.62513 14.4233
252 2 0.014625 0.896598 6.13852 13.8151
129 3 -0.849548 3.13011 7.06089 16.4759
258 2 0.0191158 4.10189 6.35754 9.72319
343 2 0.123467 6.43117 0.530084 15.1994
202 2 0.0387784 -0.126054 1.3244 10.2562
1 4 1.08851 -5.26781 13.3852 1.5362
13 4 1.1934 -6.366 12.0034 4.07656
14 4 0.769506 -2.16371 10.1945 7.85623
15 4 1.288 -3.63096 11.8084 5.6561
111 3 -0.671598 -3.98944 13.7115 5.97024
34 4 1.15703 -0.906848 11.8495 4.0709
267 2 0.00893505 3.52328 7.86311 6.8417
71 1 -0.127393 -2.99676 8.47356 8.56219
262 2 0.0422716 -1.00565 11.2512 0.955866
72 1 -0.118493 -0.980233 9.31581 6.47719
328 2 0.0460462 -5.49594 11.859 8.1122
84 1 -0.112956 -0.397155 10.0253 3.23605
261 2 0.0403901 -0.0276788 9.51732 4.0563
107 3 -0.737872 -5.90969 13.191 3.02452
108 3 -0.723852 -4.50662 12.0439 1.10397
109 3 -0.803627 -5.12819 11.4735 5.01355
110 3 -0.758567 -3.23718 11.1614 7.14395
19 4 1.5893 0.132995 13.829 1.93835
132 3 -0.758179 1.72406 8.24246 2.37598
134 3 -0.85648 -0.890794 12.8823 2.805
135 3 -0.810387 -2.40043 11.682 4.57854
337 1 -0.11535 -4.27027 9.10815 1.00918
141 3 -0.862093 0.0616472 12.2763 5.26404
142 3 -0.781261 1.64397 10.914 6.71995
221 2 0.0186482 -3.78938 8.37175 7.87025
209 2 0.0357692 -1.79555 8.29027 1.46836
327 1 -0.106561 -6.18082 12.6785 7.80381
67 1 -0.127317 -1.85025 7.2487 1.6063
220 2 0.020346 -2.28976 7.65514 8.43298
223 2 0.0105551 -1.63418 8.65513 5.90315
224 2 0.0391351 -0.267594 8.80592 7.03698
225 2 0.0917982 -0.677405 10.2477 5.96386
361 2 0.0340949 -3.35039 9.37618 1.49989
260 2 0.0366874 -1.30244 9.69849 2.81408
85 1 -0.142127 -0.55347 10.8855 0.0543056
259 2 0.0672885 0.369565 10.3446 2.54149
297 4 0.700522 -4.80915 10.8163 0.0747186
239 2 0.0231442 3.73752 7.32653 4.14504
35 4 1.21499 1.4333 11.576 0.220563
235 2 0.1456 -1.89734 13.7578 5.59572
263 2 0.0695128 -0.429261 9.82673 0.0385436
338 2 0.0873075 -4.09395 8.22183 0.391575
243 2 0.022266 0.919873 7.36122 5.03459
330 2 0.0227465 -6.73402 13.1996 8.59439
6 4 1.48765 -4.73331 13.51 13.8131
16 4 0.735754 -2.49649 9.06204 13.2375
18 4 1.13799 -2.93979 11.6831 11.9975
255 2 0.0337781 1.26721 7.28783 11.8367
37 4 1.52331 -0.657284 11.9981 9.89318
222 2 0.0584281 -3.30244 8.64152 9.56002
265 2 0.0858636 2.23765 9.26151 10.2017
39 4 1.5055 2.91268 9.50244 13.7199
74 1 -0.0745612 -0.780208 9.74869 14.2009
75 1 -0.0845599 -4.31663 11.9601 10.4066
365 2 0.104751 -4.33609 8.73606 11.3357
112 3 -0.725872 -3.37553 8.53751 14.4382
113 3 -0.76856 -2.92068 10.1116 12.1141
114 3 -0.817439 -3.59411 12.4159 13.2955
86 1 -0.0996349 1.81092 9.07333 9.25839
301 2 0.0279367 -2.52798 10.6777 15.8379
138 3 -0.762837 -1.34458 10.7303 9.11692
140 3 -0.763684 -1.63792 12.3879 11.2428
144 3 -0.83197 1.87183 8.72675 14.7076
147 3 -0.877135 2.11756 10.4716 12.6553
146 3 -0.80435 0.671825 11.3909 10.686
341 2 0.0531244 0.0680282 13.1715 15.3992
73 1 -0.129497 -1.53027 7.52218 12.4187
340 1 -0.100432 -0.651607 13.576 14.7408
130 3 -0.769816 0.332593 7.7324 16.6196
229 2 0.0500463 -0.786085 10.8162 14.2853
230 2 0.0971997 -0.0406594 9.36103 13.5354
231 2 0.0914964 -0.897587 9.17333 15.0933
362 2 0.0165773 -0.723454 11.776 16.3873
233 2 0.0977945 -3.6752 11.7927 9.55297
234 2 0.109683 -4.61867 13.0452 10.4946
226 2 0.0423174 -0.810797 7.99078 11.7726
302 2 0.0843462 -3.02052 12.3898 15.6254
139 3 -0.86079 -0.222948 13.0593 8.70747
232 2 0.0329091 -5.08108 11.2814 10.5361
31 4 1.18778 1.72204 7.52857 15.7979
342 2 0.0696871 -1.29436 12.9031 14.2033
298 1 -0.0788726 -3.33959 11.3106 15.6481
356 3 -0.846265 -6.02554 12.6937 14.5676
300 2 0.129399 -3.98083 10.9545 14.8967
266 2 -0.00241562 2.10522 8.15614 8.84712
264 2 0.0939575 0.816684 9.3241 9.13771
101 3 -0.757727 -5.32509 14.1074 12.3473
2 4 1.58808 14.2804 2.39292 3.6618
364 2 0.017528 11.8565 5.76989 2.59418
286 2 0.0142292 7.73662 7.02091 7.50654
344 1 -0.0996719 14.5485 1.29927 7.71129
42 4 1.57055 9.0792 2.22159 3.73672
46 4 1.55802 11.853 2.06662 5.552
50 4 1.2756 10.1743 4.10934 1.46219
52 4 0.742953 10.5767 3.92864 7.57747
89 1 -0.0946635 11.8702 4.715 2.68875
90 1 -0.111856 9.26845 4.68241 6.15324
363 2 0.110517 14.8938 1.74439 6.79239
323 2 0.0164464 7.70928 6.12483 5.5544
149 3 -0.854522 13.8807 1.05078 2.82812
150 3 -0.800416 8.6211 0.795848 3.03631
151 3 -0.857757 7.9401 2.60496 4.82671
153 3 -0.852064 11.765 1.08108 1.14613
156 3 -0.909032 12.9524 2.72182 4.5722
157 3 -0.823472 10.4663 2.00952 4.64779
158 3 -0.787163 12.3173 0.556977 6.06456
165 3 -0.862306 9.25956 3.22559 2.48091
166 3 -0.890886 11.0581 3.42722 0.352439
168 3 -0.830139 9.46288 5.39816 0.846912
170 3 -0.795359 11.6713 2.83376 6.9764
273 2 0.0618621 11.5672 4.34978 3.63858
274 2 0.122064 12.7515 4.2326 2.26498
275 2 0.00582306 9.35181 5.73817 6.28616
276 2 0.0824236 8.27006 4.33687 6.51103
277 2 0.0509503 9.63978 4.32566 5.21214
21 4 1.74842 8.26561 0.283764 7.97078
322 2 0.0406511 6.13175 5.53791 5.05774
91 1 -0.14051 11.207 5.82244 7.82191
303 4 1.16367 5.96006 4.68437 1.33613
304 4 0.274665 7.23483 6.63265 3.22395
278 2 0.041364 10.3105 6.11771 8.36536
308 1 -0.0972362 7.16376 5.54668 4.86652
309 3 -0.833276 6.26432 3.51199 0.259643
311 3 -0.6421 6.98749 5.81198 1.82518
316 2 0.0296552 9.56547 6.11679 4.02072
321 2 0.126548 7.44042 4.52865 4.61075
279 2 0.00688678 11.3003 6.35201 6.89576
280 2 0.026726 12.1553 5.82488 8.32064
345 2 0.0420878 13.804 1.93729 8.23483
23 4 1.12279 6.90343 2.16023 6.05202
306 1 -0.104958 9.32135 6.98127 3.44328
346 2 0.0436337 15.3145 0.843307 8.35246
246 2 0.0117501 4.70672 6.33436 6.50342
41 4 1.70324 12.7889 0.145785 2.02202
216 2 0.0418148 13.4444 4.34907 7.77119
118 3 -0.835412 7.37153 1.51603 7.45027
248 2 0.076926 7.39323 4.76894 8.37552
7 4 1.26276 14.3746 2.29022 15.483
169 3 -0.821273 9.71224 3.7282 8.87052
47 4 1.56812 12.7781 0.453425 13.3282
359 2 0.0919573 13.5394 3.23689 13.3394
272 2 0.0635017 12.8041 2.8366 9.25183
45 4 1.69167 9.29001 2.47367 9.82206
43 4 1.74572 11.8911 2.51019 17.1091
48 4 1.72351 9.49803 2.39898 15.2105
49 4 1.27033 11.6382 2.80949 11.6358
51 4 1.30524 9.43888 6.67392 16.8256
53 4 1.60358 10.3963 4.92105 13.5762
54 4 1.75321 6.76423 6.88264 15.2531
80 1 -0.092281 6.47265 4.89126 8.91457
88 1 -0.14486 12.8724 3.47424 10.113
333 2 0.122671 13.4954 4.65988 14.5895
93 1 -0.106512 7.89565 7.11082 10.7488
249 2 0.123269 6.45096 4.3663 9.89546
152 3 -0.865191 13.4222 2.69947 16.7075
204 2 0.100007 15.1322 1.05771 11.9955
155 3 -0.870992 7.83636 2.93001 10.4721
159 3 -0.773981 13.8186 1.1262 14.5373
160 3 -0.8617 9.10374 1.52121 13.9363
161 3 -0.88912 10.91 1.99889 15.9284
162 3 -0.901278 8.21073 2.36381 16.1637
163 3 -0.813008 10.2606 2.21978 11.0603
164 3 -0.891801 12.4976 1.78602 12.5007
283 2 0.089866 7.61078 6.11223 10.9056
271 2 0.0320799 12.4953 4.46239 9.93423
171 3 -0.824457 9.74151 3.97212 14.7339
172 3 -0.864708 11.0678 4.08766 12.3544
173 3 -0.847107 11.6688 5.81125 14.1782
174 3 -0.820182 6.06976 5.60129 14.5691
175 3 -0.833063 8.24776 6.38862 15.8266
177 3 -0.731399 9.36671 6.08851 13.0594
256 2 0.0496405 5.58628 6.47622 10.715
12 4 1.45558 12.1428 6.98723 15.2675
270 2 0.0101937 13.8191 3.45076 10.6346
154 3 -0.884089 9.13251 1.10875 9.0073
24 4 1.34042 8.17822 0.47951 13.2472
83 1 -0.119224 4.66446 6.93771 10.5103
282 2 0.0497001 11.6427 6.92312 11.3214
167 3 -0.834462 10.94 7.17987 16.3576
128 3 -0.871474 6.15437 3.91335 12.3833
247 2 0.00351921 6.07782 5.86151 8.94046
288 2 0.0205689 6.12445 7.72543 7.98036
36 4 0.744157 2.70845 10.2505 7.81967
38 4 1.65935 1.60453 12.2355 5.79948
44 4 1.20568 5.49141 13.7634 7.27537
56 4 1.76624 4.02013 11.6635 3.70112
58 4 0.31258 7.74091 9.45089 7.04201
60 4 1.55283 6.69594 11.7454 5.42235
87 1 -0.110354 3.71947 8.89169 6.62724
182 3 -0.77978 3.85037 11.1392 8.51015
95 1 -0.101587 9.80402 9.24853 6.91435
133 3 -0.860377 4.14945 8.21976 0.976714
269 2 0.0709365 3.35129 9.13065 5.66979
94 1 -0.129105 6.92507 7.65384 7.21591
143 3 -0.861338 1.53828 13.5818 6.73413
178 3 -0.920425 3.66256 10.2305 3.03883
179 3 -0.888664 4.29605 12.8736 2.71391
180 3 -0.892237 2.85526 12.071 4.79113
287 2 0.0393183 6.68693 7.55493 6.15057
185 3 -0.831755 8.08222 12.4075 4.88518
186 3 -0.895711 5.43791 11.4571 4.4438
187 3 -0.695926 7.176 10.1609 5.71976
188 3 -0.846462 6.30257 12.47 6.8232
268 2 0.0725953 4.79339 9.06939 6.66752
317 2 0.0260258 9.35473 7.85022 4.00534
329 2 0.105638 8.97694 12.4427 6.95423
353 2 0.0876591 5.51303 10.4797 1.64718
307 1 -0.0684876 6.02505 8.33105 3.28626
335 2 0.0729361 8.80897 10.7218 1.88748
366 2 0.0172265 10.1135 9.27249 7.90153
318 2 0.056372 6.69767 9.13436 3.08806
319 2 0.0573757 5.7356 8.26862 4.32016
320 2 0.114676 5.20469 8.1322 2.63251
315 2 0.0593245 9.80364 7.10193 2.47197
137 3 -0.792392 1.22797 12.9344 1.12383
334 1 -0.127402 8.78685 10.3413 2.90838
289 2 0.118618 10.1168 10.0947 6.31797
336 2 0.0503145 7.79892 10.1665 3.32536
347 1 -0.0922371 8.422 8.04613 0.20516
349 2 0.0342187 9.02027 8.55797 0.916816
360 2 0.0321822 9.63098 9.74447 3.16321
351 1 -0.0868702 6.13721 10.3025 0.808805
28 4 1.74766 4.28427 6.97757 0.0306222
357 3 -0.800086 6.09041 13.2835 0.920253
354 2 0.0362921 7.14595 10.1855 1.00734
290 2 0.0267088 10.0254 8.32052 6.4664
350 2 0.0959233 7.51391 7.64569 0.588347
33 4 1.42587 2.90431 9.30528 1.95213
339 2 0.0297383 10.7172 8.8835 1.75583
136 3 -0.798976 2.26938 10.3851 0.953338
352 2 0.124712 5.69458 9.55431 0.125452
17 4 1.60284 8.70498 11.7911 15.4939
176 3 -0.91384 5.80167 7.50263 16.3789
291 2 0.0201942 7.60085 9.80193 9.50501
57 4 1.17576 6.14024 12.5966 17.0119
59 4 1.56125 4.30085 12.1716 9.65194
61 4 1.46947 7.5461 9.46513 13.734
62 4 1.59483 3.63763 12.2419 15.1257
63 4 1.2244 6.42291 11.8426 11.9373
284 2 0.00354517 8.44598 7.33584 9.86706
92 1 -0.115024 11.013 7.75407 11.0589
96 1 -0.0811786 7.18397 10.4108 8.72765
97 1 -0.124323 8.39758 11.947 11.4578
257 2 0.0555943 4.73407 8.00777 10.288
40 4 1.62145 1.89605 11.822 11.7769
181 3 -0.755932 7.40415 12.6854 15.9405
299 3 -0.779921 9.54667 11.2991 16.7619
184 3 -0.809352 3.08107 12.3775 10.7659
189 3 -0.855471 6.85459 8.08071 14.2115
190 3 -0.723307 8.82122 8.85243 12.8134
191 3 -0.890261 8.12024 10.391 14.9351
192 3 -0.784462 3.83244 10.7392 14.5794
193 3 -0.784927 4.66158 12.5409 16.3339
194 3 -0.775785 3.88748 13.44 14.0053
195 3 -0.799959 2.22915 12.2455 16.0502
196 3 -0.822995 5.52629 11.5713 10.6288
197 3 -0.744021 6.40827 10.5491 12.8482
198 3 -0.850919 6.12413 13.2836 12.5397
348 2 0.107031 8.49814 8.89411 16.4933
148 3 -0.826624 1.37285 13.0278 12.6877
295 2 0.0959844 8.93516 12.0425 12.4084
293 2 0.0617117 7.57491 11.3971 8.65451
145 3 -0.726027 3.73 8.31125 12.9363
281 2 0.00756056 10.6291 7.71059 10.0334
296 2 0.0395552 8.45451 12.8543 10.9234
294 2 0.0228688 8.54316 11.0159 11.0128
183 3 -0.777834 4.72572 13.4705 8.74207
55 4 0.751721 9.30169 7.40459 12.1505
285 2 0.0571823 7.11416 7.81396 10.9644
292 2 0.114199 6.11684 10.3347 8.6776
ITEM: TIMESTEP
100
ITEM: NUMBER OF ATOMS
366
ITEM: BOX BOUNDS xy xz yz pp pp pp
-7.5839999999999996e+00 1.5929606200000000e+01 -7.5839999999999996e+00
0.0000000000000000e+00 1.4340199999999999e+01 2.0560620000000007e-01
0.0000000000000000e+00 1.7246500000000001e+01 4.3709999999999999e-01
ITEM: ATOMS id type q x y z
126 3 -0.790828 5.85707 3.30687 6.29246
5 4 0.958898 1.12129 2.479 5.47041
9 4 1.50476 0.209469 4.04422 1.59814
11 4 0.318901 0.146436 4.62052 7.13653
27 4 0.772577 1.59008 6.66548 2.83815
29 4 0.739775 5.17537 4.09245 7.52579
64 1 -0.0896306 2.51767 2.11177 3.87835
69 1 -0.0931285 -1.80256 4.88565 6.85417
70 1 -0.123178 1.00942 6.51128 7.38921
76 1 -0.0652253 5.66184 0.651521 5.31763
77 1 -0.100881 3.329 6.13188 3.72404
79 1 -0.116734 3.85483 5.50501 6.69088
98 3 -0.770843 -0.285247 1.88887 4.84497
99 3 -0.736857 1.67284 1.63882 6.91121
102 3 -0.916177 -0.766724 3.5202 2.79477
103 3 -0.809901 0.978478 2.74091 0.940467
104 3 -0.787991 -0.710134 4.73667 0.432707
105 3 -0.65527 0.802586 4.07146 5.78872
115 3 -0.897166 6.98918 1.04631 1.24477
124 3 -0.720751 1.32219 5.28829 2.07902
116 3 -0.728215 3.63955 0.554707 8.41255
199 2 0.0816829 2.02982 2.71271 3.0521
200 2 0.125177 2.48005 1.08234 3.7183
201 2 0.0256993 3.44899 2.46826 4.23091
215 2 0.0213147 -2.04208 5.89465 6.70999
355 3 -0.728988 1.33188 0.178134 0.409207
78 1 -0.123617 0.223941 6.83817 4.33978
217 2 0.0371615 1.61686 6.60973 6.48312
4 4 1.0912 2.66038 0.37969 7.17124
241 2 0.0937007 0.231815 5.83676 4.85103
125 3 -0.778463 4.17929 3.31243 8.51467
236 2 0.0840357 5.85482 0.367735 4.28827
237 2 0.113042 4.70489 1.23738 5.54413
238 2 0.0701504 3.26924 5.09334 3.59022
246 2 0.0152095 4.39095 6.03233 5.92418
312 2 0.0702289 5.99248 2.49677 3.01265
324 1 -0.0690724 4.08675 0.809985 1.66375
245 2 0.0777593 3.04859 4.90935 6.21355
326 2 0.127441 4.69065 0.383952 0.880198
305 1 -0.124635 5.34676 3.34617 3.05254
310 3 -0.776586 4.60892 5.5624 1.16743
219 2 0.0147767 0.120372 7.14866 7.40839
313 2 0.0301351 4.31574 3.21773 2.80822
314 2 0.0451044 5.44937 3.93699 3.96253
240 2 0.0696517 4.08565 6.6606 3.18244
325 2 0.0678947 3.63343 1.76067 1.48215
358 2 0.0639561 4.49262 0.675129 2.67172
214 2 0.13191 -2.00802 4.26206 6.00345
210 2 0.0294684 -1.87569 6.69589 2.24644
244 2 0.0240724 3.64709 6.06633 7.62033
218 2 0.0247541 1.50087 6.39692 8.31563
242 2 0.0312596 -0.659233 7.02055 3.78484
212 2 0.143291 1.75157 3.30321 8.55131
363 2 0.128012 -0.62887 1.21999 6.74108
239 2 0.00693972 3.08516 6.46403 4.69765
3 4 1.56113 1.29204 2.07946 16.9078
8 4 0.745757 1.92383 1.72142 11.8054
10 4 1.07883 -0.892587 6.63715 17.079
22 4 1.46158 3.98634 2.0726 9.52814
25 4 1.68909 4.14886 2.14215 15.4401
26 4 1.67102 6.43168 2.52075 11.4813
30 4 1.59904 5.21945 4.59296 13.5696
32 4 0.751701 3.53027 6.91216 12.3008
65 1 -0.118257 -0.0733923 1.62529 11.5403
66 1 -0.100689 1.91454 3.2394 13.1002
213 2 0.0420759 0.0549644 2.78313 8.9607
81 1 -0.113538 1.43644 5.74735 14.4966
82 1 -0.151193 1.6985 6.62154 11.4861
100 3 -0.848768 0.163183 2.18053 15.7782
68 1 -0.0707363 0.78254 3.56466 8.8017
106 3 -0.803565 -1.99115 6.72484 15.8263
254 2 0.0128239 1.80716 6.98719 10.4991
117 3 -0.77642 2.67121 2.23557 10.4928
119 3 -0.93584 3.58223 0.87617 14.6999
120 3 -0.931595 5.4261 1.84964 16.3942
121 3 -0.838425 2.76406 2.50445 16.2955
122 3 -0.870875 5.23754 2.03745 10.5319
123 3 -0.829802 6.90381 1.25441 12.3881
127 3 -0.89032 4.56408 3.3964 14.4804
131 3 -0.810383 4.02632 5.53723 12.9546
228 2 0.0260121 -1.12958 7.13765 12.9153
203 2 0.00890461 -0.440015 2.58922 11.8173
253 2 0.0308472 1.529 5.54538 11.5143
205 2 0.125649 2.97499 3.32318 13.3803
206 2 0.0828959 1.30858 2.80439 13.9422
207 2 0.0165791 1.45782 4.02127 12.5102
211 2 0.0224168 0.738917 4.28067 9.59774
332 2 0.00905595 -0.546134 3.96471 13.5732
227 2 0.049481 -2.49801 7.07692 11.7141
331 1 -0.102809 -1.51741 3.83601 14.0592
20 4 1.58912 6.78944 2.35042 17.1512
250 2 0.0715348 1.02416 4.95789 15.1011
251 2 0.106948 2.34181 5.39372 14.0245
252 2 0.00760728 0.700791 6.16705 13.7675
129 3 -0.784195 2.93862 6.96817 16.7004
258 2 0.0210408 3.86498 6.60754 9.79919
343 2 0.108508 6.61602 0.520478 15.248
202 2 0.0377121 -0.139394 1.35071 10.5245
333 2 0.135932 -1.82069 4.74938 14.6739
128 3 -0.891342 6.07115 3.82361 12.3855
255 2 0.0178259 1.02521 7.17015 12.1374
1 4 1.04742 -5.15331 13.3227 1.51264
13 4 1.17546 -6.27583 12.1219 4.09731
14 4 0.778952 -2.07149 10.2991 7.69631
15 4 1.33362 -3.62197 11.9173 5.55224
111 3 -0.736859 -4.12969 13.797 5.87636
34 4 1.15759 -0.990374 11.7221 3.94166
330 2 0.0124525 -6.51431 12.7324 8.56003
71 1 -0.129257 -2.75091 8.51658 8.31048
262 2 0.041802 -1.05468 10.9965 0.822401
72 1 -0.122678 -0.798693 9.43521 6.45654
328 2 0.066745 -5.29853 11.8878 7.6908
84 1 -0.120264 -0.329892 9.8652 3.29763
261 2 0.0505216 0.446572 9.54023 4.02309
107 3 -0.768481 -5.72033 13.1937 3.02959
108 3 -0.702372 -4.2798 12.0444 1.01902
109 3 -0.810032 -5.09201 11.4923 5.02761
110 3 -0.765015 -3.27194 11.1043 6.95993
19 4 1.54944 0.25967 13.7876 2.01961
132 3 -0.77773 1.80629 8.15165 2.25694
134 3 -0.842237 -0.789678 12.7986 2.68097
135 3 -0.823785 -2.49532 11.6085 4.42963
337 1 -0.121495 -4.36661 9.07254 1.21516
141 3 -0.844225 -0.01749 12.115 5.14293
142 3 -0.775235 1.66485 10.9764 7.02492
221 2 0.0274394 -3.46116 8.09785 7.61891
209 2 0.0585786 -1.11186 8.14118 1.40305
327 1 -0.115542 -6.07339 12.5841 7.6302
67 1 -0.132493 -1.87911 7.34807 1.3719
220 2 0.0177924 -1.88509 7.91674 8.37447
223 2 0.0125903 -1.43022 8.78327 5.90213
224 2 0.028357 -0.160702 8.92593 7.21223
225 2 0.0835136 -0.230841 10.125 5.9055
361 2 0.0369821 -3.36549 9.2186 1.64329
260 2 0.0264945 -1.30598 9.35757 3.3816
85 1 -0.13656 -0.48745 10.7299 -0.0286718
259 2 0.0639008 0.0770263 9.96509 2.32595
297 4 0.662006 -4.72436 10.7385 0.127417
269 2 0.0237478 2.98406 8.33831 5.74042
35 4 1.08007 1.42282 11.6113 0.162908
235 2 0.0989172 -1.7348 13.8436 6.06355
208 2 0.0268297 -2.84676 7.53729 1.05436
338 2 0.0733672 -4.45148 8.31002 0.437864
243 2 0.0185415 0.516449 7.63352 4.99903
6 4 1.59911 -4.58672 13.5546 13.8066
16 4 0.65189 -2.37585 9.1033 13.2816
18 4 1.15116 -2.94726 11.715 11.8832
145 3 -0.743743 3.64193 8.34131 13.0503
37 4 1.5857 -0.725397 12.111 9.7785
222 2 0.0500609 -3.15736 8.79107 9.28031
265 2 0.0794712 2.1342 9.38736 9.98687
39 4 1.4533 2.80752 9.55453 13.7389
74 1 -0.0894661 -0.541776 9.70109 14.0385
75 1 -0.0942351 -4.32739 12.1071 10.3127
365 2 0.104329 -4.36959 8.3024 11.6101
112 3 -0.691531 -3.45259 8.49493 14.407
113 3 -0.697717 -3.20119 10.2117 12.4124
114 3 -0.803532 -3.40119 12.5967 13.2197
86 1 -0.0903627 1.53437 9.21515 9.13507
301 2 0.0280182 -2.63434 10.1703 16.1306
138 3 -0.822422 -1.31201 10.8888 8.9706
140 3 -0.824371 -1.61151 12.1638 11.1683
144 3 -0.801403 1.91915 8.80264 14.8772
147 3 -0.853871 2.08939 10.5188 12.5222
146 3 -0.822005 0.777693 11.5225 10.4276
341 2 0.0952174 0.307072 13.1503 15.4102
73 1 -0.126706 -1.6932 7.66714 12.1623
340 1 -0.0816228 -0.47017 13.5909 14.7904
130 3 -0.754529 0.405314 7.55196 16.6493
229 2 0.047845 -0.690243 10.7469 14.252
230 2 0.0815763 0.202828 9.51997 13.2793
231 2 0.094337 -0.422026 9.05623 14.8973
362 2 0.0126756 -0.635534 11.6828 16.3583
233 2 0.119946 -3.76577 12.7558 9.65034
234 2 0.0714748 -5.14408 12.5831 10.8058
226 2 0.0329487 -1.09237 8.12233 11.4272
302 2 0.0557771 -2.73054 11.9186 15.8251
139 3 -0.893731 -0.390432 13.3678 8.78107
232 2 0.0363381 -4.63591 11.094 9.88461
31 4 1.16621 1.7043 7.39264 15.7477
342 2 0.0712391 -1.17211 12.8951 14.4379
298 1 -0.0794517 -3.19101 11.0073 15.7361
356 3 -0.831261 -5.81294 12.6337 14.4327
300 2 0.151729 -3.8276 10.8771 14.8391
266 2 1.14321e-05 1.48405 8.19917 8.81772
264 2 0.139815 0.633886 9.8019 9.1126
101 3 -0.787337 -5.23427 14.2165 12.4798
263 2 0.0797413 -0.0785609 10.123 17.1199
2 4 1.63332 14.3309 2.39859 3.70384
364 2 0.0221819 11.2696 5.64614 3.36162
286 2 0.0114293 7.80191 7.09106 7.40819
344 1 -0.0968379 14.7769 1.06679 7.81239
42 4 1.6054 9.18498 2.18171 3.75284
46 4 1.58786 11.9014 2.16512 5.63355
50 4 1.20127 10.1942 4.13197 1.44611
52 4 0.757852 10.571 4.05958 7.6755
89 1 -0.101724 11.6963 4.96377 2.66184
90 1 -0.10374 9.21944 4.49688 6.24265
248 2 0.0539206 7.6052 4.82543 8.26123
323 2 0.0152296 7.25727 6.14574 5.63504
149 3 -0.884768 13.6276 1.14964 2.89594
150 3 -0.782048 8.72106 0.669502 3.22802
151 3 -0.888513 8.00891 2.59024 4.79554
153 3 -0.898965 11.7441 1.14785 1.22125
156 3 -0.858331 13.0615 2.88376 4.65917
157 3 -0.827359 10.6082 2.13629 4.56836
158 3 -0.787789 12.3932 0.663824 6.09513
165 3 -0.825924 9.35967 3.22822 2.51928
166 3 -0.841943 10.9391 3.43823 0.224193
168 3 -0.749293 9.38538 5.51937 1.0202
170 3 -0.820582 11.633 3.07469 6.88562
273 2 0.117769 12.0864 4.08024 3.13356
274 2 0.0504871 12.2972 5.41919 1.95219
275 2 0.00145665 9.11032 5.56296 6.29748
276 2 0.0789245 8.36079 4.0421 6.5803
277 2 0.0839487 9.69913 4.09503 5.36053
21 4 1.70314 8.2374 0.326282 7.91309
322 2 0.0390216 5.70996 5.36583 5.01474
91 1 -0.139475 11.4329 5.89383 7.73249
303 4 1.10291 5.91873 4.5887 1.45259
304 4 0.283614 7.29057 6.50514 3.22856
278 2 0.0158207 10.7047 6.66105 7.82596
308 1 -0.100161 6.78463 5.49829 4.8874
309 3 -0.751025 6.42777 3.49629 0.326096
311 3 -0.605498 7.07848 5.57127 1.89889
316 2 0.0322946 9.64596 6.20101 4.13183
321 2 0.107273 7.355 4.62692 4.62973
279 2 0.0221418 11.865 5.8488 6.75053
28 4 1.54977 4.1942 6.83749 0.163745
345 2 0.0394158 14.4666 2.00907 8.28038
23 4 1.21295 6.9459 2.21869 5.92797
306 1 -0.101657 9.27244 6.95591 3.46337
346 2 0.0369355 15.4349 0.395429 8.36128
118 3 -0.873191 7.5901 1.61858 7.2277
41 4 1.82004 12.7619 0.166454 1.97373
216 2 0.0386195 13.563 4.48747 7.75525
315 2 0.0886363 9.56925 6.90739 2.46303
7 4 1.23173 14.2892 2.33434 15.483
169 3 -0.803835 9.92051 3.73551 9.08353
47 4 1.54827 12.7837 0.366167 13.3845
359 2 0.101563 13.3635 3.46994 13.4715
272 2 0.0989856 12.2259 2.82555 9.57502
45 4 1.57672 9.24841 2.44707 9.86905
43 4 1.71268 11.8371 2.4627 17.1212
48 4 1.61926 9.48559 2.42624 15.2317
49 4 1.22316 11.5126 2.79221 11.8633
51 4 1.19969 9.44085 6.76956 16.8913
53 4 1.55837 10.4952 5.08401 13.648
54 4 1.60154 6.75903 6.91552 15.3394
80 1 -0.108448 6.61384 4.90385 8.71854
88 1 -0.103931 12.6732 3.42533 10.3188
247 2 0.0112448 6.32574 5.92346 8.96184
93 1 -0.113719 7.94303 6.80975 10.8132
249 2 0.100507 6.45179 4.26969 9.52759
152 3 -0.890146 13.2416 2.80134 16.5699
204 2 0.103697 15.3008 0.906857 12.2534
155 3 -0.857285 7.80105 2.83091 10.5568
159 3 -0.722112 13.7717 0.988464 14.7675
160 3 -0.778093 9.24548 1.41707 13.9192
161 3 -0.829316 10.7523 1.79757 16.0343
162 3 -0.837921 8.04637 2.27124 16.0858
163 3 -0.756599 10.3615 2.00858 11.0221
164 3 -0.863364 12.446 1.829 12.7429
283 2 0.0919635 8.027 5.74881 10.9524
271 2 0.0515384 12.5673 4.47982 10.294
171 3 -0.819328 9.80588 3.86271 14.6011
172 3 -0.842375 11.1752 4.2883 12.3363
173 3 -0.803622 11.7952 5.74563 14.3366
174 3 -0.770177 6.14852 5.48778 14.6014
175 3 -0.775465 8.22724 6.42872 15.8907
177 3 -0.743799 9.4362 6.2553 13.3085
256 2 0.0600595 5.33806 6.16529 10.7595
12 4 1.41422 12.2044 7.08446 15.3423
270 2 0.0199559 13.6461 3.13998 10.5543
154 3 -0.802583 9.21982 1.12145 8.94388
24 4 1.25307 8.12568 0.553576 13.1514
83 1 -0.116629 4.56789 6.92012 10.4933
282 2 0.0529612 11.0812 6.61767 10.8467
167 3 -0.824326 10.9797 7.182 16.4157
280 2 0.0322521 12.1182 5.83614 8.55316
288 2 0.0199498 6.57895 7.93468 8.41301
36 4 0.794403 2.76116 10.1673 7.77607
38 4 1.50126 1.50666 12.1368 5.80098
44 4 1.17885 5.58013 13.7366 7.24172
56 4 1.69537 3.99862 11.5792 3.74617
58 4 0.309769 7.78486 9.47793 7.07808
60 4 1.52612 6.74265 11.6942 5.36985
87 1 -0.120398 3.69125 8.7939 6.43664
182 3 -0.76612 3.9607 10.8656 8.5593
95 1 -0.0957174 9.85909 9.13148 6.91778
133 3 -0.851531 4.05529 8.29935 1.0615
352 2 0.123381 5.52847 9.60981 0.13759
94 1 -0.128677 6.94843 7.75149 7.44194
143 3 -0.808593 1.54701 13.5264 6.76987
178 3 -0.875791 3.76229 10.1412 3.02916
179 3 -0.840374 4.40664 12.8696 2.75639
180 3 -0.865104 2.68879 11.8904 4.66498
287 2 0.0399212 6.21999 7.59263 6.69557
185 3 -0.812677 8.11064 12.53 4.89792
186 3 -0.886156 5.44209 11.5526 4.41513
187 3 -0.718822 7.21218 10.1787 5.71626
188 3 -0.828651 6.24761 12.3571 6.78658
268 2 0.0883976 4.35747 9.42684 5.9063
317 2 0.024872 9.32976 7.97311 3.88474
329 2 0.105269 9.01382 12.5386 6.73457
353 2 0.0971651 5.41484 10.3949 1.65238
307 1 -0.0809935 6.11483 8.19207 3.30382
335 2 0.0677675 9.27724 10.7914 1.96249
366 2 0.0263271 10.2411 9.26564 7.94433
318 2 0.0578962 6.86595 8.92176 3.47802
319 2 0.058272 5.35502 8.14946 4.02748
320 2 0.114522 5.58042 8.1761 2.33118
267 2 0.0175315 4.15694 8.1654 7.17385
137 3 -0.756954 1.35929 12.9012 1.16593
334 1 -0.121054 8.88908 10.4801 2.90428
289 2 0.126684 10.096 9.89271 6.20672
336 2 0.0397246 7.81001 10.451 2.93271
347 1 -0.104013 8.41759 8.13233 0.287719
349 2 0.0188498 8.93805 8.29426 1.22499
360 2 0.0365647 9.45756 9.65586 3.33662
351 1 -0.0994112 6.01676 10.3083 0.76366
136 3 -0.765798 2.37031 10.3997 0.799019
357 3 -0.877027 6.02846 13.306 0.891681
354 2 0.0283341 7.09045 10.076 0.990167
290 2 0.0239931 9.83349 8.10305 6.52554
350 2 0.0812469 7.36248 7.8737 0.35824
33 4 1.48366 2.96447 9.22664 1.79544
339 2 0.0308069 10.5984 9.10796 2.02027
293 2 0.0870212 7.40699 11.4092 8.34579
17 4 1.55589 8.81191 11.8033 15.4589
176 3 -0.855478 5.68507 7.46646 16.4502
291 2 0.0220066 7.79682 10.0151 9.53801
57 4 1.31771 6.14603 12.5785 17.01
59 4 1.5282 4.37308 12.0998 9.60197
61 4 1.60318 7.52251 9.56361 13.7352
62 4 1.55116 3.67482 12.2681 15.2244
63 4 1.22565 6.44526 11.8435 11.8976
284 2 0.0102169 8.24392 7.19876 9.86535
92 1 -0.112881 10.7473 7.6405 10.9927
96 1 -0.0751239 7.21102 10.4074 8.73272
97 1 -0.117641 8.39512 11.9426 11.3654
257 2 0.0532876 4.9019 7.93483 10.3397
40 4 1.63894 1.8385 11.8694 11.574
181 3 -0.781183 7.40018 12.5512 16.0049
299 3 -0.766229 9.62519 11.3228 16.7865
184 3 -0.805948 3.16216 12.2667 10.6707
189 3 -0.868654 6.92522 8.19891 14.3367
190 3 -0.717291 8.78768 9.01311 12.7085
191 3 -0.915702 8.31256 10.4977 14.7064
192 3 -0.757447 3.67204 10.7025 14.7377
193 3 -0.873455 4.78387 12.5693 16.2879
194 3 -0.777425 3.99867 13.3175 13.8968
195 3 -0.740403 2.0993 12.5351 15.9043
196 3 -0.836469 5.65393 11.6672 10.4825
197 3 -0.815631 6.50384 10.5348 12.8353
198 3 -0.847634 6.14444 13.3042 12.485
348 2 0.107541 8.77573 9.37176 16.8191
148 3 -0.78245 1.17057 13.1614 12.3232
295 2 0.0911069 8.74324 12.746 11.9215
285 2 0.0490093 7.02663 7.19408 11.1943
292 2 0.120445 6.19053 10.165 8.85108
281 2 0.0168125 10.3567 8.13534 10.1206
296 2 0.0156408 8.42249 12.1369 10.2935
294 2 0.0876959 8.73475 10.9758 11.7256
183 3 -0.719848 4.80743 13.5677 8.68091
55 4 0.749482 9.17679 7.48242 12.2795
ITEM: TIMESTEP
200
ITEM: NUMBER OF ATOMS
366
ITEM: BOX BOUNDS xy xz yz pp pp pp
-7.5839999999999996e+00 1.5957412400000001e+01 -7.5839999999999996e+00
0.0000000000000000e+00 1.4340199999999999e+01 2.3341240000000063e-01
0.0000000000000000e+00 1.7246500000000001e+01 4.3709999999999999e-01
ITEM: ATOMS id type q x y z
126 3 -0.777542 5.72658 3.37093 6.17721
5 4 1.10034 1.0886 2.33505 5.50111
9 4 1.52057 -0.00873934 4.05893 1.64347
11 4 0.332861 0.301582 4.67326 7.12643