ITEM: TIMESTEP
0
ITEM: NUMBER OF ATOMS
274
ITEM: BOX BOUNDS xy xz yz pp pp pp
-8.3797999999999995e+00 1.8013900000000000e+01 -8.3797999999999995e+00
0.0000000000000000e+00 1.3273200000000001e+01 1.1950000000000001e+00
0.0000000000000000e+00 1.6075500000000002e+01 4.3120000000000003e-01
ITEM: ATOMS id type q x y z
119 2 -0.0213965 7.35725 1.57263 5.14972
5 4 1.27832 0.517768 1.92119 0.297227
7 4 1.16878 1.26329 2.15697 5.38329
9 4 1.30547 -0.18009 4.3815 1.97218
10 4 1.59218 0.282691 4.41153 7.33326
242 1 -0.672744 3.19903 0.44963 3.23371
21 4 0.789122 5.71806 1.87379 5.48021
26 4 1.26139 5.39153 4.91552 6.93932
41 1 -0.707435 2.06168 0.678004 6.28983
44 1 -0.682224 3.82269 3.71854 1.53513
55 3 -0.779624 1.14953 0.679784 1.23629
56 3 -0.828989 -0.0339598 1.91639 4.55729
58 3 -0.808618 -1.23033 3.58403 2.84419
59 3 -0.818637 0.707063 3.44561 1.05431
243 2 0.178778 3.08328 1.41604 2.68804
61 3 -0.782296 1.26435 3.3557 6.36949
62 3 -0.818742 -0.590712 5.30312 6.22391
74 3 -0.787381 5.48322 0.82428 7.03588
78 3 -0.851948 0.659864 5.44597 2.75082
81 3 -0.769897 5.6183 3.44465 5.86162
84 3 -0.772574 2.84668 5.82943 4.14268
85 3 -0.786392 4.71571 6.20213 6.17717
99 3 -0.838308 8.20051 1.2472 7.81447
111 2 0.00425382 2.66129 2.04908 4.32282
112 2 -0.0172739 -1.09605 5.28284 0.979583
244 2 0.152463 2.81553 0.415307 4.35013
118 2 -0.0134506 4.35886 1.42411 4.46352
133 2 0.21846 1.84878 0.857449 7.3679
134 2 0.167259 3.15396 0.515718 6.13229
223 2 -0.0950848 6.23908 1.11295 3.73173
141 2 0.17755 4.08679 2.64891 1.27877
142 2 0.246722 2.74842 3.95664 1.30844
143 2 0.204065 4.17818 4.07922 2.57078
220 4 1.01013 6.82519 0.295365 2.06189
222 3 -0.778077 6.12851 1.12279 0.908121
113 2 -0.000156869 -1.95885 6.3464 4.37579
24 4 1.27033 4.99984 4.67363 0.418657
248 2 0.163266 3.39208 3.38942 14.8333
8 4 1.3001 1.72025 2.39377 10.4527
13 4 1.26628 0.175405 4.40577 12.3541
14 4 1.52655 -1.44023 6.46994 10.7726
20 4 1.27299 4.63071 3.15762 9.25904
23 4 1.19711 7.00698 2.56723 11.1231
27 4 1.36781 1.39017 6.55584 9.36429
77 3 -0.756915 7.0364 4.01375 15.6102
42 1 -0.653744 2.04117 1.02858 11.7078
57 3 -0.799903 0.396411 1.72876 9.5003
63 3 -0.825855 -0.444467 3.54889 13.5537
64 3 -0.833877 1.16799 3.59998 11.5101
65 3 -0.825014 -2.57308 6.16823 9.60788
66 3 -0.833928 -1.09585 4.98747 11.5218
73 3 -0.80165 3.16134 2.75259 9.84172
75 3 -0.824147 5.70222 3.23786 10.4485
76 3 -0.840192 6.64996 0.964644 11.6035
80 3 -0.783986 4.65847 4.45414 8.35951
82 3 -0.826426 1.20694 5.40608 8.24512
86 3 -0.805639 2.57518 6.46056 10.4213
114 2 -0.0263517 1.00432 5.6208 13.0853
137 2 0.175006 3.16348 0.933939 11.927
124 2 -0.0513958 4.01029 5.74358 12.5214
136 2 0.154518 1.46135 1.25223 12.6629
179 4 1.24467 7.30544 2.29291 15.4065
183 1 -0.69261 5.859 1.61926 14.3925
60 3 -0.819413 -0.749779 3.48444 8.13961
195 2 0.243854 6.14074 1.31994 13.3091
196 2 0.172383 5.07447 2.44484 14.417
197 2 0.212255 5.59151 0.728958 15.0439
227 3 -0.834584 5.26994 6.09907 15.6783
228 2 -0.0502737 3.02235 6.66757 14.323
245 1 -0.670961 2.75083 2.4239 14.7472
246 2 0.178675 2.02133 2.42639 13.8432
247 2 0.177854 3.31977 1.4645 14.8736
117 2 0.0985921 5.07464 1.87228 8.18961
71 3 -0.799936 -2.71671 6.7254 14.2958
262 3 -0.791956 0.112714 2.22611 15.8515
1 4 1.27586 -6.47449 12.3304 1.99179
3 3 -0.784013 -5.77946 11.4739 0.757769
265 2 0.160022 -4.29719 12.4766 2.7214
16 4 1.53909 -2.87447 8.49799 7.05394
17 4 1.22777 -4.12539 10.2878 4.78168
271 2 0.170722 0.772786 10.4575 1.91462
30 4 1.08055 2.74238 8.63807 1.45904
31 4 1.26306 -1.88268 10.1589 2.85496
33 4 1.13192 -0.0297726 11.0124 5.32382
48 1 -0.653129 -1.06712 8.72359 1.74885
49 1 -0.650416 0.755239 9.65653 6.53402
67 3 -0.814802 -3.86551 7.14295 7.46196
68 3 -0.828787 -1.44977 7.89606 6.42951
252 2 0.205574 -4.97229 8.53534 1.53637
70 3 -0.849191 -3.54704 9.38938 5.93286
79 3 -0.823659 0.486542 7.10129 4.88372
87 3 -0.834134 2.03064 7.80925 2.61261
88 3 -0.814197 2.87532 7.89567 0.112382
89 3 -0.791198 -1.8994 11.5325 2.00984
90 3 -0.77282 -3.53619 9.89476 3.26687
93 3 -0.801904 -0.852535 10.2117 4.07848
94 3 -0.856038 -0.835255 12.0825 6.17436
115 2 -0.014888 -3.54273 11.8269 5.21982
147 2 0.196362 1.90128 7.77212 7.22983
151 2 0.198513 -0.0103384 9.23507 1.5042
152 2 0.174314 -1.77983 8.60778 0.860951
153 2 0.178214 -1.01327 7.80477 2.43922
135 2 0.223559 -6.94671 12.7066 5.88755
155 2 0.263903 0.733883 8.57966 6.0248
156 2 0.231636 0.0428872 9.68328 7.38265
251 1 -0.649486 -5.22971 8.79009 0.457449
161 2 0.200636 -1.05914 9.96647 0.158798
28 4 1.20165 4.13647 6.77548 4.81539
19 4 1.33835 -1.2758 12.9917 7.39493
12 4 1.34589 -0.852764 6.67659 5.56453
69 3 -0.831189 -5.76212 10.4775 4.57671
154 2 0.143672 1.79835 9.96876 6.83111
272 2 0.189259 1.3778 10.3007 0.129026
47 1 -0.673729 1.6289 10.2301 1.17217
25 4 1.47936 1.53499 6.54592 3.51881
15 4 1.06835 -4.16667 10.8237 15.6868
18 4 1.25277 -2.30725 8.0658 13.3793
22 4 1.23511 -0.612302 12.6318 11.7541
32 4 0.997588 -2.60517 10.8494 9.12403
35 4 1.21025 -1.27696 10.7144 14.0675
268 2 0.158796 -3.24303 8.77791 15.7586
46 1 -0.639328 2.09706 8.03832 8.33009
157 2 0.172063 1.96425 10.1359 10.5523
51 1 -0.643422 0.0263731 11.187 15.3709
162 2 0.230733 -0.35708 12.2291 15.6804
72 3 -0.814551 -2.01607 7.536 11.9432
83 3 -0.806187 -0.117612 7.07223 10.1409
91 3 -0.822042 -2.68929 9.52852 8.27791
92 3 -0.811602 -1.40528 11.7468 8.91852
95 3 -0.851163 3.89084 8.21838 11.7191
96 3 -0.778694 -1.16724 8.92914 13.9292
97 3 -0.845407 -1.05018 11.3961 12.6386
98 3 -0.782578 -2.84163 11.1167 14.8696
116 2 -0.0429617 -3.69185 8.96466 13.3912
120 2 0.094071 -0.376765 11.956 10.2322
126 2 -0.000609562 -2.69138 10.4133 10.799
127 2 -0.0249925 -3.99704 11.7997 8.90056
128 2 0.0353671 2.0173 10.0913 12.8235
187 3 -0.806619 0.851974 13.1398 12.1862
148 2 0.180343 3.19093 8.03378 8.60152
139 2 0.161301 -4.99365 11.4688 13.3151
160 2 0.162358 0.96489 11.2997 14.7333
138 2 0.148827 -6.7475 12.912 11.1754
149 2 0.17082 1.49388 8.9568 8.73374
29 4 0.959689 3.86863 6.73843 11.2517
43 1 -0.662781 -5.89217 11.2008 13.8939
140 2 0.167543 -6.00267 12.0254 14.6241
226 4 0.973025 4.41911 7.23185 15.1294
235 2 0.16938 11.5233 1.59988 2.52613
37 4 1.26039 12.8702 2.12204 5.53814
38 4 1.01708 6.55671 6.45671 2.79676
39 4 1.34318 11.2041 4.16644 7.27492
45 1 -0.679248 7.12862 5.60647 7.45154
54 1 -0.672334 10.228 5.60698 6.46512
101 3 -0.764362 14.2164 2.85971 5.08368
102 3 -0.819881 13.2711 0.776867 6.41727
103 3 -0.757197 6.12088 5.53847 1.61731
4 4 1.53316 15.3656 2.28787 3.92756
106 3 -0.804939 11.8501 3.22528 6.07539
255 2 0.157884 9.75306 0.216132 4.81154
129 2 0.00139703 12.0307 1.37778 4.25654
130 2 0.0495891 7.8211 5.56081 3.75098
267 2 0.149867 11.3679 6.17248 0.490176
250 2 0.169695 10.3114 4.50243 0.0567851
146 2 0.183934 7.76663 4.6865 7.40623
105 3 -0.795746 10.005 3.27923 7.94352
169 2 0.209124 10.8068 6.52724 6.66405
170 2 0.178681 9.09697 5.65111 6.76688
171 2 0.167611 10.3521 5.27132 5.37353
221 1 -0.637202 8.63696 0.299339 1.65922
224 2 0.189661 8.66874 0.990097 0.734502
225 2 0.105427 8.94621 0.881341 2.73586
231 1 -0.684758 11.8386 0.569641 2.49074
232 3 -0.814265 14.6857 1.02234 3.14075
266 2 0.0538591 12.7567 3.99056 0.133636
249 1 -0.61396 11.4009 4.9477 0.234289
234 2 0.172717 11.6975 0.16181 1.40814
145 2 0.164575 7.35618 6.40634 6.71302
11 4 1.46315 12.8662 6.30835 8.84294
36 4 1.32469 9.14094 2.16751 8.78292
52 1 -0.671209 10.5496 1.01656 9.42648
188 3 -0.807096 8.62571 1.82114 14.641
100 3 -0.817384 8.24185 2.65049 10.0729
107 3 -0.804514 12.2507 4.64873 8.41621
110 2 0.0277279 14.6226 2.9511 10.3973
203 2 0.170259 8.75865 6.27562 9.26357
123 2 -0.0178854 5.25009 6.33882 10.5057
163 2 0.179421 11.4953 1.51439 9.08377
6 4 1.30434 15.7441 2.30051 9.12163
165 2 0.220948 10.4304 1.05205 10.553
172 4 0.971702 15.9235 2.3843 14.6003
173 1 -0.651964 14.3482 1.15638 14.0359
174 2 0.0352738 14.145 2.59973 15.0675
175 2 0.084283 15.5715 0.708285 13.733
176 2 0.152051 13.7863 1.47752 13.1108
263 3 -0.861773 14.7711 1.28273 8.452
178 4 1.03289 13.2165 5.46918 14.714
180 4 1.19244 9.88561 1.4226 13.5811
181 4 1.27142 11.5457 4.04443 12.2712
184 1 -0.676971 11.1572 0.500413 14.5463
185 1 -0.707518 12.9463 3.49549 11.0768
121 2 0.00178367 7.35024 3.60252 12.4374
189 3 -0.768534 10.6682 2.75528 12.7826
190 3 -0.779838 12.3335 4.69787 13.4529
192 3 -0.752905 10.5557 5.42314 11.5052
144 2 0.179233 7.14 6.03137 8.49507
199 2 0.177465 12.042 1.20796 14.5481
200 2 0.25684 12.6021 3.83076 10.0663
201 2 0.140335 12.8416 2.37401 11.3356
202 2 0.241865 13.8741 4.04213 11.4333
177 2 0.200146 13.7557 0.409944 14.6697
2 3 -0.76778 9.14753 11.4838 2.96151
270 2 0.174929 0.786735 12.0607 1.4489
207 4 1.29126 5.76883 13.0271 7.60607
53 1 -0.636485 8.40273 7.15947 3.3238
104 3 -0.814529 5.33746 6.95098 3.74333
122 2 -0.0309942 3.60116 8.34243 5.10856
125 2 -0.025603 4.30083 9.03375 1.94901
150 2 0.128535 2.54807 10.9335 1.41508
166 2 0.0707377 7.78991 7.9324 2.07739
168 2 0.150448 8.29476 7.76433 4.2726
206 4 1.19777 9.56296 10.45 4.1905
215 2 0.170043 7.12542 8.15783 7.03561
208 4 1.10753 7.6145 10.5481 6.8837
209 1 -0.660333 6.47309 9.04439 6.78592
253 2 0.109445 10.4356 8.38896 0.251767
211 3 -0.767712 8.61909 10.5428 5.6143
212 3 -0.806256 6.81684 11.9103 7.10629
213 2 0.0119732 9.44956 8.86104 3.42119
254 1 -0.67751 1.4946 11.9489 4.55619
216 2 0.166238 6.04834 9.01065 5.70453
217 2 0.141748 5.6403 9.27855 7.56335
239 2 0.109774 6.89717 9.1735 1.13592
230 4 1.13334 5.309 12.7519 2.6439
237 1 -0.672766 7.78039 9.95315 0.564397
238 3 -0.770979 5.60141 11.9364 1.1729
240 2 0.222536 8.3725 10.5395 1.34368
257 2 0.134503 2.33007 11.3681 5.10248
256 2 0.158028 1.50891 11.7838 3.4177
258 1 -0.663203 5.38712 11.2763 3.90128
259 2 0.149564 5.49584 10.2743 3.31965
260 2 0.141739 4.35398 11.5216 4.33947
261 2 0.227688 6.2171 11.5199 4.61867
167 2 0.157554 9.53589 6.9352 3.15679
233 2 0.159992 2.81429 12.8385 3.24605
34 4 0.999686 3.72817 9.67376 12.2549
40 4 0.91254 6.32826 10.6918 13.3274
108 3 -0.822736 4.80969 10.3758 13.175
109 3 -0.824898 6.92616 11.0467 14.7149
131 2 -0.049635 6.62881 11.9482 12.3379
132 2 -0.0644007 7.20533 9.52692 12.598
158 2 0.118929 3.60289 11.2228 10.546
159 2 0.220194 2.02163 11.7354 11.6112
186 1 -0.674189 8.83167 7.23094 9.91425
191 3 -0.787026 11.8849 7.32821 9.84235
214 2 -0.0438838 4.69394 12.1609 8.59729
194 2 -0.00470815 9.68079 7.93932 11.5145
204 2 0.167358 8.80295 8.25915 9.3678
205 2 0.140479 8.08635 7.21567 10.7563
218 2 0.133137 8.4136 9.7969 9.47037
229 2 -0.0187282 5.1524 7.86408 13.8474
269 2 0.147157 10.1193 11.0721 13.1611
236 4 1.036 7.54208 11.5303 16.0591
210 1 -0.663516 8.84362 10.0787 8.46996
264 2 0.0411797 9.06648 12.1965 15.8547
50 1 -0.674007 2.61559 10.8363 11.1517
219 2 0.178894 9.26064 11.1035 8.5139
193 2 0.0562259 11.2218 9.92382 14.5667
182 4 1.01767 10.5845 6.7649 10.6504
198 2 0.170532 2.95425 12.3519 13.9238
164 2 0.168989 2.02293 12.8015 9.00875
274 2 0.18738 9.55755 9.33497 8.13062
273 2 0.182597 2.32465 13.2448 15.5533
241 2 0.164007 9.56618 9.98136 15.8107
ITEM: TIMESTEP
100
ITEM: NUMBER OF ATOMS
274
ITEM: BOX BOUNDS xy xz yz pp pp pp
-8.3797999999999995e+00 1.8039583999999998e+01 -8.3797999999999995e+00
0.0000000000000000e+00 1.3273200000000001e+01 1.2206840000000003e+00
0.0000000000000000e+00 1.6075500000000002e+01 4.3120000000000003e-01
ITEM: ATOMS id type q x y z
119 2 -0.0411259 7.50483 1.98289 4.95738
5 4 1.22757 0.395568 1.88218 0.348324
7 4 1.13677 1.26967 2.14663 5.4463
9 4 1.25333 -0.219254 4.43279 1.91456
10 4 1.60814 0.32862 4.50351 7.29371
242 1 -0.69394 3.30196 0.559961 3.12881
21 4 0.787049 5.86808 1.90207 5.50267
26 4 1.30291 5.32573 4.75312 6.89737
41 1 -0.689594 1.73814 0.546437 6.22934
44 1 -0.683426 3.85584 3.4705 1.59152
55 3 -0.810506 1.10818 0.737014 1.20819
56 3 -0.787034 -0.106196 1.9763 4.67054
58 3 -0.841276 -1.30047 3.65406 2.843
59 3 -0.791059 0.868593 3.47037 1.2291
243 2 0.176149 3.41136 1.61068 2.67164
61 3 -0.768181 1.35958 3.50197 6.24646
62 3 -0.826158 -0.524548 5.43571 6.34019
74 3 -0.804595 5.47209 0.770243 7.06184
78 3 -0.826608 0.53156 5.50653 2.76582
81 3 -0.779413 5.33566 3.41309 5.7482
84 3 -0.762635 2.94324 5.91993 4.18122
85 3 -0.777037 4.59215 6.01374 6.24662
99 3 -0.8261 8.08021 1.19095 7.84385
111 2 0.0213919 2.49001 2.0189 4.22036
112 2 -0.0384764 -1.05537 5.22688 0.686029
244 2 0.138666 3.0088 0.447406 4.24237
118 2 -0.0116493 4.70137 1.15277 4.38237
133 2 0.19749 1.19894 0.811993 7.29442
134 2 0.16127 2.87093 0.383084 6.29995
223 2 -0.0947852 6.4042 1.10313 3.71373
141 2 0.183116 4.38568 2.46209 1.36135
142 2 0.274187 2.6837 3.47682 1.38616
143 2 0.192338 4.13777 3.90745 2.61344
220 4 0.972268 6.86491 0.352875 2.03483
222 3 -0.799745 6.26554 1.1486 0.744458
113 2 -0.00632201 -2.12747 6.31167 4.32428
24 4 1.23789 4.86763 4.63589 0.509455
248 2 0.174205 3.35045 3.26959 15.0035
8 4 1.30266 1.63072 2.28912 10.5498
13 4 1.28669 0.0727541 4.42309 12.3318
14 4 1.56548 -1.53412 6.51639 10.7613
20 4 1.29254 4.59232 3.06986 9.23112
23 4 1.25545 7.03957 2.63721 11.028
27 4 1.36638 1.40083 6.5107 9.4588
77 3 -0.759431 6.81773 4.05008 15.6449
42 1 -0.653786 2.00565 0.738345 11.575
57 3 -0.805825 0.389044 1.73274 9.64022
63 3 -0.86851 -0.463533 3.47065 13.4314
64 3 -0.819361 1.05131 3.53909 11.4991
65 3 -0.856865 -2.59464 6.26789 9.65045
66 3 -0.850974 -1.18703 5.08757 11.5162
73 3 -0.786112 3.14885 2.59843 9.73511
75 3 -0.85304 5.69282 3.12813 10.3723
76 3 -0.851172 6.94648 1.11636 11.5875
80 3 -0.80772 4.73604 4.36644 8.35823
82 3 -0.819954 1.22866 5.35722 8.40172
86 3 -0.79399 2.43275 6.2368 10.7289
114 2 -0.0163054 1.04319 5.60516 13.0453
137 2 0.162837 3.18188 0.722806 11.6492
124 2 -0.045459 4.27643 5.67344 12.5713
136 2 0.158853 1.51361 0.802915 12.5851
179 4 1.21926 7.33096 2.33955 15.381
183 1 -0.685032 5.92039 1.51587 14.5225
60 3 -0.841274 -0.68724 3.53895 8.05066
195 2 0.240341 6.23531 1.22767 13.4741
196 2 0.174942 5.09181 2.31881 14.5707
197 2 0.204708 5.78127 0.631188 15.2503
227 3 -0.790736 5.01969 6.15882 15.784
29 4 0.930511 3.81647 6.70447 11.296
245 1 -0.662141 2.69332 2.35251 14.8711
246 2 0.174947 1.93268 2.40936 13.9844
247 2 0.179706 3.23753 1.33711 14.9956
117 2 0.11231 5.0932 1.74832 8.18292
71 3 -0.800742 -2.47541 6.71144 14.3673
123 2 -0.0146396 5.09071 6.45369 10.1877
1 4 1.31876 -6.42452 12.4995 2.01073
3 3 -0.783053 -5.75772 11.4452 0.914383
25 4 1.4833 1.44372 6.59174 3.56097
16 4 1.52854 -2.8305 8.49278 7.02938
17 4 1.28242 -4.09269 10.2275 4.74636
271 2 0.150225 1.24874 10.3446 2.36465
30 4 1.02608 2.66875 8.77085 1.45815
31 4 1.2727 -1.8711 10.1806 2.72225
33 4 1.11606 -0.0128741 11.1234 5.25417
48 1 -0.674132 -1.14031 8.71627 1.67644
49 1 -0.674851 0.563512 9.73282 6.43076
67 3 -0.799557 -3.846 7.27683 7.50468
68 3 -0.818454 -1.40374 7.78112 6.49121
265 2 0.151136 -4.25621 12.6295 2.84244
70 3 -0.830225 -3.62642 9.26236 5.83316
79 3 -0.848334 0.540465 7.21359 4.69711
87 3 -0.797298 1.80526 7.81765 2.49333
88 3 -0.802174 2.89053 8.14835 0.0269438
89 3 -0.784782 -1.86133 11.5243 1.89774
90 3 -0.767614 -3.41132 9.71374 3.32777
93 3 -0.797135 -0.877646 10.4691 3.99628
94 3 -0.8521 -0.901663 12.1746 6.08331
115 2 -0.0307566 -3.53179 11.7941 5.1176
147 2 0.194448 2.10652 7.70522 7.34361
151 2 0.202932 -0.0868754 9.14437 1.45282
152 2 0.178284 -1.85415 8.64664 0.813983
153 2 0.190462 -1.1008 7.76263 2.24161
135 2 0.236688 -7.17766 12.4899 5.68138
155 2 0.266165 0.591463 8.83178 5.73919
156 2 0.24347 -0.219066 9.56785 7.25427
251 1 -0.632047 -5.54231 8.71324 0.470726
268 2 0.179772 -4.48959 8.24014 0.417978
28 4 1.22444 4.16384 6.76244 4.88005
19 4 1.34392 -1.39692 12.9221 7.39684
12 4 1.30615 -0.880548 6.69471 5.46778
69 3 -0.800392 -5.62311 10.1775 4.62686
154 2 0.148638 1.55011 9.99687 6.87202
272 2 0.188999 0.684553 10.4756 0.453549
47 1 -0.647722 1.57596 10.3686 1.16925
15 4 1.04715 -4.10767 10.8442 15.76
18 4 1.24211 -2.38035 8.0063 13.3468
22 4 1.25624 -0.465908 12.7038 11.7527
32 4 0.970532 -2.59144 10.7269 9.16713
35 4 1.28731 -1.28638 10.6474 14.0783
228 2 -0.03338 3.06154 7.05704 14.1931
46 1 -0.654614 2.08697 8.0369 8.45385
157 2 0.176912 1.95891 10.2686 10.706
51 1 -0.650908 0.272456 11.0583 15.1859
162 2 0.210757 -0.0189782 12.0984 15.5045
72 3 -0.849456 -2.00264 7.5679 11.8959
83 3 -0.770609 -0.0788611 7.1276 10.1018
91 3 -0.849268 -2.56444 9.4979 8.27301
92 3 -0.800609 -1.38977 11.7643 8.99467
95 3 -0.83515 3.82173 8.20289 11.785
96 3 -0.773276 -1.26074 9.01003 13.9104
97 3 -0.822733 -1.04348 11.5935 12.7101
98 3 -0.806756 -2.7176 10.8817 14.8351
116 2 -0.0444457 -3.87291 8.79491 13.1536
120 2 0.092147 -0.312688 12.0041 10.1956
126 2 -0.0147171 -2.72975 10.2469 10.7557
127 2 -0.0393746 -4.06668 11.487 8.99109
128 2 0.0334033 2.10636 10.136 13.0347
226 4 0.970435 4.4392 7.42915 15.1411
148 2 0.155199 3.13356 8.33695 8.84225
139 2 0.160288 -4.91904 11.3433 13.4227
160 2 0.175484 1.18837 11.0281 14.5579
138 2 0.16201 -6.78692 12.6897 10.9458
149 2 0.192936 1.30718 8.79353 8.71042
140 2 0.156837 -5.9846 12.0176 14.9771
43 1 -0.634896 -5.79446 11.1822 14.0873
187 3 -0.79373 1.00318 13.0825 12.3213
161 2 0.187579 0.313882 10.2974 16.0584
235 2 0.160584 11.9726 1.80238 2.46561
37 4 1.28208 12.8422 2.04583 5.52059
169 2 0.228755 10.8579 6.531 6.88146
39 4 1.32245 11.2277 4.09211 7.31541
45 1 -0.680477 7.20256 5.24181 7.12457
54 1 -0.658554 10.383 5.60883 6.49154
101 3 -0.789348 14.1909 2.7616 5.04527
102 3 -0.832611 13.0414 0.832968 6.49151
103 3 -0.743109 6.03861 5.69858 1.52249
4 4 1.48337 15.2872 2.4429 3.85183
106 3 -0.802174 11.8543 3.15951 6.15251
255 2 0.159503 9.82031 0.251214 4.77087
129 2 -0.000475378 11.9194 1.35791 4.20452
130 2 0.0415223 7.7143 5.41689 3.71691
267 2 0.178862 11.661 5.95971 0.681992
207 4 1.24314 14.0802 0.234733 7.66102
146 2 0.198294 7.67993 4.27766 7.34323
105 3 -0.792836 9.82789 3.21054 7.95056
145 2 0.159844 7.48772 5.64901 6.10503
170 2 0.18207 9.20959 5.51259 6.71793
171 2 0.176332 10.6507 5.33456 5.42473
221 1 -0.657082 8.68482 0.397429 1.77058
224 2 0.177553 8.70235 1.17705 0.901275
225 2 0.121957 8.92785 0.851835 2.84145
231 1 -0.647447 11.829 0.663001 2.33893
232 3 -0.795243 14.451 1.13492 2.99277
266 2 0.0655545 12.2475 3.96788 0.395487
249 1 -0.65285 11.4092 5.11523 0.0115343
234 2 0.165935 11.5654 0.344565 1.24931
233 2 0.157466 11.0794 0.16215 3.14698
144 2 0.163063 7.27853 6.02505 8.00101
11 4 1.50696 12.8174 6.41062 8.90836
36 4 1.35672 9.09761 2.10016 8.79352
52 1 -0.673517 10.4488 0.883966 9.43462
188 3 -0.78818 8.72138 2.11658 14.3331
100 3 -0.836908 8.3017 2.69037 10.0128
107 3 -0.805396 12.2717 4.72331 8.34191
110 2 0.0317311 14.8004 3.04133 10.2616
203 2 0.161982 8.70873 6.26878 9.21837
202 2 0.221019 13.8788 3.97155 11.4543
163 2 0.17287 11.3138 0.976471 8.67121
6 4 1.32113 15.7965 2.38158 9.0338
165 2 0.205443 10.6704 1.30729 10.4618
172 4 1.03184 15.893 2.48517 14.5641
173 1 -0.6664 14.6239 1.17974 14.0299
174 2 -0.00625657 14.1676 2.74969 15.0515
175 2 0.123006 15.5014 0.636203 13.2851
176 2 0.153673 13.7622 1.64851 13.4226
263 3 -0.862458 14.8437 1.28185 8.50571
178 4 1.0561 13.3884 5.41641 14.5958
180 4 1.27362 9.98992 1.56426 13.5086
181 4 1.31863 11.7339 4.0083 12.2808
184 1 -0.642848 10.9636 0.507365 14.7525
185 1 -0.698731 12.9806 3.46732 10.8876
121 2 0.00921756 7.44785 3.59046 12.4427
189 3 -0.809566 10.9493 2.61534 12.7748
190 3 -0.841558 12.5682 4.70237 13.4077
192 3 -0.797173 10.6537 5.11948 11.6103
177 2 0.197342 14.2733 0.619513 14.9508
199 2 0.156143 11.799 1.28137 14.9823
200 2 0.268721 12.7313 3.9067 9.84063
201 2 0.146541 13.0247 2.32211 10.9063
182 4 1.03674 10.4878 6.43742 10.7305
250 2 0.16751 11.4816 5.11982 16.0215
262 3 -0.815207 16.8228 2.08391 15.7824
122 2 -0.0366668 3.59958 8.29919 5.35527
270 2 0.195333 0.801215 12.2559 1.48826
167 2 0.174053 9.32773 6.78979 3.2278
53 1 -0.650227 8.32835 7.06475 3.48617
104 3 -0.847323 5.40322 6.98952 3.90357
236 4 1.03972 6.34493 11.0655 0.0755424
125 2 -0.0373502 4.1717 9.17983 2.24354
150 2 0.142229 2.56846 10.9943 0.903987
166 2 0.0640126 7.73696 8.01099 2.37762
168 2 0.160369 8.27958 7.61726 4.45408
206 4 1.19187 9.5949 10.4036 4.13033
215 2 0.161731 6.96645 8.33539 7.39194
208 4 1.09426 7.713 10.5898 6.85615
209 1 -0.656331 6.58949 9.08097 6.62958
2 3 -0.804226 9.5115 11.5375 3.08642
211 3 -0.785143 8.61554 10.6097 5.50592
212 3 -0.793353 6.67741 11.8103 7.27374
213 2 -0.00130657 8.96997 8.93243 3.48302
254 1 -0.685516 1.57014 12.029 4.45805
216 2 0.177119 6.75968 8.78156 5.52781
217 2 0.164418 5.61368 9.56344 6.87331
239 2 0.0901287 6.84894 9.27431 0.9952
230 4 1.14827 5.2767 12.676 2.56728
237 1 -0.651034 7.94713 9.90554 0.583146
238 3 -0.814354 5.68912 11.8649 1.2352
240 2 0.196854 8.68475 10.0499 1.43456
257 2 0.134577 2.47681 11.5598 5.01015
256 2 0.163055 1.57456 11.8542 3.34444
258 1 -0.668379 5.41175 11.4175 3.92274
259 2 0.162661 5.7626 10.397 3.6833
260 2 0.1229 4.21839 11.4698 4.17023
261 2 0.210885 6.1424 12.0248 4.59851
252 2 0.172524 10.9483 8.72905 1.67564
38 4 1.00916 6.47249 6.51118 2.87629
34 4 1.01384 3.75257 9.69742 12.4061
40 4 0.939368 6.33693 10.9026 13.3212
108 3 -0.845628 4.90955 10.3485 13.1532
109 3 -0.823033 6.91159 11.1748 14.7221
131 2 -0.039279 6.46032 12.2066 12.3847
132 2 -0.062015 7.39303 9.98987 12.4636
158 2 0.129977 3.57102 11.1777 10.6975
159 2 0.237409 2.12972 11.8034 11.7602
186 1 -0.6612 8.82754 7.14231 9.96217
191 3 -0.84275 11.7179 7.03714 9.8485
214 2 -0.0251417 4.67922 12.4562 8.88876
194 2 -0.00476612 9.73088 7.76352 11.5486
204 2 0.159498 8.8713 8.25262 9.41926
205 2 0.123669 8.06943 7.16449 10.8301
218 2 0.145531 8.29922 9.83039 9.34075
229 2 -0.0141463 5.51879 8.06863 14.0217
269 2 0.138137 10.1027 11.2624 13.3236
241 2 0.163726 9.5455 9.82209 15.768
210 1 -0.650141 8.90981 10.1358 8.48712
264 2 0.068436 9.18403 12.0967 15.9756
50 1 -0.686901 2.64146 10.8514 11.3272
219 2 0.172935 9.47182 11.1134 8.59859
193 2 0.075318 11.1289 9.79914 14.6629
253 2 0.131518 11.6393 8.52082 15.9578
198 2 0.181638 2.9029 12.4637 14.1351
164 2 0.163706 1.61158 12.6633 9.45539
274 2 0.175302 9.61066 9.30714 8.06357
273 2 0.175181 1.8434 13.0494 15.7034
ITEM: TIMESTEP
200
ITEM: NUMBER OF ATOMS
274
ITEM: BOX BOUNDS xy xz yz pp pp pp
-8.3797999999999995e+00 1.8065268000000000e+01 -8.3797999999999995e+00
0.0000000000000000e+00 1.3273200000000001e+01 1.2463680000000004e+00
0.0000000000000000e+00 1.6075500000000002e+01 4.3120000000000003e-01
ITEM: ATOMS id type q x y z
119 2 -0.0329392 7.28574 1.81583 4.90844
5 4 1.26437 0.487543 1.8988 0.408614
7 4 1.11794 1.26276 2.21016 5.23573
9 4 1.26773 -0.22671 4.45355 1.93073
10 4 1.57653 0.429368 4.38607 7.19488
242 1 -0.673833 3.30311 0.543414 2.88979
21 4 0.801047 5.68927 1.74965 5.42627
26 4 1.31367 5.25425 4.64165 6.77805
41 1 -0.664028 1.45025 0.722061 6.4002
44 1 -0.669378 3.68154 3.73747 1.76127
55 3 -0.825468 1.05999 0.638383 1.33782
56 3 -0.818308 -0.199203 2.07786 4.57585
58 3 -0.851318 -1.3539 3.64862 2.79166
59 3 -0.803182 0.814657 3.54974 1.11318
243 2 0.158439 3.37551 1.69103 2.55217
61 3 -0.793786 1.55064 3.33544 6.24875
62 3 -0.82362 -0.39833 5.35979 6.2514
74 3 -0.800343 5.53873 0.595494 6.98914
78 3 -0.863272 0.621974 5.57025 2.66518
81 3 -0.815421 5.42148 3.26908 5.85533
84 3 -0.801944 2.82045 6.11796 4.11852
85 3 -0.789522 4.55759 5.94638 6.16659
99 3 -0.846722 7.9882 1.3102 7.84728
111 2 -0.010147 2.46638 1.94434 4.00208
112 2 -0.0141316 -1.2016 5.31576 0.804742
244 2 0.116561 2.9464 0.324663 3.99354
118 2 -0.0306941 4.48784 1.24055 4.31264
133 2 0.231387 1.20764 0.918603 7.47702
134 2 0.139358 2.59357 0.561637 6.31302
223 2 -0.0923401 6.32307 1.05367 3.61146
141 2 0.156844 4.23267 2.70497 1.65925
142 2 0.281083 2.51747 3.69338 1.47711
143 2 0.206413 3.86679 4.27271 2.75808
220 4 1.02947 6.89216 0.447303 1.92023
222 3 -0.79668 6.52932 1.40661 0.686991
113 2 0.00539769 -1.76541 6.28701 4.20424
24 4 1.27356 4.73994 4.80182 0.632872
60 3 -0.820211 -0.657353 3.59034 8.03044
248 2 0.183754 3.32927 3.37318 14.8893
8 4 1.28701 1.63616 2.22731 10.5454
13 4 1.25784 0.170754 4.38323 12.338
14 4 1.52204 -1.50489 6.51781 10.7163
20 4 1.30102 4.59244 2.92711 9.21926
23 4 1.26964 6.98477 2.63314 11.0812
27 4 1.35152 1.31632 6.55049 9.45606
77 3 -0.76159 6.79417 4.00354 15.6441
42 1 -0.655014 1.9856 0.721319 11.684
57 3 -0.793612 0.30154 1.73032 9.57951
63 3 -0.840858 -0.591044 3.68075 13.6189
64 3 -0.827083 1.01568 3.34519 11.5648
65 3 -0.819859 -2.51601 6.14387 9.57559
66 3 -0.821891 -0.967306 5.02628 11.3787
73 3 -0.784288 3.16522 2.59639 9.81078
75 3 -0.856718 5.62383 2.88811 10.3921
76 3 -0.846515 6.97955 1.17677 11.7764
80 3 -0.788597 4.71539 4.25353 8.34424
82 3 -0.789544 1.10859 5.41102 8.36145
86 3 -0.764768 2.51565 6.15352 10.786
114 2 -0.0085924 1.17725 5.63545 12.8961
137 2 0.16394 3.10915 0.495802 11.5616
124 2 -0.0414795 4.55283 5.49215 12.443
136 2 0.16213 1.71262 0.927585 12.7725
179 4 1.31096 7.42912 2.58001 15.3193
183 1 -0.678474 6.0549 1.51763 14.6081
117 2 0.101495 5.06717 1.66123 8.07927
195 2 0.260652 6.41521 1.32241 13.5049
196 2 0.180481 5.08426 2.09721 14.6786
197 2 0.222387 6.11098 0.633112 15.2884
227 3 -0.829518 4.95829 6.06561 15.8785
71 3 -0.815044 -2.34012 6.76647 14.3542
245 1 -0.671419 2.68142 2.43489 14.8531
246 2 0.176794 1.88908 2.50199 14.0582
247 2 0.156003 3.28202 1.4342 14.8432
262 3 -0.78413 0.160864 2.3617 16.0082
29 4 0.925183 3.85723 6.66667 11.3651
1 4 1.34721 -6.53627 12.3601 2.0813
3 3 -0.800551 -5.71023 11.3391 0.98375
25 4 1.46522 1.47164 6.7049 3.39348
16 4 1.55008 -2.83584 8.50285 7.09791
17 4 1.25927 -4.23864 10.0942 4.58663
271 2 0.177771 1.0541 10.7103 2.19186
30 4 1.04668 2.66954 8.90655 1.37105
31 4 1.21537 -1.94377 10.1872 2.76202
33 4 1.14197 0.00319668 11.177 5.19009
48 1 -0.654215 -1.12396 8.82057 1.73676
49 1 -0.659353 0.706949 9.78515 6.41387
67 3 -0.785072 -3.90726 7.26102 7.51812
68 3 -0.825226 -1.565 7.82066 6.40664
265 2 0.175469 -4.16615 12.8072 2.57806
70 3 -0.781062 -3.6355 9.35496 5.86196
79 3 -0.825316 0.547359 7.39579 4.85146
87 3 -0.808793 1.88644 7.95295 2.46275
88 3 -0.803683 2.96977 8.1405 0.0191415
89 3 -0.766517 -1.91758 11.7892 1.84868
90 3 -0.808397 -3.38928 9.67455 3.29257
93 3 -0.792669 -0.703402 10.5341 3.90916
94 3 -0.854887 -0.795843 12.1028 6.20526
115 2 -0.0388575 -4.20176 11.7676 4.83532
147 2 0.183744 2.23442 7.77505 7.50144
151 2 0.197905 -0.0357785 9.33172 1.4658
152 2 0.1725 -1.89761 8.66761 0.883172
153 2 0.185037 -1.02114 7.95734 2.458
135 2 0.250977 -7.50725 12.72 5.95586
155 2 0.292381 0.679116 8.79819 5.87758
156 2 0.217927 -0.0915164 9.86415 7.24491
251 1 -0.680372 -5.38642 8.65992 0.486697
268 2 0.19535 -4.36988 8.25155 0.473793
28 4 1.22346 4.03404 6.84419 4.91604
19 4 1.4084 -1.36311 12.9128 7.43641
12 4 1.30727 -0.743866 6.73204 5.49467
69 3 -0.811382 -5.84124 9.88013 4.36065
154 2 0.140402 1.74041 10.1316 6.69792
272 2 0.182148 0.762597 10.5966 0.348945
47 1 -0.672817 1.56051 10.4704 1.18167
161 2 0.1865 -0.916126 9.9995 0.103389
15 4 1.09561 -4.05026 10.8485 15.8944
18 4 1.21854 -2.20186 7.98553 13.2942
22 4 1.23113 -0.424548 12.7323 11.8069
32 4 0.97599 -2.5031 10.7184 9.29705
35 4 1.21518 -1.18078 10.7233 14.1036
228 2 -0.0192407 3.18049 7.06451 14.177
46 1 -0.656946 2.11941 8.07493 8.61261
157 2 0.165117 1.98254 9.84236 10.7928
51 1 -0.643405 0.297601 11.1136 15.1904
162 2 0.202743 0.0739436 12.2404 15.3874
72 3 -0.866841 -2.23019 7.49623 11.756
83 3 -0.800485 -0.0496144 7.1666 9.99475
91 3 -0.851593 -2.63989 9.57519 8.23013
92 3 -0.817136 -1.44346 11.8449 9.01796
95 3 -0.837812 3.72838 8.08455 12.0573
96 3 -0.793087 -1.10278 9.08672 13.6867
97 3 -0.82961 -1.13007 11.6814 12.7772
98 3 -0.759651 -2.61819 11.0031 15.2543
116 2 -0.034654 -3.71883 8.77904 13.5477
120 2 0.0708787 -0.284484 12.0126 10.2613
126 2 -0.0126924 -2.37135 10.1317 10.7965
127 2 -0.0400538 -3.95919 11.3843 9.6279
128 2 0.0160028 2.12846 10.3072 13.1084
226 4 0.973032 4.49268 7.34597 15.1528
148 2 0.150343 3.12777 8.32891 9.10139
139 2 0.158602 -4.96646 11.6769 13.2387
160 2 0.148957 1.25783 10.9666 14.5868
138 2 0.157399 -7.0232 12.728 11.2432
149 2 0.190499 1.33545 8.87248 8.73704
140 2 0.151935 -5.64641 12.3686 14.7415
43 1 -0.669726 -5.7059 11.4344 14.049
235 2 0.159709 12.0117 1.77788 2.56132
37 4 1.30027 12.8432 1.99794 5.55623
169 2 0.219016 10.7343 6.41976 6.93895
39 4 1.35958 11.1611 4.01479 7.27662
45 1 -0.657261 7.10862 5.12132 6.76045
54 1 -0.66373 10.3114 5.52639 6.41204
101 3 -0.76684 14.0053 2.8881 4.91762
102 3 -0.845691 13.1775 0.739544 6.41753
103 3 -0.791079 5.79648 5.67273 1.67831
4 4 1.52606 15.2716 2.41935 3.75915
106 3 -0.817457 11.8416 3.00697 6.23286
255 2 0.157989 9.78778 0.401527 4.784
129 2 0.00397568 11.8764 1.42786 4.24804
130 2 0.0482838 7.67671 5.35343 3.68643
267 2 0.167063 11.2922 6.20133 0.160791
233 2 0.157616 11.1264 0.19246 3.263
146 2 0.183925 7.60869 4.07965 6.95614
105 3 -0.814638 9.98323 3.22337 7.97077
145 2 0.16396 7.38897 5.59975 5.77003
170 2 0.182214 9.15582 5.37754 6.55197
171 2 0.179078 10.6544 5.4433 5.33665
221 1 -0.650306 8.7731 0.473106 1.98846
224 2 0.171706 9.03853 1.31736 1.28857
225 2 0.121701 8.80793 0.76662 3.16647
231 1 -0.676468 11.8719 0.675883 2.4185
232 3 -0.821686 14.6906 1.04647 3.07213
266 2 0.0873996 12.4597 4.3202 0.534336
144 2 0.156848 7.23094 5.83829 7.65915
234 2 0.173786 11.5222 0.448331 1.38913
11 4 1.48501 12.8099 6.29182 8.89275
36 4 1.3141 9.04307 2.13763 8.76931
52 1 -0.676261 10.3412 0.86842 9.35744
188 3 -0.795534 8.63953 2.31899 14.2247
100 3 -0.807768 8.26894 2.8288 10.1127
107 3 -0.784024 12.2381 4.71879 8.38713
110 2 0.0343413 14.8457 3.08887 10.2024
203 2 0.132627 8.72585 5.92995 9.30886
202 2 0.199978 14.105 3.71958 11.4873
163 2 0.175979 11.245 1.2029 8.66827
6 4 1.32568 15.7418 2.40547 8.98007
165 2 0.216312 10.5292 1.12576 10.4427
172 4 0.949619 15.8671 2.54594 14.6463
173 1 -0.641559 14.5908 1.14097 14.0014
174 2 0.0229499 14.1024 2.56452 15.1434
175 2 0.0990898 15.7887 0.806567 13.6689
176 2 0.142965 14.1929 1.82306 13.107
263 3 -0.856995 14.8203 1.28497 8.45537
178 4 1.04499 13.576 5.40123 14.5933