ITEM: TIMESTEP
0
ITEM: NUMBER OF ATOMS
274
ITEM: BOX BOUNDS xy xz yz pp pp pp
-8.3797999999999995e+00 1.8013900000000000e+01 -8.3797999999999995e+00
0.0000000000000000e+00 1.3273200000000001e+01 1.1950000000000001e+00
0.0000000000000000e+00 1.6075500000000002e+01 4.3120000000000003e-01
ITEM: ATOMS id type q x y z
119 2 -0.0213965 7.35725 1.57263 5.14972
5 4 1.27832 0.517768 1.92119 0.297227
7 4 1.16878 1.26329 2.15697 5.38329
9 4 1.30547 -0.18009 4.3815 1.97218
10 4 1.59218 0.282691 4.41153 7.33326
242 1 -0.672744 3.19903 0.44963 3.23371
21 4 0.789122 5.71806 1.87379 5.48021
26 4 1.26139 5.39153 4.91552 6.93932
41 1 -0.707435 2.06168 0.678004 6.28983
44 1 -0.682224 3.82269 3.71854 1.53513
55 3 -0.779624 1.14953 0.679784 1.23629
56 3 -0.828989 -0.0339598 1.91639 4.55729
58 3 -0.808618 -1.23033 3.58403 2.84419
59 3 -0.818637 0.707063 3.44561 1.05431
243 2 0.178778 3.08328 1.41604 2.68804
61 3 -0.782296 1.26435 3.3557 6.36949
62 3 -0.818742 -0.590712 5.30312 6.22391
74 3 -0.787381 5.48322 0.82428 7.03588
78 3 -0.851948 0.659864 5.44597 2.75082
81 3 -0.769897 5.6183 3.44465 5.86162
84 3 -0.772574 2.84668 5.82943 4.14268
85 3 -0.786392 4.71571 6.20213 6.17717
99 3 -0.838308 8.20051 1.2472 7.81447
111 2 0.00425382 2.66129 2.04908 4.32282
112 2 -0.0172739 -1.09605 5.28284 0.979583
244 2 0.152463 2.81553 0.415307 4.35013
118 2 -0.0134506 4.35886 1.42411 4.46352
133 2 0.21846 1.84878 0.857449 7.3679
134 2 0.167259 3.15396 0.515718 6.13229
223 2 -0.0950848 6.23908 1.11295 3.73173
141 2 0.17755 4.08679 2.64891 1.27877
142 2 0.246722 2.74842 3.95664 1.30844
143 2 0.204065 4.17818 4.07922 2.57078
220 4 1.01013 6.82519 0.295365 2.06189
222 3 -0.778077 6.12851 1.12279 0.908121
113 2 -0.000156869 -1.95885 6.3464 4.37579
24 4 1.27033 4.99984 4.67363 0.418657
248 2 0.163266 3.39208 3.38942 14.8333
8 4 1.3001 1.72025 2.39377 10.4527
13 4 1.26628 0.175405 4.40577 12.3541
14 4 1.52655 -1.44023 6.46994 10.7726
20 4 1.27299 4.63071 3.15762 9.25904
23 4 1.19711 7.00698 2.56723 11.1231
27 4 1.36781 1.39017 6.55584 9.36429
77 3 -0.756915 7.0364 4.01375 15.6102
42 1 -0.653744 2.04117 1.02858 11.7078
57 3 -0.799903 0.396411 1.72876 9.5003
63 3 -0.825855 -0.444467 3.54889 13.5537
64 3 -0.833877 1.16799 3.59998 11.5101
65 3 -0.825014 -2.57308 6.16823 9.60788
66 3 -0.833928 -1.09585 4.98747 11.5218
73 3 -0.80165 3.16134 2.75259 9.84172
75 3 -0.824147 5.70222 3.23786 10.4485
76 3 -0.840192 6.64996 0.964644 11.6035
80 3 -0.783986 4.65847 4.45414 8.35951
82 3 -0.826426 1.20694 5.40608 8.24512
86 3 -0.805639 2.57518 6.46056 10.4213
114 2 -0.0263517 1.00432 5.6208 13.0853
137 2 0.175006 3.16348 0.933939 11.927
124 2 -0.0513958 4.01029 5.74358 12.5214
136 2 0.154518 1.46135 1.25223 12.6629
179 4 1.24467 7.30544 2.29291 15.4065
183 1 -0.69261 5.859 1.61926 14.3925
60 3 -0.819413 -0.749779 3.48444 8.13961
195 2 0.243854 6.14074 1.31994 13.3091
196 2 0.172383 5.07447 2.44484 14.417
197 2 0.212255 5.59151 0.728958 15.0439
227 3 -0.834584 5.26994 6.09907 15.6783
228 2 -0.0502737 3.02235 6.66757 14.323
245 1 -0.670961 2.75083 2.4239 14.7472
246 2 0.178675 2.02133 2.42639 13.8432
247 2 0.177854 3.31977 1.4645 14.8736
117 2 0.0985921 5.07464 1.87228 8.18961
71 3 -0.799936 -2.71671 6.7254 14.2958
262 3 -0.791956 0.112714 2.22611 15.8515
1 4 1.27586 -6.47449 12.3304 1.99179
3 3 -0.784013 -5.77946 11.4739 0.757769
265 2 0.160022 -4.29719 12.4766 2.7214
16 4 1.53909 -2.87447 8.49799 7.05394
17 4 1.22777 -4.12539 10.2878 4.78168
271 2 0.170722 0.772786 10.4575 1.91462
30 4 1.08055 2.74238 8.63807 1.45904
31 4 1.26306 -1.88268 10.1589 2.85496
33 4 1.13192 -0.0297726 11.0124 5.32382
48 1 -0.653129 -1.06712 8.72359 1.74885
49 1 -0.650416 0.755239 9.65653 6.53402
67 3 -0.814802 -3.86551 7.14295 7.46196
68 3 -0.828787 -1.44977 7.89606 6.42951
252 2 0.205574 -4.97229 8.53534 1.53637
70 3 -0.849191 -3.54704 9.38938 5.93286
79 3 -0.823659 0.486542 7.10129 4.88372
87 3 -0.834134 2.03064 7.80925 2.61261
88 3 -0.814197 2.87532 7.89567 0.112382
89 3 -0.791198 -1.8994 11.5325 2.00984
90 3 -0.77282 -3.53619 9.89476 3.26687
93 3 -0.801904 -0.852535 10.2117 4.07848
94 3 -0.856038 -0.835255 12.0825 6.17436
115 2 -0.014888 -3.54273 11.8269 5.21982
147 2 0.196362 1.90128 7.77212 7.22983
151 2 0.198513 -0.0103384 9.23507 1.5042
152 2 0.174314 -1.77983 8.60778 0.860951
153 2 0.178214 -1.01327 7.80477 2.43922
135 2 0.223559 -6.94671 12.7066 5.88755
155 2 0.263903 0.733883 8.57966 6.0248
156 2 0.231636 0.0428872 9.68328 7.38265
251 1 -0.649486 -5.22971 8.79009 0.457449
161 2 0.200636 -1.05914 9.96647 0.158798
28 4 1.20165 4.13647 6.77548 4.81539
19 4 1.33835 -1.2758 12.9917 7.39493
12 4 1.34589 -0.852764 6.67659 5.56453
69 3 -0.831189 -5.76212 10.4775 4.57671
154 2 0.143672 1.79835 9.96876 6.83111
272 2 0.189259 1.3778 10.3007 0.129026
47 1 -0.673729 1.6289 10.2301 1.17217
25 4 1.47936 1.53499 6.54592 3.51881
15 4 1.06835 -4.16667 10.8237 15.6868
18 4 1.25277 -2.30725 8.0658 13.3793
22 4 1.23511 -0.612302 12.6318 11.7541
32 4 0.997588 -2.60517 10.8494 9.12403
35 4 1.21025 -1.27696 10.7144 14.0675
268 2 0.158796 -3.24303 8.77791 15.7586
46 1 -0.639328 2.09706 8.03832 8.33009
157 2 0.172063 1.96425 10.1359 10.5523
51 1 -0.643422 0.0263731 11.187 15.3709
162 2 0.230733 -0.35708 12.2291 15.6804
72 3 -0.814551 -2.01607 7.536 11.9432
83 3 -0.806187 -0.117612 7.07223 10.1409
91 3 -0.822042 -2.68929 9.52852 8.27791
92 3 -0.811602 -1.40528 11.7468 8.91852
95 3 -0.851163 3.89084 8.21838 11.7191
96 3 -0.778694 -1.16724 8.92914 13.9292
97 3 -0.845407 -1.05018 11.3961 12.6386
98 3 -0.782578 -2.84163 11.1167 14.8696
116 2 -0.0429617 -3.69185 8.96466 13.3912
120 2 0.094071 -0.376765 11.956 10.2322
126 2 -0.000609562 -2.69138 10.4133 10.799
127 2 -0.0249925 -3.99704 11.7997 8.90056
128 2 0.0353671 2.0173 10.0913 12.8235
187 3 -0.806619 0.851974 13.1398 12.1862
148 2 0.180343 3.19093 8.03378 8.60152
139 2 0.161301 -4.99365 11.4688 13.3151
160 2 0.162358 0.96489 11.2997 14.7333
138 2 0.148827 -6.7475 12.912 11.1754
149 2 0.17082 1.49388 8.9568 8.73374
29 4 0.959689 3.86863 6.73843 11.2517
43 1 -0.662781 -5.89217 11.2008 13.8939
140 2 0.167543 -6.00267 12.0254 14.6241
226 4 0.973025 4.41911 7.23185 15.1294
235 2 0.16938 11.5233 1.59988 2.52613
37 4 1.26039 12.8702 2.12204 5.53814
38 4 1.01708 6.55671 6.45671 2.79676
39 4 1.34318 11.2041 4.16644 7.27492
45 1 -0.679248 7.12862 5.60647 7.45154
54 1 -0.672334 10.228 5.60698 6.46512
101 3 -0.764362 14.2164 2.85971 5.08368
102 3 -0.819881 13.2711 0.776867 6.41727
103 3 -0.757197 6.12088 5.53847 1.61731
4 4 1.53316 15.3656 2.28787 3.92756
106 3 -0.804939 11.8501 3.22528 6.07539
255 2 0.157884 9.75306 0.216132 4.81154
129 2 0.00139703 12.0307 1.37778 4.25654
130 2 0.0495891 7.8211 5.56081 3.75098
267 2 0.149867 11.3679 6.17248 0.490176
250 2 0.169695 10.3114 4.50243 0.0567851
146 2 0.183934 7.76663 4.6865 7.40623
105 3 -0.795746 10.005 3.27923 7.94352
169 2 0.209124 10.8068 6.52724 6.66405
170 2 0.178681 9.09697 5.65111 6.76688
171 2 0.167611 10.3521 5.27132 5.37353
221 1 -0.637202 8.63696 0.299339 1.65922
224 2 0.189661 8.66874 0.990097 0.734502
225 2 0.105427 8.94621 0.881341 2.73586
231 1 -0.684758 11.8386 0.569641 2.49074
232 3 -0.814265 14.6857 1.02234 3.14075
266 2 0.0538591 12.7567 3.99056 0.133636
249 1 -0.61396 11.4009 4.9477 0.234289
234 2 0.172717 11.6975 0.16181 1.40814
145 2 0.164575 7.35618 6.40634 6.71302
11 4 1.46315 12.8662 6.30835 8.84294
36 4 1.32469 9.14094 2.16751 8.78292
52 1 -0.671209 10.5496 1.01656 9.42648
188 3 -0.807096 8.62571 1.82114 14.641
100 3 -0.817384 8.24185 2.65049 10.0729
107 3 -0.804514 12.2507 4.64873 8.41621
110 2 0.0277279 14.6226 2.9511 10.3973
203 2 0.170259 8.75865 6.27562 9.26357
123 2 -0.0178854 5.25009 6.33882 10.5057
163 2 0.179421 11.4953 1.51439 9.08377
6 4 1.30434 15.7441 2.30051 9.12163
165 2 0.220948 10.4304 1.05205 10.553
172 4 0.971702 15.9235 2.3843 14.6003
173 1 -0.651964 14.3482 1.15638 14.0359
174 2 0.0352738 14.145 2.59973 15.0675
175 2 0.084283 15.5715 0.708285 13.733
176 2 0.152051 13.7863 1.47752 13.1108
263 3 -0.861773 14.7711 1.28273 8.452
178 4 1.03289 13.2165 5.46918 14.714
180 4 1.19244 9.88561 1.4226 13.5811
181 4 1.27142 11.5457 4.04443 12.2712
184 1 -0.676971 11.1572 0.500413 14.5463
185 1 -0.707518 12.9463 3.49549 11.0768
121 2 0.00178367 7.35024 3.60252 12.4374
189 3 -0.768534 10.6682 2.75528 12.7826
190 3 -0.779838 12.3335 4.69787 13.4529
192 3 -0.752905 10.5557 5.42314 11.5052
144 2 0.179233 7.14 6.03137 8.49507
199 2 0.177465 12.042 1.20796 14.5481
200 2 0.25684 12.6021 3.83076 10.0663
201 2 0.140335 12.8416 2.37401 11.3356
202 2 0.241865 13.8741 4.04213 11.4333
177 2 0.200146 13.7557 0.409944 14.6697
2 3 -0.76778 9.14753 11.4838 2.96151
270 2 0.174929 0.786735 12.0607 1.4489
207 4 1.29126 5.76883 13.0271 7.60607
53 1 -0.636485 8.40273 7.15947 3.3238
104 3 -0.814529 5.33746 6.95098 3.74333
122 2 -0.0309942 3.60116 8.34243 5.10856
125 2 -0.025603 4.30083 9.03375 1.94901
150 2 0.128535 2.54807 10.9335 1.41508
166 2 0.0707377 7.78991 7.9324 2.07739
168 2 0.150448 8.29476 7.76433 4.2726
206 4 1.19777 9.56296 10.45 4.1905
215 2 0.170043 7.12542 8.15783 7.03561
208 4 1.10753 7.6145 10.5481 6.8837
209 1 -0.660333 6.47309 9.04439 6.78592
253 2 0.109445 10.4356 8.38896 0.251767
211 3 -0.767712 8.61909 10.5428 5.6143
212 3 -0.806256 6.81684 11.9103 7.10629
213 2 0.0119732 9.44956 8.86104 3.42119
254 1 -0.67751 1.4946 11.9489 4.55619
216 2 0.166238 6.04834 9.01065 5.70453
217 2 0.141748 5.6403 9.27855 7.56335
239 2 0.109774 6.89717 9.1735 1.13592
230 4 1.13334 5.309 12.7519 2.6439
237 1 -0.672766 7.78039 9.95315 0.564397
238 3 -0.770979 5.60141 11.9364 1.1729
240 2 0.222536 8.3725 10.5395 1.34368
257 2 0.134503 2.33007 11.3681 5.10248
256 2 0.158028 1.50891 11.7838 3.4177
258 1 -0.663203 5.38712 11.2763 3.90128
259 2 0.149564 5.49584 10.2743 3.31965
260 2 0.141739 4.35398 11.5216 4.33947
261 2 0.227688 6.2171 11.5199 4.61867
167 2 0.157554 9.53589 6.9352 3.15679
233 2 0.159992 2.81429 12.8385 3.24605
34 4 0.999686 3.72817 9.67376 12.2549
40 4 0.91254 6.32826 10.6918 13.3274
108 3 -0.822736 4.80969 10.3758 13.175
109 3 -0.824898 6.92616 11.0467 14.7149
131 2 -0.049635 6.62881 11.9482 12.3379
132 2 -0.0644007 7.20533 9.52692 12.598
158 2 0.118929 3.60289 11.2228 10.546
159 2 0.220194 2.02163 11.7354 11.6112
186 1 -0.674189 8.83167 7.23094 9.91425
191 3 -0.787026 11.8849 7.32821 9.84235
214 2 -0.0438838 4.69394 12.1609 8.59729
194 2 -0.00470815 9.68079 7.93932 11.5145
204 2 0.167358 8.80295 8.25915 9.3678
205 2 0.140479 8.08635 7.21567 10.7563
218 2 0.133137 8.4136 9.7969 9.47037
229 2 -0.0187282 5.1524 7.86408 13.8474
269 2 0.147157 10.1193 11.0721 13.1611
236 4 1.036 7.54208 11.5303 16.0591
210 1 -0.663516 8.84362 10.0787 8.46996
264 2 0.0411797 9.06648 12.1965 15.8547
50 1 -0.674007 2.61559 10.8363 11.1517
219 2 0.178894 9.26064 11.1035 8.5139
193 2 0.0562259 11.2218 9.92382 14.5667
182 4 1.01767 10.5845 6.7649 10.6504
198 2 0.170532 2.95425 12.3519 13.9238
164 2 0.168989 2.02293 12.8015 9.00875
274 2 0.18738 9.55755 9.33497 8.13062
273 2 0.182597 2.32465 13.2448 15.5533
241 2 0.164007 9.56618 9.98136 15.8107
ITEM: TIMESTEP
100
ITEM: NUMBER OF ATOMS
274
ITEM: BOX BOUNDS xy xz yz pp pp pp
-8.3476489999999970e+00 1.8013900000000000e+01 -8.3476489999999970e+00
0.0000000000000000e+00 1.3273200000000001e+01 1.1950000000000001e+00
0.0000000000000000e+00 1.6075500000000002e+01 4.3120000000000003e-01
ITEM: ATOMS id type q x y z
119 2 -0.0411612 7.50462 1.98284 4.95725
5 4 1.22756 0.395482 1.88219 0.34825
7 4 1.1368 1.26957 2.14669 5.44645
9 4 1.25331 -0.219262 4.43278 1.91456
10 4 1.60806 0.328365 4.50321 7.29399
242 1 -0.693979 3.30193 0.5599 3.12876
21 4 0.787076 5.86804 1.90208 5.50265
26 4 1.30286 5.32575 4.7531 6.89733
41 1 -0.689485 1.73799 0.546382 6.22963
44 1 -0.683476 3.85588 3.47063 1.5914
55 3 -0.810544 1.10807 0.736948 1.20811
56 3 -0.786997 -0.106122 1.97638 4.67033
58 3 -0.841309 -1.30048 3.65401 2.84294
59 3 -0.791054 0.868594 3.47036 1.22909
243 2 0.17617 3.41078 1.61064 2.67182
61 3 -0.768116 1.3595 3.50208 6.24658
62 3 -0.826082 -0.524564 5.43569 6.34027
74 3 -0.804594 5.47202 0.770243 7.06181
78 3 -0.826597 0.531568 5.50654 2.76583
81 3 -0.779444 5.33555 3.41296 5.74809
84 3 -0.762644 2.94326 5.91995 4.1812
85 3 -0.777035 4.59218 6.01371 6.24658
99 3 -0.826135 8.08023 1.19096 7.84385
111 2 0.0213801 2.49053 2.01821 4.2214
112 2 -0.0384784 -1.05539 5.22689 0.686059
244 2 0.138572 3.01035 0.447195 4.24311
118 2 -0.0116613 4.70135 1.15288 4.38225
133 2 0.197465 1.19856 0.811864 7.29473
134 2 0.161258 2.87095 0.382775 6.30046
223 2 -0.0947681 6.40404 1.10317 3.71394
141 2 0.183118 4.38592 2.46243 1.36106
142 2 0.274176 2.68379 3.47695 1.38598
143 2 0.192325 4.13788 3.90768 2.61328
220 4 0.972291 6.86493 0.352839 2.03479
222 3 -0.799786 6.26549 1.14861 0.744444
113 2 -0.00632492 -2.12744 6.31168 4.3243
24 4 1.23792 4.86759 4.63588 0.509507
248 2 0.174196 3.35056 3.26968 15.0033
8 4 1.30254 1.63031 2.28904 10.5496
13 4 1.28668 0.0729191 4.42339 12.3318
14 4 1.56545 -1.53412 6.51642 10.7613
20 4 1.2925 4.59224 3.06988 9.23106
23 4 1.25516 7.03946 2.63692 11.028
27 4 1.36639 1.40083 6.51069 9.4588
77 3 -0.759431 6.8177 4.05003 15.6449
42 1 -0.653835 2.0056 0.738544 11.5748
57 3 -0.805936 0.388099 1.7328 9.63978
63 3 -0.868446 -0.463544 3.47115 13.4316
64 3 -0.81926 1.05124 3.53899 11.4991
65 3 -0.856865 -2.59464 6.2679 9.65045
66 3 -0.850868 -1.18706 5.0875 11.5162
73 3 -0.786012 3.14876 2.59843 9.73509
75 3 -0.852851 5.69278 3.12861 10.3722
76 3 -0.851121 6.94506 1.11552 11.5869
80 3 -0.807665 4.736 4.36645 8.35816
82 3 -0.81986 1.22862 5.35718 8.40175
86 3 -0.793974 2.43277 6.23682 10.7289
114 2 -0.016295 1.04343 5.60557 13.0448
137 2 0.162939 3.18177 0.723079 11.649
124 2 -0.0454616 4.27644 5.67388 12.5715
136 2 0.15889 1.51363 0.803123 12.585
179 4 1.21933 7.33077 2.33955 15.3811
183 1 -0.685226 5.92072 1.516 14.5225
60 3 -0.841056 -0.687411 3.53849 8.05094
195 2 0.240326 6.23542 1.22806 13.474
196 2 0.174993 5.09282 2.31903 14.5713
197 2 0.204791 5.78244 0.631691 15.2505
227 3 -0.79071 5.01971 6.15879 15.784
29 4 0.930419 3.81645 6.70465 11.296
245 1 -0.662106 2.69333 2.35251 14.8711
246 2 0.174952 1.93262 2.40931 13.9845
247 2 0.179734 3.23747 1.33712 14.9957
117 2 0.112307 5.09321 1.7483 8.18302
71 3 -0.800711 -2.4755 6.71136 14.3673
123 2 -0.0146116 5.09072 6.45367 10.1877
1 4 1.31865 -6.42446 12.4994 2.01086
3 3 -0.78323 -5.75797 11.4453 0.914203
25 4 1.48328 1.44372 6.59174 3.56098
16 4 1.52856 -2.83047 8.49278 7.02937
17 4 1.28239 -4.09271 10.2275 4.74636
271 2 0.150211 1.24868 10.3444 2.36472
30 4 1.02609 2.66877 8.77084 1.45814
31 4 1.27274 -1.87112 10.1806 2.72226
33 4 1.116 -0.0129309 11.1234 5.25424
48 1 -0.674143 -1.14027 8.71626 1.67648
49 1 -0.674885 0.563483 9.73284 6.43076
67 3 -0.799559 -3.84602 7.27683 7.50468
68 3 -0.818449 -1.40373 7.7811 6.4912
265 2 0.151179 -4.25644 12.6301 2.84169
70 3 -0.830219 -3.62642 9.26236 5.83316
79 3 -0.84833 0.540461 7.21358 4.6971
87 3 -0.797289 1.80527 7.81766 2.49334
88 3 -0.802094 2.89048 8.14833 0.0269391
89 3 -0.784772 -1.86134 11.5243 1.89771
90 3 -0.767635 -3.41133 9.71377 3.32776
93 3 -0.797146 -0.877681 10.4691 3.99627
94 3 -0.852116 -0.901678 12.1746 6.08329
115 2 -0.0307552 -3.53184 11.7941 5.11761
147 2 0.194451 2.10651 7.70524 7.34361
151 2 0.202933 -0.0868768 9.14441 1.45292
152 2 0.17829 -1.85407 8.6466 0.813967
153 2 0.190457 -1.10075 7.76265 2.24167
135 2 0.23665 -7.17793 12.4899 5.68125
155 2 0.266152 0.591482 8.83185 5.73925
156 2 0.243486 -0.21904 9.56783 7.2543
251 1 -0.632371 -5.54164 8.71347 0.469996
268 2 0.179787 -4.489 8.23928 0.420066
28 4 1.22441 4.16391 6.76247 4.87997
19 4 1.34403 -1.39692 12.9222 7.39669
12 4 1.30614 -0.880529 6.69468 5.4678
69 3 -0.800392 -5.62318 10.1775 4.62682
154 2 0.148623 1.55013 9.99712 6.87186
272 2 0.189033 0.684693 10.4755 0.453507
47 1 -0.647711 1.57596 10.3686 1.16926
15 4 1.04736 -4.10722 10.8438 15.7602
18 4 1.24207 -2.3804 8.00619 13.3467
22 4 1.25529 -0.466395 12.7041 11.7531
32 4 0.970616 -2.59163 10.7268 9.16717
35 4 1.28713 -1.28646 10.6473 14.0783
228 2 -0.0333892 3.06158 7.05703 14.193
46 1 -0.654591 2.08699 8.03689 8.45386
157 2 0.17694 1.95711 10.27 10.7083
51 1 -0.650922 0.272348 11.0582 15.1858
162 2 0.210712 -0.0185216 12.0985 15.5041
72 3 -0.849473 -2.00263 7.5679 11.8959
83 3 -0.770605 -0.0788488 7.12759 10.1018
91 3 -0.84926 -2.56447 9.49784 8.27298
92 3 -0.800523 -1.39014 11.7641 8.99413
95 3 -0.834957 3.82174 8.20329 11.7848
96 3 -0.773219 -1.26068 9.00987 13.9107
97 3 -0.822739 -1.04451 11.5932 12.7095
98 3 -0.806639 -2.71755 10.882 14.8356
116 2 -0.0444401 -3.87289 8.79482 13.1535
120 2 0.092208 -0.314193 12.0043 10.196
126 2 -0.0146459 -2.72959 10.2469 10.7558
127 2 -0.0393579 -4.06696 11.4867 8.99111
128 2 0.0333991 2.10609 10.1343 13.035
226 4 0.970491 4.4392 7.42914 15.141
148 2 0.155222 3.13358 8.33692 8.84226
139 2 0.160186 -4.92016 11.3409 13.4158
160 2 0.175402 1.18814 11.0273 14.5572
138 2 0.161967 -6.78699 12.6899 10.9457
149 2 0.192955 1.30721 8.79353 8.71045
140 2 0.156555 -5.9805 12.0195 14.9763
43 1 -0.634483 -5.79331 11.1823 14.0857
161 2 0.187609 0.313669 10.2974 16.0584
235 2 0.160638 11.9742 1.80109 2.46395
37 4 1.28226 12.8414 2.04668 5.51951
169 2 0.228737 10.8577 6.53121 6.88141
39 4 1.32259 11.2276 4.09224 7.31556
45 1 -0.680485 7.20257 5.24179 7.12455
54 1 -0.658561 10.3829 5.60899 6.49154
101 3 -0.789232 14.191 2.76165 5.04516
102 3 -0.831755 13.0368 0.833518 6.4895
103 3 -0.743016 6.03865 5.69862 1.52255
4 4 1.48328 15.2873 2.4428 3.85166
106 3 -0.802141 11.8538 3.1604 6.15223
255 2 0.159574 9.81988 0.251236 4.77099
129 2 -0.000365909 11.919 1.36049 4.20211
130 2 0.0413645 7.71371 5.41503 3.7178
267 2 0.178834 11.6609 5.95961 0.681993
207 4 1.24106 14.073 0.233803 7.66424
146 2 0.198281 7.67995 4.27767 7.34321
105 3 -0.792868 9.82795 3.21051 7.95063
145 2 0.159833 7.48778 5.64901 6.10505
170 2 0.182045 9.20946 5.51271 6.71794
171 2 0.176373 10.6505 5.33472 5.42486
221 1 -0.657083 8.68481 0.397397 1.77057
224 2 0.177543 8.70234 1.17712 0.90123
225 2 0.121902 8.92771 0.851854 2.84166
231 1 -0.647572 11.8294 0.661911 2.33767
232 3 -0.79533 14.4507 1.13459 2.99275
266 2 0.0655137 12.2467 3.96769 0.395252
249 1 -0.652837 11.4087 5.11529 0.0114012
234 2 0.165756 11.5652 0.342621 1.2486
233 2 0.157549 11.0794 0.161572 3.14559
144 2 0.163078 7.27854 6.02502 8.00099
11 4 1.50695 12.8174 6.4106 8.90835
36 4 1.35672 9.09754 2.10015 8.79356
52 1 -0.673582 10.4483 0.883825 9.43529
188 3 -0.788192 8.72125 2.11693 14.3335
100 3 -0.83695 8.30161 2.69039 10.0129
107 3 -0.805421 12.2717 4.72332 8.34198
110 2 0.0318575 14.7987 3.04057 10.2613
203 2 0.161981 8.70869 6.26886 9.21839
202 2 0.221106 13.8787 3.97166 11.454
163 2 0.172662 11.3138 0.978199 8.67265
6 4 1.3211 15.7955 2.38011 9.0331
165 2 0.205602 10.6687 1.30568 10.4633
172 4 1.03173 15.8933 2.48514 14.564
173 1 -0.666156 14.624 1.17831 14.0301
174 2 -0.00631591 14.1684 2.74856 15.051
175 2 0.122642 15.502 0.633384 13.2817
176 2 0.153722 13.7613 1.64571 13.4251
263 3 -0.862037 14.8411 1.28207 8.50471
178 4 1.05616 13.3883 5.41633 14.5958
180 4 1.27403 9.98944 1.56382 13.508
181 4 1.31859 11.734 4.00817 12.2807
184 1 -0.642577 10.9634 0.507086 14.7519
185 1 -0.698835 12.9809 3.46723 10.8875
121 2 0.00920927 7.4479 3.58943 12.4432
189 3 -0.809454 10.9492 2.61527 12.7746
190 3 -0.841498 12.5682 4.70229 13.4077
192 3 -0.797128 10.6537 5.11944 11.6103
177 2 0.197207 14.2743 0.619346 14.9512
199 2 0.156041 11.7996 1.28118 14.9815
200 2 0.268701 12.7313 3.90662 9.84078
201 2 0.146501 13.0249 2.3221 10.9062
182 4 1.03672 10.4877 6.43741 10.7305
250 2 0.167598 11.4812 5.1203 16.0216
262 3 -0.815388 16.823 2.084 15.7824
122 2 -0.0366287 3.59963 8.29913 5.35523
270 2 0.195336 0.80121 12.256 1.4883
167 2 0.174091 9.32753 6.78854 3.22891
53 1 -0.650211 8.32827 7.06418 3.48693
104 3 -0.847287 5.40331 6.98966 3.90349
236 4 1.04038 6.35258 11.0681 0.0742356
125 2 -0.037205 4.17171 9.17983 2.24346
150 2 0.142104 2.56841 10.9943 0.90403
166 2 0.064294 7.73824 8.01185 2.37851
168 2 0.160368 8.27927 7.61613 4.45532
206 4 1.19178 9.59486 10.4034 4.13047
215 2 0.161794 6.96672 8.33539 7.39188
208 4 1.09319 7.71254 10.5903 6.85637
209 1 -0.65608 6.58996 9.08131 6.62991
2 3 -0.804373 9.5116 11.5374 3.08617
211 3 -0.785002 8.61552 10.6099 5.5061
212 3 -0.791963 6.67207 11.8104 7.27469
213 2 -0.00119304 8.96985 8.93208 3.48379
254 1 -0.685446 1.5703 12.0292 4.45785
216 2 0.177033 6.76177 8.78349 5.52721
217 2 0.164578 5.61394 9.56406 6.87342
239 2 0.0910115 6.85315 9.26486 0.99534
230 4 1.1476 5.27754 12.6753 2.56647
237 1 -0.651722 7.94868 9.90186 0.586028
238 3 -0.81404 5.69558 11.8644 1.23423
240 2 0.197574 8.68597 10.0579 1.43264
257 2 0.134698 2.47664 11.5596 5.0102
256 2 0.163048 1.57442 11.8543 3.34423
258 1 -0.668415 5.41083 11.417 3.92162
259 2 0.162916 5.76455 10.3967 3.68611
260 2 0.123519 4.22072 11.4687 4.16842
261 2 0.210628 6.14302 12.0319 4.59327
252 2 0.172593 10.947 8.73219 1.67395
38 4 1.00924 6.47274 6.51069 2.87675
34 4 1.0131 3.75286 9.69808 12.4067
40 4 0.93898 6.33834 10.903 13.3222
108 3 -0.845214 4.90941 10.3491 13.1565
109 3 -0.823017 6.91915 11.1754 14.7207
131 2 -0.0392964 6.46087 12.2063 12.3864
132 2 -0.0618763 7.39136 9.98943 12.4625
158 2 0.129855 3.5703 11.1766 10.6959
159 2 0.237432 2.13112 11.8048 11.7621
186 1 -0.661217 8.82763 7.14246 9.9621
191 3 -0.842749 11.7179 7.03713 9.8485
214 2 -0.0257561 4.67265 12.4553 8.89281
194 2 -0.00473193 9.73089 7.76351 11.5486
204 2 0.159528 8.8713 8.25249 9.41923
205 2 0.123687 8.06959 7.16471 10.8301
218 2 0.145529 8.29874 9.83049 9.34025
229 2 -0.0140668 5.51878 8.06867 14.0217
269 2 0.138244 10.1016 11.2609 13.3254
241 2 0.16433 9.55277 9.82768 15.7709
210 1 -0.650221 8.90939 10.1359 8.4868
264 2 0.0671797 9.18142 12.1119 15.9743
50 1 -0.68685 2.6415 10.8518 11.3281
219 2 0.172865 9.47147 11.1133 8.59836
193 2 0.0749577 11.1313 9.79807 14.6635
253 2 0.131675 11.6413 8.5209 15.9566
198 2 0.18159 2.90343 12.4622 14.1352
164 2 0.1637 1.61184 12.6628 9.45397
274 2 0.175367 9.6101 9.30719 8.06337
273 2 0.175164 1.84309 13.0497 15.7029
187 3 -0.79392 1.00545 13.0841 12.3221
ITEM: TIMESTEP
200
ITEM: NUMBER OF ATOMS
274
ITEM: BOX BOUNDS xy xz yz pp pp pp
-8.3154979999999981e+00 1.8013900000000000e+01 -8.3154979999999981e+00
0.0000000000000000e+00 1.3273200000000001e+01 1.1950000000000001e+00
0.0000000000000000e+00 1.6075500000000002e+01 4.3120000000000003e-01
ITEM: ATOMS id type q x y z
119 2 -0.0316629 7.30215 1.81555 4.91886
5 4 1.26117 0.496337 1.90532 0.408577
7 4 1.11825 1.25768 2.20821 5.23093
9 4 1.26828 -0.228945 4.45052 1.93426
10 4 1.57681 0.42893 4.38524 7.19538
242 1 -0.668515 3.29496 0.549614 2.878
21 4 0.804247 5.68103 1.7541 5.42758
26 4 1.31284 5.25376 4.64454 6.77808
41 1 -0.664199 1.43774 0.718438 6.39967
44 1 -0.669594 3.69127 3.71404 1.75485
55 3 -0.82412 1.05672 0.637154 1.34914
56 3 -0.817219 -0.201949 2.073 4.57608
58 3 -0.852844 -1.35525 3.63896 2.78724
59 3 -0.803204 0.816708 3.55525 1.11366
243 2 0.160839 3.36476 1.69455 2.52684
61 3 -0.79363 1.54756 3.33343 6.24771
62 3 -0.823775 -0.399166 5.35882 6.25338
74 3 -0.801682 5.52973 0.603074 6.98009
78 3 -0.863136 0.615699 5.57023 2.67047
81 3 -0.815892 5.42578 3.27387 5.8443
84 3 -0.800879 2.82119 6.117 4.12006
85 3 -0.789882 4.55853 5.94779 6.16724
99 3 -0.846712 7.98529 1.30823 7.85986
111 2 -0.00992795 2.46648 1.95572 3.99455
112 2 -0.0140368 -1.20764 5.30972 0.811457
244 2 0.113703 2.93342 0.338378 3.99031
118 2 -0.0306714 4.49146 1.2665 4.27957
133 2 0.231192 1.22358 0.923163 7.48228
134 2 0.137718 2.57244 0.529221 6.29851
223 2 -0.0934781 6.3086 1.05394 3.61249
141 2 0.158695 4.24918 2.69 1.60487
142 2 0.280342 2.52934 3.68513 1.4766
143 2 0.204172 3.89411 4.22378 2.75859
220 4 1.02911 6.87698 0.453999 1.92626
222 3 -0.798596 6.5213 1.41442 0.687202
113 2 0.0053983 -1.76724 6.28622 4.2063
24 4 1.27546 4.7533 4.79739 0.628027
60 3 -0.820277 -0.657912 3.59014 8.03078
248 2 0.182105 3.31667 3.37553 14.895
8 4 1.28832 1.63333 2.22751 10.5433
13 4 1.25858 0.167971 4.38172 12.338
14 4 1.52286 -1.50518 6.51787 10.7163
20 4 1.29955 4.58741 2.93209 9.21838
23 4 1.26871 6.97933 2.63257 11.0784
27 4 1.35132 1.31656 6.55088 9.45612
77 3 -0.766929 6.77393 4.02051 15.6559
42 1 -0.654752 1.98403 0.719367 11.684
57 3 -0.794778 0.30246 1.72491 9.57818
63 3 -0.840703 -0.600886 3.67305 13.6106
64 3 -0.827023 1.01368 3.34618 11.5634
65 3 -0.819833 -2.51662 6.14389 9.57496
66 3 -0.821629 -0.966519 5.0295 11.3771
73 3 -0.785139 3.15988 2.59973 9.81304
75 3 -0.857187 5.62225 2.90233 10.3895
76 3 -0.849468 6.9675 1.1699 11.7749
80 3 -0.788774 4.71038 4.25764 8.3421
82 3 -0.789784 1.10748 5.40925 8.36263
86 3 -0.764459 2.51603 6.15743 10.7873
114 2 -0.0091093 1.17416 5.6312 12.9058
137 2 0.163601 3.10377 0.480957 11.5569
124 2 -0.0414594 4.5559 5.4916 12.439
136 2 0.16124 1.71442 0.930043 12.776
179 4 1.30429 7.41217 2.58521 15.3295
183 1 -0.677482 6.04979 1.5091 14.5958
117 2 0.100836 5.06647 1.66252 8.07773
195 2 0.26364 6.39107 1.30103 13.4962
196 2 0.175591 5.13601 2.20471 14.6896
197 2 0.222429 6.04405 0.629893 15.2807
227 3 -0.82821 4.93712 6.05794 15.8721
71 3 -0.81512 -2.34441 6.76726 14.3583
245 1 -0.670523 2.67168 2.4301 14.8591
246 2 0.176794 1.87547 2.50332 14.0572
247 2 0.160232 3.27391 1.4432 14.839
262 3 -0.784053 0.144441 2.36096 15.9907
29 4 0.926478 3.85856 6.66875 11.3652
1 4 1.34436 -6.51614 12.3542 2.08699
3 3 -0.800307 -5.67564 11.3197 0.992046
25 4 1.46571 1.47143 6.7034 3.39413
16 4 1.54935 -2.83602 8.50316 7.09858
17 4 1.25856 -4.2378 10.0943 4.58672
271 2 0.17565 1.06266 10.7774 2.19637
30 4 1.04639 2.67759 8.90271 1.37327
31 4 1.21792 -1.9384 10.1959 2.75755
33 4 1.15159 0.00346073 11.1689 5.19435
48 1 -0.648826 -1.10978 8.82253 1.74229
49 1 -0.657885 0.705399 9.79721 6.39235
67 3 -0.785201 -3.90714 7.26152 7.51817
68 3 -0.82529 -1.56539 7.82065 6.40726
265 2 0.172336 -4.12293 12.8008 2.59199
70 3 -0.781528 -3.63518 9.35434 5.86153
79 3 -0.824473 0.54616 7.3947 4.85249
87 3 -0.807041 1.88942 7.94715 2.46097
88 3 -0.803828 2.97657 8.13014 0.0216628
89 3 -0.768646 -1.89051 11.7983 1.85804
90 3 -0.808063 -3.38542 9.68337 3.29018
93 3 -0.792661 -0.704475 10.5335 3.91383
94 3 -0.860138 -0.772301 12.1009 6.20323
115 2 -0.0397123 -4.2067 11.7655 4.84108
147 2 0.183307 2.23906 7.77068 7.50069
151 2 0.198315 -0.00262129 9.31693 1.45084
152 2 0.171002 -1.90767 8.69189 0.901246
153 2 0.184601 -1.00808 7.92909 2.43823
135 2 0.252927 -7.48336 12.7246 5.96288
155 2 0.29251 0.682414 8.79503 5.87946
156 2 0.215614 -0.110525 9.90038 7.22046
251 1 -0.673996 -5.3623 8.69598 0.470799
268 2 0.197551 -4.35837 8.26637 0.4545
28 4 1.22377 4.03428 6.84468 4.91622
19 4 1.40493 -1.34456 12.9009 7.43864
12 4 1.30754 -0.745398 6.73113 5.49658
69 3 -0.811499 -5.84062 9.87721 4.36235
154 2 0.142865 1.7388 10.159 6.67044
272 2 0.180738 0.7849 10.561 0.348482
47 1 -0.670136 1.57819 10.4689 1.19414
161 2 0.187091 -0.886026 10.0046 0.0988415
15 4 1.10203 -4.06895 10.8483 15.8881
18 4 1.22012 -2.20557 7.98198 13.2979
22 4 1.23518 -0.413476 12.7363 11.8055
32 4 0.975295 -2.49779 10.7253 9.29296
35 4 1.212 -1.18585 10.728 14.1031
228 2 -0.0178702 3.18332 7.07441 14.156
46 1 -0.6571 2.11923 8.07368 8.61047
157 2 0.165203 1.99308 9.83545 10.7898
51 1 -0.644092 0.295446 11.1072 15.1886
162 2 0.201384 0.0659228 12.2417 15.382
72 3 -0.866715 -2.23092 7.49192 11.7596
83 3 -0.800246 -0.0494039 7.16731 9.99458
91 3 -0.85242 -2.63742 9.57753 8.22958
92 3 -0.820643 -1.43624 11.8485 9.01342
95 3 -0.839506 3.73138 8.08379 12.0605
96 3 -0.791792 -1.1113 9.08879 13.6843
97 3 -0.828811 -1.12298 11.6854 12.7743
98 3 -0.758197 -2.63255 11.0011 15.2533
116 2 -0.0342543 -3.72257 8.7704 13.5513
120 2 0.070541 -0.266721 12.0164 10.2569
126 2 -0.0121758 -2.35788 10.1432 10.7934
127 2 -0.0406555 -3.95316 11.3939 9.62286
128 2 0.0156009 2.13535 10.3125 13.1052
226 4 0.971291 4.48607 7.34383 15.1476
148 2 0.15045 3.12453 8.3368 9.10094
139 2 0.15583 -4.88712 11.65 13.309
160 2 0.14822 1.2421 10.9641 14.563
138 2 0.156937 -6.98138 12.722 11.2391
149 2 0.191093 1.32921 8.86638 8.7294
140 2 0.155551 -5.55683 12.2005 14.8294
43 1 -0.672841 -5.69624 11.4139 14.0602
235 2 0.159775 12.0461 1.75781 2.57151
37 4 1.30009 12.8374 1.99958 5.55345
169 2 0.218866 10.7305 6.42275 6.94198
39 4 1.3593 11.1588 4.01569 7.27722
45 1 -0.657281 7.1093 5.12189 6.76162
54 1 -0.663714 10.3094 5.52909 6.41415
101 3 -0.767767 14.0026 2.88282 4.91181
102 3 -0.846817 13.1697 0.745491 6.42426
103 3 -0.790819 5.80545 5.66766 1.68346
4 4 1.52858 15.2653 2.41326 3.75703
106 3 -0.816327 11.8409 3.01613 6.22798
255 2 0.155543 9.69352 0.378951 4.75663
129 2 0.00200141 11.883 1.41285 4.25424
130 2 0.0474521 7.66132 5.38136 3.70589
267 2 0.171501 11.2731 6.18155 0.196839
233 2 0.155137 11.0994 0.197454 3.25495
146 2 0.183995 7.60835 4.08076 6.95539
105 3 -0.813099 9.97799 3.21532 7.96506
145 2 0.163908 7.39158 5.60102 5.77245
170 2 0.182156 9.15573 5.37847 6.55415
171 2 0.179473 10.6523 5.44617 5.33982
221 1 -0.652785 8.77092 0.450584 1.97799
224 2 0.169149 9.03898 1.31694 1.28672
225 2 0.119877 8.80602 0.724345 3.15297
231 1 -0.678934 11.8689 0.672231 2.4068
232 3 -0.819552 14.6825 1.04825 3.07389
266 2 0.0882503 12.4426 4.32078 0.55293
144 2 0.156838 7.23485 5.83683 7.65995
234 2 0.175006 11.5346 0.463964 1.37482
11 4 1.48479 12.8097 6.29316 8.89268
36 4 1.31763 9.03055 2.1292 8.76602
52 1 -0.676283 10.3329 0.864826 9.3621
188 3 -0.791945 8.63618 2.32171 14.228
100 3 -0.807867 8.26538 2.8224 10.1135
107 3 -0.783208 12.2355 4.71801 8.38412
110 2 0.034939 14.8653 3.09815 10.2165
203 2 0.132172 8.72597 5.9285 9.30626
202 2 0.200364 14.0885 3.71618 11.483
163 2 0.176203 11.2376 1.2097 8.68192
6 4 1.32688 15.744 2.40267 8.97662
165 2 0.21767 10.5019 1.11489 10.4536
172 4 0.961266 15.8479 2.54175 14.6364
173 1 -0.641501 14.5979 1.17503 14.0026
174 2 0.0275564 14.0472 2.54484 15.1213
175 2 0.0939272 15.7869 0.669426 13.5825
176 2 0.142303 14.2075 1.86207 13.0867
263 3 -0.856736 14.8184 1.29118 8.4471
178 4 1.04753 13.5688 5.40205 14.5941
180 4 1.25108 9.9308 1.50114 13.4813