ITEM: TIMESTEP
0
ITEM: NUMBER OF ATOMS
274
ITEM: BOX BOUNDS xy xz yz pp pp pp
-8.3797999999999995e+00 1.8013900000000000e+01 -8.3797999999999995e+00
0.0000000000000000e+00 1.3273200000000001e+01 1.1950000000000001e+00
0.0000000000000000e+00 1.6075500000000002e+01 4.3120000000000003e-01
ITEM: ATOMS id type q x y z
119 2 -0.0213965 7.35725 1.57263 5.14972
5 4 1.27832 0.517768 1.92119 0.297227
7 4 1.16878 1.26329 2.15697 5.38329
9 4 1.30547 -0.18009 4.3815 1.97218
10 4 1.59218 0.282691 4.41153 7.33326
242 1 -0.672744 3.19903 0.44963 3.23371
21 4 0.789122 5.71806 1.87379 5.48021
26 4 1.26139 5.39153 4.91552 6.93932
41 1 -0.707435 2.06168 0.678004 6.28983
44 1 -0.682224 3.82269 3.71854 1.53513
55 3 -0.779624 1.14953 0.679784 1.23629
56 3 -0.828989 -0.0339598 1.91639 4.55729
58 3 -0.808618 -1.23033 3.58403 2.84419
59 3 -0.818637 0.707063 3.44561 1.05431
243 2 0.178778 3.08328 1.41604 2.68804
61 3 -0.782296 1.26435 3.3557 6.36949
62 3 -0.818742 -0.590712 5.30312 6.22391
74 3 -0.787381 5.48322 0.82428 7.03588
78 3 -0.851948 0.659864 5.44597 2.75082
81 3 -0.769897 5.6183 3.44465 5.86162
84 3 -0.772574 2.84668 5.82943 4.14268
85 3 -0.786392 4.71571 6.20213 6.17717
99 3 -0.838308 8.20051 1.2472 7.81447
111 2 0.00425382 2.66129 2.04908 4.32282
112 2 -0.0172739 -1.09605 5.28284 0.979583
244 2 0.152463 2.81553 0.415307 4.35013
118 2 -0.0134506 4.35886 1.42411 4.46352
133 2 0.21846 1.84878 0.857449 7.3679
134 2 0.167259 3.15396 0.515718 6.13229
223 2 -0.0950848 6.23908 1.11295 3.73173
141 2 0.17755 4.08679 2.64891 1.27877
142 2 0.246722 2.74842 3.95664 1.30844
143 2 0.204065 4.17818 4.07922 2.57078
220 4 1.01013 6.82519 0.295365 2.06189
222 3 -0.778077 6.12851 1.12279 0.908121
113 2 -0.000156869 -1.95885 6.3464 4.37579
24 4 1.27033 4.99984 4.67363 0.418657
248 2 0.163266 3.39208 3.38942 14.8333
8 4 1.3001 1.72025 2.39377 10.4527
13 4 1.26628 0.175405 4.40577 12.3541
14 4 1.52655 -1.44023 6.46994 10.7726
20 4 1.27299 4.63071 3.15762 9.25904
23 4 1.19711 7.00698 2.56723 11.1231
27 4 1.36781 1.39017 6.55584 9.36429
77 3 -0.756915 7.0364 4.01375 15.6102
42 1 -0.653744 2.04117 1.02858 11.7078
57 3 -0.799903 0.396411 1.72876 9.5003
63 3 -0.825855 -0.444467 3.54889 13.5537
64 3 -0.833877 1.16799 3.59998 11.5101
65 3 -0.825014 -2.57308 6.16823 9.60788
66 3 -0.833928 -1.09585 4.98747 11.5218
73 3 -0.80165 3.16134 2.75259 9.84172
75 3 -0.824147 5.70222 3.23786 10.4485
76 3 -0.840192 6.64996 0.964644 11.6035
80 3 -0.783986 4.65847 4.45414 8.35951
82 3 -0.826426 1.20694 5.40608 8.24512
86 3 -0.805639 2.57518 6.46056 10.4213
114 2 -0.0263517 1.00432 5.6208 13.0853
137 2 0.175006 3.16348 0.933939 11.927
124 2 -0.0513958 4.01029 5.74358 12.5214
136 2 0.154518 1.46135 1.25223 12.6629
179 4 1.24467 7.30544 2.29291 15.4065
183 1 -0.69261 5.859 1.61926 14.3925
60 3 -0.819413 -0.749779 3.48444 8.13961
195 2 0.243854 6.14074 1.31994 13.3091
196 2 0.172383 5.07447 2.44484 14.417
197 2 0.212255 5.59151 0.728958 15.0439
227 3 -0.834584 5.26994 6.09907 15.6783
228 2 -0.0502737 3.02235 6.66757 14.323
245 1 -0.670961 2.75083 2.4239 14.7472
246 2 0.178675 2.02133 2.42639 13.8432
247 2 0.177854 3.31977 1.4645 14.8736
117 2 0.0985921 5.07464 1.87228 8.18961
71 3 -0.799936 -2.71671 6.7254 14.2958
262 3 -0.791956 0.112714 2.22611 15.8515
1 4 1.27586 -6.47449 12.3304 1.99179
3 3 -0.784013 -5.77946 11.4739 0.757769
265 2 0.160022 -4.29719 12.4766 2.7214
16 4 1.53909 -2.87447 8.49799 7.05394
17 4 1.22777 -4.12539 10.2878 4.78168
271 2 0.170722 0.772786 10.4575 1.91462
30 4 1.08055 2.74238 8.63807 1.45904
31 4 1.26306 -1.88268 10.1589 2.85496
33 4 1.13192 -0.0297726 11.0124 5.32382
48 1 -0.653129 -1.06712 8.72359 1.74885
49 1 -0.650416 0.755239 9.65653 6.53402
67 3 -0.814802 -3.86551 7.14295 7.46196
68 3 -0.828787 -1.44977 7.89606 6.42951
252 2 0.205574 -4.97229 8.53534 1.53637
70 3 -0.849191 -3.54704 9.38938 5.93286
79 3 -0.823659 0.486542 7.10129 4.88372
87 3 -0.834134 2.03064 7.80925 2.61261
88 3 -0.814197 2.87532 7.89567 0.112382
89 3 -0.791198 -1.8994 11.5325 2.00984
90 3 -0.77282 -3.53619 9.89476 3.26687
93 3 -0.801904 -0.852535 10.2117 4.07848
94 3 -0.856038 -0.835255 12.0825 6.17436
115 2 -0.014888 -3.54273 11.8269 5.21982
147 2 0.196362 1.90128 7.77212 7.22983
151 2 0.198513 -0.0103384 9.23507 1.5042
152 2 0.174314 -1.77983 8.60778 0.860951
153 2 0.178214 -1.01327 7.80477 2.43922
135 2 0.223559 -6.94671 12.7066 5.88755
155 2 0.263903 0.733883 8.57966 6.0248
156 2 0.231636 0.0428872 9.68328 7.38265
251 1 -0.649486 -5.22971 8.79009 0.457449
161 2 0.200636 -1.05914 9.96647 0.158798
28 4 1.20165 4.13647 6.77548 4.81539
19 4 1.33835 -1.2758 12.9917 7.39493
12 4 1.34589 -0.852764 6.67659 5.56453
69 3 -0.831189 -5.76212 10.4775 4.57671
154 2 0.143672 1.79835 9.96876 6.83111
272 2 0.189259 1.3778 10.3007 0.129026
47 1 -0.673729 1.6289 10.2301 1.17217
25 4 1.47936 1.53499 6.54592 3.51881
15 4 1.06835 -4.16667 10.8237 15.6868
18 4 1.25277 -2.30725 8.0658 13.3793
22 4 1.23511 -0.612302 12.6318 11.7541
32 4 0.997588 -2.60517 10.8494 9.12403
35 4 1.21025 -1.27696 10.7144 14.0675
268 2 0.158796 -3.24303 8.77791 15.7586
46 1 -0.639328 2.09706 8.03832 8.33009
157 2 0.172063 1.96425 10.1359 10.5523
51 1 -0.643422 0.0263731 11.187 15.3709
162 2 0.230733 -0.35708 12.2291 15.6804
72 3 -0.814551 -2.01607 7.536 11.9432
83 3 -0.806187 -0.117612 7.07223 10.1409
91 3 -0.822042 -2.68929 9.52852 8.27791
92 3 -0.811602 -1.40528 11.7468 8.91852
95 3 -0.851163 3.89084 8.21838 11.7191
96 3 -0.778694 -1.16724 8.92914 13.9292
97 3 -0.845407 -1.05018 11.3961 12.6386
98 3 -0.782578 -2.84163 11.1167 14.8696
116 2 -0.0429617 -3.69185 8.96466 13.3912
120 2 0.094071 -0.376765 11.956 10.2322
126 2 -0.000609562 -2.69138 10.4133 10.799
127 2 -0.0249925 -3.99704 11.7997 8.90056
128 2 0.0353671 2.0173 10.0913 12.8235
187 3 -0.806619 0.851974 13.1398 12.1862
148 2 0.180343 3.19093 8.03378 8.60152
139 2 0.161301 -4.99365 11.4688 13.3151
160 2 0.162358 0.96489 11.2997 14.7333
138 2 0.148827 -6.7475 12.912 11.1754
149 2 0.17082 1.49388 8.9568 8.73374
29 4 0.959689 3.86863 6.73843 11.2517
43 1 -0.662781 -5.89217 11.2008 13.8939
140 2 0.167543 -6.00267 12.0254 14.6241
226 4 0.973025 4.41911 7.23185 15.1294
235 2 0.16938 11.5233 1.59988 2.52613
37 4 1.26039 12.8702 2.12204 5.53814
38 4 1.01708 6.55671 6.45671 2.79676
39 4 1.34318 11.2041 4.16644 7.27492
45 1 -0.679248 7.12862 5.60647 7.45154
54 1 -0.672334 10.228 5.60698 6.46512
101 3 -0.764362 14.2164 2.85971 5.08368
102 3 -0.819881 13.2711 0.776867 6.41727
103 3 -0.757197 6.12088 5.53847 1.61731
4 4 1.53316 15.3656 2.28787 3.92756
106 3 -0.804939 11.8501 3.22528 6.07539
255 2 0.157884 9.75306 0.216132 4.81154
129 2 0.00139703 12.0307 1.37778 4.25654
130 2 0.0495891 7.8211 5.56081 3.75098
267 2 0.149867 11.3679 6.17248 0.490176
250 2 0.169695 10.3114 4.50243 0.0567851
146 2 0.183934 7.76663 4.6865 7.40623
105 3 -0.795746 10.005 3.27923 7.94352
169 2 0.209124 10.8068 6.52724 6.66405
170 2 0.178681 9.09697 5.65111 6.76688
171 2 0.167611 10.3521 5.27132 5.37353
221 1 -0.637202 8.63696 0.299339 1.65922
224 2 0.189661 8.66874 0.990097 0.734502
225 2 0.105427 8.94621 0.881341 2.73586
231 1 -0.684758 11.8386 0.569641 2.49074
232 3 -0.814265 14.6857 1.02234 3.14075
266 2 0.0538591 12.7567 3.99056 0.133636
249 1 -0.61396 11.4009 4.9477 0.234289
234 2 0.172717 11.6975 0.16181 1.40814
145 2 0.164575 7.35618 6.40634 6.71302
11 4 1.46315 12.8662 6.30835 8.84294
36 4 1.32469 9.14094 2.16751 8.78292
52 1 -0.671209 10.5496 1.01656 9.42648
188 3 -0.807096 8.62571 1.82114 14.641
100 3 -0.817384 8.24185 2.65049 10.0729
107 3 -0.804514 12.2507 4.64873 8.41621
110 2 0.0277279 14.6226 2.9511 10.3973
203 2 0.170259 8.75865 6.27562 9.26357
123 2 -0.0178854 5.25009 6.33882 10.5057
163 2 0.179421 11.4953 1.51439 9.08377
6 4 1.30434 15.7441 2.30051 9.12163
165 2 0.220948 10.4304 1.05205 10.553
172 4 0.971702 15.9235 2.3843 14.6003
173 1 -0.651964 14.3482 1.15638 14.0359
174 2 0.0352738 14.145 2.59973 15.0675
175 2 0.084283 15.5715 0.708285 13.733
176 2 0.152051 13.7863 1.47752 13.1108
263 3 -0.861773 14.7711 1.28273 8.452
178 4 1.03289 13.2165 5.46918 14.714
180 4 1.19244 9.88561 1.4226 13.5811
181 4 1.27142 11.5457 4.04443 12.2712
184 1 -0.676971 11.1572 0.500413 14.5463
185 1 -0.707518 12.9463 3.49549 11.0768
121 2 0.00178367 7.35024 3.60252 12.4374
189 3 -0.768534 10.6682 2.75528 12.7826
190 3 -0.779838 12.3335 4.69787 13.4529
192 3 -0.752905 10.5557 5.42314 11.5052
144 2 0.179233 7.14 6.03137 8.49507
199 2 0.177465 12.042 1.20796 14.5481
200 2 0.25684 12.6021 3.83076 10.0663
201 2 0.140335 12.8416 2.37401 11.3356
202 2 0.241865 13.8741 4.04213 11.4333
177 2 0.200146 13.7557 0.409944 14.6697
2 3 -0.76778 9.14753 11.4838 2.96151
270 2 0.174929 0.786735 12.0607 1.4489
207 4 1.29126 5.76883 13.0271 7.60607
53 1 -0.636485 8.40273 7.15947 3.3238
104 3 -0.814529 5.33746 6.95098 3.74333
122 2 -0.0309942 3.60116 8.34243 5.10856
125 2 -0.025603 4.30083 9.03375 1.94901
150 2 0.128535 2.54807 10.9335 1.41508
166 2 0.0707377 7.78991 7.9324 2.07739
168 2 0.150448 8.29476 7.76433 4.2726
206 4 1.19777 9.56296 10.45 4.1905
215 2 0.170043 7.12542 8.15783 7.03561
208 4 1.10753 7.6145 10.5481 6.8837
209 1 -0.660333 6.47309 9.04439 6.78592
253 2 0.109445 10.4356 8.38896 0.251767
211 3 -0.767712 8.61909 10.5428 5.6143
212 3 -0.806256 6.81684 11.9103 7.10629
213 2 0.0119732 9.44956 8.86104 3.42119
254 1 -0.67751 1.4946 11.9489 4.55619
216 2 0.166238 6.04834 9.01065 5.70453
217 2 0.141748 5.6403 9.27855 7.56335
239 2 0.109774 6.89717 9.1735 1.13592
230 4 1.13334 5.309 12.7519 2.6439
237 1 -0.672766 7.78039 9.95315 0.564397
238 3 -0.770979 5.60141 11.9364 1.1729
240 2 0.222536 8.3725 10.5395 1.34368
257 2 0.134503 2.33007 11.3681 5.10248
256 2 0.158028 1.50891 11.7838 3.4177
258 1 -0.663203 5.38712 11.2763 3.90128
259 2 0.149564 5.49584 10.2743 3.31965
260 2 0.141739 4.35398 11.5216 4.33947
261 2 0.227688 6.2171 11.5199 4.61867
167 2 0.157554 9.53589 6.9352 3.15679
233 2 0.159992 2.81429 12.8385 3.24605
34 4 0.999686 3.72817 9.67376 12.2549
40 4 0.91254 6.32826 10.6918 13.3274
108 3 -0.822736 4.80969 10.3758 13.175
109 3 -0.824898 6.92616 11.0467 14.7149
131 2 -0.049635 6.62881 11.9482 12.3379
132 2 -0.0644007 7.20533 9.52692 12.598
158 2 0.118929 3.60289 11.2228 10.546
159 2 0.220194 2.02163 11.7354 11.6112
186 1 -0.674189 8.83167 7.23094 9.91425
191 3 -0.787026 11.8849 7.32821 9.84235
214 2 -0.0438838 4.69394 12.1609 8.59729
194 2 -0.00470815 9.68079 7.93932 11.5145
204 2 0.167358 8.80295 8.25915 9.3678
205 2 0.140479 8.08635 7.21567 10.7563
218 2 0.133137 8.4136 9.7969 9.47037
229 2 -0.0187282 5.1524 7.86408 13.8474
269 2 0.147157 10.1193 11.0721 13.1611
236 4 1.036 7.54208 11.5303 16.0591
210 1 -0.663516 8.84362 10.0787 8.46996
264 2 0.0411797 9.06648 12.1965 15.8547
50 1 -0.674007 2.61559 10.8363 11.1517
219 2 0.178894 9.26064 11.1035 8.5139
193 2 0.0562259 11.2218 9.92382 14.5667
182 4 1.01767 10.5845 6.7649 10.6504
198 2 0.170532 2.95425 12.3519 13.9238
164 2 0.168989 2.02293 12.8015 9.00875
274 2 0.18738 9.55755 9.33497 8.13062
273 2 0.182597 2.32465 13.2448 15.5533
241 2 0.164007 9.56618 9.98136 15.8107
ITEM: TIMESTEP
100
ITEM: NUMBER OF ATOMS
274
ITEM: BOX BOUNDS xy xz yz pp pp pp
-8.3797999999999995e+00 1.8013900000000000e+01 -8.3797999999999995e+00
0.0000000000000000e+00 1.3299746400000000e+01 1.1950000000000001e+00
0.0000000000000000e+00 1.6075500000000002e+01 4.3206239999999951e-01
ITEM: ATOMS id type q x y z
119 2 -0.0411285 7.50481 1.98274 4.95673
5 4 1.22759 0.395538 1.88219 0.348329
7 4 1.13681 1.26965 2.14665 5.44631
9 4 1.25331 -0.219303 4.43274 1.91463
10 4 1.60805 0.328346 4.50315 7.29401
242 1 -0.693835 3.30173 0.559456 3.12937
21 4 0.78711 5.86803 1.90205 5.50268
26 4 1.30286 5.32573 4.75307 6.89735
41 1 -0.689519 1.73797 0.546413 6.22956
44 1 -0.683396 3.85585 3.47066 1.59133
55 3 -0.810555 1.10823 0.737161 1.20822
56 3 -0.786878 -0.106288 1.97633 4.67054
58 3 -0.841213 -1.30055 3.65394 2.8431
59 3 -0.791042 0.868592 3.47041 1.22914
243 2 0.176112 3.40978 1.61015 2.67206
61 3 -0.768084 1.35961 3.50198 6.24641
62 3 -0.826099 -0.524516 5.43565 6.34029
74 3 -0.804614 5.47203 0.770262 7.06177
78 3 -0.826593 0.531535 5.50653 2.76582
81 3 -0.779443 5.33558 3.41299 5.74813
84 3 -0.762616 2.94327 5.91995 4.18119
85 3 -0.777037 4.59218 6.01371 6.24659
99 3 -0.826086 8.08018 1.19095 7.84384
111 2 0.0213675 2.49068 2.01816 4.22168
112 2 -0.0384873 -1.05536 5.22684 0.686127
244 2 0.138583 3.01112 0.446822 4.24406
118 2 -0.0116731 4.70188 1.1524 4.38169
133 2 0.197487 1.19861 0.811879 7.29471
134 2 0.161251 2.87084 0.382827 6.30034
223 2 -0.0947698 6.4041 1.10357 3.71464
141 2 0.183069 4.38579 2.46212 1.36119
142 2 0.274168 2.68368 3.47696 1.38591
143 2 0.192306 4.13771 3.90753 2.61356
220 4 0.972293 6.86504 0.352847 2.03473
222 3 -0.799747 6.26559 1.14861 0.744349
113 2 -0.00631664 -2.12742 6.31162 4.32434
24 4 1.23788 4.86763 4.63585 0.509453
248 2 0.174203 3.35043 3.26945 15.0033
8 4 1.3026 1.6302 2.28904 10.5496
13 4 1.2867 0.0728789 4.42311 12.3317
14 4 1.56546 -1.53413 6.5164 10.7613
20 4 1.2925 4.59235 3.06984 9.23112
23 4 1.25558 7.03965 2.63698 11.0281
27 4 1.36639 1.40082 6.51067 9.45878
77 3 -0.759466 6.81777 4.04996 15.6449
42 1 -0.653841 2.00558 0.73856 11.5748
57 3 -0.805832 0.38805 1.73302 9.63983
63 3 -0.86845 -0.463368 3.47067 13.4314
64 3 -0.819246 1.05139 3.53909 11.4989
65 3 -0.856845 -2.59465 6.26791 9.65045
66 3 -0.85086 -1.1871 5.0875 11.5162
73 3 -0.785988 3.14882 2.59842 9.73507
75 3 -0.85304 5.69288 3.12797 10.3723
76 3 -0.851175 6.94694 1.11637 11.5875
80 3 -0.807697 4.73605 4.36642 8.35823
82 3 -0.819853 1.22858 5.35715 8.4017
86 3 -0.793963 2.43274 6.2368 10.7288
114 2 -0.0162935 1.04329 5.60516 13.0451
137 2 0.162894 3.18173 0.723116 11.649
124 2 -0.0454419 4.27642 5.67331 12.5712
136 2 0.158931 1.51358 0.803197 12.5849
179 4 1.21925 7.33062 2.33954 15.3809
183 1 -0.685106 5.92074 1.51601 14.5227
60 3 -0.841208 -0.687437 3.53831 8.05083
195 2 0.240367 6.23556 1.2277 13.4742
196 2 0.174903 5.09298 2.31986 14.5716
197 2 0.204752 5.78236 0.631748 15.2514
227 3 -0.790715 5.01968 6.15879 15.784
29 4 0.930433 3.81648 6.70449 11.296
245 1 -0.662169 2.69329 2.35249 14.8712
246 2 0.174991 1.93268 2.40933 13.9846
247 2 0.179738 3.2375 1.33721 14.9955
117 2 0.112288 5.09315 1.74838 8.18295
71 3 -0.800731 -2.47544 6.71139 14.3673
123 2 -0.014642 5.09068 6.45369 10.1877
1 4 1.31867 -6.42424 12.4995 2.01071
3 3 -0.783267 -5.75802 11.4453 0.91423
25 4 1.48329 1.44371 6.59173 3.56097
16 4 1.52853 -2.83048 8.49278 7.02937
17 4 1.2824 -4.09266 10.2275 4.74635
271 2 0.150208 1.24865 10.3444 2.36469
30 4 1.0261 2.66876 8.77084 1.45814
31 4 1.27276 -1.87111 10.1805 2.72223
33 4 1.116 -0.0129852 11.1234 5.25425
48 1 -0.674135 -1.14038 8.71648 1.67647
49 1 -0.674881 0.563482 9.73277 6.43083
67 3 -0.799555 -3.84601 7.27684 7.50469
68 3 -0.818445 -1.40373 7.7811 6.49119
265 2 0.151015 -4.25511 12.6298 2.84262
70 3 -0.830227 -3.62643 9.26233 5.83316
79 3 -0.848321 0.540463 7.21358 4.6971
87 3 -0.797277 1.80526 7.81767 2.49333
88 3 -0.802086 2.89048 8.14834 0.0269315
89 3 -0.784747 -1.86132 11.5243 1.89774
90 3 -0.767661 -3.41127 9.71377 3.32775
93 3 -0.797137 -0.877717 10.4691 3.99623
94 3 -0.85212 -0.901684 12.1747 6.0833
115 2 -0.0307558 -3.5318 11.7941 5.11762
147 2 0.194455 2.10654 7.7052 7.34362
151 2 0.202911 -0.0867904 9.14467 1.45284
152 2 0.178255 -1.85429 8.64687 0.813929
153 2 0.190444 -1.10089 7.76278 2.2416
135 2 0.236694 -7.178 12.49 5.68132
155 2 0.266161 0.591463 8.83179 5.73928
156 2 0.243472 -0.21903 9.56774 7.25434
251 1 -0.632429 -5.54166 8.71353 0.469953
268 2 0.179771 -4.48897 8.23957 0.419803
28 4 1.22439 4.16391 6.76246 4.87997
19 4 1.34394 -1.39697 12.9221 7.39677
12 4 1.30615 -0.880515 6.69464 5.46783
69 3 -0.800412 -5.62316 10.1775 4.62685
154 2 0.148613 1.55009 9.99694 6.87198
272 2 0.189037 0.684619 10.4758 0.453547
47 1 -0.647699 1.57596 10.3686 1.16926
15 4 1.04732 -4.1072 10.8438 15.7603
18 4 1.24211 -2.38034 8.00629 13.3468
22 4 1.25628 -0.465889 12.7036 11.7529
32 4 0.970527 -2.59148 10.7269 9.16711
35 4 1.28729 -1.28635 10.6474 14.0783
187 3 -0.793745 1.00316 13.0835 12.3211
46 1 -0.654598 2.08698 8.03689 8.45386
157 2 0.176961 1.9597 10.2687 10.7055
51 1 -0.650896 0.272462 11.0583 15.1859
162 2 0.210706 -0.0181553 12.0989 15.5038
72 3 -0.849457 -2.00263 7.5679 11.8959
83 3 -0.77059 -0.0788597 7.1276 10.1018
91 3 -0.84927 -2.56447 9.49787 8.27301
92 3 -0.800644 -1.38987 11.7643 8.99452
95 3 -0.835063 3.82197 8.20294 11.7852
96 3 -0.773297 -1.26074 9.01002 13.9105
97 3 -0.822827 -1.04407 11.5932 12.71
98 3 -0.806633 -2.71744 10.8821 14.8355
116 2 -0.044439 -3.8728 8.79495 13.1536
120 2 0.0922002 -0.313432 12.004 10.1955
126 2 -0.0147083 -2.72977 10.2469 10.7557
127 2 -0.0393914 -4.06674 11.487 8.99107
128 2 0.0334707 2.1058 10.1346 13.0338
226 4 0.970496 4.4392 7.42914 15.141
148 2 0.155176 3.13355 8.33694 8.84229
139 2 0.160158 -4.92033 11.341 13.4155
160 2 0.175394 1.1881 11.0269 14.5568
138 2 0.161969 -6.78696 12.6899 10.9458
149 2 0.19294 1.30717 8.79351 8.71041
140 2 0.156548 -5.98043 12.0197 14.9763
43 1 -0.634441 -5.79327 11.1823 14.0857
228 2 -0.0333651 3.06161 7.05705 14.193
161 2 0.187627 0.31353 10.2977 16.0585
235 2 0.160724 11.9746 1.80186 2.46515
37 4 1.28191 12.8431 2.04449 5.52147
169 2 0.228746 10.8581 6.53069 6.88167
39 4 1.3222 11.2278 4.09193 7.31521
45 1 -0.680513 7.20257 5.24177 7.12454
54 1 -0.658531 10.3831 5.60859 6.4916
101 3 -0.789318 14.1908 2.76156 5.04561
102 3 -0.832602 13.0434 0.831009 6.49254
103 3 -0.743024 6.03867 5.69864 1.52256
4 4 1.48323 15.2866 2.44282 3.852
106 3 -0.802021 11.8547 3.15848 6.15244
255 2 0.159521 9.82035 0.250939 4.77112
129 2 -0.000357875 11.9217 1.35554 4.205
130 2 0.0413717 7.71367 5.41504 3.71779
267 2 0.178846 11.6609 5.95966 0.681991
207 4 1.24312 14.0795 0.230334 7.66162
146 2 0.198304 7.67993 4.27768 7.34319
105 3 -0.792778 9.82794 3.21051 7.95052
145 2 0.15983 7.48775 5.64896 6.10507
170 2 0.182087 9.20974 5.5124 6.71793
171 2 0.17627 10.6509 5.33439 5.4245
221 1 -0.656761 8.68465 0.397261 1.77054
224 2 0.177471 8.70218 1.17749 0.900622
225 2 0.121703 8.92782 0.852246 2.84312
231 1 -0.647538 11.8298 0.662466 2.33869
232 3 -0.795309 14.4507 1.13459 2.99281
266 2 0.0655536 12.2465 3.96784 0.395378
249 1 -0.65285 11.4087 5.11533 0.0113715
234 2 0.165808 11.5647 0.3444 1.24995
233 2 0.157454 11.0806 0.160465 3.1467
144 2 0.16307 7.27854 6.02498 8.00094
11 4 1.50693 12.8174 6.41058 8.90834
36 4 1.35671 9.09764 2.10014 8.79355
52 1 -0.673526 10.4487 0.883901 9.43476
188 3 -0.788067 8.72134 2.11643 14.333
100 3 -0.836868 8.30173 2.69033 10.0128
107 3 -0.805367 12.2717 4.72329 8.34191
110 2 0.0316056 14.7997 3.03987 10.2604
203 2 0.161991 8.70875 6.26869 9.21837
202 2 0.221109 13.8791 3.97128 11.4537
163 2 0.172776 11.3142 0.976501 8.67191
6 4 1.32123 15.7955 2.37972 9.03266
165 2 0.20551 10.6697 1.30704 10.4622
172 4 1.03193 15.8929 2.48535 14.5642
173 1 -0.666635 14.6239 1.17962 14.0307
174 2 -0.00625063 14.1676 2.75011 15.0513
175 2 0.122856 15.4985 0.634252 13.2812
176 2 0.153621 13.7613 1.64881 13.4251
263 3 -0.862251 14.8447 1.27886 8.5043
178 4 1.05608 13.3883 5.41639 14.5958
180 4 1.2738 9.98999 1.56388 13.5086
181 4 1.3186 11.734 4.00822 12.2807
184 1 -0.64272 10.9635 0.507242 14.7526
185 1 -0.69878 12.9807 3.46726 10.8875
121 2 0.00925053 7.4479 3.59026 12.4427
189 3 -0.809479 10.9491 2.61516 12.7747
190 3 -0.841511 12.5682 4.70228 13.4077
192 3 -0.797141 10.6538 5.11943 11.6103
177 2 0.197633 14.2749 0.616126 14.9476
199 2 0.155955 11.7981 1.28268 14.9851
200 2 0.26868 12.7313 3.90659 9.84065
201 2 0.146438 13.0245 2.322 10.9063
182 4 1.03677 10.4878 6.43737 10.7305
250 2 0.167574 11.4811 5.12041 16.0216
262 3 -0.815289 16.823 2.08395 15.7824
122 2 -0.036671 3.59962 8.29913 5.35523
270 2 0.195344 0.801163 12.2558 1.48835
167 2 0.174107 9.32751 6.7885 3.22893
53 1 -0.650204 8.32828 7.06417 3.48696
104 3 -0.847347 5.40332 6.98969 3.9035
236 4 1.04039 6.35244 11.0679 0.0742422
125 2 -0.0372226 4.1717 9.17983 2.24347
150 2 0.142088 2.56855 10.9944 0.904156
166 2 0.0642801 7.73822 8.01183 2.37853
168 2 0.160368 8.27929 7.61614 4.45532
206 4 1.19184 9.59488 10.4034 4.13045
215 2 0.161591 6.96728 8.33634 7.39233
208 4 1.09509 7.71353 10.5896 6.85598
209 1 -0.656385 6.58936 9.08072 6.62915
2 3 -0.804229 9.51147 11.5374 3.0862
211 3 -0.785261 8.61557 10.6098 5.50596
212 3 -0.793707 6.6775 11.8075 7.27276
213 2 -0.00119218 8.96997 8.93203 3.48365
254 1 -0.6855 1.57036 12.0288 4.45803
216 2 0.177302 6.7576 8.77914 5.52886
217 2 0.164516 5.61362 9.56273 6.87323
239 2 0.0909737 6.85321 9.265 0.995229
230 4 1.14767 5.2778 12.6752 2.56639
237 1 -0.651661 7.94885 9.90176 0.58593
238 3 -0.814091 5.69563 11.8642 1.2342
240 2 0.197523 8.68584 10.0571 1.43312
257 2 0.134556 2.47656 11.5592 5.01044
256 2 0.163056 1.57474 11.8539 3.34452
258 1 -0.668454 5.41119 11.417 3.92183
259 2 0.162898 5.76396 10.3964 3.68571
260 2 0.123218 4.21994 11.469 4.16842
261 2 0.21071 6.14268 12.0296 4.59483
252 2 0.172608 10.9471 8.73238 1.67393
38 4 1.00926 6.47275 6.51068 2.87677
34 4 1.01312 3.75304 9.6977 12.4065
40 4 0.938829 6.33847 10.9029 13.3221
108 3 -0.845181 4.90938 10.3491 13.1566
109 3 -0.823137 6.91896 11.1756 14.7207
131 2 -0.0395205 6.4615 12.2052 12.3845
132 2 -0.0618761 7.39162 9.9891 12.4629
158 2 0.129705 3.57255 11.1773 10.6973
159 2 0.237221 2.13082 11.803 11.7594
186 1 -0.661199 8.82747 7.14217 9.96223
191 3 -0.842735 11.7179 7.03714 9.84849
214 2 -0.0256257 4.67905 12.4464 8.8873
194 2 -0.00473028 9.73085 7.76343 11.5486
204 2 0.159449 8.87126 8.25267 9.41933
205 2 0.123688 8.06933 7.16424 10.8301
218 2 0.145485 8.29981 9.83037 9.34133
229 2 -0.0140676 5.51886 8.06865 14.0218
269 2 0.138241 10.1014 11.2609 13.3256
241 2 0.164304 9.55277 9.82714 15.7709
210 1 -0.650224 8.91002 10.1359 8.48736
264 2 0.0672826 9.18203 12.1106 15.9749
50 1 -0.686887 2.64188 10.8511 11.327
219 2 0.172879 9.47191 11.1136 8.59853
193 2 0.0749563 11.1315 9.79801 14.6634
253 2 0.131666 11.6413 8.52093 15.9566
198 2 0.181569 2.90571 12.464 14.1351
164 2 0.163687 1.61141 12.6632 9.45508
274 2 0.175248 9.61115 9.30724 8.06387
273 2 0.17519 1.84196 13.0478 15.7019
ITEM: TIMESTEP
200
ITEM: NUMBER OF ATOMS
274
ITEM: BOX BOUNDS xy xz yz pp pp pp
-8.3797999999999995e+00 1.8013900000000000e+01 -8.3797999999999995e+00
0.0000000000000000e+00 1.3326292800000001e+01 1.1950000000000001e+00
0.0000000000000000e+00 1.6075500000000002e+01 4.3292480000000033e-01
ITEM: ATOMS id type q x y z
119 2 -0.0328755 7.29232 1.81608 4.90874
5 4 1.26647 0.502398 1.88622 0.417482
7 4 1.11932 1.25454 2.20641 5.2355
9 4 1.27083 -0.224 4.44655 1.93372
10 4 1.57186 0.42937 4.38218 7.19264
242 1 -0.673549 3.31317 0.539444 2.87705
21 4 0.799819 5.6918 1.73597 5.43344
26 4 1.31349 5.2561 4.63645 6.77845
41 1 -0.662783 1.44818 0.722809 6.40069
44 1 -0.668505 3.68841 3.7212 1.75215
55 3 -0.825957 1.06451 0.631422 1.33485
56 3 -0.823666 -0.200224 2.07753 4.57298
58 3 -0.851452 -1.35511 3.64066 2.78389
59 3 -0.804561 0.816537 3.53997 1.12578
243 2 0.160029 3.36906 1.68573 2.54154
61 3 -0.795024 1.55213 3.32858 6.24563
62 3 -0.822873 -0.397841 5.35998 6.25129
74 3 -0.802218 5.53099 0.585672 6.98731
78 3 -0.863502 0.61768 5.56772 2.66681
81 3 -0.814756 5.42737 3.26133 5.86408
84 3 -0.801324 2.81969 6.11994 4.11685
85 3 -0.78972 4.55747 5.93919 6.16252
99 3 -0.846449 7.99673 1.30048 7.85227
111 2 -0.0102112 2.485 1.93264 3.99817
112 2 -0.0133191 -1.19564 5.30108 0.801631
244 2 0.116184 2.91724 0.316863 3.97086
118 2 -0.0306419 4.49744 1.25871 4.296
133 2 0.231893 1.19471 0.956613 7.48225
134 2 0.139604 2.59656 0.5662 6.28864
223 2 -0.0907785 6.34498 1.01708 3.58285
141 2 0.157517 4.23862 2.68721 1.62489
142 2 0.280487 2.52719 3.68722 1.47429
143 2 0.204525 3.88464 4.23568 2.75646
220 4 1.0387 6.89761 0.420658 1.92188
222 3 -0.792731 6.55059 1.38839 0.701316
113 2 0.00533843 -1.76273 6.28696 4.20246
24 4 1.27375 4.75117 4.79672 0.627525
60 3 -0.819498 -0.658997 3.58818 8.02986
248 2 0.181568 3.30776 3.37842 14.916
8 4 1.2867 1.63485 2.22722 10.5434
13 4 1.25711 0.166228 4.37925 12.3396
14 4 1.52251 -1.50501 6.51686 10.7175
20 4 1.3032 4.59801 2.91941 9.21623
23 4 1.26939 6.98608 2.62489 11.0841
27 4 1.35115 1.31595 6.55098 9.45641
77 3 -0.764799 6.77318 4.01374 15.6577
42 1 -0.652308 1.98225 0.720701 11.6829
57 3 -0.796282 0.307296 1.72608 9.58097
63 3 -0.838461 -0.605779 3.66648 13.6118
64 3 -0.826434 1.01586 3.347 11.564
65 3 -0.819158 -2.5167 6.14381 9.57544
66 3 -0.821069 -0.966285 5.02777 11.3774
73 3 -0.782693 3.17307 2.59273 9.8042
75 3 -0.855252 5.62336 2.87002 10.3928
76 3 -0.840058 6.97194 1.17076 11.7735
80 3 -0.789177 4.72205 4.24843 8.34746
82 3 -0.788012 1.10798 5.41007 8.36453
86 3 -0.76412 2.51698 6.15712 10.7878
114 2 -0.00954742 1.17007 5.63068 12.9118
137 2 0.164424 3.11166 0.489795 11.5666
124 2 -0.0421795 4.55408 5.49928 12.4459
136 2 0.159847 1.70922 0.925614 12.7797
179 4 1.29541 7.41672 2.57563 15.325
183 1 -0.677397 6.05387 1.51208 14.5921
117 2 0.101724 5.06544 1.65248 8.08049
195 2 0.264711 6.39832 1.29903 13.4931
196 2 0.17568 5.13523 2.20503 14.6776
197 2 0.221027 6.04488 0.637295 15.2838
227 3 -0.829126 4.936 6.06602 15.8764
71 3 -0.815199 -2.34319 6.77018 14.3573
245 1 -0.670051 2.67653 2.42249 14.8668
246 2 0.176314 1.88119 2.49741 14.062
247 2 0.162021 3.29211 1.45072 14.8282
262 3 -0.782361 0.147573 2.34979 15.994
29 4 0.925297 3.85765 6.67181 11.3662
1 4 1.33812 -6.52897 12.3694 2.0859
3 3 -0.801331 -5.68452 11.3425 0.976786
25 4 1.46508 1.46996 6.70476 3.39265
16 4 1.55003 -2.83543 8.50374 7.0985
17 4 1.25844 -4.23901 10.0942 4.58374
271 2 0.177716 1.04907 10.6633 2.19767
30 4 1.04465 2.66957 8.9042 1.38049
31 4 1.21646 -1.9436 10.2 2.76246
33 4 1.13857 0.00485323 11.1798 5.18346
48 1 -0.652077 -1.12886 8.82472 1.74332
49 1 -0.66193 0.709099 9.78987 6.41194
67 3 -0.784954 -3.90653 7.26304 7.51845
68 3 -0.824321 -1.5656 7.82004 6.40646
265 2 0.175756 -4.14498 12.843 2.58988
70 3 -0.780296 -3.63456 9.35583 5.86088
79 3 -0.825473 0.547446 7.40026 4.85229
87 3 -0.810694 1.88461 7.95214 2.46583
88 3 -0.802714 2.96708 8.14213 0.0201242
89 3 -0.770754 -1.92353 11.8038 1.85622
90 3 -0.807196 -3.38631 9.67355 3.2889
93 3 -0.796043 -0.703364 10.5432 3.90896
94 3 -0.851057 -0.79573 12.1213 6.2042
115 2 -0.0386165 -4.20503 11.7674 4.83052
147 2 0.184183 2.23813 7.77083 7.50157
151 2 0.19679 -0.0346154 9.33221 1.46774
152 2 0.173902 -1.89756 8.66151 0.886237
153 2 0.185012 -1.03882 7.97927 2.49025
135 2 0.248969 -7.53258 12.7703 5.94877
155 2 0.292955 0.675792 8.81257 5.86095
156 2 0.218616 -0.0994074 9.88176 7.22445
251 1 -0.672291 -5.36346 8.70754 0.473636
268 2 0.198288 -4.36219 8.27077 0.455572
28 4 1.22357 4.03346 6.84292 4.91646
19 4 1.40593 -1.36991 12.9332 7.43383
12 4 1.30656 -0.742212 6.73234 5.49394
69 3 -0.811743 -5.83816 9.88104 4.35794
154 2 0.14019 1.74292 10.1383 6.69922
272 2 0.184748 0.767889 10.6244 0.355526
47 1 -0.672588 1.55872 10.4665 1.1754
161 2 0.186668 -0.900802 10.0056 0.0989985
15 4 1.10674 -4.07096 10.8614 15.8952
18 4 1.21971 -2.20445 7.98377 13.2973
22 4 1.22492 -0.420456 12.7372 11.808
32 4 0.974048 -2.49874 10.7261 9.29032
35 4 1.21373 -1.18761 10.7314 14.1007
228 2 -0.0179757 3.18593 7.08145 14.1558
46 1 -0.657104 2.11902 8.07333 8.61056
157 2 0.164397 1.97238 9.85714 10.815
51 1 -0.644066 0.288521 11.1134 15.1839
162 2 0.2021 0.0631122 12.2435 15.3819
72 3 -0.866893 -2.23008 7.49174 11.7607
83 3 -0.80019 -0.0500249 7.16662 9.99512
91 3 -0.851833 -2.63477 9.57781 8.22722
92 3 -0.814639 -1.4471 11.8659 9.01069
95 3 -0.838296 3.72871 8.09044 12.0552
96 3 -0.792329 -1.11012 9.09529 13.6797
97 3 -0.82992 -1.13695 11.6991 12.7794
98 3 -0.756282 -2.63501 10.9988 15.2556
116 2 -0.0336679 -3.72196 8.77103 13.5515
120 2 0.0690189 -0.279539 12.0042 10.2658
126 2 -0.0129905 -2.36439 10.1373 10.7888
127 2 -0.0390443 -3.95836 11.3779 9.63352
128 2 0.0157501 2.13906 10.3121 13.1268
226 4 0.971527 4.48245 7.3528 15.1549
148 2 0.150577 3.12333 8.33617 9.10081
139 2 0.155897 -4.88627 11.6489 13.3071
160 2 0.149297 1.24815 10.9737 14.5772
138 2 0.156858 -7.02471 12.7442 11.2501
149 2 0.191531 1.32885 8.86576 8.7301
140 2 0.158917 -5.56163 12.2061 14.812
43 1 -0.674082 -5.69319 11.4173 14.0612
235 2 0.1603 12.0183 1.74553 2.54909
37 4 1.29938 12.842 1.99057 5.55203
169 2 0.219446 10.7355 6.41618 6.93592
39 4 1.35796 11.1601 4.00949 7.27611
45 1 -0.65689 7.10923 5.11993 6.75884
54 1 -0.663708 10.3116 5.52222 6.41238
101 3 -0.763949 14.0032 2.88362 4.9182
102 3 -0.842149 13.1835 0.73202 6.41372
103 3 -0.789618 5.80606 5.66663 1.68449
4 4 1.52548 15.2771 2.41046 3.75669
106 3 -0.816233 11.8453 2.99836 6.23434
255 2 0.161672 9.8161 0.366011 4.8022
129 2 0.00255416 11.8967 1.4166 4.24415
130 2 0.0479621 7.66619 5.37759 3.70144
267 2 0.1715 11.2726 6.1827 0.193075
233 2 0.156149 11.1173 0.185844 3.2685
146 2 0.183793 7.61359 4.07999 6.95164
105 3 -0.815099 9.97729 3.21594 7.9661
145 2 0.163746 7.38865 5.60292 5.76989
170 2 0.182115 9.15534 5.37427 6.55287
171 2 0.178941 10.6555 5.43245 5.33864
221 1 -0.651692 8.78568 0.462492 1.9756
224 2 0.170049 9.11609 1.32361 1.32788
225 2 0.121257 8.80225 0.731554 3.16445
231 1 -0.678177 11.8764 0.650822 2.41474
232 3 -0.819068 14.6983 1.03801 3.07392
266 2 0.0880672 12.4464 4.32294 0.550795
144 2 0.156466 7.22951 5.83561 7.6609
234 2 0.172068 11.5436 0.399749 1.39059
273 2 0.167398 9.41011 0.364826 0.00712747
11 4 1.48485 12.81 6.29318 8.89205
36 4 1.32067 9.03977 2.13093 8.76673
52 1 -0.67364 10.3425 0.864291 9.36064
188 3 -0.791279 8.63668 2.30748 14.2228
100 3 -0.808659 8.26928 2.814 10.1069
107 3 -0.78245 12.235 4.71815 8.38246
110 2 0.0350533 14.875 3.09867 10.2207
203 2 0.131784 8.7268 5.92706 9.3068
202 2 0.200918 14.0821 3.71458 11.4789
163 2 0.175016 11.2537 1.21243 8.6786
6 4 1.3253 15.7481 2.39825 8.97713
165 2 0.2172 10.516 1.1272 10.4532
172 4 0.965402 15.8471 2.53083 14.6388
173 1 -0.641857 14.6371 1.16877 14.0086
174 2 0.0236911 14.0491 2.55448 15.1224
175 2 0.0912942 15.8421 0.604867 13.573
176 2 0.141303 14.2205 1.80882 13.0583
263 3 -0.857159 14.8303 1.2827 8.44488