LAMMPS (2 Aug 2023 - Update 2)
  using 1 OpenMP thread(s) per MPI task
Reading data file ...
  triclinic box = (0 0 0) to (17.6144 14.9838 17.4642) with tilt (-6.9346 2.088 0.8795)
  2 by 1 by 2 MPI processor grid
  reading atoms ...
  365 atoms
Finding 1-2 1-3 1-4 neighbors ...
  special bond factors lj:    0        0        0       
  special bond factors coul:  0        0        0       
     0 = max # of 1-2 neighbors
     0 = max # of 1-3 neighbors
     0 = max # of 1-4 neighbors
     1 = max # of special neighbors
  special bonds CPU = 0.001 seconds
  read_data CPU = 0.009 seconds
WARNING: Van der Waals parameters for element SI indicate inner wall+shielding, but earlier atoms indicate a different van der Waals method. This may cause division-by-zero errors. Keeping van der Waals setting for earlier atoms. (src/REAXFF/reaxff_ffield.cpp:251)
*****Minimization starts.*****

CITE-CITE-CITE-CITE-CITE-CITE-CITE-CITE-CITE-CITE-CITE-CITE-CITE

Your simulation uses code contributions which should be cited:
- pair reaxff command: doi:10.1016/j.parco.2011.08.005
- fix qeq/reaxff command: doi:10.1016/j.parco.2011.08.005
The log file lists these citations in BibTeX format.

CITE-CITE-CITE-CITE-CITE-CITE-CITE-CITE-CITE-CITE-CITE-CITE-CITE

Switching to 'neigh_modify every 1 delay 0 check yes' setting during minimization
WARNING: Fix qeq/reaxff group is not charge neutral, net charge = -6.56 (src/REAXFF/fix_qeq_reaxff.cpp:392)
Neighbor list info ...
  update: every = 1 steps, delay = 0 steps, check = yes
  max neighbors/atom: 2000, page size: 100000
  master list distance cutoff = 12
  ghost atom cutoff = 12
  binsize = 6, bins = 5 3 3
  2 neighbor lists, perpetual/occasional/extra = 2 0 0
  (1) pair reaxff, perpetual
      attributes: half, newton off, ghost
      pair build: half/bin/newtoff/ghost
      stencil: full/ghost/bin/3d
      bin: standard
  (2) fix qeq/reaxff, perpetual, copy from (1)
      attributes: half, newton off
      pair build: copy
      stencil: none
      bin: none
Setting up cg style minimization ...
  Unit style    : real
  Current step  : 0
Per MPI rank memory allocation (min/avg/max) = 140.8 | 141 | 141.1 Mbytes
   Step          Temp          Press         Density         Volume         PotEng    
         0   0              114558.11      1.4343051      4609.3376     -30507.348    
        36   0             -9407.3563      1.4343051      4609.3376     -34446.653    
Loop time of 5.50918 on 4 procs for 36 steps with 365 atoms

83.6% CPU use with 4 MPI tasks x 1 OpenMP threads

Minimization stats:
  Stopping criterion = energy tolerance
  Energy initial, next-to-last, final = 
     -30507.3481407126  -34446.6443281189  -34446.6525088614
  Force two-norm initial, final = 4322.995 385.88265
  Force max component initial, final = 826.83935 136.85058
  Final line search alpha, max atom move = 0.00034488762 0.047198071
  Iterations, force evaluations = 36 64

MPI task timing breakdown:
Section |  min time  |  avg time  |  max time  |%varavg| %total
---------------------------------------------------------------
Pair    | 2.7298     | 2.9733     | 3.4778     |  17.2 | 53.97
Bond    | 0.00017615 | 0.00018934 | 0.00019891 |   0.0 |  0.00
Neigh   | 0          | 0          | 0          |   0.0 |  0.00
Comm    | 0.48417    | 0.97281    | 1.2167     |  29.1 | 17.66
Output  | 0.025569   | 0.044735   | 0.066389   |   7.9 |  0.81
Modify  | 1.4662     | 1.4743     | 1.4825     |   0.7 | 26.76
Other   |            | 0.04376    |            |       |  0.79

Nlocal:          91.25 ave         107 max          80 min
Histogram: 2 0 0 0 0 0 1 0 0 1
Nghost:         3557.5 ave        3568 max        3540 min
Histogram: 1 0 0 0 0 0 1 0 1 1
Neighs:        48391.8 ave       55782 max       42913 min
Histogram: 2 0 0 0 0 0 1 0 0 1

Total # of neighbors = 193567
Ave neighs/atom = 530.32055
Ave special neighs/atom = 0
Neighbor list builds = 0
Dangerous builds = 0
System init for write_data ...
##### Equilibration starts.##### 
WARNING: Compute rdf cutoff less than neighbor cutoff - forcing a needless neighbor list build (src/compute_rdf.cpp:179)
Neighbor list info ...
  update: every = 10 steps, delay = 0 steps, check = yes
  max neighbors/atom: 2000, page size: 100000
  master list distance cutoff = 12
  ghost atom cutoff = 12
  binsize = 6, bins = 5 3 3
  3 neighbor lists, perpetual/occasional/extra = 2 1 0
  (1) pair reaxff, perpetual
      attributes: half, newton off, ghost
      pair build: half/bin/newtoff/ghost
      stencil: full/ghost/bin/3d
      bin: standard
  (2) compute rdf, occasional
      attributes: half, newton on, cut 7
      pair build: half/bin/newton/tri
      stencil: half/bin/3d/tri
      bin: standard
  (3) fix qeq/reaxff, perpetual, copy from (1)
      attributes: half, newton off
      pair build: copy
      stencil: none
      bin: none
Setting up Verlet run ...
  Unit style    : real
  Current step  : 0
  Time step     : 0.5
Per MPI rank memory allocation (min/avg/max) = 145.3 | 145.6 | 145.8 Mbytes
   Step          Temp          Press          PotEng         TotEng    
         0   300           -6179.5215     -34446.653     -34121.148    
       100   314.12405     -7252.5607     -34431.102     -34090.273    
       200   431.07126      141.3235      -34639.164     -34171.445    
       300   378.29959     -9098.5843     -34716.521     -34306.06     
       400   406.98222     -8755.7955     -34910.218     -34468.636    
       500   356.04409      694.77521     -34993.458     -34607.145    
       600   352.8112       10135.331     -35105.105     -34722.299    
       700   314.73834     -6162.8535     -35155.572     -34814.077    
       800   294.23638     -614.80044     -35179.37      -34860.119    
       900   277.75141     -2146.7884     -35186.939     -34885.575    
      1000   299.86219     -2268.9234     -35231.533     -34906.178    
      1100   315.80026      1105.9129     -35265.169     -34922.521    
      1200   306.1052      -12519.221     -35270.379     -34938.251    
      1300   295.3746       3686.5275     -35268.607     -34948.121    
      1400   286.04613      806.05041     -35271.557     -34961.193    
      1500   300.12147      8186.27       -35313.61      -34987.974    
      1600   357.75831      113.60827     -35433.001     -35044.828    
      1700   315.20323     -2946.1932     -35463.994     -35121.993    
      1800   300.89518      9031.095      -35506.851     -35180.375    
      1900   290.33497      1837.9552     -35534.126     -35219.108    
      2000   297.82679     -625.7478      -35558.099     -35234.953    
      2100   286.69408     -2756.8202     -35551.393     -35240.325    
      2200   293.97247     -11560.66      -35560.132     -35241.168    
      2300   324.5746      -1383.8243     -35629.134     -35276.966    
      2400   292.6957       3847.5151     -35634.014     -35316.435    
      2500   279.49308      508.78932     -35633.583     -35330.329    
      2600   292.42158     -14172.63      -35650.882     -35333.601    
      2700   309.73916      3967.9957     -35682.776     -35346.704    
      2800   310.9757      -6971.8693     -35707.538     -35370.124    
      2900   291.35582     -9289.7807     -35702.522     -35386.396    
      3000   293.41645      1169.2779     -35733.081     -35414.719    
      3100   319.00009      10372.114     -35798.523     -35452.403    
      3200   371.78876     -2138.6056     -35918.392     -35514.995    
      3300   376.73661      2003.244      -36002.909     -35594.145    
      3400   313.04651     -20998.383     -36018.871     -35679.211    
      3500   296.99417     -2133.5283     -36055.494     -35733.251    
      3600   287.99972     -8006.6092     -36081.971     -35769.487    
      3700   287.81748     -6769.2436     -36107.116     -35794.83     
      3800   311.03197      999.89287     -36150.144     -35812.669    
      3900   314.21714     -3384.4923     -36184.6       -35843.67     
      4000   294.89443     -5302.7828     -36192.634     -35872.669    
      4100   282.00976     -3306.134      -36199.607     -35893.623    
      4200   310.61384      862.59583     -36266.317     -35929.296    
      4300   297.19315     -4490.5081     -36283.414     -35960.955    
      4400   307.35839     -2938.9145     -36302.802     -35969.313    
      4500   291.2378      -2118.9687     -36282.899     -35966.902    
      4600   314.823        11506.512     -36301.732     -35960.145    
      4700   309.9572      -4764.0212     -36298.154     -35961.846    
      4800   311.07831     -5215.2017     -36312.833     -35975.309    
      4900   309.06838      415.64773     -36328.694     -35993.35     
      5000   297.91436      4804.2602     -36308.063     -35984.822    
      5100   300.71279     -1885.1608     -36274.872     -35948.594    
      5200   375.14958      7197.5295     -36362.852     -35955.809    
      5300   330.39834      5057.6767     -36372.647     -36014.16     
      5400   304.62812      10183.509     -36394.045     -36063.519    
      5500   312.89471     -5593.3052     -36428.762     -36089.267    
      5600   308.65002     -5025.6701     -36440.778     -36105.888    
      5700   275.61162     -196.08019     -36415.402     -36116.359    
      5800   263.73248     -2424.7451     -36407.297     -36121.144    
      5900   286.79691     -14250.742     -36423.511     -36112.332    
      6000   310.26031     -310.02532     -36462.833     -36126.196    
      6100   297.28254     -9612.8153     -36478.141     -36155.585    
      6200   294.30573     -10669.338     -36485.865     -36166.539    
      6300   292.99516     -5222.5476     -36478.844     -36160.94     
      6400   312.23442      7893.3553     -36495.874     -36157.095    
      6500   300.52309     -9041.4701     -36502.886     -36176.814    
      6600   294.5196      -1784.4769     -36505.971     -36186.413    
      6700   321.78768      3030.314      -36538.747     -36189.603    
      6800   298.21348      8675.5532     -36525.743     -36202.177    
      6900   285.47308      2595.3647     -36527.976     -36218.233    
      7000   308.76925      80.7179       -36567.307     -36232.288    
      7100   330.63052      1955.7638     -36625.961     -36267.222    
      7200   300.61724      4788.4329     -36628.709     -36302.535    
      7300   305.20314     -6031.792      -36659.03      -36327.88     
      7400   262.79454     -7550.6843     -36635.292     -36350.156    
      7500   319.74778     -1501.7392     -36704.791     -36357.86     
      7600   293.99914     -6484.8816     -36696.841     -36377.847    
      7700   288.51632     -6516.8517     -36713.343     -36400.299    
      7800   303.82754     -211.82088     -36717.866     -36388.209    
      7900   282.89369      12667.131     -36682.692     -36375.748    
      8000   310.99266      6166.1846     -36706.168     -36368.736    
      8100   291.17357     -708.24641     -36676.861     -36360.934    
      8200   297.21994      6073.589      -36670.831     -36348.343    
      8300   323.42246     -4150.4938     -36665.669     -36314.75     
      8400   310.28203     -7682.4696     -36667.336     -36330.676    
      8500   300.30064      12222.771     -36677.156     -36351.325    
      8600   312.91592      1642.5602     -36692.576     -36353.058    
      8700   282.84168     -815.03931     -36673.437     -36366.55     
      8800   307.48525     -7996.0986     -36723.19      -36389.564    
      8900   277.71818     -1804.4701     -36711.944     -36410.616    
      9000   291.10948     -6128.6628     -36700.659     -36384.801    
      9100   312.99356     -14034.368     -36691.491     -36351.888    
      9200   288.21348     -7134.1077     -36664.727     -36352.011    
      9300   308.79467     -2268.3179     -36710.611     -36375.565    
      9400   304.48605      3347.0318     -36732.171     -36401.8      
      9500   301.55343     -3462.0225     -36744.828     -36417.638    
      9600   306.77682     -469.62845     -36752.334     -36419.476    
      9700   303.17154     -13547.418     -36729.487     -36400.541    
      9800   313.4069      -4657.7947     -36708.336     -36368.285    
      9900   298.22961      2128.2676     -36706.858     -36383.274    
     10000   290.68539     -7239.6381     -36719.339     -36403.941    
     10100   321.31438      5574.3369     -36755.681     -36407.051    
     10200   309.70881     -8022.0805     -36762.394     -36426.355    
     10300   308.04348      902.56264     -36784.092     -36449.86     
     10400   300.48768     -6595.2319     -36784.078     -36458.044    
     10500   303.15376     -9378.8188     -36783.348     -36454.421    
     10600   307.20363     -3332.7742     -36782.08      -36448.76     
     10700   300.2234       187.41778     -36766.15      -36440.403    
     10800   312.49252     -4757.9131     -36761.423     -36422.364    
     10900   305.67122     -12026.204     -36768.994     -36437.337    
     11000   296.34262     -7295.0032     -36780.13      -36458.594    
     11100   284.35502     -2478.5466     -36775.987     -36467.458    
     11200   315.35121     -10672.656     -36792.401     -36450.241    
     11300   309.03912      2868.5637     -36749.337     -36414.025    
     11400   325.5868      -2180.626      -36769.633     -36416.366    
     11500   321.6336      -4903.3404     -36794.246     -36445.269    
     11600   308.40874     -4318.7888     -36803.802     -36469.174    
     11700   297.64432     -4756.6578     -36814.722     -36491.774    
     11800   296.79286     -6603.0373     -36829.81      -36507.785    
     11900   295.84343     -4830.1236     -36823.781     -36502.787    
     12000   290.07068     -7431.4791     -36784.646     -36469.915    
     12100   324.22239      724.65613     -36799.258     -36447.471    
     12200   318.89092     -12747.231     -36804.305     -36458.303    
     12300   300.91684      5862.0271     -36806.654     -36480.155    
     12400   284.63509     -295.60225     -36797.173     -36488.34     
     12500   294.68134     -9362.8398     -36797.083     -36477.349    
     12600   309.61208     -7260.6823     -36808.642     -36472.708    
     12700   323.91985     -6870.3235     -36814.457     -36463        
     12800   299.44281     -4517.9648     -36776.397     -36451.497    
     12900   302.61384     -8816.7735     -36786.572     -36458.232    
     13000   294.0941      -1992.0331     -36809.995     -36490.899    
     13100   295.04003     -12355.838     -36822.465     -36502.342    
     13200   292.10817     -6004.0923     -36809.904     -36492.962    
     13300   308.28326     -7814.8441     -36804.874     -36470.382    
     13400   312.50105      4239.6744     -36820.259     -36481.191    
     13500   290.61733      4650.7663     -36836.441     -36521.117    
     13600   287.22739     -11636.588     -36834.862     -36523.216    
     13700   303.46262     -15596.65      -36846.019     -36516.758    
     13800   318.23571     -9711.4716     -36846.076     -36500.785    
     13900   319.96851     -12727.414     -36867.234     -36520.063    
     14000   286.51196     -3716.3081     -36862.112     -36551.242    
     14100   307.2297       5717.5075     -36893.524     -36560.175    
     14200   298.72243     -9889.4673     -36871.49      -36547.372    
     14300   303.87582     -3100.9344     -36857.937     -36528.227    
     14400   322.68038     -14088.313     -36857.056     -36506.943    
     14500   326.93639     -1542.3728     -36861.508     -36506.777    
     14600   296.10183     -6940.9897     -36859.508     -36538.233    
     14700   306.88728      5619.6079     -36893.744     -36560.767    
     14800   296.1929      -1438.4006     -36891.048     -36569.675    
     14900   303.65401     -2212.8067     -36882.789     -36553.32     
     15000   317.10077     -6543.8253     -36866.941     -36522.882    
     15100   318.61459      3078.7032     -36874.178     -36528.477    
     15200   310.15542      1134.7787     -36878.318     -36541.795    
     15300   285.68275     -9015.8103     -36865.712     -36555.742    
     15400   295.21184      7301.804      -36887.314     -36567.004    
     15500   286.63612      6928.6659     -36898.342     -36587.337    
     15600   278.0168       3685.6674     -36890.062     -36588.41     
     15700   310.4019      -2204.2719     -36893.319     -36556.528    
     15800   311.37164      3728.7534     -36883.289     -36545.446    
     15900   310.16639     -2976.1955     -36891.241     -36554.706    
     16000   303.46021     -5954.0498     -36918.302     -36589.043    
     16100   315.58937      7914.9557     -36943.362     -36600.943    
     16200   305.47239      5203.5197     -36950.856     -36619.414    
     16300   286.11121     -7710.886      -36950.232     -36639.797    
     16400   294.43592     -13386.921     -36960.402     -36640.935    
     16500   304.94124      4424.7755     -36940.041     -36609.175    
     16600   306.46922     -5070.4157     -36926.506     -36593.982    
     16700   298.61407      10274.297     -36926.29      -36602.289    
     16800   301.18611      11929.169     -36949.706     -36622.914    
     16900   292.97828      532.14682     -36950.238     -36632.352    
     17000   299.14037     -6928.1813     -36951.717     -36627.145    
     17100   340.82078     -14493.533     -36993.613     -36623.817    
     17200   301.2983      -4440.5587     -36967.77      -36640.857    
     17300   310.50084      7217.2661     -36986.905     -36650.007    
     17400   291.78792      6495.0904     -36976.385     -36659.791    
     17500   287.92435      1003.9874     -36979.268     -36666.866    
     17600   276.18408     -5891.1941     -36974.632     -36674.969    
     17700   307.9636      -11453.322     -37025.814     -36691.669    
     17800   287.20072      2274.3174     -37018.742     -36707.125    
     17900   297.07222      633.1733      -37017.597     -36695.269    
     18000   324.64836      10437.97      -37012.672     -36660.424    
     18100   305.05784     -5316.3826     -36995.494     -36664.502    
     18200   308.91001      1434.9564     -37023.761     -36688.589    
     18300   300.46827      6891.3284     -37021.43      -36695.418    
     18400   296.11428      8989.8758     -37011.899     -36690.61     
     18500   290.24785      1523.3154     -36999.291     -36684.367    
     18600   319.70093     -5377.7371     -37025.045     -36678.165    
     18700   300.28968     -9316.8202     -37003.196     -36677.378    
     18800   304.40319     -12001.563     -37002.903     -36672.622    
     18900   327.79763      11632.531     -37014.445     -36658.78     
     19000   315.85107     -4700.7684     -37007.499     -36664.796    
     19100   305.68848     -924.5647      -37020.179     -36688.503    
     19200   314.06626      6378.7513     -37047.119     -36706.353    
     19300   290.63839      2516.2136     -37022.255     -36706.908    
     19400   304.48419      3343.9808     -36996.637     -36666.268    
     19500   336.96192     -2206.381      -37022.359     -36656.751    
     19600   374.96419     -3085.0336     -37085.359     -36678.518    
     19700   358.06508      7203.3768     -37116.624     -36728.118    
     19800   279.27581     -3342.8789     -37059.077     -36756.059    
     19900   268.75645     -682.65644     -37077.909     -36786.305    
     20000   258.21888     -8142.8293     -37082.094     -36801.923    
Loop time of 1658.69 on 4 procs for 20000 steps with 365 atoms

Performance: 0.521 ns/day, 46.075 hours/ns, 12.058 timesteps/s, 4.401 katom-step/s
81.3% CPU use with 4 MPI tasks x 1 OpenMP threads

MPI task timing breakdown:
Section |  min time  |  avg time  |  max time  |%varavg| %total
---------------------------------------------------------------
Pair    | 825.36     | 927.95     | 990.71     | 222.1 | 55.94
Bond    | 0.053429   | 0.079476   | 0.094533   |   5.6 |  0.00
Neigh   | 17.938     | 19.392     | 20.055     |  19.7 |  1.17
Comm    | 342.57     | 414.01     | 503.93     | 316.7 | 24.96
Output  | 1.1692     | 1.3821     | 1.5752     |  13.6 |  0.08
Modify  | 280.33     | 294.35     | 308.94     |  79.0 | 17.75
Other   |            | 1.533      |            |       |  0.09

Nlocal:          91.25 ave          99 max          82 min
Histogram: 1 0 1 0 0 0 0 0 1 1
Nghost:           3480 ave        3515 max        3442 min
Histogram: 1 0 1 0 0 0 0 0 1 1
Neighs:          48491 ave       52418 max       44060 min
Histogram: 1 0 1 0 0 0 0 0 1 1

Total # of neighbors = 193964
Ave neighs/atom = 531.40822
Ave special neighs/atom = 0
Neighbor list builds = 460
Dangerous builds = 6
System init for write_data ...
WARNING: Compute rdf cutoff less than neighbor cutoff - forcing a needless neighbor list build (src/compute_rdf.cpp:179)
Total wall time: 0:27:44
