ITEM: TIMESTEP
0
ITEM: NUMBER OF ATOMS
331
ITEM: BOX BOUNDS xy xz yz pp pp pp
-8.6558941795506463e+00 1.6992590935126586e+01 -8.8138479511546794e+00
-2.3082318705380849e+00 1.3000996215598949e+01 1.4418447067307354e+00
-1.5199799933352409e-02 1.7539999799933383e+01 -2.3940356549391200e+00
ITEM: ATOMS id type x y z
230 2 -2.94984 5.15223 2.70097
1 4 0.602297 2.81357 5.67637
2 4 1.07412 4.08506 2.59196
3 1 1.90055 3.42056 6.84853
8 2 1.28733 3.29396 7.80906
9 2 1.10691 1.16554 5.63428
10 2 1.88037 4.52966 6.51883
18 3 0.766133 3.53849 4.24305
83 2 1.95223 0.243381 7.10362
161 2 -0.376471 3.93092 1.41911
6 1 0.963445 2.71209 1.3642
15 2 2.58128 3.25256 1.71849
5 1 3.27402 0.627188 2.18754
12 2 3.86373 1.01457 3.044
4 1 1.83758 -0.603959 6.19252
16 2 -1.18644 5.28877 3.50145
131 3 -0.921337 2.84327 6.38445
11 2 2.95691 2.96653 6.95367
17 2 0.615122 1.71464 1.83207
187 2 2.93408 4.83011 7.90623
14 2 2.42767 1.38057 1.93546
214 1 -2.24374 5.63868 3.51313
266 3 5.62387 3.31035 0.470283
95 2 2.89087 5.26489 4.4093
89 2 3.91182 0.553177 1.25169
162 2 2.26764 -0.254969 5.21174
13 2 1.37305 5.80242 2.38977
79 2 5.1337 -0.00259682 2.36063
311 2 0.863387 2.6268 0.185637
118 3 7.39789 -0.0643143 6.59702
122 3 4.65214 2.09259 7.18913
27 4 4.52137 1.10151 8.42767
24 4 6.86684 0.145533 2.66463
47 1 4.65795 -0.782307 7.8707
184 2 -0.175485 5.20234 7.84176
117 3 7.14152 0.734437 4.04433
82 2 5.46753 -0.717463 7.05958
170 2 -0.848694 3.7876 8.92482
149 4 -0.357428 4.75799 10.449
254 2 -1.69679 3.18773 16.1945
145 4 -1.73948 3.93402 13.1276
116 3 3.04507 1.17617 9.22227
250 1 -1.41668 4.01573 16.962
197 3 -0.977758 4.18994 11.768
22 4 2.63332 0.472444 10.7101
23 4 2.78467 1.81178 13.4049
112 3 1.03457 -0.381759 10.7166
113 3 3.96409 -0.501724 11.1161
114 3 2.7671 1.83107 11.807
77 2 2.45408 3.36367 14.2275
44 1 1.00288 2.07722 14.0456
76 2 0.86672 1.32586 14.9646
60 2 0.718156 3.2249 14.3137
75 2 0.426157 1.62847 13.1166
267 3 5.17679 3.11181 17.4393
262 2 1.66807 -1.75802 16.0063
125 3 3.55171 0.784829 14.3737
278 2 1.5748 0.454532 16.5222
59 2 0.0805136 1.95298 9.61215
271 1 0.634631 -0.0977493 16.3089
186 2 3.89024 4.4758 9.86077
322 2 7.37166 -1.45053 16.7094
121 3 4.58137 -1.08285 16.2086
119 3 5.07001 -1.03287 13.4078
84 2 6.06504 0.623716 10.3951
85 2 5.76098 2.55335 10.1244
29 4 4.85519 -0.108501 14.7758
48 1 5.94939 1.54111 9.60242
120 3 6.15795 0.867986 14.8557
99 2 6.4554 1.42537 12.033
310 2 0.735883 -0.730656 14.6673
183 2 -2.85856 5.31205 8.8106
276 2 -0.583457 1.14134 16.5419
326 2 8.91824 -1.80697 14.1026
198 3 1.15816 5.14417 10.2449
188 2 7.40522 -1.64652 12.8428
252 2 -0.391746 3.84593 17.4179
291 1 2.49229 7.38171 2.38665
221 2 -6.00987 11.0636 3.25835
169 2 -5.43953 10.7131 5.51567
143 4 -5.61219 11.2783 7.10237
213 1 -7.13103 10.8985 3.03628
228 2 -5.07835 10.1037 3.90482
220 2 -3.54176 9.5929 5.0225
49 1 -5.31009 9.07085 4.42106
167 2 -4.69559 8.89035 5.36515
144 4 -3.15485 6.26116 5.07594
274 2 -2.44455 7.23995 3.5451
80 2 -3.46553 10.6081 2.68147
62 2 0.0642008 9.34397 0.0251504
87 2 -1.83522 11.7959 5.53888
193 3 -6.26034 10.0037 8.14584
285 2 -6.0142 11.7715 0.315122
286 2 -4.51881 10.9921 0.758989
200 3 -1.62079 10.4658 8.56042
158 1 3.54643 5.70135 8.49545
70 2 -3.79587 6.89909 0.103134
294 2 2.9941 6.60538 1.68316
45 1 -2.32569 10.9537 2.79636
293 2 2.8335 7.12878 3.49012
192 3 -2.2641 6.49204 6.35042
206 4 -2.1142 10.4117 4.44471
324 2 0.28905 9.46601 6.92659
227 2 -5.13798 8.20404 3.69984
163 2 -4.79578 8.07506 0.481254
93 2 2.32194 6.85433 5.16647
78 2 -0.752971 11.7996 2.0793
235 2 -0.726744 6.66165 4.30464
98 2 -1.5592 10.3117 2.233
146 4 -1.34179 6.55151 7.63845
199 3 -0.858417 7.98096 8.42894
207 4 0.426626 8.85823 5.2544
215 1 0.309217 7.11638 4.68102
232 2 1.4071 7.45616 2.25083
233 2 0.692534 6.6672 5.70958
234 2 1.14659 7.0827 3.78058
242 3 -0.892393 9.4837 4.47159
26 4 -0.616859 11.7928 8.13649
7 2 -6.10906 12.532 2.44294
312 2 -7.82743 12.4103 2.68112
108 2 -4.26796 7.17094 7.62593
185 2 2.80572 7.00634 8.54006
81 2 -3.84623 11.4903 8.7606
156 1 -4.05266 6.88051 11.6713
127 3 3.46828 4.7734 15.925
249 4 -0.936621 5.42732 15.7954
126 3 0.738925 5.36148 15.9089
159 1 -0.319406 10.9708 13.0086
319 2 -3.39614 6.25098 11.0358
21 4 -4.68852 11.3139 12.2499
19 4 -4.83074 10.3185 16.1958
115 3 -6.09626 10.793 12.9977
284 2 -4.35916 7.66215 16.408
283 1 -3.81989 8.60193 16.5848
148 4 -4.35725 8.54844 10.7677
194 3 -1.54598 4.99364 14.3795
180 2 -3.56689 7.23522 12.6144
196 3 -3.99674 9.67833 11.737
201 3 -3.23053 8.52411 9.38901
325 2 -3.81784 9.40548 14.9308
202 3 3.1832 6.74515 11.3664
303 2 -0.584096 9.50956 17.5242
204 3 1.37935 8.52867 12.4916
153 4 -0.0186564 9.28903 12.1323
282 2 -0.0416545 10.7974 15.4294
259 1 -6.62977 10.0943 15.7949
280 4 -1.98603 8.44222 16.8219
281 2 -1.87647 10.1696 15.3777
150 4 2.62942 5.71416 10.2056
331 3 -1.54972 6.82051 16.4578
327 2 -1.15576 9.2319 13.4291
301 1 -0.781729 9.90033 15.7492
203 3 -0.781205 9.12633 10.7954
34 4 2.28392 5.79959 15.7441
302 2 -0.408749 8.94277 15.1632
182 2 -1.47139 6.46985 10.2438
64 2 2.50993 6.71585 14.2123
151 4 -1.7166 9.06277 9.28297
270 1 2.43608 7.30754 16.9732
253 2 2.13966 8.19565 16.3664
157 1 -1.66911 5.4099 9.05721
28 4 7.85788 1.21911 5.59352
31 4 5.96379 3.33335 6.61497
123 3 7.36556 2.60508 6.29388
124 3 5.34381 4.30992 5.3545
128 3 9.49716 1.11382 5.43753
263 4 5.07156 4.82844 0.755924
50 1 6.47996 4.46541 7.97722
96 2 4.89554 5.10777 2.59204
109 2 7.71314 4.55351 7.88636
264 2 7.20368 5.00264 0.0206844
46 1 7.68471 1.11088 1.09475
91 2 9.96409 5.41194 6.17472
320 2 8.296 2.02166 1.58443
40 4 9.65198 4.13402 2.81706
69 2 9.85073 3.62469 0.866252
295 1 11.078 0.243495 1.06919
137 3 10.1422 3.03131 3.7751
42 4 9.48086 5.43425 8.05252
106 2 8.08632 4.84183 3.12421
32 4 4.66218 5.35284 4.39141
58 2 10.7225 5.5633 2.81637
35 4 10.6678 2.00563 4.88149
175 2 10.4158 6.2869 1.25471
273 2 11.5094 1.35199 0.982046
304 1 11.1141 4.34617 1.4454
37 4 12.8146 2.1852 6.95504
132 3 11.5921 2.6773 5.99487
139 3 12.4809 2.69996 8.50984
133 3 12.9896 0.565325 6.99519
208 4 13.8524 -0.664408 7.45044
129 3 15.1374 -0.321076 8.37877
323 2 11.7019 0.844138 4.10281
306 2 11.8303 3.55795 1.78186
52 1 6.43518 5.94022 0.185288
330 2 11.6355 5.03766 0.685131
65 2 10.4783 0.0579211 1.9832
321 2 8.40606 0.330284 0.683243
231 2 12.2286 4.4765 4.61663
277 2 13.6194 0.187513 13.8642
179 2 11.5735 4.40542 12.4541
33 4 7.19021 1.88705 14.2106
53 1 7.38208 1.99274 12.4079
63 2 7.39809 3.10512 12.1334
66 2 8.84977 0.99089 11.7283
309 2 11.2915 -0.1495 14.4957
314 2 13.3249 -1.33731 13.1693
100 2 8.69434 1.16903 13.4766
130 3 8.70043 -0.231313 9.43715
134 3 9.40877 0.490983 16.4493
141 3 7.73383 3.32166 15.0415
36 4 9.72855 0.593328 10.2107
25 4 8.26 -0.174881 17.4596
101 2 10.0636 2.38777 14.4854
138 3 10.2059 1.91599 9.57282
103 2 10.2831 3.02539 16.9513
102 2 10.5596 3.87972 15.2104
86 2 6.78578 1.53403 8.84091
140 3 10.3606 4.44891 8.94992
155 1 11.8702 3.25931 12.9289
307 1 12.2187 -0.924178 13.1001
269 4 14.3707 -0.345327 15.3513
38 4 10.5501 1.10917 15.6205
308 2 9.13732 -1.36546 12.2209
178 2 11.2844 2.4903 12.4127
104 2 12.0955 3.43006 16.4274
54 1 10.9732 3.11731 16.0451
41 4 11.2086 3.04627 9.39166
189 2 15.9439 -0.996094 17.0728
177 2 11.5012 3.2719 14.1348
305 2 12.0461 1.54878 16.5137
71 2 11.7901 3.37814 10.9401
39 4 12.3095 -0.0109781 11.4753
135 3 13.703 0.0649916 10.6998
136 3 10.9573 -0.415478 10.7069
68 2 12.1021 0.923004 13.0883
165 2 13.4133 2.29659 13.6263
92 2 6.13327 3.79473 8.89841
279 3 13.6412 -1.63357 16.0144
20 4 15.1522 0.288304 9.87574
107 2 7.06699 6.17724 3.25095
94 2 3.59568 6.40271 6.54209
297 2 3.4051 12.0255 0.98788
299 2 1.62794 11.1137 8.1067
298 1 0.815646 11.1267 7.31034
243 3 1.85205 9.43827 4.65041
292 2 3.08235 8.07079 0.673772
209 4 3.18164 9.84745 3.92898
236 2 2.17974 11.81 4.67037
300 2 0.926311 11.795 6.34814
216 1 3.09986 11.769 3.86568
237 2 3.17325 9.09002 2.28632
212 1 6.09006 10.3146 0.382239
51 1 3.45629 6.77998 5.43472
238 2 4.05769 12.3507 4.26677
265 2 3.89739 7.80326 5.29297
226 2 7.79201 10.3341 3.92579
223 2 2.77368 12.2188 2.74805
88 2 8.95082 9.02754 4.72189
171 2 4.6482 5.85331 8.03002
176 2 8.88839 7.37355 0.944347
61 2 7.58738 7.68349 4.2386
55 1 7.94253 6.7103 3.71216
105 2 8.68608 7.00141 2.78692
74 2 6.51586 6.56495 1.2638
218 2 5.8569 9.30293 1.51343
97 2 5.21124 7.0016 4.59303
222 2 3.83909 11.0735 8.30675
56 1 10.1481 6.86297 7.1439
219 2 4.93865 11.8725 3.33905
110 2 9.35537 7.72522 6.96722
205 4 6.19433 11.1875 2.16762
246 3 4.488 9.51524 4.61714
211 4 5.41967 9.73434 5.92393
245 3 7.19473 9.1679 5.15663
248 3 5.59525 11.3599 6.17815
313 2 7.70152 9.52629 5.92727
247 3 4.94944 8.96614 7.19756
317 2 5.73727 12.0669 0.620949
154 1 9.99836 7.40027 1.25261
164 2 10.5938 6.90989 5.29464
225 2 7.36973 11.9649 6.11603
210 4 5.39107 8.60008 8.73278
229 2 8.23967 10.1593 2.10758
72 2 9.00317 7.07386 8.70955
329 2 10.1141 7.84781 2.33299
90 2 5.95999 5.54228 7.94108
174 2 8.44649 5.96569 4.48739
275 2 1.85957 9.85062 0.0944423
30 4 4.80173 4.60737 16.8898
142 3 6.25461 5.21323 16.2096
239 2 5.02391 10.3926 10.2787
256 2 10.2442 5.17176 14.7924
315 2 6.75252 7.75986 17.2179
240 2 4.69177 7.11576 9.22963
268 4 4.23598 10.0367 16.8515
255 2 10.3118 6.88246 15.4271
289 2 6.70659 7.40271 12.4022
290 2 6.42126 8.30696 13.9655
241 2 3.52148 9.39232 9.94081
173 2 2.70746 11.1824 12.7565
287 1 7.06142 8.2846 13.0685
191 2 3.80583 10.0318 13.2036
272 2 3.86042 8.47822 16.1357
43 4 7.65527 4.42868 16.1426
160 1 4.06558 8.86616 13.1396
67 2 10.5606 6.51237 13.5221
73 2 9.03867 5.4767 16.1219
152 4 2.77051 7.63674 12.6904
172 2 4.32646 8.40688 14.1936
195 3 9.36354 8.51005 10.266
166 2 6.8652 5.35424 11.6777
181 2 10.2746 6.34424 11.844
224 2 7.34433 6.94181 10.7733
190 2 4.79887 8.56001 12.2648
217 1 4.37986 9.96864 9.54085
318 2 8.26536 9.22266 16.5109
260 2 6.78311 9.95213 14.0976
261 2 8.77683 8.02527 13.61
258 4 8.49148 9.74102 13.9128
257 2 8.82956 6.3188 14.4292
288 2 6.76515 9.21259 12.4566
251 1 9.95309 6.22798 14.532
147 4 8.37893 9.50545 9.45259
57 1 6.59353 6.10179 10.818
244 3 6.96541 8.7303 9.10595
168 2 7.99358 10.8243 10.395
328 2 5.57158 6.57718 10.9716
111 2 6.58691 5.47949 9.76101
296 2 2.49253 10.4923 17.3439
316 2 8.5254 7.80495 17.5351
ITEM: TIMESTEP
100
ITEM: NUMBER OF ATOMS
331
ITEM: BOX BOUNDS xy xz yz pp pp pp
-8.6558941795506463e+00 1.6992590935126586e+01 -8.8138479511546794e+00
-2.3082318705380849e+00 1.3000996215598949e+01 1.4418447067307354e+00
-1.5199799933352409e-02 1.7539999799933383e+01 -2.3940356549391200e+00
ITEM: ATOMS id type x y z
230 2 -3.02206 5.20502 2.74636
1 4 0.416311 2.8287 5.8642
2 4 0.862158 3.96934 2.88732
3 1 1.83383 3.48757 6.91946
8 2 1.25484 3.30903 7.95147
9 2 1.27637 1.29651 5.94596
10 2 1.78258 4.59582 6.50456
18 3 0.633069 3.41972 4.33258
83 2 1.8436 0.115388 7.22501
161 2 -0.566277 3.83787 1.80264
6 1 0.982437 2.80779 1.37024
15 2 2.46134 3.21367 1.93691
5 1 3.27974 0.70254 2.02619
12 2 3.79728 1.15812 2.92094
4 1 1.97718 -0.49574 6.23313
16 2 -1.16454 5.33551 3.49476
131 3 -1.02737 2.83687 6.55219
11 2 2.88601 3.02284 6.87418
17 2 0.547443 1.80395 1.70602
187 2 3.0572 4.85407 7.8363
14 2 2.40185 1.44628 1.73863
214 1 -2.23818 5.67561 3.59717
82 2 5.53198 -0.588632 7.28371
95 2 2.92989 5.17097 4.23328
89 2 3.99469 0.624261 1.16849
162 2 2.43065 0.147599 5.41144
13 2 1.47997 5.6019 2.70874
252 2 -2.11218 6.3357 0.0935432
311 2 0.906811 3.08549 0.258566
118 3 7.33335 -0.082458 6.49393
122 3 4.50564 2.11069 7.09747
27 4 4.35136 1.13316 8.31992
24 4 6.77009 0.360451 2.6478
47 1 4.60448 -0.662062 7.91442
184 2 -0.112295 5.1941 7.76425
117 3 7.09886 0.818191 4.04571
79 2 5.11679 0.169601 2.32982
267 3 3.75186 5.5204 0.107087
170 2 -0.797208 3.78693 8.93954
149 4 -0.269882 4.8615 10.4663
254 2 -1.89986 3.25829 16.3865
145 4 -1.93236 4.29961 12.9709
116 3 2.91402 1.20809 9.1137
250 1 -1.63016 4.1169 17.0119
197 3 -0.968138 4.30948 11.7504
22 4 2.66586 0.460588 10.7143
23 4 2.85885 1.84288 13.3974
112 3 1.09925 -0.535802 10.6777
113 3 3.82821 -0.658753 10.9709
114 3 2.6732 1.62885 11.8425
77 2 2.65786 3.51448 13.8493
44 1 1.14023 2.35611 14.12
76 2 1.00062 1.42311 14.9546
60 2 0.72576 3.28488 14.4676
75 2 0.600397 2.02563 13.1247
198 3 1.28842 4.9818 10.239
262 2 1.57547 -1.65999 16.1261
125 3 3.46777 0.809876 14.4348
278 2 1.47909 0.902223 16.6077
59 2 0.161528 1.89787 9.91237
271 1 0.685246 0.079922 16.4162
186 2 4.00986 4.66897 9.93893
322 2 7.49917 -1.52792 16.7252
121 3 4.68345 -1.33454 15.9367
119 3 5.33596 -0.967673 13.3776
84 2 5.94734 0.565008 10.0615
85 2 5.22526 2.18674 10.4086
29 4 4.82944 -0.0875173 14.6225
48 1 5.66033 1.50192 9.62609
120 3 5.97787 1.09521 14.9046
99 2 6.30358 1.27232 12.4396
310 2 0.906556 -0.600473 14.9254
189 2 0.70184 -0.727984 17.19
183 2 -2.69893 5.2638 8.89942
188 2 7.42196 -1.55264 12.8842
291 1 2.53427 7.22411 2.43547
221 2 -5.90258 10.9575 3.16276
169 2 -4.92035 10.5864 5.51715
143 4 -5.58619 11.1739 7.07089
213 1 -7.01574 10.8523 2.99514
228 2 -5.05973 10.0993 3.93445
220 2 -3.45996 9.52152 4.92104
49 1 -5.26138 8.99132 4.45083
167 2 -4.57978 8.82985 5.37331
144 4 -3.00981 6.19718 5.20694
274 2 -2.46745 7.34674 3.71188
80 2 -3.56517 11.2396 2.79157
225 2 -7.85296 11.9721 5.9124
87 2 -2.05542 11.8264 5.4465
193 3 -6.17264 10.1082 8.04339
285 2 -5.51152 12.1286 0.409109
286 2 -4.36439 10.8185 0.736737
200 3 -1.56123 10.4392 8.41126
158 1 3.66568 5.71132 8.47148
70 2 -3.95229 6.90912 0.15855
294 2 3.00381 6.52426 1.70235
45 1 -2.36769 11.0425 2.67642
293 2 2.89023 6.98456 3.49013
192 3 -2.11786 6.35875 6.47973
206 4 -2.1237 10.4938 4.36082
324 2 0.710418 9.39974 7.05118
227 2 -5.0848 8.132 3.5858
185 2 2.76402 7.07619 8.65557
93 2 2.38607 6.7313 5.09055
78 2 -0.939757 11.9513 1.91738
235 2 -0.627159 6.56781 4.325
98 2 -2.15428 10.013 2.1393
146 4 -1.21964 6.55914 7.72366
199 3 -0.683077 7.94507 8.29069
207 4 0.414337 8.78135 5.36079
215 1 0.357183 7.08202 4.74914
232 2 1.36864 7.20456 2.37692
233 2 0.732984 6.6105 5.78106
234 2 1.24911 7.1712 3.81972
242 3 -0.844672 9.61467 4.67211
26 4 -0.527114 11.6889 7.89505
7 2 -6.04889 12.513 2.34887
312 2 -7.73707 12.413 2.77334
108 2 -4.21079 6.59033 8.05502
329 2 -5.1292 8.05606 2.23223
94 2 3.51003 6.26853 6.57556
156 1 -3.87945 6.99294 11.7285
127 3 3.47948 4.77996 15.9674
249 4 -0.868695 5.4193 15.8139
126 3 0.73106 5.28572 15.7653
159 1 -0.30644 11.0124 12.9216
319 2 -3.08016 6.34305 11.24
157 1 -1.53402 5.36342 9.04213
19 4 -4.82386 10.2742 16.3339
115 3 -6.22149 11.0035 13.1478
284 2 -4.66813 7.57146 16.9563
283 1 -3.96785 8.48458 16.7077
148 4 -4.26354 8.6473 10.7046
194 3 -1.57362 4.97048 14.415
180 2 -3.54383 7.45241 12.689
196 3 -4.07434 9.94588 11.7145
201 3 -3.13133 8.55159 9.6153
325 2 -4.0537 8.93754 15.1215
202 3 2.9739 6.56278 11.6404
303 2 -0.751238 9.71364 17.4016
204 3 1.184 8.59179 12.3567
153 4 -0.18012 9.29275 12.0201
282 2 -0.266614 10.7178 15.2555
259 1 -6.62493 10.2011 15.8408
280 4 -1.90802 8.39195 16.755
281 2 -2.04538 9.88754 15.0967
150 4 2.6429 5.80715 10.1969
331 3 -1.3995 6.94715 16.3243
327 2 -1.43372 9.40905 13.1995
301 1 -0.86153 9.80084 15.597
203 3 -0.767749 9.08482 10.6213
34 4 2.26751 5.73398 15.7996
302 2 -0.262144 8.89796 15.1949
182 2 -1.12962 6.54528 10.337
64 2 2.43627 6.73718 14.3081
151 4 -1.59056 9.10637 9.21739
270 1 2.61615 7.34469 16.7834
62 2 1.5605 7.09163 17.4825
168 2 -7.04014 10.8574 10.4395
21 4 -4.69833 11.2846 12.2838
81 2 -4.03724 11.6226 8.85975
255 2 -4.86518 7.22854 15.3739
28 4 7.8817 1.16926 5.55739
31 4 5.91152 3.25483 6.44794
123 3 7.295 2.6026 6.05178
124 3 5.32176 4.21828 5.3567
128 3 9.51244 0.98994 5.49018
263 4 5.1537 4.86383 0.85944
50 1 6.23949 4.48455 7.86815
96 2 4.94164 5.05482 2.58142
109 2 7.38577 4.43795 8.13386
266 3 5.7581 3.38763 0.587739
46 1 7.73807 1.47896 1.30649
91 2 9.72844 5.3866 6.21587
320 2 8.19678 2.07417 2.1982
40 4 9.63991 4.03125 2.84153
69 2 9.6207 3.53971 0.930046
295 1 10.6828 -0.0463899 0.970078
137 3 10.1328 2.89182 3.81739
42 4 9.32949 5.17961 8.02662
106 2 8.07246 4.79091 3.20913
32 4 4.68369 5.26151 4.36629
58 2 10.6422 5.52768 2.97586
35 4 10.7304 1.824 4.90352
92 2 5.5516 4.01742 8.64885
273 2 10.9396 1.04845 1.12229
304 1 11.0232 4.43413 1.51962
37 4 12.7654 2.19878 7.06411
132 3 11.6647 2.55379 5.91415
139 3 12.4309 2.87925 8.46476
133 3 12.8923 0.543322 7.12822
208 4 13.8172 -0.712147 7.43113
129 3 14.9245 -0.259239 8.48448
323 2 11.6731 0.73969 3.96473
306 2 11.792 3.68871 1.92957
52 1 6.50522 5.86585 0.113155
330 2 11.4419 5.1476 0.651331
231 2 12.1716 4.45996 4.60258
321 2 8.43353 0.736316 0.809114
277 2 13.6928 0.131393 14.0612
179 2 11.6202 4.73857 12.3374
33 4 7.323 1.87527 14.3919
53 1 7.28421 1.77553 12.6137
63 2 7.28007 2.88705 12.3821
66 2 8.61238 1.1126 11.5301
309 2 11.4371 0.0989232 14.4756
314 2 13.4089 -1.33468 13.0416
100 2 8.60683 0.851621 13.5688
130 3 8.67926 -0.20857 9.1638
134 3 9.44187 0.432215 16.4898
141 3 7.73706 3.33499 14.891
36 4 9.6572 0.583039 10.1124
25 4 8.30191 -0.160587 17.4628
101 2 9.95882 2.24512 14.5416
138 3 10.1872 1.92718 9.64781
103 2 10.1665 3.33057 16.8901
102 2 10.3588 3.93921 15.1429
86 2 6.53522 2.02622 9.03046
140 3 10.3051 4.3361 8.88282
155 1 11.82 3.22479 12.9138
307 1 12.3107 -0.943836 13.0672
269 4 14.4879 -0.539914 15.422
38 4 10.6163 1.09805 15.6105
308 2 9.21318 -1.41952 12.0629
178 2 11.0567 2.54401 12.3266
104 2 11.8985 3.59923 16.3017
54 1 10.8059 3.29292 15.9818
41 4 11.172 3.09031 9.44061
276 2 14.5631 1.0515 16.4042
177 2 11.4296 3.28084 14.0657
305 2 12.0406 1.85833 16.3365
71 2 11.7901 3.53663 10.9787
39 4 12.2925 -0.0764637 11.4348
135 3 13.7492 0.108382 10.7869
136 3 10.8784 -0.292486 10.6693
68 2 12.0742 0.929725 12.9608
165 2 13.359 2.41303 13.1054
264 2 8.74007 2.67741 17.3201
279 3 13.7862 -1.79825 16.1613
20 4 15.2942 0.196747 9.92265
326 2 8.94066 -1.67789 13.9828
173 2 11.4405 -1.66203 12.9178
107 2 6.82363 6.23566 3.40988
229 2 8.20479 10.2327 2.01173
297 2 3.44186 11.9393 1.13099
299 2 1.75553 11.106 8.16338
298 1 0.992198 10.9112 7.30409
243 3 1.82367 9.30108 4.64194
292 2 3.21657 8.06359 0.790853
209 4 3.14999 9.74018 3.93785
236 2 2.10544 11.6836 4.63585
300 2 1.21477 11.5848 6.38376
216 1 3.00512 11.6434 3.84555
237 2 3.08858 9.01259 2.28253
212 1 6.24795 10.3897 0.370816
51 1 3.43832 6.63758 5.41259
238 2 3.92846 12.0905 4.28425
265 2 4.04061 7.64644 5.26462
226 2 7.93899 10.3111 3.87409
223 2 2.62881 12.1566 2.66879
88 2 9.02545 8.97729 4.75054
171 2 4.63953 5.97002 7.98412
176 2 8.67304 7.53364 1.29489
61 2 7.66466 7.71488 4.46893
55 1 7.86069 6.68284 3.7689
105 2 8.52127 6.99441 2.85545
74 2 6.76916 6.46114 1.11521
218 2 6.06985 9.43161 1.79484
97 2 5.24394 6.86357 4.6232
222 2 4.0169 10.9701 8.41429
56 1 10.1899 6.67739 7.43604
219 2 4.7852 11.6024 2.96597
110 2 9.76322 7.6645 7.47968
205 4 6.22536 11.3318 2.1192
246 3 4.52415 9.34374 4.53681
211 4 5.55287 9.8855 5.71147
245 3 7.33972 9.09928 5.26474
248 3 5.4783 11.508 6.05078
313 2 7.39305 8.69943 6.19843
247 3 5.1578 8.89703 7.16009
317 2 5.74611 11.8961 0.333484
154 1 9.80279 7.46495 1.30576
164 2 10.7303 6.7425 5.61821
316 2 7.37994 10.3079 0.191751
65 2 1.21777 12.5775 1.84587
163 2 10.1288 7.8615 0.362411
175 2 10.1755 6.37732 1.34487
174 2 8.44187 5.9425 4.39872
90 2 5.90535 5.54165 7.46497
72 2 8.90659 6.76794 8.74877
210 4 5.39459 8.70092 8.76014
30 4 4.84071 4.64128 16.8943
142 3 6.16033 5.23186 16.2334
239 2 5.51794 10.4014 10.349
256 2 10.2383 5.35538 14.8616
315 2 7.1301 7.44241 17.0684
240 2 4.84199 7.05222 9.19204
268 4 4.23598 9.97534 16.953
253 2 2.51844 8.26712 16.144
289 2 6.75446 7.62783 12.0786
290 2 6.3516 8.56401 13.6493
241 2 3.94997 9.43578 10.4176
296 2 2.38001 10.314 17.0521
287 1 7.07011 8.56457 12.7837
191 2 3.83164 9.99757 13.0567
272 2 4.22561 8.37732 16.2253
43 4 7.62973 4.43258 16.0386
160 1 4.0014 8.76509 12.9926
67 2 10.6141 6.69788 13.5297
73 2 8.92489 5.57089 15.9741
152 4 2.57956 7.64447 12.7785
172 2 4.38296 8.33197 14.0195
195 3 9.51128 8.61021 10.2067
166 2 6.38553 5.39705 11.5402
181 2 10.4921 6.46496 11.7919
224 2 7.54053 6.51979 10.8415
190 2 4.66621 8.44031 12.1167
217 1 4.69101 9.98296 9.75365
318 2 8.36629 9.34429 16.5543
260 2 6.65616 10.1675 13.8719
261 2 8.72956 8.15254 13.3404
258 4 8.39856 9.8651 13.9606
257 2 8.93502 6.69745 14.4855
288 2 6.80744 9.51794 12.1561
251 1 10.0511 6.48371 14.5987
147 4 8.55349 9.56265 9.40014
57 1 6.53736 6.06023 10.742
244 3 7.12367 8.94112 9.14173
275 2 3.52871 7.34982 17.4681
328 2 5.75691 6.82936 10.844
111 2 6.4713 5.46263 9.7871
ITEM: TIMESTEP
200
ITEM: NUMBER OF ATOMS
331
ITEM: BOX BOUNDS xy xz yz pp pp pp
-8.6558941795506463e+00 1.6992590935126586e+01 -8.8138479511546794e+00
-2.3082318705380849e+00 1.3000996215598949e+01 1.4418447067307354e+00
-1.5199799933352409e-02 1.7539999799933383e+01 -2.3940356549391200e+00
ITEM: ATOMS id type x y z
230 2 -3.16346 5.29276 2.86118
1 4 0.455545 2.77808 6.06217
2 4 0.86973 4.04999 2.91228
3 1 1.80408 3.65753 6.9402
8 2 1.27673 3.65968 8.02313
9 2 1.26966 1.15313 6.09179
10 2 1.75474 4.69539 6.51696
18 3 0.552392 3.48726 4.4156
83 2 1.81159 -0.126431 7.2379
161 2 -0.598402 3.82755 1.65151
6 1 0.699832 2.80551 1.45203
15 2 2.31024 3.34514 2.10609
5 1 3.10568 0.884571 2.23951
12 2 3.67826 1.38103 3.13439
4 1 2.03564 -0.621902 6.1676
16 2 -1.35367 5.53371 3.46113
131 3 -1.00914 2.68808 6.70516
11 2 2.89153 3.12138 6.9653
17 2 0.532775 1.83724 2.01986
187 2 3.21863 4.97231 7.82985
14 2 2.20478 1.56941 1.92936
214 1 -2.42139 5.76805 3.65866
82 2 5.71102 -0.585621 7.21523
95 2 2.78501 5.18677 4.51903
89 2 3.78378 0.7116 1.32522
162 2 2.61489 -0.00484798 5.4293
13 2 1.03532 5.81375 2.66673
252 2 -2.2468 6.46523 0.219763
311 2 0.844609 2.74503 0.327411
118 3 7.22025 -0.173381 6.41016
122 3 4.35546 2.16795 7.10017
27 4 4.23307 1.22424 8.37502
24 4 6.7265 0.348962 2.61961
47 1 4.71185 -0.709641 7.82185
184 2 0.0240611 5.13562 7.73774
117 3 7.23771 0.901948 3.99851
79 2 5.03421 0.519432 2.38255
267 3 3.78154 5.28803 0.0649125
7 2 2.7067 -0.243482 2.52194
294 2 2.89493 6.28677 1.83993
170 2 -0.903861 3.83965 8.84561
149 4 -0.215297 4.91613 10.4923
254 2 -1.83727 3.30064 16.384
145 4 -1.95396 4.29334 12.9707
116 3 2.73996 1.11965 9.16153
188 2 7.39091 -1.41164 12.5796
197 3 -1.02354 4.38907 11.7236
22 4 2.53366 0.443967 10.7213
23 4 2.67744 1.72463 13.4797
112 3 1.01151 -0.465485 10.7338
113 3 3.78626 -0.72665 10.8261
114 3 2.63128 1.59307 11.9483
77 2 2.86519 3.37712 13.9973
44 1 1.20536 2.61833 14.4017
76 2 1.03512 1.61815 15.2937
60 2 1.05473 3.68456 14.8756
75 2 0.479455 2.43466 13.4545
198 3 1.39558 4.87963 10.2687
262 2 1.59504 -1.71654 16.0217
125 3 3.45615 0.775398 14.4742
278 2 1.62491 0.836785 16.4399
59 2 -0.00898348 1.88012 9.82095
271 1 0.789922 0.0396305 16.4046
186 2 4.23032 4.64387 9.98056
322 2 7.37587 -1.49706 16.8184
121 3 4.71242 -1.36443 15.9604
119 3 5.26975 -0.671656 13.1498
84 2 6.05794 0.663025 9.6682
85 2 5.20175 2.0788 10.4629
29 4 4.87554 -0.0284865 14.656
48 1 5.60635 1.70445 9.51056
120 3 6.14248 0.918304 15.0515
99 2 6.24042 1.21877 12.3293
310 2 0.743868 -0.641345 14.7342
189 2 0.991267 -0.762124 17.1777
250 1 -1.71805 4.16354 17.0582
326 2 8.41501 -1.53012 14.1086
157 1 -1.51516 5.27136 8.94118
183 2 -2.64877 5.25701 8.80647
21 4 4.2712 -1.57252 12.2814
291 1 2.46633 7.11967 2.46115
221 2 -5.81404 11.0845 3.2222
169 2 -4.98474 10.5205 5.46023
143 4 -5.40177 11.173 7.01432
213 1 -6.9635 10.9128 2.94529
228 2 -5.01223 10.0481 3.79202
220 2 -3.53618 9.42678 4.86396
49 1 -5.35019 8.98155 4.18283
167 2 -4.75546 8.6993 5.17869
144 4 -3.2183 6.15462 5.25304
274 2 -2.79508 7.43747 3.76764
80 2 -3.36838 11.2136 2.6279
225 2 -7.67153 11.7093 5.72284
87 2 -2.15702 11.7323 5.33572
193 3 -6.19302 10.2717 8.06266
285 2 -5.88549 12.0958 0.515871
286 2 -4.21706 11.033 0.771789
200 3 -1.52404 10.4686 8.12977
158 1 3.82566 5.69508 8.53827
70 2 -4.22615 6.89649 0.0838286
185 2 2.98846 7.03808 8.68029
45 1 -2.20372 11.179 2.72855
293 2 2.8508 7.03742 3.54554
192 3 -2.17613 6.27213 6.43369
206 4 -2.13063 10.3081 4.37364
324 2 0.726939 9.35052 7.15896
62 2 0.290353 9.8389 0.0489402
108 2 -4.49038 6.82381 7.63688
93 2 2.35042 6.73764 5.29137
78 2 -1.04256 12.089 1.57731
235 2 -0.745175 6.71494 4.46841
98 2 -1.73702 10.2714 2.14641
146 4 -1.11989 6.46705 7.59981
199 3 -0.634795 7.79854 8.29994
207 4 0.544928 8.87411 5.34409
215 1 0.376677 7.13944 4.811
232 2 1.36432 7.25733 2.41653
233 2 0.722705 6.69898 5.86095
234 2 1.14865 7.16468 3.85249
242 3 -0.807351 9.58994 4.79718
26 4 -0.493971 11.7325 7.85335
227 2 -5.15757 8.15529 3.28673
312 2 -7.7264 12.4256 2.82052
156 1 -3.90175 7.07411 11.6366
127 3 3.53541 4.70162 16.1188
249 4 -0.967427 5.39709 15.8965
126 3 0.885072 5.27455 16.107
159 1 -0.461443 11.1285 13.0022
319 2 -3.19003 6.31374 11.1366
81 2 -4.01155 11.6184 8.84599
19 4 -4.82257 10.2108 16.253
115 3 -6.11043 10.8586 13.113
284 2 -4.53965 7.60907 17.0917
283 1 -3.94865 8.50762 16.8915
148 4 -4.14169 8.65998 10.5658
194 3 -1.43134 4.88639 14.4629
180 2 -3.38106 7.61671 12.5278
196 3 -4.00865 9.91975 11.893
201 3 -3.02409 8.68068 9.27731
325 2 -3.97751 8.80671 15.192
202 3 2.96494 6.78215 11.4387
303 2 -0.569309 9.47005 17.3393
204 3 1.09254 8.44061 12.571
153 4 -0.136243 9.52745 12.0073
282 2 -0.316228 10.869 15.3853
259 1 -6.60757 10.0441 15.7759
280 4 -1.95297 8.41499 16.707
281 2 -2.21538 10.1052 15.2927
150 4 2.7729 5.72845 10.245
331 3 -1.59077 6.95654 16.2606
327 2 -1.35514 9.40745 13.2239
301 1 -0.987486 9.91887 15.5763
203 3 -0.761258 9.35989 10.5069
34 4 2.3657 5.70827 15.8383
302 2 -0.584883 9.04862 14.906
182 2 -0.944714 6.54466 10.1733
64 2 2.49435 6.64923 14.2588
151 4 -1.50368 9.10305 9.09414
270 1 2.62102 7.30405 16.8608
195 3 -5.75395 8.64997 10.0553
168 2 -7.13816 10.949 10.2761
255 2 -4.71215 7.25768 15.4974
28 4 7.87915 1.07694 5.67912
31 4 5.87013 3.16347 6.36828
123 3 7.31573 2.50677 6.29337
124 3 5.30488 4.09 5.17205
128 3 9.45269 0.904275 5.54849
263 4 5.17976 4.87441 0.795797
50 1 6.24091 4.35506 7.71885
96 2 4.87166 5.01107 2.55701
109 2 7.60672 4.11561 8.23551
266 3 5.92668 3.50996 0.411667
46 1 7.62149 1.52725 1.20527
91 2 9.54493 5.10414 6.24814
320 2 7.71194 2.30949 2.05035
40 4 9.54991 4.07688 2.94273
69 2 9.47394 3.71643 1.07877
321 2 8.58412 1.06897 0.783797
137 3 10.0855 2.93807 3.95366
42 4 9.27427 5.11022 8.0964
106 2 8.00196 4.80627 3.09753
32 4 4.5728 5.22657 4.28133
58 2 10.5653 5.64317 2.90149
35 4 10.6667 1.75335 4.93175
92 2 5.31808 4.00302 8.39649
273 2 11.1019 0.779148 1.03
304 1 10.8608 4.58311 1.57998
37 4 12.7291 2.07937 7.14249
132 3 11.7121 2.44102 5.86455
139 3 12.389 2.65746 8.60012
133 3 12.7191 0.428038 7.26975
208 4 13.8314 -0.691185 7.50946
129 3 15.1389 -0.25954 8.40822
323 2 11.5515 0.770582 3.86915
306 2 11.6241 3.80032 1.90478
52 1 6.56503 6.10711 0.187275
330 2 11.3466 5.22689 0.730867
231 2 12.0262 4.4514 4.60834
90 2 6.0564 5.40916 7.34714
264 2 7.54173 5.47549 0.0791032
277 2 13.4438 0.076616 14.2962
20 4 15.0511 0.228608 9.96272
33 4 7.27023 1.87769 14.3165
53 1 7.34855 1.68903 12.5156
63 2 7.43715 2.79435 12.1728
66 2 8.61683 0.806603 11.5043
309 2 11.6763 0.215153 14.6086
314 2 13.1853 -1.41698 13.2311
100 2 8.63837 0.872878 13.518
130 3 8.83904 -0.3259 9.08364
134 3 9.53161 0.482215 16.4546
141 3 7.75864 3.36454 14.9398
36 4 9.70164 0.496184 10.1438
25 4 8.22058 -0.0951403 17.3876
101 2 9.89105 2.40177 14.5323
138 3 10.1817 1.89315 9.73977
103 2 10.1709 3.41761 16.9421
102 2 10.2822 3.96147 15.1237
86 2 6.37301 2.35975 9.14346
140 3 10.3704 4.39477 9.02616
155 1 11.7339 3.20575 12.9377
307 1 12.2078 -0.864665 13.1569
269 4 14.4779 -0.481695 15.5977
38 4 10.6785 1.23855 15.6193
308 2 9.39259 -1.31263 12.3002
178 2 11.0299 2.65071 12.3748
104 2 11.8879 3.76659 16.124
54 1 10.7791 3.36587 15.9559
41 4 11.0827 3.07504 9.44599
279 3 13.9072 -1.79075 16.2251
177 2 11.3921 3.29459 14.0679
305 2 11.8641 1.90406 16.7064
71 2 11.8231 3.39804 10.9833
39 4 12.2762 -0.0951547 11.464
135 3 13.6843 0.058768 10.727
136 3 10.9248 -0.37571 10.6556
68 2 12.0972 1.0181 12.8765
165 2 13.3487 2.41471 13.057
173 2 11.3486 -1.63468 13.0264
276 2 14.7388 0.885439 16.7924
94 2 3.73136 6.34662 6.61976
229 2 8.41613 10.2894 2.02773
297 2 3.24888 11.5611 1.09562
299 2 1.87658 11.3024 7.82409
298 1 1.01665 10.9978 7.15726
243 3 1.85965 9.33373 4.60254
292 2 3.24474 7.87692 0.963975
209 4 3.21374 9.80059 3.82321
236 2 2.21035 11.701 4.57196
300 2 0.967111 11.4739 6.08691
216 1 3.16051 11.6795 3.74792
237 2 3.18031 8.87833 2.29375
212 1 6.27969 10.1931 0.414049
51 1 3.50611 6.68532 5.49243
238 2 4.0614 12.2939 4.15154
265 2 3.97811 7.70061 5.13485
226 2 7.95311 10.2854 3.8555
223 2 2.70867 12.0876 2.67049
88 2 8.97141 9.00758 4.50884
171 2 4.85103 5.89367 8.01136
176 2 8.39786 7.38513 1.03393
61 2 7.55937 7.68946 4.25811
55 1 7.87644 6.6923 3.73101
105 2 8.51351 7.01855 2.71922
74 2 6.46688 6.7057 1.26611
218 2 6.02855 9.2914 1.31353
97 2 5.24184 6.80918 4.59394
222 2 4.13474 10.9628 8.59362
56 1 9.89118 6.66743 7.11956
219 2 5.03274 11.4625 3.02871
110 2 9.17038 7.61681 7.06763
205 4 6.42294 11.3311 2.09038
246 3 4.59939 9.3664 4.59358
211 4 5.52646 9.9618 5.7999
245 3 7.25481 9.1986 5.08531
248 3 5.42391 11.5542 6.02597
313 2 7.74713 9.53697 5.8571
247 3 5.27064 9.21096 7.26473
317 2 6.09659 12.1006 0.603097
154 1 9.49942 7.48257 1.04146
164 2 10.2924 6.33173 5.37128
175 2 10.0621 6.42941 1.20264
65 2 0.996566 12.5316 1.64946
163 2 9.81196 7.93232 0.113417
107 2 6.98456 6.12169 3.49038
295 1 1.84202 12.6429 0.923009
329 2 9.81249 8.16468 1.98526
72 2 8.74444 6.74417 8.59512
174 2 8.53952 6.1629 4.43951
30 4 4.89575 4.43476 17.0449
142 3 6.15424 5.12588 16.3369
239 2 5.10776 10.4572 10.5075
256 2 10.3017 5.34985 14.8077
315 2 6.92782 7.75516 17.2138
240 2 4.83025 7.24745 9.06121
268 4 4.24533 9.72554 16.9183
253 2 2.53089 8.04254 15.9941
289 2 6.95845 7.63138 11.8543
290 2 6.19985 8.61422 13.3499
241 2 3.60592 9.29393 9.96829
296 2 2.40472 10.0172 17.0189
287 1 7.17544 8.50545 12.6769
191 2 3.70203 10.0262 12.9571
272 2 4.2125 8.21374 16.0286
43 4 7.70413 4.48312 16.0856