ITEM: TIMESTEP
0
ITEM: NUMBER OF ATOMS
331
ITEM: BOX BOUNDS xy xz yz pp pp pp
-8.4398952949702419e+00 1.6824244563491362e+01 -8.5978490665742733e+00
-2.3082318705380849e+00 1.3000996215598949e+01 1.4274262596634280e+00
-1.5199799933352409e-02 1.7539999799933383e+01 -2.3940356549391200e+00
ITEM: ATOMS id type x y z
230 2 -2.86494 5.15223 2.70097
1 4 0.632543 2.81357 5.67637
2 4 1.10807 4.08506 2.59196
3 1 1.9254 3.42056 6.84853
8 2 1.31836 3.29396 7.80906
9 2 1.11574 1.16554 5.63428
10 2 1.91596 4.52966 6.51883
18 3 0.799982 3.53849 4.24305
83 2 1.94546 0.243381 7.10362
161 2 -0.331124 3.93092 1.41911
6 1 0.983252 2.71209 1.3642
15 2 2.59074 3.25256 1.71849
5 1 3.25119 0.627188 2.18754
12 2 3.84 1.01457 3.044
4 1 1.82233 -0.603959 6.19252
16 2 -1.11674 5.28877 3.50145
131 3 -0.874605 2.84327 6.38445
11 2 2.96685 2.96653 6.95367
17 2 0.62917 1.71464 1.83207
187 2 2.96399 4.83011 7.90623
14 2 2.42043 1.38057 1.93546
214 1 -2.15998 5.63868 3.51313
266 3 5.60179 3.31035 0.470283
95 2 2.92079 5.26489 4.4093
89 2 3.88062 0.553177 1.25169
162 2 2.25023 -0.254969 5.21174
13 2 1.42074 5.80242 2.38977
79 2 5.08627 -0.00259682 2.36063
311 2 0.88176 2.6268 0.185637
118 3 7.33293 -0.0643143 6.59702
122 3 4.63679 2.09259 7.18913
27 4 4.49919 1.10151 8.42767
24 4 6.80396 0.145533 2.66463
47 1 4.615 -0.782307 7.8707
184 2 -0.11089 5.20234 7.84176
117 3 7.08358 0.734437 4.04433
82 2 5.41603 -0.717463 7.05958
170 2 -0.78991 3.7876 8.92482
149 4 -0.291892 4.75799 10.449
254 2 -1.62565 3.18773 16.1945
145 4 -1.66466 3.93402 13.1276
116 3 3.03947 1.17617 9.22227
250 1 -1.33911 4.01573 16.962
197 3 -0.909861 4.18994 11.768
22 4 2.62687 0.472444 10.7101
23 4 2.7936 1.81178 13.4049
112 3 1.03566 -0.381759 10.7166
113 3 3.93524 -0.501724 11.1161
114 3 2.77424 1.83107 11.807
77 2 2.4828 3.36367 14.2275
44 1 1.03313 2.07722 14.0456
76 2 0.892133 1.32586 14.9646
60 2 0.762976 3.2249 14.3137
75 2 0.456477 1.62847 13.1166
267 3 5.18013 3.11181 17.4393
262 2 1.65635 -1.75802 16.0063
125 3 3.54412 0.784829 14.3737
278 2 1.58661 0.454532 16.5222
59 2 0.112771 1.95298 9.61215
271 1 0.650086 -0.0977493 16.3089
186 2 3.90971 4.4758 9.86077
322 2 7.30689 -1.45053 16.7094
121 3 4.54747 -1.08285 16.2086
119 3 5.02793 -1.03287 13.4078
84 2 6.02535 0.623716 10.3951
85 2 5.74307 2.55335 10.1244
29 4 4.82626 -0.108501 14.7758
48 1 5.91887 1.54111 9.60242
120 3 6.12577 0.867986 14.8557
99 2 6.42196 1.42537 12.033
310 2 0.741843 -0.730656 14.6673
183 2 -2.76474 5.31205 8.8106
276 2 -0.54324 1.14134 16.5419
326 2 8.83095 -1.80697 14.1026
198 3 1.21208 5.14417 10.2449
188 2 7.33296 -1.64652 12.8428
252 2 -0.325487 3.84593 17.4179
291 1 2.54442 7.38171 2.38665
221 2 -5.83509 11.0636 3.25835
169 2 -5.27088 10.7131 5.51567
143 4 -5.43407 11.2783 7.10237
213 1 -6.94697 10.8985 3.03628
228 2 -4.92152 10.1037 3.90482
220 2 -3.40384 9.5929 5.0225
49 1 -5.16047 9.07085 4.42106
167 2 -4.55262 8.89035 5.36515
144 4 -3.05371 6.26116 5.07594
274 2 -2.34289 7.23995 3.5451
80 2 -3.32148 10.6081 2.68147
62 2 0.156849 9.34397 0.0251504
87 2 -1.69185 11.7959 5.53888
193 3 -6.08695 10.0037 8.14584
285 2 -5.83635 11.7715 0.315122
286 2 -4.36302 10.9921 0.758989
200 3 -1.48867 10.4658 8.56042
158 1 3.57963 5.70135 8.49545
70 2 -3.68872 6.89909 0.103134
294 2 3.03257 6.60538 1.68316
45 1 -2.18947 10.9537 2.79636
293 2 2.8812 7.12878 3.49012
192 3 -2.16787 6.49204 6.35042
206 4 -1.98324 10.4117 4.44471
324 2 0.389975 9.46601 6.92659
227 2 -4.99963 8.20404 3.69984
163 2 -4.66647 8.07506 0.481254
93 2 2.3743 6.85433 5.16647
78 2 -0.625067 11.7996 2.0793
235 2 -0.646964 6.66165 4.30464
98 2 -1.43776 10.3117 2.233
146 4 -1.25245 6.55151 7.63845
199 3 -0.758691 7.98096 8.42894
207 4 0.517901 8.85823 5.2544
215 1 0.383647 7.11638 4.68102
232 2 1.47064 7.45616 2.25083
233 2 0.760073 6.6672 5.70958
234 2 1.2111 7.0827 3.78058
242 3 -0.782793 9.4837 4.47159
26 4 -0.482206 11.7928 8.13649
7 2 -5.91985 12.532 2.44294
312 2 -7.62193 12.4103 2.68112
108 2 -4.14324 7.17094 7.62593
185 2 2.85931 7.00634 8.54006
81 2 -3.68143 11.4903 8.7606
156 1 -3.92751 6.88051 11.6713
127 3 3.5031 4.7734 15.925
249 4 -0.851449 5.42732 15.7954
126 3 0.806844 5.36148 15.9089
159 1 -0.189287 10.9708 13.0086
319 2 -3.28464 6.25098 11.0358
21 4 -4.51233 11.3139 12.2499
19 4 -4.65766 10.3185 16.1958
115 3 -5.91014 10.793 12.9977
284 2 -4.21681 7.66215 16.408
283 1 -3.67339 8.60193 16.5848
148 4 -4.21376 8.54844 10.7677
194 3 -1.46092 4.99364 14.3795
180 2 -3.44181 7.23522 12.6144
196 3 -3.84437 9.67833 11.737
201 3 -3.10041 8.52411 9.38901
325 2 -3.66564 9.40548 14.9308
202 3 3.23424 6.74515 11.3664
303 2 -0.459701 9.50956 17.5242
204 3 1.46761 8.52867 12.4916
153 4 0.0906218 9.28903 12.1323
282 2 0.0872382 10.7974 15.4294
259 1 -6.44146 10.0943 15.7949
280 4 -1.85913 8.44222 16.8219
281 2 -1.73552 10.1696 15.3777
150 4 2.67423 5.71416 10.2056
331 3 -1.44373 6.82051 16.4578
327 2 -1.03392 9.2319 13.4291
301 1 -0.653885 9.90033 15.7492
203 3 -0.667718 9.12633 10.7954
34 4 2.34051 5.79959 15.7441
302 2 -0.294906 8.94277 15.1632
182 2 -1.37805 6.46985 10.2438
64 2 2.57126 6.71585 14.2123
151 4 -1.59643 9.06277 9.28297
270 1 2.50773 7.30754 16.9732
253 2 2.22225 8.19565 16.3664
157 1 -1.58588 5.4099 9.05721
28 4 7.79968 1.21911 5.59352
31 4 5.94683 3.33335 6.61497
123 3 7.32694 2.60508 6.29388
124 3 5.34102 4.30992 5.3545
128 3 9.42131 1.11382 5.43753
263 4 5.07042 4.82844 0.755924
50 1 6.47089 4.46541 7.97722
96 2 4.9014 5.10777 2.59204
109 2 7.69249 4.55351 7.88636
264 2 7.18194 5.00264 0.0206844
46 1 7.62109 1.11088 1.09475
91 2 9.92711 5.41194 6.17472
320 2 8.23594 2.02166 1.58443
40 4 9.60094 4.13402 2.81706
69 2 9.79003 3.62469 0.866252
295 1 10.9718 0.243495 1.06919
137 3 10.0766 3.03131 3.7751
42 4 9.45147 5.43425 8.05252
106 2 8.05836 4.84183 3.12421
32 4 4.67523 5.35284 4.39141
58 2 10.6749 5.5633 2.81637
35 4 10.5883 2.00563 4.88149
175 2 10.3764 6.2869 1.25471
273 2 11.4098 1.35199 0.982046
304 1 11.0487 4.34617 1.4454
37 4 12.7183 2.1852 6.95504
132 3 11.5116 2.6773 5.99487
139 3 12.3951 2.69996 8.50984
133 3 12.8754 0.565325 6.99519
208 4 13.7181 -0.664408 7.45044
129 3 14.9949 -0.321076 8.37877
323 2 11.5996 0.844138 4.10281
306 2 11.7504 3.55795 1.78186
52 1 6.43064 5.94022 0.185288
330 2 11.5707 5.03766 0.685131
65 2 10.3775 0.0579211 1.9832
321 2 8.32694 0.330284 0.683243
231 2 12.1576 4.4765 4.61663
277 2 13.5045 0.187513 13.8642
179 2 11.519 4.40542 12.4541
33 4 7.15692 1.88705 14.2106
53 1 7.34549 1.99274 12.4079
63 2 7.37198 3.10512 12.1334
66 2 8.78767 0.99089 11.7283
309 2 11.1974 -0.1495 14.4957
314 2 13.197 -1.33731 13.1693
100 2 8.63792 1.16903 13.4766
130 3 8.62463 -0.231313 9.43715
134 3 9.3425 0.490983 16.4493
141 3 7.71043 3.32166 15.0415
36 4 9.65168 0.593328 10.2107
25 4 8.19999 -0.174881 17.4596
101 2 10.0069 2.38777 14.4854
138 3 10.1365 1.91599 9.57282
103 2 10.2339 3.02539 16.9513
102 2 10.5137 3.87972 15.2104
86 2 6.7458 1.53403 8.84091
140 3 10.3138 4.44891 8.94992
155 1 11.802 3.25931 12.9289
307 1 12.1058 -0.924178 13.1001
269 4 14.2451 -0.345327 15.3513
38 4 10.4774 1.10917 15.6205
308 2 9.04968 -1.36546 12.2209
178 2 11.2137 2.4903 12.4127
104 2 12.0314 3.43006 16.4274
54 1 10.9168 3.11731 16.0451
41 4 11.1401 3.04627 9.39166
189 2 15.7984 -0.996094 17.0728
177 2 11.4384 3.2719 14.1348
305 2 11.9641 1.54878 16.5137
71 2 11.7211 3.37814 10.9401
39 4 12.2025 -0.0109781 11.4753
135 3 13.5818 0.0649916 10.6998
136 3 10.8588 -0.415478 10.7069
68 2 12.0086 0.923004 13.0883
165 2 13.3211 2.29659 13.6263
92 2 6.12227 3.79473 8.89841
279 3 13.511 -1.63357 16.0144
20 4 15.0177 0.288304 9.87574
107 2 7.06261 6.17724 3.25095
94 2 3.63269 6.40271 6.54209
297 2 3.49219 12.0255 0.98788
299 2 1.73338 11.1137 8.1067
298 1 0.928264 11.1267 7.31034
243 3 1.93399 9.43827 4.65041
292 2 3.13309 8.07079 0.673772
209 4 3.25337 9.84745 3.92898
236 2 2.28192 11.81 4.67037
300 2 1.04314 11.795 6.34814
216 1 3.19135 11.769 3.86568
237 2 3.23534 9.09002 2.28632
212 1 6.13254 10.3146 0.382239
51 1 3.49694 6.77998 5.43472
238 2 4.1459 12.3507 4.26677
265 2 3.94357 7.80326 5.29297
226 2 7.82245 10.3341 3.92579
223 2 2.87137 12.2188 2.74805
88 2 8.95781 9.02754 4.72189
171 2 4.67126 5.85331 8.03002
176 2 8.87452 7.37355 0.944347
61 2 7.59405 7.68349 4.2386
55 1 7.9353 6.7103 3.71216
105 2 8.67304 7.00141 2.78692
74 2 6.51815 6.56495 1.2638
218 2 5.89322 9.30293 1.51343
97 2 5.23539 7.0016 4.59303
222 2 3.92229 11.0735 8.30675
56 1 10.1249 6.86297 7.1439
219 2 5.01206 11.8725 3.33905
110 2 9.34845 7.72522 6.96722
205 4 6.24682 11.1875 2.16762
246 3 4.54431 9.51524 4.61714
211 4 5.47059 9.73434 5.92393
245 3 7.22126 9.1679 5.15663
248 3 5.66085 11.3599 6.17815
313 2 7.72757 9.52629 5.92727
247 3 4.99918 8.96614 7.19756
317 2 5.80094 12.0669 0.620949
154 1 9.97408 7.40027 1.25261
164 2 10.5642 6.90989 5.29464
225 2 7.42349 11.9649 6.11603
210 4 5.43484 8.60008 8.73278
229 2 8.26145 10.1593 2.10758
72 2 8.99568 7.07386 8.70955
329 2 10.0946 7.84781 2.33299
90 2 5.96674 5.54228 7.94108
174 2 8.42789 5.96569 4.48739
275 2 1.93937 9.85062 0.0944423
30 4 4.82288 4.60737 16.8898
142 3 6.26631 5.21323 16.2096
239 2 5.09119 10.3926 10.2787
256 2 10.2137 5.17176 14.7924
315 2 6.78581 7.75986 17.2179
240 2 4.72851 7.11576 9.22963
268 4 4.31649 10.0367 16.8515
255 2 10.2984 6.88246 15.4271
289 2 6.73031 7.40271 12.4022
290 2 6.45889 8.30696 13.9655
241 2 3.59342 9.39232 9.94081
173 2 2.80907 11.1824 12.7565
287 1 7.09122 8.2846 13.0685
191 2 3.88566 10.0318 13.2036
272 2 3.92829 8.47822 16.1357
43 4 7.6451 4.42868 16.1426
160 1 4.13119 8.86616 13.1396
67 2 10.5385 6.51237 13.5221
73 2 9.02502 5.4767 16.1219
152 4 2.83629 7.63674 12.6904
172 2 4.38634 8.40688 14.1936
195 3 9.36876 8.51005 10.266
166 2 6.86607 5.35424 11.6777
181 2 10.2514 6.34424 11.844
224 2 7.35491 6.94181 10.7733
190 2 4.85294 8.56001 12.2648
217 1 4.44838 9.96864 9.54085
318 2 8.29705 9.22266 16.5109
260 2 6.83359 9.95213 14.0976
261 2 8.78763 8.02527 13.61
258 4 8.52254 9.74102 13.9128
257 2 8.82405 6.3188 14.4292
288 2 6.80627 9.21259 12.4566
251 1 9.93559 6.22798 14.532
147 4 8.40275 9.50545 9.45259
57 1 6.60336 6.10179 10.818
244 3 6.99523 8.7303 9.10595
168 2 8.03559 10.8243 10.395
328 2 5.59654 6.57718 10.9716
111 2 6.58922 5.47949 9.76101
296 2 2.59564 10.4923 17.3439
316 2 8.54184 7.80495 17.5351
ITEM: TIMESTEP
100
ITEM: NUMBER OF ATOMS
331
ITEM: BOX BOUNDS xy xz yz pp pp pp
-8.4398952949702419e+00 1.6824244563491362e+01 -8.5978490665742733e+00
-2.3082318705380849e+00 1.3000996215598949e+01 1.4274262596634280e+00
-1.5199799933352409e-02 1.7539999799933383e+01 -2.3940356549391200e+00
ITEM: ATOMS id type x y z
230 2 -2.96031 5.1786 2.74169
1 4 0.466492 2.84715 5.83914
2 4 0.896893 3.99379 2.86861
3 1 1.84838 3.5215 6.92027
8 2 1.27826 3.3203 7.9533
9 2 1.37173 1.32521 5.94713
10 2 1.78967 4.63296 6.50739
18 3 0.675153 3.43927 4.32158
83 2 1.80657 0.0850849 7.16246
161 2 -0.546835 3.80689 1.81527
6 1 0.98582 2.81684 1.36099
15 2 2.49349 3.25786 1.92704
5 1 3.26318 0.692085 2.03827
12 2 3.82459 1.14624 2.91287
4 1 1.98287 -0.503762 6.19915
16 2 -1.07884 5.29254 3.496
131 3 -0.98622 2.82886 6.54412
11 2 2.9108 3.03037 6.84591
17 2 0.602044 1.8171 1.70757
187 2 3.09766 4.86077 7.86158
14 2 2.38514 1.47808 1.75035
214 1 -2.16575 5.66142 3.59567
267 3 3.79177 5.51283 0.121725
95 2 2.95959 5.1991 4.20923
89 2 3.96614 0.590696 1.15373
162 2 2.44222 0.118041 5.37974
13 2 1.49211 5.63597 2.66925
79 2 5.107 0.0597043 2.2554
311 2 0.89404 3.08244 0.246027
118 3 7.2678 -0.064878 6.49825
122 3 4.51875 2.1053 7.07905
27 4 4.33735 1.13348 8.3308
24 4 6.7373 0.366147 2.63272
47 1 4.59177 -0.688527 7.91283
184 2 -0.0338994 5.18764 7.7396
117 3 7.02038 0.838359 4.02202
82 2 5.56687 -0.58262 7.30723
252 2 -1.94007 6.33003 0.0853795
170 2 -0.746443 3.78034 8.91922
149 4 -0.203181 4.84912 10.4658
254 2 -1.79104 3.2288 16.4284
145 4 -1.86867 4.28697 12.9789
116 3 2.91426 1.21567 9.10501
250 1 -1.51178 4.09999 17.0202
197 3 -0.897665 4.30689 11.7614
22 4 2.67172 0.464327 10.7344
23 4 2.8485 1.85509 13.4154
112 3 1.11916 -0.49053 10.7092
113 3 3.83464 -0.655492 10.9792
114 3 2.69233 1.65062 11.8514
77 2 2.65852 3.5463 13.8708
44 1 1.1405 2.38474 14.0966
76 2 0.980287 1.43012 14.9798
60 2 0.721484 3.30254 14.4705
75 2 0.590561 2.06677 13.086
198 3 1.35643 4.97634 10.2451
262 2 1.54824 -1.66594 16.1093
125 3 3.4458 0.808832 14.4389
278 2 1.47666 0.956674 16.6659
59 2 0.154433 1.90385 9.86523
271 1 0.686565 0.113562 16.4328
186 2 4.06372 4.63421 9.93614
322 2 7.45471 -1.55459 16.7601
121 3 4.65053 -1.33137 15.9458
119 3 5.33475 -0.994509 13.3772
84 2 5.9175 0.567752 10.1339
85 2 4.9821 2.2097 10.1696
29 4 4.80533 -0.0961488 14.6288
48 1 5.66715 1.48675 9.60213
120 3 5.95716 1.08388 14.9215
99 2 6.17514 1.32881 12.4573
310 2 0.965708 -0.562099 14.8587
188 2 7.28967 -1.53944 13.1123
189 2 0.69804 -0.70009 17.1726
183 2 -2.62639 5.26168 8.84907
291 1 2.57686 7.24613 2.42323
221 2 -5.69179 10.9584 3.14179
169 2 -4.86261 10.5305 5.53236
143 4 -5.38617 11.1578 7.07205
213 1 -6.80983 10.8652 2.99224
228 2 -4.89244 10.0628 3.92792
220 2 -3.34824 9.6003 4.95237
49 1 -5.11481 8.92878 4.43741
167 2 -4.42946 8.77948 5.32688
144 4 -2.93435 6.19481 5.20546
274 2 -2.39961 7.32903 3.69237
80 2 -3.46454 11.1353 2.72133
225 2 -7.61901 11.925 5.83973
87 2 -1.97216 11.899 5.43018
193 3 -5.99036 10.1092 8.06349
285 2 -5.41956 12.1268 0.446533
286 2 -4.22691 10.8986 0.760394
200 3 -1.43522 10.4248 8.40802
158 1 3.7104 5.71511 8.50413
70 2 -3.80696 6.92542 0.160435
294 2 3.03235 6.54326 1.67785
45 1 -2.23855 11.0208 2.66306
293 2 2.94946 7.01607 3.51607
192 3 -2.03525 6.37632 6.47267
206 4 -2.00458 10.5331 4.3402
324 2 0.831051 9.37249 7.06935
227 2 -4.98367 8.06097 3.57355
185 2 2.83186 7.04641 8.65176
93 2 2.39895 6.78261 5.10378
78 2 -0.762143 11.8933 2.01682
235 2 -0.554923 6.57827 4.33773
98 2 -1.97281 10.0043 2.12087
146 4 -1.13085 6.55731 7.71442
199 3 -0.545689 7.92418 8.29076
207 4 0.509402 8.77227 5.37908
215 1 0.412741 7.06643 4.75229
232 2 1.37813 7.28128 2.38422
233 2 0.796208 6.57759 5.75683
234 2 1.25673 7.15762 3.84758
242 3 -0.699676 9.60759 4.67428
26 4 -0.395145 11.6866 7.88963
7 2 -5.85201 12.5597 2.36009
312 2 -7.53625 12.4253 2.79979
108 2 -4.08285 6.60738 7.96768
329 2 -4.96986 8.04936 2.20193
94 2 3.57777 6.24053 6.55235
156 1 -3.74092 6.95661 11.7084
127 3 3.5193 4.76847 15.9603
249 4 -0.791986 5.41238 15.8061
126 3 0.791862 5.29109 15.7447
159 1 -0.207149 11.0194 12.9454
319 2 -2.95893 6.31428 11.2008
157 1 -1.45812 5.37023 9.03573
19 4 -4.67357 10.2746 16.3381
115 3 -6.04305 11.0289 13.1645
284 2 -4.4851 7.50499 16.9275
283 1 -3.81687 8.48842 16.7081
148 4 -4.11683 8.6175 10.7115
194 3 -1.51588 4.97536 14.4027
180 2 -3.37553 7.40832 12.6699
196 3 -3.90445 9.92866 11.7494
201 3 -2.99823 8.54648 9.60019
325 2 -3.88406 8.90199 15.1335
202 3 3.05243 6.55052 11.6489
303 2 -0.583932 9.66952 17.4183
204 3 1.26665 8.60415 12.37
153 4 -0.0960473 9.315 12.0269
282 2 -0.0945989 10.7038 15.2354
259 1 -6.47394 10.1947 15.848
280 4 -1.76048 8.40454 16.7825
281 2 -1.88116 9.92278 15.1445
150 4 2.70024 5.80561 10.2134
331 3 -1.28177 6.94138 16.3309
327 2 -1.37971 9.43401 13.1698
301 1 -0.71086 9.80341 15.5898
203 3 -0.655325 9.09288 10.6137
34 4 2.31749 5.74949 15.8028
302 2 -0.185011 8.89014 15.1674
182 2 -1.07346 6.56752 10.2984
64 2 2.5015 6.73225 14.3221
151 4 -1.46886 9.09646 9.21034
270 1 2.65422 7.3642 16.7779
21 4 -4.49743 11.2835 12.3001
255 2 -4.68747 7.22723 15.3656
168 2 -6.90673 10.8558 10.4103
81 2 -3.82236 11.6375 8.90552
62 2 1.60414 7.09492 17.4809
28 4 7.84069 1.17661 5.54693
31 4 5.89325 3.25123 6.4515
123 3 7.28426 2.60928 6.05962
124 3 5.32062 4.21858 5.3601
128 3 9.45633 0.958198 5.45304
263 4 5.13833 4.84865 0.846583
50 1 6.23294 4.49373 7.85226
96 2 4.94272 5.05414 2.57992
109 2 7.47212 4.42751 8.1387
266 3 5.73329 3.34971 0.563268
46 1 7.67659 1.43766 1.26875
91 2 9.71364 5.36069 6.2382
320 2 8.30156 2.02473 1.99142
40 4 9.54725 4.0391 2.8149
69 2 9.56438 3.61245 0.946929
295 1 10.5798 -0.0228139 0.95475
137 3 10.0628 2.89289 3.78663
42 4 9.27016 5.16634 8.02536
106 2 7.97404 4.776 3.18939
32 4 4.70504 5.27195 4.35499
58 2 10.5772 5.53803 2.9513
35 4 10.6664 1.8218 4.88974
175 2 10.1202 6.34703 1.32677
273 2 10.8625 1.06269 1.10011
304 1 10.9348 4.4263 1.50444
37 4 12.6714 2.21578 7.06599
132 3 11.5555 2.58793 5.91126
139 3 12.3484 2.87571 8.4851
133 3 12.77 0.559523 7.13042
208 4 13.6696 -0.715888 7.42829
129 3 14.7884 -0.28171 8.47451
323 2 11.6673 0.695405 3.96764
306 2 11.7166 3.66632 1.90568
52 1 6.52232 5.84699 0.126618
330 2 11.3917 5.14356 0.668078
231 2 12.1011 4.44494 4.62054
321 2 8.20462 0.512255 0.915722
92 2 5.56238 4.04714 8.66902
174 2 8.40017 5.91136 4.39106
90 2 5.88312 5.51285 7.47543
277 2 13.5406 0.167632 14.0428
179 2 11.5845 4.80533 12.3238
33 4 7.29112 1.8826 14.3881
53 1 7.20135 1.81157 12.6216
63 2 7.22343 2.95844 12.4197
66 2 8.51178 1.07833 11.5641
309 2 11.3532 0.0377241 14.5189
314 2 13.2897 -1.34632 13.0534
100 2 8.54725 0.866745 13.4927
130 3 8.57553 -0.196893 9.14724
134 3 9.37785 0.43782 16.5001
141 3 7.73035 3.33436 14.8993
36 4 9.56891 0.595123 10.1127
25 4 8.22072 -0.141251 17.474
101 2 9.88546 2.23096 14.578
138 3 10.0927 1.93743 9.657
103 2 10.1006 3.34536 16.9452
102 2 10.3282 3.94385 15.1863
86 2 6.58167 2.02143 9.01719
140 3 10.2583 4.3587 8.92307
155 1 11.7593 3.23152 12.9245
307 1 12.2114 -0.964044 13.0799
269 4 14.3514 -0.533354 15.4315
38 4 10.5567 1.08607 15.6435
308 2 8.97861 -1.37026 11.9978
178 2 10.999 2.51801 12.3895
104 2 11.8663 3.56877 16.3181
54 1 10.7508 3.27062 16.0047
41 4 11.0899 3.08913 9.4521
264 2 8.81099 2.7823 17.2801
177 2 11.4035 3.30627 14.0976
305 2 11.993 1.82421 16.3814
71 2 11.7331 3.49157 10.9976
39 4 12.1639 -0.0925605 11.4433
135 3 13.6314 0.136944 10.7973
136 3 10.7675 -0.300311 10.6513
68 2 11.9433 0.920318 12.9254
165 2 13.3413 2.36779 13.1434
276 2 14.4028 1.05084 16.428
279 3 13.671 -1.81322 16.1345
20 4 15.1499 0.210617 9.91255
326 2 8.99456 -1.81251 13.9551
107 2 6.78429 6.26274 3.40804
72 2 8.86576 6.79252 8.72008
297 2 3.56412 11.9367 1.09567
299 2 1.89976 11.0308 8.13521
298 1 1.15688 10.886 7.31514
243 3 1.90723 9.28996 4.65295
292 2 3.22697 8.06481 0.76917
209 4 3.21725 9.73701 3.91298
236 2 2.16887 11.7565 4.62831
300 2 1.39151 11.5043 6.40534
216 1 3.07738 11.6526 3.83556
237 2 3.11534 9.05593 2.25511
212 1 6.27578 10.4005 0.377431
51 1 3.50686 6.65303 5.39323
238 2 3.99717 12.0742 4.27016
265 2 4.13468 7.6255 5.31398
226 2 7.9779 10.3301 3.89168
223 2 2.71332 12.1511 2.65267
88 2 9.03361 8.94513 4.74083
171 2 4.7125 6.02459 7.94558
176 2 8.63619 7.5577 1.32776
61 2 7.67171 7.68794 4.46752
55 1 7.83177 6.68341 3.77018
105 2 8.45785 6.98941 2.86553
316 2 7.41321 10.2874 0.251625
218 2 6.05419 9.45259 1.84638
97 2 5.3068 6.8665 4.60054
222 2 4.0712 11.0173 8.46556
56 1 10.1501 6.68971 7.43214
219 2 4.79517 11.6984 2.91909
110 2 9.78077 7.68103 7.38526
205 4 6.26174 11.3193 2.11823
246 3 4.61455 9.34005 4.46406
211 4 5.59114 9.8792 5.71641
245 3 7.37849 9.08066 5.29279
248 3 5.49857 11.4804 6.04844
313 2 7.45481 8.73482 6.25249
247 3 5.16459 8.88235 7.16986
317 2 5.81627 11.9472 0.258399
154 1 9.76938 7.46492 1.29416
164 2 10.6538 6.71554 5.58368
163 2 10.0857 7.8499 0.328692
65 2 1.32678 12.6079 1.83788
229 2 8.27963 10.2149 2.02123
74 2 6.83246 6.46189 1.15342
30 4 4.8608 4.64552 16.8853
142 3 6.19598 5.23094 16.2609
239 2 5.58881 10.3745 10.3974
256 2 10.234 5.36768 14.8895
315 2 7.1565 7.41985 17.0935
240 2 4.89836 7.08541 9.23048
268 4 4.31446 9.98422 16.9421
253 2 2.55221 8.28493 16.1703
289 2 6.7736 7.61914 12.0906
290 2 6.42411 8.54864 13.682
241 2 3.95503 9.45661 10.4228
173 2 2.75378 11.2053 12.9066
287 1 7.10518 8.55178 12.7977
191 2 3.94523 9.96396 13.045
272 2 4.26254 8.39292 16.2171
43 4 7.64187 4.43489 16.0579
160 1 4.10033 8.75309 12.9775
67 2 10.6181 6.68208 13.5299
73 2 8.92052 5.57454 15.9675
152 4 2.66264 7.64073 12.7756
172 2 4.48208 8.30408 13.9939
195 3 9.53409 8.61037 10.2268
166 2 6.41642 5.35523 11.5313
181 2 10.4637 6.44887 11.798
224 2 7.55183 6.49257 10.8444
190 2 4.76368 8.43246 12.1025
217 1 4.71117 9.98695 9.77582
318 2 8.38998 9.37203 16.602
260 2 6.72508 10.1303 13.8875
261 2 8.81181 8.11602 13.3769
258 4 8.4193 9.87177 13.9494
257 2 8.94397 6.73203 14.5069
288 2 6.8598 9.50132 12.2028
251 1 10.0647 6.48467 14.6159
147 4 8.57429 9.55944 9.40251
57 1 6.55421 6.04177 10.7517
244 3 7.15013 8.93431 9.13593
275 2 3.5733 7.35049 17.4513
328 2 5.76445 6.80873 10.8719
111 2 6.4792 5.45401 9.77675
296 2 2.45166 10.3804 17.0309
210 4 5.42118 8.70149 8.77
ITEM: TIMESTEP
200
ITEM: NUMBER OF ATOMS
331
ITEM: BOX BOUNDS xy xz yz pp pp pp
-8.4398952949702419e+00 1.6824244563491362e+01 -8.5978490665742733e+00
-2.3082318705380849e+00 1.3000996215598949e+01 1.4274262596634280e+00
-1.5199799933352409e-02 1.7539999799933383e+01 -2.3940356549391200e+00
ITEM: ATOMS id type x y z
230 2 -3.03423 5.32709 2.84679
1 4 0.517791 2.77288 6.02341
2 4 0.887279 4.06762 2.89621
3 1 1.86672 3.68062 6.92254
8 2 1.29253 3.65595 7.97103
9 2 1.52509 1.3096 6.10971
10 2 1.80095 4.71573 6.47658
18 3 0.587662 3.4699 4.41127
83 2 1.55054 -0.226575 7.08537
161 2 -0.577826 3.97193 1.70364
6 1 0.715019 2.85675 1.38199
15 2 2.34077 3.32699 1.90489
5 1 3.09909 0.842134 2.23284
12 2 3.66952 1.30996 3.12559
4 1 2.02978 -0.602217 6.10879
16 2 -1.25838 5.55259 3.50659
131 3 -0.946268 2.68187 6.70011
11 2 2.97235 3.13242 6.9533
17 2 0.487001 1.94627 1.96046
187 2 3.23003 4.96917 7.84183
14 2 2.17048 1.59979 1.89245
214 1 -2.32355 5.78442 3.62766
267 3 3.77501 5.30523 0.0485439
95 2 2.86897 5.14762 4.42088
89 2 3.75915 0.660663 1.3462
162 2 2.66487 0.159956 5.57478
13 2 1.12297 5.81934 2.65755
79 2 5.06112 0.707494 2.09977
311 2 0.835877 2.79825 0.240106
118 3 7.2194 -0.206267 6.36191
122 3 4.3674 2.17575 7.09544
27 4 4.23249 1.19924 8.37383
24 4 6.70152 0.408249 2.57426
47 1 4.69035 -0.746089 7.77078
184 2 0.0412214 5.06555 7.76657
117 3 7.16122 0.920732 3.92664
82 2 5.717 -0.593101 7.13396
252 2 -2.10304 6.43449 0.294546
170 2 -0.780744 3.77735 8.93059
149 4 -0.16784 4.89164 10.4715
254 2 -1.72086 3.2577 16.4884
145 4 -1.90924 4.2866 13.006
116 3 2.75832 1.11054 9.20992
250 1 -1.60618 4.15645 17.0845
197 3 -0.972357 4.3624 11.7273
22 4 2.562 0.456607 10.7357
23 4 2.66933 1.73745 13.4917
112 3 0.994598 -0.455285 10.75
113 3 3.84176 -0.731577 10.8662
114 3 2.67686 1.62039 11.9548
77 2 2.93204 3.42128 14.0645
44 1 1.22067 2.60865 14.4209
76 2 1.0636 1.60792 15.3187
60 2 1.0726 3.65176 14.9245
75 2 0.480064 2.46938 13.5117
198 3 1.45868 4.89293 10.3085
262 2 1.52604 -1.71982 16.0164
125 3 3.45602 0.74662 14.4395
278 2 1.63195 0.823317 16.5129
59 2 0.0505294 1.85684 9.77315
271 1 0.777171 0.0357234 16.4241
186 2 4.24836 4.61759 9.9954
322 2 7.16563 -1.34481 16.5989
121 3 4.66953 -1.36192 15.9737
119 3 5.38296 -0.714089 13.1897
84 2 6.06974 0.619438 9.63458
85 2 5.13411 2.02768 10.374
29 4 4.86946 -0.0482467 14.6821
48 1 5.68744 1.65425 9.45837
120 3 6.11708 0.907089 15.066
99 2 6.13718 1.29324 12.3419
310 2 0.772429 -0.5847 14.7213
188 2 7.0219 -1.36985 13.0281
189 2 0.844621 -0.829326 17.1505
157 1 -1.45316 5.27109 8.96234
183 2 -2.60955 5.21724 8.78352
291 1 2.54427 7.13387 2.4966
221 2 -5.7046 11.0621 3.43089
169 2 -4.61914 10.3361 5.54295
143 4 -5.20736 11.1338 6.975
213 1 -6.84607 10.8927 2.996
228 2 -4.83374 10.0244 3.79612
220 2 -3.32445 9.38188 4.82189
49 1 -5.17856 8.9641 4.21907
167 2 -4.59683 8.68828 5.21612
144 4 -3.16605 6.14396 5.23482
274 2 -2.67741 7.39691 3.74196
80 2 -3.12438 11.4512 2.52879
225 2 -7.25757 11.7255 5.44144
87 2 -2.17209 11.8294 5.24831
193 3 -6.02005 10.2952 8.07803
285 2 -5.64825 12.085 0.510743
286 2 -4.07104 11.0515 0.82759
200 3 -1.39449 10.4638 8.11438
158 1 3.84908 5.70878 8.56213
70 2 -4.09685 6.91793 0.0843386
294 2 2.96495 6.3205 1.8227
45 1 -2.02177 11.1047 2.69614
293 2 2.92868 7.01072 3.53601
192 3 -2.12928 6.29259 6.44914
206 4 -1.99134 10.3304 4.38216
324 2 0.84766 9.36209 7.17439
312 2 -7.61896 12.5186 2.82341
227 2 -5.02401 8.16417 3.34292
93 2 2.45904 6.70401 5.19419
78 2 -0.958896 11.8334 1.77934
235 2 -0.669596 6.74235 4.42797
98 2 -1.99517 9.95211 2.19203
146 4 -1.0643 6.46851 7.62065
199 3 -0.510907 7.78149 8.31378
207 4 0.640312 8.89247 5.38609
215 1 0.446926 7.15656 4.79589
232 2 1.48057 7.22144 2.44246
233 2 0.832473 6.72958 5.85177
234 2 1.23403 7.21594 3.91798
242 3 -0.65215 9.58836 4.8142
26 4 -0.361962 11.7048 7.85275
185 2 3.01895 7.05929 8.6824
7 2 -5.9551 12.6129 2.56361
81 2 -3.76285 11.4893 8.74901
62 2 0.254348 9.72592 -0.0119601
156 1 -3.77276 7.03743 11.6242
127 3 3.59756 4.75573 16.1264
249 4 -0.903777 5.39363 15.8934
126 3 0.917988 5.23982 16.041
159 1 -0.502733 11.112 13.004
319 2 -3.12269 6.26401 11.0583
282 2 -0.135017 10.8316 15.4485
19 4 -4.66203 10.2026 16.2688
115 3 -5.90496 10.9007 13.0983
284 2 -4.3975 7.67259 17.0815
283 1 -3.78022 8.49918 16.8686
148 4 -4.00372 8.6565 10.602
194 3 -1.38444 4.88451 14.4585
180 2 -3.19338 7.49536 12.5247
196 3 -3.83709 9.87109 11.9225
201 3 -2.88347 8.67259 9.29833
325 2 -3.87073 8.86001 15.1462
202 3 3.03172 6.77949 11.4512
303 2 -0.430103 9.50547 17.4242
204 3 1.1936 8.52045 12.5592
153 4 -0.0867598 9.55169 12.0094
195 3 -5.62315 8.67338 10.1159
259 1 -6.44227 10.0383 15.7671
280 4 -1.82548 8.42536 16.7255
281 2 -1.98865 10.2052 15.4035
150 4 2.84251 5.71142 10.2458
331 3 -1.45457 6.9696 16.2736
327 2 -1.31936 9.32953 13.1859
301 1 -0.799327 9.91157 15.7034
203 3 -0.651841 9.3873 10.5046
34 4 2.41017 5.72502 15.8223
302 2 -0.46783 9.02967 15.0277
182 2 -0.943436 6.53434 10.2297
64 2 2.5554 6.68775 14.2447
151 4 -1.36176 9.08118 9.0869
270 1 2.63568 7.31317 16.8486
21 4 -4.37811 11.2933 12.2869
255 2 -4.52741 7.23186 15.4942
168 2 -7.03469 10.973 10.2497
326 2 0.0478563 10.9739 14.0443
28 4 7.82614 1.0631 5.61156
31 4 5.90146 3.18594 6.37502
123 3 7.34149 2.50784 6.3061
124 3 5.34137 4.09705 5.16276
128 3 9.43549 0.860248 5.43869
263 4 5.19901 4.84359 0.786166
50 1 6.2212 4.33696 7.75443
96 2 4.90087 4.99631 2.52228
109 2 7.51929 4.06891 8.22284
266 3 5.93188 3.46597 0.481242
46 1 7.6166 1.3986 1.11901
91 2 9.57121 4.93743 6.33792
320 2 7.86551 2.25004 1.91808
40 4 9.45306 4.05647 2.89332
69 2 9.37351 3.6788 0.995836
92 2 5.34987 3.90212 8.47411
137 3 10.0219 2.92984 3.89642
42 4 9.20345 5.12096 8.10272
106 2 7.90211 4.75238 3.12933
32 4 4.62461 5.22653 4.27582
58 2 10.4438 5.61343 2.87516
35 4 10.6256 1.76647 4.88532
321 2 8.62187 0.950881 0.702769
273 2 10.9819 0.869508 0.937004
304 1 10.7646 4.58958 1.56391
37 4 12.612 2.09345 7.13561
132 3 11.5874 2.47912 5.86008
139 3 12.2924 2.68596 8.59886
133 3 12.596 0.460205 7.27993
208 4 13.6608 -0.70001 7.53539
129 3 14.9906 -0.292952 8.42906
323 2 11.6166 0.764901 3.84319
306 2 11.5497 3.79644 1.88329
52 1 6.57088 6.06968 0.196452
330 2 11.2466 5.24891 0.756515
231 2 11.9383 4.48189 4.63582
90 2 6.0137 5.43158 7.43896
264 2 7.4766 5.43276 0.0173074
277 2 13.4025 0.120337 14.2152
20 4 14.9306 0.216014 9.9677
33 4 7.2352 1.90113 14.3163
53 1 7.24887 1.7755 12.5023
63 2 7.36068 2.89251 12.1765
66 2 8.47609 0.783903 11.4908
309 2 11.6623 0.101519 14.7097
314 2 13.1025 -1.39302 13.1237
100 2 8.54626 0.932428 13.3725
130 3 8.71951 -0.321693 9.08751
134 3 9.46025 0.500127 16.4662
141 3 7.77079 3.34621 14.9566
36 4 9.56786 0.51053 10.1349
25 4 8.16715 -0.144647 17.3512
101 2 9.90314 2.37856 14.5487
138 3 10.066 1.91525 9.75921
103 2 10.1722 3.46769 16.9166
102 2 10.28 3.93359 15.1378
86 2 6.45658 2.31151 9.14543
140 3 10.3142 4.47595 9.10768
155 1 11.6673 3.14607 12.9602
307 1 12.0706 -0.86166 13.1505
269 4 14.3287 -0.461174 15.566
38 4 10.625 1.20144 15.6763
308 2 8.79997 -1.16835 12.2033
178 2 10.9533 2.58759 12.4056
104 2 11.831 3.72153 16.1887
54 1 10.748 3.36513 15.9815
41 4 10.982 3.07892 9.45505
279 3 13.771 -1.7807 16.1822
177 2 11.3591 3.27755 14.1023
305 2 11.7154 1.87201 16.8019
71 2 11.7421 3.31903 11.034
39 4 12.1398 -0.0782342 11.4505
135 3 13.5472 0.0724591 10.744
136 3 10.7669 -0.357383 10.6818
68 2 11.948 1.01534 12.9761
165 2 13.2224 2.36131 13.1529
276 2 14.5383 0.914633 16.7571
173 2 11.2012 -1.59044 12.9124
94 2 3.71437 6.29961 6.56412
72 2 8.55599 6.81144 8.57943
297 2 3.3485 11.608 1.10142
299 2 2.00009 11.2443 7.93322
298 1 1.19509 10.9696 7.21363
243 3 1.91562 9.36159 4.61408
292 2 3.35442 7.89808 0.942712
209 4 3.25261 9.81427 3.78803
236 2 2.27146 11.7202 4.56917
300 2 1.24681 11.4439 6.20132
216 1 3.19077 11.6902 3.75296
237 2 3.15242 8.83693 2.23841
212 1 6.35225 10.2129 0.390243
51 1 3.53187 6.66784 5.48749
238 2 4.13277 12.2168 4.18301
265 2 4.11964 7.7352 5.27708
226 2 7.86035 10.296 3.88682
223 2 2.73468 12.0908 2.62102
88 2 8.94989 9.04001 4.48588
171 2 4.84281 5.98817 8.04958
176 2 8.31958 7.34296 0.901893
61 2 7.55537 7.71193 4.285
55 1 7.83559 6.6852 3.72123
105 2 8.42789 7.00647 2.75081
210 4 5.5974 8.83514 8.73836
218 2 6.13525 9.33893 1.13097
97 2 5.22884 6.82988 4.53088
222 2 4.1855 10.9445 8.6346
56 1 9.7497 6.6339 7.20365
219 2 5.02592 11.6516 2.89859
110 2 9.36409 7.45965 6.46233
205 4 6.50197 11.343 2.08005
246 3 4.63251 9.42677 4.44135
211 4 5.60946 9.97583 5.85349
245 3 7.31023 9.20027 5.13378
248 3 5.48999 11.5561 6.05608
313 2 7.82547 9.4873 5.94112
247 3 5.22303 9.1779 7.26131
317 2 6.26695 12.1463 0.539224
154 1 9.44112 7.5187 1.03436
164 2 10.3557 6.65021 5.41191
163 2 9.83956 7.97827 0.105782
65 2 1.11161 12.6425 1.69554
229 2 8.41771 10.1971 2.05995
74 2 6.52651 6.57677 1.35973
295 1 1.90936 12.7284 0.918954
329 2 9.6815 8.23621 2.0792
107 2 6.9197 6.12226 3.47348
175 2 10.0145 6.437 1.26011
174 2 8.49603 6.12848 4.41269
108 2 10.8113 6.78914 7.59629
30 4 4.92663 4.44617 17.0461
142 3 6.21905 5.1235 16.3743
239 2 5.04303 10.5047 10.5181
256 2 10.3991 5.35628 14.8171
315 2 6.9332 7.85531 17.2769
240 2 4.89095 7.26804 9.09386
268 4 4.31499 9.72923 16.8988
253 2 2.53845 8.10681 16.0257
289 2 7.02725 7.55421 11.857
290 2 6.29547 8.53123 13.3788
241 2 3.60064 9.31258 9.94065
111 2 6.56065 5.32453 9.61645
287 1 7.25244 8.45754 12.6823
191 2 3.81888 10.0695 12.9554
272 2 4.27246 8.2128 16.0026