ITEM: TIMESTEP
0
ITEM: NUMBER OF ATOMS
331
ITEM: BOX BOUNDS xy xz yz pp pp pp
-8.5267422552386698e+00 1.6992590935126586e+01 -8.6846960268427011e+00
-2.3082318705380849e+00 1.3000996215598949e+01 1.4418447067307354e+00
-1.5199799933352409e-02 1.7715551795932051e+01 -2.3940356549391200e+00
ITEM: ATOMS id type x y z
230 2 -2.89547 5.15223 2.72813
1 4 0.637337 2.81357 5.73329
2 4 1.11767 4.08506 2.61803
3 1 1.94326 3.42056 6.91717
8 2 1.33008 3.29396 7.8873
9 2 1.12541 1.16554 5.69077
10 2 1.93372 4.52966 6.58418
18 3 0.806467 3.53849 4.28563
83 2 1.96352 0.243381 7.17481
161 2 -0.336064 3.93092 1.43345
6 1 0.991589 2.71209 1.37799
15 2 2.61531 3.25256 1.73583
5 1 3.28244 0.627188 2.20957
12 2 3.87719 1.01457 3.0746
4 1 1.83914 -0.603959 6.25459
16 2 -1.12962 5.28877 3.53662
131 3 -0.885035 2.84327 6.44844
11 2 2.99522 2.96653 7.02336
17 2 0.63393 1.71464 1.85055
187 2 2.99233 4.83011 7.98545
14 2 2.44328 1.38057 1.95497
214 1 -2.1834 5.63868 3.54841
266 3 5.65678 3.31035 0.475138
95 2 2.94869 5.26489 4.45355
89 2 3.91822 0.553177 1.26436
162 2 2.27136 -0.254969 5.264
13 2 1.4335 5.80242 2.41382
79 2 5.13605 -0.00259682 2.38439
311 2 0.889071 2.6268 0.187646
118 3 7.4054 -0.0643143 6.66314
122 3 4.68203 2.09259 7.26117
27 4 4.54304 1.10151 8.5121
24 4 6.87109 0.145533 2.69142
47 1 4.66002 -0.782307 7.94956
184 2 -0.113605 5.20234 7.92033
117 3 7.15354 0.734437 4.08492
82 2 5.46914 -0.717463 7.13033
170 2 -0.799485 3.7876 9.01422
149 4 -0.296436 4.75799 10.5537
254 2 -1.64366 3.18773 16.3566
145 4 -1.68307 3.93402 13.259
116 3 3.06857 1.17617 9.31465
250 1 -1.35423 4.01573 17.1318
197 3 -0.920647 4.18994 11.8858
22 4 2.65181 0.472444 10.8174
23 4 2.82023 1.81178 13.5391
112 3 1.04453 -0.381759 10.8239
113 3 3.97339 -0.501724 11.2275
114 3 2.80067 1.83107 11.9252
77 2 2.50628 3.36367 14.3699
44 1 1.04197 2.07722 14.1862
76 2 0.899549 1.32586 15.1144
60 2 0.769088 3.2249 14.457
75 2 0.459492 1.62847 13.248
267 3 5.23085 3.11181 17.6138
262 2 1.67148 -1.75802 16.1666
125 3 3.57832 0.784829 14.5176
278 2 1.60104 0.454532 16.6875
59 2 0.112314 1.95298 9.70842
271 1 0.655057 -0.0977493 16.4721
186 2 3.94761 4.4758 9.95953
322 2 7.3791 -1.45053 16.8766
121 3 4.59181 -1.08285 16.3709
119 3 5.07712 -1.03287 13.5421
84 2 6.08462 0.623716 10.4992
85 2 5.79949 2.55335 10.2258
29 4 4.87342 -0.108501 14.9238
48 1 5.97706 1.54111 9.69859
120 3 6.18605 0.867986 15.0044
99 2 6.48523 1.42537 12.1535
310 2 0.747741 -0.730656 14.8142
183 2 -2.79427 5.31205 8.89886
276 2 -0.550322 1.14134 16.7075
326 2 8.91856 -1.80697 14.2437
198 3 1.22273 5.14417 10.3475
188 2 7.40543 -1.64652 12.9714
252 2 -0.330371 3.84593 17.5923
291 1 2.56853 7.38171 2.41066
221 2 -5.89563 11.0636 3.29108
169 2 -5.32571 10.7131 5.57098
143 4 -5.49056 11.2783 7.17354
213 1 -7.01874 10.8985 3.0668
228 2 -4.97283 10.1037 3.94402
220 2 -3.43982 9.5929 5.07288
49 1 -5.21419 9.07085 4.46542
167 2 -4.60021 8.89035 5.41895
144 4 -3.08616 6.26116 5.12685
274 2 -2.36816 7.23995 3.5807
80 2 -3.35662 10.6081 2.70844
62 2 0.156837 9.34397 0.0255539
87 2 -1.71054 11.7959 5.59442
193 3 -6.15003 10.0037 8.22745
285 2 -5.8969 11.7715 0.318425
286 2 -4.40869 10.9921 0.766731
200 3 -1.5053 10.4658 8.64617
158 1 3.61419 5.70135 8.58056
70 2 -3.72758 6.89909 0.104317
294 2 3.06161 6.60538 1.70015
45 1 -2.21318 10.9537 2.82448
293 2 2.90871 7.12878 3.52517
192 3 -2.19136 6.49204 6.41408
206 4 -2.00486 10.4117 4.48931
324 2 0.392319 9.46601 6.99601
227 2 -5.05173 8.20404 3.73699
163 2 -4.71521 8.07506 0.486219
93 2 2.39669 6.85433 5.21828
78 2 -0.632976 11.7996 2.10025
235 2 -0.655094 6.66165 4.34783
98 2 -1.45388 10.3117 2.25548
146 4 -1.2667 6.55151 7.71499
199 3 -0.76795 7.98096 8.51338
207 4 0.521536 8.85823 5.3071
215 1 0.385927 7.11638 4.72798
232 2 1.4839 7.45616 2.27349
233 2 0.766155 6.6672 5.76682
234 2 1.22173 7.0827 3.81854
242 3 -0.792295 9.4837 4.51646
26 4 -0.488672 11.7928 8.21801
7 2 -5.98125 12.532 2.46752
312 2 -7.70051 12.4103 2.70808
108 2 -4.18668 7.17094 7.70235
185 2 2.88659 7.00634 8.62562
81 2 -3.72022 11.4903 8.84835
156 1 -3.96878 6.88051 11.7882
127 3 3.53689 4.7734 16.0844
249 4 -0.861645 5.42732 15.9535
126 3 0.813398 5.36148 16.0681
159 1 -0.192795 10.9708 13.1388
319 2 -3.31942 6.25098 11.1463
21 4 -4.55951 11.3139 12.3726
19 4 -4.7063 10.3185 16.3579
115 3 -5.97144 10.793 13.1278
284 2 -4.261 7.66215 16.5723
283 1 -3.71209 8.60193 16.7508
148 4 -4.25792 8.54844 10.8755
194 3 -1.47727 4.99364 14.5235
180 2 -3.47818 7.23522 12.7407
196 3 -3.88479 9.67833 11.8545
201 3 -3.13332 8.52411 9.48305
325 2 -3.70426 9.40548 15.0803
202 3 3.26531 6.74515 11.4803
303 2 -0.46594 9.50956 17.6996
204 3 1.48084 8.52867 12.6167
153 4 0.0899417 9.28903 12.2538
282 2 0.0865239 10.7974 15.5839
259 1 -6.50812 10.0943 15.953
280 4 -1.87951 8.44222 16.9903
281 2 -1.75464 10.1696 15.5316
150 4 2.69964 5.71416 10.3078
331 3 -1.45991 6.82051 16.6226
327 2 -1.04596 9.2319 13.5635
301 1 -0.662085 9.90033 15.9069
203 3 -0.676058 9.12633 10.9035
34 4 2.36255 5.79959 15.9017
302 2 -0.29948 8.94277 15.315
182 2 -1.39356 6.46985 10.3463
64 2 2.59563 6.71585 14.3546
151 4 -1.61415 9.06277 9.37595
270 1 2.53147 7.30754 17.143
253 2 2.2431 8.19565 16.5302
157 1 -1.6035 5.4099 9.14793
28 4 7.87687 1.21911 5.64961
31 4 6.00531 3.33335 6.68127
123 3 7.39935 2.60508 6.35697
124 3 5.39338 4.30992 5.40819
128 3 9.51488 1.11382 5.49206
263 4 5.12004 4.82844 0.763635
50 1 6.53466 4.46541 8.05715
96 2 4.94932 5.10777 2.61811
109 2 7.7686 4.55351 7.96537
264 2 7.25289 5.00264 0.0210432
46 1 7.69647 1.11088 1.10584
91 2 10.0258 5.41194 6.23662
320 2 8.31754 2.02166 1.60043
40 4 9.69632 4.13402 2.84539
69 2 9.88732 3.62469 0.875066
295 1 11.0811 0.243495 1.08003
137 3 10.1768 3.03131 3.813
42 4 9.54535 5.43425 8.13319
106 2 8.13816 4.84183 3.15561
32 4 4.72086 5.35284 4.43547
58 2 10.7811 5.5633 2.84468
35 4 10.6937 2.00563 4.93045
175 2 10.4796 6.2869 1.26741
273 2 11.5234 1.35199 0.992018
304 1 11.1587 4.34617 1.46001
37 4 12.8451 2.1852 7.02475
132 3 11.6262 2.6773 6.05497
139 3 12.5187 2.69996 8.59509
133 3 13.0039 0.565325 7.06529
208 4 13.8551 -0.664408 7.52509
129 3 15.1447 -0.321076 8.46271
323 2 11.7151 0.844138 4.14399
306 2 11.8675 3.55795 1.79983
52 1 6.494 5.94022 0.187293
330 2 11.686 5.03766 0.692134
65 2 10.4807 0.0579211 2.00319
321 2 8.40946 0.330284 0.690228
231 2 12.2788 4.4765 4.66295
277 2 13.6394 0.187513 14.0029
179 2 11.6337 4.40542 12.5788
33 4 7.22762 1.88705 14.3529
53 1 7.41809 1.99274 12.5321
63 2 7.44485 3.10512 12.2549
66 2 8.87484 0.99089 11.8457
309 2 11.3089 -0.1495 14.6408
314 2 13.3287 -1.33731 13.3011
100 2 8.72357 1.16903 13.6115
130 3 8.71015 -0.231313 9.53167
134 3 9.43528 0.490983 16.6139
141 3 7.78672 3.32166 15.192
36 4 9.74757 0.593328 10.3129
25 4 8.28122 -0.174881 17.6343
101 2 10.1064 2.38777 14.6304
138 3 10.2373 1.91599 9.6687
103 2 10.3356 3.02539 17.1209
102 2 10.6183 3.87972 15.3627
86 2 6.81234 1.53403 8.92947
140 3 10.4164 4.44891 9.03957
155 1 11.9196 3.25931 13.0583
307 1 12.2265 -0.924178 13.2313
269 4 14.3874 -0.345327 15.505
38 4 10.5817 1.10917 15.7768
308 2 9.1395 -1.36546 12.3433
178 2 11.3254 2.4903 12.537
104 2 12.1513 3.43006 16.5919
54 1 11.0254 3.11731 16.2057
41 4 11.251 3.04627 9.48573
189 2 15.9564 -0.996094 17.2437
177 2 11.5523 3.2719 14.2763
305 2 12.0833 1.54878 16.679
71 2 11.8379 3.37814 11.0497
39 4 12.3242 -0.0109781 11.5902
135 3 13.7174 0.0649916 10.8069
136 3 10.9669 -0.415478 10.8142
68 2 12.1283 0.923004 13.2193
165 2 13.454 2.29659 13.7627
92 2 6.18252 3.79473 8.98755
279 3 13.6458 -1.63357 16.1747
20 4 15.1678 0.288304 9.97465
107 2 7.13235 6.17724 3.28361
94 2 3.66779 6.40271 6.60767
297 2 3.52587 12.0255 0.997911
299 2 1.7493 11.1137 8.18792
298 1 0.936045 11.1267 7.38359
243 3 1.95193 9.43827 4.69707
292 2 3.16314 8.07079 0.680662
209 4 3.28463 9.84745 3.96842
236 2 2.30337 11.81 4.71722
300 2 1.05208 11.795 6.41177
216 1 3.22199 11.769 3.90449
237 2 3.26643 9.09002 2.30934
212 1 6.19289 10.3146 0.386213
51 1 3.53067 6.77998 5.48922
238 2 4.18618 12.3507 4.30959
265 2 3.98181 7.80326 5.34605
226 2 7.89986 10.3341 3.9652
223 2 2.89877 12.2188 2.77568
88 2 9.0467 9.02754 4.76926
171 2 4.71685 5.85331 8.11048
176 2 8.96257 7.37355 0.953943
61 2 7.66916 7.68349 4.28113
55 1 8.01386 6.7103 3.74943
105 2 8.75905 7.00141 2.81495
74 2 6.5824 6.56495 1.27659
218 2 5.95115 9.30293 1.52872
97 2 5.28668 7.0016 4.63912
222 2 3.96031 11.0735 8.38997
56 1 10.2256 6.86297 7.2155
219 2 5.06109 11.8725 3.3726
110 2 9.44128 7.72522 7.03705
205 4 6.30832 11.1875 2.18945
246 3 4.58861 9.51524 4.66346
211 4 5.52426 9.73434 5.98332
245 3 7.2926 9.1679 5.20835
248 3 5.71644 11.3599 6.24008
313 2 7.80403 9.52629 5.9867
247 3 5.04808 8.96614 7.26969
317 2 5.85794 12.0669 0.62731
154 1 10.0732 7.40027 1.26529
164 2 10.6693 6.90989 5.34774
225 2 7.49688 11.9649 6.17734
210 4 5.48814 8.60008 8.82026
229 2 8.3433 10.1593 2.12881
72 2 9.08495 7.07386 8.7968
329 2 10.1949 7.84781 2.35647
90 2 6.02541 5.54228 8.02065
174 2 8.51143 5.96569 4.53242
275 2 1.95737 9.85062 0.0955387
30 4 4.87 4.60737 17.0589
142 3 6.32801 5.21323 16.3719
239 2 5.14102 10.3926 10.3817
256 2 10.3153 5.17176 14.9405
315 2 6.85276 7.75986 17.3902
240 2 4.77468 7.11576 9.32208
268 4 4.35849 10.0367 17.0202
255 2 10.4009 6.88246 15.5815
289 2 6.7967 7.40271 12.5263
290 2 6.52254 8.30696 14.1053
241 2 3.62812 9.39232 10.0404
173 2 2.83585 11.1824 12.8842
287 1 7.16125 8.2846 13.1993
191 2 3.92331 10.0318 13.3358
272 2 3.96637 8.47822 16.2972
43 4 7.72073 4.42868 16.3042
160 1 4.17133 8.86616 13.2711
67 2 10.6433 6.51237 13.6575
73 2 9.11458 5.4767 16.2832
152 4 2.86335 7.63674 12.8175
172 2 4.42905 8.40688 14.3357
195 3 9.4618 8.51005 10.3688
166 2 6.93383 5.35424 11.7946
181 2 10.3533 6.34424 11.9626
224 2 7.42761 6.94181 10.8812
190 2 4.90036 8.56001 12.3876
217 1 4.49172 9.96864 9.63642
318 2 8.37927 9.22266 16.6761
260 2 6.90102 9.95213 14.2388
261 2 8.8748 8.02527 13.7462
258 4 8.60703 9.74102 14.0521
257 2 8.91159 6.3188 14.5736
288 2 6.87343 9.21259 12.5814
251 1 10.0344 6.22798 14.6775
147 4 8.48604 9.50545 9.54727
57 1 6.66846 6.10179 10.9264
244 3 7.06429 8.7303 9.19716
168 2 8.11517 10.8243 10.4991
328 2 5.65148 6.57718 11.0815
111 2 6.65418 5.47949 9.85877
296 2 2.62026 10.4923 17.5174
316 2 8.62653 7.80495 17.7106
ITEM: TIMESTEP
100
ITEM: NUMBER OF ATOMS
331
ITEM: BOX BOUNDS xy xz yz pp pp pp
-8.5267422552386698e+00 1.6992590935126586e+01 -8.6846960268427011e+00
-2.3082318705380849e+00 1.3000996215598949e+01 1.4418447067307354e+00
-1.5199799933352409e-02 1.7715551795932051e+01 -2.3940356549391200e+00
ITEM: ATOMS id type x y z
230 2 -2.92081 5.24775 2.7972
1 4 0.440229 2.84235 5.92498
2 4 0.905063 3.967 2.94826
3 1 1.85055 3.50388 6.96716
8 2 1.26992 3.38182 7.9954
9 2 1.31083 1.33476 6.04768
10 2 1.81298 4.58735 6.53652
18 3 0.689603 3.43648 4.38011
83 2 1.81954 0.128964 7.33753
161 2 -0.498883 3.8886 1.88962
6 1 0.998774 2.82817 1.38727
15 2 2.50207 3.23752 1.92294
5 1 3.25067 0.673068 2.05939
12 2 3.79971 1.11769 2.94405
4 1 1.97225 -0.483233 6.33002
16 2 -1.07063 5.33653 3.52865
131 3 -0.99113 2.81944 6.60398
11 2 2.91918 3.03298 6.96799
17 2 0.570471 1.85489 1.7731
187 2 3.08902 4.91121 7.89729
14 2 2.39483 1.43722 1.77138
214 1 -2.1471 5.70009 3.64126
252 2 -2.09485 6.36209 0.0559129
95 2 3.00004 5.14931 4.26252
89 2 3.96513 0.557923 1.19933
162 2 2.44887 0.144862 5.51856
13 2 1.59436 5.57679 2.76546
79 2 5.11373 0.242066 2.45272
311 2 0.843985 3.16447 0.309949
118 3 7.37254 -0.0834373 6.56367
122 3 4.51896 2.13691 7.22366
27 4 4.36431 1.13369 8.40225
24 4 6.79982 0.374424 2.69564
47 1 4.60441 -0.668034 8.00248
184 2 -0.0537341 5.11272 7.88692
117 3 7.13073 0.826671 4.08326
82 2 5.5301 -0.586722 7.36408
267 3 3.82439 5.51277 0.144161
170 2 -0.755496 3.73649 9.0725
149 4 -0.218089 4.87889 10.5719
254 2 -1.84031 3.25282 16.5307
145 4 -1.88037 4.31619 13.0807
116 3 2.9278 1.21583 9.22922
250 1 -1.57325 4.11711 17.181
197 3 -0.91734 4.36342 11.8733
22 4 2.68055 0.460545 10.8093
23 4 2.87969 1.84343 13.5112
112 3 1.10538 -0.530141 10.7607
113 3 3.83537 -0.668544 11.1024
114 3 2.67154 1.61587 11.9579
77 2 2.67795 3.53069 13.9679
44 1 1.15795 2.33032 14.2498
76 2 1.02547 1.40043 15.1046
60 2 0.791184 3.28154 14.5958
75 2 0.606324 2.01181 13.254
198 3 1.34704 4.99212 10.3475
262 2 1.61151 -1.69461 16.2712
125 3 3.49622 0.798355 14.555
278 2 1.49926 0.92589 16.7919
59 2 0.15063 1.90425 10.0044
271 1 0.698921 0.0755684 16.5656
186 2 4.12729 4.70792 9.96641
322 2 7.52032 -1.48944 16.8714
121 3 4.67481 -1.34395 16.0459
119 3 5.35056 -0.983224 13.494
84 2 5.97455 0.53852 10.1429
85 2 5.31301 2.18395 10.543
29 4 4.84978 -0.100882 14.7572
48 1 5.67533 1.48946 9.7363
120 3 6.01134 1.07538 15.0191
99 2 6.35285 1.28221 12.4963
310 2 0.882114 -0.612525 15.0253
188 2 7.38528 -1.57998 13.0508
183 2 -2.61226 5.27052 9.00952
189 2 0.690723 -0.747047 17.3187
326 2 8.93272 -1.73965 14.1132
291 1 2.63486 7.21682 2.46827
221 2 -5.81226 10.9814 3.2529
169 2 -4.8216 10.5841 5.6426
143 4 -5.45907 11.1649 7.16054
213 1 -6.91594 10.8417 3.05904
228 2 -4.92996 10.1447 4.01266
220 2 -3.37406 9.55358 5.0078
49 1 -5.15108 9.01912 4.48811
167 2 -4.50309 8.86282 5.43965
144 4 -2.92795 6.20771 5.31915
274 2 -2.24346 7.21187 3.664
80 2 -3.46275 11.2595 2.85077
329 2 -5.04558 8.10727 2.25845
87 2 -1.89637 11.8277 5.51783
193 3 -6.05019 10.1133 8.1148
285 2 -5.46535 12.0953 0.400214
286 2 -4.25471 10.8835 0.691614
200 3 -1.42819 10.4717 8.53402
158 1 3.69133 5.75328 8.56059
70 2 -3.90091 6.93142 0.137848
294 2 3.1202 6.53815 1.73996
45 1 -2.25861 11.0545 2.73515
293 2 2.9708 6.97263 3.55418
192 3 -2.01576 6.35548 6.55345
206 4 -2.0238 10.5073 4.41928
324 2 0.742811 9.34866 7.1406
227 2 -4.95084 8.17758 3.62113
185 2 2.78435 7.11332 8.6987
93 2 2.38909 6.71693 5.13408
78 2 -0.811923 11.9835 1.97335
235 2 -0.493542 6.59274 4.38388
98 2 -2.09506 10.0212 2.20121
146 4 -1.14537 6.55145 7.80807
199 3 -0.621142 7.93249 8.37979
207 4 0.506899 8.7953 5.39896
215 1 0.450762 7.08718 4.79657
232 2 1.44074 7.21435 2.38952
233 2 0.842761 6.5986 5.8161
234 2 1.29451 7.18301 3.87968
242 3 -0.740479 9.62136 4.71102
26 4 -0.40481 11.6873 7.97638
7 2 -5.95902 12.5112 2.38209
312 2 -7.64565 12.3801 2.87626
108 2 -4.12651 6.47821 8.06755
225 2 -7.71222 11.9689 6.00594
94 2 3.58574 6.25015 6.59103
156 1 -3.80241 7.02438 11.8802
127 3 3.54515 4.77624 16.1302
249 4 -0.817451 5.39045 15.957
126 3 0.807492 5.2763 15.9227
159 1 -0.204302 10.9964 13.0434
319 2 -3.00801 6.3508 11.364
157 1 -1.47261 5.33977 9.14666
19 4 -4.716 10.2597 16.4609
115 3 -6.09599 11.0208 13.3036
284 2 -4.53697 7.55009 17.1268
283 1 -3.86562 8.50578 16.8743
148 4 -4.15416 8.66687 10.8105
194 3 -1.49311 4.9185 14.5812
180 2 -3.43628 7.47692 12.8191
196 3 -3.9769 9.94912 11.8214
201 3 -3.01154 8.56781 9.73846
325 2 -3.89205 8.94066 15.2633
202 3 3.06289 6.53559 11.7468
303 2 -0.634731 9.69924 17.5548
204 3 1.27923 8.5721 12.4673
153 4 -0.0727242 9.29444 12.1174
282 2 -0.206836 10.7591 15.3809
259 1 -6.50629 10.2037 15.9396
280 4 -1.79701 8.38709 16.8993
281 2 -1.96726 9.91255 15.249
150 4 2.69624 5.8194 10.2813
331 3 -1.31636 6.93573 16.475
327 2 -1.30724 9.3894 13.3235
301 1 -0.784057 9.82371 15.7374
203 3 -0.646573 9.08867 10.7371
34 4 2.33557 5.73483 15.9356
302 2 -0.190906 8.94061 15.308
182 2 -1.08599 6.54581 10.438
64 2 2.51879 6.72551 14.4257
151 4 -1.48422 9.11798 9.33456
270 1 2.69986 7.33246 16.9294
81 2 -3.90327 11.6422 8.93726
21 4 -4.59294 11.2772 12.4038
168 2 -6.95882 10.8557 10.5145
62 2 1.62396 7.12577 17.5698
255 2 -4.76488 7.22046 15.5638
28 4 7.89934 1.16592 5.61471
31 4 5.94343 3.25719 6.53322
123 3 7.30062 2.57954 6.13243
124 3 5.35756 4.22902 5.42322
128 3 9.53978 1.00553 5.54608
263 4 5.21438 4.87748 0.871084
50 1 6.28467 4.48311 7.94472
96 2 5.01569 5.04845 2.60427
109 2 7.50136 4.51288 8.16329
266 3 5.7897 3.40236 0.568865
46 1 7.75191 1.45641 1.3392
91 2 9.85912 5.33205 6.32726
320 2 8.29621 2.1292 2.04577
40 4 9.72318 4.02399 2.86706
69 2 9.775 3.55187 0.959271
295 1 10.7059 -0.0392051 0.97969
137 3 10.1985 2.89291 3.8576
42 4 9.41785 5.13347 8.11291
106 2 8.19061 4.81003 3.20545
32 4 4.74223 5.24528 4.40617
58 2 10.7184 5.48708 2.98045
35 4 10.7574 1.83113 4.96773
175 2 10.2853 6.34898 1.413
273 2 10.9477 1.04061 1.16908
304 1 11.1228 4.48925 1.55468
37 4 12.7894 2.19966 7.14351
132 3 11.6739 2.57413 6.00198
139 3 12.471 2.8735 8.54613
133 3 12.9109 0.560271 7.21069
208 4 13.8221 -0.702983 7.52151
129 3 14.9466 -0.284971 8.57631
323 2 11.73 0.720955 4.09721
306 2 11.927 3.74324 1.95073
52 1 6.58003 5.83561 0.0692906
330 2 11.52 5.20471 0.720411
231 2 12.2353 4.52592 4.70523
321 2 8.49349 0.783338 0.713356
92 2 5.63904 4.05967 8.79449
277 2 13.6725 0.0690721 14.2234
179 2 11.6762 4.82211 12.5069
33 4 7.35558 1.86263 14.5271
53 1 7.31861 1.79553 12.7369
63 2 7.30778 2.9086 12.5287
66 2 8.63085 1.15841 11.604
309 2 11.4497 0.0690322 14.5856
314 2 13.3834 -1.37848 13.1391
100 2 8.6288 0.891084 13.6399
130 3 8.73357 -0.185482 9.24232
134 3 9.46884 0.427529 16.6733
141 3 7.74991 3.29599 15.0567
36 4 9.66868 0.580492 10.2089
264 2 8.7322 2.66147 17.4426
101 2 10.057 2.20286 14.6356
138 3 10.2429 1.91809 9.7466
103 2 10.1646 3.42622 16.9382
102 2 10.4746 3.95488 15.2049
86 2 6.53314 1.97963 9.11401
140 3 10.3599 4.31627 9.01271
155 1 11.8817 3.21934 13.0263
307 1 12.322 -0.954257 13.171
269 4 14.4947 -0.551311 15.5714
38 4 10.6677 1.09414 15.7532
308 2 9.15541 -1.40826 12.1725
178 2 11.0997 2.59709 12.4147
104 2 11.9264 3.59986 16.4173
54 1 10.8435 3.31134 16.0858
41 4 11.2177 3.08757 9.53792
25 4 8.3437 -0.152405 17.6407
177 2 11.5112 3.27349 14.1693
305 2 12.0689 1.86249 16.454
71 2 11.9164 3.50803 11.0807
39 4 12.3094 -0.0749152 11.5494
135 3 13.7611 0.0943537 10.8858
136 3 10.8854 -0.293305 10.7968
68 2 12.1145 0.944915 13.0605
165 2 13.403 2.40454 13.1118
276 2 14.5925 1.06356 16.5493
279 3 13.7942 -1.78665 16.3249
20 4 15.3048 0.198258 10.0151
173 2 11.4357 -1.67125 13.0287
107 2 6.91105 6.27852 3.43603
316 2 7.51919 10.3681 0.187303
297 2 3.58325 11.9646 1.11802
299 2 1.87647 11.0618 8.22228
298 1 1.09869 10.878 7.38512
243 3 1.92377 9.30093 4.69893
292 2 3.24212 8.04587 0.791348
209 4 3.2464 9.72093 4.00438
236 2 2.23508 11.7135 4.66944
300 2 1.33049 11.5277 6.45008
216 1 3.11402 11.6254 3.87478
237 2 3.23255 9.00888 2.31755
212 1 6.40675 10.4226 0.363495
51 1 3.52076 6.61591 5.45243
238 2 4.04999 12.051 4.32392
265 2 4.10878 7.62453 5.30508
226 2 8.04381 10.2782 3.92453
223 2 2.74085 12.1482 2.68946
88 2 9.11818 9.01875 4.7637
171 2 4.69755 6.0231 8.02562
176 2 8.76103 7.5604 1.30324
61 2 7.75736 7.73274 4.51316
55 1 7.93943 6.71275 3.80081
105 2 8.61704 7.03596 2.87688
65 2 1.36072 12.5429 1.82329
218 2 6.20216 9.43249 1.74565
97 2 5.29915 6.86558 4.63633
222 2 4.1132 10.9789 8.48944
56 1 10.1833 6.69795 7.58174
219 2 4.86666 11.5672 2.99859
110 2 10.1961 7.61515 6.9956
205 4 6.31764 11.3343 2.13082
246 3 4.61975 9.35002 4.63921
211 4 5.6716 9.88741 5.79081
245 3 7.44561 9.12347 5.29667
248 3 5.59895 11.5118 6.1516
313 2 7.5122 8.69129 6.24134
247 3 5.27587 8.92823 7.20426
317 2 5.82989 11.9521 0.393167
154 1 9.89344 7.48814 1.3475
229 2 8.29212 10.1609 2.034
210 4 5.48688 8.69923 8.81348
163 2 10.2442 7.88219 0.394203
164 2 10.8604 6.8405 5.7152
74 2 6.8668 6.43017 1.09551
90 2 5.85988 5.53255 7.52811
174 2 8.51865 5.96533 4.42011
30 4 4.90582 4.62645 17.0983
142 3 6.22484 5.21102 16.4507
239 2 5.61468 10.3893 10.406
256 2 10.3142 5.3523 15.019
315 2 7.27624 7.53466 17.2238
240 2 4.89217 7.10864 9.29122
268 4 4.36105 9.98569 17.1318
72 2 9.0833 6.88347 8.85956
289 2 6.87713 7.6308 12.1547
290 2 6.49838 8.55834 13.7163
241 2 4.05073 9.4346 10.4636
275 2 3.56979 7.37906 17.6409
287 1 7.23066 8.55189 12.8661
191 2 3.9388 9.94498 13.1499
272 2 4.29051 8.3964 16.3214
43 4 7.68709 4.40819 16.1949
160 1 4.07515 8.73918 13.115
67 2 10.707 6.71265 13.6685
73 2 9.02092 5.52185 16.0633
152 4 2.66354 7.63324 12.8792
172 2 4.46874 8.34341 14.1215
195 3 9.62748 8.63157 10.3063
166 2 6.4504 5.44285 11.5907
181 2 10.5617 6.51067 11.9589
224 2 7.6332 6.50541 10.8876
190 2 4.71705 8.33805 12.178
217 1 4.78141 9.97851 9.80638
318 2 8.42984 9.30974 16.6683
260 2 6.76901 10.1372 13.9508
261 2 8.87967 8.07684 13.4557
258 4 8.50763 9.85135 14.0896
257 2 9.02193 6.71175 14.6728
288 2 7.0079 9.48118 12.2682
251 1 10.1395 6.48882 14.7543
147 4 8.65842 9.55067 9.47998
57 1 6.62885 6.08805 10.7948
244 3 7.24884 8.92106 9.21234
296 2 2.53763 10.3897 17.2072
328 2 5.87553 6.87732 10.8804
111 2 6.54379 5.47214 9.81413
253 2 2.60837 8.22324 16.2174
ITEM: TIMESTEP
200
ITEM: NUMBER OF ATOMS
331
ITEM: BOX BOUNDS xy xz yz pp pp pp
-8.5267422552386698e+00 1.6992590935126586e+01 -8.6846960268427011e+00
-2.3082318705380849e+00 1.3000996215598949e+01 1.4418447067307354e+00
-1.5199799933352409e-02 1.7715551795932051e+01 -2.3940356549391200e+00
ITEM: ATOMS id type x y z
230 2 -3.04024 5.28393 2.88871
1 4 0.46686 2.82628 6.10269
2 4 0.93649 4.05621 2.95276
3 1 1.82205 3.69278 7.00783
8 2 1.24229 3.67138 8.09383
9 2 1.3982 1.28768 6.1258
10 2 1.79466 4.73534 6.52914
18 3 0.558078 3.47497 4.51472
83 2 1.73543 -0.0630244 7.26583
161 2 -0.529262 3.95008 1.55874
6 1 0.695746 2.82659 1.53609
15 2 2.39324 3.38024 2.21229
5 1 3.11878 0.885067 2.31624
12 2 3.69448 1.30261 3.20508
4 1 2.01188 -0.563361 6.3089
16 2 -1.25416 5.45058 3.64278
131 3 -0.985027 2.68318 6.76004
11 2 2.92888 3.10001 7.03856
17 2 0.500974 1.83251 2.09752
187 2 3.27983 4.94845 7.89907
14 2 2.1977 1.62499 2.02177
214 1 -2.32294 5.7821 3.69206
252 2 -2.1175 6.48777 0.196966
95 2 2.88768 5.15572 4.51153
89 2 3.75915 0.767503 1.41389
162 2 2.60079 0.0508165 5.6008
13 2 1.18633 5.82214 2.76509
79 2 5.02307 0.57717 2.66221
311 2 1.14444 2.7813 0.497218
118 3 7.25597 -0.166758 6.48912
122 3 4.35882 2.19738 7.18603
27 4 4.2528 1.24798 8.48593
24 4 6.74128 0.453214 2.66097
47 1 4.73169 -0.754484 7.89517
184 2 0.13176 5.15917 7.86117
117 3 7.26373 0.876534 4.01289
82 2 5.73043 -0.625606 7.28599
267 3 3.86984 5.29359 0.121065
7 2 2.6423 -0.226772 2.55168
170 2 -0.846609 3.88765 8.89355
149 4 -0.166795 5.0016 10.6135
254 2 -1.7772 3.27846 16.4716
145 4 -1.90137 4.27326 13.0895
116 3 2.7677 1.11905 9.26136
250 1 -1.64169 4.14299 17.2
197 3 -0.990918 4.46252 11.8239
22 4 2.48858 0.421479 10.858
23 4 2.65429 1.7338 13.5928
112 3 1.01196 -0.461189 10.8286
113 3 3.75135 -0.708472 10.961
114 3 2.61018 1.59257 12.0484
77 2 2.87484 3.40067 14.0911
44 1 1.19507 2.59392 14.5551
76 2 1.03452 1.64994 15.4617
60 2 1.055 3.67255 15.0144
75 2 0.427257 2.40336 13.6515
198 3 1.42801 4.91024 10.3379
262 2 1.63333 -1.70946 16.1008
125 3 3.49938 0.774418 14.5452
278 2 1.58572 0.790656 16.4614
59 2 -0.0482531 1.86332 9.91819
271 1 0.800067 0.0100666 16.4928
186 2 4.26606 4.57624 10.0086
322 2 7.36066 -1.46251 16.8415
121 3 4.67858 -1.37934 16.0364
119 3 5.3116 -0.688993 13.2516
84 2 6.0874 0.60265 9.66488
85 2 5.20531 2.07421 10.5658
29 4 4.91955 -0.0650432 14.7569
48 1 5.6531 1.68984 9.5579
120 3 6.1968 0.844216 15.1742
99 2 6.23071 1.32314 12.4522
310 2 0.738072 -0.72404 14.8806
188 2 7.26654 -1.42764 12.816
326 2 8.53061 -1.6298 14.1935
189 2 1.00597 -0.790841 17.2313
157 1 -1.37926 5.2742 9.0456
183 2 -2.61032 5.29197 8.90423
21 4 4.2551 -1.5692 12.3673
291 1 2.56849 7.13992 2.56285
221 2 -5.76859 11.1162 3.28506
169 2 -4.78968 10.5106 5.50426
143 4 -5.2264 11.156 7.09955
213 1 -6.91673 10.9175 2.9986
228 2 -4.89188 10.0949 3.85313
220 2 -3.45123 9.51208 4.91157
49 1 -5.24103 9.01593 4.23781
167 2 -4.68171 8.66414 5.24065
144 4 -3.13452 6.14764 5.3792
274 2 -2.55524 7.27309 3.70487
80 2 -3.32545 11.3281 2.74184
185 2 2.99629 7.03997 8.76165
87 2 -2.02183 11.7936 5.37781
193 3 -6.05729 10.2626 8.12835
285 2 -5.86204 12.1171 0.43939
286 2 -4.16907 11.1014 0.680832
200 3 -1.40313 10.5137 8.23588
158 1 3.926 5.68205 8.59203
70 2 -4.11477 6.91084 0.00733573
294 2 3.04465 6.35745 1.88239
45 1 -2.15942 11.2079 2.78411
293 2 2.98226 6.99665 3.62053
192 3 -2.10386 6.29662 6.53632
206 4 -2.04083 10.3631 4.41777
324 2 0.824305 9.28851 7.16604
225 2 -7.50993 11.7582 5.82536
312 2 -7.70466 12.4951 2.97357
93 2 2.4503 6.69167 5.29834
78 2 -1.12025 12.1038 1.59987
235 2 -0.638886 6.73931 4.54733
98 2 -1.88121 10.2204 2.18766
146 4 -1.03432 6.48518 7.71209
199 3 -0.527714 7.8183 8.39958
207 4 0.630436 8.87443 5.40056
215 1 0.459166 7.132 4.88518
232 2 1.53678 7.27205 2.49738
233 2 0.83093 6.70682 5.90803
234 2 1.24764 7.15703 3.9538
242 3 -0.718129 9.61048 4.85805
26 4 -0.347393 11.7329 7.94515
227 2 -5.11724 8.18359 3.40108
156 1 -3.83951 7.09473 11.7985
127 3 3.60909 4.66952 16.2881
249 4 -0.894918 5.38729 16.0202
126 3 0.96696 5.25363 16.2115
159 1 -0.407912 11.109 13.0854
319 2 -3.09802 6.3486 11.2811
152 4 2.61313 7.67595 12.8356
19 4 -4.71765 10.1898 16.3621
115 3 -5.99709 10.8911 13.2236
284 2 -4.41331 7.58751 17.2424
283 1 -3.8587 8.4852 17.0204
148 4 -4.03538 8.67788 10.7115
194 3 -1.37491 4.88671 14.5894
180 2 -3.35463 7.60313 12.6929
196 3 -3.89877 9.89972 12.0449
201 3 -2.91184 8.70504 9.43738
325 2 -3.90287 8.78602 15.31
202 3 3.04171 6.76742 11.5397
303 2 -0.422693 9.4313 17.4511
204 3 1.19411 8.44144 12.684
153 4 -0.0262995 9.49814 12.1151
282 2 -0.218229 10.8837 15.5184
259 1 -6.52473 10.0056 15.9039
280 4 -1.86846 8.41719 16.8076
281 2 -2.15201 10.1161 15.3993
150 4 2.84215 5.73426 10.2806
331 3 -1.49163 6.94572 16.3854
327 2 -1.2784 9.37318 13.317
301 1 -0.882834 9.89817 15.7139
203 3 -0.639413 9.36928 10.6263
34 4 2.43363 5.69162 15.9615
302 2 -0.483154 9.05618 15.0181
182 2 -0.832358 6.60887 10.3502
64 2 2.57823 6.60912 14.377
151 4 -1.3877 9.13043 9.21754
270 1 2.68906 7.30328 16.9454
81 2 -3.85759 11.6337 8.97939
255 2 -4.65588 7.26612 15.6291
168 2 -7.10615 10.9569 10.326
195 3 -5.65032 8.6723 10.1467
62 2 1.80047 7.57324 17.6464
28 4 7.90554 1.09028 5.77972
31 4 5.88769 3.15705 6.44116
123 3 7.34576 2.49942 6.39763
124 3 5.35672 4.03927 5.17932
128 3 9.46678 0.96183 5.6387
263 4 5.27361 4.86699 0.833181
50 1 6.30595 4.36054 7.78151
96 2 4.95496 5.00131 2.58855
109 2 7.57949 4.12064 8.35147
266 3 6.00474 3.48157 0.453291
46 1 7.61496 1.55244 1.23697
91 2 9.67321 5.12749 6.32834
320 2 7.89165 2.29622 2.06596
40 4 9.67359 4.06539 2.96267
69 2 9.50579 3.68405 1.09434
92 2 5.37141 4.02456 8.50063
137 3 10.168 2.93188 3.97576
42 4 9.28833 5.05466 8.16491
106 2 8.06716 4.77509 3.17511
32 4 4.6464 5.2066 4.32085
58 2 10.6008 5.7517 2.95931
35 4 10.7175 1.7828 5.01877
321 2 8.51604 0.9516 0.798691
273 2 11.1593 0.798687 1.00553
304 1 10.9311 4.57924 1.62435
37 4 12.772 2.11057 7.23407
132 3 11.7258 2.49135 5.9764
139 3 12.4391 2.68004 8.68386
133 3 12.7167 0.455125 7.35159
208 4 13.8192 -0.689906 7.57513
129 3 15.1007 -0.282502 8.50288
323 2 11.6331 0.722666 4.09657
306 2 11.7428 3.82217 1.9732
52 1 6.62266 6.05544 0.176628
330 2 11.4318 5.18958 0.754964
231 2 12.1322 4.50702 4.77647
90 2 6.19368 5.36487 7.33235
264 2 7.54667 5.42179 0.0646088
175 2 10.166 6.36716 1.28385
277 2 13.4047 0.139058 14.4667
86 2 6.40443 2.40317 9.15272
33 4 7.29025 1.8517 14.4407
53 1 7.38601 1.72776 12.6214
63 2 7.48904 2.88702 12.3889
66 2 8.55519 0.773549 11.5406
309 2 11.6928 0.14437 14.7649
314 2 13.253 -1.46172 13.4435
100 2 8.65299 0.907961 13.5775
130 3 8.91357 -0.320108 9.16955
134 3 9.53158 0.454459 16.6154
141 3 7.74554 3.33109 15.0918
36 4 9.71788 0.475321 10.2376
173 2 11.3414 -1.53922 13.2664
101 2 10.0565 2.40702 14.637
138 3 10.266 1.88284 9.89554
103 2 10.1937 3.42309 17.0052
102 2 10.3753 3.99204 15.2435
276 2 14.7705 0.967725 16.9718
140 3 10.4233 4.38709 9.12941
155 1 11.7892 3.20502 13.0569
307 1 12.2397 -0.880268 13.2804
269 4 14.5031 -0.496806 15.7494
38 4 10.7488 1.22465 15.7358
308 2 9.21936 -1.28482 12.3223
178 2 11.0528 2.59844 12.5587
104 2 11.9383 3.75117 16.2987
54 1 10.8277 3.37361 16.0884
41 4 11.1633 3.0774 9.56264
25 4 8.28753 -0.109349 17.5531
177 2 11.4705 3.27615 14.2093
305 2 11.9214 1.87473 16.8072
71 2 11.8332 3.43413 11.1445
39 4 12.2698 -0.113459 11.5996
135 3 13.6724 0.0378901 10.8426
136 3 10.8995 -0.413514 10.8163
68 2 12.0125 0.982264 12.9871
165 2 13.3338 2.38748 13.1731
20 4 15.0255 0.214666 10.0559
279 3 13.8842 -1.77945 16.375
179 2 11.6751 4.82281 12.6111
94 2 3.76421 6.29258 6.63999
107 2 7.11968 6.12662 3.50129
297 2 3.4095 11.5823 1.16593
299 2 1.98275 11.2377 7.92764
298 1 1.13162 10.9311 7.24109
243 3 1.95943 9.32399 4.66646
292 2 3.2926 7.89947 0.968243
209 4 3.3159 9.78654 3.90366
236 2 2.40724 11.7595 4.60709
300 2 1.11192 11.4536 6.17663
216 1 3.27689 11.6722 3.76948
237 2 3.26249 8.86495 2.33066
212 1 6.47993 10.2161 0.368826
51 1 3.59707 6.6679 5.52415
238 2 4.21758 12.2039 4.13615
265 2 4.04093 7.70997 5.25536
226 2 7.99354 10.3124 3.95197
223 2 2.80876 12.1377 2.69694
88 2 9.03038 9.08559 4.5747
171 2 4.95208 5.89518 8.05837
176 2 8.51654 7.3858 0.989
61 2 7.68308 7.68688 4.28562
55 1 8.00384 6.66884 3.77891
105 2 8.63926 6.97054 2.7757
65 2 1.18634 12.6189 1.71121
218 2 6.19404 9.3307 1.07614
97 2 5.35437 6.73976 4.69767
222 2 4.22661 10.9556 8.57205
56 1 9.82107 6.66021 7.28801
219 2 5.05479 11.3448 2.95533
110 2 9.36147 7.42006 6.54516
205 4 6.55316 11.3494 2.05804
246 3 4.6898 9.38638 4.67615
211 4 5.62491 9.95734 5.87119
245 3 7.35486 9.22512 5.14408
248 3 5.53858 11.5588 6.08878
313 2 7.86061 9.50459 5.93735
247 3 5.39489 9.23406 7.31225
317 2 6.48518 12.1471 0.457917
154 1 9.62975 7.51615 1.08894
229 2 8.52295 10.1952 2.06715
108 2 10.8628 6.90194 7.56488
163 2 10.0372 7.99825 0.191232
164 2 10.5592 6.60035 5.50551
74 2 6.57398 6.68216 1.18419
174 2 8.64394 6.12006 4.47613
295 1 2.02086 12.6833 0.94947
329 2 9.84598 8.18794 2.0388
72 2 8.69496 6.70827 8.756
30 4 4.96904 4.43162 17.2712
142 3 6.2237 5.13263 16.567
239 2 5.24346 10.4412 10.5701
256 2 10.3783 5.36008 15.0272
315 2 7.18456 7.89626 17.2894
240 2 4.95509 7.23269 9.16101
268 4 4.37136 9.71142 17.1129
111 2 6.62292 5.38253 9.57908
289 2 7.08947 7.6689 11.9224
290 2 6.26985 8.60083 13.3892
241 2 3.77024 9.23052 10.0652
275 2 3.67764 6.99365 17.4817
287 1 7.27791 8.51717 12.7569
191 2 3.7469 10.0147 13.0838