ITEM: TIMESTEP
0
ITEM: NUMBER OF ATOMS
331
ITEM: BOX BOUNDS xy xz yz pp pp pp
-8.6135892155070977e+00 1.7160937306761813e+01 -8.7715429871111290e+00
-2.3082318705380849e+00 1.3000996215598949e+01 1.4562631537980428e+00
-1.5199799933352409e-02 1.7539999799933383e+01 -2.3940356549391200e+00
ITEM: ATOMS id type x y z
230 2 -2.92601 5.15223 2.70097
1 4 0.642131 2.81357 5.67637
2 4 1.12726 4.08506 2.59196
3 1 1.96111 3.42056 6.84853
8 2 1.3418 3.29396 7.80906
9 2 1.13509 1.16554 5.63428
10 2 1.95148 4.52966 6.51883
18 3 0.812952 3.53849 4.24305
83 2 1.98157 0.243381 7.10362
161 2 -0.341004 3.93092 1.41911
6 1 0.999925 2.71209 1.3642
15 2 2.63988 3.25256 1.71849
5 1 3.31368 0.627188 2.18754
12 2 3.91438 1.01457 3.044
4 1 1.85596 -0.603959 6.19252
16 2 -1.14249 5.28877 3.50145
131 3 -0.895465 2.84327 6.38445
11 2 3.02359 2.96653 6.95367
17 2 0.638689 1.71464 1.83207
187 2 3.02067 4.83011 7.90623
14 2 2.46613 1.38057 1.93546
214 1 -2.20681 5.63868 3.51313
266 3 5.71176 3.31035 0.470283
95 2 2.9766 5.26489 4.4093
89 2 3.95582 0.553177 1.25169
162 2 2.2925 -0.254969 5.21174
13 2 1.44625 5.80242 2.38977
79 2 5.18583 -0.00259682 2.36063
311 2 0.896382 2.6268 0.185637
118 3 7.47788 -0.0643143 6.59702
122 3 4.72727 2.09259 7.18913
27 4 4.58689 1.10151 8.42767
24 4 6.93823 0.145533 2.66463
47 1 4.70504 -0.782307 7.8707
184 2 -0.116321 5.20234 7.84176
117 3 7.22349 0.734437 4.04433
82 2 5.52226 -0.717463 7.05958
170 2 -0.809059 3.7876 8.92482
149 4 -0.30098 4.75799 10.449
254 2 -1.66168 3.18773 16.1945
145 4 -1.70148 3.93402 13.1276
116 3 3.09768 1.17617 9.22227
250 1 -1.36935 4.01573 16.962
197 3 -0.931433 4.18994 11.768
22 4 2.67675 0.472444 10.7101
23 4 2.84685 1.81178 13.4049
112 3 1.05339 -0.381759 10.7166
113 3 4.01155 -0.501724 11.1161
114 3 2.8271 1.83107 11.807
77 2 2.52977 3.36367 14.2275
44 1 1.05081 2.07722 14.0456
76 2 0.906965 1.32586 14.9646
60 2 0.775199 3.2249 14.3137
75 2 0.462507 1.62847 13.1166
267 3 5.28158 3.11181 17.4393
262 2 1.68662 -1.75802 16.0063
125 3 3.61253 0.784829 14.3737
278 2 1.61547 0.454532 16.5222
59 2 0.111858 1.95298 9.61215
271 1 0.660028 -0.0977493 16.3089
186 2 3.98551 4.4758 9.86077
322 2 7.45131 -1.45053 16.7094
121 3 4.63615 -1.08285 16.2086
119 3 5.12632 -1.03287 13.4078
84 2 6.14389 0.623716 10.3951
85 2 5.8559 2.55335 10.1244
29 4 4.92057 -0.108501 14.7758
48 1 6.03525 1.54111 9.60242
120 3 6.24634 0.867986 14.8557
99 2 6.5485 1.42537 12.033
310 2 0.753639 -0.730656 14.6673
183 2 -2.82379 5.31205 8.8106
276 2 -0.557405 1.14134 16.5419
326 2 9.00617 -1.80697 14.1026
198 3 1.23338 5.14417 10.2449
188 2 7.47791 -1.64652 12.8428
252 2 -0.335254 3.84593 17.4179
291 1 2.59263 7.38171 2.38665
221 2 -5.95616 11.0636 3.25835
169 2 -5.38055 10.7131 5.51567
143 4 -5.54704 11.2783 7.10237
213 1 -7.09051 10.8985 3.03628
228 2 -5.02414 10.1037 3.90482
220 2 -3.4758 9.5929 5.0225
49 1 -5.26791 9.07085 4.42106
167 2 -4.64779 8.89035 5.36515
144 4 -3.1186 6.26116 5.07594
274 2 -2.39342 7.23995 3.5451
80 2 -3.39177 10.6081 2.68147
62 2 0.156826 9.34397 0.0251504
87 2 -1.72922 11.7959 5.53888
193 3 -6.21311 10.0037 8.14584
285 2 -5.95744 11.7715 0.315122
286 2 -4.45436 10.9921 0.758989
200 3 -1.52193 10.4658 8.56042
158 1 3.64875 5.70135 8.49545
70 2 -3.76643 6.89909 0.103134
294 2 3.09064 6.60538 1.68316
45 1 -2.23689 10.9537 2.79636
293 2 2.93622 7.12878 3.49012
192 3 -2.21485 6.49204 6.35042
206 4 -2.02649 10.4117 4.44471
324 2 0.394662 9.46601 6.92659
227 2 -5.10383 8.20404 3.69984
163 2 -4.76394 8.07506 0.481254
93 2 2.41908 6.85433 5.16647
78 2 -0.640885 11.7996 2.0793
235 2 -0.663225 6.66165 4.30464
98 2 -1.47 10.3117 2.233
146 4 -1.28094 6.55151 7.63845
199 3 -0.777209 7.98096 8.42894
207 4 0.525172 8.85823 5.2544
215 1 0.388207 7.11638 4.68102
232 2 1.49716 7.45616 2.25083
233 2 0.772237 6.6672 5.70958
234 2 1.23237 7.0827 3.78058
242 3 -0.801798 9.4837 4.47159
26 4 -0.495139 11.7928 8.13649
7 2 -6.04264 12.532 2.44294
312 2 -7.77909 12.4103 2.68112
108 2 -4.23013 7.17094 7.62593
185 2 2.91388 7.00634 8.54006
81 2 -3.759 11.4903 8.7606
156 1 -4.01004 6.88051 11.6713
127 3 3.57068 4.7734 15.925
249 4 -0.871841 5.42732 15.7954
126 3 0.819953 5.36148 15.9089
159 1 -0.196302 10.9708 13.0086
319 2 -3.35419 6.25098 11.0358
21 4 -4.60668 11.3139 12.2499
19 4 -4.75495 10.3185 16.1958
115 3 -6.03273 10.793 12.9977
284 2 -4.30519 7.66215 16.408
283 1 -3.75079 8.60193 16.5848
148 4 -4.30208 8.54844 10.7677
194 3 -1.49362 4.99364 14.3795
180 2 -3.51454 7.23522 12.6144
196 3 -3.92522 9.67833 11.737
201 3 -3.16623 8.52411 9.38901
325 2 -3.74288 9.40548 14.9308
202 3 3.29639 6.74515 11.3664
303 2 -0.472179 9.50956 17.5242
204 3 1.49406 8.52867 12.4916
153 4 0.0892616 9.28903 12.1323
282 2 0.0858096 10.7974 15.4294
259 1 -6.57478 10.0943 15.7949
280 4 -1.89988 8.44222 16.8219
281 2 -1.77377 10.1696 15.3777
150 4 2.72506 5.71416 10.2056
331 3 -1.47608 6.82051 16.4578
327 2 -1.058 9.2319 13.4291
301 1 -0.670286 9.90033 15.7492
203 3 -0.684398 9.12633 10.7954
34 4 2.3846 5.79959 15.7441
302 2 -0.304055 8.94277 15.1632
182 2 -1.40908 6.46985 10.2438
64 2 2.62001 6.71585 14.2123
151 4 -1.63187 9.06277 9.28297
270 1 2.5552 7.30754 16.9732
253 2 2.26395 8.19565 16.3664
157 1 -1.62111 5.4099 9.05721
28 4 7.95405 1.21911 5.59352
31 4 6.06378 3.33335 6.61497
123 3 7.47177 2.60508 6.29388
124 3 5.44573 4.30992 5.3545
128 3 9.60845 1.11382 5.43753
263 4 5.16966 4.82844 0.755924
50 1 6.59842 4.46541 7.97722
96 2 4.99723 5.10777 2.59204
109 2 7.8447 4.55351 7.88636
264 2 7.32384 5.00264 0.0206844
46 1 7.77186 1.11088 1.09475
91 2 10.1245 5.41194 6.17472
320 2 8.39913 2.02166 1.58443
40 4 9.79171 4.13402 2.81706
69 2 9.98462 3.62469 0.866252
295 1 11.1903 0.243495 1.06919
137 3 10.277 3.03131 3.7751
42 4 9.63922 5.43425 8.05252
106 2 8.21797 4.84183 3.12421
32 4 4.76649 5.35284 4.39141
58 2 10.8874 5.5633 2.81637
35 4 10.799 2.00563 4.88149
175 2 10.5828 6.2869 1.25471
273 2 11.6371 1.35199 0.982046
304 1 11.2687 4.34617 1.4454
37 4 12.972 2.1852 6.95504
132 3 11.7409 2.6773 5.99487
139 3 12.6423 2.69996 8.50984
133 3 13.1324 0.565325 6.99519
208 4 13.9921 -0.664408 7.45044
129 3 15.2946 -0.321076 8.37877
323 2 11.8307 0.844138 4.10281
306 2 11.9846 3.55795 1.78186
52 1 6.55736 5.94022 0.185288
330 2 11.8013 5.03766 0.685131
65 2 10.584 0.0579211 1.9832
321 2 8.49197 0.330284 0.683243
231 2 12.4 4.4765 4.61663
277 2 13.7742 0.187513 13.8642
179 2 11.7485 4.40542 12.4541
33 4 7.29832 1.88705 14.2106
53 1 7.49069 1.99274 12.4079
63 2 7.51772 3.10512 12.1334
66 2 8.96201 0.99089 11.7283
309 2 11.4204 -0.1495 14.4957
314 2 13.4604 -1.33731 13.1693
100 2 8.80923 1.16903 13.4766
130 3 8.79567 -0.231313 9.43715
134 3 9.52805 0.490983 16.4493
141 3 7.863 3.32166 15.0415
36 4 9.84347 0.593328 10.2107
25 4 8.36245 -0.174881 17.4596
101 2 10.2059 2.38777 14.4854
138 3 10.3381 1.91599 9.57282
103 2 10.4374 3.02539 16.9513
102 2 10.7229 3.87972 15.2104
86 2 6.87889 1.53403 8.84091
140 3 10.519 4.44891 8.94992
155 1 12.0372 3.25931 12.9289
307 1 12.3472 -0.924178 13.1001
269 4 14.5297 -0.345327 15.3513
38 4 10.6859 1.10917 15.6205
308 2 9.22931 -1.36546 12.2209
178 2 11.4371 2.4903 12.4127
104 2 12.2713 3.43006 16.4274
54 1 11.1341 3.11731 16.0451
41 4 11.3619 3.04627 9.39166
189 2 16.1144 -0.996094 17.0728
177 2 11.6663 3.2719 14.1348
305 2 12.2026 1.54878 16.5137
71 2 11.9547 3.37814 10.9401
39 4 12.4459 -0.0109781 11.4753
135 3 13.853 0.0649916 10.6998
136 3 11.075 -0.415478 10.7069
68 2 12.248 0.923004 13.0883
165 2 13.587 2.29659 13.6263
92 2 6.24276 3.79473 8.89841
279 3 13.7807 -1.63357 16.0144
20 4 15.3179 0.288304 9.87574
107 2 7.2021 6.17724 3.25095
94 2 3.70289 6.40271 6.54209
297 2 3.55955 12.0255 0.98788
299 2 1.76521 11.1137 8.1067
298 1 0.943826 11.1267 7.31034
243 3 1.96987 9.43827 4.65041
292 2 3.19319 8.07079 0.673772
209 4 3.3159 9.84745 3.92898
236 2 2.32483 11.81 4.67037
300 2 1.06102 11.795 6.34814
216 1 3.25263 11.769 3.86568
237 2 3.29751 9.09002 2.28632
212 1 6.25324 10.3146 0.382239
51 1 3.56439 6.77998 5.43472
238 2 4.22646 12.3507 4.26677
265 2 4.02005 7.80326 5.29297
226 2 7.97728 10.3341 3.92579
223 2 2.92618 12.2188 2.74805
88 2 9.13559 9.02754 4.72189
171 2 4.76244 5.85331 8.03002
176 2 9.05062 7.37355 0.944347
61 2 7.74427 7.68349 4.2386
55 1 8.09242 6.7103 3.71216
105 2 8.84506 7.00141 2.78692
74 2 6.64664 6.56495 1.2638
218 2 6.00908 9.30293 1.51343
97 2 5.33797 7.0016 4.59303
222 2 3.99833 11.0735 8.30675
56 1 10.3263 6.86297 7.1439
219 2 5.11013 11.8725 3.33905
110 2 9.53412 7.72522 6.96722
205 4 6.36983 11.1875 2.16762
246 3 4.63292 9.51524 4.61714
211 4 5.57792 9.73434 5.92393
245 3 7.36395 9.1679 5.15663
248 3 5.77202 11.3599 6.17815
313 2 7.88049 9.52629 5.92727
247 3 5.09698 8.96614 7.19756
317 2 5.91494 12.0669 0.620949
154 1 10.1724 7.40027 1.25261
164 2 10.7744 6.90989 5.29464
225 2 7.57027 11.9649 6.11603
210 4 5.54144 8.60008 8.73278
229 2 8.42515 10.1593 2.10758
72 2 9.17422 7.07386 8.70955
329 2 10.2953 7.84781 2.33299
90 2 6.08408 5.54228 7.94108
174 2 8.59496 5.96569 4.48739
275 2 1.97536 9.85062 0.0944423
30 4 4.91712 4.60737 16.8898
142 3 6.38971 5.21323 16.2096
239 2 5.19085 10.3926 10.2787
256 2 10.4168 5.17176 14.7924
315 2 6.91971 7.75986 17.2179
240 2 4.82085 7.11576 9.22963
268 4 4.4005 10.0367 16.8515
255 2 10.5033 6.88246 15.4271
289 2 6.86308 7.40271 12.4022
290 2 6.58618 8.30696 13.9655
241 2 3.66283 9.39232 9.94081
173 2 2.86263 11.1824 12.7565
287 1 7.23129 8.2846 13.0685
191 2 3.96097 10.0318 13.2036
272 2 4.00446 8.47822 16.1357
43 4 7.79636 4.42868 16.1426
160 1 4.21146 8.86616 13.1396
67 2 10.7482 6.51237 13.5221
73 2 9.20415 5.4767 16.1219
152 4 2.8904 7.63674 12.6904
172 2 4.47176 8.40688 14.1936
195 3 9.55484 8.51005 10.266
166 2 7.00159 5.35424 11.6777
181 2 10.4553 6.34424 11.844
224 2 7.5003 6.94181 10.7733
190 2 4.94779 8.56001 12.2648
217 1 4.53506 9.96864 9.54085
318 2 8.46148 9.22266 16.5109
260 2 6.96845 9.95213 14.0976
261 2 8.96197 8.02527 13.61
258 4 8.69152 9.74102 13.9128
257 2 8.99912 6.3188 14.4292
288 2 6.94058 9.21259 12.4566
251 1 10.1331 6.22798 14.532
147 4 8.56932 9.50545 9.45259
57 1 6.73357 6.10179 10.818
244 3 7.13336 8.7303 9.10595
168 2 8.19474 10.8243 10.395
328 2 5.70642 6.57718 10.9716
111 2 6.71914 5.47949 9.76101
296 2 2.64489 10.4923 17.3439
316 2 8.71121 7.80495 17.5351
ITEM: TIMESTEP
100
ITEM: NUMBER OF ATOMS
331
ITEM: BOX BOUNDS xy xz yz pp pp pp
-8.6135892155070977e+00 1.7160937306761813e+01 -8.7715429871111290e+00
-2.3082318705380849e+00 1.3000996215598949e+01 1.4562631537980428e+00
-1.5199799933352409e-02 1.7539999799933383e+01 -2.3940356549391200e+00
ITEM: ATOMS id type x y z
230 2 -2.94812 5.256 2.75062
1 4 0.445863 2.84482 5.88102
2 4 0.916332 3.96771 2.90514
3 1 1.87281 3.4776 6.92183
8 2 1.28673 3.34202 7.94575
9 2 1.30446 1.33893 6.01889
10 2 1.83257 4.5752 6.50978
18 3 0.691078 3.43233 4.34571
83 2 1.79836 0.106545 7.30209
161 2 -0.509341 3.89001 1.83294
6 1 1.02829 2.8167 1.35632
15 2 2.51786 3.22532 1.89209
5 1 3.28756 0.668524 2.04057
12 2 3.80078 1.1184 2.93986
4 1 1.977 -0.48692 6.25751
16 2 -1.08009 5.38308 3.45186
131 3 -0.993143 2.83128 6.54106
11 2 2.93314 3.03726 6.92101
17 2 0.554234 1.83979 1.71871
187 2 3.1779 4.87346 7.85162
14 2 2.43828 1.4151 1.7395
214 1 -2.15223 5.71879 3.58939
252 2 -2.12144 6.33279 0.0650662
95 2 3.0262 5.17556 4.22067
89 2 4.01219 0.543595 1.1926
162 2 2.46516 0.175216 5.45952
13 2 1.5789 5.60586 2.67749
79 2 5.14741 0.24652 2.46878
311 2 0.854568 3.19044 0.282437
118 3 7.45894 -0.0866186 6.48113
122 3 4.55474 2.13105 7.12055
27 4 4.41528 1.12245 8.30495
24 4 6.85121 0.372743 2.65656
47 1 4.61641 -0.677621 7.90508
184 2 -0.0775193 5.13214 7.77461
117 3 7.22133 0.808909 4.03953
267 3 3.86769 5.5076 0.105608
82 2 5.56013 -0.64192 7.28395
170 2 -0.764356 3.76517 8.92135
149 4 -0.212232 4.86894 10.4675
254 2 -1.88506 3.31793 16.3096
145 4 -1.89279 4.30964 12.9654
116 3 2.96143 1.21093 9.10952
250 1 -1.57739 4.13731 17.0198
197 3 -0.913461 4.32084 11.7569
22 4 2.68869 0.462147 10.6974
23 4 2.91202 1.83433 13.3845
112 3 1.11161 -0.527031 10.6655
113 3 3.83866 -0.67167 10.9791
114 3 2.69615 1.6174 11.843
77 2 2.73089 3.54345 13.8434
44 1 1.18266 2.32566 14.1338
76 2 1.04199 1.38931 14.9651
60 2 0.809116 3.27404 14.4771
75 2 0.611443 2.00876 13.1359
198 3 1.3499 5.00318 10.2366
262 2 1.62664 -1.68927 16.1236
125 3 3.53736 0.81393 14.4297
278 2 1.48651 0.886669 16.5986
59 2 0.130954 1.90897 9.92567
271 1 0.686102 0.0581409 16.4052
186 2 4.11862 4.65299 9.90401
322 2 7.61275 -1.50211 16.7201
121 3 4.72913 -1.32372 15.9288
119 3 5.37392 -0.980153 13.373
84 2 5.88434 0.451322 9.96617
85 2 5.32885 2.1259 10.4845
29 4 4.88513 -0.0931176 14.6209
48 1 5.69846 1.49486 9.64017
120 3 6.06879 1.08787 14.8607
99 2 6.43761 1.25391 12.3664
310 2 0.921036 -0.652228 14.868
188 2 7.49531 -1.56305 12.846
183 2 -2.64926 5.25043 8.91233
189 2 0.707194 -0.748953 17.1742
326 2 8.98489 -1.67142 13.9705
291 1 2.62086 7.21991 2.42526
221 2 -5.92462 11.0329 3.30594
169 2 -4.781 10.6341 5.58121
143 4 -5.54048 11.1774 7.08845
213 1 -6.98753 10.8268 3.00847
228 2 -5.00624 10.1577 3.98759
220 2 -3.38108 9.53675 4.97776
49 1 -5.21105 9.06007 4.45522
167 2 -4.5273 8.86044 5.40028
144 4 -2.94786 6.21083 5.22691
274 2 -2.33526 7.33284 3.701
80 2 -3.47009 11.3302 2.86236
94 2 3.58077 6.23227 6.56679
87 2 -1.96963 11.8314 5.47063
193 3 -6.12688 10.1027 8.02951
285 2 -5.48606 12.1355 0.350659
286 2 -4.30399 10.8462 0.729169
200 3 -1.43744 10.4838 8.4503
158 1 3.75342 5.69714 8.48018
70 2 -3.92509 6.9345 0.155955
294 2 3.09029 6.52804 1.70257
45 1 -2.29174 11.0636 2.703
293 2 2.9779 6.991 3.51851
192 3 -2.06064 6.35048 6.47973
206 4 -2.04464 10.485 4.39128
324 2 0.753679 9.37436 7.05414
227 2 -5.00872 8.19272 3.6339
185 2 2.84381 7.04019 8.65423
93 2 2.42756 6.6986 5.07794
78 2 -0.900679 11.9746 1.93746
235 2 -0.49103 6.58719 4.29307
98 2 -2.19358 10.0007 2.16995
146 4 -1.16456 6.55278 7.72184
199 3 -0.64204 7.93823 8.28804
207 4 0.505675 8.80185 5.34448
215 1 0.461383 7.08656 4.74246
232 2 1.43002 7.19724 2.35397
233 2 0.832445 6.63034 5.78136
234 2 1.34352 7.22081 3.84026
242 3 -0.779928 9.62327 4.66933
26 4 -0.415094 11.6906 7.90412
7 2 -6.03093 12.5021 2.36317
312 2 -7.70869 12.3648 2.67508
108 2 -4.18066 6.52902 8.07857
329 2 -5.12829 8.09324 2.23474
225 2 -7.77667 11.9549 5.89293
156 1 -3.83321 7.02107 11.7591
127 3 3.58373 4.78046 15.966
249 4 -0.811984 5.40863 15.8195
126 3 0.827076 5.2685 15.7803
159 1 -0.193966 11.0066 12.9013
319 2 -3.03056 6.33899 11.2761
157 1 -1.48824 5.32649 9.05721
19 4 -4.74359 10.2765 16.3011
115 3 -6.14659 11.0031 13.1538
284 2 -4.53376 7.52746 16.9304
283 1 -3.89334 8.48325 16.6933
148 4 -4.19013 8.66602 10.7034
194 3 -1.50639 4.94146 14.4243
180 2 -3.50578 7.48982 12.7099
196 3 -4.02268 9.94184 11.7007
201 3 -3.0457 8.57887 9.62889
325 2 -3.98188 8.89831 15.0708
202 3 3.07083 6.55099 11.637
303 2 -0.646953 9.69228 17.4032
204 3 1.30459 8.58642 12.3411
153 4 -0.0576272 9.29167 12.0061
282 2 -0.16981 10.6997 15.2239
259 1 -6.54608 10.2113 15.8097
280 4 -1.83707 8.38515 16.7381
281 2 -1.97714 9.87619 15.1073
150 4 2.71577 5.82078 10.1925
331 3 -1.34174 6.93873 16.3337
327 2 -1.28484 9.40125 13.2207
301 1 -0.765691 9.8024 15.5988
203 3 -0.671594 9.07544 10.6333
34 4 2.36441 5.72176 15.7922
302 2 -0.160134 8.89566 15.1942
182 2 -1.0789 6.51379 10.3699
64 2 2.53828 6.73357 14.2923
151 4 -1.50639 9.11697 9.23889
270 1 2.73516 7.32752 16.7595
21 4 -4.64679 11.2732 12.2747
81 2 -4.04012 11.5669 8.84721
168 2 -7.0229 10.856 10.4109
62 2 1.6724 7.11913 17.4268
28 4 7.97687 1.16557 5.55725
31 4 6.00797 3.24986 6.46516
123 3 7.36831 2.5858 6.06463
124 3 5.39488 4.2325 5.38046
128 3 9.62404 1.00904 5.5155
263 4 5.26331 4.87864 0.85745
50 1 6.32303 4.45921 7.89128
96 2 5.04386 5.06428 2.59584
109 2 7.45596 4.46015 8.17927
266 3 5.86214 3.40339 0.577884
46 1 7.825 1.46485 1.29927
91 2 9.89668 5.35176 6.23528
320 2 8.24678 2.11468 2.21451
40 4 9.82463 4.02366 2.84488
69 2 9.89251 3.55513 0.932361
295 1 10.7917 -0.0198836 0.998525
137 3 10.2837 2.88873 3.83375
42 4 9.5195 5.18692 8.01426
106 2 8.29303 4.82507 3.17942
32 4 4.76366 5.26241 4.37354
58 2 10.8465 5.52993 2.99857
35 4 10.85 1.82606 4.91974
175 2 10.3845 6.348 1.38269
273 2 11.1173 1.03228 1.23088
304 1 11.2314 4.47015 1.54789
37 4 12.9222 2.19289 7.0568
132 3 11.8077 2.55598 5.92446
139 3 12.5966 2.88128 8.45361
133 3 13.06 0.544288 7.12014
208 4 13.9759 -0.70842 7.43526
129 3 15.0971 -0.27241 8.48628
323 2 11.7656 0.725678 3.99705
306 2 12.024 3.72304 1.97831
52 1 6.6125 5.85596 0.0874776
330 2 11.629 5.17029 0.67969
231 2 12.3916 4.50126 4.59842
321 2 8.59255 0.762343 0.856287
92 2 5.64493 4.01616 8.70008
90 2 5.94156 5.51346 7.45683
277 2 13.8261 0.0795097 14.0374
179 2 11.8333 4.80647 12.3623
33 4 7.42735 1.84515 14.3885
53 1 7.41855 1.77226 12.612
63 2 7.39621 2.87183 12.3725
66 2 8.78247 1.17299 11.4987
309 2 11.5544 0.0689607 14.4416
314 2 13.4741 -1.37571 13.0639
100 2 8.68886 0.821155 13.5727
130 3 8.83522 -0.19102 9.16436
134 3 9.56287 0.440623 16.4978
141 3 7.81822 3.30506 14.891
36 4 9.78921 0.579781 10.112
25 4 8.42808 -0.14644 17.4527
101 2 10.153 2.23746 14.5023
138 3 10.3539 1.9201 9.6327
103 2 10.3207 3.36273 16.8707
102 2 10.5078 3.95516 15.1458
86 2 6.5792 1.97846 9.05286
140 3 10.4546 4.32655 8.88459
155 1 12.012 3.22351 12.9221
307 1 12.4391 -0.940615 13.0551
269 4 14.6379 -0.556205 15.4095
38 4 10.7625 1.09955 15.5998
308 2 9.29427 -1.42325 12.0445
178 2 11.225 2.59294 12.3306
104 2 12.0113 3.56432 16.2299
54 1 10.936 3.29766 15.9711
41 4 11.336 3.09055 9.44084
276 2 14.7468 1.0429 16.4255
177 2 11.6051 3.293 14.0514
305 2 12.1799 1.8532 16.2992
71 2 11.9685 3.53056 11.001
39 4 12.4469 -0.0647783 11.4295
135 3 13.9002 0.084282 10.7774
136 3 11.0144 -0.299851 10.6799
68 2 12.2704 0.959598 12.9573
165 2 13.5353 2.38226 13.0646
264 2 8.7701 2.65015 17.3108
279 3 13.9347 -1.79434 16.1506
20 4 15.4527 0.198795 9.92862
173 2 11.5491 -1.66272 12.8942
107 2 7.03799 6.2412 3.40503
316 2 7.57431 10.3599 0.188496
297 2 3.58168 11.9295 1.07716
299 2 1.86616 11.0739 8.12102
298 1 1.08758 10.873 7.29442
243 3 1.94406 9.29594 4.64445
292 2 3.30334 8.05478 0.776215
209 4 3.27769 9.71542 3.96912
236 2 2.26108 11.7027 4.66682
300 2 1.3086 11.5162 6.35111
216 1 3.14843 11.6235 3.85332
237 2 3.22357 8.99977 2.29568
212 1 6.45362 10.4063 0.35663
51 1 3.52182 6.63303 5.41112
238 2 4.0797 12.0405 4.29488
265 2 4.12222 7.62287 5.28149
226 2 8.07762 10.2703 3.86781
223 2 2.76634 12.1523 2.69039
88 2 9.22609 9.04541 4.72109
171 2 4.7412 5.93987 7.96128
176 2 8.85804 7.54373 1.22339
61 2 7.82737 7.74984 4.45863
55 1 8.03676 6.69771 3.76164
105 2 8.71599 7.02585 2.83863
174 2 8.62065 5.98657 4.38831
218 2 6.29559 9.40243 1.71566
97 2 5.32348 6.86238 4.61084
222 2 4.18424 10.9748 8.41162
56 1 10.3724 6.68049 7.43481
219 2 4.9293 11.6282 2.93858
110 2 9.86883 7.6209 7.62472
205 4 6.37542 11.3456 2.12067
246 3 4.66269 9.34178 4.57796
211 4 5.73446 9.88203 5.72046
245 3 7.52608 9.12944 5.24289
248 3 5.66522 11.5034 6.05743
313 2 7.59302 8.67735 6.18985
247 3 5.34909 8.9305 7.12815
317 2 5.94342 11.8816 0.407385
154 1 9.9974 7.47737 1.32734
164 2 10.9031 6.77266 5.6626
65 2 1.39135 12.5649 1.86813
210 4 5.53293 8.6835 8.73118
229 2 8.58562 10.1629 2.05668
74 2 6.91023 6.46443 1.08332
163 2 10.3885 7.90361 0.417554
30 4 4.95433 4.6339 16.9048
142 3 6.26676 5.2291 16.2374
239 2 5.68662 10.3655 10.3472
256 2 10.4026 5.3713 14.8768
315 2 7.36434 7.49429 17.0226
240 2 4.9211 7.07328 9.19027
268 4 4.41 9.98693 16.9655
253 2 2.64023 8.21778 16.0513
289 2 6.92737 7.66525 12.0496
290 2 6.51966 8.61727 13.5933
241 2 4.10712 9.43273 10.3897
275 2 3.61095 7.38168 17.4606
287 1 7.27953 8.58862 12.7643
191 2 3.95535 9.98664 13.0298
272 2 4.323 8.42063 16.1509
43 4 7.75037 4.42408 16.0221
160 1 4.10654 8.74716 12.9971
67 2 10.8 6.71241 13.5382
73 2 9.09294 5.50556 15.9021
152 4 2.68488 7.64644 12.7645
172 2 4.48228 8.36039 14.0107
195 3 9.71829 8.62444 10.19
166 2 6.49494 5.44615 11.5376
181 2 10.688 6.51712 11.808
224 2 7.68153 6.50875 10.8174
190 2 4.74847 8.34891 12.0887
217 1 4.84928 9.95876 9.73515
318 2 8.56618 9.33095 16.5523
260 2 6.87133 10.1859 13.8517
261 2 8.91987 8.10679 13.3271
258 4 8.60078 9.86831 13.9597
257 2 9.12829 6.71022 14.5247
288 2 7.09017 9.54835 12.1365
251 1 10.2285 6.49611 14.6079
147 4 8.73659 9.54826 9.39467
57 1 6.67254 6.08382 10.7223
244 3 7.34018 8.9183 9.13836
296 2 2.56314 10.3752 17.1198
328 2 5.92424 6.8776 10.7987
111 2 6.58555 5.46219 9.76747
255 2 10.7014 7.22296 15.3966
72 2 8.9783 6.63031 8.78739
ITEM: TIMESTEP
200
ITEM: NUMBER OF ATOMS
331
ITEM: BOX BOUNDS xy xz yz pp pp pp
-8.6135892155070977e+00 1.7160937306761813e+01 -8.7715429871111290e+00
-2.3082318705380849e+00 1.3000996215598949e+01 1.4562631537980428e+00
-1.5199799933352409e-02 1.7539999799933383e+01 -2.3940356549391200e+00
ITEM: ATOMS id type x y z
230 2 -3.1134 5.37005 2.87069
1 4 0.467763 2.83278 6.0534
2 4 0.904808 4.05125 2.90419
3 1 1.80334 3.68996 6.99108
8 2 1.26468 3.66237 8.06117
9 2 1.29976 1.23812 6.05166
10 2 1.75083 4.7492 6.51319
18 3 0.583996 3.52047 4.41361
83 2 1.69229 -0.127424 7.23401
161 2 -0.511776 4.00669 1.68787
6 1 0.790832 2.85531 1.41212
15 2 2.37983 3.35561 1.87215
5 1 3.18232 0.868762 2.27078
12 2 3.68887 1.23799 3.2079
4 1 2.04144 -0.569776 6.22622
16 2 -1.2931 5.54197 3.43912
131 3 -0.996633 2.69532 6.70055
11 2 2.87567 3.12893 6.98239
17 2 0.455125 1.92986 2.06965
187 2 3.2125 4.96804 7.8378
14 2 2.28749 1.59578 1.95755
214 1 -2.35372 5.8476 3.64272
252 2 -2.16991 6.37596 0.158408
95 2 2.88262 5.13998 4.46013
89 2 3.89968 0.771106 1.38678
162 2 2.63311 0.137011 5.58623
13 2 1.15123 5.83804 2.68435
79 2 5.06834 0.723011 2.74914
311 2 0.831327 2.60164 0.300451
118 3 7.29198 -0.145368 6.46012
122 3 4.38656 2.13149 7.0577
27 4 4.25379 1.20705 8.35551
24 4 6.81005 0.460114 2.63043
47 1 4.7574 -0.752424 7.80082
184 2 0.0980663 5.12006 7.78511
7 2 2.72162 -0.188383 2.4801
267 3 3.92732 5.29952 0.0747846
82 2 5.7445 -0.606863 7.19533
170 2 -0.77832 3.85266 8.82477
149 4 -0.181136 4.94569 10.498
254 2 -1.81566 3.28857 16.2917
145 4 -1.89538 4.26466 12.978
116 3 2.77434 1.12907 9.12699
250 1 -1.66729 4.1407 17.0058
197 3 -0.974421 4.37458 11.7129
22 4 2.47315 0.392121 10.7594
23 4 2.69137 1.73273 13.4842
112 3 1.05762 -0.47252 10.7332
113 3 3.72495 -0.69997 10.8176
114 3 2.60822 1.58217 11.9456
77 2 2.87399 3.42621 13.9532
44 1 1.22671 2.59498 14.4461
76 2 1.08866 1.59564 15.3356
60 2 1.07427 3.67615 14.9388
75 2 0.46021 2.4235 13.5374
198 3 1.42313 4.93517 10.2766
262 2 1.66405 -1.71158 16.0507
125 3 3.52717 0.801527 14.4533
278 2 1.63848 0.823453 16.5523
59 2 -0.0246709 1.86843 9.835
271 1 0.80899 -0.00102007 16.4209
186 2 4.31912 4.60026 9.87445
322 2 7.47271 -1.45073 16.7456
121 3 4.73411 -1.36783 15.9248
119 3 5.28993 -0.666245 13.13
84 2 6.22652 0.613073 9.47532
85 2 5.23281 1.94484 10.4769
29 4 4.94387 -0.0355536 14.6428
48 1 5.64774 1.68989 9.45376
120 3 6.24779 0.875905 15.0063
99 2 6.43685 1.10413 12.3082
310 2 0.725091 -0.654125 14.7623
188 2 7.48242 -1.42521 12.5193
189 2 0.903269 -0.884409 17.1906
326 2 8.53588 -1.52745 14.0506
157 1 -1.42935 5.30908 8.9345
183 2 -2.59002 5.24231 8.79147
21 4 4.26522 -1.56948 12.2625
291 1 2.56765 7.11097 2.51378
221 2 -5.82814 11.0441 3.32371
169 2 -5.00865 10.479 5.46355
143 4 -5.31826 11.1475 7.02567
213 1 -6.9366 10.9742 2.98721
228 2 -4.95956 10.0037 3.73722
220 2 -3.49038 9.45127 4.8705
49 1 -5.26712 8.95787 4.20355
167 2 -4.67063 8.71113 5.19552
144 4 -3.13681 6.15271 5.25946
274 2 -2.70939 7.488 3.81691
80 2 -3.33354 11.3777 2.79415
225 2 -7.55117 11.7829 5.66473
87 2 -2.03915 11.7374 5.40444
193 3 -6.156 10.251 8.03938
285 2 -5.80998 12.1249 0.50949
286 2 -4.19653 11.074 0.777545
200 3 -1.39773 10.5208 8.17616
158 1 3.896 5.70342 8.52586
70 2 -4.158 6.89117 0.05112
294 2 3.02929 6.33803 1.80263
45 1 -2.20981 11.1718 2.72622
293 2 2.98377 6.97337 3.57811
192 3 -2.10575 6.26864 6.4313
206 4 -2.06611 10.3361 4.39262
324 2 0.839884 9.26845 7.11551
227 2 -5.10503 8.09939 3.39862
185 2 2.99565 7.0342 8.66402
93 2 2.42517 6.67696 5.24502
78 2 -1.13895 12.1047 1.59528
235 2 -0.668624 6.73804 4.46612
98 2 -2.07191 10.1277 2.13554
146 4 -1.04903 6.45734 7.60719
199 3 -0.58629 7.82023 8.29357
207 4 0.649337 8.86574 5.34456
215 1 0.45417 7.12872 4.80857
232 2 1.49842 7.25084 2.44782
233 2 0.840895 6.70373 5.85128
234 2 1.2262 7.19805 3.87118
242 3 -0.738285 9.60594 4.79019
26 4 -0.347378 11.7428 7.87488
312 2 -7.73252 12.4758 2.87163
62 2 0.440458 9.96701 -0.0054783
156 1 -3.85221 7.08595 11.6647
127 3 3.62773 4.65401 16.1101
249 4 -0.883114 5.39182 15.8852
126 3 0.989473 5.27813 16.1019
159 1 -0.310908 11.1448 12.9491
319 2 -3.07886 6.35041 11.203
255 2 -4.66848 7.29743 15.4809
19 4 -4.75566 10.2081 16.2211
115 3 -6.04361 10.8683 13.1042
284 2 -4.47258 7.65732 17.1183
283 1 -3.86359 8.52211 16.8714
148 4 -4.08511 8.66468 10.565
194 3 -1.3564 4.89067 14.4508
180 2 -3.3843 7.62995 12.5715
196 3 -3.97581 9.90124 11.8922
201 3 -2.96314 8.71564 9.30551
325 2 -3.95476 8.82824 15.1609
202 3 3.05464 6.79063 11.4366
303 2 -0.561487 9.50147 17.3536
204 3 1.2015 8.44238 12.5883
153 4 -0.00510285 9.50788 12.005
282 2 -0.245014 10.876 15.3161
259 1 -6.54065 10.0415 15.774
280 4 -1.88965 8.42083 16.6857
281 2 -2.10151 10.1115 15.2586
150 4 2.84246 5.71706 10.2242
331 3 -1.5081 6.95309 16.2528
327 2 -1.21468 9.42458 13.2391
301 1 -0.903254 9.90422 15.5587
203 3 -0.666034 9.31854 10.53
34 4 2.4503 5.69189 15.8333
302 2 -0.482136 8.99049 14.9337
182 2 -0.892752 6.57672 10.2519
64 2 2.59156 6.61264 14.2773
151 4 -1.4273 9.13121 9.1234
270 1 2.7491 7.31126 16.8199
152 4 2.62805 7.70511 12.7335
81 2 -3.89044 11.5642 8.84801
168 2 -7.16172 10.8616 10.2949
195 3 -5.6952 8.62672 10.0385
28 4 8.00575 1.09885 5.75479
31 4 5.93008 3.14868 6.40389
123 3 7.40332 2.49502 6.29786
124 3 5.39349 4.09438 5.14089
128 3 9.55633 0.982607 5.66616
263 4 5.32734 4.89677 0.787319
50 1 6.28351 4.3176 7.75543
96 2 4.98208 5.02278 2.53689
109 2 7.86516 4.04419 8.19057
266 3 6.07362 3.52713 0.393602
46 1 7.6684 1.5958 1.28834
91 2 9.59173 5.09336 6.27639
320 2 7.85296 2.39652 2.14654
40 4 9.74508 4.05923 2.92793
69 2 9.67216 3.68629 1.01492
264 2 7.61362 5.52834 0.0195782
137 3 10.2456 2.93884 3.97075
42 4 9.44296 5.07156 8.09408
106 2 8.16195 4.78456 3.1616
32 4 4.64198 5.227 4.26737
58 2 10.6892 5.7158 2.921
35 4 10.7969 1.78492 4.96937
321 2 8.63313 1.08602 0.878109
273 2 11.24 0.786956 1.0304
304 1 11.0558 4.59161 1.60373
37 4 12.9275 2.10411 7.14728
132 3 11.8797 2.4611 5.89039
139 3 12.6256 2.65176 8.62144
133 3 12.879 0.438817 7.2817
208 4 13.9754 -0.693697 7.477
129 3 15.2563 -0.26658 8.4042
323 2 11.6585 0.701484 4.02817
306 2 11.861 3.84202 1.97279
52 1 6.6622 6.14285 0.160303
330 2 11.5333 5.23583 0.775154
231 2 12.2407 4.48805 4.58648
90 2 6.08465 5.36594 7.46092
92 2 5.45906 3.7995 8.54634
117 3 7.39864 0.821348 3.97945
277 2 13.5625 0.0942216 14.3026
20 4 15.1959 0.220906 9.96065
33 4 7.36569 1.82685 14.3041
53 1 7.47796 1.63563 12.5175
63 2 7.5539 2.74691 12.1379
66 2 8.73474 0.774068 11.4347
309 2 11.8619 0.187912 14.6904
314 2 13.376 -1.5134 13.2081
100 2 8.78588 0.883567 13.4869
130 3 9.03668 -0.31499 9.09309
134 3 9.63315 0.486641 16.4383
141 3 7.79821 3.31939 14.9259
36 4 9.87023 0.498576 10.1191
25 4 8.36289 -0.0840951 17.3753
101 2 10.125 2.44175 14.5065
138 3 10.3671 1.91216 9.71298
103 2 10.2908 3.31779 16.9617
102 2 10.4005 4.03031 15.178
173 2 11.4679 -1.55867 13.1488
140 3 10.6327 4.43766 8.94393
155 1 11.9508 3.22147 12.9589
307 1 12.3768 -0.881249 13.1726
269 4 14.6476 -0.492485 15.5935
38 4 10.8274 1.24518 15.6077
308 2 9.44752 -1.30214 12.2787
178 2 11.2513 2.63772 12.4114
104 2 12.0425 3.79589 16.2035
54 1 10.903 3.37823 15.9744
41 4 11.3024 3.10036 9.43373
279 3 14.0458 -1.80103 16.2244
177 2 11.567 3.32575 14.0689
305 2 11.9938 1.90206 16.7089
71 2 11.9904 3.50579 11.0178
39 4 12.4317 -0.118477 11.4807
135 3 13.8316 0.0500327 10.7345
136 3 11.0733 -0.391618 10.6476
68 2 12.2465 0.981884 12.9173
165 2 13.5018 2.38363 13.1317
86 2 6.35152 2.45292 9.07049
276 2 14.8701 0.913244 16.8626
94 2 3.73215 6.25633 6.57078
107 2 7.19886 6.09827 3.51243
297 2 3.42429 11.6379 1.16251
299 2 1.98379 11.2714 7.85052
298 1 1.12656 10.9479 7.15595
243 3 1.99988 9.31816 4.61358
292 2 3.30169 7.87402 0.946378
209 4 3.32561 9.78001 3.86592
236 2 2.35601 11.693 4.61087
300 2 1.08577 11.4456 6.0854
216 1 3.26153 11.6676 3.76744
237 2 3.2586 8.83259 2.31034
212 1 6.54478 10.182 0.293777
51 1 3.56937 6.64308 5.50611
238 2 4.15338 12.2288 4.21006
265 2 4.04097 7.6696 5.23977
226 2 8.18143 10.3648 3.87202
223 2 2.82409 12.1247 2.66474
88 2 9.20393 9.04957 4.52536
171 2 4.90054 5.93338 7.99196
176 2 8.64915 7.41491 1.1102
61 2 7.74689 7.70569 4.27525
55 1 8.08022 6.67024 3.75225
105 2 8.72833 6.99673 2.75019
174 2 8.74229 6.14635 4.46037
218 2 6.4227 9.32137 1.56009
97 2 5.2965 6.80102 4.5918
222 2 4.3072 10.9466 8.50464
56 1 10.1176 6.68276 7.12919
219 2 5.06898 11.4986 2.9859
110 2 9.3772 7.58733 7.23636
205 4 6.55397 11.3129 2.04326
246 3 4.73228 9.39065 4.6059
211 4 5.69161 9.94455 5.79759
245 3 7.42635 9.19592 5.03621
248 3 5.61768 11.5609 6.0139
313 2 7.94875 9.57242 5.81718
247 3 5.49486 9.2202 7.23434
317 2 6.25591 12.0578 0.494358
154 1 9.75223 7.48993 1.08885
164 2 10.5455 6.51981 5.47099
65 2 1.21807 12.6362 1.74996
210 4 5.7458 8.78754 8.76223
229 2 8.61643 10.3291 2.00817
74 2 6.62395 6.70941 1.19612
163 2 10.0664 7.89669 0.139374
295 1 1.99895 12.693 0.945889
175 2 10.257 6.38119 1.27797
72 2 8.92068 6.72653 8.56772
108 2 11.0736 6.74512 7.70591
329 2 10.0732 8.20567 1.99744
30 4 5.00875 4.42661 17.0497
142 3 6.24433 5.14859 16.3295
239 2 5.309 10.3762 10.4878
256 2 10.4359 5.43684 14.8759
315 2 7.32302 7.53189 17.0552
240 2 4.96191 7.23187 9.10594
268 4 4.40739 9.71334 16.9567
253 2 2.70838 7.99111 15.8677
289 2 7.10886 7.70587 11.8407
290 2 6.32108 8.6778 13.3125
241 2 3.78138 9.18979 9.97099
275 2 3.72203 6.97869 17.3191
287 1 7.31973 8.56072 12.6612
191 2 3.8307 10.0177 12.9533
272 2 4.38641 8.23395 16.1101