LAMMPS (2 Aug 2023 - Update 2)
  using 1 OpenMP thread(s) per MPI task
Reading data file ...
  triclinic box = (0 0 0) to (15.3172 13.8463 18.3222) with tilt (-7.7318 0.2463 -0.1382)
WARNING: Triclinic box skew is large. LAMMPS will run inefficiently. (src/domain.cpp:220)
  2 by 2 by 2 MPI processor grid
  reading atoms ...
  365 atoms
Finding 1-2 1-3 1-4 neighbors ...
  special bond factors lj:    0        0        0       
  special bond factors coul:  0        0        0       
     0 = max # of 1-2 neighbors
     0 = max # of 1-3 neighbors
     0 = max # of 1-4 neighbors
     1 = max # of special neighbors
  special bonds CPU = 0.001 seconds
  read_data CPU = 0.008 seconds
WARNING: Van der Waals parameters for element SI indicate inner wall+shielding, but earlier atoms indicate a different van der Waals method. This may cause division-by-zero errors. Keeping van der Waals setting for earlier atoms. (src/REAXFF/reaxff_ffield.cpp:251)
System init for write_restart ...
WARNING: Fix qeq/reaxff group is not charge neutral, net charge = -6.56 (src/REAXFF/fix_qeq_reaxff.cpp:392)
Neighbor list info ...
  update: every = 1 steps, delay = 0 steps, check = yes
  max neighbors/atom: 2000, page size: 100000
  master list distance cutoff = 12
  ghost atom cutoff = 12
  binsize = 6, bins = 4 3 4
  2 neighbor lists, perpetual/occasional/extra = 2 0 0
  (1) pair reaxff, perpetual
      attributes: half, newton off, ghost
      pair build: half/bin/newtoff/ghost
      stencil: full/ghost/bin/3d
      bin: standard
  (2) fix qeq/reaxff, perpetual, copy from (1)
      attributes: half, newton off
      pair build: copy
      stencil: none
      bin: none
  using 1 OpenMP thread(s) per MPI task
Reading restart file ...
  restart file = 2 Aug 2023, LAMMPS = 2 Aug 2023
  restoring atom style full from restart
  triclinic box = (0 0 0) to (15.3172 13.8463 18.3222) with tilt (-7.7318 0.2463 -0.1382)
WARNING: Triclinic box skew is large. LAMMPS will run inefficiently. (src/domain.cpp:220)
  2 by 2 by 2 MPI processor grid
  pair style reaxff stores no restart info
  365 atoms
Finding 1-2 1-3 1-4 neighbors ...
  special bond factors lj:    0        0        0       
  special bond factors coul:  0        0        0       
     0 = max # of 1-2 neighbors
     0 = max # of 1-3 neighbors
     0 = max # of 1-4 neighbors
     1 = max # of special neighbors
  special bonds CPU = 0.000 seconds
  read_restart CPU = 0.004 seconds
*****Positive-deform 3 starts.*****
WARNING: Van der Waals parameters for element SI indicate inner wall+shielding, but earlier atoms indicate a different van der Waals method. This may cause division-by-zero errors. Keeping van der Waals setting for earlier atoms. (src/REAXFF/reaxff_ffield.cpp:251)

CITE-CITE-CITE-CITE-CITE-CITE-CITE-CITE-CITE-CITE-CITE-CITE-CITE

Your simulation uses code contributions which should be cited:
- pair reaxff command: doi:10.1016/j.parco.2011.08.005
- fix qeq/reaxff command: doi:10.1016/j.parco.2011.08.005
The log file lists these citations in BibTeX format.

CITE-CITE-CITE-CITE-CITE-CITE-CITE-CITE-CITE-CITE-CITE-CITE-CITE

WARNING: Compute rdf cutoff less than neighbor cutoff - forcing a needless neighbor list build (src/compute_rdf.cpp:179)
WARNING: Fix qeq/reaxff group is not charge neutral, net charge = -6.56 (src/REAXFF/fix_qeq_reaxff.cpp:392)
Neighbor list info ...
  update: every = 10 steps, delay = 0 steps, check = no
  max neighbors/atom: 2000, page size: 100000
  master list distance cutoff = 12
  ghost atom cutoff = 12
  binsize = 6, bins = 4 3 4
  3 neighbor lists, perpetual/occasional/extra = 2 1 0
  (1) pair reaxff, perpetual
      attributes: half, newton off, ghost
      pair build: half/bin/newtoff/ghost
      stencil: full/ghost/bin/3d
      bin: standard
  (2) compute rdf, occasional
      attributes: half, newton on, cut 7
      pair build: half/bin/newton/tri
      stencil: half/bin/3d/tri
      bin: standard
  (3) fix qeq/reaxff, perpetual, copy from (1)
      attributes: half, newton off
      pair build: copy
      stencil: none
      bin: none
Setting up Verlet run ...
  Unit style    : real
  Current step  : 0
  Time step     : 0.5
Per MPI rank memory allocation (min/avg/max) = 133.1 | 133.9 | 134.9 Mbytes
   Step          Temp          Press          Volume           Lz          Density    
         0   300            175885.62      3885.8921      18.3222        1.701333     
       100   1273.0949      15739.33       3887.8351      18.331361      1.7004827    
       200   766.91656      11699.361      3889.778       18.340522      1.6996333    
       300   545.97117      35381.162      3891.721       18.349683      1.6987848    
       400   399.08488      11038.466      3893.6639      18.358844      1.6979371    
       500   358.068        8760.7661      3895.6069      18.368005      1.6970902    
       600   295.37355      11940.951      3897.5498      18.377167      1.6962442    
       700   277.03578     -609.66961      3899.4927      18.386328      1.6953991    
       800   278.59803      16263.357      3901.4357      18.395489      1.6945547    
       900   293.68757      7605.8786      3903.3786      18.40465       1.6937113    
      1000   306.20691     -7751.3022      3905.3216      18.413811      1.6928686    
      1100   319.43062      1443.791       3907.2645      18.422972      1.6920268    
      1200   288.7646      -8371.0627      3909.2075      18.432133      1.6911858    
      1300   302.46709      11940.019      3911.1504      18.441294      1.6903457    
      1400   276.63409      8209.3806      3913.0934      18.450455      1.6895064    
      1500   280.24372      9118.6697      3915.0363      18.459616      1.6886679    
      1600   291.80928      4243.179       3916.9793      18.468778      1.6878303    
      1700   326.8769       7856.9522      3918.9222      18.477939      1.6869935    
      1800   308.86706     -639.94465      3920.8651      18.4871        1.6861575    
      1900   279.88791      11266.719      3922.8081      18.496261      1.6853224    
      2000   286.64993     -12821.778      3924.751       18.505422      1.6844881    
      2100   302.47555     -14570.74       3926.694       18.514583      1.6836546    
      2200   320.11374     -287.80905      3928.6369      18.523744      1.6828219    
      2300   310.30149     -3368.6659      3930.5799      18.532905      1.6819901    
      2400   312.89846     -3618.5327      3932.5228      18.542066      1.681159     
      2500   308.02658      937.06385      3934.4658      18.551227      1.6803288    
      2600   275.80399     -14755.061      3936.4087      18.560389      1.6794995    
      2700   285.39645     -424.7973       3938.3517      18.56955       1.6786709    
      2800   305.72213     -2948.8926      3940.2946      18.578711      1.6778432    
      2900   339.98044     -11185.586      3942.2376      18.587872      1.6770162    
      3000   315.66047     -5111.7443      3944.1805      18.597033      1.6761901    
      3100   292.97962     -8726.1093      3946.1234      18.606194      1.6753648    
      3200   266.6965       4311.0636      3948.0664      18.615355      1.6745403    
      3300   280.47523     -6351.7594      3950.0093      18.624516      1.6737166    
      3400   301.35422      4288.0614      3951.9523      18.633677      1.6728938    
      3500   323.25755     -7963.4882      3953.8952      18.642838      1.6720717    
      3600   308.72582     -6650.8248      3955.8382      18.652         1.6712504    
      3700   305.01498     -3423.6833      3957.7811      18.661161      1.67043      
      3800   274.37962     -1256.9812      3959.7241      18.670322      1.6696104    
      3900   287.24677     -4576.9384      3961.667       18.679483      1.6687915    
      4000   292.20483     -11319.217      3963.61        18.688644      1.6679735    
      4100   307.51574     -7895.7409      3965.5529      18.697805      1.6671563    
      4200   309.35357      2018.5791      3967.4959      18.706966      1.6663398    
      4300   294.62998      3170.0503      3969.4388      18.716127      1.6655242    
      4400   288.20979      5399.1         3971.3817      18.725288      1.6647094    
      4500   292.91925      4368.884       3973.3247      18.73445       1.6638953    
      4600   318.63654     -16380.83       3975.2676      18.743611      1.6630821    
      4700   295.15579     -16436.346      3977.2106      18.752772      1.6622696    
      4800   296.14389     -8338.4636      3979.1535      18.761933      1.661458     
      4900   283.15706     -162.88646      3981.0965      18.771094      1.6606471    
      5000   294.59486     -3971.0743      3983.0394      18.780255      1.659837     
      5100   308.68731     -1884.8822      3984.9824      18.789416      1.6590277    
      5200   324.23322     -16396.391      3986.9253      18.798577      1.6582193    
      5300   308.92023     -687.99907      3988.8683      18.807738      1.6574116    
      5400   294.20363      5053.0861      3990.8112      18.816899      1.6566046    
      5500   268.69665      4148.1375      3992.7542      18.82606       1.6557985    
      5600   301.71824      4428.0835      3994.6971      18.835222      1.6549931    
      5700   310.05795     -8086.3713      3996.64        18.844383      1.6541886    
      5800   305.43885     -13624.958      3998.583       18.853544      1.6533848    
      5900   290.2529      -9140.0662      4000.5259      18.862705      1.6525818    
      6000   293.01621     -11633.843      4002.4689      18.871866      1.6517796    
      6100   284.72769     -7955.4432      4004.4118      18.881027      1.6509781    
      6200   308.2871      -18018.828      4006.3548      18.890188      1.6501775    
      6300   311.28186     -9917.7669      4008.2977      18.899349      1.6493776    
      6400   309.69447     -2899.1134      4010.2407      18.90851       1.6485784    
      6500   315.45406     -3831.5287      4012.1836      18.917671      1.6477801    
      6600   291.38253     -5882.4374      4014.1266      18.926833      1.6469825    
      6700   283.34409     -7122.3633      4016.0695      18.935994      1.6461857    
      6800   331.65595     -15474.409      4018.0125      18.945155      1.6453897    
      6900   290.54527     -7510.1136      4019.9554      18.954316      1.6445944    
      7000   297.71102     -17146.369      4021.8983      18.963477      1.6438       
      7100   307.68723     -15194.658      4023.8413      18.972638      1.6430062    
      7200   298.15006     -16347.402      4025.7842      18.981799      1.6422133    
      7300   301.47943      1204.3674      4027.7272      18.99096       1.6414211    
      7400   309.77922     -398.45231      4029.6701      19.000121      1.6406297    
      7500   311.55087     -8130.0159      4031.6131      19.009282      1.639839     
      7600   314.67717      1728.4175      4033.556       19.018444      1.6390491    
      7700   316.05201     -6671.8474      4035.499       19.027605      1.6382599    
      7800   297.11704     -1338.157       4037.4419      19.036766      1.6374716    
      7900   294.31895     -8584.2304      4039.3849      19.045927      1.6366839    
      8000   320.45659     -14305.321      4041.3278      19.055088      1.6358971    
      8100   305.15997     -6502.1455      4043.2708      19.064249      1.635111     
      8200   315.98144     -14453.4        4045.2137      19.07341       1.6343256    
      8300   275.50198     -6628.9199      4047.1566      19.082571      1.633541     
      8400   280.14738     -18267.848      4049.0996      19.091732      1.6327572    
      8500   304.00273     -14591.294      4051.0425      19.100893      1.6319741    
      8600   311.62332     -2118.3066      4052.9855      19.110055      1.6311917    
      8700   304.79587     -464.39245      4054.9284      19.119216      1.6304101    
      8800   317.69554     -10029.347      4056.8714      19.128377      1.6296293    
      8900   305.16316     -3989.0756      4058.8143      19.137538      1.6288492    
      9000   298.29137     -8761.7121      4060.7573      19.146699      1.6280698    
      9100   297.86226     -12996.821      4062.7002      19.15586       1.6272912    
      9200   313.2558      -10876.998      4064.6432      19.165021      1.6265133    
      9300   312.60734     -4988.0716      4066.5861      19.174182      1.6257362    
      9400   297.6925      -9911.8341      4068.529       19.183343      1.6249598    
      9500   317.93772      2567.569       4070.472       19.192504      1.6241842    
      9600   289.55534      1100.7323      4072.4149      19.201666      1.6234093    
      9700   290.72742     -9565.5296      4074.3579      19.210827      1.6226352    
      9800   298.82029      4902.8394      4076.3008      19.219988      1.6218617    
      9900   296.37676     -11901.988      4078.2438      19.229149      1.621089     
     10000   301.5245      -11688.888      4080.1867      19.23831       1.6203171    
     10100   294.25368     -6736.5393      4082.1297      19.247471      1.6195459    
     10200   302.54365     -12820.371      4084.0726      19.256632      1.6187754    
     10300   309.91721     -16887.122      4086.0156      19.265793      1.6180057    
     10400   296.93588     -8792.9724      4087.9585      19.274954      1.6172367    
     10500   292.59029     -11056.393      4089.9015      19.284115      1.6164684    
     10600   296.61758     -7973.1284      4091.8444      19.293277      1.6157008    
     10700   270.38184     -3977.3095      4093.7873      19.302438      1.614934     
     10800   305.36585     -21684.562      4095.7303      19.311599      1.6141679    
     10900   286.87011     -9492.5269      4097.6732      19.32076       1.6134025    
     11000   322.07003     -16231.196      4099.6162      19.329921      1.6126379    
     11100   328.41959     -7137.5514      4101.5591      19.339082      1.611874     
     11200   294.90415     -4825.1173      4103.5021      19.348243      1.6111108    
     11300   288.04377     -13972.136      4105.445       19.357404      1.6103483    
     11400   299.25863     -11388.903      4107.388       19.366565      1.6095865    
     11500   301.92667     -10460.475      4109.3309      19.375726      1.6088255    
     11600   311.10497     -6029.6022      4111.2739      19.384888      1.6080652    
     11700   321.24096     -2433.9006      4113.2168      19.394049      1.6073056    
     11800   318.20245     -695.49692      4115.1598      19.40321       1.6065467    
     11900   315.56677     -7455.424       4117.1027      19.412371      1.6057885    
     12000   285.37945     -7721.0258      4119.0456      19.421532      1.6050311    
     12100   301.39847     -5820.2064      4120.9886      19.430693      1.6042744    
     12200   292.75481     -14511.211      4122.9315      19.439854      1.6035183    
     12300   291.76933      6562.3305      4124.8745      19.449015      1.602763     
     12400   283.09095     -7984.1207      4126.8174      19.458176      1.6020084    
     12500   282.74058     -8593.4553      4128.7604      19.467337      1.6012545    
     12600   308.23371     -8688.8974      4130.7033      19.476499      1.6005014    
     12700   282.94138     -2055.4808      4132.6463      19.48566       1.5997489    
     12800   308.66015     -911.41727      4134.5892      19.494821      1.5989971    
     12900   288.42871     -7374.3097      4136.5322      19.503982      1.5982461    
     13000   278.32577     -16131.69       4138.4751      19.513143      1.5974957    
     13100   285.91791      7370.625       4140.4181      19.522304      1.5967461    
     13200   290.36006     -882.66142      4142.361       19.531465      1.5959971    
     13300   316.52981     -1848.5985      4144.3039      19.540626      1.5952489    
     13400   280.21963     -5345.7131      4146.2469      19.549787      1.5945014    
     13500   326.63998     -5427.871       4148.1898      19.558948      1.5937545    
     13600   322.76919     -18136.414      4150.1328      19.56811       1.5930084    
     13700   306.47511     -20495.278      4152.0757      19.577271      1.5922629    
     13800   288.33585     -20812.979      4154.0187      19.586432      1.5915182    
     13900   300.53913     -6795.0144      4155.9616      19.595593      1.5907742    
     14000   315.78925     -6245.5546      4157.9046      19.604754      1.5900308    
     14100   277.37633     -12818.582      4159.8475      19.613915      1.5892881    
     14200   299.52646     -11716.818      4161.7905      19.623076      1.5885462    
     14300   296.65395     -3478.0067      4163.7334      19.632237      1.5878049    
     14400   290.32647     -957.83378      4165.6764      19.641398      1.5870643    
     14500   299.69635     -4095.712       4167.6193      19.650559      1.5863244    
     14600   301.37323     -7638.4438      4169.5622      19.659721      1.5855852    
     14700   299.61495      4288.6971      4171.5052      19.668882      1.5848467    
     14800   304.58922     -532.83544      4173.4481      19.678043      1.5841089    
     14900   327.17064     -11409.444      4175.3911      19.687204      1.5833718    
     15000   289.52073     -15235.241      4177.334       19.696365      1.5826353    
     15100   285.86194     -6525.2634      4179.277       19.705526      1.5818995    
     15200   301.02917     -8263.2208      4181.2199      19.714687      1.5811645    
     15300   297.18723     -6764.9764      4183.1629      19.723848      1.5804301    
     15400   291.20933     -4409.4967      4185.1058      19.733009      1.5796963    
     15500   300.57715     -6181.3174      4187.0488      19.742171      1.5789633    
     15600   318.19771     -13478.692      4188.9917      19.751332      1.5782309    
     15700   318.05119     -12752.346      4190.9347      19.760493      1.5774993    
     15800   304.91868      7407.1086      4192.8776      19.769654      1.5767683    
     15900   280.51216     -947.39111      4194.8205      19.778815      1.5760379    
     16000   290.24524     -6314.3609      4196.7635      19.787976      1.5753083    
     16100   299.96207     -2948.0489      4198.7064      19.797137      1.5745793    
     16200   317.23284     -7136.29        4200.6494      19.806298      1.573851     
     16300   305.55332     -9483.8747      4202.5923      19.815459      1.5731234    
     16400   285.95259     -18351.572      4204.5353      19.82462       1.5723964    
     16500   298.8709      -10258.875      4206.4782      19.833782      1.5716702    
     16600   276.48248     -9791.6551      4208.4212      19.842943      1.5709446    
     16700   291.16065     -9556.2123      4210.3641      19.852104      1.5702196    
     16800   294.44003     -10292.95       4212.3071      19.861265      1.5694953    
     16900   299.73406     -14596.967      4214.25        19.870426      1.5687717    
     17000   295.42639     -385.49241      4216.1929      19.879587      1.5680488    
     17100   289.6792      -9887.2404      4218.1359      19.888748      1.5673265    
     17200   290.77706     -8198.5765      4220.0788      19.897909      1.5666049    
     17300   296.07439     -12753.84       4222.0218      19.90707       1.565884     
     17400   297.93239     -12498.291      4223.9647      19.916231      1.5651637    
     17500   296.50322     -20639.855      4225.9077      19.925392      1.5644441    
     17600   306.17017      42.545493      4227.8506      19.934554      1.5637251    
     17700   290.43596     -16540.874      4229.7936      19.943715      1.5630069    
     17800   316.22754     -14806.821      4231.7365      19.952876      1.5622892    
     17900   290.57337     -23419.083      4233.6795      19.962037      1.5615722    
     18000   296.00615     -14021.947      4235.6224      19.971198      1.5608559    
     18100   301.06301     -9121.3691      4237.5654      19.980359      1.5601403    
     18200   292.62791     -8352.5014      4239.5083      19.98952       1.5594253    
     18300   299.11242     -510.87293      4241.4512      19.998681      1.5587109    
     18400   309.91688     -4971.3404      4243.3942      20.007842      1.5579972    
     18500   305.78258     -15438.102      4245.3371      20.017003      1.5572842    
     18600   295.97182     -16657.564      4247.2801      20.026165      1.5565718    
     18700   298.29493     -13968.65       4249.223       20.035326      1.55586      
     18800   282.72554     -7808.0804      4251.166       20.044487      1.555149     
     18900   314.56051     -11804.603      4253.1089      20.053648      1.5544385    
     19000   319.04561     -30609.15       4255.0519      20.062809      1.5537287    
     19100   324.58811     -21070.118      4256.9948      20.07197       1.5530196    
     19200   297.37078     -4054.2124      4258.9378      20.081131      1.5523111    
     19300   299.18932     -9532.25        4260.8807      20.090292      1.5516032    
     19400   306.59101     -2628.0624      4262.8237      20.099453      1.550896     
     19500   313.40428     -10741.442      4264.7666      20.108614      1.5501895    
     19600   297.66455      6560.3421      4266.7095      20.117776      1.5494836    
     19700   282.04398     -16748.387      4268.6525      20.126937      1.5487783    
     19800   303.20839     -4286.1587      4270.5954      20.136098      1.5480737    
     19900   297.20761     -9024.7668      4272.5384      20.145259      1.5473697    
     20000   329.67116     -9190.2116      4274.4813      20.15442       1.5466663    
     20100   315.84089     -24056.966      4276.4243      20.163581      1.5459636    
     20200   267.71482     -1200.3055      4278.3672      20.172742      1.5452615    
     20300   298.36557      769.84678      4280.3102      20.181903      1.5445601    
     20400   294.71472     -11631.515      4282.2531      20.191064      1.5438593    
     20500   307.41435     -12589.815      4284.1961      20.200225      1.5431591    
     20600   319.60245     -15346.088      4286.139       20.209387      1.5424596    
     20700   289.42792     -11126.523      4288.082       20.218548      1.5417607    
     20800   293.69646     -24444.509      4290.0249      20.227709      1.5410625    
     20900   299.80016     -14775.495      4291.9678      20.23687       1.5403648    
     21000   313.31803      176.01184      4293.9108      20.246031      1.5396678    
     21100   311.44221     -15073.868      4295.8537      20.255192      1.5389715    
     21200   320.18671     -18987.294      4297.7967      20.264353      1.5382757    
     21300   291.305       -17156.52       4299.7396      20.273514      1.5375806    
     21400   286.22429     -15853.277      4301.6826      20.282675      1.5368861    
     21500   282.5745      -10213.475      4303.6255      20.291836      1.5361923    
     21600   294.07514     -6352.6356      4305.5685      20.300998      1.5354991    
     21700   286.96992     -24142.104      4307.5114      20.310159      1.5348065    
     21800   282.55779     -6173.4756      4309.4544      20.31932       1.5341145    
     21900   290.97127     -19037.3        4311.3973      20.328481      1.5334231    
     22000   300.44202     -14804.903      4313.3403      20.337642      1.5327324    
     22100   289.36083     -4040.1878      4315.2832      20.346803      1.5320423    
     22200   312.51939     -27281.638      4317.2261      20.355964      1.5313528    
     22300   325.35384     -17728.719      4319.1691      20.365125      1.5306639    
     22400   327.01373     -12509.846      4321.112       20.374286      1.5299757    
     22500   294.16642     -22794.61       4323.055       20.383447      1.5292881    
     22600   310.30853     -9681.2753      4324.9979      20.392609      1.528601     
     22700   297.19281     -10231.919      4326.9409      20.40177       1.5279146    
     22800   297.19632     -9587.5839      4328.8838      20.410931      1.5272289    
     22900   292.42679     -11540.389      4330.8268      20.420092      1.5265437    
     23000   309.52018     -22201.874      4332.7697      20.429253      1.5258592    
     23100   322.90108     -1837.1787      4334.7127      20.438414      1.5251752    
     23200   303.80563     -6348.3241      4336.6556      20.447575      1.5244919    
     23300   303.58015     -9041.8434      4338.5986      20.456736      1.5238092    
     23400   285.15094     -14802.344      4340.5415      20.465897      1.5231271    
     23500   296.70168     -11174.18       4342.4844      20.475058      1.5224456    
     23600   296.87168     -17905.904      4344.4274      20.48422       1.5217647    
     23700   296.75545     -17857.471      4346.3703      20.493381      1.5210844    
     23800   314.50837     -27799.557      4348.3133      20.502542      1.5204048    
     23900   326.75466     -19852.676      4350.2562      20.511703      1.5197257    
     24000   300.49321     -7959.2155      4352.1992      20.520864      1.5190473    
     24100   290.89389     -24555.083      4354.1421      20.530025      1.5183694    
     24200   289.32673     -16239.281      4356.0851      20.539186      1.5176922    
     24300   286.23224     -27047.766      4358.028       20.548347      1.5170156    
     24400   308.4029      -8286.2233      4359.971       20.557508      1.5163395    
     24500   325.65076     -21045.649      4361.9139      20.566669      1.5156641    
     24600   301.16895     -15585.836      4363.8569      20.575831      1.5149893    
     24700   295.18636     -18793.927      4365.7998      20.584992      1.514315     
     24800   303.5529      -17830.961      4367.7427      20.594153      1.5136414    
     24900   292.02594     -22854.031      4369.6857      20.603314      1.5129684    
     25000   292.35018     -13140.815      4371.6286      20.612475      1.512296     
     25100   311.92585     -16546.298      4373.5716      20.621636      1.5116241    
     25200   292.77927     -19706.557      4375.5145      20.630797      1.5109529    
     25300   301.09454     -13460.32       4377.4575      20.639958      1.5102823    
     25400   288.2502      -22097.244      4379.4004      20.649119      1.5096122    
     25500   304.58628     -17470.699      4381.3434      20.658281      1.5089428    
     25600   309.13231     -18095.485      4383.2863      20.667442      1.5082739    
     25700   309.95955     -20990.049      4385.2293      20.676603      1.5076056    
     25800   293.36851     -13941.688      4387.1722      20.685764      1.506938     
     25900   293.47993     -19168.344      4389.1151      20.694925      1.5062709    
     26000   276.7749      -18092.515      4391.0581      20.704086      1.5056044    
     26100   299.59786     -20594.917      4393.001       20.713247      1.5049385    
     26200   314.96671     -21940.905      4394.944       20.722408      1.5042732    
     26300   311.76728     -18025.625      4396.8869      20.731569      1.5036084    
     26400   301.49345     -28103.449      4398.8299      20.74073       1.5029443    
     26500   284.65831     -11565.249      4400.7728      20.749891      1.5022808    
     26600   283.17047     -18139.336      4402.7158      20.759053      1.5016178    
     26700   300.20285     -14466.248      4404.6587      20.768214      1.5009554    
     26800   299.97399     -28538.999      4406.6017      20.777375      1.5002936    
     26900   293.69674     -46012.466      4408.5446      20.786536      1.4996324    
     27000   268.58502     -28785.004      4410.4876      20.795697      1.4989718    
     27100   276.23172     -15960.015      4412.4305      20.804858      1.4983117    
     27200   303.4809      -12653.722      4414.3734      20.814019      1.4976523    
     27300   297.8251      -23494.167      4416.3164      20.82318       1.4969934    
     27400   290.25756     -11222.419      4418.2593      20.832341      1.4963351    
     27500   287.21023     -23270.97       4420.2023      20.841502      1.4956773    
     27600   284.68        -28697.788      4422.1452      20.850664      1.4950202    
     27700   324.338       -6135.9596      4424.0882      20.859825      1.4943636    
     27800   318.47652     -21744.406      4426.0311      20.868986      1.4937076    
     27900   298.10204     -26084.031      4427.9741      20.878147      1.4930522    
     28000   294.16221     -15549.589      4429.917       20.887308      1.4923973    
     28100   291.47315     -14353.164      4431.86        20.896469      1.4917431    
     28200   284.97672     -15865.84       4433.8029      20.90563       1.4910894    
     28300   325.00458     -26574.707      4435.7459      20.914791      1.4904362    
     28400   290.53542     -16639.09       4437.6888      20.923952      1.4897837    
     28500   291.06182     -21591.819      4439.6317      20.933113      1.4891317    
     28600   291.94772     -22945.633      4441.5747      20.942275      1.4884803    
     28700   310.29471     -7949.079       4443.5176      20.951436      1.4878294    
     28800   296.74467     -26163.673      4445.4606      20.960597      1.4871792    
     28900   318.39112     -29472.805      4447.4035      20.969758      1.4865295    
     29000   301.11666     -11377.162      4449.3465      20.978919      1.4858803    
     29100   292.28531     -20986.8        4451.2894      20.98808       1.4852317    
     29200   283.98584     -19473.836      4453.2324      20.997241      1.4845837    
     29300   294.23855     -18086.082      4455.1753      21.006402      1.4839363    
     29400   298.53278     -7614.2416      4457.1183      21.015563      1.4832894    
     29500   292.89114     -23635.7        4459.0612      21.024724      1.4826431    
     29600   309.81282     -1848.4458      4461.0042      21.033886      1.4819973    
     29700   300.1233      -28681.601      4462.9471      21.043047      1.4813522    
     29800   284.6361      -7036.6864      4464.89        21.052208      1.4807075    
     29900   275.09804     -13440.339      4466.833       21.061369      1.4800635    
     30000   294.72409     -13672.27       4468.7759      21.07053       1.47942      
     30100   292.22801     -4130.9349      4470.7189      21.079691      1.478777     
     30200   315.99903     -18442.075      4472.6618      21.088852      1.4781346    
     30300   292.34117     -23168.703      4474.6048      21.098013      1.4774928    
     30400   270.10555     -13881.567      4476.5477      21.107174      1.4768515    
     30500   289.99144     -10285.424      4478.4907      21.116335      1.4762108    
     30600   311.2949      -17781.392      4480.4336      21.125497      1.4755706    
     30700   299.99082     -8677.2777      4482.3766      21.134658      1.474931     
     30800   301.05811     -5361.244       4484.3195      21.143819      1.474292     
     30900   285.97302     -18304.501      4486.2625      21.15298       1.4736535    
     31000   294.76609     -15088.553      4488.2054      21.162141      1.4730155    
     31100   286.339       -19949.011      4490.1483      21.171302      1.4723782    
     31200   298.69282     -14738.275      4492.0913      21.180463      1.4717413    
     31300   307.26937     -16528.769      4494.0342      21.189624      1.471105     
     31400   308.7631      -21501.518      4495.9772      21.198785      1.4704693    
     31500   289.30219     -15195.361      4497.9201      21.207946      1.4698341    
     31600   297.25201     -8594.5672      4499.8631      21.217108      1.4691994    
     31700   288.06598     -18526.719      4501.806       21.226269      1.4685653    
     31800   323.19689     -12561.001      4503.749       21.23543       1.4679318    
     31900   308.94347     -11347.306      4505.6919      21.244591      1.4672988    
     32000   307.75439     -23323.831      4507.6349      21.253752      1.4666663    
     32100   304.51954     -33803.352      4509.5778      21.262913      1.4660344    
     32200   281.83334     -31971.002      4511.5208      21.272074      1.4654031    
     32300   307.25424     -18434.438      4513.4637      21.281235      1.4647722    
     32400   295.30972     -9647.1438      4515.4066      21.290396      1.464142     
     32500   284.20079     -21921.786      4517.3496      21.299557      1.4635122    
     32600   293.84819     -10130.056      4519.2925      21.308719      1.462883     
     32700   292.64684     -18445.713      4521.2355      21.31788       1.4622544    
     32800   292.52834     -13767.526      4523.1784      21.327041      1.4616263    
     32900   306.04377     -7834.029       4525.1214      21.336202      1.4609987    
     33000   296.97565     -11651.717      4527.0643      21.345363      1.4603716    
     33100   307.45522     -15057.679      4529.0073      21.354524      1.4597451    
     33200   277.80989     -16187.987      4530.9502      21.363685      1.4591192    
     33300   302.99379     -16686.664      4532.8932      21.372846      1.4584937    
     33400   288.38147     -23463.908      4534.8361      21.382007      1.4578689    
     33500   290.00318     -17959.646      4536.779       21.391168      1.4572445    
     33600   290.8075      -18295.699      4538.722       21.40033       1.4566207    
     33700   321.62801     -19429.647      4540.6649      21.409491      1.4559974    
     33800   296.09462     -22228.689      4542.6079      21.418652      1.4553746    
     33900   277.53433     -16564.18       4544.5508      21.427813      1.4547524    
     34000   273.32175     -20114.941      4546.4938      21.436974      1.4541307    
     34100   301.9428      -19656.949      4548.4367      21.446135      1.4535096    
     34200   326.66774     -14292.014      4550.3797      21.455296      1.4528889    
     34300   301.24738     -14879.302      4552.3226      21.464457      1.4522688    
     34400   309.77102     -16697.01       4554.2656      21.473618      1.4516493    
     34500   284.31592     -11934.123      4556.2085      21.482779      1.4510302    
     34600   281.62752     -12608.765      4558.1515      21.491941      1.4504117    
     34700   321.58699     -7059.736       4560.0944      21.501102      1.4497937    
     34800   324.03344     -1505.3017      4562.0373      21.510263      1.4491763    
     34900   307.73657      2013.6706      4563.9803      21.519424      1.4485594    
     35000   301.79894     -21040.013      4565.9232      21.528585      1.4479429    
     35100   297.76803     -14302.725      4567.8662      21.537746      1.4473271    
     35200   304.43407     -19012.129      4569.8091      21.546907      1.4467117    
     35300   287.30675     -16094.915      4571.7521      21.556068      1.4460969    
     35400   304.17116     -21987.685      4573.695       21.565229      1.4454825    
     35500   322.30009     -12489.371      4575.638       21.57439       1.4448688    
     35600   304.12243     -4871.9825      4577.5809      21.583552      1.4442555    
     35700   276.86975     -20478.922      4579.5239      21.592713      1.4436427    
     35800   299.05821     -9573.1749      4581.4668      21.601874      1.4430305    
     35900   287.5788      -16236.703      4583.4098      21.611035      1.4424188    
     36000   300.54184     -12430.25       4585.3527      21.620196      1.4418076    
     36100   304.07205     -23531.998      4587.2956      21.629357      1.4411969    
     36200   284.07687     -23328.86       4589.2386      21.638518      1.4405868    
     36300   293.22286     -13306.056      4591.1815      21.647679      1.4399771    
     36400   283.2522      -9756.8284      4593.1245      21.65684       1.439368     
     36500   299.36844     -11838.275      4595.0674      21.666002      1.4387594    
     36600   312.81739     -16234.575      4597.0104      21.675163      1.4381513    
     36700   317.82364     -21181.44       4598.9533      21.684324      1.4375437    
     36800   299.32178     -20369.076      4600.8963      21.693485      1.4369366    
     36900   305.42073     -18820.098      4602.8392      21.702646      1.4363301    
     37000   290.85156     -28841.568      4604.7822      21.711807      1.435724     
     37100   289.12913     -11242.249      4606.7251      21.720968      1.4351185    
     37200   278.75414     -20405.488      4608.6681      21.730129      1.4345135    
     37300   281.06008     -20927.522      4610.611       21.73929       1.4339089    
     37400   291.14003     -1926.6147      4612.5539      21.748451      1.4333049    
     37500   291.02279     -13571.893      4614.4969      21.757613      1.4327014    
     37600   304.89932     -17033.006      4616.4398      21.766774      1.4320984    
     37700   273.02857     -13938.862      4618.3828      21.775935      1.431496     
     37800   284.94275     -28174.395      4620.3257      21.785096      1.430894     
     37900   316.74876     -11803.942      4622.2687      21.794257      1.4302925    
     38000   306.50763     -1252.9125      4624.2116      21.803418      1.4296916    
     38100   293.29523     -17682.922      4626.1546      21.812579      1.4290911    
     38200   293.20364     -2286.2496      4628.0975      21.82174       1.4284911    
     38300   285.39828     -4196.352       4630.0405      21.830901      1.4278917    
     38400   296.05128     -23849.701      4631.9834      21.840062      1.4272927    
     38500   302.69968     -23615.894      4633.9264      21.849224      1.4266943    
     38600   312.82646     -19218.735      4635.8693      21.858385      1.4260964    
     38700   290.36817     -7435.5985      4637.8122      21.867546      1.4254989    
     38800   283.65981     -15468.027      4639.7552      21.876707      1.424902     
     38900   292.59018     -11831.692      4641.6981      21.885868      1.4243055    
     39000   297.22263     -16823.837      4643.6411      21.895029      1.4237096    
     39100   302.96056     -15639.408      4645.584       21.90419       1.4231141    
     39200   303.88613     -16566.193      4647.527       21.913351      1.4225192    
     39300   284.66967     -16723.702      4649.4699      21.922512      1.4219247    
     39400   296.16951     -21879.539      4651.4129      21.931673      1.4213308    
     39500   307.78251     -12496.28       4653.3558      21.940834      1.4207373    
     39600   296.82246     -3815.6612      4655.2988      21.949996      1.4201444    
     39700   285.98681     -20788.52       4657.2417      21.959157      1.4195519    
     39800   272.53938     -9024.0317      4659.1847      21.968318      1.4189599    
     39900   297.86852     -21668.506      4661.1276      21.977479      1.4183685    
     40000   292.94932     -18812.056      4663.0705      21.98664       1.4177775    
     40100   310.11332     -12985.457      4665.0135      21.995801      1.417187     
     40200   308.15306     -7690.2604      4666.9564      22.004962      1.416597     
     40300   281.66032     -13211.169      4668.8994      22.014123      1.4160075    
     40400   277.18957     -16588.038      4670.8423      22.023284      1.4154184    
     40500   297.08956     -13997.781      4672.7853      22.032445      1.4148299    
     40600   318.06717     -13879.058      4674.7282      22.041607      1.4142419    
     40700   300.7637      -26210.443      4676.6712      22.050768      1.4136543    
     40800   298.57847     -18833.888      4678.6141      22.059929      1.4130672    
     40900   287.39364     -11632.251      4680.5571      22.06909       1.4124807    
     41000   308.31556     -17842.362      4682.5         22.078251      1.4118946    
     41100   320.46206     -22421.717      4684.443       22.087412      1.411309     
     41200   321.69803     -16014.378      4686.3859      22.096573      1.4107238    
     41300   292.34167     -20010.364      4688.3288      22.105734      1.4101392    
     41400   294.54636     -19311.38       4690.2718      22.114895      1.4095551    
     41500   282.8207      -15971.844      4692.2147      22.124056      1.4089714    
     41600   286.76458     -20713.512      4694.1577      22.133218      1.4083882    
     41700   307.74329     -17655.898      4696.1006      22.142379      1.4078055    
     41800   321.73967     -6221.7006      4698.0436      22.15154       1.4072233    
     41900   303.48198     -17471.028      4699.9865      22.160701      1.4066416    
     42000   297.27435     -22423.102      4701.9295      22.169862      1.4060603    
     42100   302.80916     -19978.545      4703.8724      22.179023      1.4054795    
     42200   284.98357     -8778.6933      4705.8154      22.188184      1.4048992    
     42300   299.55019     -33198.256      4707.7583      22.197345      1.4043194    
     42400   321.26737     -14784.887      4709.7012      22.206506      1.4037401    
     42500   297.06854     -16566.649      4711.6442      22.215667      1.4031612    
     42600   294.57        -19960.947      4713.5871      22.224829      1.4025828    
     42700   304.41914     -11206.125      4715.5301      22.23399       1.4020049    
     42800   301.47578     -14219.563      4717.473       22.243151      1.4014275    
     42900   294.85945     -15071.027      4719.416       22.252312      1.4008505    
     43000   290.48146     -8068.4691      4721.3589      22.261473      1.400274     
     43100   314.37953     -23384.457      4723.3019      22.270634      1.399698     
     43200   307.49728     -14256.445      4725.2448      22.279795      1.3991225    
     43300   297.75447     -15222.736      4727.1878      22.288956      1.3985474    
     43400   302.631       -22357.697      4729.1307      22.298117      1.3979728    
     43500   285.88199     -15956.911      4731.0737      22.307278      1.3973987    
     43600   293.6833      -17602.692      4733.0166      22.31644       1.3968251    
     43700   285.67306     -18176.122      4734.9595      22.325601      1.3962519    
     43800   305.54268     -18895.156      4736.9025      22.334762      1.3956792    
     43900   322.74828     -18798.521      4738.8454      22.343923      1.395107     
     44000   301.71761     -9581.3363      4740.7884      22.353084      1.3945352    
     44100   307.85785     -27620.259      4742.7313      22.362245      1.3939639    
     44200   289.69989     -25277.363      4744.6743      22.371406      1.3933931    
     44300   295.54475     -23256.02       4746.6172      22.380567      1.3928227    
     44400   320.53718     -20765.639      4748.5602      22.389728      1.3922528    
     44500   308.1446      -25864.769      4750.5031      22.398889      1.3916834    
     44600   310.24819     -19309.132      4752.4461      22.408051      1.3911144    
     44700   289.0874      -20090.167      4754.389       22.417212      1.3905459    
     44800   298.926       -13223.363      4756.332       22.426373      1.3899779    
     44900   302.26612     -20900.88       4758.2749      22.435534      1.3894103    
     45000   300.95966     -20285.823      4760.2178      22.444695      1.3888432    
     45100   316.95261     -25167.598      4762.1608      22.453856      1.3882766    
     45200   320.35085     -29459.88       4764.1037      22.463017      1.3877104    
     45300   303.70583     -13002.595      4766.0467      22.472178      1.3871447    
     45400   298.59018     -25094.204      4767.9896      22.481339      1.3865794    
     45500   290.57076     -26753.535      4769.9326      22.4905        1.3860146    
     45600   292.4681      -12374.177      4771.8755      22.499662      1.3854503    
     45700   303.5329      -22563.522      4773.8185      22.508823      1.3848864    
     45800   290.15037     -22610.319      4775.7614      22.517984      1.384323     
     45900   286.91419     -29399.382      4777.7044      22.527145      1.38376      
     46000   293.81453     -21500.674      4779.6473      22.536306      1.3831975    
     46100   312.58604     -22013.022      4781.5903      22.545467      1.3826355    
     46200   317.58432     -17770.061      4783.5332      22.554628      1.3820739    
     46300   307.59397     -25110.047      4785.4761      22.563789      1.3815128    
     46400   301.43242     -23891.185      4787.4191      22.57295       1.3809521    
     46500   284.6031      -21035.978      4789.362       22.582111      1.3803919    
     46600   271.19937     -13543.512      4791.305       22.591273      1.3798321    
     46700   285.77785     -20783.653      4793.2479      22.600434      1.3792728    
     46800   288.36584     -21933.048      4795.1909      22.609595      1.3787139    
     46900   292.75384     -23414.626      4797.1338      22.618756      1.3781555    
     47000   306.75321     -33979.633      4799.0768      22.627917      1.3775975    
     47100   282.05511     -30045.634      4801.0197      22.637078      1.37704      
     47200   287.21456     -19201.087      4802.9627      22.646239      1.376483     
     47300   294.55174     -20554.725      4804.9056      22.6554        1.3759264    
     47400   305.18105     -21572.357      4806.8486      22.664561      1.3753702    
     47500   292.89702     -29823.406      4808.7915      22.673722      1.3748145    
     47600   304.5795      -28685.443      4810.7344      22.682884      1.3742593    
     47700   290.15162     -26303.733      4812.6774      22.692045      1.3737044    
     47800   287.61618     -15659.684      4814.6203      22.701206      1.3731501    
     47900   306.60519     -20685.717      4816.5633      22.710367      1.3725962    
     48000   312.14128     -24194.663      4818.5062      22.719528      1.3720427    
     48100   288.25694     -24590.797      4820.4492      22.728689      1.3714897    
     48200   309.99702     -25836.25       4822.3921      22.73785       1.3709371    
     48300   302.20473     -14515.64       4824.3351      22.747011      1.370385     
     48400   285.19443     -29558.087      4826.278       22.756172      1.3698333    
     48500   323.50624     -17718.071      4828.221       22.765333      1.3692821    
     48600   320.20573     -23001.251      4830.1639      22.774495      1.3687313    
     48700   300.87422     -29220.913      4832.1069      22.783656      1.3681809    
     48800   275.91562     -23439.986      4834.0498      22.792817      1.367631     
     48900   299.32984     -23836.76       4835.9927      22.801978      1.3670815    
     49000   299.95685     -28850.609      4837.9357      22.811139      1.3665325    
     49100   309.6931      -17550.224      4839.8786      22.8203        1.3659839    
     49200   331.19746     -22832.892      4841.8216      22.829461      1.3654358    
     49300   307.49931     -24976.391      4843.7645      22.838622      1.3648881    
     49400   299.96012     -21684.088      4845.7075      22.847783      1.3643408    
     49500   289.93247     -26770.668      4847.6504      22.856944      1.363794     
     49600   303.31648     -20427.111      4849.5934      22.866106      1.3632476    
     49700   310.95677     -19660.799      4851.5363      22.875267      1.3627016    
     49800   323.47527     -7434.8995      4853.4793      22.884428      1.3621561    
     49900   280.4541      -21938.609      4855.4222      22.893589      1.361611     
     50000   306.63675     -14553.472      4857.3651      22.90275       1.3610664    
     50100   300.79937     -24293.153      4859.3081      22.911911      1.3605222    
     50200   291.88266     -28144.593      4861.251       22.921072      1.3599784    
     50300   304.21412     -25125.449      4863.194       22.930233      1.359435     
     50400   321.29935     -31754.843      4865.1369      22.939394      1.3588921    
     50500   301.38539     -27997.612      4867.0799      22.948555      1.3583497    
     50600   279.42441     -23069.726      4869.0228      22.957717      1.3578076    
     50700   299.02575     -34528.033      4870.9658      22.966878      1.357266     
     50800   306.38161     -33136.875      4872.9087      22.976039      1.3567248    
     50900   331.67088     -32872.075      4874.8517      22.9852        1.3561841    
     51000   323.87953     -25270.829      4876.7946      22.994361      1.3556438    
     51100   308.63758     -26630.1        4878.7376      23.003522      1.3551039    
     51200   288.63016     -19532.291      4880.6805      23.012683      1.3545645    
     51300   275.84961     -28997.407      4882.6234      23.021844      1.3540254    
     51400   291.75163     -39299.297      4884.5664      23.031005      1.3534868    
     51500   317.11689     -28074.408      4886.5093      23.040166      1.3529487    
     51600   337.81738     -36807.385      4888.4523      23.049328      1.3524109    
     51700   305.81991     -28148.376      4890.3952      23.058489      1.3518736    
     51800   293.89036     -17589.187      4892.3382      23.06765       1.3513367    
     51900   305.51236     -16399.448      4894.2811      23.076811      1.3508003    
     52000   307.12061     -32875.135      4896.2241      23.085972      1.3502643    
     52100   306.25011     -32481.407      4898.167       23.095133      1.3497286    
     52200   295.28658     -17446.891      4900.11        23.104294      1.3491935    
     52300   298.51472     -26112.534      4902.0529      23.113455      1.3486587    
     52400   313.63796     -31855.531      4903.9959      23.122616      1.3481244    
     52500   292.66236     -35863.586      4905.9388      23.131777      1.3475905    
     52600   289.9329      -23583.026      4907.8817      23.140939      1.347057     
     52700   311.3035      -18310.749      4909.8247      23.1501        1.3465239    
     52800   318.07213     -23613.016      4911.7676      23.159261      1.3459913    
     52900   315.8024      -36333.555      4913.7106      23.168422      1.345459     
     53000   274.50681     -28071.382      4915.6535      23.177583      1.3449272    
     53100   296.72769     -31345.27       4917.5965      23.186744      1.3443959    
     53200   324.5209      -31675.052      4919.5394      23.195905      1.3438649    
     53300   323.00445     -16322.836      4921.4824      23.205066      1.3433344    
     53400   324.65459     -25503.926      4923.4253      23.214227      1.3428042    
     53500   280.84874     -33098.359      4925.3683      23.223388      1.3422745    
     53600   285.99715     -37924.723      4927.3112      23.23255       1.3417452    
     53700   297.98793     -38013.307      4929.2542      23.241711      1.3412164    
     53800   306.34626     -35582.08       4931.1971      23.250872      1.3406879    
     53900   319.26398     -21699.178      4933.14        23.260033      1.3401599    
     54000   311.61001     -23878.225      4935.083       23.269194      1.3396322    
     54100   305.32981     -34110.685      4937.0259      23.278355      1.339105     
     54200   278.91817     -41809.165      4938.9689      23.287516      1.3385783    
     54300   279.42749     -35707.326      4940.9118      23.296677      1.3380519    
     54400   293.82697     -27176.84       4942.8548      23.305838      1.3375259    
     54500   310.3957      -27405.347      4944.7977      23.314999      1.3370004    
     54600   322.46147     -25367.755      4946.7407      23.324161      1.3364752    
     54700   292.99882     -33172.96       4948.6836      23.333322      1.3359505    
     54800   307.22587     -33263.939      4950.6266      23.342483      1.3354262    
     54900   304.29369     -29682.965      4952.5695      23.351644      1.3349023    
     55000   313.31167     -29687.215      4954.5125      23.360805      1.3343788    
     55100   302.51732     -37830.429      4956.4554      23.369966      1.3338557    
     55200   289.09893     -38295.317      4958.3983      23.379127      1.333333     
     55300   277.15484     -29970.315      4960.3413      23.388288      1.3328108    
     55400   290.82657     -37128.391      4962.2842      23.397449      1.3322889    
     55500   308.94697     -19033.645      4964.2272      23.40661       1.3317675    
     55600   296.7941      -25717.353      4966.1701      23.415772      1.3312464    
     55700   301.85067     -23280.603      4968.1131      23.424933      1.3307258    
     55800   328.89246     -33247.99       4970.056       23.434094      1.3302056    
     55900   319.2638      -23214.725      4971.999       23.443255      1.3296858    
     56000   311.36606     -36020.394      4973.9419      23.452416      1.3291664    
     56100   300.23899     -28123.184      4975.8849      23.461577      1.3286474    
     56200   307.49275     -37619.068      4977.8278      23.470738      1.3281288    
     56300   302.80921     -29801.512      4979.7708      23.479899      1.3276106    
     56400   314.50454     -34186.282      4981.7137      23.48906       1.3270928    
     56500   312.30791     -32977.436      4983.6566      23.498221      1.3265754    
     56600   318.00388     -29550.401      4985.5996      23.507383      1.3260584    
     56700   306.44368     -32083.621      4987.5425      23.516544      1.3255418    
     56800   293.49007     -23639.771      4989.4855      23.525705      1.3250257    
     56900   301.98054     -31031.123      4991.4284      23.534866      1.3245099    
     57000   283.37671     -31249.926      4993.3714      23.544027      1.3239945    
     57100   290.09504     -33195.595      4995.3143      23.553188      1.3234795    
     57200   312.98551     -34149.658      4997.2573      23.562349      1.322965     
     57300   321.29165     -35966.454      4999.2002      23.57151       1.3224508    
     57400   301.90732     -40499.814      5001.1432      23.580671      1.321937     
     57500   307.55416     -31478.403      5003.0861      23.589832      1.3214237    
     57600   286.50164     -31497.231      5005.0291      23.598994      1.3209107    
     57700   293.59983     -33922.389      5006.972       23.608155      1.3203981    
     57800   291.09038     -35378.844      5008.9149      23.617316      1.3198859    
     57900   293.35323     -32550.214      5010.8579      23.626477      1.3193741    
     58000   331.03096     -39080.735      5012.8008      23.635638      1.3188628    
     58100   330.48766     -34840.301      5014.7438      23.644799      1.3183518    
     58200   317.38346     -37764.065      5016.6867      23.65396       1.3178412    
     58300   298.51267     -31722.71       5018.6297      23.663121      1.317331     
     58400   290.16849     -34114.601      5020.5726      23.672282      1.3168212    
     58500   303.76376     -33241.548      5022.5156      23.681444      1.3163118    
     58600   308.14965     -33243.555      5024.4585      23.690605      1.3158028    
     58700   310.90807     -38863.775      5026.4015      23.699766      1.3152941    
     58800   311.82219     -25630.227      5028.3444      23.708927      1.3147859    
     58900   289.96902     -45165.844      5030.2873      23.718088      1.3142781    
     59000   282.67951     -25726.842      5032.2303      23.727249      1.3137706    
     59100   296.15425     -30476.89       5034.1732      23.73641       1.3132636    
     59200   294.32339     -36111.093      5036.1162      23.745571      1.3127569    
     59300   310.18192     -47285.775      5038.0591      23.754732      1.3122506    
     59400   310.58653     -30092.147      5040.0021      23.763893      1.3117448    
     59500   285.15371     -28333.609      5041.945       23.773055      1.3112393    
     59600   310.68368     -32484.837      5043.888       23.782216      1.3107342    
     59700   311.35978     -36668.356      5045.8309      23.791377      1.3102295    
     59800   296.98014     -31358.087      5047.7739      23.800538      1.3097251    
     59900   298.75321     -34265.879      5049.7168      23.809699      1.3092212    
     60000   322.72101     -21058.04       5051.6598      23.81886       1.3087177    
     60100   306.11996     -38946.712      5053.6027      23.828021      1.3082145    
     60200   296.18402     -28594.789      5055.5456      23.837182      1.3077117    
     60300   302.7877      -31492.882      5057.4886      23.846343      1.3072093    
     60400   310.47618     -37126.059      5059.4315      23.855504      1.3067073    
     60500   316.01719     -39772.113      5061.3745      23.864666      1.3062057    
     60600   329.34776     -40822.681      5063.3174      23.873827      1.3057045    
     60700   314.28577     -22595.511      5065.2604      23.882988      1.3052036    
     60800   295.71167     -28673.494      5067.2033      23.892149      1.3047032    
     60900   313.97507     -41558.499      5069.1463      23.90131       1.3042031    
     61000   294.77998     -34312.356      5071.0892      23.910471      1.3037034    
     61100   309.40053     -38924.525      5073.0322      23.919632      1.3032041    
     61200   316.96374     -36232.311      5074.9751      23.928793      1.3027052    
     61300   308.10215     -39415.591      5076.9181      23.937954      1.3022066    
     61400   325.21965     -23728.904      5078.861       23.947115      1.3017085    
     61500   305.10062     -40010.581      5080.8039      23.956276      1.3012107    
     61600   302.43752     -34287.532      5082.7469      23.965438      1.3007133    
     61700   299.28395     -40457.939      5084.6898      23.974599      1.3002162    
     61800   312.04042     -32110.164      5086.6328      23.98376       1.2997196    
     61900   318.3571      -48452.994      5088.5757      23.992921      1.2992233    
     62000   292.71076     -43307.561      5090.5187      24.002082      1.2987274    
     62100   283.16199     -41864.173      5092.4616      24.011243      1.2982319    
     62200   294.56728     -29274.132      5094.4046      24.020404      1.2977368    
     62300   298.27858     -36484.022      5096.3475      24.029565      1.2972421    
     62400   298.78315     -34158.661      5098.2905      24.038726      1.2967477    
     62500   326.68382     -39438.518      5100.2334      24.047888      1.2962537    
     62600   287.91482     -41932.973      5102.1764      24.057049      1.2957601    
     62700   274.77908     -43768.153      5104.1193      24.06621       1.2952668    
     62800   301.07023     -43122.452      5106.0622      24.075371      1.2947739    
     62900   315.53632     -31368.919      5108.0052      24.084532      1.2942814    
     63000   309.28315     -33697.778      5109.9481      24.093693      1.2937893    
     63100   297.50693     -47910.222      5111.8911      24.102854      1.2932976    
     63200   297.63445     -45032.51       5113.834       24.112015      1.2928062    
     63300   284.63699     -32964.581      5115.777       24.121176      1.2923152    
     63400   300.6962      -39268.497      5117.7199      24.130337      1.2918246    
     63500   298.23574     -39964.327      5119.6629      24.139498      1.2913343    
     63600   303.79793     -39875.933      5121.6058      24.14866       1.2908444    
     63700   306.63624     -33825.607      5123.5488      24.157821      1.2903549    
     63800   315.68951     -40147.732      5125.4917      24.166982      1.2898658    
     63900   291.64217     -49834.494      5127.4347      24.176143      1.289377     
     64000   291.69926     -41196.927      5129.3776      24.185304      1.2888886    
     64100   303.37466     -40441.989      5131.3205      24.194465      1.2884006    
     64200   298.32702     -47874.555      5133.2635      24.203626      1.2879129    
     64300   329.56577     -40371.369      5135.2064      24.212787      1.2874256    
     64400   295.79528     -42601.382      5137.1494      24.221948      1.2869387    
     64500   287.54806     -36477.78       5139.0923      24.231109      1.2864521    
     64600   289.38912     -45223.177      5141.0353      24.240271      1.285966     
     64700   298.69497     -45684.389      5142.9782      24.249432      1.2854801    
     64800   317.00899     -38966.367      5144.9212      24.258593      1.2849947    
     64900   313.68923     -39461.227      5146.8641      24.267754      1.2845096    
     65000   319.62868     -34663.72       5148.8071      24.276915      1.2840249    
     65100   306.64827     -40607.601      5150.75        24.286076      1.2835405    
     65200   303.22179     -33784.362      5152.693       24.295237      1.2830565    
     65300   296.88988     -37911.272      5154.6359      24.304398      1.2825729    
     65400   300.60823     -30088.085      5156.5788      24.313559      1.2820896    
     65500   303.07846     -31386.958      5158.5218      24.32272       1.2816067    
     65600   297.60495     -40517.883      5160.4647      24.331882      1.2811242    
     65700   326.27218     -28435.525      5162.4077      24.341043      1.280642     
     65800   302.87359     -33605.128      5164.3506      24.350204      1.2801602    
     65900   297.8674      -48815.943      5166.2936      24.359365      1.2796788    
     66000   279.03387     -46453.659      5168.2365      24.368526      1.2791977    
     66100   305.56088     -34207.765      5170.1795      24.377687      1.278717     
     66200   315.84003     -28286.028      5172.1224      24.386848      1.2782366    
     66300   307.78286     -31643.562      5174.0654      24.396009      1.2777566    
     66400   275.14181     -40702.897      5176.0083      24.40517       1.277277     
     66500   293.3831      -38196.389      5177.9512      24.414331      1.2767977    
     66600   306.67255     -37801.327      5179.8942      24.423493      1.2763188    
     66700   307.74177     -35271.518      5181.8371      24.432654      1.2758402    
     66800   303.75892     -38745.311      5183.7801      24.441815      1.275362     
     66900   281.16792     -40980.56       5185.723       24.450976      1.2748842    
     67000   282.95663     -30092.095      5187.666       24.460137      1.2744067    
     67100   298.18        -31936.643      5189.6089      24.469298      1.2739296    
     67200   307.90865     -37183.596      5191.5519      24.478459      1.2734528    
     67300   324.4141      -32611.049      5193.4948      24.48762       1.2729764    
     67400   307.72565     -25957.794      5195.4378      24.496781      1.2725003    
     67500   299.69372     -31186.168      5197.3807      24.505942      1.2720246    
     67600   295.12017     -34219.301      5199.3237      24.515104      1.2715493    
     67700   275.33624     -36583.606      5201.2666      24.524265      1.2710743    
     67800   286.93679     -34249.772      5203.2095      24.533426      1.2705997    
     67900   283.47747     -32006.872      5205.1525      24.542587      1.2701254    
     68000   307.16339     -37234.427      5207.0954      24.551748      1.2696515    
     68100   313.49949     -34003.16       5209.0384      24.560909      1.2691779    
     68200   287.72457     -44025.375      5210.9813      24.57007       1.2687047    
     68300   298.46038     -35071.504      5212.9243      24.579231      1.2682318    
     68400   297.2424      -26368.936      5214.8672      24.588392      1.2677593    
     68500   292.90725     -32208.755      5216.8102      24.597554      1.2672871    
     68600   291.56794     -36557.06       5218.7531      24.606715      1.2668153    
     68700   308.3416      -36299.163      5220.6961      24.615876      1.2663438    
     68800   303.34054     -36542.115      5222.639       24.625037      1.2658727    
     68900   295.45201     -38849.804      5224.582       24.634198      1.265402     
     69000   298.30414     -34747.728      5226.5249      24.643359      1.2649316    
     69100   313.78282     -22643.632      5228.4678      24.65252       1.2644615    
     69200   284.08519     -33107.039      5230.4108      24.661681      1.2639918    
     69300   293.19171     -28540.78       5232.3537      24.670842      1.2635224    
     69400   296.79057     -32543.081      5234.2967      24.680003      1.2630534    
     69500   293.876       -37582.102      5236.2396      24.689165      1.2625848    
     69600   318.10584     -26198.595      5238.1826      24.698326      1.2621164    
     69700   277.45301     -29892.843      5240.1255      24.707487      1.2616485    
     69800   305.64622     -34456.766      5242.0685      24.716648      1.2611808    
     69900   291.81899     -32629.996      5244.0114      24.725809      1.2607136    
     70000   284.924       -31004.215      5245.9544      24.73497       1.2602466    
     70100   295.70695     -28178.537      5247.8973      24.744131      1.25978      
     70200   318.9807      -28738.725      5249.8403      24.753292      1.2593138    
     70300   313.93995     -28080.46       5251.7832      24.762453      1.2588479    
     70400   307.731       -37256.503      5253.7261      24.771614      1.2583824    
     70500   289.04808     -28794.852      5255.6691      24.780775      1.2579172    
     70600   276.78042     -36652.427      5257.612       24.789937      1.2574523    
     70700   283.09363     -34247.308      5259.555       24.799098      1.2569878    
     70800   312.59662     -37584.817      5261.4979      24.808259      1.2565236    
     70900   320.08273     -32390.706      5263.4409      24.81742       1.2560598    
     71000   310.76512     -36631.889      5265.3838      24.826581      1.2555963    
     71100   300.34476     -42729.655      5267.3268      24.835742      1.2551331    
     71200   304.54338     -47014.1        5269.2697      24.844903      1.2546703    
     71300   300.91319     -30468.348      5271.2127      24.854064      1.2542079    
     71400   301.8973      -17049.034      5273.1556      24.863225      1.2537457    
     71500   306.89198     -29493.23       5275.0986      24.872386      1.2532839    
     71600   320.90084     -39167.689      5277.0415      24.881548      1.2528225    
     71700   301.71067     -38117.406      5278.9844      24.890709      1.2523614    
     71800   272.61592     -33393.744      5280.9274      24.89987       1.2519006    
     71900   318.83228     -38158.793      5282.8703      24.909031      1.2514402    
     72000   279.4039      -26381.818      5284.8133      24.918192      1.2509801    
     72100   308.53541     -29234.439      5286.7562      24.927353      1.2505204    
     72200   309.41158     -27512.587      5288.6992      24.936514      1.250061     
     72300   297.47594     -46946.009      5290.6421      24.945675      1.2496019    
     72400   289.03749     -38423.755      5292.5851      24.954836      1.2491431    
     72500   275.88825     -32632.995      5294.528       24.963997      1.2486847    
     72600   307.85535     -26125.293      5296.471       24.973159      1.2482267    
     72700   283.75878     -34690.902      5298.4139      24.98232       1.2477689    
     72800   308.12272     -31255.036      5300.3569      24.991481      1.2473116    
     72900   307.41705     -40064.432      5302.2998      25.000642      1.2468545    
     73000   292.68955     -20697.894      5304.2427      25.009803      1.2463978    
     73100   298.16699     -32469.631      5306.1857      25.018964      1.2459414    
     73200   295.93805     -31270.97       5308.1286      25.028125      1.2454853    
     73300   284.17494     -38345.05       5310.0716      25.037286      1.2450296    
     73400   315.57788     -30622.266      5312.0145      25.046447      1.2445742    
     73500   311.24296     -38181.63       5313.9575      25.055608      1.2441192    
     73600   300.98623     -34296.26       5315.9004      25.06477       1.2436644    
     73700   292.12763     -38280.628      5317.8434      25.073931      1.2432101    
     73800   301.97831     -33358.874      5319.7863      25.083092      1.242756     
     73900   311.93724     -34949.717      5321.7293      25.092253      1.2423023    
     74000   316.5253      -29167.395      5323.6722      25.101414      1.2418489    
     74100   320.67704     -38191.968      5325.6152      25.110575      1.2413958    
     74200   293.86141     -37333.831      5327.5581      25.119736      1.2409431    
     74300   302.91219     -30284.262      5329.501       25.128897      1.2404907    
     74400   306.28562     -28346.477      5331.444       25.138058      1.2400386    
     74500   308.31916     -22126.157      5333.3869      25.147219      1.2395869    
     74600   308.27839     -32780.013      5335.3299      25.156381      1.2391354    
     74700   282.22098     -32931.079      5337.2728      25.165542      1.2386844    
     74800   294.68258     -37503.052      5339.2158      25.174703      1.2382336    
     74900   304.00677     -31527.298      5341.1587      25.183864      1.2377832    
     75000   311.07979     -33937.55       5343.1017      25.193025      1.2373331    
     75100   295.0708      -31249.246      5345.0446      25.202186      1.2368833    
     75200   301.90085     -41938.074      5346.9876      25.211347      1.2364338    
     75300   271.17978     -28541.159      5348.9305      25.220508      1.2359847    
     75400   277.89946     -32018.819      5350.8734      25.229669      1.2355359    
     75500   296.98205     -25371.825      5352.8164      25.23883       1.2350874    
     75600   317.30611     -40708.135      5354.7593      25.247992      1.2346393    
     75700   304.54443     -26356.394      5356.7023      25.257153      1.2341915    
     75800   301.8894      -35755.032      5358.6452      25.266314      1.233744     
     75900   284.54967     -35858.666      5360.5882      25.275475      1.2332968    
     76000   281.89721     -34396.851      5362.5311      25.284636      1.23285      
     76100   304.3659      -25209.501      5364.4741      25.293797      1.2324034    
     76200   320.49429     -35093.889      5366.417       25.302958      1.2319572    
     76300   299.97341     -28876.912      5368.36        25.312119      1.2315114    
     76400   310.63026     -41026.645      5370.3029      25.32128       1.2310658    
     76500   289.1429      -37291.414      5372.2459      25.330441      1.2306206    
     76600   304.91814     -43117.455      5374.1888      25.339603      1.2301757    
     76700   321.03602     -32699.349      5376.1317      25.348764      1.2297311    
     76800   285.70438     -43092.659      5378.0747      25.357925      1.2292868    
     76900   304.51428     -40465.493      5380.0176      25.367086      1.2288429    
     77000   297.82396     -34687.207      5381.9606      25.376247      1.2283992    
     77100   295.61939     -39923.308      5383.9035      25.385408      1.2279559    
     77200   286.19729     -32827.048      5385.8465      25.394569      1.227513     
     77300   306.79118     -39762.848      5387.7894      25.40373       1.2270703    
     77400   310.94009     -30789.953      5389.7324      25.412891      1.2266279    
     77500   309.57403     -38007.934      5391.6753      25.422052      1.2261859    
     77600   294.00276     -32869.39       5393.6183      25.431214      1.2257442    
     77700   283.5523      -37388.476      5395.5612      25.440375      1.2253028    
     77800   288.25816     -43273.328      5397.5042      25.449536      1.2248617    
     77900   303.68469     -40809.679      5399.4471      25.458697      1.224421     
     78000   307.12573     -41225.206      5401.39        25.467858      1.2239805    
     78100   305.39911     -38228.9        5403.333       25.477019      1.2235404    
     78200   288.38982     -39610.079      5405.2759      25.48618       1.2231006    
     78300   304.08691     -42386.878      5407.2189      25.495341      1.2226611    
     78400   300.61245     -27264.508      5409.1618      25.504502      1.222222     
     78500   289.54793     -29273.023      5411.1048      25.513663      1.2217831    
     78600   292.46525     -44152.907      5413.0477      25.522825      1.2213445    
     78700   305.28879     -35992.687      5414.9907      25.531986      1.2209063    
     78800   324.84291     -31934.981      5416.9336      25.541147      1.2204684    
     78900   294.17238     -33475.283      5418.8766      25.550308      1.2200308    
     79000   283.5306      -39550.758      5420.8195      25.559469      1.2195935    
     79100   303.85293     -40870.877      5422.7625      25.56863       1.2191565    
     79200   298.55797     -34647.045      5424.7054      25.577791      1.2187199    
     79300   306.26239     -36634.34       5426.6483      25.586952      1.2182835    
     79400   338.68873     -37970.672      5428.5913      25.596113      1.2178475    
     79500   316.61291     -34741.731      5430.5342      25.605275      1.2174118    
     79600   300.45253     -43149.36       5432.4772      25.614436      1.2169764    
     79700   287.26593     -35752.23       5434.4201      25.623597      1.2165413    
     79800   289.96817     -32817.182      5436.3631      25.632758      1.2161065    
     79900   296.46425     -25411.464      5438.306       25.641919      1.215672     
     80000   293.60175     -41869.638      5440.249       25.65108       1.2152378    
     80100   338.80108     -34877.046      5442.1919      25.660241      1.214804     
     80200   325.57645     -33464.253      5444.1349      25.669402      1.2143704    
     80300   327.41623     -24699.241      5446.0778      25.678563      1.2139372    
     80400   306.22018     -37528.295      5448.0208      25.687724      1.2135042    
     80500   289.61814     -35492.376      5449.9637      25.696886      1.2130716    
     80600   285.89528     -41407.448      5451.9066      25.706047      1.2126393    
     80700   312.68295     -45929.913      5453.8496      25.715208      1.2122073    
     80800   321.34507     -31922.787      5455.7925      25.724369      1.2117756    
     80900   284.35044     -45894.292      5457.7355      25.73353       1.2113442    
     81000   301.40128     -37030.063      5459.6784      25.742691      1.2109131    
     81100   297.54811     -27072.916      5461.6214      25.751852      1.2104824    
     81200   311.59895     -35054.54       5463.5643      25.761013      1.2100519    
     81300   309.96961     -30411.667      5465.5073      25.770174      1.2096217    
     81400   302.11602     -36814.075      5467.4502      25.779335      1.2091919    
     81500   275.13383     -38689.037      5469.3932      25.788497      1.2087623    
     81600   285.20519     -43275.287      5471.3361      25.797658      1.2083331    
     81700   300.74055     -31982.223      5473.2791      25.806819      1.2079041    
     81800   296.1739      -42434.665      5475.222       25.81598       1.2074755    
     81900   284.39782     -41828.53       5477.1649      25.825141      1.2070471    
     82000   310.02065     -29096.984      5479.1079      25.834302      1.2066191    
     82100   288.94201     -38477.177      5481.0508      25.843463      1.2061914    
     82200   278.55504     -33181.484      5482.9938      25.852624      1.205764     
     82300   310.84096     -39847.982      5484.9367      25.861785      1.2053368    
     82400   312.25371     -37562.904      5486.8797      25.870946      1.20491      
     82500   319.76685     -47526.118      5488.8226      25.880108      1.2044835    
     82600   289.32764     -41481.463      5490.7656      25.889269      1.2040573    
     82700   294.06315     -37983.833      5492.7085      25.89843       1.2036314    
     82800   286.30533     -34742.162      5494.6515      25.907591      1.2032058    
     82900   297.83978     -39040.012      5496.5944      25.916752      1.2027805    
     83000   303.27941     -41374.998      5498.5373      25.925913      1.2023554    
     83100   315.79317     -36894.316      5500.4803      25.935074      1.2019307    
     83200   299.51769     -43726.581      5502.4232      25.944235      1.2015063    
     83300   294.7363      -31848.365      5504.3662      25.953396      1.2010822    
     83400   301.05524     -37630.168      5506.3091      25.962557      1.2006584    
     83500   305.69925     -39469.152      5508.2521      25.971718      1.2002349    
     83600   299.02029     -39382.567      5510.195       25.98088       1.1998117    
     83700   309.1694      -39284.849      5512.138       25.990041      1.1993888    
     83800   311.02807     -37566.127      5514.0809      25.999202      1.1989661    
     83900   290.81479     -33725.26       5516.0239      26.008363      1.1985438    
     84000   287.35151     -41886.44       5517.9668      26.017524      1.1981218    
     84100   291.62876     -40688.02       5519.9098      26.026685      1.1977001    
     84200   295.07627     -46214.484      5521.8527      26.035846      1.1972786    
     84300   314.28939     -39452.69       5523.7956      26.045007      1.1968575    
     84400   297.87551     -34840.422      5525.7386      26.054168      1.1964367    
     84500   292.01419     -33838.363      5527.6815      26.06333       1.1960161    
     84600   287.03613     -39885.633      5529.6245      26.072491      1.1955959    
     84700   277.71568     -33381.2        5531.5674      26.081652      1.1951759    
     84800   303.30714     -46149.957      5533.5104      26.090813      1.1947563    
     84900   320.08126     -39888.113      5535.4533      26.099974      1.1943369    
     85000   345.74406     -39983.697      5537.3963      26.109135      1.1939179    
     85100   340.18882     -43668.671      5539.3392      26.118296      1.1934991    
     85200   306.24265     -28651.838      5541.2822      26.127457      1.1930806    
     85300   305.35374     -35711.225      5543.2251      26.136618      1.1926624    
     85400   300.69469     -34966.118      5545.1681      26.145779      1.1922445    
     85500   286.44447     -34051.483      5547.111       26.15494       1.1918269    
     85600   319.13326     -29480.354      5549.0539      26.164102      1.1914096    
     85700   312.4235      -31953.423      5550.9969      26.173263      1.1909926    
     85800   303.59049     -25942.019      5552.9398      26.182424      1.1905759    
     85900   281.04144     -25876.217      5554.8828      26.191585      1.1901595    
     86000   279.47753     -25875.404      5556.8257      26.200746      1.1897433    
     86100   293.82928     -38248.189      5558.7687      26.209907      1.1893275    
     86200   321.32788     -35897.885      5560.7116      26.219068      1.1889119    
     86300   302.99538     -27753.418      5562.6546      26.228229      1.1884967    
     86400   285.59165     -34985.196      5564.5975      26.23739       1.1880817    
     86500   294.03544     -42393.108      5566.5405      26.246551      1.187667     
     86600   306.88963     -36710.137      5568.4834      26.255713      1.1872526    
     86700   305.28549     -35284.597      5570.4264      26.264874      1.1868385    
     86800   295.4764      -26025.749      5572.3693      26.274035      1.1864247    
[...]
     98600   285.27547     -36283.022      5801.6369      27.355045      1.1395398    
     98700   318.56392     -40071.995      5803.5799      27.364206      1.1391583    
     98800   338.44123     -36088.49       5805.5228      27.373367      1.1387771    
     98900   323.7765      -32257.363      5807.4658      27.382528      1.1383961    
     99000   306.46514     -30137.437      5809.4087      27.391689      1.1380154    
     99100   288.46294     -28176.097      5811.3517      27.40085       1.1376349    
     99200   310.88198     -31115.751      5813.2946      27.410011      1.1372547    
     99300   287.20229     -30556.474      5815.2376      27.419172      1.1368747    
     99400   268.47132     -15180.333      5817.1805      27.428333      1.136495     
     99500   304.5282      -31560.246      5819.1234      27.437494      1.1361155    
     99600   287.61516     -31956.369      5821.0664      27.446656      1.1357363    
     99700   296.27358     -34375.959      5823.0093      27.455817      1.1353573    
     99800   317.63171     -29691.826      5824.9523      27.464978      1.1349786    
     99900   301.31427     -24434.731      5826.8952      27.474139      1.1346002    
    100000   283.67055     -34945.194      5828.8382      27.4833        1.134222     
    100100   300.61368     -32496.851      5830.7811      27.492461      1.133844     
    100200   315.27912     -35504.742      5832.7241      27.501622      1.1334663    
    100300   300.77172     -28161.343      5834.667       27.510783      1.1330889    
    100400   288.88818     -31711.108      5836.61        27.519944      1.1327117    
    100500   291.04799     -24554.245      5838.5529      27.529106      1.1323347    
    100600   288.67943     -29850.782      5840.4959      27.538267      1.1319581    
    100700   298.02456     -33464.029      5842.4388      27.547428      1.1315816    
    100800   305.37108     -27562.019      5844.3817      27.556589      1.1312054    
    100900   301.48341     -26949.412      5846.3247      27.56575       1.1308295    
    101000   279.36524     -33694.296      5848.2676      27.574911      1.1304538    
    101100   296.76387     -21887.605      5850.2106      27.584072      1.1300784    
    101200   292.21877     -19473.008      5852.1535      27.593233      1.1297032    
    101300   315.35963     -35499.295      5854.0965      27.602394      1.1293282    
    101400   311.83924     -26520.317      5856.0394      27.611555      1.1289535    
    101500   296.31269     -26165.877      5857.9824      27.620717      1.1285791    
    101600   280.1997      -29620.892      5859.9253      27.629878      1.1282049    
    101700   293.27088     -32425.873      5861.8683      27.639039      1.1278309    
    101800   300.57991     -33545.035      5863.8112      27.6482        1.1274572    
    101900   309.55004     -35307.013      5865.7542      27.657361      1.1270838    
    102000   308.21109     -22346.307      5867.6971      27.666522      1.1267106    
    102100   321.25879     -21404.824      5869.64        27.675683      1.1263376    
    102200   282.05926     -27083.754      5871.583       27.684844      1.1259649    
    102300   283.65025     -25351.668      5873.5259      27.694005      1.1255924    
    102400   307.3399      -37085.773      5875.4689      27.703166      1.1252202    
    102500   307.96179     -21608.52       5877.4118      27.712328      1.1248482    
    102600   326.69511     -26897          5879.3548      27.721489      1.1244765    
    102700   299.85916     -32546.645      5881.2977      27.73065       1.124105     
    102800   326.05411     -32899.564      5883.2407      27.739811      1.1237338    
    102900   324.15056     -34242.846      5885.1836      27.748972      1.1233628    
    103000   313.4171      -29037.96       5887.1266      27.758133      1.1229921    
    103100   275.72461     -30012.461      5889.0695      27.767294      1.1226215    
    103200   300.26331     -27798.936      5891.0125      27.776455      1.1222513    
    103300   306.09123     -35025.968      5892.9554      27.785616      1.1218813    
    103400   308.3527      -29944.659      5894.8983      27.794777      1.1215115    
    103500   313.2261      -37206.576      5896.8413      27.803939      1.121142     
    103600   313.62107     -31582.437      5898.7842      27.8131        1.1207727    
    103700   296.68399     -30778.471      5900.7272      27.822261      1.1204037    
    103800   299.41091     -22867.495      5902.6701      27.831422      1.1200349    
    103900   285.42984     -34112.47       5904.6131      27.840583      1.1196663    
    104000   291.33598     -24519.21       5906.556       27.849744      1.119298     
    104100   308.91457     -28168.749      5908.499       27.858905      1.1189299    
    104200   314.19708     -31132.854      5910.4419      27.868066      1.1185621    
    104300   307.26131     -27147.534      5912.3849      27.877227      1.1181945    
    104400   291.66629     -31183.848      5914.3278      27.886388      1.1178272    
    104500   284.32575     -38426.185      5916.2708      27.89555       1.1174601    
    104600   297.51263     -30513.44       5918.2137      27.904711      1.1170932    
    104700   320.88828     -32063.329      5920.1566      27.913872      1.1167266    
    104800   309.76553     -43849.393      5922.0996      27.923033      1.1163602    
    104900   291.51272     -30966.264      5924.0425      27.932194      1.1159941    
    105000   319.98687     -30997.588      5925.9855      27.941355      1.1156282    
    105100   313.5601      -32377.692      5927.9284      27.950516      1.1152625    
    105200   277.78697     -34349.973      5929.8714      27.959677      1.1148971    
    105300   281.31648     -31995.805      5931.8143      27.968838      1.1145319    
    105400   296.94483     -29423.799      5933.7573      27.977999      1.114167     
    105500   297.04322     -35534.472      5935.7002      27.987161      1.1138023    
    105600   291.00947     -38242.617      5937.6432      27.996322      1.1134378    
    105700   277.20938     -38675.104      5939.5861      28.005483      1.1130736    
    105800   306.46036     -34945.673      5941.5291      28.014644      1.1127096    
    105900   333.23886     -32611.605      5943.472       28.023805      1.1123458    
    106000   311.62593     -33940.166      5945.4149      28.032966      1.1119823    
    106100   285.30817     -39188.495      5947.3579      28.042127      1.1116191    
    106200   296.98194     -34575.954      5949.3008      28.051288      1.111256     
    106300   289.90719     -38457.876      5951.2438      28.060449      1.1108932    
    106400   304.96457     -35420.553      5953.1867      28.06961       1.1105307    
    106500   314.32159     -31306.207      5955.1297      28.078771      1.1101683    
    106600   305.89103     -31068.078      5957.0726      28.087933      1.1098062    
    106700   289.69574     -32736.362      5959.0156      28.097094      1.1094444    
    106800   298.10609     -32931.781      5960.9585      28.106255      1.1090828    
    106900   309.2711      -38321.279      5962.9015      28.115416      1.1087214    
    107000   314.91522     -30134.044      5964.8444      28.124577      1.1083602    
    107100   311.56039     -32758.335      5966.7873      28.133738      1.1079993    
    107200   297.96773     -34060.34       5968.7303      28.142899      1.1076386    
    107300   300.61318     -38462.118      5970.6732      28.15206       1.1072782    
    107400   294.60742     -35312.536      5972.6162      28.161221      1.106918     
    107500   320.61409     -29324.889      5974.5591      28.170383      1.106558     
    107600   296.23713     -27547.414      5976.5021      28.179544      1.1061983    
    107700   327.65721     -36005.839      5978.445       28.188705      1.1058388    
    107800   287.14461     -42954.587      5980.388       28.197866      1.1054795    
    107900   298.98241     -32190.101      5982.3309      28.207027      1.1051205    
    108000   293.0418      -32679.489      5984.2739      28.216188      1.1047617    
    108100   316.15886     -25921.596      5986.2168      28.225349      1.1044031    
    108200   327.33952     -42752.717      5988.1598      28.23451       1.1040447    
    108300   303.79271     -42293.946      5990.1027      28.243671      1.1036866    
    108400   306.97803     -39292.934      5992.0456      28.252832      1.1033288    
    108500   293.54594     -42649.299      5993.9886      28.261993      1.1029711    
    108600   306.54166     -33261.872      5995.9315      28.271155      1.1026137    
    108700   296.83202     -37273.469      5997.8745      28.280316      1.1022565    
    108800   311.2022      -37852.753      5999.8174      28.289477      1.1018996    
    108900   310.91928     -39554.587      6001.7604      28.298638      1.1015429    
    109000   300.47697     -35287.318      6003.7033      28.307799      1.1011864    
    109100   295.8809      -27469.207      6005.6463      28.31696       1.1008301    
    109200   300.50904     -34492.967      6007.5892      28.326121      1.1004741    
    109300   297.74629     -37112.651      6009.5322      28.335282      1.1001183    
    109400   298.78064     -36097.552      6011.4751      28.344443      1.0997627    
    109500   326.51521     -29579.489      6013.4181      28.353604      1.0994074    
    109600   313.70336     -38015.744      6015.361       28.362766      1.0990523    
    109700   300.7903      -36259.094      6017.3039      28.371927      1.0986974    
    109800   294.74124     -38972.931      6019.2469      28.381088      1.0983428    
    109900   280.42659     -44818.817      6021.1898      28.390249      1.0979884    
    110000   301.6604      -30268.814      6023.1328      28.39941       1.0976342    
    110100   307.79919     -39617.07       6025.0757      28.408571      1.0972802    
    110200   309.78429     -33816.314      6027.0187      28.417732      1.0969265    
    110300   314.89332     -47837.125      6028.9616      28.426893      1.096573     
    110400   312.04579     -28919.569      6030.9046      28.436054      1.0962197    
    110500   304.58345     -38067.828      6032.8475      28.445215      1.0958666    
    110600   298.80989     -32457.901      6034.7905      28.454377      1.0955138    
    110700   325.22966     -42439.781      6036.7334      28.463538      1.0951612    
    110800   319.42289     -35660.143      6038.6764      28.472699      1.0948089    
    110900   317.38448     -43944.284      6040.6193      28.48186       1.0944567    
    111000   301.8094      -44884.763      6042.5622      28.491021      1.0941048    
    111100   300.11381     -40497.21       6044.5052      28.500182      1.0937531    
    111200   321.49771     -36810.538      6046.4481      28.509343      1.0934016    
    111300   340.36948     -39444.864      6048.3911      28.518504      1.0930504    
    111400   331.61022     -39144.797      6050.334       28.527665      1.0926994    
    111500   307.99703     -42157.971      6052.277       28.536827      1.0923486    
    111600   324.58874     -39006.699      6054.2199      28.545988      1.091998     
    111700   307.30452     -41108.032      6056.1629      28.555149      1.0916477    
    111800   302.45231     -42229.934      6058.1058      28.56431       1.0912976    
    111900   287.35273     -27786.252      6060.0488      28.573471      1.0909477    
    112000   302.00039     -34912.529      6061.9917      28.582632      1.090598     
    112100   333.95907     -42313.036      6063.9347      28.591793      1.0902486    
    112200   309.65034     -38463.376      6065.8776      28.600954      1.0898994    
    112300   291.07843     -30928.833      6067.8205      28.610115      1.0895504    
    112400   302.29522     -30144.007      6069.7635      28.619276      1.0892016    
    112500   301.01896     -29234.306      6071.7064      28.628437      1.0888531    
    112600   300.04435     -39124.057      6073.6494      28.637599      1.0885048    
    112700   306.94123     -38627.071      6075.5923      28.64676       1.0881567    
    112800   262.55179     -30250.14       6077.5353      28.655921      1.0878088    
    112900   280.26678     -39230.269      6079.4782      28.665082      1.0874611    
    113000   315.55276     -37827.439      6081.4212      28.674243      1.0871137    
    113100   314.82162     -29638.556      6083.3641      28.683404      1.0867665    
    113200   309.97307     -36907.227      6085.3071      28.692565      1.0864195    
    113300   295.93122     -45649.672      6087.25        28.701726      1.0860727    
    113400   274.37461     -43521.448      6089.193       28.710887      1.0857262    
    113500   296.77829     -29368.486      6091.1359      28.720048      1.0853799    
    113600   322.24868     -33780.724      6093.0788      28.72921       1.0850338    
    113700   317.54861     -39904.028      6095.0218      28.738371      1.0846879    
    113800   281.87267     -37841.19       6096.9647      28.747532      1.0843422    
    113900   327.35212     -31962.73       6098.9077      28.756693      1.0839968    
    114000   313.55903     -35736.769      6100.8506      28.765854      1.0836516    
    114100   303.29184     -36730.533      6102.7936      28.775015      1.0833066    
    114200   261.21255     -37713.774      6104.7365      28.784176      1.0829618    
    114300   283.80988     -34744.123      6106.6795      28.793337      1.0826172    
    114400   308.82116     -35971.766      6108.6224      28.802498      1.0822729    
    114500   306.43614     -31898.093      6110.5654      28.811659      1.0819287    
    114600   298.36387     -33016.31       6112.5083      28.820821      1.0815848    
    114700   319.61004     -37189.827      6114.4513      28.829982      1.0812412    
    114800   315.67714     -34544.177      6116.3942      28.839143      1.0808977    
    114900   295.16875     -28950.005      6118.3371      28.848304      1.0805544    
    115000   290.06209     -29396.853      6120.2801      28.857465      1.0802114    
    115100   282.9469      -36206.551      6122.223       28.866626      1.0798686    
    115200   307.97819     -35714.929      6124.166       28.875787      1.079526     
    115300   315.62993     -36354.979      6126.1089      28.884948      1.0791836    
    115400   318.27837     -41507.035      6128.0519      28.894109      1.0788414    
    115500   307.67956     -33699.726      6129.9948      28.90327       1.0784995    
    115600   295.43805     -34380.786      6131.9378      28.912432      1.0781578    
    115700   292.99747     -35369.794      6133.8807      28.921593      1.0778163    
    115800   300.06191     -35493.167      6135.8237      28.930754      1.077475     
    115900   306.32252     -27470.542      6137.7666      28.939915      1.0771339    
    116000   322.20985     -35020.269      6139.7095      28.949076      1.076793     
    116100   289.74791     -33594.683      6141.6525      28.958237      1.0764524    
    116200   312.10139     -38020.538      6143.5954      28.967398      1.0761119    
    116300   292.0084      -39069.822      6145.5384      28.976559      1.0757717    
    116400   277.42942     -33889.595      6147.4813      28.98572       1.0754317    
    116500   278.77537     -31298.495      6149.4243      28.994881      1.0750919    
    116600   294.95476     -40039.386      6151.3672      29.004043      1.0747523    
    116700   300.8242      -33213.425      6153.3102      29.013204      1.074413     
    116800   304.56674     -36250.859      6155.2531      29.022365      1.0740738    
    116900   310.71761     -35419.41       6157.1961      29.031526      1.0737349    
    117000   299.43505     -39388.981      6159.139       29.040687      1.0733962    
    117100   297.42307     -35331.06       6161.082       29.049848      1.0730577    
    117200   289.38886     -34919.781      6163.0249      29.059009      1.0727194    
    117300   301.46585     -32667.146      6164.9678      29.06817       1.0723813    
    117400   326.29096     -35192.365      6166.9108      29.077331      1.0720435    
    117500   318.53881     -37167.355      6168.8537      29.086492      1.0717058    
    117600   286.09215     -42488.724      6170.7967      29.095654      1.0713684    
    117700   292.04503     -38349.511      6172.7396      29.104815      1.0710311    
    117800   281.58525     -36327.7        6174.6826      29.113976      1.0706941    
    117900   296.84016     -46050.481      6176.6255      29.123137      1.0703573    
    118000   296.68004     -36942.032      6178.5685      29.132298      1.0700207    
    118100   299.76785     -45132.96       6180.5114      29.141459      1.0696843    
    118200   292.84969     -38825.863      6182.4544      29.15062       1.0693482    
    118300   280.58305     -38915.171      6184.3973      29.159781      1.0690122    
    118400   281.98164     -32461.72       6186.3403      29.168942      1.0686765    
    118500   297.26572     -33791.394      6188.2832      29.178103      1.0683409    
    118600   314.58024     -44990.11       6190.2261      29.187265      1.0680056    
    118700   297.83631     -39563.657      6192.1691      29.196426      1.0676705    
    118800   294.05627     -42533.638      6194.112       29.205587      1.0673356    
    118900   292.45563     -44394.208      6196.055       29.214748      1.0670009    
    119000   270.53517     -33452.898      6197.9979      29.223909      1.0666664    
    119100   289.79725     -36066.33       6199.9409      29.23307       1.0663322    
    119200   292.86008     -40531.877      6201.8838      29.242231      1.0659981    
    119300   295.33664     -38220.76       6203.8268      29.251392      1.0656642    
    119400   307.69994     -38640.575      6205.7697      29.260553      1.0653306    
    119500   306.41733     -40763.797      6207.7127      29.269714      1.0649972    
    119600   306.81368     -39619.422      6209.6556      29.278876      1.0646639    
    119700   279.60001     -35374.811      6211.5986      29.288037      1.0643309    
    119800   295.41688     -35214.876      6213.5415      29.297198      1.0639981    
    119900   304.44535     -32279.463      6215.4844      29.306359      1.0636655    
    120000   293.12273     -44575.173      6217.4274      29.31552       1.0633331    
Loop time of 3868.18 on 8 procs for 120000 steps with 365 atoms

Performance: 1.340 ns/day, 17.908 hours/ns, 31.022 timesteps/s, 11.323 katom-step/s
98.7% CPU use with 8 MPI tasks x 1 OpenMP threads

MPI task timing breakdown:
Section |  min time  |  avg time  |  max time  |%varavg| %total
---------------------------------------------------------------
Pair    | 2455       | 2862.2     | 3153.5     | 440.7 | 73.99
Bond    | 0.30521    | 0.32078    | 0.33969    |   2.1 |  0.01
Neigh   | 205.07     | 238.15     | 265.45     | 136.6 |  6.16
Comm    | 81.113     | 372.7      | 780.11     |1222.3 |  9.63
Output  | 0.398      | 0.43512    | 0.47322    |   3.9 |  0.01
Modify  | 364.55     | 391.68     | 424.8      | 106.1 | 10.13
Other   |            | 2.671      |            |       |  0.07

Nlocal:         45.625 ave          62 max          39 min
Histogram: 2 1 3 1 0 0 0 0 0 1
Nghost:        2457.25 ave        2561 max        2394 min
Histogram: 1 1 2 0 2 0 1 0 0 1
Neighs:        18499.6 ave       24379 max       15530 min
Histogram: 1 0 4 1 1 0 0 0 0 1

Total # of neighbors = 147997
Ave neighs/atom = 405.47123
Ave special neighs/atom = 0
Neighbor list builds = 12000
Dangerous builds not checked
Total wall time: 1:04:28
