LAMMPS data file via write_data, version 2 Aug 2023, timestep = 100, units = real

365 atoms
4 atom types

0 15.3172 xlo xhi
0 13.8463 ylo yhi
0 18.3222 zlo zhi
-7.7318 0.2463 -0.1382 xy xz yz

Masses

1 12.0107
2 1.00794
3 15.9994
4 28.0855

Atoms # full

7 2 4 0.6153905896556786 0.8370438731623505 3.1342524758973753 0.23333909278946485 0 0 0
8 2 2 0.002059935923776386 1.6302651014299556 2.1043703689735835 1.3591736404001897 0 0 0
9 2 2 -0.01202693041091484 0.8718304480009074 4.682792200071446 0.8825454737792198 0 0 0
10 2 3 -0.668428174419454 -0.693608171104543 2.6353370784166827 0.3540407393451994 0 0 0
13 3 4 1.341080988707946 1.2194808835641764 2.2280485973243898 6.666243117170192 0 0 0
30 3 4 0.6861728873097352 2.5342933372586627 2.9431156061014003 3.942433810623534 0 0 0
68 3 1 -0.1425560101085456 -1.8457588019140556 6.58651704181229 4.051241637556877 0 0 0
69 3 1 -0.09083825278656746 -0.9876439745730659 6.201005387356235 7.268846625861672 0 0 0
77 3 1 -0.1234572591641171 1.6130409098424057 6.10785223888673 3.88364201638772 0 0 0
294 5 2 0.09076238124977719 6.35431345070475 6.757734803683412 1.4399341070399052 0 0 0
102 3 2 -0.01915290916520254 1.1176693924662984 3.320604203572144 2.99584441690017 0 0 0
126 3 2 0.01429426617927569 -1.5364678782864933 5.5452508049211255 4.120774115951581 0 0 0
128 3 2 0.03166659716572851 -2.927489951597268 6.745302436683864 4.036734605879753 0 0 0
129 3 2 0.06514164116926688 0.05212956224808521 5.951637937725935 7.194406197528888 0 0 0
130 3 2 0.03649094461048568 -1.5918871221478774 5.36304311338688 6.937904320283097 0 0 0
143 3 2 0.03296087855181012 2.2682168162323832 0.5089998743502004 3.4811129457883307 0 0 0
151 3 2 0.06540156124070273 1.4500683682843818 5.58540647334901 4.805717785318095 0 0 0
152 3 2 0.06946397977636302 2.663220656574358 6.136762803463884 3.630966245736521 0 0 0
153 3 2 0.01175184110110226 0.9698211715548818 5.790385190415489 3.057601947091108 0 0 0
201 3 3 -0.7330979553381872 0.10464443393563044 1.2660046033840997 5.949512565324409 0 0 0
202 3 3 -0.8548059620380802 2.2946645483841106 1.3458773371262789 7.620403249462723 0 0 0
205 3 3 -0.7605535369818166 0.41682678047906335 3.6272816736986013 7.628622452597039 0 0 0
219 3 3 -0.7274007320602237 2.0395425796007753 3.034111707321422 5.500035481298699 0 0 0
319 8 2 0.03886574790463491 -0.936029036080547 3.054641700723686 3.409737329202448 0 0 0
320 8 2 0.03541588893806251 -1.2802677737487052 3.77338090407548 4.982040827691596 0 0 0
347 18 2 0.02608105415689459 -2.156527014025898 5.337556429365698 0.4124342107457378 0 0 0
349 20 2 0.04728018968015955 -0.5168183164773944 0.9846072259607889 1.6103802428215568 0 0 0
155 3 2 0.02894148563614726 2.1154213145623317 6.50360399318427 0.32863713414147033 0 0 0
11 3 4 1.622137607138168 2.9078366160238436 0.44271575834088506 8.83690640079592 0 0 0
29 3 4 1.126725279127881 6.793721321579521 0.847502044885515 2.8797869263732623 0 0 0
31 3 4 1.104104989166021 5.42281127830465 2.2410113364738975 0.6244952427580583 0 0 0
32 3 4 1.12939171561819 8.132111857443668 0.014692291706207852 7.940170339213403 0 0 0
34 3 4 1.196342544964535 6.812196864709806 2.7347999244531196 7.005827318483502 0 0 0
37 3 4 1.17857380749837 4.818994899300724 4.502168203831769 2.6619518051790845 0 0 0
39 3 4 1.467455422292846 5.467687066270986 5.034749082773147 8.604540298530678 0 0 0
53 3 4 1.126611666137951 8.203661003645804 3.051404081541132 4.315803679240264 0 0 0
56 3 4 1.109397334366445 6.2708795621023965 6.2583725293656505 4.630270111174462 0 0 0
59 3 4 0.3295842058121657 8.668071829002182 6.427239390231298 6.391919102660802 0 0 0
74 3 1 -0.1131815068489289 3.153812518444096 1.0509722591400603 3.4174219750694195 0 0 0
75 3 1 -0.06461792982261062 5.06822741848498 2.463516833799507 5.974697971228336 0 0 0
107 3 2 -0.02709434388485379 4.184469794247903 5.8758172243917155 1.8238147609345639 0 0 0
109 3 2 -0.0009958792125192538 2.846561735149084 6.093219448050465 6.2447247198538065 0 0 0
112 3 2 0.001021682404941854 8.379478370556738 0.9582753128608384 2.121297301031087 0 0 0
142 3 2 0.07209893566764088 3.468525364752039 1.2745835368909844 2.4255583040604063 0 0 0
144 3 2 0.0598434338922606 3.9255743776335645 0.878812815010975 4.1176705852951185 0 0 0
145 3 2 0.09996998036792402 4.930680631488262 1.3817101544031567 6.078676483551179 0 0 0
146 3 2 0.1217363690292839 5.2570073138255164 2.907672567641212 4.996177119327254 0 0 0
147 3 2 0.0991283343261949 4.386485881961812 3.042802086156163 6.5948397666545615 0 0 0
189 3 2 0.08014821038396404 9.15282978079073 6.432752682913258 8.830242400324655 0 0 0
220 3 3 -0.7947690534258345 5.804416021911877 0.9728303065102254 1.615816444044354 0 0 0
222 3 3 -0.7634802975222517 7.2085675392408035 1.33750819112515 7.667276603104045 0 0 0
226 3 3 -0.7804112778636227 3.556820872373293 4.089264550667375 3.495832758924296 0 0 0
227 3 3 -0.7600641233012549 5.378892017285927 3.631033537470745 1.429935052493937 0 0 0
229 3 3 -0.8203390379157792 4.239728926572281 4.030015498840781 9.092771766516691 0 0 0
230 3 3 -0.8089779876527909 6.522784828542053 4.031459200235826 7.9136832995505575 0 0 0
233 3 3 -0.8476690864280749 4.981484587351332 6.425261780456654 7.809856661385997 0 0 0
255 3 3 -0.7771512321731688 6.932305665727615 2.207062317459433 3.7181704417705235 0 0 0
256 3 3 -0.7623326114751312 7.9970992354307695 3.0511776182330146 5.943253130317814 0 0 0
258 3 3 -0.7389628022627384 8.70976301452853 4.307129342190909 3.387429818389089 0 0 0
260 3 3 -0.7495760157798043 6.040937904062522 5.11495080972834 3.5332692930997016 0 0 0
263 3 3 -0.8036243396542273 8.211893558111196 5.61409932822118 0.8796540583529825 0 0 0
266 3 3 -0.6470423640838909 7.2434398775562165 5.9397459096578835 5.839333787208184 0 0 0
351 22 2 0.01987707474720923 12.709306881331168 3.124768579868965 3.9857736173510947 0 0 0
318 8 1 -0.1405603673241 -1.5844744324790814 3.0723042665446734 4.242300065241475 0 0 0
365 36 3 -0.6375807105138835 11.999671015757805 3.3009159467878586 0.21396297187713467 0 0 0
1 1 4 0.6690980177536354 14.093758536479566 1.2297416062823334 5.049998677313803 0 0 0
2 1 1 -0.112226496689901 12.503401987564656 0.873225969132212 6.265767203983379 0 0 0
3 1 2 0.05018991319207394 11.951428123044197 0.09616154317917673 5.833473809691909 0 0 0
4 1 2 0.01781645675546639 12.039271419507775 1.821243552781925 6.2338417081725 0 0 0
6 1 3 -0.6334393498831364 14.128873435330872 -0.005680560765276989 3.9818137761781487 0 0 0
55 3 4 1.096076115382474 9.093638567269835 4.628745987983939 1.801848272594732 0 0 0
85 3 1 -0.1286926460455741 9.962916929614837 1.8437772305963003 4.175037597988271 0 0 0
88 3 1 -0.1082873377810941 11.024997125538533 5.545145628821621 1.8511576284538598 0 0 0
90 3 1 -0.08947446828326081 10.167693107013442 5.05352694823846 6.201589125661369 0 0 0
170 3 2 0.01812609245382607 10.737559606663174 2.5275905776411314 4.398176744623541 0 0 0
171 3 2 0.03391953292730027 9.995739737280969 1.4438370972430359 3.18229474523664 0 0 0
172 3 2 0.06256246573740647 9.88764873098574 1.108554091162502 4.945880452711213 0 0 0
178 3 2 0.02388361549197011 10.93025818763722 6.190819029851325 2.7271647541219908 0 0 0
179 3 2 0.09272813752417934 11.039113607982866 6.008806935723096 0.8523737285235597 0 0 0
180 3 2 0.07077031540912382 11.70932247751106 4.719892255990919 2.0026510434146143 0 0 0
184 3 2 0.03805997665256482 10.520798650538904 5.144214186786083 5.2154162850113925 0 0 0
185 3 2 0.1072745656517283 9.703337422707458 4.111563575942793 6.3711774893050945 0 0 0
186 3 2 0.04866268894491045 10.942666844201941 5.227950137908112 6.946944529626856 0 0 0
259 3 3 -0.6975036237503758 9.320033505629423 3.1558035849099295 1.0658966715636817 0 0 0
313 7 2 0.03698563198765232 11.910643761299216 3.2216845541466244 8.871485019647183 0 0 0
339 14 1 -0.1333487328440618 11.97347525047217 0.5463724991080747 1.7990343794511108 0 0 0
340 14 2 0.03729542568525016 12.117182169567707 0.9343145433016737 0.7939928224871309 0 0 0
341 14 2 0.03568991112129224 11.753105960692317 1.320295089175744 2.5230777848460715 0 0 0
354 25 2 0.09245309983526255 2.1912205501661526 -0.013360090917630543 5.910234922090399 0 0 0
131 3 2 0.1050362324628297 -1.3636235974038262 6.720703789415223 8.154844460231178 0 0 0
5 1 2 0.06568599029380576 12.912445831764028 0.7095903286375362 7.233028819938353 0 0 0
16 3 4 1.191854640261461 0.03468524304110206 3.7343495955942902 9.122770901670146 0 0 0
14 3 4 0.7093338156390631 0.48954791044900736 2.9121867503180887 13.093503306372455 0 0 0
15 3 4 0.644410380256594 -1.7086708112618763 6.451707599889172 17.581707059143394 0 0 0
19 3 4 1.182891009120741 -0.8819076104805694 5.367869130386103 13.698382810479085 0 0 0
40 3 4 1.166440160765045 1.2655810990841139 5.956863987850112 10.716032296288962 0 0 0
43 3 4 1.19578488951115 0.7059279907887914 6.637466575554666 16.000461248405536 0 0 0
67 3 1 -0.1050014320702129 0.22091883414696792 2.552027599262062 15.099412699470623 0 0 0
97 3 2 0.07927641583771558 -2.240603022619058 4.653583161414943 14.468668494391855 0 0 0
104 3 2 0.06267596786894641 2.1338812659276 3.42184302555566 12.86022128209741 0 0 0
110 3 2 0.054996406949597 1.970652853712445 5.55402206979973 16.64408051816327 0 0 0
123 3 2 0.05627559852713886 0.9010477137467897 1.8113247898984584 15.433175165054454 0 0 0
124 3 2 0.015199822256914 -0.7928445194255413 2.257643951894645 15.175296560847416 0 0 0
125 3 2 0.09383550594915623 0.39043124329509493 3.508478509619218 15.509552273378336 0 0 0
203 3 3 -0.7365656753556147 0.17065837720471635 1.5714338709616973 12.26367498483993 0 0 0
204 3 3 -0.7941562001476931 -0.5354951450119447 2.3348889438727665 9.608369595312748 0 0 0
206 3 3 -0.7228778657312225 -0.38722400079125574 4.194079443254792 12.711051569742859 0 0 0
207 3 3 -0.713628759964951 -2.5881502349715486 6.097660887161738 16.268000321315537 0 0 0
209 3 3 -0.8439361273131581 -1.6018822229842906 6.554499936774156 12.923905923864817 0 0 0
224 3 3 -0.7171453338784001 1.9192288894518088 2.8940822908016477 17.13429728787515 0 0 0
231 3 3 -0.7718300007867586 1.1483615148679367 4.423322379260317 10.073894967989744 0 0 0
236 3 3 -0.8479330169445085 0.16723225545279127 5.68537035197274 14.852510488290394 0 0 0
238 3 3 -0.827109763758443 2.201928041896904 6.11202816370613 12.015541239943115 0 0 0
346 17 2 0.04227278487365949 -1.3890960697705053 4.117286536748286 16.652915354319497 0 0 0
232 3 3 -0.8778188515471578 -0.12754287635923994 6.701787035879074 10.645841293216435 0 0 0
237 3 3 -0.755690872485186 -0.09476327341254212 6.68423157340765 17.39323474331762 0 0 0
315 7 2 0.03533334229038666 9.385576428510234 2.9403315312098792 10.419485773968347 0 0 0
33 3 4 1.18935652090023 4.166973622761933 2.834360330667647 10.204869204052896 0 0 0
35 3 4 1.040231017779888 3.4911505539411727 2.632238325556458 16.833195811564618 0 0 0
36 3 4 0.6374778889586363 6.119226288080975 3.3035800279530423 12.292808170316313 0 0 0
42 3 4 1.332659700993515 4.874941231316683 4.392288951492805 14.804187121374902 0 0 0
44 3 4 1.577669530101599 3.56496905913648 6.508607873112323 12.95575076834581 0 0 0
57 3 4 1.497865102485912 8.841244326061586 6.32310159485879 17.853736489028837 0 0 0
61 3 4 1.220213898154068 6.696031167517839 6.610075758401775 15.654896366154063 0 0 0
76 3 1 -0.1276934659768031 3.4372763841981624 1.0145738187196307 15.424777024364081 0 0 0
103 3 2 0.04572545826126678 3.0150181028329714 3.5255751191542646 11.308224009650568 0 0 0
105 3 2 0.06615274305416019 6.376123966406913 4.987115767683422 12.05789785897634 0 0 0
106 3 2 -0.007813614064058925 7.690542817596545 2.602940256238543 12.492337724616462 0 0 0
141 3 2 0.04814787834828151 8.599202290393475 0.952139344303358 10.359033873170429 0 0 0
148 3 2 0.02949187019199969 2.902938912888021 0.21974220533919211 15.899004062071885 0 0 0
149 3 2 0.06669917509498549 4.446697902723418 0.7445615162405773 15.161676593593208 0 0 0
150 3 2 0.03265030104457591 2.9077295070503015 1.3851797975200946 14.56408979063585 0 0 0
161 3 2 0.07919197455900058 3.2916743771257018 6.350154561551289 9.27688429942957 0 0 0
221 3 3 -0.8349210162358651 3.5570080772163153 1.3898577355777824 9.964907058508652 0 0 0
223 3 3 -0.7731937218105327 4.277665780358576 1.9833504741657961 18.13123636276628 0 0 0
225 3 3 -0.7180247891131765 5.522946706282649 2.5727894918070544 10.983148603259181 0 0 0
234 3 3 -0.7877852526677266 4.296428038849206 3.947137753291628 16.28243411772737 0 0 0
235 3 3 -0.6887638829762388 5.271334656212823 3.0085059990498273 13.660938560807864 0 0 0
239 3 3 -0.8358223742245479 3.7559135187693116 5.285500942209367 14.015719572057465 0 0 0
264 3 3 -0.8368259623298597 6.223085304521572 5.762999752879666 9.908570173055141 0 0 0
265 3 3 -0.8680859738104697 4.889296809295797 6.67318527276155 12.056406736002591 0 0 0
269 3 3 -0.818958318453384 6.176478701892252 5.358586761851841 14.790328332297 0 0 0
270 3 3 -0.8669925137959688 7.850837864462383 6.0438241165426705 16.628940591374853 0 0 0
314 7 2 0.03208022009930633 8.912680839527761 4.596978165708722 10.958996045972311 0 0 0
316 7 2 0.08518439763408056 8.924673545389075 4.145871540965316 9.209650357617729 0 0 0
331 12 1 -0.1001811577402169 7.276541426662478 2.4106589727989283 17.473840861399957 0 0 0
332 12 2 0.0413279144898482 6.690926143434577 2.301830772574345 16.55847356772001 0 0 0
333 12 2 0.03378277435157331 8.054193168088732 1.6919549835766388 17.70113742944891 0 0 0
334 12 2 0.121719458951423 7.551797570420755 3.465345935904202 17.70120275332716 0 0 0
358 29 2 0.1037735589141515 4.999937579151158 0.6374724628456143 12.261628864186287 0 0 0
359 30 2 0.02890722169588923 7.757411018239291 0.44753365443002113 14.914294942691072 0 0 0
360 31 2 0.01182718681107858 8.120271886811507 -0.018253375356281534 16.553085133455824 0 0 0
119 3 2 -0.01348630290362646 9.151137170034433 4.293324896839483 13.567147929787598 0 0 0
350 21 2 -0.02310665756857068 10.539951484046538 0.9741444554473764 17.940360427326247 0 0 -1
73 3 1 -0.1336905522754357 9.259854232385962 0.3927656829706477 9.714949374220128 0 0 0
12 3 4 1.145255458619268 14.627169057772784 1.38520309197804 10.89070529620529 -1 0 0
20 3 4 1.006301738005704 11.139843089548608 5.663616497950614 16.05830536100517 0 0 0
54 3 4 0.6447910983588494 12.193755048556877 1.5395548333196794 12.56736456309433 0 0 0
60 3 4 0.5508985840707947 10.486825690606116 3.3245126230541464 14.172513287688064 0 0 0
86 3 1 -0.1348260873742815 10.56819708144569 0.25761948209154173 12.391026160174128 0 0 0
87 3 1 -0.1368009445289737 13.034090386265845 0.6553941393433472 14.255199199930422 0 0 0
117 3 2 -0.03228044479194155 9.769998863784263 1.8811123747275316 14.812164702853405 0 0 0
120 3 2 -0.0520450411209326 8.867831465049147 5.983287235612951 12.260956135931828 0 0 0
134 3 2 0.07154652697075915 9.156789917775246 6.618543981787007 14.66615408871936 0 0 0
140 3 2 0.03474071360717303 10.124847742975032 0.9911452580654257 9.425580391683331 0 0 0
174 3 2 0.03142141811721098 9.825070259382763 0.9844709397751986 12.15882337918629 0 0 0
317 7 3 -0.7170802323024307 11.571615670979506 6.025601230218237 9.390109004293317 0 0 0
176 3 2 0.05879715111384007 14.061909989060034 0.6319817186874918 13.959841281888476 0 0 0
177 3 2 0.02318185258374159 12.65147634036429 1.354921136670846 15.016964146685954 0 0 0
257 3 3 -0.7374115117142864 13.068420649720636 1.318285766312643 11.231564944078059 0 0 0
262 3 3 -0.8408613242847411 10.278033873183908 5.716620244715984 17.393314555304507 0 0 0
267 3 3 -0.6474641038275961 11.516929213361793 3.0187808102170512 12.958225012660348 0 0 0
268 3 3 -0.6970596413779033 11.265399226592088 4.158675310820003 15.369395568544498 0 0 0
283 4 4 0.5871253869816694 13.601766986811118 2.803393708949474 17.686880393608167 0 0 0
284 4 2 -0.01913845737222766 13.378925676898696 1.3377900479475444 16.775487122678527 0 0 0
308 6 4 0.59848777367365 10.692596942174385 2.7089377278240354 18.24071277287114 0 0 0
309 6 2 0.0682431237566952 10.118964501055691 3.3997624051289193 16.78619608500409 0 0 0
310 7 4 0.2886125735098955 11.314992004999494 4.48324041946452 9.952215587971958 0 0 0
311 7 1 -0.09120228178406602 9.31655773806931 3.9710483939185277 10.176134475648077 0 0 0
312 7 2 0.1278491317224439 12.173415737790647 4.205630538613518 11.42141149691127 0 0 0
96 3 2 0.02026391226714516 -1.373079102287069 4.7505948478525175 9.168511607450233 0 0 0
23 3 4 1.503611580149532 -2.8135482730833448 9.49545795403313 7.58131049640664 0 0 0
25 3 4 1.128441269246282 -3.5772536754877593 12.353825013076566 6.837345337995726 0 0 0
46 3 4 1.128103297026076 -1.2692277771636524 12.2360491617873 4.776588441376358 0 0 0
70 3 1 -0.09306002302893381 -5.373326147847806 12.793879454728453 5.843375960897438 0 0 0
79 3 1 -0.09399438588116743 -2.074115089889049 10.555232205937205 3.726621223554047 0 0 0
127 3 2 0.03314174399396656 -1.278363765697226 7.17724711116478 3.3274649997716654 0 0 0
132 3 2 0.03847551349235458 -5.240459184807415 12.436768179362335 4.853839825841067 0 0 0
133 3 2 0.07445382691269495 -6.139110562918277 12.24529714271385 6.323574878525727 0 0 0
158 3 2 0.02732876764073604 -2.5289281626970412 10.892423758967839 2.82327018051138 0 0 0
159 3 2 0.0629551680163741 -2.8139813715761126 10.267776159540626 4.445888396407788 0 0 0
210 3 3 -0.8619169208766602 -3.5530097189738514 8.601434287139302 8.703391633884296 0 0 0
211 3 3 -0.7501768365125944 -2.481843821828373 8.553938011638495 6.287046797658565 0 0 0
213 3 3 -0.8460123492994014 -3.7157791833544773 10.764005490104385 7.121731400907011 0 0 0
214 3 3 -0.8170943459482396 -3.7348389274975067 13.308877057845866 8.159311632377742 0 0 0
242 3 3 -0.7813064015215722 -2.4692653845487764 12.768173837468899 5.7050343150611 0 0 0
321 9 1 -0.106463426401067 -2.7468213924753075 8.157462861908586 0.28039436860769446 0 0 0
322 9 2 0.02350889573573051 -3.0606597277945995 7.838920109951274 1.2600327304351415 0 0 0
304 5 3 -0.700391344497734 8.5382197962325 9.023977740274944 2.531588411960489 0 0 0
324 10 1 -0.09422386788445336 -5.643748323809806 11.832693074644139 1.922362506198172 0 0 0
325 10 2 0.1062580019527213 -5.790334358495693 11.452918791764812 0.9197419276494625 0 0 0
326 10 2 0.01429172574223992 -4.592693482624822 11.923160995145915 2.1453939825317954 0 0 0
327 10 2 0.08037613018976025 -6.295139167891825 12.639114668574027 2.19539381227597 0 0 0
348 19 2 -0.005837065144087777 -4.950992031366399 10.116512585565165 4.1637392292238795 0 0 0
353 24 2 0.0686826513102643 -5.795602707125605 10.899599112746287 8.284318242420714 0 0 0
329 11 2 0.07210016936815682 7.911540908493127 10.424385606321996 8.96665397312961 0 0 0
245 3 3 -0.6967725217332615 -1.3184026342283597 9.963217907983084 8.289494710091942 0 0 0
18 3 4 0.6487267989786197 -1.2470147599905572 7.5851559758723335 5.795837037158918 0 0 0
38 3 4 0.6066339790870212 1.1712262285919846 8.031237057099519 4.23982617656485 0 0 0
45 3 4 0.6661899457123521 0.6158003992400659 8.288330471725807 1.389345052821322 0 0 0
48 3 4 1.088062573662027 3.0657734307604625 9.606693118351455 7.580144239498091 0 0 0
50 3 4 1.11796471529744 1.497937208494598 11.823659473377989 5.994543016132481 0 0 0
78 3 1 -0.09820148437323786 2.3214582690820995 7.512709179109188 0.5394015138554499 0 0 0
83 3 1 -0.1175259818350963 2.391377797689306 12.204554677879875 4.053132526667332 0 0 0
108 3 2 0.07242185160650365 2.7276675821590555 8.68903991927818 4.483816690907691 0 0 0
111 3 2 0.0001518316996926786 -0.5890385607147821 7.084901410983562 1.442138434363171 0 0 0
113 3 2 0.02055153696606587 1.5774761693217498 8.901743881966484 8.066298988545835 0 0 0
307 5 3 -0.5918815995491432 7.965380137236847 11.1707691499027 4.247008880436643 0 0 0
156 3 2 0.02794150108759438 3.0408912730899678 7.70812924983385 1.292251261042358 0 0 0
157 3 2 0.1193184149463229 -1.338544064247585 9.804842839258004 3.5205761336944343 0 0 0
160 3 2 0.02832559422300189 1.774352456368323 6.9600564492564585 8.505166993940199 0 0 0
166 3 2 0.04374163601626345 1.8893112512892891 13.085305936319196 3.706021618918181 0 0 0
167 3 2 0.06280266759476376 2.234217242479234 11.349753073202463 3.4147393514528583 0 0 0
168 3 2 0.03135552081867145 3.4158317772930733 12.354850790292447 4.3949452170475665 0 0 0
192 3 2 0.07710752706216509 3.5173006212821987 12.51444267981998 8.465599813723374 0 0 0
228 3 3 -0.6052917609547106 0.24124385478893529 8.284788326983973 5.541126415018712 0 0 0
240 3 3 -0.651227007735231 0.737582616413946 8.820859143576163 2.918858422247089 0 0 0
241 3 3 -0.826353847918634 -0.7866059235886127 13.317447234139419 3.6698263761531904 0 0 0
243 3 3 -0.6614110757759939 -0.022997329012842273 9.505130082544147 0.5286333343146776 0 0 0
244 3 3 -0.8070344347816504 3.669604041046346 8.55170033159027 6.532653870768675 0 0 0
246 3 3 -0.6906139749578881 -0.5894474571992376 12.688357038659941 8.3839915096044 0 0 0
247 3 3 -0.7195673877626919 -0.041699886884018766 11.505923067369519 5.62997520278601 0 0 0
248 3 3 -0.7864961781613732 2.5395514688495036 10.968726908778262 6.894721083701065 0 0 0
249 3 3 -0.7508044834517879 1.4568923892436487 13.251399452409409 6.847747489661786 0 0 0
261 3 3 -0.8067804028332143 4.869143658996629 6.8912640271789405 5.082730436868256 0 0 0
273 3 3 -0.7365887375657518 3.997447586172949 9.6911201127346 8.905592564331819 0 0 0
291 5 1 -0.07904286020363831 5.042131355402875 10.154584683163849 3.752757759554455 0 0 0
297 5 2 0.05021417489442956 4.16559675709615 10.474072357664166 4.278991427392698 0 0 0
299 5 2 0.10782161662857 5.199927086758418 10.701913667942534 2.79756594561063 0 0 0
335 13 1 -0.1274368070491233 0.532073795731773 12.545639334848183 0.8920562217924279 0 0 0
336 13 2 0.01396168808783235 1.0269413653761335 13.307737491027469 0.2925435384794095 0 0 0
337 13 2 0.05504336211742458 1.077104595550539 12.314888927703855 1.7916552365462723 0 0 0
338 13 2 0.05837835937672502 -0.5323923525570482 12.67188095614274 1.074341536103145 0 0 0
361 32 2 0.03062994597658517 3.565539921789871 13.546435331133846 1.8527559434048635 0 0 0
298 5 2 0.05955187893722489 5.042011240024041 9.087651733665433 3.7618139394450334 0 0 0
41 3 4 1.136229635337144 4.21709170505117 7.064479336722622 6.555349947893302 0 0 0
306 5 3 -0.7193051503201591 6.385446434343187 12.269477392054888 1.7325648184040137 0 0 0
89 3 1 -0.1045895640445043 9.595276463219053 7.797182901869149 5.172966527077895 0 0 0
91 3 1 -0.05028754378337199 8.46113713645742 7.0684510809485435 8.277860601221782 0 0 0
121 3 2 0.01203712350923442 7.091952014055525 7.558426178503644 3.683978315763572 0 0 0
181 3 2 0.07535507733207725 9.337245195544376 7.4621500398909735 4.177953187833306 0 0 0
182 3 2 0.06706489650985903 10.666456917515735 7.79072223707879 5.465083375451075 0 0 0
183 3 2 0.04129723635236005 9.149785718929733 8.749202674616408 5.412738829049574 0 0 0
187 3 2 0.126089858521531 7.431472091599693 6.893282289427929 8.467488945330416 0 0 0
188 3 2 0.05727031950308263 8.723956971267206 8.103412948340921 8.240132644106682 0 0 0
193 3 2 0.05418095366881984 5.265329823906774 12.877699307143722 8.779164483206948 0 0 0
285 5 4 0.635409978656711 8.989011794369908 10.43925127807592 3.272914840286077 0 0 0
286 5 4 0.6649262022185471 6.057714684543342 13.713961875448849 2.4016962445649255 0 0 0
287 5 4 1.049476870322985 7.8705206132315135 8.917471447251138 1.0177980571721985 0 0 0
288 5 4 1.074956369499001 6.347288061712824 11.49693372011302 0.35087617994747944 0 0 0
289 5 4 0.3364785131589885 6.610107094889576 10.687147300576425 4.933323762077867 0 0 0
290 5 1 -0.112778470974423 6.030084088294974 7.752145179421761 1.1928876033103761 0 0 0
292 5 1 -0.09341792215743537 6.817370334303708 9.592672152162837 6.654363351291477 0 0 0
293 5 2 0.07676675885344028 5.837538030373152 12.157537597778239 5.53105198951566 0 0 0
305 5 3 -0.7050702436107776 7.585578786824506 10.380342318777634 0.3720197798176383 0 0 0
295 5 2 0.05802642842717756 5.619191208512987 7.938283605828439 0.21111426477461256 0 0 0
296 5 2 0.02597612359851076 5.453956870181609 8.210821626646881 1.9990782529913045 0 0 0
300 5 2 0.03016632152165191 7.870820790203391 9.632218950875131 6.832145609941446 0 0 0
301 5 2 0.07212950909127616 6.405400119470217 8.610319024539745 6.390243034220169 0 0 0
302 5 2 0.07282585162121356 6.269561089460617 10.20004182037334 7.339149827210365 0 0 0
352 23 2 0.1092784363460387 -1.924560533177856 8.857399287983219 0.3604281850848187 0 0 1
49 3 4 0.7258943796056333 -0.9224730023793248 11.302019048203373 9.131937954567945 0 0 0
328 11 1 -0.08672652136535025 8.986508220094073 10.498851505023202 9.10953550971524 0 0 0
17 3 4 1.539925113555376 -3.8567782578346885 7.571850363410432 9.942362737642215 0 0 0
22 3 4 0.6277942326302267 -3.415162015633717 11.68819657401259 16.64701376064614 0 0 0
24 3 4 1.111941875745467 -5.921304506448096 12.005850432700518 10.551246767836528 0 0 0
26 3 4 1.054116246033958 -1.3968354614400182 9.905963136339354 13.338383151697359 0 0 0
27 3 4 0.6896171978858306 -5.588382675898168 11.079523868920457 14.853896418790834 0 0 0
28 3 4 0.6956065656793107 -3.3844932355438244 12.012584745874925 12.302989847078745 0 0 0
72 3 1 -0.06599831694410968 -1.978163402734171 8.546623516996643 14.954460047265714 0 0 0
82 3 1 -0.09003965565051136 -2.2083718678260014 13.591645671940679 11.894123844571078 0 0 0
92 3 1 -0.09505005813648451 -6.3705380464017125 12.864748258898135 14.176524895500085 0 0 0
98 3 2 0.01684413976978781 -2.823386932454962 10.474521366400177 17.74745125791161 0 0 0
99 3 2 0.02590910547033015 -3.6542896441137134 13.02278383278341 17.745696509998204 0 0 0
100 3 2 0.09239425317487542 -4.464008501401664 10.36007670457159 13.808198656985185 0 0 0
101 3 2 -0.01423927588786696 -4.093440141545915 12.731833147485139 13.718601359954127 0 0 0
114 3 2 0.08473432296451307 -2.449325126000632 11.570819517037929 9.911777604728902 0 0 0
137 3 2 0.09550676289199644 -0.9749328763372881 8.312810468260727 15.314191659874984 0 0 0
138 3 2 0.108688040972928 -2.4745023951035288 7.719182451484961 14.435681994591526 0 0 0
139 3 2 0.04656792898011186 -2.6199410991283196 9.091761687540508 15.65621235229284 0 0 0
190 3 2 0.02439718230805583 -6.366558656728424 13.522104604070577 15.023458644411672 0 0 0
191 3 2 0.07594423631874643 -5.8579055645567575 13.185811399288438 13.302194534178145 0 0 0
208 3 3 -0.8609201295493274 -2.662958277353522 7.756950751154216 11.00118692513649 0 0 0
212 3 3 -0.8554535758818751 -5.845376092339788 13.359966459102237 9.65562640006159 0 0 0
216 3 3 -0.6465738086553734 -4.8969043720871825 11.198212754562123 16.2958276870329 0 0 0
217 3 3 -0.7090149703673816 -4.475077760582714 11.700858973761557 11.175234241307734 0 0 0
218 3 3 -0.7003365052931486 -2.7560944595275543 10.616198028680705 12.802047269054036 0 0 0
254 3 3 -0.7226467437882391 -2.231976368279602 12.053087329572465 15.602224314619363 0 0 0
175 3 2 0.01206282218497529 2.7644430419497574 13.656974604690223 13.366758771566703 0 -1 0
356 27 2 0.09500411965138848 -1.9681574192605609 13.54419452725743 10.847227540000139 0 -1 0
21 3 4 1.554916813435339 -1.1967246223451615 7.469114343726095 11.612935797837771 0 0 0
47 3 4 1.048107082415347 0.9332490279699492 10.613499706211698 18.060638266563462 0 0 0
303 5 3 -0.7822377216861368 9.042570028830347 7.866855423369048 18.321194148840956 0 0 -1
51 3 4 1.211398108536331 2.8462280706827165 8.59754927403303 15.124229404609421 0 0 0
52 3 4 0.9942702892127177 -0.620234614536525 11.779498919789377 15.533452197622918 0 0 0
63 3 4 0.6318311098879432 4.461122143332737 10.800168989101367 9.991742384612309 0 0 0
65 3 4 1.131082780901601 3.9197760677520574 10.394612331991087 17.29708628870024 0 0 0
81 3 1 -0.1136399727177128 0.32575590945896626 10.918535199514162 10.368494550031171 0 0 0
84 3 1 -0.1522152399209113 0.49816133904740595 13.588328017741587 15.538781312323609 0 0 0
93 3 1 -0.1102948203882615 4.2774940930613035 12.715550323111055 9.165014407048877 0 0 0
94 3 1 -0.1173249073960849 3.406166953212309 10.574212149977223 11.76546043326328 0 0 0
95 3 1 -0.1479438324101641 3.8916653882872465 12.14594731782762 16.114272345625633 0 0 0
115 3 2 0.02197421828120238 2.1574525923388417 10.092914516978036 14.589420111101546 0 0 0
116 3 2 0.07972201601049284 5.057011827901448 8.100926344026801 9.818225533838742 0 0 0
118 3 2 0.0177111540090389 5.4082471983661105 6.98059800114465 16.682659058983564 0 0 0
154 3 2 0.1274321206623095 2.641708664933536 7.925061717609138 17.962774283702807 0 0 -1
162 3 2 0.03881197068809535 2.638719334289016 7.846382352321095 9.908260386481606 0 0 0
163 3 2 0.0224878049264257 1.289286743864566 10.989344364694686 9.880756582647226 0 0 0
164 3 2 0.1182725043674722 0.20628219281058385 9.895611964839999 10.810221580566548 0 0 0
165 3 2 0.03320391591112222 0.2308877681683037 11.626687999934719 11.147087954339511 0 0 0
169 3 2 0.01910850265285596 1.4676169331851703 13.270544538782394 15.276911675285593 0 0 0
173 3 2 0.02685625597198935 3.109664713622588 13.473848162998245 11.571777353263007 0 -1 0
194 3 2 0.04158370370889375 4.095110594592564 13.303068849299494 10.031439770805374 0 0 0
195 3 2 0.05389324020339931 2.7528568172864953 9.786342183377009 11.43345562830701 0 0 0
196 3 2 0.01414348020244782 2.983056424592172 11.525589237340537 12.044557546225995 0 0 0
197 3 2 0.1012223504781334 4.198934178972155 10.17868634310586 12.395657303738727 0 0 0
198 3 2 0.02431342223989516 3.4965092508003415 11.822022534853508 15.177248386366976 0 0 0
199 3 2 0.02258461361995997 4.9220244250806156 12.500271515168402 16.139884329623193 0 0 0
200 3 2 0.01280618344636976 3.314223511282144 12.892796644865353 16.61022357518108 0 0 0
215 3 3 -0.8029052688200031 -0.6254714797222346 8.85641588659233 12.301029494768969 0 0 0
250 3 3 -0.8304934581825264 1.593667489692859 7.947048343042596 15.815396970988688 0 0 0
251 3 3 -0.8404044288298784 3.3527955538218364 7.889044781158003 13.781245920836739 0 0 0
252 3 3 -0.7278751143786076 -0.4351541112191034 11.02914351967031 14.07697275249993 0 0 0