ITEM: TIMESTEP
0
ITEM: NUMBER OF ATOMS
386
ITEM: BOX BOUNDS xy xz yz pp pp pp
-1.0522200000000000e+01 1.6607800000000001e+01 -9.4504999999999999e+00
0.0000000000000000e+00 1.3453600000000000e+01 -1.0717000000000001e+00
0.0000000000000000e+00 1.7350200000000001e+01 3.3999999999999998e-03
ITEM: ATOMS id type q x y z
8 4 1.05104 0.754202 1.14229 0.764666
12 4 1.53063 -0.0818407 4.18137 1.6339
107 2 0.0405419 -2.36935 3.09487 7.76222
15 4 1.0294 -1.16741 4.15984 7.23007
25 4 1.28958 5.03783 1.45635 3.71271
29 4 1.31455 6.20214 1.07248 6.29536
34 4 1.31268 1.07068 6.44611 3.6251
171 2 0.20708 -1.28514 6.52521 3.02632
36 4 1.18114 4.66432 3.68874 7.12072
38 4 0.997498 2.45237 5.40257 6.24071
70 1 -0.669738 0.060484 3.02138 6.17157
85 1 -0.687249 3.31042 3.67651 1.91932
104 2 0.00718882 -0.83384 2.2713 4.54776
340 2 0.163728 3.4433 0.344011 5.71756
33 4 1.34647 5.23541 3.90641 1.97764
111 2 0.019579 3.53936 1.88615 4.65836
113 2 0.0473052 1.46733 4.22673 6.88974
132 2 0.168186 -0.0847567 3.72967 5.26214
133 2 0.139255 -0.871991 2.14843 6.25726
134 2 0.168423 0.978815 2.29158 6.04884
339 2 0.183749 2.62726 1.99449 6.14893
176 2 0.19712 3.2324 2.57135 1.46098
177 2 0.220373 2.66121 4.3876 1.30418
178 2 0.211273 3.0166 3.72318 2.93939
230 3 -0.80182 1.9274 0.531582 1.56007
233 3 -0.83319 -1.40644 3.84914 2.51502
234 3 -0.832879 0.371042 2.64014 1.19328
235 3 -0.854549 -0.426935 5.13985 0.386417
374 2 0.197064 1.50837 0.611964 5.44844
237 3 -0.770138 -1.76465 5.3628 6.37516
170 2 0.253202 -1.06623 6.32376 4.99113
244 3 -0.806748 4.50543 0.475984 2.65197
247 3 -0.82649 6.12703 0.808563 4.73605
252 3 -0.818226 5.6266 2.84581 3.14645
254 3 -0.795757 0.949858 5.07609 2.43256
256 3 -0.849516 5.05779 2.24766 6.61541
258 3 -0.840678 1.67938 5.89417 4.95928
259 3 -0.831357 3.86135 4.82658 6.09226
338 1 -0.669634 2.4784 0.926581 6.01643
122 2 0.0131601 2.29124 6.6501 7.39199
24 4 1.117 7.94855 0.288003 1.59784
257 3 -0.794885 -0.248927 4.8181 8.35234
360 2 0.220655 3.12122 6.28547 1.55652
7 4 1.34502 -2.06633 2.69815 3.43431
245 3 -0.769668 7.23246 1.31356 0.656037
255 3 -0.822349 3.85338 3.45266 8.51607
358 1 -0.68152 3.75124 6.2891 0.604294
10 4 0.993579 1.49947 0.82805 13.3578
11 4 1.28582 -0.511523 2.56543 11.8472
150 2 0.185643 -3.95656 6.63566 12.9809
17 4 1.0391 -1.23168 4.54931 14.0734
28 4 1.25007 3.65448 2.23122 9.57804
354 1 -0.651803 0.526604 0.884235 16.4619
31 4 1.35114 3.3746 2.6638 15.0172
37 4 1.04705 0.438666 6.32755 9.43002
356 2 0.140373 -0.455093 0.936082 15.807
71 1 -0.697125 -0.981836 3.24607 15.4396
72 1 -0.692987 -3.85936 5.05531 16.0103
144 2 0.16214 -4.37016 5.82995 10.7687
78 1 -0.695501 0.766526 3.1968 10.4846
79 1 -0.685171 2.09802 3.70637 16.0701
80 1 -0.666048 5.94993 0.661602 13.4035
162 2 0.152221 6.32774 0.53123 12.2721
106 2 0.00360567 2.49681 0.46097 12.0489
108 2 0.00305067 -2.86525 5.01836 14.2544
112 2 0.0180477 2.67126 2.73658 10.8546
135 2 0.191576 -0.190277 2.62824 14.8048
136 2 0.130827 -2.00093 2.78773 15.6388
137 2 0.214497 -0.461826 3.64445 16.3602
138 2 0.133506 -3.09228 4.20035 15.9902
231 3 -0.798361 -1.78775 1.71848 10.8019
369 2 -0.0354483 -2.37009 4.11421 9.73572
163 2 0.247259 5.98814 1.75335 13.7934
155 2 0.237418 0.282541 3.80305 9.54536
156 2 0.162048 1.19054 2.14908 10.2066
157 2 0.212196 1.45673 3.93657 10.9185
158 2 0.171004 2.21034 3.71192 17.2675
159 2 0.181525 0.986228 3.55322 15.7762
160 2 0.171953 2.45303 4.70725 15.5633
14 4 1.33515 -2.42658 6.19475 17.0337
359 2 0.176146 2.524 5.34714 17.1646
260 3 -0.825097 4.03232 3.53471 13.7977
182 2 0.159113 -1.33684 5.65123 10.7811
262 3 -0.791414 -0.0169857 5.66307 14.4002
161 2 0.199248 5.08008 0.109453 13.6971
232 3 -0.85563 0.347897 1.6055 12.7152
238 3 -0.827665 -1.17725 3.75221 12.6462
246 3 -0.826637 2.86581 1.01455 8.94955
249 3 -0.822757 2.49831 1.46913 14.3626
250 3 -0.826367 4.59053 2.09716 15.9102
251 3 -0.806155 5.14867 1.91757 10.2115
265 3 -0.80028 1.83772 6.29197 10.2385
355 2 0.192624 1.15375 1.9158 16.2875
266 3 -0.857111 3.77728 5.17899 11.8715
74 1 -0.687415 -5.24872 6.57327 10.5826
370 2 0.0258575 -5.02389 6.58979 16.4642
140 2 0.163813 -4.47859 5.03176 16.9822
139 2 0.194442 -4.43959 5.16317 14.995
1 4 1.28744 -6.36571 13.0289 2.26151
2 1 -0.671228 -5.78349 11.6851 0.985634
381 2 0.105499 -1.88601 10.2077 0.174378
4 2 0.174231 -5.63491 10.6923 1.53237
5 2 0.176713 -4.97088 11.8821 0.188842
6 3 -0.81143 -7.04029 12.3586 3.55571
345 2 0.0809652 -2.07238 11.5201 1.71172
19 4 1.01899 -2.84804 8.24226 1.73734
27 4 1.21037 -1.65813 12.1867 7.6075
73 1 -0.661916 -3.94907 8.9772 0.47465
75 1 -0.660234 -5.35771 8.76619 8.3968
16 4 1.24274 -3.03307 6.73652 6.55643
84 1 -0.670293 -2.05545 8.28909 6.30228
86 1 -0.634293 0.679289 7.62658 8.07566
88 1 -0.64599 -0.652493 10.3034 3.88369
109 2 0.00864406 -1.57644 9.24895 2.61932
347 2 0.206894 -2.75341 12.5041 3.21787
221 2 0.143407 -7.52924 10.5675 7.2937
346 2 0.197573 -3.96962 12.0782 1.74299
142 2 0.114304 -3.7864 10.1155 0.802559
143 2 0.225049 -4.96837 8.53489 0.739195
147 2 0.192116 -5.50799 8.35998 7.35338
343 2 0.161463 -6.31906 11.0692 6.33556
172 2 0.172863 -0.780904 8.04424 4.12636
173 2 0.178544 -2.49855 8.58058 5.27461
174 2 0.159305 -0.892001 7.99275 6.22079
175 2 0.256238 -2.29011 9.04501 7.11594
179 2 0.159964 0.184888 7.15963 7.08889
114 2 -0.0077842 0.862414 10.0903 2.63375
185 2 0.0731846 -0.53611 11.229 2.91327
186 2 0.182414 -1.49248 10.4511 4.60936
187 2 0.139467 0.358207 9.68321 4.31151
382 2 0.184103 -3.2137 12.3675 0.114628
239 3 -0.801234 -3.81533 7.74341 2.91054
240 3 -0.809009 -2.2415 7.06383 0.820991
3 2 0.168512 -6.84933 11.6265 0.460418
267 3 -0.856245 1.84722 7.72404 3.02298
270 3 -0.76777 -2.15732 10.6824 8.30693
148 2 0.187879 -5.0413 9.86621 8.43666
320 2 0.0115777 -8.05557 12.2421 8.2527
319 1 -0.661698 -5.49148 12.1371 7.84716
321 2 0.182143 -5.16712 12.3224 6.72767
322 2 0.161742 -5.68745 11.0099 8.00524
13 4 1.35511 -4.79688 6.84525 3.88471
180 2 0.159039 1.6199 8.45188 7.67563
342 2 0.174986 -5.91224 10.3042 4.64522
318 4 0.871877 -6.88861 13.4211 7.82651
344 1 -0.629717 -2.8629 12.4201 2.08372
20 4 1.3298 -8.09873 11.4097 4.30115
341 1 -0.669516 -6.7542 10.5191 5.4098
236 3 -0.795432 -4.27072 6.80752 5.47826
349 2 0.158634 -0.478105 11.8141 0.0808876
272 3 -0.793066 -0.605446 12.0141 6.12477
241 3 -0.830399 -3.54089 6.78091 8.14744
248 3 -0.786635 -3.05598 13.1911 7.1226
83 1 -0.686538 -0.722833 6.92468 4.04206
323 2 0.261684 -4.70656 12.4966 8.59156
181 2 0.176678 -0.103354 8.38288 8.58286
21 4 1.08536 -4.13312 7.60648 9.32911
22 4 1.33367 -4.84773 8.88184 13.6437
23 4 1.02244 -5.29774 10.7701 11.0605
40 4 1.40728 -0.192324 7.15865 15.0021
43 4 1.45913 -2.41474 10.3585 9.98663
46 4 1.16701 -3.27508 10.9935 15.4217
76 1 -0.690685 -3.52199 7.5495 13.3882
77 1 -0.678599 -5.84135 12.2157 12.1574
89 1 -0.665854 -2.21593 10.0017 16.6344
90 1 -0.633514 -4.48962 12.3296 16.2588
110 2 0.0041875 -6.52968 10.6377 9.79814
184 2 0.230509 -0.367481 7.07314 11.7354
141 2 0.187144 -4.59587 8.73672 16.8065
149 2 0.204931 -2.90862 8.08466 12.5603
332 2 0.121991 -9.2916 12.4442 12.0475
151 2 0.236886 -2.88993 7.37299 14.3236
264 3 -0.853938 -1.9339 7.12408 15.8898
153 2 0.164859 -5.97131 11.9649 13.2544
154 2 0.0982723 -6.85088 12.3713 11.5642
152 2 0.190886 -5.0493 13.0207 12.011
183 2 0.251217 -1.69725 7.48018 10.4625
188 2 0.145687 -1.06604 10.4564 16.7211
189 2 0.252926 -2.19735 8.8718 16.2474
190 2 0.150994 -5.39413 11.5853 15.9734
191 2 0.252523 -4.48431 13.3413 15.7394
242 3 -0.830419 -5.95232 7.98776 14.3556
243 3 -0.789888 -5.33638 9.48057 12.1142
263 3 -0.846675 0.96572 7.36034 16.0719
371 2 -0.0114386 -8.51172 12.7483 13.8988
269 3 -0.770861 -2.94962 8.72654 10.1071
271 3 -0.800781 -3.88776 11.0468 10.3593
273 3 -0.823662 -0.0807563 8.27092 13.7365
274 3 -0.829465 -4.21487 10.0245 14.5352
275 3 -0.810746 -2.262 12.0016 14.7775
276 3 -0.870307 -1.09538 10.757 10.7572
146 2 0.199975 -5.49136 7.16836 11.4718
386 2 0.16395 -9.53233 12.6642 15.5051
378 2 0.125197 -6.20734 8.53802 9.12755
87 1 -0.671501 -0.89721 6.74038 10.7484
357 2 0.171162 -8.31398 13.3791 16.2789
168 2 0.150349 7.21965 3.39179 8.29499
105 2 -0.0401548 16.0015 0.219333 1.12832
48 4 1.32253 9.59131 2.38287 3.68299
50 4 1.49449 13.4759 0.45071 7.21256
51 4 1.53118 12.1563 2.48426 5.30588
55 4 1.32768 10.7632 4.56785 2.08993
196 2 0.161694 8.48498 5.84556 5.30738
58 4 0.838912 10.6357 4.54973 7.44766
91 1 -0.662678 7.84424 2.24904 6.74542
92 1 -0.672128 7.82217 5.50922 4.37328
94 1 -0.646345 9.79339 6.35735 6.77424
118 2 0.010902 8.53659 2.92069 5.01419
325 3 -0.882017 14.1662 1.27579 2.76058
123 2 -0.00403305 10.02 5.61819 0.92625
124 2 0.025924 8.8735 4.73899 6.80212
125 2 -0.0172482 6.08446 4.61777 7.48282
279 3 -0.74482 13.476 1.77847 8.55076
368 2 0.174661 8.50958 6.29118 1.67593
366 1 -0.667684 8.12795 6.14789 0.63553
192 2 0.127996 7.49626 3.16722 6.1327
193 2 0.157149 8.43599 1.44814 6.12724
194 2 0.147956 8.66488 2.67318 7.57495
195 2 0.177603 7.42752 4.49358 4.57102
361 2 0.19115 4.82567 6.55318 0.832676
326 3 -0.870224 12.3326 1.15886 0.757906
126 2 -0.0136604 6.54241 6.00452 8.50197
203 2 0.16077 10.8736 6.45335 7.29125
49 4 1.30251 11.992 2.54809 0.13339
253 3 -0.853179 5.90195 3.74624 0.524202
278 3 -0.793085 8.87155 1.02509 3.03607
280 3 -0.825378 13.5106 3.14325 4.46342
281 3 -0.858065 10.9172 2.07187 4.40931
282 3 -0.847844 12.632 1.19207 6.13399
288 3 -0.86237 9.68147 3.72558 2.79777
289 3 -0.848201 11.7085 3.64338 1.239
290 3 -0.805114 11.5799 5.49143 3.16678
291 3 -0.766094 5.64481 5.36439 2.67885
293 3 -0.762077 11.4515 3.72735 6.40395
324 4 1.28685 13.275 0.37271 1.83521
197 2 0.198222 8.41711 5.38831 3.40841
56 4 1.1022 6.26477 6.55433 3.64763
199 2 0.246604 3.90439 6.66773 4.50371
383 2 0.206018 8.50472 5.25604 0.0429061
352 2 0.181161 8.66743 0.869598 8.6161
367 2 0.200428 6.99248 6.30068 0.526156
198 2 0.142083 5.41955 6.68161 5.82591
9 4 1.19502 13.7105 2.5802 10.1301
26 4 1.52422 5.6589 2.66391 16.9899
32 4 1.13409 6.33707 2.86977 10.7136
39 4 1.31348 4.78035 4.49523 12.792
206 2 0.186878 10.2209 2.30394 8.8185
52 4 1.23476 12.6359 0.78871 14.2688
53 4 1.5218 8.37281 2.647 15.5033
54 4 1.23086 11.3662 2.82365 12.1944
60 4 1.4343 9.43672 4.65887 13.5876
317 3 -0.750481 14.1062 0.0815857 13.8956
81 1 -0.660359 8.0107 1.87964 10.9846
82 1 -0.693188 6.89811 4.18736 9.18886
301 3 -0.765975 8.54295 5.79398 12.5087
96 1 -0.705067 4.80258 5.76537 15.745
119 2 -0.0227132 12.2083 3.21099 16.5359
120 2 -0.0570465 12.9708 1.77518 15.5514
121 2 0.00431078 9.82602 2.24008 11.6017
127 2 0.0021113 5.48748 5.59177 13.8686
385 2 0.281624 15.1771 0.0828172 11.3045
145 2 0.132272 10.4477 6.01295 10.1598
164 2 0.154276 8.84551 2.3869 10.2369
165 2 0.146738 8.01031 0.685454 10.9483
166 2 0.204915 8.10494 2.25328 12.0881
169 2 0.162611 7.69446 4.83736 9.5736
95 1 -0.685515 9.9992 3.41478 8.89553
205 2 0.161818 10.6933 4.00185 9.64882
204 2 0.139378 8.81314 3.63316 9.04063
207 2 0.228393 4.49516 5.46734 16.7699
208 2 0.188 5.8277 5.31403 15.4889
209 2 0.13431 4.02445 5.56385 14.8905
261 3 -0.79765 5.96049 3.68729 12.0829
365 2 0.188001 9.8712 0.515728 12.6965
283 3 -0.820145 8.11092 1.1133 15.0638
284 3 -0.849741 9.69087 2.56936 16.457
285 3 -0.848815 7.06585 3.24228 16.354
286 3 -0.823154 12.2952 2.86174 10.895
287 3 -0.846993 11.9482 1.72254 13.2439
379 2 0.254996 8.22975 0.183486 16.9538
295 3 -0.849673 8.53269 3.46069 13.9717
296 3 -0.817539 10.9898 4.24232 12.9011
297 3 -0.83035 9.78332 5.57672 14.9525
41 4 1.24589 3.34251 6.46096 10.8874
167 2 0.166138 5.81947 4.61935 9.21477
377 2 0.137626 9.20796 9.64596 5.64375
42 4 1.27264 2.26332 9.10636 2.36126
44 4 1.04561 0.305744 11.8701 4.88808
63 4 1.30824 7.41124 9.25538 2.12368
64 4 1.42257 3.29973 11.4801 3.7848
65 4 1.0004 6.66732 9.73833 8.00197
350 2 0.188032 0.81326 12.878 1.04924
67 4 1.47444 5.68682 11.9781 5.9124
69 1 -0.674252 10.1174 7.72919 3.80667
93 1 -0.648357 4.92027 7.10253 4.78539
99 1 -0.652004 5.81924 9.78835 1.29012
384 2 0.209789 2.09511 12.4061 0.434549
101 1 -0.652105 2.84506 9.87815 6.9583
129 2 0.00281296 8.03323 9.0511 7.15595
202 2 0.178893 9.91673 6.9179 5.61298
66 4 1.12539 2.79403 11.1947 8.47506
201 2 0.118783 8.98971 6.89765 7.36817
200 2 0.210366 4.90736 8.24764 4.78885
216 2 0.264949 5.01719 9.81605 2.0938
131 2 0.17419 10.0094 8.67219 4.48738
218 2 0.135059 6.18262 10.8693 0.981924
376 2 0.183032 10.075 8.01934 2.68737
222 2 0.184281 1.77882 9.68854 6.56173
223 2 0.162076 3.33015 8.9882 7.40344
268 3 -0.82514 2.57846 9.04506 0.837026
302 3 -0.783497 6.92013 7.91441 2.85181
303 3 -0.776145 8.41927 8.8552 0.835025
304 3 -0.813886 7.96453 10.4193 3.2339
305 3 -0.812122 3.42963 9.84444 3.15382
306 3 -0.863021 3.14585 12.5531 2.55602
307 3 -0.796594 1.86213 11.5145 4.82519
309 3 -0.790878 3.11712 12.5742 7.68606
311 3 -0.781349 7.26509 12.1555 5.19169
312 3 -0.838262 4.6185 11.6592 4.74967
313 3 -0.820334 5.88624 10.6468 6.89549
373 2 -0.0417341 4.86878 13.0989 0.787957
348 1 -0.679252 -0.177825 12.884 0.49566
224 2 0.26682 3.4485 10.3765 6.18978
372 2 0.0836738 -0.0122867 13.165 3.89979
217 2 0.249655 5.45446 9.1675 0.271024
314 3 -0.852844 5.48463 13.4194 6.8266
380 2 0.213628 0.505717 12.9525 8.21649
100 1 -0.62727 8.69418 10.3234 8.46782
375 2 0.164408 9.24401 6.90531 4.02179
18 4 1.26023 10.1875 7.00845 15.5687
35 4 1.23162 2.06334 7.84846 17.1082
353 2 0.164726 -0.69558 12.9214 9.79174
45 4 1.24396 1.11569 9.20093 13.2534
57 4 1.25466 7.62784 7.74363 16.9781
130 2 0.166397 2.26212 10.9166 17.0425
61 4 1.08709 4.82 7.64048 15.4386
68 4 1.06904 1.4213 11.7536 15.1581
97 1 -0.688198 4.53535 7.77632 13.4586
98 1 -0.665238 8.0496 8.67569 12.7798
102 1 -0.656223 1.04883 11.5017 17.0365
103 1 -0.679701 4.17819 10.957 9.68215
115 2 -0.00384975 3.22764 7.7606 11.9954
116 2 0.00829727 2.60149 8.33122 13.5362
117 2 0.00249934 0.929839 12.1364 11.5924
30 4 1.13569 -1.84175 13.3902 14.0339
210 2 0.120232 3.66091 7.01115 13.4516
211 2 0.178135 5.40925 7.38722 12.8833
212 2 0.159551 4.28767 8.88914 13.1642
59 4 1.25667 5.98117 7.18233 9.57512
214 2 0.229157 7.87639 8.09904 13.7564
215 2 0.159936 7.15176 9.32251 12.543
128 2 -0.0208207 9.55557 7.40556 10.6058
220 2 0.0632438 7.58865 10.9829 9.22586
47 4 1.25637 0.497213 10.6899 10.7851
226 2 0.0708835 -0.149965 12.2842 15.7473
227 2 0.176139 4.90167 11.753 9.2333
62 4 1.05627 8.20531 7.13105 11.6707
229 2 0.178485 4.02666 11.0584 10.8691
292 3 -0.855339 9.18725 7.59091 16.6648
298 3 -0.762556 6.47645 8.04609 15.6718
299 3 -0.808362 3.71444 8.3786 16.2266
228 2 0.179626 4.41959 9.8744 9.37072
310 3 -0.77841 1.32038 10.9151 9.36864
315 3 -0.858696 1.30457 10.4606 14.2021
316 3 -0.835877 2.29745 13.0013 14.7698
327 4 0.888751 5.3693 12.1414 13.389
328 1 -0.644094 6.20068 12.4206 11.6894
329 1 -0.655864 3.81517 10.8273 12.839
330 1 -0.636983 6.67135 11.7416 14.8662
331 2 0.150043 5.99347 11.582 10.9438
219 2 0.129575 8.92393 9.2675 8.84288
333 2 0.141695 4.12982 10.1039 12.0341
334 2 0.199394 2.81386 11.3018 12.6046
335 2 0.156129 3.99318 10.3965 13.9068
308 3 -0.885977 6.14503 8.47725 8.74765
337 2 0.167802 5.99386 11.018 15.4246
362 1 -0.677421 -0.347603 13.1283 12.7323
300 3 -0.865122 6.94053 7.08507 10.7926
213 2 0.195984 9.15237 9.13199 12.7152
363 2 0.137514 -0.921559 13.0551 11.6606
277 3 -0.839636 1.09449 9.52037 11.607
364 2 0.173442 0.0781193 12.1209 13.0291
336 2 0.146872 7.51458 11.0808 14.3042
294 3 -0.853249 4.47815 6.74917 9.91359
225 2 0.173669 0.184198 10.7686 17.207
351 1 -0.669054 -0.591782 13.2345 8.69114
ITEM: TIMESTEP
100
ITEM: NUMBER OF ATOMS
386
ITEM: BOX BOUNDS xy xz yz pp pp pp
-1.0522200000000000e+01 1.6607800000000001e+01 -9.4504999999999999e+00
0.0000000000000000e+00 1.3453600000000000e+01 -1.0717000000000001e+00
0.0000000000000000e+00 1.7344416600000002e+01 3.3999999999999998e-03
ITEM: ATOMS id type q x y z
8 4 1.03397 0.723519 1.02081 0.650438
12 4 1.42626 -0.140477 4.10596 1.58157
107 2 0.0886339 -2.15678 2.98655 7.62717
15 4 1.03759 -1.06129 4.31041 7.19577
25 4 1.30494 5.20303 1.48946 3.76039
29 4 1.31407 6.42084 1.15163 6.3864
34 4 1.31165 1.11281 6.10348 3.51492
171 2 0.244598 -1.38448 6.18827 2.91174
36 4 1.15819 4.66574 3.64888 7.12176
38 4 1.02555 2.39711 5.19272 6.2343
70 1 -0.673069 -0.0854559 2.92006 6.24309
85 1 -0.671376 3.34154 3.6498 1.88711
104 2 0.00584042 -0.670087 2.33857 4.45064
340 2 0.162134 3.49349 0.291104 5.68752
33 4 1.36515 5.25354 3.94223 1.98551
111 2 0.0419835 3.72043 1.88092 4.67112
113 2 0.0362352 1.3928 3.97197 6.9514
132 2 0.152409 -0.108219 3.74004 5.2515
133 2 0.154824 -1.10296 2.20433 6.36721
134 2 0.165614 0.887702 2.19627 6.15881
339 2 0.181139 2.68273 2.07153 6.08751
176 2 0.199844 3.30555 2.56066 1.43443
177 2 0.211819 2.86736 4.39513 1.26626
178 2 0.228255 2.91873 3.62057 2.88341
230 3 -0.814762 1.90942 0.37837 1.48533
233 3 -0.816027 -1.54505 3.91916 2.39549
234 3 -0.799118 0.339168 2.60262 0.912769
235 3 -0.840467 -0.194742 5.27218 0.289998
374 2 0.21014 1.57254 0.653216 5.48841
237 3 -0.786734 -1.71027 5.32517 6.20917
170 2 0.271753 -1.1156 6.08561 4.79698
244 3 -0.833878 4.44859 0.600176 2.74172
247 3 -0.816095 6.34752 0.831607 4.80081
252 3 -0.849078 5.66238 2.76737 3.03216
254 3 -0.819189 0.957247 4.71048 2.68495
256 3 -0.850913 5.16896 2.14181 6.58783
258 3 -0.840374 1.77902 5.71156 4.96794
259 3 -0.837781 3.78348 4.5823 6.07341
338 1 -0.662655 2.49191 0.97733 5.96783
122 2 0.0190765 2.2371 6.48565 7.36515
24 4 1.09576 7.9474 0.296367 1.65177
257 3 -0.81601 -0.207866 4.82455 8.4734
360 2 0.22069 2.54008 6.37096 1.29732
7 4 1.30804 -2.00664 2.67801 3.43383
83 1 -0.655598 -0.721607 6.5247 3.81573
255 3 -0.836604 3.78099 3.49799 8.5063
358 1 -0.677686 3.42665 6.37699 0.50265
241 3 -0.808252 -3.50674 6.67218 8.16763
236 3 -0.770616 -4.17648 6.72235 5.40999
140 2 0.200013 -3.16563 4.82779 0.0631685
10 4 1.00766 1.54244 0.768642 13.2639
11 4 1.2997 -0.592377 2.40271 11.8135
150 2 0.165226 -3.94131 6.6647 12.9842
17 4 1.03386 -1.18752 4.544 14.1462
28 4 1.16869 3.72512 2.34092 9.60242
354 1 -0.648248 0.37826 0.971077 16.3193
31 4 1.32071 3.34088 2.66477 14.9523
37 4 1.05806 0.505461 6.35049 9.34278
356 2 0.144888 -0.622163 0.946397 15.7124
71 1 -0.712623 -1.31199 3.14859 15.4572
72 1 -0.694226 -3.68518 5.0101 16.3703
144 2 0.169179 -4.25698 5.67616 10.6357
78 1 -0.68043 0.866203 3.15412 10.6967
79 1 -0.669434 2.05747 3.71347 16.0558
80 1 -0.664772 5.80656 0.638319 13.2491
162 2 0.175122 6.11449 0.206288 12.1697
106 2 -0.00642891 2.60101 0.311532 12.0362
108 2 0.00790587 -2.70214 5.20239 14.6546
112 2 0.0502518 2.82784 3.2479 10.7548
135 2 0.203951 -0.864396 2.32355 14.7493
136 2 0.150872 -2.16232 2.75717 16.0339
137 2 0.215857 -0.581739 3.64614 16.1638
138 2 0.1516 -2.8009 4.16952 16.1272
231 3 -0.813957 -1.74293 1.76482 10.9038
369 2 -0.0126908 -2.27514 4.0917 9.92504
163 2 0.239778 5.65684 1.6898 13.3287
155 2 0.242906 0.407972 3.81192 9.88089
156 2 0.166302 1.44845 2.16912 10.241
157 2 0.206564 1.40931 3.71808 11.4851
158 2 0.177339 2.20669 3.63118 17.2032
159 2 0.202168 0.945558 3.81713 15.8478
160 2 0.175986 2.58683 4.69534 15.6751
14 4 1.31782 -2.32511 6.28923 17.1075
139 2 0.174827 -4.46071 5.23156 15.5403
260 3 -0.871507 3.79289 3.54964 13.7762
182 2 0.208184 -0.938278 5.7213 11.2207
262 3 -0.774805 0.124923 5.59359 14.4998
161 2 0.184546 4.92354 0.0266087 13.7233
232 3 -0.833943 0.278836 1.44628 12.6799
238 3 -0.783018 -1.14091 3.87557 12.7218
246 3 -0.769218 2.75261 1.04162 8.94426
249 3 -0.817092 2.29442 1.54688 14.3229
250 3 -0.807474 4.67249 2.00045 15.8536
251 3 -0.783273 5.14444 1.7633 10.3505
265 3 -0.789932 1.89496 6.35158 10.0847
355 2 0.216606 1.03011 2.00139 16.1998
266 3 -0.867439 3.74193 5.25435 11.7405
74 1 -0.659681 -5.08299 6.53574 10.6094
370 2 0.00318095 -5.07517 6.48636 16.6559
87 1 -0.675292 -0.710733 6.72071 10.8633
359 2 0.185386 2.29629 5.45521 17.181
357 2 0.16823 1.07877 0.0813918 16.1204
1 4 1.2944 -6.35613 13.1536 2.34782
2 1 -0.664986 -5.70089 11.617 1.36811
381 2 0.108174 -1.42309 10.3585 0.260613
4 2 0.161985 -5.35397 10.8797 2.17938
5 2 0.177225 -4.86911 11.7925 0.551686
6 3 -0.798794 -7.08991 12.5564 3.73446
345 2 0.128605 -2.10645 11.3048 1.84317
19 4 1.05325 -2.87884 8.24327 1.70297
27 4 1.24334 -1.51436 12.1167 7.51531
73 1 -0.687184 -3.98278 9.29196 0.642743
75 1 -0.664164 -5.15839 8.8255 8.21212
16 4 1.20806 -2.99833 6.74756 6.57148
84 1 -0.688116 -2.13882 8.35772 6.29699
86 1 -0.643575 0.728898 7.65046 8.00824
88 1 -0.651844 -0.65366 10.0446 3.80779
109 2 0.0327277 -1.52819 9.33933 2.3562
347 2 0.177211 -2.46973 12.4386 3.30001
221 2 0.153128 -7.6089 10.5839 7.46848
346 2 0.196245 -3.82786 12.1103 1.89485
142 2 0.124282 -3.47227 10.3082 0.968518
143 2 0.204033 -5.04873 9.20796 0.945971
147 2 0.193938 -5.23061 8.33034 7.19842
343 2 0.162949 -6.45807 11.1329 6.26426
172 2 0.173897 -0.682388 7.71881 3.93892
173 2 0.190334 -2.62203 8.75159 5.35587
174 2 0.164218 -1.09102 7.97025 6.149
175 2 0.274703 -2.19187 9.15716 7.20849
179 2 0.144168 0.34347 6.92372 7.15839
114 2 -0.0088712 0.662797 10.0456 2.34632
185 2 0.0763484 -0.591077 11.1761 3.3321
186 2 0.194037 -1.21036 10.0846 4.72568
187 2 0.15762 0.34983 9.57155 4.01519
382 2 0.171817 -3.11185 12.1449 0.15913
239 3 -0.77182 -3.83678 7.78535 2.95231
240 3 -0.852004 -2.06824 7.23427 0.887263
3 2 0.192114 -6.74259 11.2894 0.885392
267 3 -0.822177 1.55166 7.64537 2.84024
270 3 -0.794981 -2.13437 10.5813 8.21543
148 2 0.16951 -4.77449 9.97518 8.10446
320 2 0.0262814 -8.21478 12.329 8.13011
319 1 -0.669926 -5.54905 12.1123 7.85105
321 2 0.172266 -5.07497 12.4127 6.77972
322 2 0.15951 -5.70035 10.9472 7.91856
13 4 1.33542 -4.91103 6.82048 3.86661
180 2 0.169972 1.71133 8.41177 7.6599
342 2 0.153926 -6.02001 10.3162 4.65479
318 4 0.852338 -6.84599 13.433 7.73458
344 1 -0.681003 -2.64329 12.2173 2.10402
20 4 1.34868 -8.12435 11.4193 4.24608
341 1 -0.660437 -6.91161 10.4898 5.40139
181 2 0.175394 -0.0560122 8.37182 8.58035
349 2 0.16207 -0.41829 11.8477 0.190489
272 3 -0.807129 -0.592535 11.9008 6.15342
248 3 -0.783161 -2.81644 13.2406 7.19422
21 4 1.05984 -4.03372 7.72362 9.32969
22 4 1.24541 -4.87908 8.73658 13.6842
23 4 0.982937 -5.31147 10.6123 11.0321
40 4 1.40062 -0.172001 7.14827 15.0129
43 4 1.45512 -2.45575 10.3617 9.84653
46 4 1.11577 -3.29584 11.0378 15.5699
76 1 -0.688046 -3.42017 7.58732 13.3221
77 1 -0.675948 -6.14119 11.9286 12.0015
89 1 -0.676976 -1.98793 10.0651 16.6259
90 1 -0.65716 -4.57672 12.2375 16.4112
110 2 0.0119746 -6.58352 10.6003 9.76353
184 2 0.245233 -0.000620859 7.27459 11.5834
141 2 0.18018 -4.86838 8.96903 16.9437
149 2 0.221918 -2.76215 8.0927 12.5168
332 2 0.149528 -9.10803 12.4101 11.9883
151 2 0.249654 -2.81353 7.45546 14.3408
264 3 -0.847881 -1.93836 7.22044 15.8414
153 2 0.163362 -6.14142 11.6612 13.1295
154 2 0.120026 -7.18325 12.0271 11.548
152 2 0.180464 -5.4115 12.8614 11.6921
183 2 0.243763 -1.58579 7.37957 10.5839
188 2 0.16963 -0.902576 10.3611 16.602
189 2 0.266263 -2.06995 8.91664 16.3653
190 2 0.155695 -5.45598 11.4829 16.1385
191 2 0.258126 -4.69451 13.3088 16.058
242 3 -0.807331 -6.0224 8.01127 14.5885
243 3 -0.779598 -5.40166 9.30696 12.1825
263 3 -0.850175 1.03051 7.62243 15.9697
371 2 -0.00620258 -8.22571 12.7168 13.9081
269 3 -0.80218 -2.82418 8.70676 10.0227
271 3 -0.780438 -3.83486 11.1427 10.5317
273 3 -0.820053 -0.0650993 8.11241 13.6978
274 3 -0.759219 -4.07907 10.0203 14.6445
275 3 -0.773812 -2.32243 12.1658 14.6948
276 3 -0.853073 -1.09519 10.7674 10.5484
146 2 0.191706 -5.23421 7.01917 11.6441
386 2 0.145134 -9.48887 12.705 15.3727
378 2 0.109815 -6.11728 8.65948 8.89724
323 2 0.235211 -4.88654 12.5645 8.70182
168 2 0.137575 7.21564 3.50681 8.33487
367 2 0.208101 6.77999 6.49043 0.914166
48 4 1.28416 9.57178 2.4221 3.76242
50 4 1.51415 13.5047 0.470135 7.2392
51 4 1.52559 12.3067 2.52741 5.31112
55 4 1.31811 10.6984 4.43551 1.95839
196 2 0.157863 8.3541 5.80826 5.58241
58 4 0.821584 10.6073 4.46073 7.52773
91 1 -0.700067 7.94983 2.38498 6.79885
92 1 -0.695374 7.69754 5.42139 4.6559
94 1 -0.667374 9.68289 6.38474 6.99533
118 2 -0.00482305 8.4477 3.01855 5.03543
325 3 -0.86479 14.2826 1.34099 2.64815
123 2 0.0278756 9.70881 5.36931 0.84535
124 2 0.0344035 8.8681 4.78039 6.84288
125 2 -0.0238496 6.03224 4.6729 7.47197
279 3 -0.777632 13.6914 1.85976 8.45525
368 2 0.150833 8.43645 6.09623 1.81254
366 1 -0.662335 7.92555 6.21984 0.767148
192 2 0.122883 7.70813 3.34478 6.16162
193 2 0.139689 8.67954 1.72037 6.17173
194 2 0.162884 8.44245 2.62932 7.74773
195 2 0.149521 7.01295 4.5456 4.95316
361 2 0.203278 4.45403 6.43744 1.07814
326 3 -0.870086 12.4214 1.14167 0.71396
126 2 -0.0107024 6.56121 5.97966 8.53033
203 2 0.147731 10.8328 6.41217 7.44433
49 4 1.31532 11.9512 2.5521 0.0711645
253 3 -0.838877 5.78747 3.74836 0.478564
278 3 -0.769578 8.95945 1.06356 3.06149
280 3 -0.840013 13.5697 3.14114 4.54624
281 3 -0.829045 10.962 2.08745 4.33289
282 3 -0.847997 12.7494 1.21585 6.05925
288 3 -0.852169 9.59277 3.50857 2.56896
289 3 -0.865352 11.8036 3.77141 1.05731
290 3 -0.825766 11.2988 5.58785 3.0073
291 3 -0.78798 5.44954 5.40715 2.58434
293 3 -0.756368 11.5908 3.64806 6.50782
324 4 1.27346 13.2502 0.333628 1.85407
197 2 0.171825 8.31604 5.21038 3.73804
56 4 1.05645 6.32009 6.51953 3.695
383 2 0.245088 8.06109 5.28964 0.0996538
199 2 0.225868 4.14844 6.64524 4.93037
245 3 -0.771021 7.30129 1.3742 0.620423
202 2 0.18183 9.82072 6.71149 5.90557
105 2 -0.0441207 16.0125 0.00135906 0.934547
352 2 0.197028 8.17635 0.856603 8.62118
9 4 1.22718 13.6794 2.5201 10.0986
26 4 1.49439 5.65265 2.68226 16.9946
32 4 1.14254 6.3441 2.80976 10.9019
39 4 1.2612 4.63191 4.45767 12.8384
206 2 0.184337 10.2197 2.48233 9.11145
52 4 1.25222 12.6679 0.810212 14.2839
53 4 1.53131 8.33046 2.75458 15.552
54 4 1.28289 11.317 2.58209 12.19
60 4 1.47218 9.44895 4.74804 13.5835
317 3 -0.750759 14.0977 0.175384 13.7449
81 1 -0.679599 8.00719 1.9089 11.0682
82 1 -0.680515 6.70381 4.15683 9.24546
301 3 -0.816511 8.71799 5.89406 12.6295
96 1 -0.689678 4.7616 5.8623 15.6804
119 2 -0.00191637 12.3231 3.14744 16.6732
120 2 -0.0542073 12.9281 1.71765 15.6869
121 2 0.00491977 9.90724 1.77045 11.5903
127 2 0.000566566 5.43655 5.64577 13.7969
167 2 0.17438 5.61721 4.4979 9.04776
145 2 0.141049 10.6053 6.11885 10.1142
164 2 0.157291 8.72987 2.42007 10.2581
165 2 0.162718 7.94852 0.74244 10.9385
166 2 0.191625 8.23408 2.2576 12.1858
169 2 0.167301 7.39135 4.92384 9.77324
95 1 -0.677025 9.94612 3.56254 9.02698
205 2 0.161921 10.6367 4.23527 9.76535
204 2 0.131399 8.64787 3.76307 9.16348
207 2 0.199248 4.44209 5.91629 16.7625
208 2 0.218168 5.6007 5.15788 15.5231
209 2 0.128069 3.81136 5.81653 14.9557
261 3 -0.833649 5.86984 3.67241 12.0374
30 4 1.1602 7.46255 0.101273 14.0007
283 3 -0.819426 7.97099 1.2884 15.0017
284 3 -0.875576 9.6497 2.62905 16.4521
285 3 -0.83039 6.93123 3.55384 16.3964
286 3 -0.816505 12.3554 2.66442 10.9002
287 3 -0.865542 12.0084 1.78326 13.2834
379 2 0.226092 8.58458 0.179121 17.2839
295 3 -0.847002 8.5981 3.54807 14.1257
296 3 -0.785294 10.8578 4.0347 12.6169
297 3 -0.841512 10.0059 5.46677 14.971
41 4 1.2512 3.37516 6.45946 10.8459
377 2 0.136673 9.23913 9.48333 5.77868
42 4 1.26154 2.08207 9.09529 2.35133
44 4 0.974448 0.363507 11.8251 4.77288
63 4 1.25585 7.24322 9.29696 2.02818
64 4 1.46635 3.29655 11.4602 3.84147
65 4 1.01369 6.62486 9.85305 7.89247
350 2 0.172849 0.677343 12.7367 1.51628
67 4 1.5525 5.76926 12.0166 5.68419
69 1 -0.653845 10.0546 7.62212 3.96992
93 1 -0.644665 5.17393 7.16924 5.08488
99 1 -0.677062 5.62596 9.97664 1.28389
384 2 0.199796 2.37769 12.353 0.212733
101 1 -0.671232 2.8828 9.92478 7.09341
129 2 0.000500814 8.14412 9.13053 7.21783
198 2 0.141061 5.80262 6.79401 5.98675
66 4 1.11241 2.69187 11.3308 8.49749
201 2 0.131942 9.02538 7.08367 7.58915
200 2 0.214684 5.24147 8.30599 4.85247
216 2 0.270215 4.75153 9.83914 2.07391
131 2 0.161392 10.0409 8.65685 4.62868
218 2 0.142488 5.91016 11.0637 1.12454
376 2 0.181666 9.88533 7.96644 2.86883
222 2 0.201863 1.86693 9.98725 6.63576
223 2 0.165943 3.09077 8.91956 7.60423
268 3 -0.824187 2.55267 9.0024 0.907234
302 3 -0.772376 6.8211 7.8436 2.84494
303 3 -0.785201 8.49463 9.04386 0.789707
304 3 -0.793433 7.83643 10.3405 3.12239
305 3 -0.797251 3.30063 9.80066 3.17826
306 3 -0.864446 3.10022 12.6758 2.76075
307 3 -0.834342 1.89107 11.4239 4.7163
309 3 -0.806037 3.12602 12.8885 8.05299
311 3 -0.834481 7.33414 12.0384 5.07691
312 3 -0.86885 4.69904 11.5933 4.63708
313 3 -0.810818 5.88335 10.7222 6.78863
373 2 -0.040345 4.82724 12.9069 0.882261
348 1 -0.668521 -0.137712 12.8477 0.679788
224 2 0.250127 3.68288 10.2183 6.34087
372 2 0.0977993 0.169602 13.3431 3.97257
217 2 0.251196 5.39679 9.40101 0.255148
375 2 0.159225 9.10637 6.83287 4.27844
380 2 0.181576 0.336387 13.4111 8.17128
100 1 -0.6209 8.58745 10.4499 8.53535
314 3 -0.877376 5.3671 13.2893 6.57674
18 4 1.26976 10.1834 6.8369 15.7209
35 4 1.23898 2.10538 8.00235 17.0426
353 2 0.180184 -0.612723 12.8787 9.69469
45 4 1.2485 1.03279 9.26326 13.3397
57 4 1.30534 7.62653 7.74665 17.1839
130 2 0.165182 2.21416 10.7543 16.8314
61 4 1.10626 4.95491 7.73806 15.4391
68 4 1.0717 1.31427 11.8287 15.0731
97 1 -0.694969 4.55841 7.93592 13.4332
98 1 -0.654989 7.95552 8.64865 12.9239
102 1 -0.670471 1.14703 11.4646 16.9649
103 1 -0.640211 4.10379 11.0193 9.69556
115 2 0.00204746 3.42179 7.90739 11.8013
116 2 0.0129219 2.65091 8.49355 13.4426
117 2 0.00632313 0.852375 12.091 11.7296
385 2 0.254073 6.0985 13.2286 11.1092
210 2 0.126992 3.72911 7.17341 13.3315
211 2 0.171492 5.57278 7.6513 12.9478
212 2 0.16925 4.31037 9.00636 13.222
59 4 1.21493 5.92922 7.21643 9.52427
214 2 0.228157 7.78808 7.9832 13.9358
215 2 0.161221 7.14227 9.40067 12.6549
128 2 0.00883673 9.82939 7.44688 10.9906
220 2 0.0581807 7.15631 11.2486 9.10259
47 4 1.27867 0.461455 10.6851 10.7876
226 2 0.0578841 -0.226579 12.2561 15.8554
227 2 0.18223 4.90563 11.7525 9.31948
62 4 1.03633 8.26575 7.20239 11.8089
229 2 0.182176 4.012 11.0699 10.8737
292 3 -0.871706 8.97067 7.21463 16.6287
298 3 -0.769798 6.4999 7.97272 15.8615
299 3 -0.81484 3.83487 8.49246 16.2418