LAMMPS (2 Aug 2023 - Update 2)
OMP_NUM_THREADS environment is not set. Defaulting to 1 thread. (src/comm.cpp:98)
  using 1 OpenMP thread(s) per MPI task
Reading data file ...
  triclinic box = (0 0 0) to (16.8189 12.842 16.0755) with tilt (-8.3798 1.195 0.4312)
WARNING: Triclinic box skew is large. LAMMPS will run inefficiently. (src/domain.cpp:220)
  1 by 1 by 1 MPI processor grid
  reading atoms ...
  274 atoms
Finding 1-2 1-3 1-4 neighbors ...
  special bond factors lj:    0        0        0       
  special bond factors coul:  0        0        0       
     0 = max # of 1-2 neighbors
     0 = max # of 1-3 neighbors
     0 = max # of 1-4 neighbors
     1 = max # of special neighbors
  special bonds CPU = 0.000 seconds
  read_data CPU = 0.005 seconds
*****Minimization starts.*****

CITE-CITE-CITE-CITE-CITE-CITE-CITE-CITE-CITE-CITE-CITE-CITE-CITE

Your simulation uses code contributions which should be cited:
- pair reaxff command: doi:10.1016/j.parco.2011.08.005
- fix qeq/reaxff command: doi:10.1016/j.parco.2011.08.005
The log file lists these citations in BibTeX format.

CITE-CITE-CITE-CITE-CITE-CITE-CITE-CITE-CITE-CITE-CITE-CITE-CITE

Switching to 'neigh_modify every 1 delay 0 check yes' setting during minimization
WARNING: Fix qeq/reaxff group is not charge neutral, net charge = -8.2 (src/REAXFF/fix_qeq_reaxff.cpp:392)
Neighbor list info ...
  update: every = 1 steps, delay = 0 steps, check = yes
  max neighbors/atom: 2000, page size: 100000
  master list distance cutoff = 12
  ghost atom cutoff = 12
  binsize = 6, bins = 5 3 3
  2 neighbor lists, perpetual/occasional/extra = 2 0 0
  (1) pair reaxff, perpetual
      attributes: half, newton off, ghost
      pair build: half/bin/newtoff/ghost
      stencil: full/ghost/bin/3d
      bin: standard
  (2) fix qeq/reaxff, perpetual, copy from (1)
      attributes: half, newton off
      pair build: copy
      stencil: none
      bin: none
Setting up cg style minimization ...
  Unit style    : real
  Current step  : 0
Per MPI rank memory allocation (min/avg/max) = 212.7 | 212.7 | 212.7 Mbytes
   Step          Temp          Press         Density         PotEng         TotEng    
         0   0              50159.025      1.4594291     -29524.072     -29524.072    
        53   0             -4597.0608      1.4594291     -31997.245     -31997.245    
Loop time of 34.6572 on 1 procs for 53 steps with 274 atoms

24.8% CPU use with 1 MPI tasks x 1 OpenMP threads

Minimization stats:
  Stopping criterion = energy tolerance
  Energy initial, next-to-last, final = 
     -29524.0718982468  -31997.2389444447  -31997.2447732983
  Force two-norm initial, final = 1922.3946 192.91526
  Force max component initial, final = 335.64142 68.187899
  Final line search alpha, max atom move = 0.0025229127 0.17203212
  Iterations, force evaluations = 53 105

MPI task timing breakdown:
Section |  min time  |  avg time  |  max time  |%varavg| %total
---------------------------------------------------------------
Pair    | 28.512     | 28.512     | 28.512     |   0.0 | 82.27
Bond    | 5.8942e-05 | 5.8942e-05 | 5.8942e-05 |   0.0 |  0.00
Neigh   | 0.20947    | 0.20947    | 0.20947    |   0.0 |  0.60
Comm    | 0.0067562  | 0.0067562  | 0.0067562  |   0.0 |  0.02
Output  | 0          | 0          | 0          |   0.0 |  0.00
Modify  | 5.9256     | 5.9256     | 5.9256     |   0.0 | 17.10
Other   |            | 0.003526   |            |       |  0.01

Nlocal:            274 ave         274 max         274 min
Histogram: 1 0 0 0 0 0 0 0 0 0
Nghost:           5082 ave        5082 max        5082 min
Histogram: 1 0 0 0 0 0 0 0 0 0
Neighs:         132230 ave      132230 max      132230 min
Histogram: 1 0 0 0 0 0 0 0 0 0

Total # of neighbors = 132230
Ave neighs/atom = 482.59124
Ave special neighs/atom = 0
Neighbor list builds = 1
Dangerous builds not checked
System init for write_data ...
*****Equilibration starts.*****
Setting up Verlet run ...
  Unit style    : real
  Current step  : 0
  Time step     : 0.5
Per MPI rank memory allocation (min/avg/max) = 211.1 | 211.1 | 211.1 Mbytes
   Step          Temp          Press         Density         PotEng         TotEng    
         0   300           -1383.456       1.4594291     -31997.245     -31753.117    
       100   266.98445     -1633.0432      1.4659888     -31942.181     -31724.919    
       200   321.339       -1130.7918      1.4775946     -31954.267     -31692.774    
       300   331.87536     -4494.4771      1.4833609     -31946.878     -31676.811    
       400   334.21819      18403.739      1.4957987     -31964.253     -31692.279    
       500   332.79139     -6984.6097      1.4896148     -32003.797     -31732.984    
       600   313.93533      4328.6849      1.4883849     -32031.786     -31776.318    
       700   318.5031       4350.151       1.5051907     -32066.292     -31807.107    
       800   285.80297      13794.047      1.5045647     -32064.537     -31831.961    
       900   303.0406      -3262.5823      1.4864249     -32087.894     -31841.291    
      1000   293.08529      4379.4485      1.475771      -32077.824     -31839.323    
      1100   313.69297     -1453.3494      1.4607135     -32078.622     -31823.351    
      1200   304.37775      2020.9591      1.4738888     -32068.126     -31820.436    
      1300   295.28614      6673.2844      1.4795871     -32074.336     -31834.043    
      1400   320.05842      15939.867      1.4819347     -32119.966     -31859.515    
      1500   322.47244      3014.1754      1.481002      -32132.322     -31869.906    
      1600   290.85721     -18905.447      1.4840238     -32110.477     -31873.789    
      1700   298.01187      6564.8122      1.5145977     -32096.605     -31854.095    
      1800   316.51416     -2989.3937      1.4954406     -32091.274     -31833.707    
      1900   316.83652      5882.9077      1.4951303     -32116.581     -31858.752    
      2000   314.00894      8954.7706      1.4982747     -32135.394     -31879.866    
      2100   292.2927      -3784.8532      1.5017461     -32127.839     -31889.983    
      2200   294.9225      -10470.904      1.4954174     -32133.564     -31893.567    
      2300   297.59109     -3246.3712      1.5109621     -32141.988     -31899.82     
      2400   281.33646      7731.6893      1.5337588     -32146.998     -31918.058    
      2500   292.31838     -2788.4951      1.5321818     -32167.158     -31929.281    
      2600   308.71697     -737.34562      1.5420938     -32159.969     -31908.747    
      2700   314.42466      6270.3542      1.5585719     -32141.908     -31886.042    
      2800   303.90135      10603.703      1.5559063     -32141.618     -31894.315    
      2900   299.02869     -1681.5647      1.5509464     -32152.118     -31908.78     
      3000   292.68997     -1283.8617      1.5371518     -32157.149     -31918.97     
      3100   285.35318     -2679.7176      1.5275708     -32150.387     -31918.178    
      3200   282.68324      2833.9219      1.5218264     -32128.757     -31898.72     
      3300   319.21749      4615.8728      1.5213339     -32134.906     -31875.139    
      3400   302.99875     -2664.6915      1.5269385     -32141.465     -31894.896    
      3500   296.42523      5732.764       1.5333747     -32158.258     -31917.039    
      3600   321.48261     -16136.247      1.5155823     -32183.738     -31922.128    
      3700   282.6707      -268.98741      1.5187859     -32166.589     -31936.563    
      3800   292.56426     -3216.4875      1.5236323     -32191.541     -31953.464    
      3900   266.97376      4921.8842      1.5342446     -32178.951     -31961.698    
      4000   274.4991      -18411.216      1.5331849     -32151.118     -31927.741    
      4100   307.64352     -3377.5872      1.5473239     -32163.646     -31913.298    
      4200   311.02346      6619.157       1.5623185     -32170.912     -31917.813    
      4300   294.24218      7690.9852      1.5555722     -32178.373     -31938.93     
      4400   314.24837     -2363.4339      1.5353473     -32201.096     -31945.373    
      4500   284.09627     -11904.541      1.5186905     -32171.218     -31940.031    
      4600   289.47306      9080.1771      1.5269456     -32144.623     -31909.061    
      4700   325.2445      -513.70025      1.5396228     -32164.962     -31900.291    
      4800   309.5835       2963.517       1.544293      -32175.786     -31923.859    
      4900   306.08101      5611.0804      1.5510932     -32190.825     -31941.748    
      5000   310.29688     -2434.3316      1.5542138     -32207.301     -31954.793    
Loop time of 1884.52 on 1 procs for 5000 steps with 274 atoms

Performance: 0.115 ns/day, 209.391 hours/ns, 2.653 timesteps/s, 726.976 atom-step/s
22.2% CPU use with 1 MPI tasks x 1 OpenMP threads

MPI task timing breakdown:
Section |  min time  |  avg time  |  max time  |%varavg| %total
---------------------------------------------------------------
Pair    | 1584.8     | 1584.8     | 1584.8     |   0.0 | 84.09
Bond    | 0.0014461  | 0.0014461  | 0.0014461  |   0.0 |  0.00
Neigh   | 114.21     | 114.21     | 114.21     |   0.0 |  6.06
Comm    | 1.5227     | 1.5227     | 1.5227     |   0.0 |  0.08
Output  | 0.087088   | 0.087088   | 0.087088   |   0.0 |  0.00
Modify  | 183.54     | 183.54     | 183.54     |   0.0 |  9.74
Other   |            | 0.3955     |            |       |  0.02

Nlocal:            274 ave         274 max         274 min
Histogram: 1 0 0 0 0 0 0 0 0 0
Nghost:           5346 ave        5346 max        5346 min
Histogram: 1 0 0 0 0 0 0 0 0 0
Neighs:         141794 ave      141794 max      141794 min
Histogram: 1 0 0 0 0 0 0 0 0 0

Total # of neighbors = 141794
Ave neighs/atom = 517.49635
Ave special neighs/atom = 0
Neighbor list builds = 500
Dangerous builds not checked
*****Heat starts.*****
Setting up Verlet run ...
  Unit style    : real
  Current step  : 5000
  Time step     : 0.5
Per MPI rank memory allocation (min/avg/max) = 213.5 | 213.5 | 213.5 Mbytes
   Step          Temp          Press         Density         PotEng         TotEng    
      5000   310.29688     -2434.4181      1.5542138     -32207.301     -31954.793    
      5100   304.96079     -2053.8143      1.5542138     -32181.069     -31932.904    
      5200   329.75774      21175.371      1.5542138     -32148.676     -31880.332    
      5300   381.45319     -3536.3007      1.5542138     -32105.918     -31795.506    
      5400   472.18131     -16571.844      1.5542138     -32067.817     -31683.575    
      5500   557.148       -13777.488      1.5542138     -31995.41      -31542.025    
      5600   681.70843      10669.387      1.5542138     -31926.979     -31372.231    
      5700   719.52368      1148.8915      1.5542138     -31764.123     -31178.603    
      5800   826.0543      -10438.192      1.5542138     -31630.76      -30958.549    
      5900   955.85769     -10289.208      1.5542138     -31496.181     -30718.342    
      6000   1092.2041     -16885.615      1.5542138     -31359.193     -30470.399    
      6100   1296.693      -16623.751      1.5542138     -31277.815     -30222.617    
      6200   1399.5965      19784.275      1.5542138     -31125.254     -29986.317    
      6300   1433.3143      702.41054      1.5542138     -30929.634     -29763.258    
      6400   1585.637      -1305.3127      1.5542138     -30869.961     -29579.631    
      6500   1649.0001      22694.62       1.5542138     -30782.312     -29440.42     
      6600   1739.3601      17447.001      1.5542138     -30679.21      -29263.786    
      6700   1984.2683     -5082.6793      1.5542138     -30701.229     -29086.508    
      6800   1926.4569      13110.843      1.5542138     -30572.569     -29004.894    
      6900   2036.0065      5571.2463      1.5542138     -30537.978     -28881.155    
      7000   2120.9819     -7885.3113      1.5542138     -30378.977     -28653.004    
Loop time of 714.921 on 1 procs for 2000 steps with 274 atoms

Performance: 0.121 ns/day, 198.589 hours/ns, 2.798 timesteps/s, 766.519 atom-step/s
22.2% CPU use with 1 MPI tasks x 1 OpenMP threads

MPI task timing breakdown:
Section |  min time  |  avg time  |  max time  |%varavg| %total
---------------------------------------------------------------
Pair    | 596.7      | 596.7      | 596.7      |   0.0 | 83.46
Bond    | 0.00041938 | 0.00041938 | 0.00041938 |   0.0 |  0.00
Neigh   | 43.137     | 43.137     | 43.137     |   0.0 |  6.03
Comm    | 0.90188    | 0.90188    | 0.90188    |   0.0 |  0.13
Output  | 0.11885    | 0.11885    | 0.11885    |   0.0 |  0.02
Modify  | 74.01      | 74.01      | 74.01      |   0.0 | 10.35
Other   |            | 0.05539    |            |       |  0.01

Nlocal:            274 ave         274 max         274 min
Histogram: 1 0 0 0 0 0 0 0 0 0
Nghost:           5344 ave        5344 max        5344 min
Histogram: 1 0 0 0 0 0 0 0 0 0
Neighs:         142003 ave      142003 max      142003 min
Histogram: 1 0 0 0 0 0 0 0 0 0

Total # of neighbors = 142003
Ave neighs/atom = 518.25912
Ave special neighs/atom = 0
Neighbor list builds = 200
Dangerous builds not checked
*****Middle equilibration starts.*****
*****Cool starts.*****
Setting up Verlet run ...
  Unit style    : real
  Current step  : 7000
  Time step     : 0.5
Per MPI rank memory allocation (min/avg/max) = 214.2 | 214.2 | 214.2 Mbytes
   Step          Temp          Press         Density         PotEng         TotEng    
      7000   300           -28661.524      1.5542138     -30378.977     -30134.848    
      7100   1370.937       20116.527      1.5542138     -31017.082     -29901.467    
      7200   1687.9278      17979.622      1.5542138     -30904.863     -29531.293    
      7300   1966.0404      11598.099      1.5542138     -30745.316     -29145.429    
      7400   2120.3268     -18850.897      1.5542138     -30524.517     -28799.078    
      7500   2142.42        6473.4679      1.5542138     -30322.76      -28579.342    
      7600   2203.7075      14409.563      1.5542138     -30343.98      -28550.688    
      7700   2143.4444      18968.16       1.5542138     -30440.729     -28696.478    
      7800   2088.7629      17416.286      1.5542138     -30571.847     -28872.093    
      7900   1804.5301      40684.738      1.5542138     -30432.545     -28964.088    
      8000   1910.8755     -12454.028      1.5542138     -30484.69      -28929.694    
      8100   1859.4105      18336.505      1.5542138     -30379.76      -28866.644    
      8200   1964.1359      15189.504      1.5542138     -30396.866     -28798.528    
      8300   2058.6605      11384.457      1.5542138     -30414.416     -28739.158    
      8400   1891.3955      22289.478      1.5542138     -30382.808     -28843.664    
      8500   2012.9346      11349.961      1.5542138     -30619.556     -28981.508    
      8600   1864.265       23689.526      1.5542138     -30566.982     -29049.916    
      8700   1762.4939      24398.33       1.5542138     -30487.98      -29053.731    
      8800   2046.1552      9149.8194      1.5542138     -30539.923     -28874.842    
      8900   1938.0864      8333.5362      1.5542138     -30362.519     -28785.38     
      9000   2025.6007     -2216.1194      1.5542138     -30616.337     -28967.982    
      9100   1837.2038      1925.7166      1.5542138     -30580.076     -29085.03     
      9200   1807.1704      24766.272      1.5542138     -30687.273     -29216.668    
      9300   1808.1329     -11150.542      1.5542138     -30796.57      -29325.181    
      9400   1648.068      -145.31039      1.5542138     -30723.589     -29382.455    
      9500   1901.3043      12725.112      1.5542138     -30872.307     -29325.1      
      9600   1901.4304      11572.499      1.5542138     -30743.481     -29196.171    
