ITEM: TIMESTEP
0
ITEM: NUMBER OF ATOMS
274
ITEM: BOX BOUNDS xy xz yz pp pp pp
-8.3797999999999995e+00 1.8013900000000000e+01 -8.3797999999999995e+00
0.0000000000000000e+00 1.3273200000000001e+01 1.1950000000000001e+00
0.0000000000000000e+00 1.6075500000000002e+01 4.3120000000000003e-01
ITEM: ATOMS id type q x y z
119 2 -0.0243389 7.55348 1.61287 5.04536
12 4 1.32118 -1.0137 6.30631 5.39939
7 4 1.10523 1.17238 2.01925 5.37689
9 4 1.28098 -0.64379 4.41894 2.03606
10 4 1.62167 0.44154 4.30118 7.29669
242 1 -0.653507 3.37739 0.558872 3.1296
21 4 0.825276 5.93031 1.64792 5.54532
26 4 1.2743 5.58618 4.578 6.67629
41 1 -0.664173 1.13344 0.325103 6.26414
44 1 -0.672904 4.27868 3.76288 1.92681
55 3 -0.798086 1.05764 0.909377 1.15743
56 3 -0.819389 -0.25113 2.3407 4.71679
58 3 -0.814721 -1.84602 4.25116 3.10874
59 3 -0.838061 -0.245213 3.21481 1.11541
243 2 0.157675 2.94649 1.54116 2.44771
61 3 -0.756669 1.49608 3.09687 6.49661
62 3 -0.865372 -0.486567 5.17022 6.33399
74 3 -0.796196 5.51983 0.514992 7.07665
78 3 -0.849172 0.569133 4.962 2.80478
81 3 -0.818993 5.82777 3.18152 5.85354
84 3 -0.77478 2.77229 5.79464 4.24223
85 3 -0.770076 4.78667 5.75446 5.80558
113 2 0.0881809 -1.91268 5.46141 4.21112
111 2 0.00992151 2.50763 1.95516 4.20648
112 2 -0.0307591 -1.13692 5.52562 0.866437
5 4 1.36456 0.270311 2.00959 0.21286
118 2 0.0210292 4.6262 1.13275 4.31195
24 4 1.21609 4.88743 4.71128 0.436733
222 3 -0.754983 6.56213 1.39768 1.15923
223 2 -0.087699 6.47773 0.979954 3.80993
141 2 0.199269 4.70129 2.74222 2.00133
142 2 0.176341 3.18992 3.74035 1.61547
143 2 0.212952 4.54237 4.4319 2.82455
220 4 1.00277 7.01171 0.309555 2.17905
135 2 0.223942 1.34057 0.527671 7.38439
25 4 1.37993 1.29792 6.23384 3.52825
244 2 0.0986707 2.70942 0.164323 4.07343
138 2 0.158196 1.5321 0.944976 12.4638
8 4 1.29894 2.01872 2.85932 10.9381
13 4 1.25707 0.62757 5.17842 12.3369
229 2 -0.0251864 3.47957 6.68112 13.2854
20 4 1.2415 4.67047 2.89873 9.15616
23 4 1.27483 7.03077 3.03117 11.1907
99 3 -0.780308 7.91693 1.23287 8.12758
226 4 0.891052 3.44806 6.39282 15.0005
42 1 -0.663806 2.38714 1.67275 12.3496
57 3 -0.841113 0.583017 2.38306 10.4903
63 3 -0.861613 -0.0313105 4.01205 13.2232
64 3 -0.803299 2.09353 4.65291 11.7653
65 3 -0.852487 -2.35342 6.07134 9.71606
66 3 -0.883305 -0.305863 5.81259 11.3191
73 3 -0.781846 3.18168 2.62737 9.8316
75 3 -0.846014 5.70329 3.04541 10.3698
76 3 -0.834021 6.99339 1.69544 12.0279
80 3 -0.747436 4.76533 4.21136 8.17917
266 2 0.0633793 -1.62196 4.98416 15.3882
137 2 0.169091 3.314 1.07701 12.0285
114 2 -0.0528248 0.942662 6.29592 13.5343
197 2 0.203792 5.3707 0.991627 15.9023
124 2 0.0502699 3.55655 5.40343 12.0355
136 2 0.165924 2.49148 2.31685 13.4057
179 4 1.24471 7.39724 2.41245 15.5483
183 1 -0.671125 5.85873 1.45344 14.9734
82 3 -0.808316 1.37657 5.38646 8.05396
60 3 -0.830338 -0.419852 3.51589 8.39135
196 2 0.161122 5.2948 2.43078 14.5768
6 4 1.31808 -0.610116 2.3546 9.42538
227 3 -0.782751 4.80099 5.83478 15.5828
195 2 0.259198 6.22961 0.726974 14.1921
245 1 -0.675688 2.8847 3.22801 15.1987
246 2 0.148591 2.38264 3.785 14.3567
247 2 0.163838 3.53987 2.41439 14.7338
262 3 -0.836501 0.3742 2.04361 15.1887
228 2 -0.0212294 2.35897 5.12802 15.3867
117 2 0.102522 5.05556 1.63341 8.10194
77 3 -0.765595 7.00346 4.0356 15.6914
248 2 0.171477 3.48134 3.91501 15.8685
251 1 -0.678737 -5.34897 8.52026 1.07893
3 3 -0.777284 -5.97927 11.3334 1.06133
253 2 0.167528 -4.39272 8.01497 0.759902
16 4 1.52726 -3.28609 8.14959 6.74803
17 4 1.26416 -4.64933 10.0462 4.81132
154 2 0.184058 0.765104 9.45737 7.28819
161 2 0.191086 -1.2549 9.73439 0.28467
31 4 1.28129 -2.11321 10.3917 3.03197
33 4 1.12505 0.0458024 10.999 5.47119
48 1 -0.654905 -1.58077 8.75718 2.04742
49 1 -0.663739 -0.0784258 9.41583 6.51852
28 4 1.1997 3.92748 6.74553 4.82449
68 3 -0.853104 -2.06733 7.28523 6.1162
268 2 0.217728 -5.20516 8.96126 2.09638
70 3 -0.830756 -4.28568 8.78979 5.71904
79 3 -0.866714 0.174373 7.11121 4.74099
87 3 -0.803216 1.78842 7.20493 2.25038
30 4 1.03475 2.27244 8.0975 1.02426
89 3 -0.751706 -2.03017 11.6195 1.90186
90 3 -0.848359 -3.55175 10.1749 3.61279
93 3 -0.807339 -0.882412 10.7776 4.10588
94 3 -0.852051 -0.475665 12.1474 6.44849
115 2 -0.0222976 -4.42975 11.3644 5.8242
147 2 0.191028 1.77505 7.51254 6.50444
151 2 0.179529 -0.419351 9.04019 1.74839
152 2 0.171386 -2.32578 8.555 1.24718
153 2 0.16489 -1.67389 8.02368 2.92336
265 2 0.198801 -4.451 12.5663 2.53351
155 2 0.275896 0.0188227 8.50285 5.81441
156 2 0.292546 -1.11503 9.45748 7.04013
46 1 -0.665223 2.34539 7.96821 7.37354
148 2 0.160551 3.49277 7.77428 7.43588
272 2 0.17987 0.536013 9.98885 0.414686
19 4 1.35658 -1.28727 12.7957 7.58459
1 4 1.21813 -6.72158 12.5016 2.05387
271 2 0.171936 1.1553 9.838 2.36068
91 3 -0.835618 -2.72961 9.60416 7.68111
133 2 0.130229 -6.39319 12.633 5.70673
47 1 -0.667866 1.40309 9.79383 1.24847
149 2 0.153016 2.10369 9.05425 7.61542
122 2 -0.00696569 3.25703 8.12416 5.62948
15 4 1.06419 -5.39354 10.1096 0.0500169
159 2 0.197735 1.9491 10.0561 10.6848
18 4 1.23194 -2.28671 8.45748 12.6243
22 4 1.2545 -0.752784 13.0294 12.048
32 4 0.970934 -2.67151 10.6046 8.86925
35 4 1.23068 -1.50746 10.7819 14.2645
29 4 0.956241 3.71054 6.74821 11.0501
160 2 0.175609 0.868542 10.2667 14.6553
267 2 0.167305 -2.49865 7.12246 15.7904
51 1 -0.633134 0.110011 10.7802 15.3028
162 2 0.196183 0.373301 11.871 15.4255
72 3 -0.790241 -1.63623 8.2191 11.1373
83 3 -0.75641 0.0249911 7.52856 9.11552
88 3 -0.772786 3.17368 7.8835 15.595
92 3 -0.799237 -1.45032 11.5716 9.06395
95 3 -0.811798 3.76149 8.19285 11.8028
96 3 -0.809107 -1.36451 9.29791 13.5846
97 3 -0.831613 -1.45915 12.0622 13.0759
98 3 -0.778805 -2.89314 10.8068 15.3569
116 2 -0.0327438 -3.77365 9.1163 12.249
120 2 0.0881261 -0.949248 12.3801 10.4696
126 2 0.0314909 -2.69332 9.70479 10.306
127 2 -0.0554594 -4.11958 11.3841 9.20144
128 2 0.0397916 2.41617 10.1531 13.1476
139 2 0.145698 -4.66133 10.2044 13.6278
187 3 -0.822214 0.791835 13.1236 12.2679
27 4 1.39082 1.53937 6.81294 8.75662
71 3 -0.837496 -2.74201 7.08103 13.2733
86 3 -0.79687 2.62709 6.80499 9.88784
14 4 1.52429 -1.08716 6.76741 10.298
140 2 0.159275 -5.86192 11.494 14.1339
235 2 0.161385 11.9888 1.83269 3.35364
37 4 1.29178 13.1604 1.62139 6.13936
221 1 -0.64506 8.90136 0.287638 1.88167
39 4 1.26427 11.4506 3.76178 7.494
45 1 -0.67772 7.27859 5.28413 7.16684
54 1 -0.666893 11.0764 4.93052 6.03138
101 3 -0.834295 13.9775 2.71716 5.36395
102 3 -0.859825 14.0411 0.622405 6.95378
250 2 0.193364 12.0284 5.26013 0.330464
4 4 1.43148 15.093 2.63994 4.1333
106 3 -0.831701 11.9906 2.30499 6.95485
232 3 -0.787825 14.6424 1.35057 3.11839
129 2 -0.00679386 12.3268 0.765508 4.96409
130 2 0.0483279 7.25201 5.78351 3.53189
169 2 0.224203 11.5208 5.92868 6.24076
234 2 0.18325 11.5312 0.64087 1.93948
146 2 0.204574 7.87754 4.30786 7.23309
103 3 -0.758243 5.71136 6.08147 1.37999
145 2 0.170911 7.69376 5.96071 6.42861
170 2 0.173127 9.94782 5.04229 5.91058
171 2 0.174553 11.6297 4.32186 5.20892
225 2 0.124227 9.11066 0.821389 2.96917
224 2 0.198226 8.91209 0.970977 0.95951
231 1 -0.665566 11.9082 0.708953 3.03091
230 4 1.09557 13.7321 0.0937378 2.79594
11 4 1.48586 12.9702 6.22175 9.0607
36 4 1.27613 9.12011 2.39579 9.05788
52 1 -0.679798 10.3776 1.25078 9.78913
249 1 -0.622223 14.041 5.99632 15.7163
100 3 -0.821028 8.33653 3.10995 10.2808
107 3 -0.810579 12.5029 4.68796 8.57808
110 2 0.00294068 14.8002 2.77877 10.3596
188 3 -0.777747 8.72426 1.98237 14.6418
202 2 0.156598 14.1044 3.75671 11.7395
163 2 0.171168 11.3376 1.90198 9.82929
144 2 0.174015 7.20167 5.80388 8.17876
165 2 0.250168 10.1204 0.85832 10.8295
172 4 0.989402 16.325 2.56221 13.9058
173 1 -0.649597 14.6103 1.6372 13.308
174 2 0.0793366 14.5066 2.72224 14.5613
175 2 0.0344485 16.186 1.14177 12.6846
176 2 0.166429 14.0497 2.20534 12.5437
186 1 -0.682214 8.90645 6.37779 9.9309
178 4 1.09204 13.8517 5.67887 14.0157
180 4 1.24701 9.91815 1.467 13.595
181 4 1.30463 11.7988 3.87349 12.5499
205 2 0.21957 9.20877 5.47679 9.26068
185 1 -0.694374 13.1247 3.3806 11.194
177 2 0.1702 13.8973 0.743907 13.7217
189 3 -0.802514 10.9684 2.5386 13.0057
190 3 -0.793249 12.7626 4.57037 13.7935
192 3 -0.779938 10.8187 4.95928 11.8703
263 3 -0.850449 15.989 0.975741 8.70814
199 2 0.189029 12.0061 0.957403 14.6385
200 2 0.259274 12.885 3.99737 10.1782
201 2 0.137284 12.9127 2.27017 11.1821
182 4 1.03543 10.5497 6.28726 10.9169
164 2 0.172503 10.4504 0.443348 8.9811
204 2 0.143788 7.89276 6.21699 10.486
121 2 -0.0164375 7.07822 4.30087 12.2636
105 3 -0.799892 9.89102 3.48417 8.18478
184 1 -0.656851 11.0325 0.429755 14.7561
123 2 -0.0479708 5.27285 6.32579 10.6016
207 4 1.25157 6.57468 12.817 8.02957
134 2 0.239737 8.58568 12.7472 6.01444
167 2 0.168679 9.02178 7.10044 2.92516
53 1 -0.636873 7.96277 7.41877 3.21554
104 3 -0.818662 4.90332 7.41874 3.69709
270 2 0.186563 0.867271 12.0575 1.72348
125 2 0.0069355 3.93476 8.32006 1.10288
2 3 -0.821299 9.00097 11.7436 3.07347
166 2 0.0593256 7.26612 8.41861 2.24866
168 2 0.173061 7.86194 7.9505 4.24411
206 4 1.22866 9.21325 10.3711 3.86706
215 2 0.166833 5.37489 10.0476 6.01967
208 4 1.10439 7.61688 10.0498 6.71227
209 1 -0.670663 5.9518 9.11424 6.40138
255 2 0.156046 1.55956 12.639 5.0647
211 3 -0.780063 8.24324 10.1587 5.14306
212 3 -0.807388 7.14665 11.4135 7.42961
213 2 0.0141307 8.85198 9.06331 2.78837
254 1 -0.676775 1.76189 11.5016 4.8115
216 2 0.148275 5.54129 8.69268 7.31747
217 2 0.197546 5.98152 8.34731 5.63682
256 2 0.160588 1.99029 11.252 3.7416
252 2 0.152213 10.4969 7.93944 0.929059
239 2 0.141597 6.80464 9.35377 0.233101
238 3 -0.768912 5.57985 12.1855 1.15796
240 2 0.174671 7.99168 10.5902 1.15495
38 4 1.00467 6.069 6.86598 2.68409
233 2 0.162427 2.86322 12.8742 3.73138
258 1 -0.678321 5.6939 11.4865 4.03303
259 2 0.173874 5.88145 10.5877 3.37376
260 2 0.148522 4.83135 11.4295 4.65043
261 2 0.226373 6.64099 11.7793 4.67037
257 2 0.134643 2.59234 11.0766 5.46408
237 1 -0.681357 7.56631 10.2711 0.172153
150 2 0.141456 2.35744 10.4113 1.0394
210 1 -0.659242 8.71965 8.94545 7.86723
219 2 0.202302 9.52132 8.36547 7.37173
69 3 -0.842822 10.6696 9.98846 4.35098
67 3 -0.830805 12.8054 7.24037 7.78556
198 2 0.165609 2.48515 12.3078 14.164
40 4 0.9418 6.26987 11.4443 13.1749
108 3 -0.833778 5.06129 10.5769 12.8772
109 3 -0.835688 6.73232 11.813 14.6023
214 2 -0.0555364 5.60816 12.3378 9.25766
132 2 -0.0527112 7.57486 10.8247 12.2723
236 4 1.10033 7.39815 12.0208 15.9593
203 2 0.173229 8.85796 7.29225 9.27098
131 2 -0.0238483 6.27642 12.8385 12.226
193 2 0.0565695 11.0531 9.52166 15.4705
218 2 0.154211 9.19142 9.61166 8.68923
194 2 2.30377e-06 9.40463 7.52918 11.419
43 1 -0.643019 11.1259 10.4032 14.0104
158 2 0.233421 1.98925 11.7159 11.5821
264 2 0.0670398 9.02482 12.612 15.7721
273 2 0.185523 2.3334 13.2595 15.8391
34 4 1.01264 3.83966 9.72993 12.2594
191 3 -0.792131 11.8295 6.94159 10.2077
269 2 0.144147 10.3625 9.99687 13.3102
157 2 0.105727 3.5081 11.1283 10.5135
241 2 0.175285 9.60626 10.612 15.4106
274 2 0.13597 7.82651 8.29402 8.20664
50 1 -0.661291 2.54307 10.7861 11.3033
ITEM: TIMESTEP
100
ITEM: NUMBER OF ATOMS
274
ITEM: BOX BOUNDS xy xz yz pp pp pp
-8.3784033666666673e+00 1.8010897683333333e+01 -8.3784033666666673e+00
0.0000000000000000e+00 1.3273200000000001e+01 1.1948008333333320e+00
0.0000000000000000e+00 1.6075500000000002e+01 4.3120000000000003e-01
ITEM: ATOMS id type q x y z
119 2 -0.0264022 7.709 1.59314 5.08791
12 4 1.32856 -0.959034 6.25282 5.36181
7 4 1.12519 1.14438 2.07824 5.41654
9 4 1.28209 -0.613172 4.50028 1.96614
10 4 1.56793 0.380934 4.32243 7.30607
242 1 -0.63877 3.36093 0.447186 3.15371
21 4 0.809678 6.06048 1.65869 5.44313
26 4 1.26478 5.47986 4.65355 6.73831
41 1 -0.663882 1.12888 0.319823 6.16855
44 1 -0.66841 3.94454 3.7876 1.79651
55 3 -0.784092 0.974902 0.942395 1.058
56 3 -0.829617 -0.204911 2.16319 4.58927
58 3 -0.801115 -1.76027 4.14118 3.0741
59 3 -0.846783 -0.306534 3.40376 0.919303
243 2 0.146166 2.83935 1.38992 2.51364
61 3 -0.755313 1.53856 3.19507 6.49061
62 3 -0.857883 -0.58688 4.99079 6.20187
74 3 -0.809776 5.64011 0.607097 7.12997
78 3 -0.843407 0.68256 4.93447 2.62415
81 3 -0.769027 5.82445 3.17839 5.51012
84 3 -0.776532 2.80937 5.94162 4.23292
85 3 -0.803175 4.75491 5.79447 5.9608
113 2 0.0932031 -1.83737 5.43106 4.14593
111 2 0.016693 2.44657 1.82144 4.21519
112 2 -0.0294254 -1.20075 5.90533 1.22083
5 4 1.28603 0.321549 2.11452 0.147654
118 2 0.0333808 4.72639 1.08306 4.27846
24 4 1.2845 4.83661 4.81183 0.484558
222 3 -0.781186 6.51673 1.43731 0.940059
223 2 -0.0868244 6.55962 0.976825 3.76663
141 2 0.188316 4.27804 2.70084 1.78764
142 2 0.192465 2.85103 3.96317 1.51317
143 2 0.221276 4.14521 4.3044 2.79347
220 4 1.02124 7.04084 0.399099 2.08659
135 2 0.239893 0.995624 0.33672 7.29058
25 4 1.37814 1.31884 6.36912 3.37625
267 2 0.167797 -3.85969 6.27737 0.487414
197 2 0.19984 4.54528 0.478655 0.00673895
138 2 0.181162 1.49113 0.955233 12.528
8 4 1.24891 1.95067 2.75713 10.9726
13 4 1.2473 0.707742 5.1328 12.4219
229 2 -0.0283373 3.78101 6.66848 13.1376
20 4 1.26479 4.68786 2.96801 9.13336
23 4 1.26994 6.94726 2.95448 11.2525
99 3 -0.857975 7.94537 1.33484 8.37064
226 4 0.917894 3.63375 6.39855 14.9102
42 1 -0.660477 2.36599 1.60075 12.3888
57 3 -0.813396 0.376792 2.45033 10.5224
63 3 -0.871636 -0.0511792 4.05614 13.2844
64 3 -0.789855 2.13171 4.36633 11.9042
65 3 -0.820015 -2.27955 6.08072 9.46266
66 3 -0.835855 -0.199329 5.83115 11.3638
73 3 -0.762908 3.1719 2.67434 9.77266
75 3 -0.872099 5.69949 3.05469 10.2535
76 3 -0.831156 7.08477 1.6411 12.0897
80 3 -0.781802 4.78531 4.29729 8.1615
266 2 0.0674395 -1.57064 5.05948 15.3892
137 2 0.166308 3.30204 1.11077 11.9707
114 2 -0.0373129 1.17959 6.46871 13.3226
82 3 -0.818436 1.36449 5.39345 8.0627
124 2 0.050563 3.59908 5.38049 11.7625
136 2 0.182084 2.59541 2.2931 13.4436
179 4 1.31808 7.54247 2.46835 15.5179
183 1 -0.65858 6.12204 1.29395 15.0335
248 2 0.169744 3.33934 4.16196 15.9703
60 3 -0.805092 -0.652954 3.4593 8.25931
196 2 0.171086 5.38714 1.98549 14.5489
77 3 -0.750182 6.93213 4.02212 15.6605
227 3 -0.829494 4.88689 5.84899 15.645
195 2 0.273238 6.35977 0.492315 14.286
245 1 -0.670901 2.97872 3.34542 15.1823
246 2 0.169612 2.74455 3.71712 14.1746
247 2 0.159377 3.5709 2.28616 15.1929
262 3 -0.774189 0.487882 1.8406 14.9322
228 2 -0.0204268 2.40518 5.26193 14.9104
117 2 0.111716 5.10619 1.6143 8.14527
251 1 -0.660425 -5.39283 8.48094 1.09314
3 3 -0.795387 -6.24417 11.3036 0.934574
253 2 0.171825 -4.30462 8.21879 0.986242
16 4 1.47575 -3.2404 8.05788 6.61023
17 4 1.25326 -4.64223 9.9237 4.88129
154 2 0.171909 0.976204 9.5839 7.12703
161 2 0.194565 -1.38142 9.88729 0.339402
31 4 1.24413 -2.16318 10.4464 2.9437
33 4 1.12205 0.0607668 11.0947 5.35893
48 1 -0.66332 -1.47518 8.88622 2.0932
49 1 -0.648586 0.0989728 9.55081 6.40468
28 4 1.26268 3.99331 6.70308 4.88664
68 3 -0.862583 -2.05485 7.30419 5.97559
244 2 0.154909 -5.6945 12.821 4.03751
70 3 -0.806291 -4.32069 8.43745 5.47939
79 3 -0.857264 0.244205 6.96335 4.66144
87 3 -0.828487 1.56925 7.57969 2.35397
30 4 1.01295 2.21967 8.06598 0.988595
89 3 -0.778717 -1.92868 11.8016 1.88242
90 3 -0.817122 -3.53841 10.3492 3.73353
93 3 -0.778295 -0.886038 10.6871 4.14858
94 3 -0.803715 -0.574122 12.2164 6.37773
115 2 -0.019104 -4.62706 11.1528 6.07134
147 2 0.187524 1.80469 7.81843 6.52557
151 2 0.200836 -0.398581 9.21416 1.70939
152 2 0.149454 -2.0863 8.33504 1.28069
153 2 0.18989 -1.30527 8.26473 3.08125
265 2 0.191006 -4.49317 12.4477 2.49423
155 2 0.249063 0.189857 8.73805 5.60351
156 2 0.292568 -0.978785 9.58201 6.92915
46 1 -0.674674 2.32633 8.06236 7.45094
148 2 0.185826 3.33607 7.7883 7.42012
272 2 0.163745 0.44952 10.0625 0.282879
19 4 1.37979 -1.36713 12.9499 7.72312
1 4 1.20452 -6.74891 12.4776 1.98444
271 2 0.186111 1.20969 9.98751 2.13786
91 3 -0.822009 -2.55325 9.63838 7.57352
133 2 0.13267 -6.15451 12.9259 5.87717
47 1 -0.642308 1.41326 9.81209 1.03156
149 2 0.14729 2.11454 9.17659 7.79265
122 2 -0.00687264 3.32701 8.05811 5.71998
69 3 -0.836278 -6.04056 10.1001 4.25366
159 2 0.192542 2.24405 9.89476 10.7578
18 4 1.18418 -2.34836 8.31376 12.7044
22 4 1.23827 -0.624067 12.9668 12.1057
32 4 0.951296 -2.59525 10.5323 8.86619
35 4 1.20559 -1.62893 10.6889 14.3393
29 4 0.904067 3.80206 6.93171 11.0165
160 2 0.165924 0.791312 10.5389 14.7931
140 2 0.17456 -6.06049 11.7464 14.5399
51 1 -0.65008 -0.110419 10.882 15.3764
162 2 0.205286 -0.126447 12.0337 15.4682
72 3 -0.817173 -1.73755 8.13966 11
83 3 -0.801524 0.0904784 7.36419 9.21072
88 3 -0.80237 3.0152 7.65295 15.6682
92 3 -0.826162 -1.70296 11.8092 9.08043
95 3 -0.802149 3.83057 8.28 12.0094
96 3 -0.770153 -1.29126 9.27623 13.4314
97 3 -0.797663 -1.50102 12.0798 13.1187
98 3 -0.824825 -2.98677 10.6568 15.272
116 2 -0.0425385 -3.67082 9.31226 12.6761
120 2 0.0782622 -0.93782 12.2986 10.5884
126 2 0.0992853 -2.09974 9.44252 10.0264
127 2 -0.0538298 -4.1411 10.6512 9.52265
128 2 0.0103686 2.13169 10.2859 13.2016
139 2 0.15654 -4.81367 10.6605 13.586
187 3 -0.829938 0.909795 13.0029 12.4051
27 4 1.42367 1.53337 6.81515 8.76541
71 3 -0.864591 -2.6702 7.04714 13.5137
86 3 -0.799836 2.66623 6.93655 9.88236
14 4 1.52269 -1.07676 6.81738 10.2866
15 4 1.05445 -4.30927 10.5166 16.0711
235 2 0.160803 11.6466 1.45526 3.45284
37 4 1.28031 13.2213 1.56529 6.14671
221 1 -0.649803 8.9322 0.262203 1.84315
39 4 1.34552 11.425 3.76166 7.501
45 1 -0.659783 7.20648 5.35466 7.12949
54 1 -0.659123 11.1366 4.7606 5.87414
101 3 -0.81823 14.0323 2.59073 5.32048
102 3 -0.834439 14.0342 0.637274 7.15123
250 2 0.170977 12.0852 4.54072 0.440342
4 4 1.487 15.1482 2.50217 4.07832
106 3 -0.81534 12.1942 2.42775 7.0271
232 3 -0.812066 14.6177 1.31335 3.14035
129 2 -0.015514 12.2484 0.626971 5.06726
130 2 0.106631 7.48438 5.97272 3.74264
169 2 0.232255 11.7462 5.67229 5.96532
234 2 0.164593 11.5999 0.372139 1.97265
146 2 0.173732 7.78825 4.54172 6.5346
103 3 -0.777962 5.66559 6.00279 1.32224
145 2 0.177838 7.38801 6.38189 6.71669
170 2 0.171779 10.0176 4.87837 5.68263
171 2 0.17725 11.5747 4.01744 5.12507
231 1 -0.672679 11.8751 0.448133 3.07785
224 2 0.160669 9.26756 1.29495 1.48718
11 4 1.47019 12.933 6.1924 8.96574
36 4 1.31022 8.97761 2.26396 9.06699
52 1 -0.677432 10.2965 1.09903 9.76704
249 1 -0.653027 13.9367 5.75141 15.9964
100 3 -0.802665 8.2964 3.04413 10.3963
107 3 -0.836697 12.2026 4.66658 8.50339
110 2 -0.00637141 14.5308 2.60611 10.1054
188 3 -0.815337 8.846 2.10999 14.5831
202 2 0.169205 13.904 3.69978 11.3671
163 2 0.187243 11.1906 1.6709 9.74141
144 2 0.184156 7.36953 5.23182 8.27594
165 2 0.240186 9.92303 0.799009 10.8873
172 4 1.03326 16.3093 2.7071 13.9012
173 1 -0.636734 14.5051 1.92205 13.6259
174 2 0.094341 14.5517 2.99869 14.7409
175 2 0.037778 15.7942 1.41389 12.5419
176 2 0.174962 13.9011 2.44555 12.7583
186 1 -0.681849 8.87165 6.50154 9.98048
178 4 1.13317 13.7091 5.76544 14.2822
180 4 1.29064 9.9484 1.52064 13.6473
181 4 1.32149 11.7567 3.95818 12.5162
205 2 0.196675 8.96718 5.4584 9.43532
185 1 -0.6946 12.8947 3.26163 11.0683
177 2 0.162899 14.025 0.873632 14.0251
189 3 -0.797947 10.9788 2.57975 12.9633
190 3 -0.818387 12.9488 4.633 13.5679
192 3 -0.798015 10.744 5.05609 12.0505
263 3 -0.820941 16.0875 0.804956 8.90749
199 2 0.183925 12.082 1.10986 14.5505
200 2 0.243671 12.6046 3.66062 10.0202
201 2 0.148189 12.7767 2.14669 11.2373
182 4 1.0385 10.6123 6.23463 10.8702
123 2 -0.0389978 5.28019 6.40621 10.4516
204 2 0.151366 8.02843 6.40777 10.6843
121 2 -0.0201804 6.85283 4.32897 12.2674
105 3 -0.775777 9.84402 3.38231 8.0624
184 1 -0.649818 11.0905 0.651283 14.8507
6 4 1.27383 16.0618 2.29403 9.37882
273 2 0.186541 10.811 0.760224 15.9803
67 3 -0.822637 12.7892 7.22476 7.70361
134 2 0.270828 8.81297 12.5049 5.69388
167 2 0.157164 8.61332 7.43542 2.5023
53 1 -0.651219 7.81797 7.3753 3.27123
104 3 -0.841752 4.93211 7.2012 3.67566
270 2 0.186601 0.839099 12.2028 1.25453
125 2 -0.0100736 3.87599 8.0017 1.26267
2 3 -0.78678 9.14892 11.9144 3.29992
166 2 0.00119532 6.81143 8.58802 2.24534
168 2 0.164056 8.1832 7.92642 4.1958
206 4 1.21034 9.20814 10.4411 3.99051
215 2 0.151791 4.99673 10.0118 6.69571
208 4 1.11866 7.53944 10.1147 6.65348
209 1 -0.669907 5.72659 9.19696 6.46033
255 2 0.15081 2.20604 12.2341 5.4412
211 3 -0.828756 8.30746 10.3605 5.28521
212 3 -0.796404 7.35008 11.4357 7.56974
213 2 -0.0205904 8.50445 9.23264 3.01379
254 1 -0.697243 1.95054 11.2227 5.09248
216 2 0.152651 5.69812 8.40217 7.28496
217 2 0.175501 5.67555 8.8113 5.4075
256 2 0.144471 2.12648 11.1053 3.9783
252 2 0.146785 10.7628 7.70746 0.61859
219 2 0.191026 9.18602 8.18153 6.96685
238 3 -0.798086 5.7957 12.1841 1.25311
240 2 0.145134 8.08823 10.2218 1.43493
38 4 1.01802 6.04018 7.02012 2.61908
233 2 0.153471 3.02668 12.4156 3.71728
258 1 -0.667248 5.76271 11.6121 4.1823
259 2 0.168295 6.32042 10.7787 3.68875
260 2 0.141588 4.7239 11.2768 4.52394
261 2 0.214281 6.3863 12.178 4.95689
257 2 0.151621 2.33162 10.3954 5.76754
237 1 -0.673915 7.64351 10.0961 0.333115
150 2 0.121654 2.36686 10.3651 0.565484
210 1 -0.666443 8.42212 8.70015 7.62259
230 4 1.13511 5.4162 12.8881 2.70172
239 2 0.127572 6.81945 9.25566 0.410894
268 2 0.194873 11.0572 8.95126 2.12146
225 2 0.116769 0.679541 12.904 3.08473
274 2 0.14539 7.54325 8.00833 7.87106
198 2 0.153416 2.69768 12.3762 14.546
40 4 0.879769 6.35608 11.576 13.0681
108 3 -0.781015 5.04465 10.6837 12.8317
109 3 -0.792146 6.88714 11.6576 14.5556
214 2 -0.0617957 5.57684 12.1367 9.43252
132 2 -0.0440787 7.58552 11.1573 12.0836
236 4 1.03729 7.57435 11.8811 16.0403
203 2 0.180897 8.71083 7.35689 9.2257
131 2 -0.0254837 6.06132 13.1702 12.4472
193 2 0.0596611 10.9693 9.47156 15.1858
218 2 0.166034 8.7791 9.18707 8.53154
194 2 0.0104794 9.53427 7.46925 11.5262
43 1 -0.634489 11.0131 10.667 14.1343
50 1 -0.649604 2.69303 10.7613 11.3537
264 2 0.0871122 9.21508 12.3619 15.8206
207 4 1.19056 6.57937 12.68 8.22876
34 4 0.98454 3.67478 9.74393 12.6164
191 3 -0.818671 11.9122 6.81675 10.1646
269 2 0.140758 10.2355 10.4536 13.321
157 2 0.14783 3.74249 11.2584 10.9195
241 2 0.186418 9.58289 10.3993 15.5384
164 2 0.162115 1.99946 12.9889 9.09255
158 2 0.23201 1.96116 11.5866 11.7627
ITEM: TIMESTEP
200
ITEM: NUMBER OF ATOMS
274
ITEM: BOX BOUNDS xy xz yz pp pp pp
-8.3770067333333333e+00 1.8007895366666666e+01 -8.3770067333333333e+00
0.0000000000000000e+00 1.3273200000000001e+01 1.1946016666666672e+00
0.0000000000000000e+00 1.6075500000000002e+01 4.3120000000000003e-01
ITEM: ATOMS id type q x y z
119 2 -0.0162026 7.50763 1.70828 5.04578
12 4 1.35421 -1.08566 6.17465 5.3192
7 4 1.0867 1.19679 1.95898 5.2929
9 4 1.29132 -0.554362 4.43127 1.92695
10 4 1.6424 0.443412 4.29149 7.33486
242 1 -0.650883 3.3618 0.51188 3.06969
21 4 0.825623 5.83241 1.78122 5.39051
26 4 1.2818 5.40792 4.66269 6.74084
41 1 -0.681399 1.11194 0.397837 6.32223
44 1 -0.686002 3.69404 3.95914 1.58604
55 3 -0.811579 0.935041 0.820726 1.05544
56 3 -0.816642 -0.0963752 2.13573 4.29459
58 3 -0.820671 -1.72627 4.0886 3.01562
59 3 -0.862932 -0.158547 3.32998 0.904111
243 2 0.139945 2.81996 1.4514 2.3883
61 3 -0.78165 1.24311 3.22114 6.35442
62 3 -0.845797 -0.406725 5.19826 6.33064
74 3 -0.780985 5.52797 0.684569 6.91105
78 3 -0.878224 0.677126 5.10523 2.5908
81 3 -0.808671 5.6335 3.28639 5.76806
84 3 -0.80678 2.75229 5.94409 4.23067
85 3 -0.804314 4.6535 5.8509 5.99333
113 2 0.0802793 -1.99474 5.25242 4.20629
111 2 0.000151139 2.65709 1.85314 4.31411
112 2 -0.0180386 -1.29068 5.58702 0.887151
5 4 1.33741 0.335189 2.03604 0.126647
118 2 0.0208695 4.66457 1.35906 4.04939
24 4 1.25095 4.79673 4.89819 0.384998
222 3 -0.800615 6.70948 1.5634 0.993253
223 2 -0.0807437 6.4771 1.1243 3.68537
141 2 0.159909 3.5689 2.84096 1.45075
142 2 0.197756 2.73431 4.48052 1.44564
143 2 0.193135 4.1915 4.22954 2.60173
220 4 1.01571 7.0368 0.4039 2.08385
135 2 0.239249 0.781995 0.607214 7.39359
25 4 1.42469 1.28886 6.29921 3.45223
138 2 0.159399 1.56815 0.836622 12.1874
8 4 1.31164 2.02049 2.91021 11.0266
13 4 1.2601 0.510858 5.23185 12.4484
229 2 -0.0228116 3.55849 6.68146 13.3453
20 4 1.26719 4.56755 2.96228 9.16402
23 4 1.23688 6.94595 2.86609 11.1767
99 3 -0.793281 7.84555 1.19692 8.34243
226 4 0.93739 3.51898 6.34666 15.065
42 1 -0.664128 2.48729 1.54504 12.269
57 3 -0.838411 0.532122 2.49096 10.5552
63 3 -0.861753 -0.275245 4.19348 13.3282
64 3 -0.810234 1.97119 4.59536 11.9837
65 3 -0.843087 -2.30982 5.95515 9.53457
66 3 -0.844884 -0.303645 5.7231 11.2287
73 3 -0.814903 3.12277 2.77658 9.9665
75 3 -0.852082 5.68966 3.05265 10.2504
76 3 -0.818183 6.86438 1.50494 12.0499
80 3 -0.766717 4.68779 4.26468 8.26786
266 2 0.0713996 -1.57682 4.88176 15.639
137 2 0.174986 3.44075 1.06556 11.8112
114 2 -0.0418162 0.901641 6.42989 13.6005
82 3 -0.807807 1.29832 5.32899 8.21121
124 2 0.0604064 3.35496 5.52447 11.9619
136 2 0.170767 2.76869 2.01389 13.3326
179 4 1.31327 7.5709 2.60714 15.6296
183 1 -0.65716 6.1307 1.6526 14.9161
248 2 0.159663 3.65648 3.52533 16.0289
60 3 -0.807414 -0.505496 3.38103 8.33579
196 2 0.187756 5.56596 2.43552 14.3368
77 3 -0.755505 7.04001 4.15733 15.7826
227 3 -0.826138 4.98407 6.01469 15.4262
195 2 0.278905 6.55546 0.845861 14.2434
245 1 -0.664573 3.08379 3.01627 15.1279
246 2 0.156225 2.7176 3.58515 14.1928
247 2 0.161246 3.53803 1.91878 14.9158
262 3 -0.817356 0.427453 2.04601 15.0406
228 2 -0.0187076 2.60055 4.9759 15.2235
197 2 0.174948 5.58803 1.3255 15.9059
117 2 0.0847036 4.87092 1.57795 8.1541
121 2 0.00652675 6.84341 4.04029 12.4345
67 3 -0.846073 -3.87754 7.08143 7.6574
3 3 -0.819129 -6.08483 11.3707 0.95366
253 2 0.169 -4.47041 8.41465 0.943919
16 4 1.43917 -3.19102 8.00431 6.52142
17 4 1.24657 -4.6298 9.84405 4.78242
154 2 0.177891 0.697193 9.2313 7.42463
161 2 0.195682 -1.29341 10.0381 0.386241
31 4 1.25484 -1.94525 10.5166 3.12379
33 4 1.11962 0.0906906 11.0188 5.53877
48 1 -0.661927 -1.16997 9.02334 2.15935
49 1 -0.653721 -0.11044 9.24747 6.53923
28 4 1.23803 3.98205 6.74465 4.86037
68 3 -0.883101 -1.96121 7.23031 5.96563
244 2 0.147498 -5.55883 12.925 3.94759
70 3 -0.813645 -4.21771 8.40449 5.29193
79 3 -0.849568 0.102546 6.95884 4.56003
87 3 -0.789098 1.60058 7.60772 2.3456
30 4 1.01818 2.09345 8.1929 0.936501
89 3 -0.756015 -2.04392 11.7827 1.91074
90 3 -0.804564 -3.42703 10.2045 3.67476
93 3 -0.829942 -0.79784 11.0196 4.19305
94 3 -0.801058 -0.263674 12.2562 6.51365
115 2 0.0156151 -4.32632 10.8157 6.15338
147 2 0.187483 1.76074 7.45123 6.48908
151 2 0.192785 -0.12358 9.35184 1.65352
152 2 0.162904 -1.94626 8.54668 1.49055
153 2 0.206365 -0.936615 8.37744 3.10062
265 2 0.202602 -4.49252 12.4871 2.41872
155 2 0.267563 0.0108366 8.4371 5.75216
156 2 0.259261 -1.22444 9.41912 6.913
46 1 -0.663764 2.36279 7.88145 7.3513
148 2 0.175143 3.53873 7.72324 7.2934
272 2 0.164874 0.507214 10.2509 0.179417
19 4 1.33733 -1.355 12.8279 7.60277
1 4 1.23783 -6.75591 12.4595 1.94915
271 2 0.15414 1.66589 10.3179 1.82361
91 3 -0.848317 -2.8262 9.74266 7.38079
133 2 0.133946 -6.13519 12.9817 6.25886
47 1 -0.686695 1.56282 10.0189 0.750938
149 2 0.148578 2.04883 8.98112 7.45538
122 2 -0.00308939 3.30492 8.13592 5.65339
69 3 -0.853905 -6.11693 10.1638 4.31981
159 2 0.181465 1.8814 10.1188 11.0827
18 4 1.22015 -2.37513 8.2545 12.7202
22 4 1.20652 -0.756631 12.909 12.0493
32 4 0.936341 -2.52194 10.4167 8.755
35 4 1.23537 -1.50926 10.7502 14.1799
29 4 0.916758 3.75705 6.94143 11.1591
160 2 0.146629 0.781676 10.934 14.7922
140 2 0.170217 -5.87985 11.6798 14.634
51 1 -0.637542 -0.130171 11.1395 15.4474
162 2 0.213549 -0.135183 12.2457 15.6878
72 3 -0.851305 -1.90035 7.93121 11.2741
83 3 -0.785617 0.100062 7.53673 9.27234
88 3 -0.806444 2.9216 7.63563 15.7173
92 3 -0.822313 -1.51628 11.606 8.92593
95 3 -0.808444 3.85608 8.37854 12.0197
96 3 -0.785441 -1.29255 9.24658 13.4483
97 3 -0.830845 -1.48466 12.0041 13.1637
98 3 -0.767321 -3.0363 10.645 15.1684
116 2 -0.0299756 -3.86211 8.97098 12.4143
120 2 0.0537316 -1.04083 12.0884 10.6106
126 2 0.0477232 -1.91383 9.22607 9.71378
127 2 -0.0519393 -3.96269 10.5965 9.59667
128 2 0.0245883 2.44445 10.2907 13.4581
139 2 0.163876 -4.96179 10.7374 13.4101
187 3 -0.811575 0.816231 13.1099 12.4275
27 4 1.36581 1.5787 6.8432 8.78503
71 3 -0.828685 -2.71103 6.92452 13.665
86 3 -0.781995 2.78441 6.96089 9.90519
14 4 1.49748 -1.1106 6.75373 10.2891
15 4 1.07744 -4.30923 10.5948 16.069
158 2 0.235428 1.77696 11.7324 12.0006
235 2 0.150235 11.9804 1.44955 3.70942
37 4 1.29042 13.3951 1.60175 6.12621
221 1 -0.667437 8.91242 0.196181 2.02293
39 4 1.26508 11.3523 3.65192 7.37941
45 1 -0.654728 7.16957 5.40269 7.13354
54 1 -0.669782 11.1605 4.77671 5.86499
101 3 -0.812562 14.2822 2.63267 5.35007
102 3 -0.857876 14.1999 0.60599 7.0169
250 2 0.193126 11.7941 4.22848 0.329514
4 4 1.44707 15.2386 2.48415 3.92236
106 3 -0.816125 12.2201 2.37649 6.89815
232 3 -0.795527 14.5432 1.28629 2.96137
129 2 -0.00805567 12.5134 0.532935 5.07793
130 2 0.0643436 7.53538 5.90232 3.4314
169 2 0.227994 11.4595 5.76769 6.19092
234 2 0.180154 11.6529 0.331956 2.11795
146 2 0.176706 7.76064 4.6457 6.4492
103 3 -0.765698 5.69608 6.08816 1.4192
145 2 0.160225 7.36146 6.49645 6.88302
170 2 0.166927 10.0785 4.81747 5.51819
171 2 0.182615 11.9017 4.23473 5.1407
231 1 -0.662696 11.9409 0.366725 3.19145
224 2 0.173587 9.40181 1.04274 1.51438
225 2 0.156339 9.08415 0.203571 3.16023
105 3 -0.762467 9.71115 3.23211 7.94754
267 2 0.175428 12.464 5.97906 0.565314
249 1 -0.640535 12.575 4.99094 0.0464926
273 2 0.182173 9.56622 0.201417 0.0346785
11 4 1.47809 13.0412 6.23375 8.97109
36 4 1.28263 8.96139 2.27289 9.05931
52 1 -0.65997 10.263 1.08925 9.75009
123 2 -0.0246669 5.23601 6.46009 10.5846
100 3 -0.796 8.34599 3.1829 10.3352
107 3 -0.750569 12.2736 4.55781 8.52037
110 2 0.000557329 14.712 2.67008 10.4177
188 3 -0.760984 8.73678 2.16985 14.4919
202 2 0.172167 13.9551 3.84609 11.6855
163 2 0.169104 11.3597 1.39887 9.84305
144 2 0.189816 7.31174 5.24613 8.26042
165 2 0.225208 9.75614 0.833889 10.8383
172 4 1.00581 16.3171 2.62839 13.8202
173 1 -0.646959 14.4485 1.92879 13.6262
174 2 0.1142 14.4964 2.7885 14.8803
175 2 0.00391939 15.9005 1.46462 12.5077
176 2 0.183507 13.9183 2.39677 12.7755
186 1 -0.667945 8.95497 6.36003 9.97129