ITEM: TIMESTEP
0
ITEM: NUMBER OF ATOMS
274
ITEM: BOX BOUNDS xy xz yz pp pp pp
-8.3797999999999995e+00 1.8013900000000000e+01 -8.3797999999999995e+00
0.0000000000000000e+00 1.3273200000000001e+01 1.1950000000000001e+00
0.0000000000000000e+00 1.6075500000000002e+01 4.3120000000000003e-01
ITEM: ATOMS id type q x y z
119 2 -0.0243389 7.55348 1.61287 5.04536
12 4 1.32118 -1.0137 6.30631 5.39939
7 4 1.10523 1.17238 2.01925 5.37689
9 4 1.28098 -0.64379 4.41894 2.03606
10 4 1.62167 0.44154 4.30118 7.29669
242 1 -0.653507 3.37739 0.558872 3.1296
21 4 0.825276 5.93031 1.64792 5.54532
26 4 1.2743 5.58618 4.578 6.67629
41 1 -0.664173 1.13344 0.325103 6.26414
44 1 -0.672904 4.27868 3.76288 1.92681
55 3 -0.798086 1.05764 0.909377 1.15743
56 3 -0.819389 -0.25113 2.3407 4.71679
58 3 -0.814721 -1.84602 4.25116 3.10874
59 3 -0.838061 -0.245213 3.21481 1.11541
243 2 0.157675 2.94649 1.54116 2.44771
61 3 -0.756669 1.49608 3.09687 6.49661
62 3 -0.865372 -0.486567 5.17022 6.33399
74 3 -0.796196 5.51983 0.514992 7.07665
78 3 -0.849172 0.569133 4.962 2.80478
81 3 -0.818993 5.82777 3.18152 5.85354
84 3 -0.77478 2.77229 5.79464 4.24223
85 3 -0.770076 4.78667 5.75446 5.80558
113 2 0.0881809 -1.91268 5.46141 4.21112
111 2 0.00992151 2.50763 1.95516 4.20648
112 2 -0.0307591 -1.13692 5.52562 0.866437
5 4 1.36456 0.270311 2.00959 0.21286
118 2 0.0210292 4.6262 1.13275 4.31195
24 4 1.21609 4.88743 4.71128 0.436733
222 3 -0.754983 6.56213 1.39768 1.15923
223 2 -0.087699 6.47773 0.979954 3.80993
141 2 0.199269 4.70129 2.74222 2.00133
142 2 0.176341 3.18992 3.74035 1.61547
143 2 0.212952 4.54237 4.4319 2.82455
220 4 1.00277 7.01171 0.309555 2.17905
135 2 0.223942 1.34057 0.527671 7.38439
25 4 1.37993 1.29792 6.23384 3.52825
244 2 0.0986707 2.70942 0.164323 4.07343
138 2 0.158196 1.5321 0.944976 12.4638
8 4 1.29894 2.01872 2.85932 10.9381
13 4 1.25707 0.62757 5.17842 12.3369
229 2 -0.0251864 3.47957 6.68112 13.2854
20 4 1.2415 4.67047 2.89873 9.15616
23 4 1.27483 7.03077 3.03117 11.1907
99 3 -0.780308 7.91693 1.23287 8.12758
226 4 0.891052 3.44806 6.39282 15.0005
42 1 -0.663806 2.38714 1.67275 12.3496
57 3 -0.841113 0.583017 2.38306 10.4903
63 3 -0.861613 -0.0313105 4.01205 13.2232
64 3 -0.803299 2.09353 4.65291 11.7653
65 3 -0.852487 -2.35342 6.07134 9.71606
66 3 -0.883305 -0.305863 5.81259 11.3191
73 3 -0.781846 3.18168 2.62737 9.8316
75 3 -0.846014 5.70329 3.04541 10.3698
76 3 -0.834021 6.99339 1.69544 12.0279
80 3 -0.747436 4.76533 4.21136 8.17917
266 2 0.0633793 -1.62196 4.98416 15.3882
137 2 0.169091 3.314 1.07701 12.0285
114 2 -0.0528248 0.942662 6.29592 13.5343
197 2 0.203792 5.3707 0.991627 15.9023
124 2 0.0502699 3.55655 5.40343 12.0355
136 2 0.165924 2.49148 2.31685 13.4057
179 4 1.24471 7.39724 2.41245 15.5483
183 1 -0.671125 5.85873 1.45344 14.9734
82 3 -0.808316 1.37657 5.38646 8.05396
60 3 -0.830338 -0.419852 3.51589 8.39135
196 2 0.161122 5.2948 2.43078 14.5768
6 4 1.31808 -0.610116 2.3546 9.42538
227 3 -0.782751 4.80099 5.83478 15.5828
195 2 0.259198 6.22961 0.726974 14.1921
245 1 -0.675688 2.8847 3.22801 15.1987
246 2 0.148591 2.38264 3.785 14.3567
247 2 0.163838 3.53987 2.41439 14.7338
262 3 -0.836501 0.3742 2.04361 15.1887
228 2 -0.0212294 2.35897 5.12802 15.3867
117 2 0.102522 5.05556 1.63341 8.10194
77 3 -0.765595 7.00346 4.0356 15.6914
248 2 0.171477 3.48134 3.91501 15.8685
251 1 -0.678737 -5.34897 8.52026 1.07893
3 3 -0.777284 -5.97927 11.3334 1.06133
253 2 0.167528 -4.39272 8.01497 0.759902
16 4 1.52726 -3.28609 8.14959 6.74803
17 4 1.26416 -4.64933 10.0462 4.81132
154 2 0.184058 0.765104 9.45737 7.28819
161 2 0.191086 -1.2549 9.73439 0.28467
31 4 1.28129 -2.11321 10.3917 3.03197
33 4 1.12505 0.0458024 10.999 5.47119
48 1 -0.654905 -1.58077 8.75718 2.04742
49 1 -0.663739 -0.0784258 9.41583 6.51852
28 4 1.1997 3.92748 6.74553 4.82449
68 3 -0.853104 -2.06733 7.28523 6.1162
268 2 0.217728 -5.20516 8.96126 2.09638
70 3 -0.830756 -4.28568 8.78979 5.71904
79 3 -0.866714 0.174373 7.11121 4.74099
87 3 -0.803216 1.78842 7.20493 2.25038
30 4 1.03475 2.27244 8.0975 1.02426
89 3 -0.751706 -2.03017 11.6195 1.90186
90 3 -0.848359 -3.55175 10.1749 3.61279
93 3 -0.807339 -0.882412 10.7776 4.10588
94 3 -0.852051 -0.475665 12.1474 6.44849
115 2 -0.0222976 -4.42975 11.3644 5.8242
147 2 0.191028 1.77505 7.51254 6.50444
151 2 0.179529 -0.419351 9.04019 1.74839
152 2 0.171386 -2.32578 8.555 1.24718
153 2 0.16489 -1.67389 8.02368 2.92336
265 2 0.198801 -4.451 12.5663 2.53351
155 2 0.275896 0.0188227 8.50285 5.81441
156 2 0.292546 -1.11503 9.45748 7.04013
46 1 -0.665223 2.34539 7.96821 7.37354
148 2 0.160551 3.49277 7.77428 7.43588
272 2 0.17987 0.536013 9.98885 0.414686
19 4 1.35658 -1.28727 12.7957 7.58459
1 4 1.21813 -6.72158 12.5016 2.05387
271 2 0.171936 1.1553 9.838 2.36068
91 3 -0.835618 -2.72961 9.60416 7.68111
133 2 0.130229 -6.39319 12.633 5.70673
47 1 -0.667866 1.40309 9.79383 1.24847
149 2 0.153016 2.10369 9.05425 7.61542
122 2 -0.00696569 3.25703 8.12416 5.62948
15 4 1.06419 -5.39354 10.1096 0.0500169
159 2 0.197735 1.9491 10.0561 10.6848
18 4 1.23194 -2.28671 8.45748 12.6243
22 4 1.2545 -0.752784 13.0294 12.048
32 4 0.970934 -2.67151 10.6046 8.86925
35 4 1.23068 -1.50746 10.7819 14.2645
29 4 0.956241 3.71054 6.74821 11.0501
160 2 0.175609 0.868542 10.2667 14.6553
267 2 0.167305 -2.49865 7.12246 15.7904
51 1 -0.633134 0.110011 10.7802 15.3028
162 2 0.196183 0.373301 11.871 15.4255
72 3 -0.790241 -1.63623 8.2191 11.1373
83 3 -0.75641 0.0249911 7.52856 9.11552
88 3 -0.772786 3.17368 7.8835 15.595
92 3 -0.799237 -1.45032 11.5716 9.06395
95 3 -0.811798 3.76149 8.19285 11.8028
96 3 -0.809107 -1.36451 9.29791 13.5846
97 3 -0.831613 -1.45915 12.0622 13.0759
98 3 -0.778805 -2.89314 10.8068 15.3569
116 2 -0.0327438 -3.77365 9.1163 12.249
120 2 0.0881261 -0.949248 12.3801 10.4696
126 2 0.0314909 -2.69332 9.70479 10.306
127 2 -0.0554594 -4.11958 11.3841 9.20144
128 2 0.0397916 2.41617 10.1531 13.1476
139 2 0.145698 -4.66133 10.2044 13.6278
187 3 -0.822214 0.791835 13.1236 12.2679
27 4 1.39082 1.53937 6.81294 8.75662
71 3 -0.837496 -2.74201 7.08103 13.2733
86 3 -0.79687 2.62709 6.80499 9.88784
14 4 1.52429 -1.08716 6.76741 10.298
140 2 0.159275 -5.86192 11.494 14.1339
235 2 0.161385 11.9888 1.83269 3.35364
37 4 1.29178 13.1604 1.62139 6.13936
221 1 -0.64506 8.90136 0.287638 1.88167
39 4 1.26427 11.4506 3.76178 7.494
45 1 -0.67772 7.27859 5.28413 7.16684
54 1 -0.666893 11.0764 4.93052 6.03138
101 3 -0.834295 13.9775 2.71716 5.36395
102 3 -0.859825 14.0411 0.622405 6.95378
250 2 0.193364 12.0284 5.26013 0.330464
4 4 1.43148 15.093 2.63994 4.1333
106 3 -0.831701 11.9906 2.30499 6.95485
232 3 -0.787825 14.6424 1.35057 3.11839
129 2 -0.00679386 12.3268 0.765508 4.96409
130 2 0.0483279 7.25201 5.78351 3.53189
169 2 0.224203 11.5208 5.92868 6.24076
234 2 0.18325 11.5312 0.64087 1.93948
146 2 0.204574 7.87754 4.30786 7.23309
103 3 -0.758243 5.71136 6.08147 1.37999
145 2 0.170911 7.69376 5.96071 6.42861
170 2 0.173127 9.94782 5.04229 5.91058
171 2 0.174553 11.6297 4.32186 5.20892
225 2 0.124227 9.11066 0.821389 2.96917
224 2 0.198226 8.91209 0.970977 0.95951
231 1 -0.665566 11.9082 0.708953 3.03091
230 4 1.09557 13.7321 0.0937378 2.79594
11 4 1.48586 12.9702 6.22175 9.0607
36 4 1.27613 9.12011 2.39579 9.05788
52 1 -0.679798 10.3776 1.25078 9.78913
249 1 -0.622223 14.041 5.99632 15.7163
100 3 -0.821028 8.33653 3.10995 10.2808
107 3 -0.810579 12.5029 4.68796 8.57808
110 2 0.00294068 14.8002 2.77877 10.3596
188 3 -0.777747 8.72426 1.98237 14.6418
202 2 0.156598 14.1044 3.75671 11.7395
163 2 0.171168 11.3376 1.90198 9.82929
144 2 0.174015 7.20167 5.80388 8.17876
165 2 0.250168 10.1204 0.85832 10.8295
172 4 0.989402 16.325 2.56221 13.9058
173 1 -0.649597 14.6103 1.6372 13.308
174 2 0.0793366 14.5066 2.72224 14.5613
175 2 0.0344485 16.186 1.14177 12.6846
176 2 0.166429 14.0497 2.20534 12.5437
186 1 -0.682214 8.90645 6.37779 9.9309
178 4 1.09204 13.8517 5.67887 14.0157
180 4 1.24701 9.91815 1.467 13.595
181 4 1.30463 11.7988 3.87349 12.5499
205 2 0.21957 9.20877 5.47679 9.26068
185 1 -0.694374 13.1247 3.3806 11.194
177 2 0.1702 13.8973 0.743907 13.7217
189 3 -0.802514 10.9684 2.5386 13.0057
190 3 -0.793249 12.7626 4.57037 13.7935
192 3 -0.779938 10.8187 4.95928 11.8703
263 3 -0.850449 15.989 0.975741 8.70814
199 2 0.189029 12.0061 0.957403 14.6385
200 2 0.259274 12.885 3.99737 10.1782
201 2 0.137284 12.9127 2.27017 11.1821
182 4 1.03543 10.5497 6.28726 10.9169
164 2 0.172503 10.4504 0.443348 8.9811
204 2 0.143788 7.89276 6.21699 10.486
121 2 -0.0164375 7.07822 4.30087 12.2636
105 3 -0.799892 9.89102 3.48417 8.18478
184 1 -0.656851 11.0325 0.429755 14.7561
123 2 -0.0479708 5.27285 6.32579 10.6016
207 4 1.25157 6.57468 12.817 8.02957
134 2 0.239737 8.58568 12.7472 6.01444
167 2 0.168679 9.02178 7.10044 2.92516
53 1 -0.636873 7.96277 7.41877 3.21554
104 3 -0.818662 4.90332 7.41874 3.69709
270 2 0.186563 0.867271 12.0575 1.72348
125 2 0.0069355 3.93476 8.32006 1.10288
2 3 -0.821299 9.00097 11.7436 3.07347
166 2 0.0593256 7.26612 8.41861 2.24866
168 2 0.173061 7.86194 7.9505 4.24411
206 4 1.22866 9.21325 10.3711 3.86706
215 2 0.166833 5.37489 10.0476 6.01967
208 4 1.10439 7.61688 10.0498 6.71227
209 1 -0.670663 5.9518 9.11424 6.40138
255 2 0.156046 1.55956 12.639 5.0647
211 3 -0.780063 8.24324 10.1587 5.14306
212 3 -0.807388 7.14665 11.4135 7.42961
213 2 0.0141307 8.85198 9.06331 2.78837
254 1 -0.676775 1.76189 11.5016 4.8115
216 2 0.148275 5.54129 8.69268 7.31747
217 2 0.197546 5.98152 8.34731 5.63682
256 2 0.160588 1.99029 11.252 3.7416
252 2 0.152213 10.4969 7.93944 0.929059
239 2 0.141597 6.80464 9.35377 0.233101
238 3 -0.768912 5.57985 12.1855 1.15796
240 2 0.174671 7.99168 10.5902 1.15495
38 4 1.00467 6.069 6.86598 2.68409
233 2 0.162427 2.86322 12.8742 3.73138
258 1 -0.678321 5.6939 11.4865 4.03303
259 2 0.173874 5.88145 10.5877 3.37376
260 2 0.148522 4.83135 11.4295 4.65043
261 2 0.226373 6.64099 11.7793 4.67037
257 2 0.134643 2.59234 11.0766 5.46408
237 1 -0.681357 7.56631 10.2711 0.172153
150 2 0.141456 2.35744 10.4113 1.0394
210 1 -0.659242 8.71965 8.94545 7.86723
219 2 0.202302 9.52132 8.36547 7.37173
69 3 -0.842822 10.6696 9.98846 4.35098
67 3 -0.830805 12.8054 7.24037 7.78556
198 2 0.165609 2.48515 12.3078 14.164
40 4 0.9418 6.26987 11.4443 13.1749
108 3 -0.833778 5.06129 10.5769 12.8772
109 3 -0.835688 6.73232 11.813 14.6023
214 2 -0.0555364 5.60816 12.3378 9.25766
132 2 -0.0527112 7.57486 10.8247 12.2723
236 4 1.10033 7.39815 12.0208 15.9593
203 2 0.173229 8.85796 7.29225 9.27098
131 2 -0.0238483 6.27642 12.8385 12.226
193 2 0.0565695 11.0531 9.52166 15.4705
218 2 0.154211 9.19142 9.61166 8.68923
194 2 2.30377e-06 9.40463 7.52918 11.419
43 1 -0.643019 11.1259 10.4032 14.0104
158 2 0.233421 1.98925 11.7159 11.5821
264 2 0.0670398 9.02482 12.612 15.7721
273 2 0.185523 2.3334 13.2595 15.8391
34 4 1.01264 3.83966 9.72993 12.2594
191 3 -0.792131 11.8295 6.94159 10.2077
269 2 0.144147 10.3625 9.99687 13.3102
157 2 0.105727 3.5081 11.1283 10.5135
241 2 0.175285 9.60626 10.612 15.4106
274 2 0.13597 7.82651 8.29402 8.20664
50 1 -0.661291 2.54307 10.7861 11.3033
ITEM: TIMESTEP
100
ITEM: NUMBER OF ATOMS
274
ITEM: BOX BOUNDS xy xz yz pp pp pp
-8.3797999999999995e+00 1.8016040333333333e+01 -8.3797999999999995e+00
0.0000000000000000e+00 1.3273200000000001e+01 1.1971403333333335e+00
0.0000000000000000e+00 1.6075500000000002e+01 4.3120000000000003e-01
ITEM: ATOMS id type q x y z
119 2 -0.0264043 7.709 1.59311 5.08788
12 4 1.32855 -0.959052 6.25285 5.36179
7 4 1.12521 1.14438 2.07823 5.41653
9 4 1.28209 -0.613174 4.50027 1.96615
10 4 1.56793 0.380948 4.32245 7.30606
242 1 -0.638794 3.36093 0.447185 3.15373
21 4 0.809682 6.06046 1.65868 5.44313
26 4 1.26479 5.47986 4.65355 6.73831
41 1 -0.663883 1.12888 0.319809 6.16853
44 1 -0.668412 3.94454 3.7876 1.79651
55 3 -0.784073 0.974896 0.942414 1.05799
56 3 -0.829618 -0.204921 2.1632 4.58927
58 3 -0.801119 -1.76027 4.14116 3.07411
59 3 -0.84678 -0.306534 3.40376 0.919302
243 2 0.146189 2.83959 1.3898 2.51367
61 3 -0.75531 1.5386 3.19502 6.49058
62 3 -0.857885 -0.586896 4.9908 6.20185
74 3 -0.809776 5.64011 0.607097 7.12997
78 3 -0.843407 0.68256 4.93447 2.62415
81 3 -0.769025 5.82445 3.17839 5.51012
84 3 -0.776534 2.80937 5.94162 4.23292
85 3 -0.803175 4.75491 5.79447 5.9608
113 2 0.0931964 -1.83739 5.4311 4.14592
111 2 0.0166964 2.44656 1.82148 4.21516
112 2 -0.0294267 -1.20076 5.90532 1.22085
5 4 1.28603 0.321547 2.11452 0.147648
118 2 0.0333746 4.72643 1.08312 4.27848
24 4 1.2845 4.83661 4.81183 0.484557
222 3 -0.781183 6.51674 1.43731 0.94006
223 2 -0.0868231 6.55958 0.976824 3.76663
141 2 0.188311 4.27804 2.70084 1.78764
142 2 0.192467 2.85103 3.96317 1.51318
143 2 0.221275 4.14521 4.3044 2.79347
220 4 1.02124 7.04083 0.399095 2.08659
135 2 0.239883 0.995617 0.336702 7.29056
25 4 1.37814 1.31884 6.36912 3.37625
267 2 0.167804 -3.85995 6.27733 0.487408
197 2 0.19984 4.54528 0.478669 0.00673557
138 2 0.181168 1.49115 0.955186 12.528
8 4 1.24903 1.95071 2.75711 10.9726
13 4 1.2473 0.70774 5.13281 12.4219
229 2 -0.0283407 3.781 6.66846 13.1376
20 4 1.2648 4.68785 2.96801 9.13336
23 4 1.26994 6.94726 2.95448 11.2525
99 3 -0.857975 7.94537 1.33484 8.37064
226 4 0.917896 3.63375 6.39855 14.9102
42 1 -0.660488 2.36601 1.60068 12.3888
57 3 -0.813602 0.37724 2.45027 10.5224
63 3 -0.871646 -0.0511812 4.05614 13.2844
64 3 -0.789868 2.13173 4.36639 11.9042
65 3 -0.820018 -2.27956 6.08073 9.46266
66 3 -0.835867 -0.199331 5.83115 11.3638
73 3 -0.762936 3.17191 2.67434 9.77264
75 3 -0.872102 5.69949 3.0547 10.2535
76 3 -0.831153 7.08477 1.6411 12.0897
80 3 -0.781802 4.78531 4.29729 8.1615
266 2 0.0674268 -1.57072 5.05945 15.3892
137 2 0.166316 3.30199 1.11068 11.9709
114 2 -0.0373114 1.17955 6.46873 13.3226
82 3 -0.818438 1.36451 5.39346 8.06271
124 2 0.0505806 3.59896 5.38049 11.7626
136 2 0.182081 2.59538 2.29303 13.4436
179 4 1.31807 7.54248 2.46835 15.5179
183 1 -0.658582 6.12203 1.29395 15.0335
248 2 0.169745 3.33933 4.16198 15.9703
60 3 -0.805118 -0.652725 3.45928 8.25934
196 2 0.171087 5.38715 1.98547 14.5489
77 3 -0.750178 6.93213 4.02212 15.6605
227 3 -0.829492 4.88689 5.84899 15.645
195 2 0.273238 6.35977 0.492307 14.286
245 1 -0.670902 2.97873 3.34543 15.1823
246 2 0.169612 2.74455 3.71712 14.1746
247 2 0.159378 3.57091 2.28618 15.1929
262 3 -0.774189 0.487884 1.8406 14.9322
228 2 -0.0204265 2.40518 5.26194 14.9104
117 2 0.111716 5.10619 1.61431 8.14526
251 1 -0.660435 -5.39276 8.48092 1.09315
3 3 -0.795398 -6.24415 11.3036 0.934597
253 2 0.171814 -4.30457 8.21865 0.985882
16 4 1.47577 -3.24045 8.05792 6.61019
17 4 1.25327 -4.64236 9.92362 4.88131
154 2 0.17191 0.976205 9.5839 7.12703
161 2 0.194566 -1.38141 9.88731 0.339411
31 4 1.24409 -2.1632 10.4463 2.94372
33 4 1.12205 0.0607577 11.0947 5.35893
48 1 -0.663318 -1.47518 8.88624 2.09322
49 1 -0.648587 0.0989743 9.55081 6.40468
28 4 1.26268 3.99331 6.70308 4.88664
68 3 -0.862574 -2.05488 7.30422 5.97558
244 2 0.154908 -5.69442 12.8211 4.03756
70 3 -0.806316 -4.32071 8.43746 5.47936
79 3 -0.857265 0.244202 6.96335 4.66144
87 3 -0.828488 1.56925 7.57969 2.35397
30 4 1.01295 2.21966 8.06598 0.988595
89 3 -0.778713 -1.9287 11.8016 1.88243
90 3 -0.817108 -3.53855 10.3491 3.73357
93 3 -0.778293 -0.886046 10.6871 4.14858
94 3 -0.803716 -0.57412 12.2164 6.37773
115 2 -0.0191032 -4.62741 11.1527 6.07135
147 2 0.187525 1.80469 7.81843 6.52557
151 2 0.200836 -0.39858 9.21417 1.7094
152 2 0.149456 -2.08634 8.3351 1.28071
153 2 0.189889 -1.30526 8.26472 3.08124
265 2 0.191005 -4.49315 12.4477 2.49426
155 2 0.249063 0.189869 8.73807 5.60351
156 2 0.292568 -0.978779 9.58201 6.92915
46 1 -0.674674 2.32634 8.06236 7.45094
148 2 0.185826 3.33608 7.78831 7.42012
272 2 0.163745 0.449519 10.0625 0.28288
19 4 1.37979 -1.36713 12.9499 7.72311
1 4 1.20453 -6.74894 12.4775 1.98447
271 2 0.186111 1.20969 9.98751 2.13786
91 3 -0.822006 -2.55326 9.63838 7.57351
133 2 0.132669 -6.15449 12.9259 5.87718
47 1 -0.64231 1.41326 9.81209 1.03156
149 2 0.14729 2.11455 9.1766 7.79264
122 2 -0.00687331 3.32701 8.05812 5.71998
69 3 -0.836209 -6.04079 10.0999 4.25381
159 2 0.192542 2.24404 9.89476 10.7579
18 4 1.18418 -2.34837 8.31376 12.7044
22 4 1.23827 -0.62406 12.9668 12.1057
32 4 0.951298 -2.59525 10.5323 8.86619
35 4 1.20559 -1.62894 10.6889 14.3393
29 4 0.904064 3.80206 6.93171 11.0165
160 2 0.165923 0.791331 10.5389 14.7932
140 2 0.174558 -6.06049 11.7464 14.54
51 1 -0.650077 -0.110413 10.882 15.3764
162 2 0.205287 -0.126424 12.0337 15.4683
72 3 -0.817172 -1.73755 8.13966 11
83 3 -0.801525 0.0904784 7.3642 9.21072
88 3 -0.802368 3.0152 7.65295 15.6682
92 3 -0.826161 -1.70296 11.8092 9.08042
95 3 -0.802148 3.83057 8.28 12.0094
96 3 -0.770152 -1.29126 9.27623 13.4314
97 3 -0.797661 -1.50102 12.0798 13.1187
98 3 -0.824828 -2.98677 10.6568 15.272
116 2 -0.0425358 -3.67081 9.31228 12.6761
120 2 0.0782598 -0.937817 12.2986 10.5884
126 2 0.0992864 -2.09974 9.44252 10.0264
127 2 -0.0538309 -4.14109 10.6512 9.52265
128 2 0.0103684 2.13169 10.2859 13.2017
139 2 0.156542 -4.81367 10.6605 13.586
187 3 -0.829933 0.909812 13.0029 12.4051
27 4 1.42367 1.53338 6.81517 8.76542
71 3 -0.864588 -2.67022 7.04714 13.5137
86 3 -0.79984 2.66624 6.93656 9.88237
14 4 1.52268 -1.07677 6.81737 10.2866
15 4 1.05444 -4.30926 10.5166 16.0711
235 2 0.160803 11.6463 1.45536 3.45292
37 4 1.28031 13.2213 1.56528 6.14672
221 1 -0.649801 8.93218 0.262209 1.84319
39 4 1.34552 11.425 3.76166 7.50101
45 1 -0.659784 7.20649 5.35466 7.12949
54 1 -0.659121 11.1366 4.7606 5.87414
101 3 -0.818223 14.0323 2.59072 5.32046
102 3 -0.834427 14.0342 0.637273 7.15126
250 2 0.170984 12.0851 4.54059 0.440232
4 4 1.48701 15.1482 2.50221 4.07834
106 3 -0.815333 12.1942 2.42775 7.0271
232 3 -0.811958 14.6176 1.31338 3.14036
129 2 -0.0155129 12.2484 0.626957 5.06727
130 2 0.106632 7.48439 5.9727 3.74259
169 2 0.232255 11.7462 5.67229 5.96531
234 2 0.164588 11.5994 0.372307 1.97275
146 2 0.173733 7.78825 4.54173 6.53461
103 3 -0.777963 5.66559 6.00279 1.32224
145 2 0.177839 7.38801 6.38188 6.71669
170 2 0.17178 10.0176 4.87838 5.68262
171 2 0.177253 11.5747 4.01744 5.12506
231 1 -0.672695 11.8748 0.448246 3.07788
224 2 0.160674 9.2677 1.29486 1.48718
11 4 1.47018 12.933 6.19241 8.96572
36 4 1.31021 8.97761 2.26396 9.06699
52 1 -0.677435 10.2965 1.09902 9.76705
249 1 -0.653023 13.9365 5.75139 15.9964
100 3 -0.802666 8.2964 3.04413 10.3963
107 3 -0.836696 12.2026 4.66659 8.50339
110 2 -0.0063625 14.5314 2.60593 10.1058
188 3 -0.815319 8.84602 2.10998 14.5831
202 2 0.169197 13.9042 3.69988 11.3671
163 2 0.187248 11.1906 1.67088 9.74142
144 2 0.184156 7.36954 5.23182 8.27594
165 2 0.24019 9.92303 0.799015 10.8873
172 4 1.03325 16.3093 2.7071 13.9012
173 1 -0.636733 14.5051 1.92204 13.626
174 2 0.0943593 14.5516 2.99863 14.7408
175 2 0.0377551 15.7943 1.41388 12.5419
176 2 0.174946 13.9012 2.4455 12.7582
186 1 -0.681846 8.87166 6.50153 9.98049
178 4 1.13316 13.7091 5.76542 14.2822
180 4 1.29063 9.94846 1.52067 13.6472
181 4 1.3215 11.7569 3.9581 12.516
205 2 0.196672 8.96718 5.45835 9.43536
185 1 -0.694625 12.8949 3.26151 11.0683
177 2 0.162903 14.025 0.873613 14.0251
189 3 -0.797922 10.9789 2.57979 12.9633
190 3 -0.818377 12.9487 4.63294 13.5678
192 3 -0.797987 10.7441 5.05602 12.0505
263 3 -0.820968 16.0875 0.804984 8.90753
199 2 0.183917 12.082 1.11002 14.5504
200 2 0.243665 12.6048 3.66056 10.0201
201 2 0.148172 12.7772 2.14653 11.2372
182 4 1.03848 10.6123 6.23461 10.8702
123 2 -0.0389982 5.2802 6.4062 10.4516
204 2 0.151365 8.02846 6.4078 10.6844
121 2 -0.0201794 6.85284 4.32897 12.2674
105 3 -0.775777 9.84401 3.38231 8.0624
184 1 -0.649816 11.0905 0.651297 14.8506
6 4 1.27392 16.0624 2.29409 9.37906
273 2 0.186542 10.811 0.760138 15.9802
67 3 -0.822637 12.7892 7.22478 7.70359
134 2 0.270828 8.813 12.5049 5.69389
167 2 0.157165 8.61335 7.43549 2.50234
53 1 -0.651215 7.81796 7.37531 3.27123
104 3 -0.841754 4.93211 7.2012 3.67566
270 2 0.186598 0.83916 12.2028 1.25461
125 2 -0.0100752 3.87599 8.0017 1.26267
2 3 -0.786793 9.14886 11.9145 3.29987
166 2 0.00119596 6.8114 8.58803 2.24542
168 2 0.164059 8.18316 7.92642 4.19583
206 4 1.21029 9.20776 10.4412 3.99046
215 2 0.151795 4.99672 10.0118 6.69573
208 4 1.11866 7.53941 10.1147 6.65352
209 1 -0.669907 5.72657 9.19695 6.46035
255 2 0.150812 2.20604 12.234 5.44122
211 3 -0.828775 8.30718 10.3605 5.28512
212 3 -0.796421 7.35005 11.4358 7.56978
213 2 -0.0205996 8.5039 9.23289 3.01369
254 1 -0.697249 1.95052 11.2226 5.09251
216 2 0.152654 5.69811 8.40218 7.28496
217 2 0.175504 5.67553 8.8113 5.40753
256 2 0.144468 2.12644 11.1053 3.97834
252 2 0.1468 10.7627 7.70755 0.618879
219 2 0.191028 9.18601 8.18156 6.96684
238 3 -0.79805 5.79563 12.1841 1.25307
240 2 0.145119 8.08836 10.2222 1.43489
38 4 1.01802 6.04018 7.02011 2.61907
233 2 0.153458 3.02645 12.4156 3.71737
258 1 -0.667236 5.76267 11.6121 4.18228
259 2 0.168307 6.32031 10.7786 3.68894
260 2 0.141569 4.7238 11.2769 4.52387
261 2 0.214301 6.3862 12.178 4.95689
257 2 0.151622 2.33161 10.3953 5.76756
237 1 -0.673919 7.64347 10.0962 0.333038
150 2 0.121652 2.36686 10.3651 0.565481
210 1 -0.666459 8.42212 8.70015 7.62259
230 4 1.13498 5.41581 12.888 2.70169
239 2 0.127569 6.81941 9.25563 0.41102
268 2 0.194888 11.0576 8.95131 2.12151
225 2 0.116759 0.679457 12.9041 3.08482
274 2 0.145396 7.5433 8.00832 7.87107
198 2 0.153417 2.6978 12.3763 14.5459
40 4 0.879765 6.35608 11.576 13.0681
108 3 -0.781015 5.04465 10.6837 12.8317
109 3 -0.792129 6.88715 11.6576 14.5556
214 2 -0.0617846 5.57697 12.1369 9.43254
132 2 -0.0440801 7.58552 11.1573 12.0835
236 4 1.0373 7.57439 11.881 16.0403
203 2 0.180897 8.71084 7.35686 9.22569
131 2 -0.025485 6.06133 13.1702 12.4472
193 2 0.059666 10.9692 9.47164 15.1859
218 2 0.166032 8.77912 9.18704 8.53153
194 2 0.0104806 9.53427 7.46919 11.5262
43 1 -0.634485 11.0131 10.667 14.1344
50 1 -0.649605 2.69303 10.7613 11.3537
264 2 0.0871123 9.2151 12.362 15.8206
207 4 1.19064 6.57946 12.6801 8.22878
34 4 0.984542 3.67478 9.74393 12.6164
191 3 -0.818667 11.9122 6.81675 10.1646
269 2 0.140758 10.2355 10.4537 13.321
157 2 0.147831 3.74249 11.2584 10.9195
241 2 0.186428 9.58287 10.3993 15.5385
164 2 0.162116 1.99935 12.9889 9.09254
158 2 0.232011 1.96116 11.5866 11.7627
ITEM: TIMESTEP
200
ITEM: NUMBER OF ATOMS
274
ITEM: BOX BOUNDS xy xz yz pp pp pp
-8.3797999999999995e+00 1.8018180666666666e+01 -8.3797999999999995e+00
0.0000000000000000e+00 1.3273200000000001e+01 1.1992806666666667e+00
0.0000000000000000e+00 1.6075500000000002e+01 4.3120000000000003e-01
ITEM: ATOMS id type q x y z
119 2 -0.0163543 7.50682 1.71015 5.04356
12 4 1.35422 -1.08579 6.17464 5.31956
7 4 1.08735 1.19453 1.95893 5.29254
9 4 1.29145 -0.55468 4.43095 1.92753
10 4 1.64229 0.442924 4.29164 7.3349
242 1 -0.650271 3.36089 0.511558 3.07043
21 4 0.825395 5.83294 1.78126 5.38988
26 4 1.28157 5.40789 4.66292 6.74119
41 1 -0.681587 1.11028 0.398011 6.32299
44 1 -0.686054 3.69293 3.95912 1.58627
55 3 -0.811692 0.933072 0.819575 1.05482
56 3 -0.817037 -0.0987292 2.13496 4.29621
58 3 -0.820752 -1.72657 4.08905 3.01584
59 3 -0.862781 -0.159567 3.32971 0.90438
243 2 0.139761 2.81894 1.44994 2.3884
61 3 -0.781599 1.24228 3.22107 6.35348
62 3 -0.845867 -0.406837 5.19831 6.33091
74 3 -0.781043 5.52993 0.683624 6.91218
78 3 -0.878384 0.676695 5.1053 2.59111
81 3 -0.808524 5.63338 3.28556 5.76827
84 3 -0.806773 2.75184 5.94389 4.23069
85 3 -0.804273 4.65332 5.85085 5.99324
113 2 0.0803409 -1.99456 5.25205 4.20663
111 2 -7.84545e-05 2.65589 1.85027 4.318
112 2 -0.0179978 -1.2912 5.58743 0.888001
5 4 1.33752 0.334716 2.03566 0.127009
118 2 0.0209196 4.66407 1.36059 4.04896
24 4 1.25075 4.79493 4.89833 0.385085
222 3 -0.800775 6.70804 1.56244 0.993528
223 2 -0.0807474 6.47701 1.12424 3.68518
141 2 0.159827 3.56874 2.84043 1.45102
142 2 0.197752 2.73296 4.47977 1.44585
143 2 0.19312 4.19082 4.23021 2.6016
220 4 1.01583 7.03641 0.404061 2.08376
135 2 0.239508 0.778078 0.606513 7.39244
25 4 1.4245 1.28856 6.2992 3.45255
138 2 0.15946 1.56866 0.835566 12.187
8 4 1.31213 2.01948 2.90989 11.0256
13 4 1.26006 0.509898 5.23175 12.4483
229 2 -0.0229073 3.55928 6.68091 13.3453
20 4 1.26716 4.56771 2.96208 9.164
23 4 1.23692 6.94623 2.8658 11.1767
99 3 -0.793335 7.84633 1.19715 8.34242
226 4 0.937553 3.52007 6.34665 15.0652
42 1 -0.664081 2.48651 1.54429 12.2678
57 3 -0.838627 0.532308 2.49051 10.5555
63 3 -0.861743 -0.27559 4.19336 13.3282
64 3 -0.810098 1.97031 4.59483 11.9837
65 3 -0.84333 -2.31132 5.95631 9.53524
66 3 -0.844862 -0.304567 5.72252 11.2283
73 3 -0.814912 3.12264 2.77671 9.96634
75 3 -0.852039 5.68968 3.05223 10.2506
76 3 -0.818177 6.86494 1.50465 12.0499
80 3 -0.766755 4.68789 4.2646 8.26781
266 2 0.071606 -1.58515 4.88506 15.6361
137 2 0.174913 3.43933 1.06539 11.8094
114 2 -0.0417419 0.901582 6.43101 13.6006
82 3 -0.807872 1.29819 5.32884 8.2116
124 2 0.0605467 3.35264 5.52462 11.9622
136 2 0.170564 2.76907 2.01154 13.333
179 4 1.31321 7.57223 2.60682 15.6298
183 1 -0.657319 6.13269 1.6515 14.9166
248 2 0.159569 3.65617 3.52539 16.0277
60 3 -0.807382 -0.506606 3.38158 8.33569
196 2 0.187626 5.56598 2.43371 14.338
77 3 -0.755281 7.04082 4.15741 15.7825
227 3 -0.826197 4.98501 6.01454 15.4262
195 2 0.279052 6.55638 0.845223 14.244
245 1 -0.664968 3.08351 3.01606 15.1276
246 2 0.156282 2.72123 3.58568 14.1918
247 2 0.16099 3.53786 1.91877 14.9155
262 3 -0.81665 0.426712 2.04643 15.0426
228 2 -0.0185178 2.59982 4.97608 15.2277
197 2 0.174957 5.59136 1.32545 15.9066
117 2 0.0846557 4.87206 1.57791 8.15483
121 2 0.00663481 6.84346 4.03972 12.4348
67 3 -0.845633 -3.87926 7.08187 7.65698
3 3 -0.820583 -6.08726 11.371 0.951364
253 2 0.17197 -4.48878 8.32956 1.00546
16 4 1.43908 -3.19134 8.00442 6.52106
17 4 1.24616 -4.63047 9.84416 4.78266
154 2 0.177872 0.69607 9.23105 7.42455
161 2 0.19598 -1.29553 10.037 0.386085
31 4 1.25517 -1.9463 10.5166 3.12401
33 4 1.11945 0.0902455 11.0188 5.53874
48 1 -0.66206 -1.17096 9.02314 2.15946
49 1 -0.65385 -0.111341 9.24757 6.53911
28 4 1.23807 3.98165 6.74454 4.86034
68 3 -0.883312 -1.96228 7.22947 5.96642
244 2 0.147225 -5.56401 12.9263 3.95043
70 3 -0.813335 -4.21885 8.40368 5.29137
79 3 -0.849748 0.102187 6.9588 4.56036
87 3 -0.789119 1.60071 7.60832 2.34574
30 4 1.01833 2.09174 8.19307 0.936203
89 3 -0.755808 -2.04525 11.7818 1.91146
90 3 -0.804452 -3.4281 10.2046 3.67508
93 3 -0.829917 -0.798314 11.0197 4.19317
94 3 -0.800953 -0.264586 12.2566 6.51366
115 2 0.015539 -4.3275 10.8157 6.15395
147 2 0.18746 1.76011 7.45046 6.4895
151 2 0.192737 -0.125514 9.35225 1.6537
152 2 0.16327 -1.94718 8.54728 1.49057
153 2 0.206265 -0.93713 8.37734 3.10006
265 2 0.202525 -4.49516 12.4851 2.41845
155 2 0.26746 0.0101188 8.43722 5.75198
156 2 0.259193 -1.22521 9.41915 6.91281
46 1 -0.663737 2.36225 7.88125 7.35165
148 2 0.175145 3.53824 7.72337 7.2936
272 2 0.164881 0.50593 10.2507 0.180146
19 4 1.33793 -1.35593 12.8282 7.60258
1 4 1.23801 -6.75831 12.4592 1.94875
271 2 0.15409 1.66631 10.319 1.82278
91 3 -0.848317 -2.82707 9.74222 7.38097
133 2 0.133944 -6.13811 12.9828 6.26183
47 1 -0.686684 1.56145 10.0192 0.750037
149 2 0.148597 2.04786 8.98073 7.4554
122 2 -0.0030992 3.30415 8.1355 5.65352
69 3 -0.853606 -6.11864 10.1633 4.31998
159 2 0.181384 1.88144 10.1191 11.0831
18 4 1.22019 -2.37525 8.25457 12.7201
22 4 1.2066 -0.757471 12.9086 12.0494
32 4 0.936339 -2.52217 10.4161 8.75528
35 4 1.23529 -1.50851 10.7492 14.1793
29 4 0.916601 3.75684 6.94127 11.1593
160 2 0.1466 0.781271 10.9337 14.7931
140 2 0.170673 -5.86714 11.6733 14.6474
51 1 -0.637281 -0.130235 11.1387 15.4475
162 2 0.213488 -0.133069 12.2449 15.6875
72 3 -0.851532 -1.90002 7.93051 11.2744
83 3 -0.785617 0.0983452 7.53619 9.27268
88 3 -0.806645 2.92289 7.63522 15.7173
92 3 -0.822273 -1.5169 11.6056 8.92576
95 3 -0.808399 3.85597 8.37856 12.0197
96 3 -0.78539 -1.29175 9.24527 13.4479
97 3 -0.83116 -1.48458 12.004 13.1638
98 3 -0.765763 -3.03585 10.6448 15.1686
116 2 -0.0302128 -3.86165 8.97264 12.414
120 2 0.0536268 -1.04233 12.0879 10.6108
126 2 0.0476395 -1.91345 9.22598 9.71412
127 2 -0.0519967 -3.96246 10.5952 9.59775
128 2 0.0245947 2.44439 10.2901 13.4585
139 2 0.163477 -4.9561 10.7321 13.4164
187 3 -0.811611 0.815661 13.1101 12.4269
27 4 1.36552 1.57834 6.84285 8.78515
71 3 -0.828534 -2.71262 6.92441 13.6652
86 3 -0.781976 2.78414 6.96087 9.90528
14 4 1.49812 -1.11166 6.75392 10.289
15 4 1.07942 -4.313 10.6011 16.0623
158 2 0.235453 1.77663 11.7327 12.0006
235 2 0.150063 11.9796 1.45031 3.70941
37 4 1.29045 13.3964 1.60228 6.12639
221 1 -0.667691 8.91249 0.198201 2.0229
39 4 1.26463 11.3525 3.65161 7.37874
45 1 -0.654692 7.16945 5.40286 7.13366
54 1 -0.669818 11.1606 4.77651 5.8647
101 3 -0.812386 14.2837 2.63333 5.35098
102 3 -0.857948 14.2014 0.606488 7.01679
250 2 0.193226 11.7893 4.2289 0.327751
4 4 1.44695 15.2401 2.48383 3.92277
106 3 -0.816202 12.2212 2.37712 6.89809
232 3 -0.795445 14.545 1.28619 2.96116
129 2 -0.00803611 12.5144 0.533484 5.07795
130 2 0.0646764 7.53934 5.90768 3.43129
169 2 0.22801 11.4596 5.76739 6.191
234 2 0.180264 11.6543 0.331875 2.11816
146 2 0.176585 7.7604 4.64536 6.44892
103 3 -0.765497 5.69585 6.08876 1.41876
145 2 0.160288 7.36178 6.49618 6.88311
170 2 0.166892 10.0784 4.81733 5.51818
171 2 0.182512 11.9017 4.23458 5.14008
231 1 -0.662734 11.9411 0.366801 3.19175
224 2 0.173608 9.40304 1.0431 1.51263
225 2 0.15648 9.08502 0.206577 3.15863
105 3 -0.762621 9.71213 3.23274 7.94772
267 2 0.174526 12.4563 5.97897 0.563013
249 1 -0.640362 12.572 4.9901 0.0459056
273 2 0.182317 9.56517 0.203052 0.0331177
11 4 1.47789 13.0429 6.23352 8.97074
36 4 1.28255 8.9617 2.27312 9.05885
52 1 -0.65978 10.2635 1.08905 9.74985
123 2 -0.0246556 5.23573 6.45902 10.5853
100 3 -0.795856 8.34593 3.18317 10.3354
107 3 -0.750277 12.2764 4.55853 8.52128
110 2 0.000645067 14.7134 2.67092 10.4191
188 3 -0.760787 8.73742 2.17005 14.4919
202 2 0.171968 13.9588 3.8466 11.6842
163 2 0.168999 11.3604 1.39856 9.84368
144 2 0.189763 7.31201 5.24623 8.26076
165 2 0.225252 9.75654 0.834196 10.8381
172 4 1.00556 16.3192 2.6284 13.8201
173 1 -0.647586 14.453 1.93084 13.6279
174 2 0.115229 14.5049 2.78837 14.8694
175 2 0.0040445 15.8991 1.46472 12.5023
176 2 0.183654 13.9214 2.39817 12.7796