ITEM: TIMESTEP
0
ITEM: NUMBER OF ATOMS
274
ITEM: BOX BOUNDS xy xz yz pp pp pp
-8.3797999999999995e+00 1.8013900000000000e+01 -8.3797999999999995e+00
0.0000000000000000e+00 1.3273200000000001e+01 1.1950000000000001e+00
0.0000000000000000e+00 1.6075500000000002e+01 4.3120000000000003e-01
ITEM: ATOMS id type q x y z
119 2 -0.0243389 7.55348 1.61287 5.04536
12 4 1.32118 -1.0137 6.30631 5.39939
7 4 1.10523 1.17238 2.01925 5.37689
9 4 1.28098 -0.64379 4.41894 2.03606
10 4 1.62167 0.44154 4.30118 7.29669
242 1 -0.653507 3.37739 0.558872 3.1296
21 4 0.825276 5.93031 1.64792 5.54532
26 4 1.2743 5.58618 4.578 6.67629
41 1 -0.664173 1.13344 0.325103 6.26414
44 1 -0.672904 4.27868 3.76288 1.92681
55 3 -0.798086 1.05764 0.909377 1.15743
56 3 -0.819389 -0.25113 2.3407 4.71679
58 3 -0.814721 -1.84602 4.25116 3.10874
59 3 -0.838061 -0.245213 3.21481 1.11541
243 2 0.157675 2.94649 1.54116 2.44771
61 3 -0.756669 1.49608 3.09687 6.49661
62 3 -0.865372 -0.486567 5.17022 6.33399
74 3 -0.796196 5.51983 0.514992 7.07665
78 3 -0.849172 0.569133 4.962 2.80478
81 3 -0.818993 5.82777 3.18152 5.85354
84 3 -0.77478 2.77229 5.79464 4.24223
85 3 -0.770076 4.78667 5.75446 5.80558
113 2 0.0881809 -1.91268 5.46141 4.21112
111 2 0.00992151 2.50763 1.95516 4.20648
112 2 -0.0307591 -1.13692 5.52562 0.866437
5 4 1.36456 0.270311 2.00959 0.21286
118 2 0.0210292 4.6262 1.13275 4.31195
24 4 1.21609 4.88743 4.71128 0.436733
222 3 -0.754983 6.56213 1.39768 1.15923
223 2 -0.087699 6.47773 0.979954 3.80993
141 2 0.199269 4.70129 2.74222 2.00133
142 2 0.176341 3.18992 3.74035 1.61547
143 2 0.212952 4.54237 4.4319 2.82455
220 4 1.00277 7.01171 0.309555 2.17905
135 2 0.223942 1.34057 0.527671 7.38439
25 4 1.37993 1.29792 6.23384 3.52825
244 2 0.0986707 2.70942 0.164323 4.07343
138 2 0.158196 1.5321 0.944976 12.4638
8 4 1.29894 2.01872 2.85932 10.9381
13 4 1.25707 0.62757 5.17842 12.3369
229 2 -0.0251864 3.47957 6.68112 13.2854
20 4 1.2415 4.67047 2.89873 9.15616
23 4 1.27483 7.03077 3.03117 11.1907
99 3 -0.780308 7.91693 1.23287 8.12758
226 4 0.891052 3.44806 6.39282 15.0005
42 1 -0.663806 2.38714 1.67275 12.3496
57 3 -0.841113 0.583017 2.38306 10.4903
63 3 -0.861613 -0.0313105 4.01205 13.2232
64 3 -0.803299 2.09353 4.65291 11.7653
65 3 -0.852487 -2.35342 6.07134 9.71606
66 3 -0.883305 -0.305863 5.81259 11.3191
73 3 -0.781846 3.18168 2.62737 9.8316
75 3 -0.846014 5.70329 3.04541 10.3698
76 3 -0.834021 6.99339 1.69544 12.0279
80 3 -0.747436 4.76533 4.21136 8.17917
266 2 0.0633793 -1.62196 4.98416 15.3882
137 2 0.169091 3.314 1.07701 12.0285
114 2 -0.0528248 0.942662 6.29592 13.5343
197 2 0.203792 5.3707 0.991627 15.9023
124 2 0.0502699 3.55655 5.40343 12.0355
136 2 0.165924 2.49148 2.31685 13.4057
179 4 1.24471 7.39724 2.41245 15.5483
183 1 -0.671125 5.85873 1.45344 14.9734
82 3 -0.808316 1.37657 5.38646 8.05396
60 3 -0.830338 -0.419852 3.51589 8.39135
196 2 0.161122 5.2948 2.43078 14.5768
6 4 1.31808 -0.610116 2.3546 9.42538
227 3 -0.782751 4.80099 5.83478 15.5828
195 2 0.259198 6.22961 0.726974 14.1921
245 1 -0.675688 2.8847 3.22801 15.1987
246 2 0.148591 2.38264 3.785 14.3567
247 2 0.163838 3.53987 2.41439 14.7338
262 3 -0.836501 0.3742 2.04361 15.1887
228 2 -0.0212294 2.35897 5.12802 15.3867
117 2 0.102522 5.05556 1.63341 8.10194
77 3 -0.765595 7.00346 4.0356 15.6914
248 2 0.171477 3.48134 3.91501 15.8685
251 1 -0.678737 -5.34897 8.52026 1.07893
3 3 -0.777284 -5.97927 11.3334 1.06133
253 2 0.167528 -4.39272 8.01497 0.759902
16 4 1.52726 -3.28609 8.14959 6.74803
17 4 1.26416 -4.64933 10.0462 4.81132
154 2 0.184058 0.765104 9.45737 7.28819
161 2 0.191086 -1.2549 9.73439 0.28467
31 4 1.28129 -2.11321 10.3917 3.03197
33 4 1.12505 0.0458024 10.999 5.47119
48 1 -0.654905 -1.58077 8.75718 2.04742
49 1 -0.663739 -0.0784258 9.41583 6.51852
28 4 1.1997 3.92748 6.74553 4.82449
68 3 -0.853104 -2.06733 7.28523 6.1162
268 2 0.217728 -5.20516 8.96126 2.09638
70 3 -0.830756 -4.28568 8.78979 5.71904
79 3 -0.866714 0.174373 7.11121 4.74099
87 3 -0.803216 1.78842 7.20493 2.25038
30 4 1.03475 2.27244 8.0975 1.02426
89 3 -0.751706 -2.03017 11.6195 1.90186
90 3 -0.848359 -3.55175 10.1749 3.61279
93 3 -0.807339 -0.882412 10.7776 4.10588
94 3 -0.852051 -0.475665 12.1474 6.44849
115 2 -0.0222976 -4.42975 11.3644 5.8242
147 2 0.191028 1.77505 7.51254 6.50444
151 2 0.179529 -0.419351 9.04019 1.74839
152 2 0.171386 -2.32578 8.555 1.24718
153 2 0.16489 -1.67389 8.02368 2.92336
265 2 0.198801 -4.451 12.5663 2.53351
155 2 0.275896 0.0188227 8.50285 5.81441
156 2 0.292546 -1.11503 9.45748 7.04013
46 1 -0.665223 2.34539 7.96821 7.37354
148 2 0.160551 3.49277 7.77428 7.43588
272 2 0.17987 0.536013 9.98885 0.414686
19 4 1.35658 -1.28727 12.7957 7.58459
1 4 1.21813 -6.72158 12.5016 2.05387
271 2 0.171936 1.1553 9.838 2.36068
91 3 -0.835618 -2.72961 9.60416 7.68111
133 2 0.130229 -6.39319 12.633 5.70673
47 1 -0.667866 1.40309 9.79383 1.24847
149 2 0.153016 2.10369 9.05425 7.61542
122 2 -0.00696569 3.25703 8.12416 5.62948
15 4 1.06419 -5.39354 10.1096 0.0500169
159 2 0.197735 1.9491 10.0561 10.6848
18 4 1.23194 -2.28671 8.45748 12.6243
22 4 1.2545 -0.752784 13.0294 12.048
32 4 0.970934 -2.67151 10.6046 8.86925
35 4 1.23068 -1.50746 10.7819 14.2645
29 4 0.956241 3.71054 6.74821 11.0501
160 2 0.175609 0.868542 10.2667 14.6553
267 2 0.167305 -2.49865 7.12246 15.7904
51 1 -0.633134 0.110011 10.7802 15.3028
162 2 0.196183 0.373301 11.871 15.4255
72 3 -0.790241 -1.63623 8.2191 11.1373
83 3 -0.75641 0.0249911 7.52856 9.11552
88 3 -0.772786 3.17368 7.8835 15.595
92 3 -0.799237 -1.45032 11.5716 9.06395
95 3 -0.811798 3.76149 8.19285 11.8028
96 3 -0.809107 -1.36451 9.29791 13.5846
97 3 -0.831613 -1.45915 12.0622 13.0759
98 3 -0.778805 -2.89314 10.8068 15.3569
116 2 -0.0327438 -3.77365 9.1163 12.249
120 2 0.0881261 -0.949248 12.3801 10.4696
126 2 0.0314909 -2.69332 9.70479 10.306
127 2 -0.0554594 -4.11958 11.3841 9.20144
128 2 0.0397916 2.41617 10.1531 13.1476
139 2 0.145698 -4.66133 10.2044 13.6278
187 3 -0.822214 0.791835 13.1236 12.2679
27 4 1.39082 1.53937 6.81294 8.75662
71 3 -0.837496 -2.74201 7.08103 13.2733
86 3 -0.79687 2.62709 6.80499 9.88784
14 4 1.52429 -1.08716 6.76741 10.298
140 2 0.159275 -5.86192 11.494 14.1339
235 2 0.161385 11.9888 1.83269 3.35364
37 4 1.29178 13.1604 1.62139 6.13936
221 1 -0.64506 8.90136 0.287638 1.88167
39 4 1.26427 11.4506 3.76178 7.494
45 1 -0.67772 7.27859 5.28413 7.16684
54 1 -0.666893 11.0764 4.93052 6.03138
101 3 -0.834295 13.9775 2.71716 5.36395
102 3 -0.859825 14.0411 0.622405 6.95378
250 2 0.193364 12.0284 5.26013 0.330464
4 4 1.43148 15.093 2.63994 4.1333
106 3 -0.831701 11.9906 2.30499 6.95485
232 3 -0.787825 14.6424 1.35057 3.11839
129 2 -0.00679386 12.3268 0.765508 4.96409
130 2 0.0483279 7.25201 5.78351 3.53189
169 2 0.224203 11.5208 5.92868 6.24076
234 2 0.18325 11.5312 0.64087 1.93948
146 2 0.204574 7.87754 4.30786 7.23309
103 3 -0.758243 5.71136 6.08147 1.37999
145 2 0.170911 7.69376 5.96071 6.42861
170 2 0.173127 9.94782 5.04229 5.91058
171 2 0.174553 11.6297 4.32186 5.20892
225 2 0.124227 9.11066 0.821389 2.96917
224 2 0.198226 8.91209 0.970977 0.95951
231 1 -0.665566 11.9082 0.708953 3.03091
230 4 1.09557 13.7321 0.0937378 2.79594
11 4 1.48586 12.9702 6.22175 9.0607
36 4 1.27613 9.12011 2.39579 9.05788
52 1 -0.679798 10.3776 1.25078 9.78913
249 1 -0.622223 14.041 5.99632 15.7163
100 3 -0.821028 8.33653 3.10995 10.2808
107 3 -0.810579 12.5029 4.68796 8.57808
110 2 0.00294068 14.8002 2.77877 10.3596
188 3 -0.777747 8.72426 1.98237 14.6418
202 2 0.156598 14.1044 3.75671 11.7395
163 2 0.171168 11.3376 1.90198 9.82929
144 2 0.174015 7.20167 5.80388 8.17876
165 2 0.250168 10.1204 0.85832 10.8295
172 4 0.989402 16.325 2.56221 13.9058
173 1 -0.649597 14.6103 1.6372 13.308
174 2 0.0793366 14.5066 2.72224 14.5613
175 2 0.0344485 16.186 1.14177 12.6846
176 2 0.166429 14.0497 2.20534 12.5437
186 1 -0.682214 8.90645 6.37779 9.9309
178 4 1.09204 13.8517 5.67887 14.0157
180 4 1.24701 9.91815 1.467 13.595
181 4 1.30463 11.7988 3.87349 12.5499
205 2 0.21957 9.20877 5.47679 9.26068
185 1 -0.694374 13.1247 3.3806 11.194
177 2 0.1702 13.8973 0.743907 13.7217
189 3 -0.802514 10.9684 2.5386 13.0057
190 3 -0.793249 12.7626 4.57037 13.7935
192 3 -0.779938 10.8187 4.95928 11.8703
263 3 -0.850449 15.989 0.975741 8.70814
199 2 0.189029 12.0061 0.957403 14.6385
200 2 0.259274 12.885 3.99737 10.1782
201 2 0.137284 12.9127 2.27017 11.1821
182 4 1.03543 10.5497 6.28726 10.9169
164 2 0.172503 10.4504 0.443348 8.9811
204 2 0.143788 7.89276 6.21699 10.486
121 2 -0.0164375 7.07822 4.30087 12.2636
105 3 -0.799892 9.89102 3.48417 8.18478
184 1 -0.656851 11.0325 0.429755 14.7561
123 2 -0.0479708 5.27285 6.32579 10.6016
207 4 1.25157 6.57468 12.817 8.02957
134 2 0.239737 8.58568 12.7472 6.01444
167 2 0.168679 9.02178 7.10044 2.92516
53 1 -0.636873 7.96277 7.41877 3.21554
104 3 -0.818662 4.90332 7.41874 3.69709
270 2 0.186563 0.867271 12.0575 1.72348
125 2 0.0069355 3.93476 8.32006 1.10288
2 3 -0.821299 9.00097 11.7436 3.07347
166 2 0.0593256 7.26612 8.41861 2.24866
168 2 0.173061 7.86194 7.9505 4.24411
206 4 1.22866 9.21325 10.3711 3.86706
215 2 0.166833 5.37489 10.0476 6.01967
208 4 1.10439 7.61688 10.0498 6.71227
209 1 -0.670663 5.9518 9.11424 6.40138
255 2 0.156046 1.55956 12.639 5.0647
211 3 -0.780063 8.24324 10.1587 5.14306
212 3 -0.807388 7.14665 11.4135 7.42961
213 2 0.0141307 8.85198 9.06331 2.78837
254 1 -0.676775 1.76189 11.5016 4.8115
216 2 0.148275 5.54129 8.69268 7.31747
217 2 0.197546 5.98152 8.34731 5.63682
256 2 0.160588 1.99029 11.252 3.7416
252 2 0.152213 10.4969 7.93944 0.929059
239 2 0.141597 6.80464 9.35377 0.233101
238 3 -0.768912 5.57985 12.1855 1.15796
240 2 0.174671 7.99168 10.5902 1.15495
38 4 1.00467 6.069 6.86598 2.68409
233 2 0.162427 2.86322 12.8742 3.73138
258 1 -0.678321 5.6939 11.4865 4.03303
259 2 0.173874 5.88145 10.5877 3.37376
260 2 0.148522 4.83135 11.4295 4.65043
261 2 0.226373 6.64099 11.7793 4.67037
257 2 0.134643 2.59234 11.0766 5.46408
237 1 -0.681357 7.56631 10.2711 0.172153
150 2 0.141456 2.35744 10.4113 1.0394
210 1 -0.659242 8.71965 8.94545 7.86723
219 2 0.202302 9.52132 8.36547 7.37173
69 3 -0.842822 10.6696 9.98846 4.35098
67 3 -0.830805 12.8054 7.24037 7.78556
198 2 0.165609 2.48515 12.3078 14.164
40 4 0.9418 6.26987 11.4443 13.1749
108 3 -0.833778 5.06129 10.5769 12.8772
109 3 -0.835688 6.73232 11.813 14.6023
214 2 -0.0555364 5.60816 12.3378 9.25766
132 2 -0.0527112 7.57486 10.8247 12.2723
236 4 1.10033 7.39815 12.0208 15.9593
203 2 0.173229 8.85796 7.29225 9.27098
131 2 -0.0238483 6.27642 12.8385 12.226
193 2 0.0565695 11.0531 9.52166 15.4705
218 2 0.154211 9.19142 9.61166 8.68923
194 2 2.30377e-06 9.40463 7.52918 11.419
43 1 -0.643019 11.1259 10.4032 14.0104
158 2 0.233421 1.98925 11.7159 11.5821
264 2 0.0670398 9.02482 12.612 15.7721
273 2 0.185523 2.3334 13.2595 15.8391
34 4 1.01264 3.83966 9.72993 12.2594
191 3 -0.792131 11.8295 6.94159 10.2077
269 2 0.144147 10.3625 9.99687 13.3102
157 2 0.105727 3.5081 11.1283 10.5135
241 2 0.175285 9.60626 10.612 15.4106
274 2 0.13597 7.82651 8.29402 8.20664
50 1 -0.661291 2.54307 10.7861 11.3033
ITEM: TIMESTEP
100
ITEM: NUMBER OF ATOMS
274
ITEM: BOX BOUNDS xy xz yz pp pp pp
-8.3797999999999995e+00 1.8013900000000000e+01 -8.3797999999999995e+00
0.0000000000000000e+00 1.3275412200000000e+01 1.1950000000000001e+00
0.0000000000000000e+00 1.6075500000000002e+01 4.3127186666666617e-01
ITEM: ATOMS id type q x y z
119 2 -0.0264052 7.7092 1.59307 5.08778
12 4 1.32855 -0.959053 6.25285 5.36179
7 4 1.12519 1.14436 2.07825 5.41639
9 4 1.28209 -0.613171 4.50028 1.96614
10 4 1.56791 0.380947 4.32246 7.30607
242 1 -0.638654 3.36098 0.447093 3.15365
21 4 0.809678 6.06047 1.65866 5.44312
26 4 1.26479 5.47987 4.65356 6.73831
41 1 -0.663885 1.12888 0.31976 6.16857
44 1 -0.668413 3.94453 3.78759 1.79652
55 3 -0.784098 0.97493 0.9424 1.05802
56 3 -0.829685 -0.204987 2.16321 4.58935
58 3 -0.801126 -1.76027 4.14119 3.0741
59 3 -0.846781 -0.306534 3.40376 0.919303
243 2 0.146029 2.83788 1.39087 2.51375
61 3 -0.755268 1.53865 3.19502 6.49054
62 3 -0.857888 -0.5869 4.9908 6.20185
74 3 -0.809779 5.64011 0.607105 7.12997
78 3 -0.843416 0.682562 4.93447 2.62415
81 3 -0.769018 5.82445 3.17838 5.51012
84 3 -0.776534 2.80937 5.94162 4.23293
85 3 -0.803173 4.75491 5.79447 5.9608
113 2 0.0931941 -1.83739 5.4311 4.14592
111 2 0.0166063 2.44643 1.82031 4.21555
112 2 -0.0294264 -1.20073 5.90533 1.22082
5 4 1.28602 0.321555 2.11451 0.147657
118 2 0.0333617 4.72642 1.08272 4.27864
24 4 1.2845 4.83661 4.81184 0.484557
222 3 -0.78127 6.51655 1.43729 0.940002
223 2 -0.08682 6.5595 0.976838 3.76651
141 2 0.188332 4.27802 2.70082 1.78766
142 2 0.192461 2.85102 3.96316 1.51319
143 2 0.221274 4.14521 4.30439 2.79348
220 4 1.02125 7.04064 0.399144 2.0865
135 2 0.239902 0.995642 0.33657 7.29047
25 4 1.37814 1.31884 6.36912 3.37625
267 2 0.167799 -3.85969 6.27733 0.487369
197 2 0.199886 4.54598 0.478994 0.00714404
138 2 0.181168 1.49115 0.955186 12.528
8 4 1.24903 1.95071 2.75711 10.9726
13 4 1.2473 0.70774 5.13281 12.4219
229 2 -0.0283407 3.781 6.66846 13.1376
20 4 1.2648 4.68785 2.96801 9.13336
23 4 1.26994 6.94726 2.95448 11.2525
99 3 -0.857974 7.94537 1.33484 8.37064
226 4 0.917899 3.63375 6.39856 14.9102
42 1 -0.660486 2.36601 1.60068 12.3888
57 3 -0.813602 0.37724 2.45027 10.5224
63 3 -0.871646 -0.0511817 4.05614 13.2844
64 3 -0.789867 2.13172 4.36639 11.9042
65 3 -0.820017 -2.27956 6.08073 9.46266
66 3 -0.835867 -0.19933 5.83115 11.3638
73 3 -0.762935 3.17191 2.67434 9.77264
75 3 -0.872102 5.69949 3.0547 10.2535
76 3 -0.831149 7.08477 1.6411 12.0897
80 3 -0.781801 4.78531 4.29729 8.1615
266 2 0.0674402 -1.57067 5.05941 15.3892
137 2 0.166317 3.30199 1.11068 11.9709
114 2 -0.0373107 1.17955 6.46873 13.3226
82 3 -0.818437 1.36451 5.39346 8.06271
124 2 0.0505802 3.59896 5.38049 11.7626
136 2 0.18208 2.59538 2.29303 13.4436
179 4 1.31805 7.54253 2.46839 15.518
183 1 -0.658578 6.12191 1.29389 15.0335
248 2 0.169745 3.33934 4.16199 15.9703
60 3 -0.805114 -0.652728 3.45928 8.25935
196 2 0.171112 5.38689 1.98514 14.5488
77 3 -0.750178 6.93213 4.02216 15.6604
227 3 -0.829491 4.88689 5.849 15.645
195 2 0.273241 6.35973 0.492227 14.2861
245 1 -0.670899 2.97873 3.34543 15.1823
246 2 0.169614 2.74453 3.71711 14.1747
247 2 0.159386 3.57091 2.28617 15.1929
262 3 -0.774186 0.487884 1.8406 14.9322
228 2 -0.0204258 2.40518 5.26194 14.9104
117 2 0.111721 5.10618 1.61429 8.14526
251 1 -0.660429 -5.39276 8.48094 1.09314
3 3 -0.795358 -6.2442 11.3037 0.934598
253 2 0.171815 -4.30458 8.21862 0.98592
16 4 1.47576 -3.24044 8.05793 6.6102
17 4 1.25327 -4.64236 9.92362 4.88132
154 2 0.171914 0.976093 9.58391 7.1272
161 2 0.19456 -1.3814 9.88731 0.339413
31 4 1.24408 -2.1632 10.4463 2.94376
33 4 1.12206 0.0607829 11.0947 5.35892
48 1 -0.663325 -1.47517 8.88622 2.09323
49 1 -0.648662 0.0989916 9.55083 6.40463
28 4 1.26268 3.99331 6.70308 4.88664
68 3 -0.862572 -2.05488 7.30422 5.97558
244 2 0.154859 -5.69455 12.8225 4.03779
70 3 -0.806316 -4.32072 8.43745 5.47936
79 3 -0.857269 0.244202 6.96334 4.66143
87 3 -0.828488 1.56925 7.5797 2.35397
30 4 1.01296 2.21966 8.06599 0.988594
89 3 -0.778728 -1.92869 11.8016 1.8824
90 3 -0.817111 -3.53856 10.3491 3.73358
93 3 -0.778282 -0.886058 10.687 4.14857
94 3 -0.803711 -0.574123 12.2164 6.37772
115 2 -0.0191011 -4.62741 11.1527 6.07136
147 2 0.187524 1.8047 7.81845 6.52557
151 2 0.200833 -0.398574 9.21414 1.70939
152 2 0.149458 -2.08637 8.33518 1.28071
153 2 0.189888 -1.30523 8.26464 3.08118
265 2 0.191057 -4.49288 12.4478 2.49438
155 2 0.249054 0.190001 8.73806 5.6035
156 2 0.292575 -0.978392 9.5819 6.92857
46 1 -0.67467 2.32636 8.06235 7.45094
148 2 0.185829 3.33609 7.78827 7.4201
272 2 0.163734 0.449521 10.0625 0.282877
19 4 1.37979 -1.36713 12.9499 7.7231
1 4 1.20457 -6.74891 12.4776 1.98452
271 2 0.1861 1.20968 9.9875 2.13786
91 3 -0.821939 -2.55324 9.63836 7.5735
133 2 0.132659 -6.15445 12.9258 5.87726
47 1 -0.642329 1.41325 9.8121 1.03156
149 2 0.147287 2.11457 9.1766 7.79266
122 2 -0.00687103 3.32701 8.05813 5.71996
69 3 -0.83619 -6.0408 10.0999 4.25382
159 2 0.192543 2.24404 9.89476 10.7579
18 4 1.18418 -2.34837 8.31375 12.7044
22 4 1.23827 -0.624072 12.9668 12.1057
32 4 0.951274 -2.59529 10.5323 8.86623
35 4 1.20559 -1.62894 10.6889 14.3393
29 4 0.904063 3.80206 6.93171 11.0165
160 2 0.165923 0.791342 10.5389 14.7932
140 2 0.174557 -6.06053 11.7464 14.5399
51 1 -0.650078 -0.110408 10.882 15.3764
162 2 0.205275 -0.126423 12.0337 15.4683
72 3 -0.81717 -1.73755 8.13966 11
83 3 -0.80152 0.0904791 7.3642 9.21072
88 3 -0.802367 3.0152 7.65295 15.6682
92 3 -0.82615 -1.70297 11.8092 9.08043
95 3 -0.802148 3.83057 8.28 12.0094
96 3 -0.77015 -1.29126 9.27623 13.4314
97 3 -0.797657 -1.50101 12.0798 13.1187
98 3 -0.824824 -2.98677 10.6568 15.272
116 2 -0.0425374 -3.67081 9.31226 12.6761
120 2 0.0782637 -0.937836 12.2986 10.5884
126 2 0.0992934 -2.09974 9.44252 10.0264
127 2 -0.0538392 -4.14113 10.6512 9.52268
128 2 0.0103674 2.13169 10.2859 13.2016
139 2 0.156544 -4.81371 10.6605 13.586
187 3 -0.829939 0.909804 13.0029 12.4051
27 4 1.42367 1.53338 6.81517 8.76542
71 3 -0.86459 -2.67021 7.04714 13.5137
86 3 -0.799842 2.66624 6.93656 9.88237
14 4 1.52268 -1.07677 6.81738 10.2866
15 4 1.05444 -4.30927 10.5166 16.0711
235 2 0.160801 11.6458 1.4555 3.45292
37 4 1.28033 13.2213 1.56527 6.14677
221 1 -0.649722 8.93227 0.262008 1.84346
39 4 1.34552 11.425 3.76166 7.50101
45 1 -0.659784 7.20648 5.35466 7.12949
54 1 -0.659121 11.1366 4.7606 5.87414
101 3 -0.818222 14.0322 2.59072 5.32048
102 3 -0.834442 14.0342 0.637289 7.15129
250 2 0.170981 12.0852 4.54072 0.440296
4 4 1.48707 15.1483 2.50227 4.0784
106 3 -0.815337 12.1942 2.42775 7.02711
232 3 -0.812056 14.6177 1.31353 3.14036
129 2 -0.0155087 12.2484 0.626945 5.06731
130 2 0.106631 7.4844 5.9727 3.74259
169 2 0.232256 11.7462 5.67229 5.9653
234 2 0.164623 11.5994 0.372485 1.97298
146 2 0.173731 7.78825 4.54172 6.53461
103 3 -0.777965 5.66559 6.00279 1.32224
145 2 0.17784 7.38802 6.38188 6.71669
170 2 0.171779 10.0176 4.87838 5.68262
171 2 0.177255 11.5747 4.01744 5.12506
231 1 -0.672706 11.8748 0.448456 3.07794
224 2 0.160677 9.26773 1.29414 1.48551
11 4 1.47018 12.933 6.19241 8.96572
36 4 1.31021 8.97761 2.26396 9.06699
52 1 -0.677442 10.2965 1.09904 9.76705
249 1 -0.653028 13.9366 5.75139 15.9964
100 3 -0.802667 8.2964 3.04413 10.3963
107 3 -0.836696 12.2026 4.66659 8.50339
110 2 -0.00636239 14.5314 2.60592 10.1058
188 3 -0.81534 8.84604 2.10998 14.5831
202 2 0.169196 13.9042 3.69988 11.3671
163 2 0.187248 11.1906 1.67089 9.74143
144 2 0.184156 7.36952 5.23181 8.27594
165 2 0.240188 9.92303 0.798998 10.8873
172 4 1.03325 16.3093 2.70709 13.9012
173 1 -0.636728 14.5051 1.92203 13.626
174 2 0.0943627 14.5516 2.99862 14.7408
175 2 0.0377551 15.7943 1.41389 12.5419
176 2 0.174945 13.9012 2.44549 12.7582
186 1 -0.681846 8.87166 6.50153 9.98049
178 4 1.13316 13.7091 5.76542 14.2822
180 4 1.29061 9.94844 1.52069 13.6472
181 4 1.3215 11.7569 3.9581 12.516
205 2 0.196672 8.96717 5.45835 9.43536
185 1 -0.694624 12.8949 3.26151 11.0683
177 2 0.162907 14.025 0.873593 14.0251
189 3 -0.797929 10.9789 2.57979 12.9633
190 3 -0.818381 12.9487 4.63296 13.5678
192 3 -0.797988 10.7441 5.05601 12.0505
263 3 -0.820961 16.0875 0.804984 8.90754
199 2 0.183925 12.0821 1.10976 14.5504
200 2 0.243664 12.6048 3.66056 10.0201
201 2 0.148171 12.7772 2.14652 11.2371
182 4 1.03848 10.6123 6.23461 10.8702
123 2 -0.038998 5.2802 6.40619 10.4516
204 2 0.151367 8.02846 6.4078 10.6844
121 2 -0.0201772 6.85283 4.32896 12.2674
105 3 -0.775777 9.84401 3.38231 8.0624
184 1 -0.649757 11.0906 0.651342 14.8508
6 4 1.27392 16.0624 2.29409 9.37907
273 2 0.186504 10.8114 0.760237 15.9808
67 3 -0.822637 12.7892 7.22478 7.70359
134 2 0.270827 8.8131 12.5048 5.69387
167 2 0.157171 8.61334 7.43549 2.50235
53 1 -0.651217 7.81796 7.37531 3.27123
104 3 -0.841754 4.93211 7.2012 3.67566
270 2 0.186606 0.838042 12.201 1.25592
125 2 -0.0100754 3.87598 8.0017 1.26267
2 3 -0.786804 9.14888 11.9145 3.29984
166 2 0.00119973 6.81141 8.588 2.2453
168 2 0.16406 8.18316 7.92641 4.19582
206 4 1.21031 9.20776 10.4412 3.99045
215 2 0.151793 4.99669 10.0118 6.6957
208 4 1.11866 7.53941 10.1147 6.65352
209 1 -0.669897 5.72656 9.19694 6.46035
255 2 0.150812 2.20597 12.2341 5.44117
211 3 -0.82878 8.30718 10.3605 5.28512
212 3 -0.796423 7.35005 11.4358 7.56978
213 2 -0.0205908 8.50389 9.23286 3.01368
254 1 -0.697255 1.95048 11.2227 5.09245
216 2 0.152655 5.69811 8.40217 7.28497
217 2 0.175499 5.67552 8.81132 5.40749
256 2 0.144487 2.12643 11.1054 3.97831
252 2 0.146797 10.7627 7.70762 0.618822
219 2 0.191028 9.18601 8.18156 6.96684
238 3 -0.798016 5.79567 12.1842 1.25295
240 2 0.145081 8.08797 10.2227 1.43526
38 4 1.01803 6.04018 7.02011 2.61907
233 2 0.153457 3.02666 12.4157 3.71738
258 1 -0.667249 5.76271 11.6124 4.18213
259 2 0.168297 6.32011 10.7788 3.68875
260 2 0.141566 4.72366 11.2777 4.52326
261 2 0.214309 6.38628 12.1779 4.957
257 2 0.151631 2.33153 10.3954 5.76751
237 1 -0.673813 7.64342 10.0962 0.333002
150 2 0.121666 2.36686 10.3651 0.565488
210 1 -0.666462 8.42212 8.70016 7.62259
230 4 1.13503 5.41597 12.8885 2.70172
239 2 0.127476 6.81872 9.25547 0.411007
268 2 0.194889 11.0576 8.95133 2.12152
225 2 0.116716 0.679873 12.9061 3.08559
274 2 0.145396 7.54331 8.00833 7.87107
198 2 0.153425 2.69746 12.3765 14.5456
40 4 0.879753 6.35607 11.576 13.0681
108 3 -0.781016 5.04465 10.6837 12.8317
109 3 -0.792099 6.88717 11.6576 14.5556
214 2 -0.061786 5.57696 12.1369 9.43255
132 2 -0.0440797 7.58552 11.1573 12.0835
236 4 1.0373 7.57443 11.881 16.0404
203 2 0.180896 8.71084 7.35686 9.2257
131 2 -0.0254874 6.06134 13.1702 12.4472
193 2 0.0596702 10.9691 9.47163 15.1859
218 2 0.166032 8.77912 9.18704 8.53152
194 2 0.0104801 9.53427 7.46919 11.5262
43 1 -0.634486 11.0131 10.667 14.1344
50 1 -0.649606 2.69303 10.7613 11.3537
264 2 0.0871195 9.21517 12.3622 15.8205
207 4 1.19065 6.57946 12.6801 8.22879
34 4 0.984543 3.67478 9.74393 12.6164
191 3 -0.818669 11.9122 6.81675 10.1646
269 2 0.140757 10.2355 10.4536 13.3209
157 2 0.147829 3.74249 11.2584 10.9195
241 2 0.186431 9.58294 10.3994 15.5384
164 2 0.162119 1.99935 12.989 9.09248
158 2 0.23201 1.96117 11.5866 11.7627
ITEM: TIMESTEP
200
ITEM: NUMBER OF ATOMS
274
ITEM: BOX BOUNDS xy xz yz pp pp pp
-8.3797999999999995e+00 1.8013900000000000e+01 -8.3797999999999995e+00
0.0000000000000000e+00 1.3277624400000001e+01 1.1950000000000001e+00
0.0000000000000000e+00 1.6075500000000002e+01 4.3134373333333365e-01
ITEM: ATOMS id type q x y z
119 2 -0.0163991 7.50719 1.71095 5.04393
12 4 1.35427 -1.08579 6.17437 5.31987
7 4 1.08756 1.19372 1.95867 5.29341
9 4 1.29154 -0.554683 4.43031 1.92761
10 4 1.6422 0.442957 4.29112 7.33461
242 1 -0.650255 3.3617 0.509722 3.07063
21 4 0.824842 5.83241 1.78057 5.38967
26 4 1.28151 5.40801 4.66246 6.74087
41 1 -0.6818 1.1101 0.396878 6.32183
44 1 -0.685916 3.69403 3.9591 1.58614
55 3 -0.812072 0.934196 0.819334 1.0551
56 3 -0.817052 -0.0989242 2.1344 4.29565
58 3 -0.820741 -1.72663 4.08848 3.01549
59 3 -0.862759 -0.158613 3.32889 0.905045
243 2 0.140073 2.82344 1.44596 2.38959
61 3 -0.782088 1.24224 3.22048 6.353
62 3 -0.845915 -0.406911 5.19828 6.33122
74 3 -0.781244 5.53043 0.682056 6.91349
78 3 -0.878298 0.676571 5.10496 2.5913
81 3 -0.808535 5.63309 3.28508 5.76866
84 3 -0.8067 2.75203 5.94399 4.23057
85 3 -0.804235 4.65354 5.85043 5.99297
113 2 0.0804332 -1.99355 5.25124 4.20651
111 2 0.000291701 2.65264 1.85182 4.31043
112 2 -0.0179824 -1.29087 5.58605 0.887217
5 4 1.33731 0.335486 2.0349 0.127285
118 2 0.0205701 4.66236 1.36297 4.05425
24 4 1.25089 4.79671 4.89794 0.384883
222 3 -0.800675 6.70854 1.5619 0.992679
223 2 -0.0806505 6.4779 1.12245 3.68255
141 2 0.159953 3.56865 2.84113 1.45118
142 2 0.197722 2.73438 4.48043 1.44576
143 2 0.193188 4.19167 4.22985 2.60141
220 4 1.01577 7.03605 0.403007 2.08395
135 2 0.239613 0.770399 0.60873 7.39032
25 4 1.42451 1.28837 6.29893 3.45251
138 2 0.159488 1.56838 0.835753 12.1874
8 4 1.31221 2.01896 2.90977 11.0256
13 4 1.25997 0.509715 5.23167 12.4481
229 2 -0.0228948 3.55879 6.68113 13.3455
20 4 1.26694 4.56779 2.96158 9.16369
23 4 1.23648 6.94573 2.86552 11.1772
99 3 -0.793347 7.84706 1.19544 8.34223
226 4 0.937406 3.51901 6.34654 15.0651
42 1 -0.664127 2.48634 1.54491 12.2686
57 3 -0.838755 0.53245 2.49016 10.5554
63 3 -0.861673 -0.276438 4.1929 13.3275
64 3 -0.810073 1.97001 4.59469 11.9835
65 3 -0.843226 -2.31139 5.95623 9.53519
66 3 -0.844832 -0.30447 5.72274 11.2282
73 3 -0.814715 3.1226 2.77689 9.96641
75 3 -0.851869 5.68944 3.05157 10.2506
76 3 -0.817807 6.86449 1.50372 12.0499
80 3 -0.766578 4.68796 4.2645 8.26804
266 2 0.0716219 -1.5857 4.88372 15.6367
137 2 0.175054 3.43959 1.06649 11.811
114 2 -0.041835 0.900771 6.43025 13.6003
82 3 -0.807818 1.29788 5.32833 8.2116
124 2 0.0605145 3.3524 5.52505 11.9623
136 2 0.170759 2.76794 2.01357 13.3326
179 4 1.31317 7.57132 2.60606 15.6295
183 1 -0.65699 6.1304 1.65096 14.9148
248 2 0.159722 3.65292 3.52534 16.0279
60 3 -0.80747 -0.506875 3.3809 8.33499
196 2 0.18779 5.56341 2.43172 14.3347
77 3 -0.755343 7.03976 4.15653 15.7829
227 3 -0.826101 4.98407 6.01439 15.4262
195 2 0.279013 6.55617 0.844441 14.2427
245 1 -0.664882 3.08326 3.01641 15.1268
246 2 0.156393 2.71821 3.58576 14.1922
247 2 0.161033 3.53665 1.91812 14.9165
262 3 -0.816928 0.426369 2.04653 15.0421
228 2 -0.0187645 2.59844 4.97671 15.2244
197 2 0.174982 5.58699 1.323 15.9032
117 2 0.0847354 4.87417 1.57604 8.15594
121 2 0.00643844 6.84239 4.04057 12.4334
67 3 -0.8456 -3.8792 7.0821 7.6569
3 3 -0.819902 -6.0863 11.3729 0.953921
253 2 0.172042 -4.48746 8.37775 0.973705
16 4 1.43922 -3.19126 8.00463 6.52103
17 4 1.24624 -4.63034 9.84443 4.7822
154 2 0.177858 0.696592 9.23115 7.4246
161 2 0.19583 -1.29456 10.0385 0.386441
31 4 1.25449 -1.9463 10.5168 3.12501
33 4 1.11929 0.09028 11.0195 5.53864
48 1 -0.661712 -1.17067 9.02417 2.15954
49 1 -0.653748 -0.111142 9.24706 6.53938
28 4 1.23796 3.98184 6.74458 4.86036
68 3 -0.883268 -1.96249 7.22939 5.96639
244 2 0.147382 -5.56176 12.9261 3.95133
70 3 -0.813251 -4.21856 8.4039 5.29135
79 3 -0.849713 0.10213 6.95867 4.56064
87 3 -0.789044 1.60041 7.60752 2.34562
30 4 1.01821 2.09315 8.19277 0.936443
89 3 -0.75556 -2.04538 11.785 1.91039
90 3 -0.804694 -3.42796 10.2049 3.67477
93 3 -0.83011 -0.798452 11.0199 4.19333
94 3 -0.800924 -0.264982 12.2567 6.51379
115 2 0.015552 -4.32684 10.8161 6.15317
147 2 0.18749 1.76028 7.44997 6.48951
151 2 0.192721 -0.124227 9.35249 1.65353
152 2 0.163073 -1.94726 8.54698 1.49073
153 2 0.206139 -0.936881 8.3779 3.10141
265 2 0.202478 -4.49556 12.4847 2.41472
155 2 0.267491 0.00974007 8.43725 5.75181
156 2 0.259149 -1.2249 9.41892 6.91311
46 1 -0.663698 2.36217 7.88114 7.35169
148 2 0.175117 3.53823 7.72378 7.29394
272 2 0.164801 0.506606 10.25 0.177944
19 4 1.33807 -1.35641 12.8295 7.60264
1 4 1.23746 -6.75753 12.4606 1.9488
271 2 0.154223 1.66475 10.3184 1.82213
91 3 -0.848302 -2.8267 9.74229 7.38131
133 2 0.134358 -6.13853 12.9883 6.26808
47 1 -0.686599 1.56249 10.0183 0.75019
149 2 0.148542 2.04807 8.98094 7.45538
122 2 -0.00310933 3.30434 8.13539 5.65369
69 3 -0.853445 -6.11831 10.1635 4.31991
159 2 0.181364 1.88011 10.1202 11.0847
18 4 1.22005 -2.37511 8.25489 12.72
22 4 1.20618 -0.756892 12.9096 12.0489
32 4 0.936455 -2.52155 10.4173 8.75519
35 4 1.23537 -1.50949 10.7503 14.1796
29 4 0.916519 3.7567 6.94141 11.1592
160 2 0.146557 0.781299 10.9327 14.7919
140 2 0.170893 -5.87613 11.6761 14.6379
51 1 -0.637383 -0.130648 11.1394 15.4472
162 2 0.213513 -0.134787 12.2457 15.6867
72 3 -0.851495 -1.90001 7.93078 11.2742
83 3 -0.78551 0.0984604 7.53616 9.27257
88 3 -0.806431 2.92177 7.63553 15.7172
92 3 -0.822315 -1.51722 11.6072 8.92659
95 3 -0.808239 3.8559 8.37898 12.0194
96 3 -0.785448 -1.29255 9.24657 13.4477
97 3 -0.830791 -1.48446 12.0049 13.1646
98 3 -0.766622 -3.03727 10.6451 15.1675
116 2 -0.0301664 -3.86159 8.97238 12.4139
120 2 0.0537602 -1.04135 12.0884 10.6108
126 2 0.0476415 -1.91218 9.22725 9.7128
127 2 -0.0518931 -3.96171 10.5957 9.59776
128 2 0.0246401 2.44503 10.2908 13.4593
139 2 0.163621 -4.96098 10.7302 13.4161
187 3 -0.811458 0.815548 13.1109 12.4264
27 4 1.36552 1.57826 6.84264 8.78506
71 3 -0.82851 -2.71249 6.9244 13.6651
86 3 -0.781935 2.78406 6.96078 9.9051
14 4 1.4981 -1.11179 6.75407 10.2891
15 4 1.07732 -4.31217 10.5987 16.0649
158 2 0.235522 1.77642 11.734 12.0017
235 2 0.150184 11.9777 1.44882 3.70814
37 4 1.29021 13.3962 1.60213 6.12636
221 1 -0.667921 8.91356 0.196969 2.02344
39 4 1.26464 11.3525 3.65115 7.37879
45 1 -0.654621 7.1693 5.4024 7.13342
54 1 -0.669857 11.1606 4.77609 5.86492
101 3 -0.812212 14.2836 2.63312 5.35136
102 3 -0.857904 14.2022 0.605825 7.0165
250 2 0.193252 11.7934 4.22885 0.328966
4 4 1.44705 15.24 2.48302 3.92246
106 3 -0.816286 12.2214 2.37696 6.89855
232 3 -0.79543 14.5452 1.28578 2.96198
129 2 -0.00791811 12.515 0.53289 5.07695
130 2 0.0641926 7.53635 5.90518 3.43124
169 2 0.228052 11.4595 5.76691 6.19109
234 2 0.180156 11.6601 0.329094 2.11656
146 2 0.176571 7.75993 4.64493 6.44854
103 3 -0.765702 5.69627 6.08809 1.41934
145 2 0.160285 7.36023 6.49606 6.88236
170 2 0.166953 10.0785 4.81644 5.51866
171 2 0.182552 11.9018 4.23395 5.14052
231 1 -0.66287 11.9427 0.365151 3.19123
224 2 0.173734 9.40322 1.04163 1.51313
225 2 0.156578 9.08237 0.204841 3.15881
105 3 -0.762644 9.71199 3.23203 7.94764
267 2 0.174997 12.4612 5.97927 0.563113
249 1 -0.640574 12.5747 4.99 0.0457619
273 2 0.182093 9.56751 0.200928 0.0348524
11 4 1.47792 13.0428 6.23364 8.97061
36 4 1.28251 8.96214 2.27243 9.05866
52 1 -0.660161 10.2655 1.08979 9.75037
123 2 -0.0246523 5.23546 6.4591 10.5854
100 3 -0.795517 8.34624 3.18225 10.335
107 3 -0.750146 12.2764 4.55859 8.52124
110 2 0.00062879 14.713 2.67026 10.4189
188 3 -0.761196 8.73714 2.16946 14.4911
202 2 0.172158 13.9573 3.84535 11.685
163 2 0.169464 11.361 1.38886 9.84416
144 2 0.18974 7.31234 5.24615 8.26091
165 2 0.225252 9.75803 0.833282 10.8378
172 4 1.00578 16.3194 2.62791 13.8204
173 1 -0.646712 14.4523 1.92697 13.6248
174 2 0.11453 14.4992 2.78677 14.8752
175 2 0.00428384 15.9013 1.46163 12.5059
176 2 0.183523 13.921 2.3973 12.7772