LAMMPS (2 Aug 2023 - Update 2)
  using 8 OpenMP thread(s) per MPI task

include init.in

# set log file
log log.elastic
