LAMMPS (2 Aug 2023 - Update 2)
  using 8 OpenMP thread(s) per MPI task
Reading data file ...
  triclinic box = (0 0 0) to (14.6913 12.723 15.9631) with tilt (-7.3456 0 0)
WARNING: Triclinic box skew is large. LAMMPS will run inefficiently. (src/domain.cpp:220)
  2 by 2 by 2 MPI processor grid
  reading atoms ...
  243 atoms
Finding 1-2 1-3 1-4 neighbors ...
  special bond factors lj:    0        0        0       
  special bond factors coul:  0        0        0       
     0 = max # of 1-2 neighbors
     0 = max # of 1-3 neighbors
     0 = max # of 1-4 neighbors
     1 = max # of special neighbors
  special bonds CPU = 0.001 seconds
  read_data CPU = 0.009 seconds
*****Minimization starts.*****
Setting up cg style minimization ...
  Unit style    : real
  Current step  : 0
WARNING: No pairwise cutoff or binsize set. Atom sorting therefore disabled. (src/atom.cpp:2366)
WARNING: Communication cutoff is 0.0. No ghost atoms will be generated. Atoms may get lost. (src/comm_brick.cpp:210)
Per MPI rank memory allocation (min/avg/max) = 9.864 | 9.864 | 9.864 Mbytes
   Step          Temp          E_pair         E_mol          TotEng         Press     
         0   300            0              0              216.40681      3315.4065    
         1   300            0              0              216.40681      3315.4065    
Loop time of 6.18946e-05 on 64 procs for 1 steps with 243 atoms

70.7% CPU use with 8 MPI tasks x 8 OpenMP threads

Minimization stats:
  Stopping criterion = search direction is not downhill
  Energy initial, next-to-last, final = 
                     0                  0                  0
  Force two-norm initial, final = 0 0
  Force max component initial, final = 0 0
  Final line search alpha, max atom move = 0 0
  Iterations, force evaluations = 1 0

MPI task timing breakdown:
Section |  min time  |  avg time  |  max time  |%varavg| %total
---------------------------------------------------------------
Pair    | 0          | 0          | 0          |   0.0 |  0.00
Bond    | 1.43e-07   | 1.9463e-07 | 2.62e-07   |   0.0 |  0.31
Neigh   | 0          | 0          | 0          |   0.0 |  0.00
Comm    | 4.42e-06   | 4.9165e-06 | 5.439e-06  |   0.0 |  7.94
Output  | 0          | 0          | 0          |   0.0 |  0.00
Modify  | 0          | 0          | 0          |   0.0 |  0.00
Other   |            | 5.678e-05  |            |       | 91.74

Nlocal:         30.375 ave          33 max          24 min
Histogram: 1 0 0 0 0 0 4 0 0 3
Nghost:           2.25 ave           5 max           0 min
Histogram: 2 0 1 0 2 0 0 0 2 1
Neighs:              0 ave           0 max           0 min
Histogram: 8 0 0 0 0 0 0 0 0 0

Total # of neighbors = 0
Ave neighs/atom = 0
Ave special neighs/atom = 0
Neighbor list builds = 0
Dangerous builds = 0
System init for write_data ...
WARNING: Communication cutoff is 0.0. No ghost atoms will be generated. Atoms may get lost. (src/comm_brick.cpp:210)
equil: 1
WARNING: Van der Waals parameters for element SI indicate inner wall+shielding, but earlier atoms indicate a different van der Waals method. This may cause division-by-zero errors. Keeping van der Waals setting for earlier atoms. (src/REAXFF/reaxff_ffield.cpp:251)
md: 1

CITE-CITE-CITE-CITE-CITE-CITE-CITE-CITE-CITE-CITE-CITE-CITE-CITE

Your simulation uses code contributions which should be cited:
- pair reaxff command: doi:10.1016/j.parco.2011.08.005
- fix qeq/reaxff command: doi:10.1016/j.parco.2011.08.005
The log file lists these citations in BibTeX format.

CITE-CITE-CITE-CITE-CITE-CITE-CITE-CITE-CITE-CITE-CITE-CITE-CITE

Neighbor list info ...
  update: every = 10 steps, delay = 0 steps, check = no
  max neighbors/atom: 2000, page size: 100000
  master list distance cutoff = 12
  ghost atom cutoff = 12
  binsize = 6, bins = 4 3 3
  2 neighbor lists, perpetual/occasional/extra = 2 0 0
  (1) pair reaxff, perpetual
      attributes: half, newton off, ghost
      pair build: half/bin/newtoff/ghost
      stencil: full/ghost/bin/3d
      bin: standard
  (2) fix qeq/reaxff, perpetual, copy from (1)
      attributes: half, newton off
      pair build: copy
      stencil: none
      bin: none
Setting up Verlet run ...
  Unit style    : real
  Current step  : 0
  Time step     : 0.5
Per MPI rank memory allocation (min/avg/max) = 114.4 | 114.5 | 114.6 Mbytes
   Step          Temp          PotEng         Press         Density         Volume    
         0   300           -36701.66       32984.73       2.8878482      2983.7813    
       500   320.50765     -36519.824      18853.687      2.8415778      3032.3672    
      1000   292.13764     -36529.476     -7570.2056      2.8234695      3051.8153    
      1500   292.65842     -36529.381     -3405.4983      2.8308678      3043.8395    
      2000   299.89035     -36515.021     -3177.7669      2.8094722      3067.02      
      2500   262.80434     -36529.022     -1886.0413      2.8022566      3074.9173    
      3000   297.36673     -36537.59      -2037.7777      2.8169479      3058.8807    
      3500   302.71368     -36518.769      3811.793       2.8309168      3043.7869    
      4000   289.23606     -36530.351      877.45851      2.8377804      3036.425     
      4500   284.3547      -36533.588      6513.967       2.8532267      3019.9869    
      5000   293.14928     -36530.598      3523.2028      2.8368644      3037.4054    
Loop time of 184.22 on 64 procs for 5000 steps with 243 atoms

Performance: 1.173 ns/day, 20.469 hours/ns, 27.141 timesteps/s, 6.595 katom-step/s
207.7% CPU use with 8 MPI tasks x 8 OpenMP threads

MPI task timing breakdown:
Section |  min time  |  avg time  |  max time  |%varavg| %total
---------------------------------------------------------------
Pair    | 95.961     | 98.457     | 101.64     |  17.6 | 53.45
Bond    | 0.00083746 | 0.0010789  | 0.001367   |   0.4 |  0.00
Neigh   | 9.7298     | 9.9805     | 10.151     |   4.1 |  5.42
Comm    | 42.811     | 47.095     | 51.321     |  43.5 | 25.56
Output  | 0.0019671  | 0.0028465  | 0.0037937  |   1.5 |  0.00
Modify  | 25.223     | 28.603     | 33.54      |  44.9 | 15.53
Other   |            | 0.08043    |            |       |  0.04

Nlocal:         30.375 ave          33 max          26 min
Histogram: 2 0 0 0 0 1 0 1 2 2
Nghost:        2704.62 ave        2714 max        2697 min
Histogram: 2 1 0 0 1 1 1 1 0 1
Neighs:        17302.2 ave       18769 max       14850 min
Histogram: 2 0 0 0 0 1 0 1 2 2

Total # of neighbors = 138418
Ave neighs/atom = 569.6214
Ave special neighs/atom = 0
Neighbor list builds = 500
Dangerous builds not checked
main run: 2
WARNING: Van der Waals parameters for element SI indicate inner wall+shielding, but earlier atoms indicate a different van der Waals method. This may cause division-by-zero errors. Keeping van der Waals setting for earlier atoms. (src/REAXFF/reaxff_ffield.cpp:251)
md: 2
Neighbor list info ...
  update: every = 10 steps, delay = 0 steps, check = no
  max neighbors/atom: 2000, page size: 100000
  master list distance cutoff = 12
  ghost atom cutoff = 12
  binsize = 6, bins = 4 3 3
  2 neighbor lists, perpetual/occasional/extra = 2 0 0
  (1) pair reaxff, perpetual
      attributes: half, newton off, ghost
      pair build: half/bin/newtoff/ghost
      stencil: full/ghost/bin/3d
      bin: standard
  (2) fix qeq/reaxff, perpetual, copy from (1)
      attributes: half, newton off
      pair build: copy
      stencil: none
      bin: none
Setting up Verlet run ...
  Unit style    : real
  Current step  : 0
  Time step     : 0.5
Per MPI rank memory allocation (min/avg/max) = 115.2 | 115.3 | 115.3 Mbytes
   Step          Temp          PotEng         Press          f_avp         v_B[11]         v_F11          v_K11     
         0   293.14928     -36530.597      3524.4545      0             -0              0             -1.0361571e+10
       500   303.28425     -36532.511     -858.66516     -8.3268811      7.5842274e+10  68.671381     -1.0361571e+10
      1000   303.83232     -36526.546      200.59999      58.22041       7.7390022e+10  98.131237     -1.0361571e+10
      1500   306.00225     -36539.635      3012.317       705.6215       9.9155435e+10  83.532582     -1.0361571e+10
      2000   296.49743     -36534.384      1273.5245      782.05565      9.1630696e+10  97.991241     -1.0361571e+10
      2500   293.19518     -36522.682      1244.0006      860.01452      1.4131738e+11  100.96103     -1.0361571e+10
      3000   276.45706     -36513.651      1770.5051      885.81905      9.8777409e+10  104.1998      -1.0361571e+10
      3500   320.76792     -36524.976     -1840.896       1227.8755      1.1749706e+11  134.88045     -1.0361571e+10
      4000   320.17683     -36512.822      5062.7983      1262.8796      1.0923371e+11  139.18057     -1.0361571e+10
      4500   317.08965     -36514.831     -1292.1839      1372.1014      6.2561566e+10  144.42006     -1.0361571e+10
      5000   314.76409     -36518.695      8725.4615      1428.6734      5.3402393e+10  135.21001     -1.0361571e+10
      5500   302.3406      -36517.054     -358.5667       1312.9605      5.4562246e+10  134.77201     -1.0361571e+10
      6000   284.71869     -36529.575     -143.07364      1394.5634      7.5095956e+10  132.07974     -1.0361571e+10
      6500   295.96671     -36536.651      510.32088      1427.2294      8.132752e+10   133.22049     -1.0361571e+10
      7000   299.22774     -36529.333      1463.8229      1343.6277      8.9230714e+10  134.49774     -1.0361571e+10
      7500   301.93717     -36527.813      1145.4733      1392.3855      8.3468865e+10  142.23832     -1.0361571e+10
      8000   294.03425     -36526.409     -235.4585       1376.3409      7.5473976e+10  148.87326     -1.0361571e+10
      8500   331.22496     -36518.07       3144.5371      1426.4235      7.7752717e+10  154.13364     -1.0361571e+10
      9000   285.63626     -36528.557      7152.9238      1400.1383      8.1526363e+10  152.17917     -1.0361571e+10
      9500   296.68717     -36536.424     -2850.8167      1483.2918      6.1281034e+10  150.75146     -1.0361571e+10
     10000   334.54185     -36544.61       4285.5932      1496.5529      5.7992335e+10  154.39158     -1.0361571e+10
Loop time of 313.527 on 64 procs for 10000 steps with 243 atoms

Performance: 1.378 ns/day, 17.418 hours/ns, 31.895 timesteps/s, 7.751 katom-step/s
117.8% CPU use with 8 MPI tasks x 8 OpenMP threads

MPI task timing breakdown:
Section |  min time  |  avg time  |  max time  |%varavg| %total
---------------------------------------------------------------
Pair    | 164.79     | 169.25     | 172.75     |  24.3 | 53.98
Bond    | 0.0015236  | 0.0019073  | 0.0025805  |   0.7 |  0.00
Neigh   | 17.583     | 17.89      | 18.58      |   7.6 |  5.71
Comm    | 32.119     | 38.67      | 44.5       |  67.0 | 12.33
Output  | 0.0033191  | 0.0047482  | 0.0062487  |   1.9 |  0.00
Modify  | 84.781     | 85.708     | 87.059     |   6.6 | 27.34
Other   |            | 2.007      |            |       |  0.64

Nlocal:         30.375 ave          33 max          26 min
Histogram: 1 0 1 0 0 1 0 2 2 1
Nghost:         2696.5 ave        2704 max        2689 min
Histogram: 1 1 1 0 1 0 1 1 1 1
Neighs:        17310.5 ave       18781 max       14875 min
Histogram: 1 0 1 0 0 1 0 2 2 1

Total # of neighbors = 138484
Ave neighs/atom = 569.893
Ave special neighs/atom = 0
Neighbor list builds = 1000
Dangerous builds not checked
Stress sampling interval = 50
Stress sample count = 200
Born sampling interval = 50
Born sample count = 200

Output the tensor to C.lmp.log
done!
Total wall time: 0:08:17
