ITEM: TIMESTEP
0
ITEM: NUMBER OF ATOMS
350
ITEM: BOX BOUNDS xy xz yz pp pp pp
-8.0552999999999990e+00 1.5678200000000000e+01 -7.0408999999999997e+00
0.0000000000000000e+00 1.4894400000000001e+01 -1.0144000000000000e+00
0.0000000000000000e+00 1.7638300000000001e+01 6.7500000000000004e-01
ITEM: ATOMS id type q x y z
7 4 1.18321 1.37359 0.29258 7.52295
9 4 1.58901 0.46933 2.44638 5.64103
13 4 1.54569 0.13425 4.64913 7.97538
15 4 1.16968 -1.11679 7.1018 6.45156
23 4 1.10648 3.1475 2.26176 3.83091
26 4 1.57949 5.66699 1.61601 5.10086
30 4 1.09435 4.74949 4.49147 2.49562
31 4 1.09914 1.63299 7.28098 5.16737
32 4 1.06405 3.46497 6.84706 0.79153
33 4 1.11867 5.36253 3.80499 7.28936
35 4 1.09189 4.31592 6.51994 6.39572
70 1 -0.154402 3.03866 1.41894 2.18836
74 1 -0.129705 1.35264 5.6996 4.29178
97 2 -0.0830706 -1.87982 6.67374 5.27514
108 2 -0.0563229 5.1694 3.53884 1.46697
139 2 0.0221025 3.93219 0.78772 2.08184
140 2 0.0178237 3.02917 2.1483 1.37153
141 2 0.0652173 2.15421 0.78957 2.07539
150 2 0.137517 1.69968 4.86735 4.90784
151 2 0.0995376 1.93354 5.68274 3.36573
152 2 -0.00464959 0.29587 5.54552 4.04055
163 2 0.0266796 7.28761 0.48713 1.10479
207 3 -0.819878 -0.87745 2.50662 4.71792
208 3 -0.802938 0.39066 1.02336 6.44444
212 3 -0.865101 0.59125 3.67887 6.72316
213 3 -0.793979 -0.86378 5.79798 7.39422
224 3 -0.79053 1.74028 2.46821 4.632
225 3 -0.649555 2.72085 1.18044 7.65784
226 3 -0.751958 4.09549 1.33323 4.79401
227 3 -0.732139 6.20454 0.32218 5.91845
230 3 -0.698701 3.86704 3.72628 3.64724
232 3 -0.75528 3.78206 5.64191 1.85105
233 3 -0.688847 4.65919 2.81135 8.37911
234 3 -0.75575 5.86322 2.96127 5.97954
235 3 -0.794248 1.39566 5.41077 8.73101
237 3 -0.669761 2.79445 7.10463 6.31065
238 3 -0.67994 4.27064 4.93153 6.82371
242 3 -0.760917 2.07026 6.50796 0.00289
257 3 -0.74014 6.47741 1.75808 3.69786
299 4 1.05404 0.01363 2.73123 0.83254
300 1 -0.114519 1.04866 4.05509 1.54435
301 2 0.104239 1.8247 4.39029 0.85482
302 2 0.0516663 1.52207 3.70807 2.46378
303 2 0.065485 0.43808 4.92623 1.79882
304 3 -0.714601 -0.53788 1.81494 2.08521
309 2 -0.0175746 -0.93868 6.93749 2.81903
314 3 -0.662823 -3.40838 6.68461 3.12199
340 2 0.035377 -2.28123 4.44189 2.82418
346 2 0.0181307 5.32776 1.51015 0.27214
6 4 1.04137 0.57355 1.72077 16.2522
10 4 0.67353 -1.24956 3.07622 14.2118
12 4 0.653214 -2.69427 5.54783 17.0553
14 4 1.5858 -3.90883 7.46765 10.0227
16 4 1.05963 -0.1634 5.92306 14.1104
17 4 1.10288 -1.19858 7.11014 11.4856
25 4 0.6978 3.28823 2.09693 8.90277
28 4 0.655786 3.0938 3.6339 16.3395
34 4 1.54475 1.39202 6.69626 9.77415
36 4 1.07933 4.61841 4.99832 13.9409
37 4 1.08427 -0.33955 7.48543 16.8629
66 1 -0.100741 -1.06567 3.02867 12.3746
71 1 -0.14882 4.60038 2.80906 17.0522
72 1 -0.110082 6.07329 1.6694 11.2312
96 2 0.0272009 -2.75414 5.50425 15.5789
98 2 0.0107916 1.19742 5.87264 13.5439
104 2 0.0230791 3.60842 1.21531 10.0338
106 2 0.00646071 2.4647 4.5776 17.2941
107 2 0.0472584 2.28596 3.12474 9.26264
128 2 0.0770313 -0.10152 3.4593 12.0788
129 2 0.111085 -1.84513 3.65613 11.9235
130 2 0.0492633 -1.12537 2.02058 11.949
142 2 0.0351177 5.32039 3.55661 17.4107
143 2 0.0300382 5.10402 2.16715 16.3199
145 2 0.0582462 5.75281 2.08572 10.2702
146 2 0.0685397 5.29101 0.99085 11.5931
209 3 -0.674737 -0.45322 1.87692 14.993
210 3 -0.671878 -2.24595 4.05388 17.6072
211 3 -0.704005 -0.70809 3.75419 9.04954
214 3 -0.652185 -0.5707 4.48426 14.7456
215 3 -0.75631 -2.63885 6.76638 10.7678
216 3 -0.747414 -1.23395 6.39198 12.9598
228 3 -0.680433 1.96855 2.52071 15.9122
236 3 -0.786275 0.08104 6.44322 10.7031
239 3 -0.679086 3.48917 4.54103 15.0214
240 3 -0.699056 5.20073 3.67194 13.1961
241 3 -0.765931 -0.23061 7.00477 15.3164
243 3 -0.690368 -1.57942 6.67485 17.5398
244 3 -0.869711 2.75338 6.86249 10.6905
245 3 -0.805368 3.87956 6.0051 12.8892
291 4 0.194899 2.5955 0.86388 13.1448
292 1 -0.063392 2.35577 2.49647 12.285
293 1 -0.0626582 4.09802 0.8229 14.2633
295 2 0.0507123 1.59281 2.40307 11.5027
296 2 0.0680044 3.28383 2.85965 11.8299
297 2 0.104975 2.02567 3.25353 13.0099
298 2 0.107716 4.48225 1.83666 14.3994
305 3 -0.717443 -0.1525 2.37052 17.5563
328 2 0.0410905 3.81186 6.77931 16.5579
18 4 0.58276 -4.74587 11.3881 3.16397
19 4 1.59994 -2.70506 9.42678 8.02474
20 4 1.04259 -4.11614 11.4998 6.20173
24 4 0.953132 -0.1615 13.5485 7.36295
39 4 1.11966 2.50186 9.19652 2.73188
40 4 1.13493 2.12984 9.39975 8.54233
42 4 1.18085 1.12532 11.0224 6.11211
75 1 -0.15719 1.02985 10.0004 1.94968
86 1 -0.126273 -6.23545 12.4057 2.75794
99 2 -0.0307415 -3.45668 12.0527 2.84323
100 2 0.00267678 -2.90007 12.3077 6.02962
111 2 -0.0255632 -0.1069 10.5451 5.47405
153 2 0.0291882 0.47904 10.5991 2.68791
154 2 0.0274477 0.35227 9.22536 1.56367
155 2 0.0194645 1.30783 10.65 1.10941
185 2 0.0261623 -6.24057 12.7546 1.71767
186 2 0.0817037 -6.30752 13.2846 3.4102
218 3 -0.802966 -1.99651 8.18483 7.27643
219 3 -0.660661 -4.74789 11.0424 4.77124
220 3 -0.792844 -3.80086 10.131 7.04385
221 3 -0.590027 -5.279 12.3352 7.0168
231 3 -0.731154 0.27684 7.77134 5.95764
246 3 -0.739676 2.01974 8.45606 4.10303
247 3 -0.737935 3.23601 8.20728 1.66332
249 3 -0.795902 -1.55715 10.5058 8.43996
250 3 -0.703062 -1.30342 13.1514 8.47074
252 3 -0.687569 1.85322 9.86906 7.00442
253 3 -0.754996 0.80496 12.2695 7.10839
276 3 -0.567839 -4.79871 9.97214 2.29976
306 4 0.647298 -2.18596 7.74773 2.80965
307 4 0.254311 -2.26774 9.74815 0.42051
308 1 -0.0996351 -2.13193 9.17051 4.0005
310 2 -0.00878108 -2.16974 10.9603 1.28371
311 2 0.0485929 -2.17752 10.1258 3.45969
312 2 0.0398117 -1.19054 9.1641 4.56213
313 2 0.123586 -2.9673 9.13081 4.70853
315 3 -0.533259 -2.3089 8.3443 1.27768
348 2 0.0466835 0.89165 12.9289 2.34467
21 4 0.220418 -2.39159 10.892 14.4603
22 4 1.01742 -3.57903 11.7904 11.726
41 4 1.11811 -1.47969 11.8243 9.42045
68 1 -0.107498 -2.83534 9.08402 14.5329
69 1 -0.138856 -0.94705 8.92975 11.5418
77 1 -0.147569 1.68197 8.83992 14.4235
101 2 0.0031218 -0.99628 11.1541 14.9206
102 2 -0.00381673 -3.32588 11.6901 15.3038
103 2 0.0309635 -4.52768 10.6702 11.6653
112 2 -0.0658853 -0.59514 8.9352 16.8973
113 2 -0.00148747 -0.35316 11.6993 10.3371
114 2 -0.039968 0.15017 11.4035 12.5514
133 2 0.0712136 -2.0021 8.44035 14.2333
134 2 0.0867508 -3.69112 8.87819 13.8773
135 2 0.0318239 -3.13039 8.79607 15.5516
136 2 0.100477 -0.62315 9.27723 10.5526
137 2 0.0139788 -0.16673 9.21678 12.2558
138 2 0.0581876 -1.85946 9.46504 11.8182
159 2 0.06608 2.02749 7.98089 15.0091
160 2 0.0311855 1.02329 8.45469 13.6389
161 2 0.00951063 1.08417 9.48794 15.075
198 2 0.0513083 1.85861 10.7355 17.0525
217 3 -0.862352 -3.45913 8.89365 9.36754
222 3 -0.651541 -2.47429 11.465 12.8982
223 3 -0.54403 -4.2817 13.2246 11.9888
248 3 -0.75055 1.2133 8.10045 8.95182
251 3 -0.716859 -2.86277 11.9358 10.2606
283 3 -0.671274 1.75055 10.6554 9.53074
294 2 0.0756756 -5.6737 14.7388 13.8949
317 2 -0.00410037 -5.77774 11.6987 10.2243
318 3 -0.684961 -6.44436 13.7766 8.95695
320 1 -0.146441 -6.11038 13.4927 16.6322
321 2 0.0305137 -5.6267 12.9701 15.7983
322 2 0.0215712 -7.04529 12.9673 16.8731
334 2 0.024945 -4.49984 10.4934 17.2124
335 2 -0.0158142 -2.08323 10.4191 17.1752
339 2 -0.0229912 -5.4589 10.433 15.2174
341 2 0.00571592 -5.44781 13.4238 17.508
344 2 0.0875469 -2.1419 13.7662 13.8146
345 2 0.0213998 -3.17642 13.9403 15.2453
1 4 1.02475 14.0767 2.11609 3.2886
2 1 -0.155969 12.9385 3.44723 2.78076
3 2 0.0430032 12.6173 3.25924 1.75039
4 2 0.0333682 12.0487 3.43475 3.41411
5 3 -0.640093 13.2116 0.72426 3.4499
11 4 1.09525 11.2057 5.9075 4.0937
46 4 0.706128 8.022 1.71099 3.11878
49 4 1.09074 9.48037 4.23273 1.96718
50 4 1.09774 6.32758 6.49933 4.01999
51 4 0.603962 8.99135 6.7478 0.15853
52 4 0.683688 9.89702 5.76239 8.2774
54 4 1.0437 8.85988 7.1848 5.59087
67 1 -0.143756 11.9574 4.89969 5.46518
78 1 -0.136104 8.08486 0.35449 1.85043
82 1 -0.167138 6.88903 4.4623 8.05426
95 2 -0.00371859 13.0805 2.89305 7.57789
115 2 0.0037895 8.96008 1.49611 4.25696
117 2 -0.0878253 10.4599 3.49147 1.15592
120 2 -0.00988656 10.2659 4.4506 7.70529
131 2 0.0342258 11.2902 4.05217 5.68179
132 2 0.0889257 12.0542 5.4882 6.38586
157 2 0.0156082 6.35487 7.15859 7.54787
158 2 0.0594226 4.94316 7.30787 8.62198
162 2 0.0223847 9.04856 0.32032 1.32424
173 2 0.0848085 7.47454 4.98643 7.29098
174 2 0.00949735 7.47407 3.61073 8.42705
260 3 -0.655723 8.3437 3.17382 2.44302
261 3 -0.7156 10.2439 4.90596 3.22688
262 3 -0.648813 6.10341 5.14503 3.12423
263 3 -0.714488 4.97049 6.68268 4.90924
264 3 -0.656539 8.7687 5.4081 1.07793
265 3 -0.710938 11.2646 6.49569 8.81818
267 3 -0.675997 10.2318 7.05389 4.72379
268 3 -0.692864 7.6457 6.25062 4.98009
269 3 -0.705768 9.15456 6.66147 7.12284
323 1 -0.0967869 12.3651 5.42619 0.05533
324 2 0.124672 12.3404 5.60877 1.13236
336 2 0.0144721 7.65321 1.1572 7.85745
337 2 -0.000567113 11.1444 1.17078 2.00864
342 2 0.0398678 12.948 4.49393 5.23505
347 2 0.0309504 5.81436 6.98762 0.10068
350 2 0.0610962 12.27 0.49095 6.31823
8 4 0.6392 13.5802 2.86471 8.97912
27 4 0.831677 8.05027 1.05065 14.522
29 4 0.64492 6.51795 2.98545 12.4506
38 4 1.56385 3.91492 7.21323 11.8034
47 4 0.641044 9.66075 3.15944 15.7173
48 4 0.640523 11.1774 2.8831 10.9115
55 4 1.08743 10.6711 5.01507 13.235
73 1 -0.0959837 7.40102 4.4152 11.6957
79 1 -0.133961 8.0131 3.65388 16.4224
80 1 -0.139212 9.79648 2.35332 9.78761
81 1 -0.125389 11.7076 1.45466 11.9806
94 2 0.00752964 13.9021 1.48417 9.41481
105 2 -0.0410471 7.108 0.6559 15.5906
109 2 -0.0504783 5.71218 5.72894 14.6263
116 2 0.00319957 10.7695 3.09922 16.7029
119 2 -0.0175585 8.99492 5.63209 9.43989
121 2 -0.0758027 7.30946 7.00164 9.49097
144 2 0.0569908 6.97491 1.06642 11.0438
147 2 0.0395843 6.69987 4.88649 10.993
148 2 0.0611875 8.31476 4.15392 11.1554
149 2 0.120543 7.65719 5.15697 12.4617
164 2 0.0349223 7.9905 4.60995 16.9452
165 2 0.0178883 7.68497 2.87759 17.1289
166 2 0.0725975 7.27671 3.70341 15.6099
167 2 0.0327847 9.02654 1.79896 10.3398
168 2 0.00651424 10.1908 1.681 9.0108
169 2 0.0180736 9.32272 3.19768 9.27569
170 2 0.0202196 12.4662 0.84668 11.4698
171 2 0.0712452 10.8372 0.81553 12.1853
172 2 0.0435751 12.1207 1.77836 12.9437
175 2 0.00309021 6.69383 5.14334 8.88714
229 3 -0.653502 7.40608 2.23754 13.622
258 3 -0.635487 9.45128 1.61807 15.1547
259 3 -0.592751 12.4179 3.45906 9.97182
266 3 -0.806685 5.37688 7.23221 11.082
270 3 -0.694118 10.1127 4.15497 14.4969
271 3 -0.661811 10.6835 4.13696 11.8621
274 3 -0.810041 9.63888 6.27799 13.0309
325 2 0.00512314 10.5799 5.36386 17.4459
326 1 -0.143715 3.83254 7.65604 17.222
329 1 -0.121243 8.59686 7.00191 16.0928
330 2 0.0487168 7.75324 6.93076 15.391
331 2 0.053115 9.14163 6.05767 16.0457
333 2 0.0173295 13.0059 3.02535 14.6474
338 2 -0.0124499 12.0208 5.52161 13.526
343 2 0.0755615 11.1065 7.04877 17.1954
45 4 0.921196 4.92064 13.6355 2.59572
57 4 0.589203 9.80642 9.42402 1.17566
58 4 1.5362 3.6453 11.396 4.35395
59 4 0.619069 6.37442 11.4203 0.91673
62 4 0.663476 5.88885 11.6908 6.43011
76 1 -0.140081 5.30567 7.47416 7.60114
83 1 -0.12244 6.48803 7.99519 2.9622
84 1 -0.140833 8.4082 8.95483 5.50543
85 1 -0.138683 8.89957 9.59642 8.5863
87 1 -0.101586 7.3521 11.9574 5.3363
88 1 -0.115609 5.25128 13.2927 7.13
110 2 -0.0155364 3.55034 9.06889 8.70111
118 2 -0.0122926 7.67166 7.4226 0.07632
123 2 -0.0225356 7.63308 12.005 0.38363
124 2 -0.0362171 8.4347 9.66185 1.68158
125 2 0.00439808 6.58773 10.6005 2.12657
126 2 0.011972 2.27706 13.0934 8.72914
156 2 0.106972 5.25526 8.54521 7.37969
176 2 0.0848575 5.6924 8.02769 2.20921
177 2 0.0482547 7.45192 8.04033 2.44479
178 2 0.0582728 6.37054 8.89922 3.57199
179 2 0.0491204 8.34824 9.22437 4.44406
180 2 0.0893161 9.19379 9.57498 5.94198
181 2 0.0322847 7.4527 9.18852 5.98466
182 2 0.100029 9.53919 10.2148 7.95133
183 2 0.0539913 8.83675 8.59454 8.15235
187 2 0.0397518 7.33698 11.2152 4.52933
188 2 0.0943489 8.3092 11.8651 5.85911
189 2 0.0863999 7.29491 12.9525 4.8868
190 2 0.0555616 5.92461 13.6649 7.91369
191 2 0.0317621 4.23858 13.2125 7.54626
275 3 -0.555079 10.0077 7.81136 0.92631
277 3 -0.765077 3.65816 10.2835 3.1633
278 3 -0.787217 4.0264 12.8304 3.68812
279 3 -0.811623 2.13466 11.551 4.94344
280 3 -0.658073 5.39514 12.683 1.35141
285 3 -0.720261 4.68624 10.9816 5.52855
286 3 -0.672065 6.25578 10.5618 7.6002
349 2 0.0291259 8.5357 11.81 2.91934
43 4 1.03147 3.11182 9.69443 13.6766
44 4 1.0316 1.44606 12.0938 12.559
53 4 1.08574 6.78844 7.86246 10.5543
56 4 1.55046 9.45609 7.70202 12.2709
60 4 0.934392 7.24917 10.349 8.88843
61 4 0.623746 2.50693 12.1093 9.80075
63 4 0.636331 9.14962 10.1686 14.2255
64 4 0.637627 3.92876 11.4804 15.957
65 4 0.586487 7.84102 12.5503 12.836
89 1 -0.131146 7.50896 9.87368 15.0524
90 1 -0.0946897 4.70238 13.0316 15.2916
91 1 -0.104646 2.14047 11.6266 16.4733
92 1 -0.0900254 4.28935 11.7467 9.98413
93 1 -0.0880599 6.25865 11.6423 12.5689
122 2 -0.0476226 8.98941 10.8224 17.5369
127 2 0.00419503 7.69023 13.5623 13.8915
184 2 0.0810821 9.40676 9.51245 9.55796
192 2 -0.000318934 7.60043 9.2788 15.9637
193 2 0.0936163 6.7806 9.37344 14.4014
194 2 0.0292722 7.0815 10.8398 15.3566
195 2 0.0836402 4.29863 13.3173 14.3143
196 2 0.0246662 5.79201 12.9244 15.1976
197 2 0.0781196 4.50414 13.8636 15.9822
199 2 0.0436701 1.42171 11.7555 15.6569
200 2 0.0640188 2.05026 12.4969 17.1418
201 2 0.0892366 4.62321 11.2711 9.0543
202 2 0.117034 4.45592 11.0294 10.7922
203 2 0.0442188 4.91243 12.6324 10.1432
204 2 0.0704067 5.92058 11.1866 13.5042
205 2 0.132929 6.35135 10.8553 11.8131
206 2 0.0462207 5.47556 12.3382 12.2536
254 3 -0.781202 3.76721 8.65936 12.5659
255 3 -0.733814 2.65922 11.0483 12.8703
256 3 -0.62424 1.40104 13.2766 13.6646
272 3 -0.891948 10.5502 7.79093 11.0611
273 3 -0.804293 7.91831 7.87174 11.7432
281 3 -0.724428 6.4986 9.37963 10.0026
282 3 -0.722785 7.46684 11.8508 9.51605
284 3 -0.672025 1.79237 12.7943 11.125
287 3 -0.750528 9.70889 8.89722 13.3373
288 3 -0.673579 4.13443 10.2061 14.8748
289 3 -0.626718 4.71913 11.137 17.3841
290 3 -0.618783 9.03326 11.4772 13.242
316 4 1.07167 8.79186 12.6481 10.0579
319 3 -0.645887 8.35427 13.3486 11.4681
327 2 0.0780113 3.79029 8.55798 16.6025
332 2 0.0530707 9.28027 7.77447 15.7212
ITEM: TIMESTEP
1
ITEM: NUMBER OF ATOMS
350
ITEM: BOX BOUNDS xy xz yz pp pp pp
-8.0552999999999990e+00 1.5678200000000000e+01 -7.0408999999999997e+00
0.0000000000000000e+00 1.4894400000000001e+01 -1.0144000000000000e+00
0.0000000000000000e+00 1.7638300000000001e+01 6.7500000000000004e-01
ITEM: ATOMS id type q x y z
7 4 1.20604 1.38023 0.250841 7.52623
9 4 1.59235 0.473376 2.45838 5.63997
13 4 1.5658 0.130682 4.63988 7.9262
15 4 1.25383 -1.07165 7.12042 6.54519
23 4 1.13139 3.09731 2.24479 3.85132
26 4 1.56201 5.694 1.60625 5.11768
30 4 1.15476 4.7371 4.58598 2.55035
31 4 1.11173 1.61687 7.30814 5.1587
32 4 1.09778 3.45318 6.84502 0.800045
33 4 1.13637 5.35097 3.77361 7.28895
35 4 1.09557 4.35628 6.531 6.38312
70 1 -0.152366 3.03882 1.41151 2.17383
74 1 -0.127117 1.3486 5.67588 4.27751
97 2 -0.0625783 -1.92609 6.64809 5.20389
108 2 -0.0338035 5.19741 3.47441 1.39705
139 2 0.0253788 3.93018 0.790186 2.08459
140 2 0.0198001 3.02933 2.14867 1.37597
141 2 0.0625455 2.15477 0.791933 2.07935
150 2 0.135893 1.69993 4.87022 4.90942
151 2 0.095399 1.93405 5.68604 3.36804
152 2 -0.00396176 0.298078 5.54865 4.04335
163 2 0.0248636 7.28766 0.491675 1.11043
207 3 -0.825791 -0.878943 2.51006 4.71768
208 3 -0.793618 0.392383 1.02013 6.44881
212 3 -0.89536 0.588486 3.68283 6.72712
213 3 -0.843417 -0.862619 5.7958 7.39101
224 3 -0.818466 1.74142 2.46785 4.62688
225 3 -0.689973 2.71921 1.17981 7.66462
226 3 -0.740356 4.08908 1.333 4.78888
227 3 -0.749561 6.21188 0.312677 5.92709
230 3 -0.704955 3.86474 3.72291 3.64412
232 3 -0.799933 3.78275 5.64065 1.84743
233 3 -0.738162 4.65835 2.81066 8.38456
234 3 -0.76752 5.86487 2.96581 5.98331
235 3 -0.771532 1.39213 5.41113 8.73223
237 3 -0.654978 2.80058 7.10194 6.31207
238 3 -0.678296 4.27245 4.94047 6.82407
242 3 -0.798624 2.07176 6.50905 0.00282899
257 3 -0.749087 6.48402 1.75697 3.69188
299 4 1.06303 0.0204227 2.71228 0.813391
300 1 -0.113279 1.06405 4.07539 1.55538
301 2 0.0982994 1.82223 4.38757 0.853785
302 2 0.0518069 1.51979 3.70588 2.46143
303 2 0.0635219 0.436594 4.92281 1.7966
304 3 -0.713919 -0.536743 1.81663 2.08487
309 2 -0.00884389 -0.874124 6.89721 2.82029
314 3 -0.689291 -3.40155 6.68553 3.12215
340 2 0.0365812 -2.27936 4.43798 2.82534
346 2 0.0183101 5.32541 1.51279 0.268523
6 4 1.05985 0.573957 1.72479 16.2506
10 4 0.711526 -1.16439 3.07438 14.2015
12 4 0.678855 -2.68966 5.5591 17.1378
14 4 1.58908 -3.9111 7.4671 10.0134
16 4 1.11898 -0.25071 5.92703 14.1551
17 4 1.12441 -1.19337 7.09866 11.4685
25 4 0.784475 3.32512 2.09002 8.80277
28 4 0.692842 3.12022 3.58059 16.2773
34 4 1.56462 1.40102 6.71216 9.81466
36 4 1.13885 4.55019 4.95154 13.901
37 4 1.15047 -0.320114 7.38955 16.8624
66 1 -0.109074 -1.06393 3.02838 12.3575
71 1 -0.154794 4.61078 2.80331 17.0596
72 1 -0.112604 6.07042 1.65665 11.2183
96 2 0.0326291 -2.75694 5.50151 15.495
98 2 0.0317624 1.28583 5.86898 13.5076
104 2 0.0232559 3.62677 1.16435 10.1004
106 2 0.0163755 2.43177 4.62773 17.3456
107 2 0.0497468 2.23208 3.18112 9.28269
128 2 0.0723674 -0.103917 3.4588 12.0828
129 2 0.107014 -1.84448 3.655 11.9269
130 2 0.0463234 -1.12581 2.02182 11.9539
142 2 0.034841 5.31621 3.55696 17.4081
143 2 0.027538 5.10007 2.17018 16.3198
145 2 0.0583077 5.75393 2.0884 10.274
146 2 0.0633043 5.29298 0.994998 11.5956
209 3 -0.696358 -0.452425 1.8733 14.9917
210 3 -0.684805 -2.24977 4.05693 17.6066
211 3 -0.713776 -0.708997 3.75163 9.0472
214 3 -0.700095 -0.572723 4.48027 14.7443
215 3 -0.760394 -2.63712 6.7689 10.7694
216 3 -0.771209 -1.23323 6.39459 12.9591
228 3 -0.7033 1.96797 2.51762 15.9146
236 3 -0.806673 0.0827951 6.44612 10.7041
239 3 -0.721884 3.49007 4.54043 15.0262
240 3 -0.730703 5.20256 3.66932 13.1943
241 3 -0.820466 -0.228496 7.0104 15.3158
243 3 -0.733291 -1.5821 6.67439 17.5391
244 3 -0.892781 2.75021 6.86323 10.6887
245 3 -0.831806 3.88129 6.00551 12.8909
291 4 0.207243 2.66905 0.849372 13.0914
292 1 -0.0691485 2.35326 2.50981 12.2771
293 1 -0.0688554 4.09605 0.786978 14.2628
295 2 0.0504289 1.59484 2.39981 11.5054
296 2 0.0641835 3.28341 2.85579 11.8324
297 2 0.0977618 2.02684 3.24914 13.0107
298 2 0.102184 4.48596 1.83142 14.4035
305 3 -0.733336 -0.146741 2.3669 17.5537
328 2 0.0415755 3.80948 6.78107 16.5612
18 4 0.629083 -4.8144 11.3456 3.18879
19 4 1.62604 -2.7189 9.40833 8.01115
20 4 1.10682 -4.19771 11.4451 6.21939
24 4 0.981818 -0.166503 13.5456 7.34967
39 4 1.12775 2.50183 9.15458 2.71938
40 4 1.2019 2.03214 9.42562 8.52384
42 4 1.24622 1.21041 11.0631 6.15201
75 1 -0.152796 1.00505 10.0128 1.93636
86 1 -0.135397 -6.24912 12.4155 2.7547
99 2 -0.0229607 -3.38683 12.0896 2.82486
100 2 0.0218107 -2.82825 12.3555 6.01965
111 2 -0.00235734 -0.184627 10.5141 5.4351
153 2 0.0333261 0.4831 10.5964 2.68798
154 2 0.0247454 0.356446 9.22549 1.56619
155 2 0.0215404 1.31049 10.6474 1.11284
185 2 0.0249558 -6.23702 12.7518 1.72042
186 2 0.0783727 -6.30402 13.2814 3.40995
218 3 -0.85094 -1.99836 8.18524 7.2739
219 3 -0.705263 -4.74526 11.0449 4.76996
220 3 -0.835475 -3.7963 10.1326 7.04404
221 3 -0.627753 -5.27687 12.3653 7.01851
231 3 -0.769344 0.271734 7.76823 5.95361
246 3 -0.75372 2.01788 8.45458 4.10114
247 3 -0.761756 3.23701 8.20639 1.65966
249 3 -0.810214 -1.55915 10.5034 8.43998
250 3 -0.739374 -1.29909 13.1545 8.4697
252 3 -0.748394 1.85363 9.87002 7.00334
253 3 -0.795682 0.803896 12.2728 7.10557
276 3 -0.620135 -4.80026 9.97646 2.29849
306 4 0.687501 -2.2573 7.79109 2.79956
307 4 0.302368 -2.26875 9.67587 0.471892
308 1 -0.108204 -2.13007 9.17993 4.00871
310 2 -0.0145344 -2.16536 11.021 1.32805
311 2 0.0450528 -2.178 10.1209 3.4586
312 2 0.0413913 -1.19255 9.16063 4.55903
313 2 0.119043 -2.96685 9.12802 4.70537
315 3 -0.572107 -2.30725 8.3459 1.27978
348 2 0.0504909 0.892976 12.9545 2.34285
21 4 0.25677 -2.41714 10.8423 14.3822
22 4 1.0716 -3.51251 11.8642 11.736
41 4 1.16861 -1.55666 11.8477 9.36513
68 1 -0.112719 -2.83941 9.07152 14.5355
69 1 -0.137576 -0.943053 8.94981 11.5427
77 1 -0.143706 1.66257 8.82805 14.4328
101 2 0.00180496 -0.927308 11.1668 14.9446
102 2 -0.00658483 -3.3723 11.7299 15.347
103 2 0.0533827 -4.58689 10.603 11.6617
112 2 -0.04684 -0.611713 9.02452 16.8992
113 2 0.0235528 -0.272175 11.6902 10.4026
114 2 -0.0181772 0.0666305 11.3591 12.55
133 2 0.0699017 -2.00192 8.44485 14.2333
134 2 0.0869368 -3.68877 8.88199 13.8777
135 2 0.029554 -3.12865 8.80022 15.5495
136 2 0.0966749 -0.624361 9.27339 10.5536
137 2 0.0132129 -0.168858 9.21228 12.2544
138 2 0.0597818 -1.85941 9.46069 11.8175
159 2 0.0654734 2.02924 7.98361 15.0073
160 2 0.0318192 1.02695 8.45679 13.639
161 2 0.0112029 1.08819 9.48872 15.0725
198 2 0.0516541 1.86259 10.7368 17.0498
217 3 -0.871682 -3.45654 8.89429 9.36526
222 3 -0.687975 -2.47577 11.4633 12.9002
223 3 -0.568953 -4.28353 13.2465 12.0012
248 3 -0.783144 1.21521 8.09738 8.95517
251 3 -0.768964 -2.86518 11.9345 10.2653
283 3 -0.717102 1.75235 10.6559 9.53012
294 2 0.0792767 -5.74238 14.7223 13.9383
317 2 0.0191028 -5.69881 11.6316 10.2364
318 3 -0.729463 -6.4387 13.7847 8.94877
320 1 -0.146335 -6.10806 13.4892 16.6363
321 2 0.0312515 -5.62848 12.9775 15.797
322 2 0.0221191 -7.04545 12.9748 16.8707
334 2 0.0144208 -4.56426 10.4975 17.168
335 2 -0.0211931 -2.02205 10.4188 17.1301
339 2 -0.0143248 -5.40292 10.4485 15.2707
341 2 0.00552011 -5.44974 13.4296 17.5052
344 2 0.083316 -2.14819 13.7874 13.8171
345 2 0.02243 -3.17403 13.9614 15.2379
1 4 1.03694 14.0743 2.09241 3.30936
2 1 -0.150295 12.9205 3.46619 2.77207
3 2 0.0434562 12.6201 3.2576 1.75259
4 2 0.0342244 12.0515 3.43242 3.41434
5 3 -0.655808 13.2014 0.715866 3.4426
11 4 1.11169 11.207 5.91413 4.07159
46 4 0.747562 7.97061 1.7308 3.0613
49 4 1.16764 9.41359 4.2814 2.02
50 4 1.11546 6.28602 6.48795 4.03012
51 4 0.648122 9.06623 6.70803 0.173379
52 4 0.759233 9.93508 5.85547 8.24556
54 4 1.0557 8.87901 7.17948 5.61721
67 1 -0.141143 11.9692 4.88301 5.48832
78 1 -0.141598 8.08576 0.318331 1.84009
82 1 -0.161985 6.91112 4.47141 8.06537
95 2 -0.00235349 13.0544 2.89322 7.50685
115 2 0.0108961 9.00689 1.48468 4.31399
117 2 -0.0700982 10.5196 3.44685 1.1061
120 2 -0.010133 10.2851 4.37856 7.67503
131 2 0.0331331 11.2905 4.05586 5.67855
132 2 0.0842696 12.0525 5.48981 6.38157
157 2 0.0153966 6.35135 7.15786 7.54558
158 2 0.0614536 4.94166 7.30624 8.6185
162 2 0.0223403 9.04815 0.326015 1.32944
173 2 0.085386 7.47137 4.98491 7.29052
174 2 0.0099473 7.4704 3.61181 8.42517
260 3 -0.702736 8.34534 3.16858 2.44278
261 3 -0.754048 10.2461 4.90235 3.22656
262 3 -0.693893 6.10448 5.14931 3.12324
263 3 -0.749396 4.97225 6.68398 4.91379
264 3 -0.703759 8.76957 5.40686 1.07407
265 3 -0.751786 11.2603 6.4928 8.81539
267 3 -0.6889 10.2327 7.05485 4.72523
268 3 -0.687234 7.64248 6.25464 4.97836
269 3 -0.750324 9.15405 6.66117 7.12674
323 1 -0.10321 12.3522 5.43018 0.0570837
324 2 0.119969 12.3441 5.60784 1.1308
336 2 0.0126586 7.65499 1.16088 7.85857
337 2 0.00138365 11.1426 1.17426 2.00731
342 2 0.0403047 12.9452 4.49688 5.23193
347 2 0.0307029 5.80921 6.98704 0.102178
350 2 0.0599664 12.2717 0.464298 6.32496
8 4 0.695224 13.5708 2.92919 9.0417
27 4 0.862577 8.10881 1.04363 14.4427
29 4 0.664181 6.51721 2.98346 12.4672
38 4 1.58142 3.91195 7.21511 11.7994
47 4 0.682849 9.60269 3.16035 15.6537
48 4 0.663125 11.1848 2.89731 10.9113
55 4 1.15646 10.5822 4.97657 13.2159
73 1 -0.101221 7.40788 4.42854 11.6874
79 1 -0.140811 7.99754 3.65879 16.4309
80 1 -0.140706 9.7822 2.34538 9.77523
81 1 -0.128518 11.7124 1.43823 11.9911
94 2 0.00768611 13.9196 1.41089 9.43627
105 2 -0.0250306 7.05743 0.637487 15.6489
109 2 -0.0320434 5.77419 5.77014 14.6655
116 2 0.0149946 10.8301 3.09597 16.7573
119 2 -0.016547 8.94533 5.62335 9.50283
121 2 -0.0561149 7.34167 6.94851 9.42373
144 2 0.0545035 6.97328 1.06972 11.0465
147 2 0.0400988 6.70023 4.88335 10.9959
148 2 0.0566554 8.31218 4.1506 11.1582
149 2 0.113642 7.65574 5.1532 12.4623
164 2 0.0344609 7.99457 4.60829 16.9433
165 2 0.0184317 7.68889 2.87868 17.1262
166 2 0.0690195 7.28124 3.70259 15.6097
167 2 0.0312119 9.0308 1.80148 10.3413
168 2 0.00611272 10.1928 1.6836 9.01479
169 2 0.0193557 9.32669 3.19729 9.27969
170 2 0.0187518 12.4637 0.85072 11.4687
171 2 0.0646498 10.8379 0.819377 12.1831
172 2 0.0418252 12.1186 1.78108 12.9396
175 2 0.00577245 6.69052 5.14089 8.88417
229 3 -0.677941 7.40444 2.23732 13.6213
258 3 -0.665082 9.45034 1.61776 15.1568
259 3 -0.629423 12.4185 3.45492 9.97097
266 3 -0.844987 5.37893 7.22999 11.0796
270 3 -0.742585 10.1153 4.15544 14.4992
271 3 -0.699192 10.6842 4.13607 11.8624
274 3 -0.834171 9.6422 6.27555 13.0326
325 2 0.00454972 10.5844 5.36422 17.4454
326 1 -0.142037 3.84904 7.65638 17.2086
329 1 -0.127522 8.60155 6.99931 16.0756
330 2 0.0474545 7.75392 6.93163 15.3958
331 2 0.0495726 9.13954 6.05952 16.0495
333 2 0.0271841 12.9291 3.02332 14.6713
338 2 0.00967985 12.1023 5.55188 13.5434
343 2 0.0722465 11.1094 7.04633 17.1958
45 4 0.940987 4.93727 13.6306 2.60231
57 4 0.661192 9.87497 9.36881 1.22271
58 4 1.52716 3.662 11.4306 4.38023
59 4 0.680604 6.28679 11.4461 0.881397
62 4 0.676387 5.88629 11.6792 6.43169
76 1 -0.140898 5.30566 7.47357 7.60059
83 1 -0.121836 6.48854 8.00612 2.95505
84 1 -0.139845 8.40273 8.97843 5.50257
85 1 -0.13537 8.9224 9.58716 8.58322
87 1 -0.103658 7.36022 11.9593 5.32872
88 1 -0.119174 5.24605 13.3347 7.13068
110 2 0.00775616 3.64461 9.04685 8.71148
118 2 -0.00368144 7.59947 7.45909 0.0711371
123 2 -0.0221582 7.69837 12.0342 0.357692
124 2 -0.040001 8.35956 9.6755 1.70857
125 2 0.00430251 6.60049 10.5548 2.19259
126 2 0.0199649 2.26169 13.1551 8.65948
156 2 0.105706 5.25375 8.54282 7.37767
176 2 0.0815916 5.69314 8.02444 2.21225
177 2 0.0472669 7.45033 8.03645 2.44804
178 2 0.0579545 6.37047 8.89467 3.57315
179 2 0.0469435 8.34903 9.22129 4.44628
180 2 0.0815293 9.19398 9.57122 5.94191
181 2 0.0333294 7.45453 9.18449 5.98472
182 2 0.0920238 9.53534 10.2162 7.95202
183 2 0.0512266 8.83344 8.5966 8.15296
187 2 0.038562 7.33403 11.2163 4.53292
188 2 0.0897222 8.30552 11.8652 5.86161
189 2 0.0840272 7.2925 12.9513 4.88938
190 2 0.0536206 5.92653 13.6565 7.91177
191 2 0.0285514 4.24149 13.2052 7.54237
275 3 -0.604944 10.0044 7.81193 0.922345
277 3 -0.735079 3.65745 10.2841 3.16182
278 3 -0.801266 4.02813 12.835 3.68677
279 3 -0.835873 2.13015 11.5506 4.94433
280 3 -0.691008 5.39759 12.6829 1.35064
285 3 -0.734854 4.69204 10.9833 5.53261
286 3 -0.693605 6.25599 10.5642 7.59509
349 2 0.024132 8.54074 11.8092 2.91926
43 4 1.05014 3.12404 9.68995 13.6611
44 4 1.07499 1.53015 12.148 12.5705
53 4 1.15907 6.74903 7.89754 10.6459
56 4 1.56217 9.45191 7.70744 12.2704
60 4 0.965166 7.22119 10.3589 8.86038
61 4 0.658895 2.51292 12.0555 9.86652
63 4 0.667606 9.09409 10.151 14.164
64 4 0.643813 3.9395 11.4722 15.9665
65 4 0.620244 7.85628 12.4877 12.7831
89 1 -0.137967 7.4967 9.8721 15.0601
90 1 -0.0968079 4.71268 13.0552 15.2824
91 1 -0.104396 2.11495 11.6303 16.4832
92 1 -0.0988437 4.31205 11.7422 9.9846
93 1 -0.0973676 6.23845 11.6334 12.567
122 2 -0.0496776 8.99996 10.8624 17.4667
127 2 0.0160517 7.68105 13.6271 13.9595
184 2 0.0798262 9.40324 9.51308 9.55649
192 2 0.000515015 7.60421 9.28034 15.9603
193 2 0.0874295 6.78574 9.37443 14.4002
194 2 0.0282757 7.08565 10.8382 15.3543
195 2 0.0796878 4.29721 13.3131 14.3168
196 2 0.0238286 5.78801 12.9214 15.1992
197 2 0.0759333 4.50308 13.859 15.9821
199 2 0.0441079 1.42738 11.7551 15.656
200 2 0.0636129 2.05362 12.4948 17.139
201 2 0.085455 4.6206 11.2723 9.05538
202 2 0.110116 4.45212 11.0309 10.7914
203 2 0.0407569 4.90778 12.6325 10.143
204 2 0.0667145 5.92367 11.1884 13.503
205 2 0.123937 6.3552 10.8575 11.8141
206 2 0.0432747 5.47987 12.3391 12.2545
254 3 -0.797675 3.76594 8.65828 12.5664
255 3 -0.765106 2.6563 11.0467 12.8718
256 3 -0.658972 1.39404 13.3049 13.6765
272 3 -0.893065 10.55 7.79039 11.0604
273 3 -0.844776 7.91621 7.87082 11.7395
281 3 -0.748539 6.50034 9.37719 10.0011
282 3 -0.745547 7.46618 11.8487 9.51569
284 3 -0.709519 1.79138 12.7948 11.123
287 3 -0.766422 9.7084 8.90071 13.3422
288 3 -0.677018 4.13362 10.206 14.8753
289 3 -0.654649 4.72184 11.1375 17.3859
290 3 -0.646706 9.0333 11.4766 13.2457
316 4 1.12123 8.73408 12.7422 10.0371
319 3 -0.681487 8.35206 13.3497 11.4735
327 2 0.0780486 3.78705 8.55713 16.6058
332 2 0.051268 9.2779 7.77411 15.7254
ITEM: TIMESTEP
2
ITEM: NUMBER OF ATOMS
350
ITEM: BOX BOUNDS xy xz yz pp pp pp
-8.0552999999999990e+00 1.5678200000000000e+01 -7.0408999999999997e+00
0.0000000000000000e+00 1.4894400000000001e+01 -1.0144000000000000e+00
0.0000000000000000e+00 1.7638300000000001e+01 6.7500000000000004e-01
ITEM: ATOMS id type q x y z
7 4 1.25205 1.38908 0.155352 7.52795
9 4 1.61723 0.471664 2.45602 5.63249
13 4 1.56169 0.125831 4.64901 7.93834
15 4 1.27541 -1.05928 7.12432 6.56617
23 4 1.1343 3.06972 2.28517 3.85938
26 4 1.53009 5.74869 1.58848 5.14839
30 4 1.1621 4.68918 4.55639 2.56429
31 4 1.14716 1.64489 7.34048 5.1858
32 4 1.14689 3.41602 6.8424 0.82609
33 4 1.1782 5.31552 3.75732 7.26987
35 4 1.1327 4.30491 6.52078 6.39122
70 1 -0.143968 3.03512 1.38231 2.11808
74 1 -0.118665 1.34172 5.62876 4.24939
97 2 -0.0544614 -1.93827 6.64165 5.18675
108 2 -0.0297901 5.20786 3.45063 1.37068
139 2 0.0295263 3.92806 0.794036 2.09034
140 2 0.0182025 3.02978 2.15139 1.38355
141 2 0.062421 2.15403 0.795087 2.0866
150 2 0.133727 1.70105 4.87353 4.91479
151 2 0.0918896 1.93682 5.69245 3.36932
152 2 -0.000212069 0.298896 5.55353 4.0481
163 2 0.025187 7.28836 0.498328 1.12025
207 3 -0.84398 -0.880321 2.51672 4.7178
208 3 -0.785651 0.400559 1.01501 6.45972
212 3 -0.885198 0.588756 3.67615 6.71492
213 3 -0.858122 -0.864246 5.79037 7.38791
224 3 -0.841915 1.71632 2.47055 4.62987
225 3 -0.701369 2.70276 1.1605 7.65807
226 3 -0.703984 4.08813 1.33003 4.78432
227 3 -0.775848 6.22923 0.29116 5.94694
230 3 -0.736547 3.86381 3.72485 3.63588
232 3 -0.815756 3.77864 5.64543 1.83945
233 3 -0.763611 4.67667 2.81764 8.39017
234 3 -0.783638 5.86947 2.96824 5.98769
235 3 -0.78311 1.39057 5.41285 8.73622
237 3 -0.704776 2.80871 7.09827 6.31023
238 3 -0.712723 4.28154 4.94847 6.82834