ITEM: TIMESTEP
0
ITEM: NUMBER OF ATOMS
350
ITEM: BOX BOUNDS xy xz yz pp pp pp
-8.0552999999999990e+00 1.5678200000000000e+01 -7.0408999999999997e+00
0.0000000000000000e+00 1.4894400000000001e+01 -1.0144000000000000e+00
0.0000000000000000e+00 1.7638300000000001e+01 6.7500000000000004e-01
ITEM: ATOMS id type q x y z
233 3 -0.855509 4.44016 3.11041 8.7936
9 4 1.4419 0.269441 2.46959 5.91689
13 4 1.45072 -0.304538 4.85566 8.05069
300 1 -0.658898 0.928046 3.82829 1.54868
23 4 1.39184 3.28509 2.74319 4.29588
26 4 1.43429 5.91644 1.65448 5.56701
30 4 1.29444 4.72594 4.78825 2.55381
15 4 1.36044 -1.55541 7.22022 6.70947
32 4 1.30332 3.21932 6.84279 0.759183
33 4 1.35376 5.20688 3.81139 7.5193
346 2 0.137595 6.0081 2.25704 0.82653
70 1 -0.639514 2.85992 1.68647 2.647
74 1 -0.667733 1.04671 5.54952 4.02286
97 2 0.0244411 -2.66056 6.42783 5.7261
31 4 1.32117 1.13123 7.0931 5.12532
304 3 -0.783473 -0.402392 1.34212 2.21788
140 2 0.180752 3.22919 2.30537 1.78561
141 2 0.22572 1.78684 1.43423 2.68057
150 2 0.202606 1.39269 5.70472 2.90681
151 2 0.174234 -0.0748982 5.21531 4.15801
152 2 0.247672 1.71365 4.85187 4.64839
108 2 0.00293479 5.42759 3.50826 1.52784
207 3 -0.812772 -0.883767 2.52248 4.67224
208 3 -0.867104 0.169062 1.11119 6.73371
212 3 -0.854709 -0.0529891 3.91575 6.74683
213 3 -0.842575 -1.37082 6.05989 7.81117
224 3 -0.824066 1.92983 2.64577 5.12646
225 3 -0.862626 2.3008 1.39751 8.3109
226 3 -0.856504 4.56589 1.99809 4.75264
301 2 0.221819 1.97581 4.08668 1.14635
230 3 -0.857815 3.65604 4.10121 3.50539
232 3 -0.852008 4.08031 5.68963 1.43751
302 2 0.201122 0.964553 3.45714 2.64056
35 4 1.41034 4.06737 6.42299 6.24489
303 2 0.201634 0.204901 4.69521 1.40232
237 3 -0.84214 2.54944 6.74131 6.01174
238 3 -0.87778 4.48286 4.96586 6.70078
342 2 0.191091 -1.72916 5.03456 5.0312
139 2 0.16098 3.58719 0.775183 2.96232
299 4 1.19413 0.12983 2.37472 0.757111
314 3 -0.798128 -2.79298 7.16789 3.3329
231 3 -0.879105 -0.193038 7.21033 5.94041
234 3 -0.857358 6.08077 2.75037 6.67337
336 2 -0.00581209 6.8745 0.924175 8.46241
7 4 1.43525 1.26937 0.332036 7.67194
6 4 1.10839 1.40984 1.60659 16.4184
10 4 0.998808 -0.481387 2.41765 14.059
12 4 1.02169 -2.67958 5.04387 16.6768
297 2 0.209088 3.01583 3.17622 12.1598
16 4 1.28746 0.24343 5.46948 13.8087
338 2 0.106464 -3.34549 6.10193 11.9487
295 2 0.180465 1.75327 1.82091 12.3731
28 4 0.994885 4.05374 3.61761 16.039
34 4 1.53404 1.30624 6.92277 9.59523
291 4 0.871947 4.18485 0.807985 13.0151
37 4 1.21686 -0.145606 6.9095 16.2817
66 1 -0.682016 -0.859247 1.95941 12.2227
17 4 1.3055 -0.980815 7.34087 11.6239
106 2 0.045208 4.13222 4.83288 17.3758
305 3 -0.771713 0.314732 2.2778 17.4899
98 2 0.130543 1.75046 5.4782 12.9394
104 2 -0.0106256 2.9314 2.27339 10.7265
38 4 1.49932 3.68408 7.38816 11.8355
210 3 -0.791265 -2.19981 3.69873 17.4326
128 2 0.224848 -0.677736 2.81337 11.6417
296 2 0.0335397 4.8192 1.42784 11.4738
130 2 0.176785 -0.391112 1.04773 11.7392
298 2 0.164676 5.88335 1.78433 14.5256
143 2 0.0610105 5.77343 2.65382 16.2173
145 2 0.183581 5.32563 1.11115 9.93804
292 1 -0.652883 2.79832 2.21985 12.7278
209 3 -0.758491 0.521662 1.13704 14.7275
294 2 0.227358 2.72162 2.37249 13.8767
72 1 -0.658235 6.27795 1.61374 10.2821
214 3 -0.830229 -0.0191144 3.91937 13.8888
25 4 1.00883 3.00226 2.57916 9.07664
216 3 -0.860645 -0.744674 6.37633 12.9338
228 3 -0.784648 2.78828 2.4808 16.2011
236 3 -0.844744 0.0933924 6.88223 10.5766
239 3 -0.832527 4.30366 4.28789 14.6441
211 3 -0.81946 -0.78443 3.81567 9.16321
241 3 -0.842928 0.652584 6.0442 15.2102
243 3 -0.812627 -1.58176 6.23843 16.6288
244 3 -0.812965 2.85588 7.29969 10.4528
245 3 -0.792987 3.30871 5.52029 12.4849
215 3 -0.792948 -2.88454 7.31305 11.0499
107 2 0.108646 1.94863 3.91046 9.09969
36 4 1.24513 4.6159 4.88399 13.1963
242 3 -0.795742 0.78461 7.03488 17.5845
328 2 0.176032 2.71099 7.64554 15.9972
345 2 0.170791 4.61597 0.744665 15.453
293 1 -0.686241 5.30794 0.83625 14.5956
235 3 -0.787552 1.45233 5.45445 8.90796
240 3 -0.82543 5.43746 3.82328 12.3413
307 4 0.557833 -2.0616 10.6757 0.256653
19 4 1.5266 -3.02476 9.60466 8.00429
20 4 1.26115 -4.29304 12.2203 6.26354
24 4 1.20915 -0.769691 13.7486 7.65198
39 4 1.33457 2.28957 9.29382 2.73128
40 4 1.35364 1.90206 9.44855 8.07449
42 4 1.26852 0.655911 11.5705 6.20293
75 1 -0.653927 1.13188 10.1294 1.4022
315 3 -0.765177 -2.46347 9.57015 1.29384
99 2 0.070726 -4.62991 12.6876 2.42419
100 2 0.0444962 -2.88404 12.933 5.66745
111 2 0.00492945 -0.955077 11.228 5.49005
153 2 0.162843 1.23977 11.2562 1.61609
154 2 0.143789 0.163021 9.57926 1.8091
155 2 0.164565 1.51584 9.75447 0.392921
250 3 -0.836128 -1.78226 12.9055 8.62381
227 3 -0.813587 -1.40306 14.1949 6.31407
218 3 -0.886584 -2.28345 8.59568 7.03596
219 3 -0.79519 -5.13355 11.6289 4.89339
220 3 -0.79293 -3.86837 10.8978 7.17186
221 3 -0.881166 -5.10365 13.2342 7.04338
309 2 0.0723175 -0.506753 8.33584 3.28395
246 3 -0.776047 1.45402 8.46523 3.95606
247 3 -0.790402 2.99356 8.20084 1.71998
253 3 -0.847452 0.476743 12.7068 7.30253
335 2 -0.0163345 -0.380351 11.0432 0.416698
252 3 -0.824417 0.986361 10.2958 6.94238
86 1 -0.657297 -6.12122 12.7219 1.985
186 2 0.241011 -6.60225 13.7713 1.85516
306 4 0.895408 -2.20329 8.53732 3.00003
158 2 0.174055 3.72516 7.43826 8.35676
308 1 -0.673258 -1.39811 9.76842 4.28599
310 2 -0.00138857 -2.37365 12.337 0.689344
311 2 0.148897 -0.981327 10.6729 3.82579
312 2 0.23262 -0.896776 9.53413 5.27181
313 2 0.117827 -2.7361 9.76986 4.41696
322 2 0.175369 -4.66324 13.2089 0.683936
248 3 -0.836108 1.09405 8.24682 8.63707
163 2 0.17052 0.804459 13.5629 2.39974
122 2 0.0593776 -4.01597 9.07794 1.19348
341 2 0.165936 -3.01077 14.0651 0.11198
21 4 0.709246 -2.6858 10.0747 14.5324
22 4 1.26404 -3.5661 12.0554 12.2642
41 4 1.30127 -1.74559 11.7394 9.70008
68 1 -0.664019 -3.37646 8.3694 14.2622
69 1 -0.701968 -0.642198 9.10871 12.0609
77 1 -0.690138 1.17136 9.31482 14.7122
101 2 -0.0575969 -0.974511 10.17 14.5491
102 2 -0.100953 -2.92906 10.7421 16.2038
103 2 0.112051 -5.2539 11.8831 11.8362
112 2 -0.0394343 -0.258075 8.56547 15.7978
113 2 0.0872413 -0.168525 11.7936 10.4772
114 2 -0.0582806 -0.104406 12.0992 13.4685
127 2 0.0876224 -6.93127 14.0148 13.9493
249 3 -0.794708 -1.85573 10.348 8.97328
135 2 0.154475 -4.10487 8.13188 15.0997
136 2 0.194716 0.0364973 9.45632 11.1224
137 2 0.161915 -0.0949209 9.19793 13.0995
138 2 0.200662 -1.62429 9.6575 12.0241
159 2 0.154662 0.796635 8.35756 14.3004
160 2 0.114616 0.373141 10.1923 14.6312
161 2 0.161902 1.58474 9.22012 15.7452
199 2 0.138258 1.16016 11.4177 16.3308
317 2 0.0337173 -5.35472 11.7825 9.16539
222 3 -0.81744 -3.12791 11.0186 13.3912
223 3 -0.81413 -3.42273 13.5792 12.7151
319 3 -0.770023 -6.5492 12.6446 11.2502
251 3 -0.849693 -2.79152 11.8692 10.9258
217 3 -0.830287 -4.05117 8.96237 9.1125
344 2 0.117362 -1.12848 14.0759 14.2707
133 2 0.136707 -2.26434 7.85002 14.3445
334 2 0.00225013 -4.21183 12.3442 16.9309
320 1 -0.651352 -4.83885 14.0111 17.5092
321 2 0.123951 -5.22425 14.0237 16.4158
284 3 -0.801087 1.13019 12.4861 11.0567
134 2 0.231343 -3.80254 8.36575 13.2159
318 3 -0.78472 -6.91424 14.0494 9.18199
14 4 1.53794 -4.24086 7.77955 10.1875
1 4 1.19305 14.3021 1.51522 3.52245
2 1 -0.686343 12.8329 2.32181 2.65184
3 2 0.166204 12.6763 1.96972 1.5668
4 2 0.151219 11.9297 2.15832 3.2946
118 2 0.0597663 6.72368 6.75951 0.687121
11 4 1.27633 11.7516 5.64418 3.74422
46 4 1.02551 8.37474 1.50422 3.30568
49 4 1.2594 10.0119 4.08384 1.95331
50 4 1.35992 6.30809 6.76398 4.22924
51 4 1.00023 8.61409 6.52915 0.59162
52 4 1.04109 10.0077 5.67471 8.4522
54 4 1.37735 9.32134 6.75612 5.52965
257 3 -0.789369 7.28684 1.57907 4.38726
268 3 -0.816903 7.813 6.71079 5.03646
324 2 0.202022 12.6644 5.09957 0.782636
95 2 -0.0102653 13.5693 2.37146 7.33401
142 2 0.180319 7.365 3.38618 0.234345
117 2 0.0145867 10.6463 3.22255 0.610213
120 2 0.0622012 11.0228 4.09874 8.3358
131 2 0.206917 12.7276 3.59945 4.52784
269 3 -0.83323 9.66677 6.22197 7.01794
267 3 -0.80575 10.4934 6.10943 4.61718
340 2 0.216062 13.1671 3.40149 2.65159
157 2 0.143983 5.5852 6.93234 8.12862
173 2 0.163815 6.53477 5.95963 7.84527
337 2 -0.0156924 11.7677 0.608695 2.39402
260 3 -0.779909 9.21482 2.91726 2.71138
261 3 -0.842292 11.3746 4.62498 2.62534
262 3 -0.819753 5.98466 5.58485 3.2405
78 1 -0.685387 8.24452 0.253922 1.89298
264 3 -0.810343 9.06064 5.23756 1.43362
168 2 0.153171 8.83054 3.38118 7.92124
174 2 0.173743 7.62863 4.26891 8.12661
132 2 0.155738 12.1575 4.8115 5.81163
67 1 -0.669573 12.8699 4.65776 4.89368
82 1 -0.674688 6.78059 4.9679 8.42477
263 3 -0.816821 5.04661 7.15581 5.17077
162 2 0.136978 7.39135 0.911503 1.32208
348 2 0.155485 9.00445 0.0514067 1.12142
146 2 0.160172 7.06669 0.886606 10.4082
27 4 1.13366 8.47931 0.918196 13.768
29 4 1.07876 6.79345 2.95961 11.8599
343 2 0.157563 11.2812 6.85231 16.861
47 4 0.908894 10.0752 3.19056 14.8151
48 4 1.03177 11.1453 2.50639 10.4708
55 4 1.21736 11.1063 5.06066 12.5121
73 1 -0.689792 7.9224 4.38347 11.3717
79 1 -0.657144 9.043 3.84779 16.3603
96 2 0.0855324 12.2791 4.65947 15.1296
81 1 -0.650037 11.0981 1.03583 11.7424
165 2 0.153716 8.21569 3.13471 16.6058
273 3 -0.831593 7.76386 7.34863 11.9254
109 2 0.0158335 5.61896 6.14602 13.4734
116 2 0.0352228 10.6424 3.09652 16.6287
331 2 0.16345 5.86026 5.45186 17.1685
121 2 -0.0293652 6.52817 6.44205 9.71501
333 2 -0.0109038 13.7853 2.40471 14.9769
147 2 0.13873 7.6096 4.84071 10.3698
148 2 0.240407 9.02997 4.16682 11.3874
149 2 0.206139 7.54274 5.10534 12.2695
164 2 0.145135 8.92655 4.84523 16.9427
265 3 -0.869388 10.9114 6.50746 9.35614
166 2 0.061653 8.53936 4.25513 14.7057
167 2 0.0883189 9.75775 2.14775 9.1799
266 3 -0.898499 5.17841 7.41743 11.6639
169 2 0.148424 8.8282 3.76548 9.69775
119 2 -0.000382859 8.48523 5.38258 9.19623
175 2 0.148952 6.20046 4.77757 9.39142
172 2 0.236123 10.9737 1.66228 12.7346
144 2 0.165787 6.64646 2.5015 9.64204
229 3 -0.840993 7.61459 1.94175 12.75
258 3 -0.822873 9.73384 1.70255 14.5225
259 3 -0.822686 12.529 2.56712 9.69341
323 1 -0.678578 11.4309 5.8043 17.2839
270 3 -0.769568 11.477 4.20997 13.8368
271 3 -0.794876 10.8879 3.79937 11.5143
274 3 -0.856685 9.8219 5.9871 12.8099
325 2 0.142079 10.5218 5.03974 16.9284
332 2 0.0627537 7.70962 6.761 16.4359
329 1 -0.638873 6.20482 6.62983 16.8237
330 2 0.160075 5.59956 7.08768 15.9716
129 2 0.138048 13.6559 1.76302 12.4554
347 2 0.184054 4.381 7.49083 17.005
8 4 0.979218 13.8956 2.57762 8.92805
171 2 0.163515 10.1767 0.58048 11.3089
56 4 1.46964 9.32051 7.47592 12.3816
105 2 -0.0174146 7.24178 0.607971 14.9985
80 1 -0.669591 9.46859 3.33089 8.87351
94 2 0.0965334 14.6967 1.10329 9.21777
71 1 -0.651614 5.40095 3.58332 17.5815
45 4 1.21775 5.28678 13.5035 3.26468
57 4 0.895843 10.0256 9.31659 1.32169
58 4 1.507 3.14735 11.615 4.53383
59 4 0.969557 6.41148 11.5061 1.15504
62 4 1.16622 5.39029 11.2294 6.43841
126 2 0.0382576 2.44478 13.159 8.3803
83 1 -0.675414 6.22115 8.36383 3.02177
84 1 -0.668531 9.81237 8.54117 5.35351
85 1 -0.693942 8.34336 9.22466 8.0626
87 1 -0.648043 6.8499 10.4406 5.44943
88 1 -0.688611 5.61757 13.1354 6.80199
76 1 -0.667206 4.72115 7.5874 7.75584
18 4 1.00204 9.83518 11.3716 3.4618
123 2 -0.0253571 8.10483 11.8185 1.07231
185 2 0.122601 9.55474 12.1774 1.0173
125 2 0.00983403 6.48054 9.96185 1.89742
5 3 -0.7903 6.52979 14.0012 4.16272
156 2 0.251862 5.04538 8.71902 7.79123
176 2 0.179778 5.86691 7.91594 1.99956
177 2 0.171257 7.28328 8.77189 2.99175
178 2 0.225527 5.40865 8.96604 3.48662
179 2 0.22087 10.5405 8.59581 4.51387
180 2 0.208338 10.2492 8.90865 6.30579
181 2 0.196895 8.83831 8.99354 5.15453
182 2 0.18573 9.03194 10.0835 7.71938
183 2 0.169526 7.86292 8.59269 7.26388
187 2 0.176937 6.68751 9.63919 4.55576
188 2 0.176764 7.50603 9.9834 6.39794
189 2 0.158904 7.16276 11.4813 5.06726
190 2 0.200112 6.37997 13.2649 7.63041
191 2 0.150416 4.58203 13.5623 7.01551
275 3 -0.815999 9.21269 8.03055 0.860639
277 3 -0.802415 3.16395 10.4552 3.24003
278 3 -0.821357 3.94602 13.0369 4.00876
350 2 0.254054 6.10115 13.527 5.74033
280 3 -0.82758 5.84332 12.4675 2.18923
285 3 -0.853558 4.00081 10.995 5.6647
286 3 -0.765138 5.62552 10.4267 7.82248
349 2 0.0721741 8.22592 12.2932 3.13472
276 3 -0.838342 9.69364 10.007 2.70895
201 2 0.175099 4.6202 13.0101 8.50215
110 2 0.0429355 3.32838 8.87006 7.25639
279 3 -0.831051 1.66771 12.1082 4.8521
115 2 0.0825031 2.34879 14.315 3.49107
43 4 1.35247 2.77995 9.79285 13.6509
44 4 1.2025 1.39332 12.3501 12.6766
254 3 -0.86135 3.17111 8.51908 12.8139
326 1 -0.653988 3.32441 8.00977 16.961
60 4 1.23129 7.00822 10.0845 9.08998
61 4 1.04469 2.36937 11.9974 9.67091
63 4 1.01623 8.13909 9.80679 14.28
64 4 1.03245 3.80251 11.8543 15.9966
65 4 0.938843 8.11264 12.7968 12.8881
89 1 -0.652778 6.47293 9.34623 15.1427
90 1 -0.64717 4.42671 13.2892 14.8925
91 1 -0.659672 1.98465 12.2449 16.4226
92 1 -0.681137 3.97839 12.8315 9.56069
93 1 -0.670868 6.42542 13.1866 12.2766
288 3 -0.754064 3.77281 10.3776 14.8473
290 3 -0.782652 8.20348 11.4026 13.6556
327 2 0.183612 3.41174 9.16918 17.0082
192 2 0.167356 6.4608 8.35161 15.8336
193 2 0.201517 6.06093 9.1665 14.0681
194 2 0.195899 5.93244 10.2754 15.6173
195 2 0.256283 3.73476 14.1596 14.8114
196 2 0.206414 4.61275 12.6582 13.9747
197 2 0.147014 5.37998 13.5765 15.4732
184 2 0.173969 8.84586 8.60081 8.96047
316 4 1.23678 8.90246 12.5261 9.67598
200 2 0.154046 1.86026 13.0453 15.6205
202 2 0.182176 4.585 11.8117 10.0966
203 2 0.158866 4.04252 13.7551 10.2866
204 2 0.190842 5.86392 12.2069 12.4004
205 2 0.187324 6.52851 13.4995 11.1311
206 2 0.128664 6.18135 14.0506 13.0174
170 2 0.185842 4.94202 14.4862 11.8726
255 3 -0.82528 2.20844 11.0211 12.7972
256 3 -0.820588 2.00006 13.673 13.3239
272 3 -0.85473 10.3397 8.21377 11.3563
289 3 -0.805255 4.73287 12.0476 17.399
281 3 -0.825983 6.61997 9.12098 10.3089
282 3 -0.811348 7.67705 11.587 9.3017
339 2 -0.00197185 8.21233 9.74633 16.0044
287 3 -0.768474 8.9662 8.62498 13.7044
53 4 1.27444 6.54504 7.63961 10.9549
198 2 0.174834 1.87434 12.741 17.4053
283 3 -0.848229 2.29754 10.5737 9.06255
124 2 -0.0726446 9.09639 11.0445 17.626
ITEM: TIMESTEP
100
ITEM: NUMBER OF ATOMS
350
ITEM: BOX BOUNDS xy xz yz pp pp pp
-8.0552999999999990e+00 1.5678200000000000e+01 -7.0408999999999997e+00
0.0000000000000000e+00 1.5207964000000000e+01 -1.0144000000000000e+00
0.0000000000000000e+00 1.7638300000000001e+01 9.8856400000000022e-01
ITEM: ATOMS id type q x y z
233 3 -0.868936 4.38946 3.01225 8.62439
9 4 1.48302 0.27313 2.57544 5.87609
13 4 1.3851 -0.203787 4.84221 8.10188
300 1 -0.656356 1.24568 3.74155 1.5052
23 4 1.31811 3.23759 2.67159 4.19278
26 4 1.40268 5.92697 1.59634 5.61893
30 4 1.2712 4.59684 4.75586 2.49846
15 4 1.31833 -1.44628 7.20219 6.85076
32 4 1.3488 3.10481 6.93396 0.741044
33 4 1.35892 5.33474 3.67026 7.57973
346 2 0.141345 6.02545 2.26727 0.75713
70 1 -0.681845 2.87287 1.31243 2.85801
74 1 -0.67308 0.853136 5.81656 3.9529
97 2 0.0131949 -2.57539 6.51047 5.78879
235 3 -0.774004 1.48348 5.38406 8.57461
304 3 -0.797565 -0.375571 1.26852 2.20094
140 2 0.172419 2.95419 1.85413 1.86856
141 2 0.209912 1.86456 0.900702 3.10021
150 2 0.230648 1.51051 5.77508 3.08528
151 2 0.152583 -0.285749 5.96281 3.67909
152 2 0.255828 1.08898 4.94763 4.71401
108 2 -0.00337991 5.32222 3.39416 1.58943
207 3 -0.821851 -0.683154 2.37989 4.59835
208 3 -0.851071 0.306783 1.10241 6.79829
212 3 -0.852275 -0.0773051 4.017 6.66366
213 3 -0.833656 -1.24146 6.11984 8.09159
224 3 -0.769378 1.71874 2.81006 5.10935
225 3 -0.881295 2.26936 1.44827 8.37395
226 3 -0.833695 4.51351 2.17427 4.93524
301 2 0.206312 2.31878 3.77155 1.19601
230 3 -0.817711 3.5782 4.15935 3.54696
232 3 -0.836291 3.91208 5.70733 1.43305
302 2 0.194937 1.0355 3.37535 2.67685
35 4 1.37766 4.16477 6.51466 6.3045
303 2 0.227627 0.625086 4.65161 1.16378
237 3 -0.800796 2.69129 7.0015 5.93451
238 3 -0.773184 4.47384 4.86746 6.81288
342 2 0.152188 -1.91633 5.14059 4.8486
139 2 0.152398 3.80814 0.597497 3.08483
299 4 1.19564 0.368393 2.31132 0.721594
314 3 -0.842903 -3.00507 7.10455 3.03251
7 4 1.4726 1.27784 0.393365 7.7706
162 2 0.134395 7.10111 0.679184 1.66347
242 3 -0.834778 1.74212 6.36512 0.0298888
6 4 1.11747 1.47533 1.5306 16.3819
10 4 1.02831 -0.598105 2.39021 13.999
12 4 1.02621 -2.58729 5.08539 16.8315
297 2 0.230603 3.22697 3.00689 12.486
16 4 1.26919 0.237658 5.49023 13.7338
338 2 0.108078 -3.36098 6.14375 12.1553
295 2 0.190018 1.85737 1.70546 12.145
28 4 1.04147 4.02331 3.46965 16.0369
34 4 1.49177 1.44239 6.88649 9.60339
291 4 0.862548 4.13915 0.629987 12.8606
37 4 1.26376 -0.131468 6.87352 16.3802
66 1 -0.702263 -1.02182 1.89512 12.2044
17 4 1.27712 -1.04081 7.20555 11.6848
106 2 0.0809312 4.14699 4.88098 17.4105
305 3 -0.78593 0.396963 2.10905 17.4007
98 2 0.112457 1.73231 5.59876 12.9285
104 2 -0.0213651 2.91946 2.34192 10.7674
38 4 1.35584 3.6505 7.09688 11.7195
210 3 -0.803943 -1.91297 3.81984 17.5862
128 2 0.222954 -0.981786 2.86709 11.5644
296 2 0.00779341 4.89135 0.976212 11.2811
130 2 0.180297 -0.266318 1.15579 11.9725
298 2 0.182311 5.96654 1.71877 14.3594
143 2 0.0232899 5.51214 2.43824 16.1946
145 2 0.202483 5.36425 1.58674 9.92873
292 1 -0.655918 2.69903 2.02806 12.7314
209 3 -0.758887 0.450311 1.31209 14.7041
294 2 0.213978 2.53752 2.0101 13.872
72 1 -0.661596 6.40524 1.68307 10.2948
214 3 -0.806664 -0.194599 3.9441 13.852
25 4 1.04437 2.98469 2.58966 9.10565
216 3 -0.842706 -0.911272 6.41723 13.1122
228 3 -0.808937 2.78357 2.59936 16.3708
236 3 -0.828778 0.22774 6.78603 10.7632
239 3 -0.809771 4.22391 4.3618 14.7398
211 3 -0.800554 -0.674124 3.59197 9.31764
241 3 -0.823944 0.642317 6.16129 15.1549
243 3 -0.833451 -1.62199 6.346 16.6023
244 3 -0.8713 2.84061 7.16985 10.2874
245 3 -0.799231 3.26193 5.28339 12.363
215 3 -0.790509 -2.88192 7.26443 11.0675
107 2 0.112645 1.99672 3.93106 9.03386
36 4 1.1473 4.56534 4.92213 13.2176
146 2 0.171428 6.96147 0.755575 10.2689
240 3 -0.789556 5.42396 3.56647 12.4261
293 1 -0.670685 5.38867 0.723018 14.371
71 1 -0.654481 5.29034 3.68109 17.5902
307 4 0.562152 -2.04416 10.6948 0.219528
19 4 1.50714 -2.94365 9.60379 7.98289
20 4 1.23122 -4.40058 12.0917 6.28211
24 4 1.18805 -0.698693 13.7818 7.68889
39 4 1.33664 2.30043 9.36049 2.67788
40 4 1.37644 1.96397 9.49554 7.99485
42 4 1.22996 0.630804 11.4938 6.15403
75 1 -0.658202 0.822193 10.3371 1.83261
315 3 -0.750983 -2.54231 9.63177 1.26323
99 2 0.0968484 -4.71769 12.96 2.46699
100 2 0.0507805 -3.06705 12.9352 6.03412
111 2 -0.000209922 -0.93627 11.1213 5.60544
153 2 0.160819 1.0971 11.4253 1.70836
154 2 0.182641 0.00838314 10.158 2.67815
155 2 0.152847 0.73226 9.74345 0.90298
250 3 -0.827497 -1.81902 13.0356 8.71827
227 3 -0.812891 -1.36219 14.2959 6.23663
218 3 -0.883768 -2.18256 8.56778 7.08122
219 3 -0.798578 -5.10994 11.6963 4.8562
220 3 -0.809649 -3.91997 10.7054 7.09278
221 3 -0.863156 -5.15329 13.2262 7.11956
309 2 0.0774898 -0.712354 8.47781 3.32586
246 3 -0.789556 1.4815 8.64068 3.9099
247 3 -0.837301 2.74342 8.14979 1.67467
253 3 -0.837159 0.480457 12.8685 7.23889
335 2 -0.0234664 -0.414883 11.1068 0.440086
252 3 -0.812611 1.04557 10.1001 6.8709
86 1 -0.659334 -6.18218 12.8384 2.09269
186 2 0.266384 -6.66064 13.9951 2.19623
306 4 0.921332 -2.45746 8.54543 2.94837
341 2 0.161866 -3.06578 14.0799 0.463775
308 1 -0.655259 -1.5449 9.70419 4.25534
310 2 0.00725727 -2.34735 12.3284 0.809795
311 2 0.146718 -1.26152 10.7023 3.797
312 2 0.246035 -1.06505 9.42648 5.23781
313 2 0.0957182 -3.18915 9.55775 4.48257
322 2 0.181911 -4.75148 13.19 0.746474
248 3 -0.798758 1.21836 8.26139 8.67672
320 1 -0.645495 -3.80992 13.3401 0.088754
122 2 0.0694601 -4.05111 9.12735 0.893648
279 3 -0.799965 1.67222 11.7431 4.92169
31 4 1.32907 1.21341 7.33701 5.01219
231 3 -0.833379 -0.124075 7.34261 5.91271
317 2 0.0348549 -5.34718 11.8945 8.81022
21 4 0.709171 -2.89058 10.1293 14.5302
22 4 1.21882 -3.74631 12.0441 12.2477
41 4 1.29162 -1.70118 11.8151 9.73725
68 1 -0.643918 -3.39708 8.46749 13.8745
69 1 -0.677833 -0.488742 8.97898 11.9782
77 1 -0.686218 1.11893 9.23686 14.7482
101 2 -0.0595186 -1.19337 10.0575 14.5548
102 2 -0.111431 -3.00979 10.7109 16.2084
103 2 0.111976 -5.36949 11.6615 11.8626
112 2 -0.0118357 -0.383915 8.38153 15.6976
113 2 0.0724113 -0.147438 11.9958 10.3854
114 2 -0.0541529 -0.196255 11.9769 13.0745
127 2 0.0623198 -6.94519 14.0179 13.9782
249 3 -0.809301 -1.8143 10.4866 8.94946
135 2 0.150091 -4.27112 8.27297 14.7541
136 2 0.219628 0.216997 9.07446 11.0741
137 2 0.159627 0.0741577 9.151 13.0606
138 2 0.180676 -1.43422 9.63784 11.9235
159 2 0.178994 0.97057 8.14696 14.178
160 2 0.105818 0.13876 9.96352 14.5606
161 2 0.156266 1.49773 9.21478 15.7946
199 2 0.152447 1.30527 11.2358 16.3134
283 3 -0.859205 2.24193 10.5725 9.08759
222 3 -0.813683 -3.29698 11.1184 13.428
223 3 -0.797903 -3.78735 13.5591 12.825
319 3 -0.758049 -6.52536 12.5517 11.2688
251 3 -0.843257 -2.71065 11.9531 10.951
217 3 -0.810751 -3.96395 8.86381 9.07329
344 2 0.115604 -1.04327 13.9678 13.9152
133 2 0.179502 -2.38534 7.8989 14.0505
334 2 -0.00334404 -4.2984 12.3798 16.9683
254 3 -0.772635 3.07389 8.21967 12.9254
321 2 0.0969302 -5.02769 14.0254 16.594
345 2 0.142334 -2.27471 14.7462 15.2884
134 2 0.249234 -3.83339 8.51393 12.8261
318 3 -0.81055 -6.88861 13.9667 9.22453
328 2 0.184528 2.83901 8.25713 16.1044
1 4 1.21939 14.3277 1.47961 3.41888
2 1 -0.668521 12.8656 2.47143 2.70372
3 2 0.163785 12.624 2.34325 1.61451
4 2 0.153799 11.955 2.27461 3.42795
118 2 0.0607964 6.68298 6.64814 0.831271
11 4 1.32639 11.8115 5.77896 3.58328
46 4 1.08247 8.30765 1.76031 3.32812
49 4 1.27041 10.0106 3.98884 1.87009
50 4 1.37597 6.29054 6.78007 4.02448
51 4 1.06445 8.579 6.44606 0.71311
52 4 1.01268 10.0932 5.54531 8.42582
54 4 1.27337 9.40643 6.94867 5.34825
257 3 -0.795654 7.17938 1.70444 4.41068
268 3 -0.773843 7.80061 6.86904 4.64216
324 2 0.185871 12.5849 5.02975 0.781923
95 2 -0.0223545 13.6399 2.33464 7.32259
142 2 0.174641 7.33504 3.42946 0.092693
117 2 -0.00899168 10.6582 3.09536 0.52845
120 2 0.0260468 10.8913 4.00969 8.0876
131 2 0.191306 12.6034 3.68165 4.69853
269 3 -0.775591 9.65855 6.18419 7.01309
267 3 -0.783318 10.607 6.41917 4.4377
340 2 0.188379 13.3377 3.51923 2.9073
157 2 0.135797 5.73788 6.8819 8.07455
173 2 0.160162 6.59613 5.80463 7.97393
337 2 -0.0213352 11.7558 0.830183 2.40329
260 3 -0.80831 9.17265 2.94864 2.79839
261 3 -0.814664 11.2668 4.57564 2.64875
262 3 -0.807653 5.93156 5.53563 3.08615
78 1 -0.674672 8.20457 0.43533 1.95757
264 3 -0.825111 9.06306 5.11691 1.35207
168 2 0.156499 8.8327 3.4405 8.16491
174 2 0.172467 7.69816 4.20753 8.32133
132 2 0.160049 12.2085 4.96868 6.06347
67 1 -0.661459 12.6615 4.75175 5.02097
82 1 -0.667501 6.71318 4.83165 8.56226
263 3 -0.825296 5.21254 6.93516 5.19797
348 2 0.136766 8.9457 0.58727 1.0663
115 2 0.0524409 9.30766 0.345611 3.57673
158 2 0.206904 3.91733 7.40899 8.56032
234 3 -0.796157 6.47303 2.65002 6.986
336 2 0.0214162 7.08191 0.874648 8.62804
80 1 -0.669064 9.47588 3.2766 9.11786
27 4 1.19154 8.52586 0.871374 13.918
29 4 1.03246 6.84282 2.95236 11.9276
343 2 0.16791 11.3691 6.71587 16.7884
47 4 0.907667 10.0535 3.24709 14.99
48 4 1.08978 11.1987 2.80334 10.4658
55 4 1.24387 11.0417 5.14096 12.6842
73 1 -0.677697 7.88052 4.49663 11.6753
79 1 -0.669195 8.83753 3.93781 16.3823
96 2 0.104533 12.2937 4.66088 15.32
81 1 -0.665037 11.0724 1.26307 11.5842
165 2 0.14504 7.98521 3.22421 16.5726
273 3 -0.834206 7.86608 7.32656 11.5328
109 2 0.0273087 5.59576 6.20475 13.3023
116 2 0.009026 10.4825 3.23496 16.7817
331 2 0.175084 5.98864 5.48204 17.0367
121 2 -0.0135491 6.60939 6.60791 9.41162
333 2 -0.0187113 13.5837 2.27137 14.7379
147 2 0.147541 7.29384 4.97462 10.8029
148 2 0.237166 9.03997 4.39839 11.5045
149 2 0.194627 7.56622 4.99361 12.6509
164 2 0.165947 8.72025 4.87028 16.9659
265 3 -0.873925 10.9439 6.3905 9.39388
166 2 0.0744059 8.47778 4.3634 14.7703
167 2 0.10976 9.60811 2.00488 9.25845
266 3 -0.890174 5.29092 7.2152 11.6455
169 2 0.13918 8.84573 3.80054 10.0236
119 2 0.0121252 8.56069 5.37133 9.21104
175 2 0.139202 6.18303 4.65586 9.57674
172 2 0.219607 10.9488 1.70782 12.6662
144 2 0.148604 7.00206 2.58829 9.70527
229 3 -0.79401 7.71682 1.86513 12.9697
258 3 -0.836378 9.75387 1.75196 14.5922
259 3 -0.831605 12.5805 2.58172 9.65526
323 1 -0.695196 11.348 5.69948 17.2592
270 3 -0.787799 11.3776 4.36063 14.0643
271 3 -0.832232 10.9211 4.04053 11.5068
274 3 -0.855736 9.79429 6.12707 12.9183
325 2 0.158698 10.462 5.04166 16.9221
332 2 0.0825406 7.53477 6.90921 16.3472
329 1 -0.65651 6.19201 6.6527 16.8927
330 2 0.162342 5.36106 6.94823 16.1569
129 2 0.158768 13.6565 1.55761 12.2623
347 2 0.181969 4.42983 7.69981 17.0543
8 4 0.977971 13.9483 2.47204 8.95247
171 2 0.171915 10.0449 0.898537 11.2509
56 4 1.46983 9.31994 7.52972 12.3409
105 2 -0.0127662 7.22071 0.602428 15.0529
94 2 0.0956044 14.6165 0.919446 9.16433
170 2 0.170695 11.9473 0.563881 11.498
45 4 1.22943 5.18472 13.5966 3.15148
57 4 0.920139 9.96988 9.24535 1.22906
58 4 1.48388 3.28277 11.5437 4.40101
59 4 0.939048 6.37099 11.5396 1.11282
62 4 1.16994 5.33575 11.1495 6.4753
126 2 0.0281532 2.77051 13.1599 8.50259
83 1 -0.690245 6.16727 8.50334 3.02336
84 1 -0.66707 9.71748 8.6908 5.58916
85 1 -0.690047 8.30009 9.16148 8.02295
87 1 -0.657586 6.86054 10.612 5.48249
88 1 -0.690495 5.59384 13.0693 6.8451
76 1 -0.697435 4.7848 7.56715 7.81399
18 4 0.97593 9.84623 11.4264 3.3866
123 2 -0.0204157 8.03917 12.0424 1.08238
184 2 0.200738 8.90159 8.57396 8.81044
125 2 -0.000876865 6.58063 10.101 2.02825
5 3 -0.791696 6.36063 14.1109 4.06538
156 2 0.243255 5.11537 8.63312 7.74026
176 2 0.167988 5.82882 8.13181 2.03405
177 2 0.167076 7.30129 8.78559 3.14454
178 2 0.198807 5.44277 9.17599 3.61665
179 2 0.223968 10.4368 8.93075 4.76956
180 2 0.220412 10.1666 8.83586 6.6229
181 2 0.177436 8.64605 9.24268 5.4488
182 2 0.16867 8.91101 10.002 7.46238
183 2 0.162222 7.78053 8.40266 7.26106
187 2 0.156947 6.63552 9.83689 4.50854
188 2 0.158706 7.44739 10.0517 6.45644
189 2 0.160271 7.08281 11.7793 5.25423
190 2 0.194603 6.37737 13.1892 7.61095
191 2 0.15361 4.58231 13.4049 7.21242
275 3 -0.82679 9.2575 7.84338 1.01421
277 3 -0.830228 3.31131 10.5841 3.08801
278 3 -0.825597 4.00095 13.0114 4.08792
350 2 0.247277 5.93667 13.5509 5.81929
280 3 -0.823806 5.60891 12.5937 2.02208
285 3 -0.837032 4.01638 10.8138 5.70494
286 3 -0.783853 5.57788 10.4789 7.88687
349 2 0.0384262 8.239 12.1407 3.3272
276 3 -0.822578 9.95054 9.98792 2.59701
201 2 0.170465 4.76814 12.8988 8.64666
110 2 0.0588953 3.4708 8.94755 7.25572
198 2 0.185856 3.23756 11.4059 0.206829
185 2 0.130104 9.42369 12.4386 1.05312
163 2 0.158295 1.26559 13.5723 2.42655
43 4 1.25415 2.71183 9.71437 13.8107
44 4 1.17646 1.33777 12.3384 12.5525
284 3 -0.79613 1.23532 12.6535 10.9318
326 1 -0.653319 3.41699 8.27969 17.1151
60 4 1.26011 7.06047 10.169 9.01369
61 4 1.03485 2.51611 11.9392 9.74538
63 4 1.01361 8.12324 9.81251 14.2381
64 4 0.986296 3.83458 11.9179 15.8729
65 4 0.932918 8.15077 12.7586 12.9642
89 1 -0.656956 6.56324 9.30477 15.2119
90 1 -0.66101 4.34023 13.2896 14.6157
91 1 -0.630535 2.10402 11.9763 16.6609
92 1 -0.646205 4.18488 12.7393 9.80291
93 1 -0.658487 6.47248 13.0599 12.3537
288 3 -0.718343 3.7594 10.1933 14.9247
290 3 -0.801546 8.15831 11.3244 13.6854
327 2 0.186126 3.5572 9.34436 17.572
192 2 0.186177 6.3852 8.3366 15.7852
193 2 0.168551 6.03277 9.19271 13.9905
194 2 0.210483 6.06056 10.137 15.7488
195 2 0.230839 3.77511 14.307 14.6459
196 2 0.220661 4.19318 12.8155 13.6423
197 2 0.14494 5.45376 13.4132 14.8872
53 4 1.30296 6.53945 7.63266 10.8148
316 4 1.25976 8.96903 12.4981 9.64692
200 2 0.110151 1.91482 13.0902 16.0926
202 2 0.167361 4.58203 11.7445 10.544
203 2 0.162132 4.20765 13.7929 10.5131
204 2 0.187597 5.75415 12.2093 12.6734
205 2 0.204249 6.69992 13.148 11.1623
206 2 0.133878 6.19275 14.056 12.8233
14 4 1.55909 11.4129 7.65432 10.1563
255 3 -0.810606 2.2885 11.0671 12.9293
256 3 -0.827352 1.77422 13.6963 13.2694
272 3 -0.857235 10.3286 8.1791 11.2194
289 3 -0.786195 4.87612 11.9543 17.3084
281 3 -0.819406 6.61048 9.06345 10.1759
282 3 -0.841736 7.7699 11.5331 9.35869
339 2 -0.000939027 8.1504 9.95633 16.0131
287 3 -0.773681 9.15872 8.62908 13.7619
124 2 -0.075999 8.47936 10.9271 17.6324
ITEM: TIMESTEP
200
ITEM: NUMBER OF ATOMS
350
ITEM: BOX BOUNDS xy xz yz pp pp pp
-8.0552999999999990e+00 1.5678200000000000e+01 -7.0408999999999997e+00
0.0000000000000000e+00 1.5521528000000000e+01 -1.0144000000000000e+00
0.0000000000000000e+00 1.7638300000000001e+01 1.3021279999999997e+00
ITEM: ATOMS id type q x y z
233 3 -0.849674 4.392 2.88479 8.75632
9 4 1.53751 0.408028 2.66829 5.80627
13 4 1.45671 -0.192027 4.79747 7.98401
300 1 -0.644987 1.46104 3.38591 1.2432
23 4 1.40351 3.22788 2.69279 4.29004
26 4 1.54711 5.89702 1.7018 5.58302
30 4 1.29779 4.66754 4.70889 2.48207
15 4 1.34586 -1.3731 7.30529 6.76039
32 4 1.33392 3.02044 6.85101 0.697435
33 4 1.34731 5.25218 3.79731 7.62146
346 2 0.141941 5.83288 2.00219 0.716225
70 1 -0.648182 2.94625 1.19561 3.07416
74 1 -0.683261 0.986288 6.11593 3.76716
97 2 0.00990813 -2.56928 6.72827 5.67991
235 3 -0.785987 1.44688 5.38037 8.59711
304 3 -0.819083 -0.356304 1.25334 2.35163
140 2 0.154848 3.15744 1.6372 1.96879
141 2 0.20206 1.84377 0.93404 3.27666
150 2 0.213609 1.42364 6.45147 2.80294
151 2 0.162333 -0.138279 5.93646 3.71604
152 2 0.213231 1.47988 5.2335 4.2263
108 2 -0.0048387 5.20433 3.59898 1.392
207 3 -0.826039 -0.847491 2.3439 4.68025
208 3 -0.828309 0.433388 1.27885 6.80704
212 3 -0.893025 0.0485126 3.90107 6.69198
213 3 -0.835574 -1.23801 6.0072 7.7583
224 3 -0.847745 1.90772 2.77984 5.20311
225 3 -0.851409 2.31119 1.25925 8.46975
226 3 -0.840202 4.47812 2.0942 5.01627
301 2 0.185357 2.55255 2.95778 1.04555
230 3 -0.857315 3.59088 3.94108 3.26704
232 3 -0.818576 3.87448 5.73059 1.54214
302 2 0.193461 1.17746 3.53496 2.32326
35 4 1.39152 4.32213 6.5715 6.30027
303 2 0.227282 1.0997 4.20241 0.516308
237 3 -0.821726 2.76034 6.92931 5.92537
238 3 -0.804605 4.49076 4.9719 6.81362
342 2 0.1741 -1.86025 5.20642 4.87502
139 2 0.169422 3.71328 0.401007 3.39403
299 4 1.18786 0.327247 2.03459 0.766636
314 3 -0.825454 -2.96389 7.11015 2.95348