LAMMPS (2 Aug 2023 - Update 2)
  using 2 OpenMP thread(s) per MPI task
Reading data file ...
  triclinic box = (0 0 0) to (17.6144 14.9838 17.4642) with tilt (-6.9346 2.088 0.8795)
  2 by 1 by 2 MPI processor grid
  reading atoms ...
  365 atoms
Finding 1-2 1-3 1-4 neighbors ...
  special bond factors lj:    0        0        0       
  special bond factors coul:  0        0        0       
     0 = max # of 1-2 neighbors
     0 = max # of 1-3 neighbors
     0 = max # of 1-4 neighbors
     1 = max # of special neighbors
  special bonds CPU = 0.002 seconds
  read_data CPU = 0.072 seconds
WARNING: Van der Waals parameters for element SI indicate inner wall+shielding, but earlier atoms indicate a different van der Waals method. This may cause division-by-zero errors. Keeping van der Waals setting for earlier atoms. (src/REAXFF/reaxff_ffield.cpp:251)
*****Minimization starts.*****

CITE-CITE-CITE-CITE-CITE-CITE-CITE-CITE-CITE-CITE-CITE-CITE-CITE

Your simulation uses code contributions which should be cited:
- pair reaxff command: doi:10.1016/j.parco.2011.08.005
- fix qeq/reaxff command: doi:10.1016/j.parco.2011.08.005
The log file lists these citations in BibTeX format.

CITE-CITE-CITE-CITE-CITE-CITE-CITE-CITE-CITE-CITE-CITE-CITE-CITE

Switching to 'neigh_modify every 1 delay 0 check yes' setting during minimization
WARNING: Fix qeq/reaxff group is not charge neutral, net charge = -6.56 (src/REAXFF/fix_qeq_reaxff.cpp:392)
Neighbor list info ...
  update: every = 1 steps, delay = 0 steps, check = yes
  max neighbors/atom: 2000, page size: 100000
  master list distance cutoff = 12
  ghost atom cutoff = 12
  binsize = 6, bins = 5 3 3
  2 neighbor lists, perpetual/occasional/extra = 2 0 0
  (1) pair reaxff, perpetual
      attributes: half, newton off, ghost
      pair build: half/bin/newtoff/ghost
      stencil: full/ghost/bin/3d
      bin: standard
  (2) fix qeq/reaxff, perpetual, copy from (1)
      attributes: half, newton off
      pair build: copy
      stencil: none
      bin: none
Setting up cg style minimization ...
  Unit style    : real
  Current step  : 0
Per MPI rank memory allocation (min/avg/max) = 142 | 142.2 | 142.4 Mbytes
   Step          Temp          Press         Density         Volume         PotEng         TotEng    
         0   0              114558.11      1.4343051      4609.3376     -30507.348     -30507.348    
        36   0             -9407.3563      1.4343051      4609.3376     -34446.653     -34446.653    
Loop time of 5.90885 on 8 procs for 36 steps with 365 atoms

84.3% CPU use with 4 MPI tasks x 2 OpenMP threads

Minimization stats:
  Stopping criterion = energy tolerance
  Energy initial, next-to-last, final = 
     -30507.3481407126  -34446.6443281189  -34446.6525088614
  Force two-norm initial, final = 4322.995 385.88265
  Force max component initial, final = 826.83935 136.85058
  Final line search alpha, max atom move = 0.00034488762 0.047198071
  Iterations, force evaluations = 36 64

MPI task timing breakdown:
Section |  min time  |  avg time  |  max time  |%varavg| %total
---------------------------------------------------------------
Pair    | 2.4849     | 2.9347     | 3.2359     |  16.1 | 49.67
Bond    | 0.000176   | 0.00018648 | 0.00019507 |   0.0 |  0.00
Neigh   | 0          | 0          | 0          |   0.0 |  0.00
Comm    | 1.0942     | 1.3549     | 1.7643     |  21.4 | 22.93
Output  | 0.036377   | 0.040886   | 0.046871   |   1.9 |  0.69
Modify  | 1.4378     | 1.4456     | 1.4534     |   0.6 | 24.47
Other   |            | 0.1326     |            |       |  2.24

Nlocal:          91.25 ave         107 max          80 min
Histogram: 2 0 0 0 0 0 1 0 0 1
Nghost:         3557.5 ave        3568 max        3540 min
Histogram: 1 0 0 0 0 0 1 0 1 1
Neighs:        48391.8 ave       55782 max       42913 min
Histogram: 2 0 0 0 0 0 1 0 0 1

Total # of neighbors = 193567
Ave neighs/atom = 530.32055
Ave special neighs/atom = 0
Neighbor list builds = 0
Dangerous builds = 0
System init for write_data ...
##### Equilibration starts.##### 
WARNING: Compute rdf cutoff less than neighbor cutoff - forcing a needless neighbor list build (src/compute_rdf.cpp:179)
Neighbor list info ...
  update: every = 10 steps, delay = 0 steps, check = yes
  max neighbors/atom: 2000, page size: 100000
  master list distance cutoff = 12
  ghost atom cutoff = 12
  binsize = 6, bins = 5 3 3
  3 neighbor lists, perpetual/occasional/extra = 2 1 0
  (1) pair reaxff, perpetual
      attributes: half, newton off, ghost
      pair build: half/bin/newtoff/ghost
      stencil: full/ghost/bin/3d
      bin: standard
  (2) compute rdf, occasional
      attributes: half, newton on, cut 7
      pair build: half/bin/newton/tri
      stencil: half/bin/3d/tri
      bin: standard
  (3) fix qeq/reaxff, perpetual, copy from (1)
      attributes: half, newton off
      pair build: copy
      stencil: none
      bin: none
Setting up Verlet run ...
  Unit style    : real
  Current step  : 0
  Time step     : 0.5
Per MPI rank memory allocation (min/avg/max) = 146.9 | 147.3 | 147.5 Mbytes
   Step          Temp          Press          PotEng         TotEng    
         0   300           -6179.5215     -34446.653     -34121.148    
       100   314.12405     -7252.5607     -34431.102     -34090.273    
       200   431.07126      141.3235      -34639.164     -34171.445    
       300   378.29959     -9098.5843     -34716.521     -34306.06     
       400   406.98222     -8755.7955     -34910.218     -34468.636    
       500   356.04409      694.77521     -34993.458     -34607.145    
       600   352.8112       10135.331     -35105.105     -34722.299    
       700   314.73834     -6162.8535     -35155.572     -34814.077    
       800   294.23638     -614.80044     -35179.37      -34860.119    
       900   277.75141     -2146.7884     -35186.939     -34885.575    
      1000   299.86219     -2268.9234     -35231.533     -34906.178    
      1100   315.80026      1105.9129     -35265.169     -34922.521    
      1200   306.1052      -12519.221     -35270.379     -34938.251    
      1300   295.3746       3686.5275     -35268.607     -34948.121    
      1400   286.04613      806.05041     -35271.557     -34961.193    
      1500   300.12147      8186.27       -35313.61      -34987.974    
      1600   357.75831      113.60827     -35433.001     -35044.828    
      1700   315.20323     -2946.1932     -35463.994     -35121.993    
      1800   300.89518      9031.095      -35506.851     -35180.375    
      1900   290.33497      1837.9552     -35534.126     -35219.108    
      2000   297.82679     -625.7478      -35558.099     -35234.953    
      2100   286.69408     -2756.8202     -35551.393     -35240.325    
      2200   293.97247     -11560.66      -35560.132     -35241.168    
      2300   324.5746      -1383.8243     -35629.134     -35276.966    
      2400   292.6957       3847.5151     -35634.014     -35316.435    
      2500   279.49308      508.78932     -35633.583     -35330.329    
      2600   292.42158     -14172.63      -35650.882     -35333.601    
      2700   309.73916      3967.9957     -35682.776     -35346.704    
      2800   310.9757      -6971.8693     -35707.538     -35370.124    
      2900   291.35582     -9289.7807     -35702.522     -35386.396    
      3000   293.41645      1169.2779     -35733.081     -35414.719    
      3100   319.00009      10372.114     -35798.523     -35452.403    
      3200   371.78876     -2138.6056     -35918.392     -35514.995    
      3300   376.73661      2003.244      -36002.909     -35594.145    
      3400   313.04651     -20998.383     -36018.871     -35679.211    
      3500   296.99417     -2133.5283     -36055.494     -35733.251    
      3600   287.99972     -8006.6092     -36081.971     -35769.487    
      3700   287.81748     -6769.2436     -36107.116     -35794.83     
      3800   311.03197      999.89287     -36150.144     -35812.669    
      3900   314.21714     -3384.4923     -36184.6       -35843.67     
      4000   294.89443     -5302.7828     -36192.634     -35872.669    
      4100   282.00976     -3306.134      -36199.607     -35893.623    
      4200   310.61384      862.59583     -36266.317     -35929.296    
      4300   297.19315     -4490.5081     -36283.414     -35960.955    
      4400   307.35839     -2938.9145     -36302.802     -35969.313    
      4500   291.2378      -2118.9687     -36282.899     -35966.902    
      4600   314.823        11506.512     -36301.732     -35960.145    
      4700   309.9572      -4764.0212     -36298.154     -35961.846    
      4800   311.07831     -5215.2017     -36312.833     -35975.309    
      4900   309.06838      415.64773     -36328.694     -35993.35     
      5000   297.91436      4804.2602     -36308.063     -35984.822    
      5100   300.71279     -1885.1608     -36274.872     -35948.594    
      5200   375.14958      7197.5295     -36362.852     -35955.809    
      5300   330.39834      5057.6767     -36372.647     -36014.16     
      5400   304.62812      10183.509     -36394.045     -36063.519    
      5500   312.89471     -5593.3052     -36428.762     -36089.267    
      5600   308.65002     -5025.6701     -36440.778     -36105.888    
      5700   275.61162     -196.08019     -36415.402     -36116.359    
      5800   263.73248     -2424.7451     -36407.297     -36121.144    
      5900   286.79691     -14250.742     -36423.511     -36112.332    
      6000   310.26031     -310.02532     -36462.833     -36126.196    
      6100   297.28254     -9612.8153     -36478.141     -36155.585    
      6200   294.30573     -10669.338     -36485.865     -36166.539    
      6300   292.99516     -5222.5476     -36478.844     -36160.94     
      6400   312.23442      7893.3553     -36495.874     -36157.095    
      6500   300.52309     -9041.4701     -36502.886     -36176.814    
      6600   294.5196      -1784.4769     -36505.971     -36186.413    
      6700   321.78768      3030.314      -36538.747     -36189.603    
      6800   298.21348      8675.5532     -36525.743     -36202.177    
      6900   285.47308      2595.3647     -36527.976     -36218.233    
      7000   308.76925      80.7179       -36567.307     -36232.288    
      7100   330.63052      1955.7638     -36625.961     -36267.222    
      7200   300.61724      4788.4329     -36628.709     -36302.535    
      7300   305.20314     -6031.792      -36659.03      -36327.88     
      7400   262.79454     -7550.6843     -36635.292     -36350.156    
      7500   319.74778     -1501.7392     -36704.791     -36357.86     
      7600   293.99914     -6484.8816     -36696.841     -36377.847    
      7700   288.51632     -6516.8517     -36713.343     -36400.299    
      7800   303.82754     -211.82088     -36717.866     -36388.209    
      7900   282.89369      12667.131     -36682.692     -36375.748    
      8000   310.99266      6166.1846     -36706.168     -36368.736    
      8100   291.17357     -708.24641     -36676.861     -36360.934    
      8200   297.21994      6073.589      -36670.831     -36348.343    
      8300   323.42246     -4150.4938     -36665.669     -36314.75     
      8400   310.28203     -7682.4696     -36667.336     -36330.676    
      8500   300.30064      12222.771     -36677.156     -36351.325    
      8600   312.91592      1642.5602     -36692.576     -36353.058    
      8700   282.84168     -815.03931     -36673.437     -36366.55     
      8800   307.48525     -7996.0986     -36723.19      -36389.564    
      8900   277.71818     -1804.4701     -36711.944     -36410.616    
      9000   291.10948     -6128.6628     -36700.659     -36384.801    
      9100   312.99356     -14034.368     -36691.491     -36351.888    
      9200   288.21348     -7134.1077     -36664.727     -36352.011    
      9300   308.79467     -2268.3179     -36710.611     -36375.565    
      9400   304.48605      3347.0318     -36732.171     -36401.8      
      9500   301.55343     -3462.0225     -36744.828     -36417.638    
      9600   306.77682     -469.62845     -36752.334     -36419.476    
      9700   303.17154     -13547.418     -36729.487     -36400.541    
      9800   313.4069      -4657.7947     -36708.336     -36368.285    
      9900   298.22961      2128.2676     -36706.858     -36383.274    
     10000   290.68539     -7239.6381     -36719.339     -36403.941    
     10100   321.31438      5574.3369     -36755.681     -36407.051    
     10200   309.70881     -8022.0805     -36762.394     -36426.355    
     10300   308.04348      902.56264     -36784.092     -36449.86     
     10400   300.48768     -6595.2319     -36784.078     -36458.044    
     10500   303.15376     -9378.8188     -36783.348     -36454.421    
     10600   307.20363     -3332.7742     -36782.08      -36448.76     
     10700   300.2234       187.41778     -36766.15      -36440.403    
     10800   312.49252     -4757.9131     -36761.423     -36422.364    
     10900   305.67122     -12026.204     -36768.994     -36437.337    
     11000   296.34262     -7295.0032     -36780.13      -36458.594    
     11100   284.35502     -2478.5466     -36775.987     -36467.458    
     11200   315.35121     -10672.656     -36792.401     -36450.241    
     11300   309.03912      2868.5637     -36749.337     -36414.025    
     11400   325.5868      -2180.626      -36769.633     -36416.366    
     11500   321.6336      -4903.3404     -36794.246     -36445.269    
     11600   308.40874     -4318.7888     -36803.802     -36469.174    
     11700   297.64432     -4756.6578     -36814.722     -36491.774    
     11800   296.79286     -6603.0373     -36829.81      -36507.785    
     11900   295.84343     -4830.1236     -36823.781     -36502.787    
     12000   290.07068     -7431.4791     -36784.646     -36469.915    
     12100   324.22239      724.65613     -36799.258     -36447.471    
     12200   318.89092     -12747.231     -36804.305     -36458.303    
     12300   300.91684      5862.0271     -36806.654     -36480.155    
     12400   284.63509     -295.60225     -36797.173     -36488.34     
     12500   294.68134     -9362.8398     -36797.083     -36477.349    
     12600   309.61208     -7260.6823     -36808.642     -36472.708    
     12700   323.91985     -6870.3235     -36814.457     -36463        
     12800   299.44281     -4517.9648     -36776.397     -36451.497    
     12900   302.61384     -8816.7735     -36786.572     -36458.232    
     13000   294.0941      -1992.0331     -36809.995     -36490.899    
     13100   295.04003     -12355.838     -36822.465     -36502.342    
     13200   292.10817     -6004.0923     -36809.904     -36492.962    
     13300   308.28326     -7814.8441     -36804.874     -36470.382    
     13400   312.50105      4239.6744     -36820.259     -36481.191    
     13500   290.61733      4650.7663     -36836.441     -36521.117    
     13600   287.22739     -11636.588     -36834.862     -36523.216    
     13700   303.46262     -15596.65      -36846.019     -36516.758    
     13800   318.23571     -9711.4716     -36846.076     -36500.785    
     13900   319.96851     -12727.414     -36867.234     -36520.063    
     14000   286.51196     -3716.3081     -36862.112     -36551.242    
     14100   307.2297       5717.5075     -36893.524     -36560.175    
     14200   298.72243     -9889.4673     -36871.49      -36547.372    
     14300   303.87582     -3100.9344     -36857.937     -36528.227    
     14400   322.68038     -14088.313     -36857.056     -36506.943    
     14500   326.93639     -1542.3728     -36861.508     -36506.777    
     14600   296.10183     -6940.9897     -36859.508     -36538.233    
     14700   306.88728      5619.6079     -36893.744     -36560.767    
     14800   296.1929      -1438.4006     -36891.048     -36569.675    
     14900   303.65401     -2212.8067     -36882.789     -36553.32     
     15000   317.10077     -6543.8253     -36866.941     -36522.882    
     15100   318.61459      3078.7032     -36874.178     -36528.477    
     15200   310.15542      1134.7787     -36878.318     -36541.795    
     15300   285.68275     -9015.8103     -36865.712     -36555.742    
     15400   295.21184      7301.804      -36887.314     -36567.004    
     15500   286.63612      6928.6659     -36898.342     -36587.337    
     15600   278.0168       3685.6674     -36890.062     -36588.41     
     15700   310.4019      -2204.2719     -36893.319     -36556.528    
     15800   311.37164      3728.7534     -36883.289     -36545.446    
     15900   310.16639     -2976.1955     -36891.241     -36554.706    
     16000   303.46021     -5954.0498     -36918.302     -36589.043    
     16100   315.58937      7914.9557     -36943.362     -36600.943    
     16200   305.47239      5203.5197     -36950.856     -36619.414    
     16300   286.11121     -7710.886      -36950.232     -36639.797    
     16400   294.43592     -13386.921     -36960.402     -36640.935    
     16500   304.94124      4424.7755     -36940.041     -36609.175    
     16600   306.46922     -5070.4157     -36926.506     -36593.982    
     16700   298.61407      10274.297     -36926.29      -36602.289    
     16800   301.18611      11929.169     -36949.706     -36622.914    
     16900   292.97828      532.14682     -36950.238     -36632.352    
     17000   299.14037     -6928.1813     -36951.717     -36627.145    
     17100   340.82078     -14493.533     -36993.613     -36623.817    
     17200   301.2983      -4440.5587     -36967.77      -36640.857    
     17300   310.50084      7217.2661     -36986.905     -36650.007    
     17400   291.78792      6495.0904     -36976.385     -36659.791    
     17500   287.92435      1003.9874     -36979.268     -36666.866    
     17600   276.18408     -5891.1941     -36974.632     -36674.969    
     17700   307.9636      -11453.322     -37025.814     -36691.669    
     17800   287.20072      2274.3174     -37018.742     -36707.125    
     17900   297.07222      633.1733      -37017.597     -36695.269    
     18000   324.64836      10437.97      -37012.672     -36660.424    
     18100   305.05784     -5316.3826     -36995.494     -36664.502    
     18200   308.91001      1434.9564     -37023.761     -36688.589    
     18300   300.46827      6891.3284     -37021.43      -36695.418    
     18400   296.11428      8989.8758     -37011.899     -36690.61     
     18500   290.24785      1523.3154     -36999.291     -36684.367    
     18600   319.70093     -5377.7371     -37025.045     -36678.165    
     18700   300.28968     -9316.8202     -37003.196     -36677.378    
     18800   304.40319     -12001.563     -37002.903     -36672.622    
     18900   327.79763      11632.531     -37014.445     -36658.78     
     19000   315.85107     -4700.7684     -37007.499     -36664.796    
     19100   305.68848     -924.5647      -37020.179     -36688.503    
     19200   314.06626      6378.7513     -37047.119     -36706.353    
     19300   290.63839      2516.2136     -37022.255     -36706.908    
     19400   304.48419      3343.9808     -36996.637     -36666.268    
     19500   336.96192     -2206.381      -37022.359     -36656.751    
     19600   374.96419     -3085.0336     -37085.359     -36678.518    
     19700   358.06508      7203.3768     -37116.624     -36728.118    
     19800   279.27581     -3342.8789     -37059.077     -36756.059    
     19900   268.75645     -682.65644     -37077.909     -36786.305    
     20000   258.21888     -8142.8293     -37082.094     -36801.923    
     20100   305.95117     -8841.3668     -37131.97      -36800.008    
     20200   329.57026     -13329.195     -37136.318     -36778.729    
     20300   268.12102      3532.2237     -37042.031     -36751.116    
     20400   333.95416      1107.2694     -37110.273     -36747.927    
     20500   338.68508      9211.7111     -37129.669     -36762.191    
     20600   264.04337     -5152.8564     -37053.533     -36767.042    
     20700   302.46841      261.18102     -37098.155     -36769.973    
     20800   281.5323      -8024.1637     -37087.701     -36782.234    
     20900   271.29133     -6426.5034     -37096.462     -36802.107    
     21000   287.24265     -923.2389      -37113.372     -36801.709    
     21100   294.30295      3697.3914     -37089.553     -36770.23     
     21200   340.17609     -9969.1175     -37128.312     -36759.215    
     21300   296.83408      5795.3257     -37097.489     -36775.419    
     21400   334.94978     -2167.3931     -37161.124     -36797.698    
     21500   289.66986     -10285.606     -37114.454     -36800.158    
     21600   310.16878      654.17578     -37146.942     -36810.404    
     21700   256.13716      287.21151     -37078.121     -36800.208    
     21800   323.35848     -2177.4593     -37113.982     -36763.133    
     21900   357.28332     -6691.2186     -37153.63      -36765.972    
     22000   299.11269     -8181.7194     -37113.299     -36788.757    
     22100   294.76946     -2793.0997     -37128.461     -36808.632    
     22200   293.03364     -14489.741     -37135.79      -36817.845    
     22300   295.48525      1498.5916     -37149.448     -36828.842    
     22400   267.55034     -2648.8304     -37113.666     -36823.37     
     22500   266.99668     -14466.535     -37076.077     -36786.382    
     22600   291.98031     -7198.677      -37091.644     -36774.841    
     22700   268.18642     -10324.429     -37075.792     -36784.806    
     22800   327.2646      -10238.475     -37169.433     -36814.346    
     22900   289.58572      3861.2962     -37134.991     -36820.786    
     23000   279.51848     -7182.4759     -37122.989     -36819.707    
     23100   325.87336     -19766.812     -37175.565     -36821.987    
     23200   328.35777      2091.2014     -37188.094     -36831.821    
     23300   261.52706     -4145.4932     -37123.642     -36839.881    
     23400   328.23087     -1988.5122     -37191.248     -36835.113    
     23500   335.36732      100.58223     -37168.436     -36804.557    
     23600   303.69841     -13313.205     -37143.77      -36814.252    
     23700   303.37679      6444.3151     -37180.075     -36850.906    
     23800   279.09958     -6069.7965     -37173.176     -36870.349    
     23900   256.556        1644.9732     -37165.921     -36887.554    
     24000   289.13211     -2013.3464     -37196.278     -36882.565    
     24100   271.52007     -1764.6106     -37144.692     -36850.088    
     24200   335.32764     -3798.8476     -37207.645     -36843.809    
     24300   276.40561     -10116.771     -37159.841     -36859.937    
     24400   334.16259     -11214.339     -37232.932     -36870.36     
     24500   279.381       -6010.6662     -37179.548     -36876.415    
     24600   302.62975      1261.4845     -37219.022     -36890.664    
     24700   241.21572      3710.2706     -37176.356     -36914.633    
     24800   317.29421     -12812.227     -37264.043     -36919.774    
     24900   294.86575     -5205.4106     -37200.534     -36880.601    
     25000   328.81467     -9633.3841     -37227.101     -36870.332    
     25100   345.04129      7319.7933     -37250.583     -36876.209    
     25200   303.51221     -632.68824     -37231.353     -36902.038    
     25300   258.82916     -6632.5888     -37208.502     -36927.669    
     25400   283.80739     -3037.5906     -37242.752     -36934.817    
     25500   324.20855     -12915.285     -37289.467     -36937.696    
     25600   294.22375      552.29244     -37271.714     -36952.476    
     25700   270.98948     -5124.7811     -37250.955     -36956.927    
     25800   323.00462      9753.1807     -37278.823     -36928.359    
     25900   272.86095     -12317.163     -37202.667     -36906.609    
     26000   278.79827     -8276.1294     -37222.063     -36919.563    
     26100   277.27206     -14255.846     -37237.591     -36936.747    
     26200   272.33082     -11169.227     -37239.649     -36944.166    
     26300   286.62746     -2716.7952     -37240.4       -36929.405    
     26400   339.39436     -5266.1714     -37276.171     -36907.923    
     26500   320.85454     -2435.6153     -37240.894     -36892.762    
     26600   305.84427     -12800.324     -37243.324     -36911.479    
     26700   277.52213     -2561.3599     -37237.711     -36936.595    
     26800   261.54554     -2677.8479     -37222.057     -36938.276    
     26900   306.09451      6902.4329     -37258.737     -36926.62     
     27000   334.00293      6808.5929     -37276.346     -36913.948    
     27100   349.90952     -836.68946     -37255.215     -36875.558    
     27200   328.2566      -14164.942     -37244.312     -36888.149    
     27300   328.3282      -14281.987     -37273.497     -36917.256    
     27400   328.99708      4227.2575     -37290.362     -36933.395    
     27500   293.2798      -11404.146     -37267.183     -36948.97     
     27600   298.65242     -6973.1632     -37275.602     -36951.559    
     27700   317.01885     -3220.0262     -37267.308     -36923.338    
     27800   325.6939       6963.0979     -37253.321     -36899.938    
     27900   283.38487      3150.545      -37224.493     -36917.017    
     28000   258.81028      1786.0351     -37219.398     -36938.585    
     28100   253.59304     -4335.6669     -37220.556     -36945.404    
     28200   283.5755      -4207.519      -37244.293     -36936.61     
     28300   301.38353     -1067.5804     -37246.601     -36919.595    
     28400   286.94054     -12924.698     -37221.762     -36910.427    
     28500   274.51204     -7692.5385     -37192.246     -36894.397    
     28600   261.36664     -8037.4702     -37196.07      -36912.484    
     28700   258.36055      8524.0442     -37223.427     -36943.102    
     28800   270.02113     -11839.044     -37241.576     -36948.599    
     28900   267.51756     -4287.6305     -37230.01      -36939.75     
     29000   300.51016     -798.14635     -37231.222     -36905.164    
     29100   325.1557      -1594.886      -37249.66      -36896.861    
     29200   318.74936      3231.6459     -37256.792     -36910.944    
     29300   279.19005      3025.4992     -37231.877     -36928.952    
     29400   319.29412      7904.8112     -37280.645     -36934.206    
     29500   309.40291      2561.8216     -37266.226     -36930.519    
     29600   283.59299     -2932.7461     -37231.009     -36923.306    
     29700   292.91495     -12650.698     -37212.384     -36894.567    
     29800   340.42566     -8619.7091     -37257.193     -36887.826    
     29900   299.58626     -7407.1208     -37242.453     -36917.398    
     30000   305.64072     -5856.2649     -37264.542     -36932.917    
     30100   258.65074     -8264.2965     -37209.504     -36928.864    
     30200   321.78793      316.85842     -37263.088     -36913.943    
     30300   313.51269      4992.3581     -37226.316     -36886.151    
     30400   328.66789     -253.21747     -37238.675     -36882.066    
     30500   279.76435     -8731.9992     -37230.074     -36926.526    
     30600   316.14181      3743.4536     -37287.787     -36944.768    
     30700   282.87361      5085.0798     -37245.32      -36938.397    
     30800   294.21355     -12624.21      -37235.532     -36916.306    
     30900   284.28169     -3913.8404     -37208.129     -36899.679    
     31000   281.08427      5175.6908     -37220.852     -36915.871    
     31100   308.61255      2291.2635     -37287.99      -36953.141    
     31200   252.47218     -8982.254      -37220.288     -36946.352    
     31300   312.65678      2878.5285     -37266.247     -36927.01     
     31400   329.10987     -6617.8077     -37271.944     -36914.855    
     31500   276.50231      579.58159     -37210.088     -36910.079    
     31600   267.11404      8089.4587     -37209.713     -36919.891    
     31700   265.98106     -215.6204      -37241.186     -36952.593    
     31800   288.42143     -4635.2288     -37261.548     -36948.606    
     31900   289.7232      -9781.1295     -37232.627     -36918.273    
     32000   299.27928     -11461.566     -37234.14      -36909.417    
     32100   296.64371      5067.7969     -37243.494     -36921.631    
     32200   302.04354      1270.3868     -37264.026     -36936.305    
     32300   303.59224      113.68901     -37290.474     -36961.072    
     32400   232.0432      -7651.7647     -37238.771     -36987.001    
     32500   285.23758     -11549.256     -37307.154     -36997.667    
     32600   278.4796      -5706.0299     -37261.055     -36958.901    
     32700   309.93137     -4368.1416     -37277.157     -36940.877    
     32800   272.4386      -6999.5667     -37213.401     -36917.801    
     32900   318.11635     -4566.0481     -37248.289     -36903.128    
     33000   343.76792     -5042.1205     -37277.341     -36904.348    
     33100   277.90726     -2549.0354     -37241.566     -36940.033    
     33200   303.84584     -13334.802     -37284.092     -36954.415    
     33300   307.52019     -5210.6092     -37276.044     -36942.38     
     33400   334.2412      -14139.163     -37287.824     -36925.167    
     33500   280.73821     -1915.1806     -37209.169     -36904.564    
     33600   324.24337      1493.0151     -37268.901     -36917.092    
     33700   292.09285      4031.5212     -37276.686     -36959.761    
     33800   286.60464     -8195.598      -37268.725     -36957.754    
     33900   317.34775     -1486.8777     -37280.716     -36936.389    
     34000   288.87538     -3735.1278     -37235.04      -36921.606    
     34100   286.90274     -2157.8309     -37241.756     -36930.463    
     34200   295.01215     -6285.1921     -37277.401     -36957.308    
     34300   266.72368     -18576.862     -37266.02      -36976.621    
     34400   310.89342     -2180.7678     -37290.905     -36953.581    
     34500   314.68165     -4916.4289     -37277.305     -36935.871    
     34600   284.73115     -7441.36       -37239.619     -36930.682    
     34700   276.20656      7964.0261     -37238.856     -36939.168    
     34800   285.43072     -7128.335      -37275.276     -36965.58     
     34900   298.58867     -3166.7174     -37311.752     -36987.779    
     35000   318.86768     -4386.4984     -37320.637     -36974.661    
     35100   314.59314     -3456.6468     -37298.221     -36956.883    
     35200   330.52        -7296.7443     -37302.106     -36943.487    
     35300   329.25764     -1438.6496     -37292.538     -36935.288    
     35400   296.58058      5183.4903     -37263.724     -36941.93     
     35500   287.50509      1072.3572     -37277.536     -36965.589    
     35600   286.8649      -1204.4061     -37282.668     -36971.415    
     35700   282.77982     -5339.4361     -37250.269     -36943.449    
     35800   320.03807     -1208.2073     -37269.973     -36922.727    
     35900   324.84593      2617.1571     -37285.849     -36933.386    
     36000   322.06184     -3696.6066     -37290.215     -36940.773    
     36100   316.14166     -8123.7785     -37287.996     -36944.978    
     36200   305.63198      2257.1509     -37294.728     -36963.112    
     36300   311.29008     -2452.5245     -37304.361     -36966.607    
     36400   303.73202      1904.3903     -37268.814     -36939.26     
     36500   291.28008     -4229.4212     -37234.627     -36918.584    
     36600   287.77659     -1957.7146     -37242.492     -36930.25     
     36700   290.15068     -2585.7965     -37262.661     -36947.843    
     36800   303.98761     -5441.3053     -37288.261     -36958.43     
     36900   316.2506      -646.89531     -37294.388     -36951.251    
     37000   299.03937     -5221.1        -37261.27      -36936.807    
     37100   316.25281     -6887.4224     -37277.712     -36934.573    
     37200   317.81768     -6917.187      -37288.083     -36943.246    
     37300   277.62649     -919.39462     -37264.681     -36963.452    
     37400   262.70796      3185.4576     -37257.595     -36972.553    
     37500   265.82477     -5763.351      -37238.343     -36949.919    
     37600   290.93688     -7351.0621     -37242.627     -36926.956    
     37700   291.55535      2910.5954     -37241.947     -36925.605    
     37800   326.21534     -6668.0828     -37286.906     -36932.958    
     37900   320.60856      4338.8829     -37297.017     -36949.152    
     38000   308.41393      2611.9018     -37320.018     -36985.385    
     38100   285.59009     -8265.4735     -37313.946     -37004.077    
     38200   288.32994     -472.98074     -37288.644     -36975.801    
     38300   304.58293     -9418.6877     -37280.503     -36950.026    
     38400   309.12351      4191.3866     -37268.434     -36933.03     
     38500   311.38406     -7473.8824     -37261.444     -36923.587    
     38600   282.56412      3874.111      -37244.572     -36937.986    
     38700   263.81349     -4349.4017     -37256.206     -36969.964    
     38800   273.58995     -1230.9295     -37261.151     -36964.302    
     38900   327.05267      2850.9561     -37303.878     -36949.021    
     39000   324.72253     -8156.2758     -37287.565     -36935.236    
     39100   296.94855     -2883.4221     -37244.031     -36921.837    
     39200   302.04838     -4904.337      -37228.429     -36900.702    
     39300   318.04         5273.0142     -37253.657     -36908.578    
     39400   308.88635      7254.5913     -37275.428     -36940.282    
     39500   328.31067     -363.9348      -37307.126     -36950.904    
     39600   319.83995     -740.62984     -37309.858     -36962.827    
     39700   293.19348     -7922.2615     -37292.875     -36974.756    
     39800   274.47701      2884.556      -37251.272     -36953.461    
     39900   286.30119     -6426.4848     -37239.935     -36929.294    
     40000   285.96549     -8832.0942     -37246.481     -36936.204    
     40100   266.71835     -8526.6538     -37251.413     -36962.02     
     40200   302.32806     -8702.4162     -37301.236     -36973.206    
     40300   318.79443     -4803.0711     -37304.919     -36959.023    
     40400   321.26666     -12215.583     -37261.537     -36912.958    
     40500   314.67706     -3980.135      -37263.428     -36921.999    
     40600   284.20657     -6254.6292     -37260.512     -36952.143    
     40700   286.2284      -276.66177     -37275.871     -36965.309    
     40800   291.62589     -6620.3311     -37268.392     -36951.974    
     40900   314.85965     -5902.9307     -37262.511     -36920.883    
     41000   325.91484      1968.421      -37269.975     -36916.353    
     41100   297.7802      -13391.022     -37255.701     -36932.605    
     41200   285.01359     -64.974298     -37252.714     -36943.47     
     41300   271.96254      3644.4137     -37251.2       -36956.116    
     41400   285.9376      -351.20039     -37275.381     -36965.135    
     41500   279.90897     -4312.7125     -37248.665     -36944.96     
     41600   328.26768     -1395.065      -37270.675     -36914.499    
     41700   320.61982     -500.69486     -37270.128     -36922.25     
     41800   294.81033     -1212.3295     -37263.318     -36943.445    
     41900   284.22664     -7501.9691     -37268.9       -36960.51     
     42000   287.674        717.26673     -37268.659     -36956.529    
     42100   307.72006     -12875.321     -37246.336     -36912.455    
     42200   280.7897      -3810.458      -37214.308     -36909.647    
     42300   286.32327     -11607.333     -37245.819     -36935.154    
     42400   270.57478     -1040.116      -37249.681     -36956.103    
     42500   261.44483     -5265.6971     -37244.186     -36960.515    
     42600   284.51285     -2748.2055     -37241.658     -36932.957    
     42700   287.84092     -9058.0663     -37226.591     -36914.279    
     42800   279.22804     -2462.9401     -37230.286     -36927.319    
     42900   284.44187     -4044.4284     -37256.978     -36948.355    
     43000   273.32122      4855.272      -37261.118     -36964.56     
     43100   283.82173     -3832.4669     -37270.088     -36962.138    
     43200   290.95067     -4281.5817     -37231.452     -36915.766    
     43300   332.53936     -795.31936     -37267.793     -36906.983    
     43400   313.1972      -3156.2122     -37272.07      -36932.246    
     43500   321.25642     -12838.135     -37302.942     -36954.374    
     43600   312.19781     -15.860342     -37298.987     -36960.247    
     43700   314.13017     -2907.8527     -37286.619     -36945.783    
     43800   343.74029     -12391.674     -37284.686     -36911.722    
     43900   343.71429      3447.8261     -37290.702     -36917.767    
     44000   320.51384     -8224.4538     -37277.616     -36929.854    
     44100   314.74478      3139.8605     -37279.666     -36938.163    
     44200   307.30632      1874.7338     -37281.714     -36948.282    
     44300   297.00695     -9744.3653     -37287.491     -36965.234    
     44400   271.94182     -9625.0222     -37280.131     -36985.07     
     44500   260.4531      -6877.7643     -37262.335     -36979.74     
     44600   299.2651      -7451.0343     -37266.024     -36941.317    
     44700   295.50236     -1402.5264     -37250.991     -36930.366    
     44800   283.60011     -1136.6052     -37238.712     -36931.001    
     44900   267.25387     -5990.7134     -37228.974     -36938.999    
     45000   277.85834     -9088.5317     -37243.952     -36942.472    
     45100   257.27255      5081.1821     -37239.693     -36960.549    
     45200   277.10137      367.5771      -37268.614     -36967.955    
     45300   303.66939     -2512.598      -37277.914     -36948.429    
     45400   337.46469     -3154.6138     -37290.402     -36924.248    
     45500   347.06205      405.15865     -37298.354     -36921.787    
     45600   309.56761     -5984.7965     -37301.017     -36965.131    
     45700   271.81691     -9459.2858     -37269.483     -36974.557    
     45800   317.50883     -10462.676     -37301.704     -36957.202    
     45900   326.99552     -5044.89       -37293.346     -36938.551    
     46000   304.67178     -2780.7869     -37273.081     -36942.508    
     46100   297.58758     -11820.498     -37280.762     -36957.875    
     46200   274.42958     -4720.9685     -37293.568     -36995.808    
     46300   255.5036      -5688.5125     -37262.617     -36985.391    
     46400   287.12806     -1483.4772     -37270.985     -36959.446    
     46500   319.6991      -5148.1744     -37299.512     -36952.633    
     46600   333.70403      5354.4565     -37303.377     -36941.303    
     46700   324.6516      -1807.0221     -37275.969     -36923.717    
     46800   315.08346      2835.5704     -37246.414     -36904.544    
     46900   296.69072      7447.2318     -37237.28      -36915.366    
     47000   308.92284     -1118.8699     -37284.035     -36948.849    
     47100   285.35765     -353.56008     -37270.649     -36961.031    
     47200   288.3132       3874.4203     -37266.352     -36953.528    
     47300   311.31247     -1588.2663     -37273.193     -36935.414    
     47400   326.07435     -8130.0456     -37273.808     -36920.013    
     47500   321.48934     -3065.8465     -37277.552     -36928.731    
     47600   273.36131     -5815.2163     -37259.645     -36963.044    
     47700   302.60138     -1928.5894     -37297.988     -36969.661    
     47800   292.12038     -5735.2911     -37275.745     -36958.79     
     47900   324.74737      5568.1244     -37281.589     -36929.234    
     48000   280.94225     -947.83627     -37238.798     -36933.972    
     48100   305.02452     -4169.9742     -37278.588     -36947.631    
     48200   315.68095     -2025.9221     -37292.881     -36950.363    
     48300   264.83112     -739.10709     -37253.877     -36966.531    
     48400   313.36159      3970.1513     -37329.649     -36989.647    
     48500   309.76518      5903.5606     -37344.919     -37008.82     
     48600   275.81687      6859.368      -37279.635     -36980.37     
     48700   303.70865      539.00756     -37287.706     -36958.177    
     48800   330.21372     -4568.037      -37306.595     -36948.308    
     48900   273.70121     -8101.777      -37235.039     -36938.069    
     49000   302.22653     -211.93604     -37242.857     -36914.937    
     49100   335.34288      3060.4813     -37289.058     -36925.206    
     49200   283.73012     -2018.2455     -37271.641     -36963.79     
     49300   276.38449      3456.1358     -37263.579     -36963.698    
     49400   279.94597     -4137.8076     -37258.525     -36954.779    
     49500   322.00067     -3618.8633     -37283.041     -36933.665    
     49600   313.9689       3270.0568     -37250.707     -36910.046    
     49700   338.23488     -10731.882     -37278.309     -36911.319    
     49800   257.88071     -4887.499      -37232.078     -36952.274    
     49900   289.70582     -4803.1888     -37276.078     -36961.743    
     50000   289.05904      1556.765      -37277.191     -36963.557    
     50100   294.63043     -1031.2315     -37269.44      -36949.762    
     50200   291.84097     -4049.784      -37238.452     -36921.8      
     50300   331.37744     -9288.9891     -37280.016     -36920.466    
     50400   297.71786     -7782.6777     -37275.286     -36952.258    
     50500   266.70453     -15519.125     -37258.097     -36968.719    
     50600   276.31704     -11207.778     -37256.607     -36956.799    
     50700   320.47025     -4520.1176     -37289.803     -36942.088    
     50800   325.12815      1691.9278     -37280.215     -36927.446    
     50900   300.34418     -2869.2484     -37257.66      -36931.782    
     51000   274.23283     -5243.3989     -37255.428     -36957.881    
     51100   310.30658     -5212.1077     -37308.938     -36972.251    
     51200   320.26151     -2075.2974     -37298.914     -36951.425    
     51300   301.58597      1313.6305     -37252.19      -36924.965    
     51400   300.70237      6407.3242     -37256.497     -36930.23     
     51500   321.79692      783.12381     -37292.537     -36943.383    
     51600   313.42412     -3052.7765     -37289.924     -36949.854    
     51700   275.59623     -1283.4892     -37243.303     -36944.277    
     51800   295.03538     -2304.0903     -37248.303     -36928.185    
     51900   315.7525       4895.7389     -37257.326     -36914.73     
     52000   310.15033     -7781.9899     -37281.89      -36945.372    
     52100   285.74652     -4408.6959     -37275.304     -36965.265    
     52200   311.98033     -2753.9418     -37308.691     -36970.188    
     52300   315.93151      9911.849      -37291.892     -36949.102    
     52400   291.68539     -2185.4832     -37239.452     -36922.969    
     52500   297.05995      6028.9618     -37249.697     -36927.383    
     52600   301.24055      3758.2053     -37276.014     -36949.164    
     52700   312.98078     -131.68652     -37302.342     -36962.753    
     52800   265.00244     -18661.163     -37233.294     -36945.763    
     52900   335.80322     -3345.9017     -37276.638     -36912.287    
     53000   316.49563     -14527.49      -37250.712     -36907.31     
     53100   314.34654     -8420.5875     -37263.535     -36922.464    
     53200   272.33586     -4430.6899     -37234.536     -36939.048    
     53300   323.83989     -441.16845     -37309.493     -36958.122    
     53400   309.69916      10910.401     -37307.159     -36971.131    
     53500   281.48864     -7251.8759     -37264.925     -36959.506    
     53600   327.15216     -6214.006      -37281.319     -36926.354    
     53700   305.88285     -7560.3049     -37254.233     -36922.346    
     53800   287.57983     -11825.045     -37247.742     -36935.714    
     53900   302.80925     -1687.675      -37289.544     -36960.992    
     54000   311.82711      2021.022      -37300.756     -36962.419    
     54100   275.80246     -7795.7937     -37260.127     -36960.877    
     54200   321.5518      -303.47399     -37309.808     -36960.92     
     54300   329.5784      -12369.312     -37289.471     -36931.874    
     54400   303.7381      -8729.8184     -37244.67      -36915.109    
     54500   324.86507      11552.442     -37291.795     -36939.311    
     54600   307.8853      -3686.8576     -37292.409     -36958.349    
     54700   270.77604     -7270.7055     -37249.253     -36955.457    
     54800   316.31236     -3434.5695     -37303.412     -36960.208    
     54900   313.24153     -4759.3444     -37314.129     -36974.257    
     55000   259.00253      1526.2987     -37265.86      -36984.838    
     55100   318.44909     -9030.9571     -37323.772     -36978.25     
     55200   334.44291      2466.9643     -37307.053     -36944.178    
     55300   262.58968     -7201.6157     -37225.47      -36940.556    
     55400   319.09292      5392.0702     -37296.783     -36950.563    
     55500   324.13847     -1533.0158     -37329.71      -36978.015    
     55600   254.81651     -6096.6724     -37268.583     -36992.103    
     55700   324.32092     -9101.1646     -37339.173     -36987.28     
     55800   318.72127      4543.2396     -37314.92      -36969.103    
     55900   316.79081      2899.061      -37306.336     -36962.613    
     56000   287.87723     -8371.9648     -37290.195     -36977.844    
     56100   280.80379     -3558.8853     -37296.814     -36992.138    
     56200   287.50242     -5049.5628     -37302.431     -36990.486    
     56300   295.5442      -17807.176     -37305.565     -36984.895    
     56400   297.18891     -1774.672      -37298.741     -36976.287    
     56500   306.91941     -8828.2486     -37285.48      -36952.468    
     56600   325.69696     -6714.1854     -37289.203     -36935.817    
     56700   322.57948     -7804.1008     -37323.564     -36973.56     
     56800   291.31809     -8126.6962     -37309.986     -36993.902    
     56900   300.12713     -3657.1252     -37317.345     -36991.702    
     57000   305.4928      -3898.286      -37309.653     -36978.189    
     57100   342.74901     -4811.0614     -37335.042     -36963.155    
     57200   323.29362     -12321.011     -37312.618     -36961.84     
     57300   294.30062      3993.474      -37305.816     -36986.495    
     57400   296.44863     -4468.9858     -37328.145     -37006.493    
     57500   304.56584      2354.2042     -37334.725     -37004.266    
     57600   299.04788     -4116.1387     -37294.868     -36970.396    
     57700   299.74091      4910.4544     -37276.065     -36950.842    
     57800   293.78987      3606.0546     -37283.022     -36964.255    
     57900   277.69108     -7105.7752     -37289.98      -36988.681    
     58000   294.19882     -9392.5126     -37303.082     -36983.872    
     58100   313.39934     -9800.3007     -37322.228     -36982.185    
     58200   321.16095     -10830.056     -37336.251     -36987.787    
     58300   283.15549     -12996.016     -37318.103     -37010.876    
     58400   291.81733      8509.3842     -37331.632     -37015.006    
     58500   302.97322     -5229.3534     -37319.187     -36990.457    
     58600   330.39248      3066.5451     -37328.513     -36970.032    
     58700   305.5593       5143.2838     -37302.528     -36970.992    
     58800   300.45775     -2598.0258     -37304.89      -36978.889    
     58900   295.42118     -1133.5373     -37330.181     -37009.645    
     59000   268.1548      -9016.7954     -37312.605     -37021.653    
     59100   306.17862     -6590.8981     -37327.483     -36995.275    
     59200   308.43461     -7752.4505     -37319.663     -36985.007    
     59300   306.49758      2010.1816     -37314.784     -36982.23     
     59400   323.9329      -5774.1511     -37333.961     -36982.489    
     59500   313.48167      3796.8564     -37319.822     -36979.69     
     59600   320.48699     -7542.4748     -37315.491     -36967.757    
     59700   317.62864     -7774.5047     -37316.245     -36971.613    
     59800   293.36258     -2397.9932     -37311.449     -36993.146    
     59900   310.35173     -7173.4678     -37337.128     -37000.392    
     60000   304.26574      618.95391     -37331.524     -37001.391    
     60100   305.44185     -753.77191     -37309.895     -36978.486    
     60200   326.3709       3154.1051     -37311.925     -36957.808    
     60300   316.90322     -7815.3013     -37298.453     -36954.609    
     60400   302.75281      1045.0069     -37314.423     -36985.932    
     60500   284.94938     -1647.17       -37316.929     -37007.755    
     60600   300.44017     -6129.4667     -37328.933     -37002.951    
     60700   302.47082     -4310.4175     -37318.781     -36990.596    
     60800   317.39936     -5859.0502     -37324.573     -36980.19     
     60900   306.52261     -13108.784     -37307.962     -36975.38     
     61000   303.03332     -18559.746     -37270.817     -36942.021    
     61100   311.13893     -493.58258     -37271.116     -36933.526    
     61200   314.15335     -10953.68      -37313.368     -36972.507    
     61300   318.35652     -4653.8533     -37330.48      -36985.058    
     61400   300.42079     -5183.067      -37314.645     -36988.684    
     61500   303.13333      5338.4314     -37308.212     -36979.307    
     61600   341.27962      5645.9857     -37319.854     -36949.561    
     61700   305.51713     -6959.6187     -37283.432     -36951.941    
     61800   271.22462     -8865.3671     -37278.471     -36984.188    
     61900   281.48298     -15225.785     -37304.436     -36999.023    
     62000   269.9568      -4272.226      -37279.522     -36986.615    
     62100   322.27668     -5268.9133     -37324.338     -36974.663    
     62200   310.22342     -7975.144      -37297.56      -36960.963    
     62300   314.93501     -12685.363     -37283.551     -36941.842    
     62400   311.56984      225.66711     -37258.866     -36920.808    
     62500   313.23462     -1822.4611     -37283.937     -36944.073    
     62600   302.72551      5364.2655     -37299.301     -36970.84     
     62700   280.68746     -15265.815     -37276.418     -36971.868    
     62800   319.09928     -217.62391     -37301.89      -36955.663    
     62900   319.2633      -3167.7193     -37287.584     -36941.179    
     63000   298.97079     -11078.514     -37250.216     -36925.828    
     63100   312.46994      3987.471      -37256.844     -36917.81     
     63200   305.76667     -8786.7042     -37275.368     -36943.606    
     63300   289.68022     -1544.5225     -37282.951     -36968.643    
     63400   280.77969     -7248.6563     -37275.095     -36970.445    
     63500   283.23157     -549.99948     -37266.037     -36958.727    
     63600   333.69627     -10430.049     -37295.444     -36933.379    
     63700   296.16992     -3694.09       -37240.596     -36919.247    
     63800   318.22946     -5079.1549     -37279.844     -36934.561    
     63900   333.57248     -11793.617     -37327.928     -36965.997    
     64000   304.58574     -10241.217     -37312.121     -36981.641    
     64100   294.26686     -17734.797     -37292.082     -36972.798    
     64200   300.63408      107.42151     -37281.82      -36955.627    
     64300   330.88939      4557.5149     -37290.098     -36931.078    
     64400   307.31251     -1393.1789     -37264.781     -36931.342    
     64500   291.1408      -1366.8766     -37285.9       -36970.008    
     64600   268.09044     -7257.2462     -37269.538     -36978.656    
     64700   300.60659     -13545.544     -37295.014     -36968.851    
     64800   316.94205      389.39523     -37296.695     -36952.808    
     64900   312.45497     -2818.6602     -37281.444     -36942.425    
     65000   316.21715     -8000.2028     -37270.384     -36927.283    
     65100   289.6035      -874.07747     -37253.698     -36939.474    
     65200   285.0889      -8067.217      -37275.835     -36966.509    
     65300   282.42718     -18722.452     -37281.582     -36975.144    
     65400   291.54267     -11562.893     -37299.911     -36983.583    
     65500   286.681       -4257.3541     -37290.149     -36979.096    
     65600   303.07756     -11527.915     -37283.446     -36954.602    
     65700   337.32347      3205.7842     -37302.177     -36936.176    
     65800   310.40605     -6594.8924     -37281.387     -36944.592    
     65900   289.71398     -7108.3496     -37290.532     -36976.188    
     66000   288.50106     -13421.316     -37296.36      -36983.332    
     66100   276.12703     -13508.705     -37273.926     -36974.324    
     66200   281.32105     -14187.065     -37270.495     -36965.258    
     66300   303.56949     -1359.2807     -37281.814     -36952.437    
     66400   292.05172     -6755.4669     -37269.351     -36952.47     
     66500   298.04544     -3591.8205     -37295.554     -36972.17     
     66600   267.71955      3932.0893     -37275.87      -36985.39     
     66700   287.51521     -3619.4567     -37280.908     -36968.949    
     66800   294.94407      3036.9259     -37265.495     -36945.476    
     66900   314.0176       3869.9786     -37287.226     -36946.512    
     67000   297.76815     -5209.7946     -37280.506     -36957.423    
     67100   289.33996      1189.0269     -37300.333     -36986.395    
     67200   278.73231     -1206.4086     -37315.921     -37013.492    
     67300   273.08066     -2740.2077     -37294.495     -36998.199    
     67400   280.86695      12777.179     -37279.936     -36975.191    
     67500   302.68068      368.63213     -37286.241     -36957.828    
     67600   288.20978      9780.4558     -37259.882     -36947.171    
     67700   288.68175      81.756551     -37272.709     -36959.485    
     67800   277.21164     -3432.826      -37292.698     -36991.919    
     67900   285.39272     -17161.714     -37299.682     -36990.027    
     68000   298.8085      -3030.827      -37290.441     -36966.229    
     68100   307.19281      4487.1658     -37291.153     -36957.845    
     68200   294.92666     -2944.5817     -37272.691     -36952.691    
     68300   314.07958      5566.8028     -37285.248     -36944.467    
     68400   319.90765     -10625.452     -37299.187     -36952.083    
     68500   287.10529     -2427.7184     -37295.546     -36984.032    
     68600   279.59537     -1955.9488     -37290.302     -36986.936    
     68700   324.65041     -7091.9142     -37310.962     -36958.711    
     68800   295.45307      4607.573      -37268.63      -36948.059    
     68900   304.7517      -4234.551      -37278.631     -36947.97     
     69000   292.2654      -10388.383     -37271.996     -36954.884    
     69100   282.05959     -10114.052     -37282.549     -36976.51     
     69200   286.80189     -13020.006     -37314.849     -37003.664    
     69300   265.35599     -4232.1364     -37282.489     -36994.574    
     69400   294.54505      5605.9231     -37284.439     -36964.853    
     69500   298.46295     -11411.06      -37276.99      -36953.153    
     69600   303.95475     -3611.4575     -37276.104     -36946.309    
     69700   292.88125     -10100.27      -37268.141     -36950.361    
     69800   307.54306     -2600.6114     -37298.454     -36964.765    
     69900   297.90405     -4248.2364     -37306.771     -36983.541    
     70000   289.25536     -9143.6239     -37310.265     -36996.419    
     70100   303.02944     -4601.3364     -37293.832     -36965.041    
     70200   296.65314     -6509.6395     -37263.723     -36941.85     
     70300   286.54535     -942.99398     -37257.684     -36946.778    
     70400   284.45611      849.97734     -37272.573     -36963.933    
     70500   287.14514     -4620.4575     -37301.705     -36990.149    
     70600   290.66949     -6420.6065     -37304.577     -36989.197    
     70700   312.49252     -18022.636     -37291.26      -36952.201    
     70800   302.92567     -6241.1052     -37275.825     -36947.146    
     70900   305.70154     -3827.0832     -37286.674     -36954.983    
     71000   273.44678     -12679.415     -37262.265     -36965.571    
     71100   301.30717     -8803.4118     -37297.619     -36970.696    
     71200   299.9651      -4299.1523     -37310.026     -36984.559    
     71300   298.74125     -2377.7766     -37303.659     -36979.52     
     71400   290.28764      1827.5269     -37266.407     -36951.441    
     71500   323.02186     -13787.906     -37285.858     -36935.374    
     71600   306.00615     -6333.4451     -37276.261     -36944.24     
     71700   298.23491     -1482.5046     -37306.928     -36983.339    
     71800   285.76031     -7491.6738     -37306.696     -36996.642    
     71900   273.17874     -10613.563     -37276.678     -36980.275    
     72000   300.50739      5018.1799     -37280.206     -36954.151    
     72100   286.07817     -8369.7476     -37256.22      -36945.82     
     72200   299.77055     -14241.614     -37272.271     -36947.016    
     72300   299.59119     -5031.2345     -37295.055     -36969.994    
     72400   285.47779     -12952.788     -37302.846     -36993.098    
     72500   280.42296      1534.7473     -37279.431     -36975.168    
     72600   277.21269      1951.6779     -37251.546     -36950.766    
     72700   300.37964     -6402.6444     -37270.694     -36944.777    
     72800   291.25871      794.58121     -37264.873     -36948.853    
     72900   287.90576     -13420.529     -37271.525     -36959.143    
     73000   287.76807     -6568.3713     -37275.04      -36962.807    
     73100   306.64259     -7116.5707     -37294.188     -36961.476    
     73200   324.96508     -3471.3338     -37307.687     -36955.095    
     73300   293.62876      4633.2797     -37267.346     -36948.754    
     73400   283.82036     -8807.0835     -37259.644     -36951.695    
     73500   277.25121     -2589.4204     -37269.887     -36969.065    
     73600   291.30216     -15304.351     -37306.014     -36989.946    
     73700   292.09613     -9674.9603     -37302.825     -36985.896    
     73800   314.6416       1357.0187     -37287.886     -36946.495    
     73900   309.72688      2553.7606     -37274.331     -36938.273    
     74000   303.95432     -1536.4914     -37279.297     -36949.502    
     74100   279.58577     -4062.6968     -37272.121     -36968.766    
     74200   278.43752      4034.0375     -37289.705     -36987.596    
     74300   301.05482      1190.1051     -37319.314     -36992.665    
     74400   297.20007     -8469.1256     -37291.016     -36968.55     
     74500   300.90949     -4786.5854     -37263.974     -36937.483    
     74600   308.79544     -5720.6538     -37267.928     -36932.88     
     74700   306.23511      3835.2994     -37287.701     -36955.431    
     74800   318.99096      1474.4657     -37319.649     -36973.539    
     74900   284.51069      1353.2332     -37282.185     -36973.487    
     75000   286.16071     -11332.667     -37263.886     -36953.397    
     75100   293.09795      6603.6413     -37254.421     -36936.405    
     75200   317.56639      6259.1503     -37285.456     -36940.892    
     75300   316.88104      10440.357     -37296.017     -36952.196    
     75400   273.11069      6767.515      -37263.078     -36966.749    
     75500   289.50397     -2615.4545     -37283.795     -36969.679    
     75600   294.42048     -6011.7665     -37286.636     -36967.186    
     75700   273.67134      5176.8604     -37265.769     -36968.831    
     75800   294.0132      -4830.0953     -37281.526     -36962.517    
     75900   299.53405     -4361.1954     -37281.729     -36956.731    
     76000   289.90168     -30.12825      -37258.653     -36944.105    
     76100   327.11101      5688.826      -37286.919     -36931.999    
     76200   319.65407     -7916.4088     -37300.569     -36953.74     
     76300   295.55554     -11733.648     -37302.069     -36981.387    
     76400   296.32135      3962.8509     -37298.014     -36976.501    
     76500   296.50381     -5973.5963     -37282.186     -36960.475    
     76600   305.14399     -11864.451     -37274.183     -36943.097    
     76700   300.52014     -13692.397     -37262.982     -36936.913    
     76800   304.10431     -2819.5783     -37273.957     -36944        
     76900   312.98593     -8099.2832     -37306.698     -36967.104    
     77000   302.40745      3868.5066     -37307.993     -36979.876    
     77100   316.94922     -4434.6501     -37308.35      -36964.455    
     77200   315.688       -7402.723      -37278.927     -36936.401    
     77300   317.93021      2634.3299     -37281.149     -36936.19     
     77400   295.39063      885.16602     -37269.932     -36949.429    
     77500   272.15492      3891.7466     -37257.837     -36962.545    
     77600   312.90885     -18627.187     -37299.675     -36960.164    
     77700   319.91613     -13374.157     -37312.436     -36965.323    
     77800   314.19121     -337.0254      -37305.882     -36964.98     
     77900   289.59499     -6425.5505     -37272.591     -36958.377    
     78000   315.04794      2159.4967     -37273.62      -36931.788    
     78100   313.26207     -2540.7326     -37248.783     -36908.889    
     78200   333.57876      2204.6291     -37292.844     -36930.906    
     78300   323.83534      10610.125     -37316.058     -36964.692    
     78400   283.13623      5253.4244     -37266.32      -36959.113    
     78500   308.13485      6423.2315     -37274.77      -36940.439    
     78600   299.79907     -4739.1286     -37270.75      -36945.464    
     78700   302.47886     -1946.3548     -37304.906     -36976.712    
     78800   287.63287     -14581.266     -37310.966     -36998.88     
     78900   287.64219     -5171.5019     -37297.218     -36985.122    
     79000   302.98932     -5663.9552     -37294.837     -36966.089    
     79100   320.2381      -4634.4632     -37305.429     -36957.966    
     79200   302.82019     -9131.9999     -37286.597     -36958.033    
     79300   288.80946     -14085.839     -37292.751     -36979.388    
     79400   252.40651      5224.086      -37274.394     -37000.529    
     79500   263.05205     -13117.408     -37267.336     -36981.921    
     79600   305.09805     -8411.538      -37280.489     -36949.453    
     79700   320.36884     -6758.7489     -37295.616     -36948.011    
     79800   309.54693     -4154.2398     -37287.817     -36951.954    
     79900   308.49322     -504.00282     -37301.386     -36966.667    
     80000   288.63152     -10768.248     -37298.882     -36985.713    
     80100   261.23876     -3881.3687     -37269.467     -36986.019    
     80200   278.94829      2984.2131     -37249.841     -36947.178    
     80300   299.53007      1928.8589     -37258.379     -36933.384    
     80400   336.78382     -6814.9355     -37298.331     -36932.916    
     80500   291.56103     -11428.611     -37279.527     -36963.179    
     80600   296.6946      -4455.508      -37292.292     -36970.374    
     80700   289.74831     -1054.7657     -37280.292     -36965.91     
     80800   298.495        11193.337     -37279.481     -36955.609    
     80900   278.47131     -4289.6052     -37255.377     -36953.231    
     81000   284.205       -13781.724     -37255.565     -36947.198    
     81100   293.50976      2364.0471     -37262.17      -36943.707    
     81200   311.96478      2036.9958     -37293.034     -36954.547    
     81300   303.66654      4446.3412     -37320.63      -36991.148    
     81400   294.24356     -10554.814     -37317.648     -36998.389    
     81500   299.73932     -5403.7942     -37299.809     -36974.587    
     81600   302.82564     -2312.7781     -37283.686     -36955.116    
     81700   316.35902      1640.2141     -37291.082     -36947.828    
     81800   286.72895      588.07493     -37267.561     -36956.456    
     81900   300.89603      6596.4219     -37294.356     -36967.879    
     82000   277.38817      300.04058     -37283.628     -36982.658    
     82100   280.14579     -316.7275      -37276.906     -36972.943    
     82200   276.74431     -9328.9204     -37242.293     -36942.021    
     82300   302.2075      -2484.7382     -37260.398     -36932.498    
     82400   300.92082      3907.2775     -37261.212     -36934.708    
     82500   313.69339     -9734.4054     -37297.553     -36957.191    
     82600   308.09878     -3163.4991     -37323.559     -36989.267    
     82700   280.21906     -6634.7102     -37289.629     -36985.587    
     82800   306.50754      379.34894     -37300.035     -36967.47     
     82900   315.64824     -378.63158     -37300.689     -36958.206    
     83000   319.54988      2230.9821     -37292.192     -36945.475    
     83100   318.8524       9514.3466     -37251.802     -36905.843    
     83200   316.37857      2070.6816     -37251.618     -36908.342    
     83300   284.8656      -10142.946     -37250.635     -36941.552    
     83400   301.37879     -6280.606      -37280.41      -36953.41     
     83500   301.15848     -8067.8307     -37294.9       -36968.138    
     83600   285.54681     -6073.8544     -37300.907     -36991.084    
     83700   283.15969     -10046.937     -37290.164     -36982.931    
     83800   312.46026      14.773723     -37289.714     -36950.69     
     83900   311.92482     -14560.969     -37289.846     -36951.403    
     84000   312.53468     -4806.9523     -37294.702     -36955.597    
     84100   326.09643     -9532.0498     -37309.233     -36955.414    
     84200   298.33565     -13090.508     -37293.102     -36969.403    
     84300   284.36841     -369.96127     -37300.685     -36992.141    
     84400   292.10131     -6154.4595     -37310.646     -36993.712    
     84500   312.97343      2457.9405     -37293.186     -36953.605    
     84600   321.50232      11977.269     -37293.052     -36944.217    
     84700   280.17999      927.25335     -37264.129     -36960.129    
     84800   293.75467     -7743.9915     -37290.763     -36972.035    
     84900   281.38118     -5506.5627     -37282.714     -36977.412    
     85000   305.13747     -3357.9834     -37282.344     -36951.265    
     85100   326.30011     -2939.5549     -37287.728     -36933.688    
     85200   320.57811      2152.5521     -37297.97      -36950.138    
     85300   295.76659     -18049.173     -37296.936     -36976.024    
     85400   296.2352       1800.3194     -37299.757     -36978.337    
     85500   287.38131     -1084.4406     -37284.525     -36972.712    
     85600   286.39242     -9242.7545     -37273.705     -36962.965    
     85700   303.06178     -5412.5227     -37285.162     -36956.335    
     85800   274.75134     -20072.968     -37263.837     -36965.728    
     85900   302.38915     -7729.3667     -37309.679     -36981.582    
     86000   274.38692     -1435.5982     -37284.221     -36986.507    
     86100   311.26689     -13794.732     -37296.68      -36958.951    
     86200   321.15208      1312.5715     -37291.579     -36943.124    
     86300   319.83794     -4397.8705     -37294.668     -36947.639    
     86400   293.48368     -3825.8957     -37283.533     -36965.099    
     86500   266.54815     -11584.48      -37294.439     -37005.23     
     86600   270.21906     -979.67173     -37304.072     -37010.88     
     86700   302.20334     -13774.54      -37316.546     -36988.651    
     86800   308.60811     -5723.9026     -37299.163     -36964.318    
     86900   305.4498       2459.008      -37279.433     -36948.015    
     87000   301.34545     -3531.5968     -37268.848     -36941.883    
     87100   291.9324       927.27963     -37254.034     -36937.283    
     87200   323.91297      12170.998     -37286.04      -36934.59     
     87300   303.60064     -568.74212     -37291.997     -36962.585    
     87400   302.93635      610.7325      -37309.207     -36980.516    
     87500   303.79581     -684.05254     -37310.87      -36981.247    
     87600   312.62752     -6672.752      -37292.639     -36953.433    
     87700   311.87138     -3503.1795     -37266.471     -36928.086    
     87800   292.46736     -2752.3158     -37253.06      -36935.728    
     87900   291.01478      796.13081     -37264.483     -36948.728    
     88000   279.4146       2251.8946     -37275.333     -36972.164    
     88100   279.07988     -3876.2901     -37286.232     -36983.427    
     88200   276.01299     -8486.8575     -37272.998     -36973.52     
     88300   285.48408      5070.6287     -37269.257     -36959.502    
     88400   308.40671     -6584.3322     -37277.727     -36943.101    
     88500   305.65984     -6293.1789     -37286.031     -36954.386    
     88600   302.63275     -1754.8897     -37313.336     -36984.975    
     88700   285.10548     -9373.0439     -37302.339     -36992.996    
     88800   295.60351     -4627.0163     -37301.72      -36980.986    
     88900   304.44497      359.62929     -37300.855     -36970.528    
     89000   296.31584      4459.1325     -37279.128     -36957.621    
     89100   293.28878     -8558.8717     -37262.399     -36944.176    
     89200   287.4463      -3728.947      -37249.17      -36937.287    
     89300   312.53662      6778.4933     -37270.362     -36931.255    
     89400   289.11334     -11841.544     -37269.032     -36955.34     
     89500   282.93635     -4857.6416     -37285.411     -36978.421    
     89600   300.53895     -12425.701     -37297.98      -36971.891    
     89700   310.56596     -8990.4178     -37284.786     -36947.818    
     89800   312.71717     -12636.217     -37287.99      -36948.687    
     89900   309.51562     -1000.9887     -37292.965     -36957.136    
     90000   311.45822      4467.3872     -37300.772     -36962.835    
     90100   297.34061     -11115.77      -37287.451     -36964.832    
     90200   296.11627      2132.6273     -37291.339     -36970.048    
     90300   282.14085     -6008.4385     -37283.452     -36977.325    
     90400   271.90596     -4688.3434     -37267.058     -36972.036    
     90500   318.94721     -11326.202     -37289.191     -36943.128    
     90600   326.54359     -3775.0208     -37296.009     -36941.704    
     90700   300.65861     -1078.0341     -37287.356     -36961.137    
     90800   277.59745     -4997.0512     -37281.103     -36979.906    
     90900   280.54538     -4230.1327     -37275.254     -36970.858    
     91000   299.58881     -8010.0029     -37244.984     -36919.925    
     91100   323.81397      3953.532      -37277.845     -36926.502    
     91200   314.47109      4471.4955     -37297.808     -36956.602    
     91300   309.6564      -786.90893     -37310.819     -36974.838    
     91400   273.86697      2259.1305     -37278.022     -36980.872    
     91500   305.31083     -5141.5961     -37293.604     -36962.337    
     91600   314.73085      1744.0268     -37273.092     -36931.604    
     91700   307.20966     -10303.988     -37262.947     -36929.62     
     91800   285.92981     -5500.4361     -37255.059     -36944.821    
     91900   308.64381      2750.761      -37294.513     -36959.63     
     92000   294.8072      -5179.2039     -37295.51      -36975.639    
     92100   308.38092     -4886.6808     -37305.402     -36970.804    
     92200   308.72365     -3494.8181     -37260.714     -36925.744    
     92300   318.94311     -10792.085     -37267.002     -36920.944    
     92400   324.88562     -11741.581     -37300.682     -36948.177    
     92500   316.75983     -12395.914     -37307.645     -36963.955    
     92600   274.52889      6112.0137     -37269.297     -36971.429    
     92700   287.48572      9565.5619     -37275.915     -36963.988    
     92800   313.18005      4741.4028     -37266.78      -36926.975    
     92900   330.9824       2309.2947     -37288.272     -36929.152    
     93000   314.83984      4519.9617     -37296.565     -36954.959    
     93100   292.02708     -2390.4798     -37277.537     -36960.684    
     93200   296.85828     -231.66949     -37281.028     -36958.933    
     93300   290.57172      6687.0869     -37277.217     -36961.943    
     93400   311.20564     -7826.3807     -37300.886     -36963.223    
     93500   306.78827     -13583.291     -37289.164     -36956.294    
     93600   294.20877     -6557.1229     -37266.69      -36947.469    
     93700   304.87806      7962.5265     -37263.214     -36932.417    
     93800   303.0302       7361.4911     -37273.249     -36944.457    
     93900   281.04236     -7622.2913     -37283.519     -36978.584    
     94000   299.34974      1329.4891     -37301.75      -36976.951    
     94100   312.78209     -8726.1807     -37304.744     -36965.371    
     94200   317.25505     -3106.7446     -37299.099     -36954.872    
     94300   323.9964      -2172.1184     -37273.786     -36922.245    
     94400   304.83767     -14861.014     -37249.138     -36918.385    
     94500   296.93359      6352.8262     -37274.556     -36952.379    
     94600   303.10239     -2275.6479     -37299.498     -36970.627    
     94700   317.25734     -448.51239     -37317.608     -36973.379    
     94800   311.81655     -522.53868     -37304.92      -36966.595    
     94900   316.34246     -2939.0706     -37272.59      -36929.354    
     95000   304.62084     -2963.61       -37259.009     -36928.49     
     95100   334.47022     -10597.129     -37308.155     -36945.25     
     95200   314.78715      397.57518     -37306.587     -36965.038    
     95300   295.78543      1601.3947     -37283.963     -36963.032    
     95400   279.75415     -3604.9234     -37254.51      -36950.972    
     95500   294.00947      741.39533     -37260.154     -36941.149    
     95600   294.21591     -2370.3544     -37290.307     -36971.079    
     95700   303.3227      -9486.3607     -37326.785     -36997.675    
     95800   291.31593     -404.33861     -37301.774     -36985.692    
     95900   319.9458      -3374.865      -37301.839     -36954.693    
     96000   288.36902      1729.6659     -37254.117     -36941.232    
     96100   293.1401      -3231.066      -37261.912     -36943.85     
     96200   301.03177     -3291.7463     -37293.963     -36967.339    
     96300   271.71955     -1296.3299     -37285.359     -36990.539    
     96400   294.64915      761.13293     -37292.906     -36973.207    
     96500   296.00511      1986.5886     -37279.107     -36957.937    
     96600   301.10336     -2525.3085     -37276.261     -36949.559    
     96700   296.2888      -8618.3785     -37275.461     -36953.983    
     96800   288.17524      661.08212     -37270.254     -36957.58     
     96900   303.35521      5655.0436     -37277.325     -36948.18     
     97000   293.12994      2553.8388     -37250.031     -36931.981    
     97100   303.86265     -4334.6429     -37266.243     -36936.548    
     97200   294.21149     -2417.1693     -37284.971     -36965.747    
     97300   305.96333     -1772.0413     -37306.729     -36974.755    
     97400   305.63885      7609.5276     -37299.865     -36968.242    
     97500   304.0979      -2260.681      -37258.155     -36928.205    
     97600   338.56167     -3374.2007     -37284.554     -36917.209    
     97700   315.34586     -12210.175     -37281.16      -36939.005    
     97800   297.25739     -12074.545     -37275.552     -36953.023    
     97900   303.9049      -5937.1853     -37300.36      -36970.619    
     98000   278.33481      3851.1035     -37284.391     -36982.394    
     98100   313.30708      2912.7507     -37300.663     -36960.72     
     98200   309.5677      -196.95816     -37266.187     -36930.301    
     98300   308.34193      2595.163      -37275.355     -36940.799    
     98400   292.65984     -9517.4032     -37280.202     -36962.662    
     98500   294.38375     -7146.7057     -37288.572     -36969.162    
     98600   301.38622     -1454.3376     -37284.379     -36957.371    
     98700   302.74987     -2798.9815     -37254.984     -36926.495    
     98800   306.75833     -1218.797      -37257.566     -36924.728    
     98900   314.04369     -10650.73      -37292.295     -36951.553    
     99000   284.05302     -18707.391     -37277.259     -36969.057    
     99100   289.10899     -13105.429     -37281.278     -36967.59     
     99200   284.27873     -1512.2495     -37270.053     -36961.606    
     99300   327.26465     -6913.5593     -37291.054     -36935.967    
     99400   328.54699      2017.2533     -37264.886     -36908.408    
     99500   294.90538     -3396.1418     -37254.925     -36934.948    
     99600   318.04978     -2644.9782     -37300.615     -36955.526    
     99700   307.91443     -11454.716     -37299.239     -36965.147    
     99800   300.64834     -7190.3191     -37292.374     -36966.166    
     99900   291.25639      1765.751      -37275.972     -36959.954    
    100000   307.93885     -6953.3719     -37271.55      -36937.432    
    100100   334.22994     -15506.221     -37283.767     -36921.123    
    100200   307.23149     -880.44461     -37257.769     -36924.418    
    100300   292.39175     -3471.0267     -37281.656     -36964.407    
    100400   304.99646      3634.6101     -37307.231     -36976.305    
    100500   293.92528      2305.4407     -37292.186     -36973.273    
    100600   331.55077     -208.5276      -37308.525     -36948.787    
    100700   306.17034     -8055.3087     -37262.335     -36930.136    
    100800   300.67175     -2750.776      -37266.006     -36939.773    
    100900   302.52046     -2631.3892     -37281.423     -36953.184    
    101000   310.4613       1473.5224     -37298.957     -36962.101    
    101100   297.40121     -8319.0592     -37288.873     -36966.188    
    101200   306.82152     -7984.7501     -37290.004     -36957.098    
    101300   288.1601      -6883.1499     -37244.724     -36932.066    
    101400   325.3778       7223.8558     -37278.123     -36925.083    
    101500   299.55647     -6641.853      -37286.842     -36961.819    
    101600   296.98072      3455.8277     -37298.063     -36975.835    
    101700   296.93032     -4552.4469     -37290.014     -36967.84     
    101800   299.82        -11084.459     -37273.866     -36948.557    
    101900   323.76645      1004.7994     -37279.727     -36928.436    
    102000   306.37727      1236.121      -37277.986     -36945.562    
    102100   295.05095     -2246.5815     -37305.381     -36985.246    
    102200   284.45224      5070.5022     -37289.577     -36980.942    
    102300   291.35206     -1796.8762     -37275.287     -36959.166    
    102400   303.85307     -2684.6886     -37277.868     -36948.183    
    102500   312.56257     -6345.4308     -37296.262     -36957.127    
    102600   294.30768     -6559.6128     -37313.201     -36993.873    
    102700   292.10422     -6542.8303     -37309.201     -36992.264    
    102800   289.83321     -6455.2039     -37282.391     -36967.918    
    102900   290.49171     -2130.2677     -37265.777     -36950.589    
    103000   303.68678     -9253.6314     -37275.229     -36945.724    
    103100   308.6425       17517.948     -37290.701     -36955.819    
    103200   314.48797     -5007.5429     -37325.874     -36984.65     
    103300   280.09027     -6566.1685     -37314.39      -37010.487    
    103400   271.7435      -10919.321     -37289.142     -36994.296    
    103500   282.40027     -12725.414     -37273.642     -36967.234    
    103600   290.57312     -5600.4305     -37270.521     -36955.245    
    103700   316.87159     -3197.0115     -37294.924     -36951.114    
    103800   315.80835     -1107.6319     -37290.481     -36947.824    
[...]
    174300   312.55224     -1996.216      -37428.873     -37089.749    
    174400   304.99424     -1781.6254     -37413.529     -37082.606    
    174500   316.67273     -5031.2045     -37430.252     -37086.658    
    174600   287.52447      1175.5271     -37405.105     -37093.137    
    174700   287.05674     -2595.561      -37415.026     -37103.565    
    174800   311.57802     -266.79932     -37453.297     -37115.23     
    174900   286.54514     -160.03929     -37428.87      -37117.965    
    175000   286.91898     -1310.933      -37394.418     -37083.106    
    175100   308.84825     -13878.067     -37403.525     -37068.42     
    175200   298.47517     -17701.923     -37398.406     -37074.556    
    175300   295.29708     -3172.5914     -37414.46      -37094.059    
    175400   280.28694     -9088.6583     -37427.855     -37123.739    
    175500   290.34425     -2224.2594     -37445.045     -37130.017    
    175600   293.99619     -6184.4123     -37425.994     -37107.004    
    175700   299.11711     -14329.902     -37422.831     -37098.284    
    175800   305.03859     -6111.5012     -37410.78      -37079.808    
    175900   313.63031     -11874.189     -37397.505     -37057.212    
    176000   321.05652     -2570.0959     -37404.579     -37056.227    
    176100   297.77525     -568.25973     -37404.167     -37081.076    
    176200   291.56827     -15649.361     -37426.791     -37110.435    
    176300   277.84951     -991.01794     -37408.857     -37107.386    
    176400   293.97389     -212.88661     -37411.152     -37092.186    
    176500   313.58248     -207.0766      -37422.04      -37081.799    
    176600   303.44241      1018.8266     -37403.575     -37074.336    
    176700   321.06663     -1194.5349     -37427.028     -37078.666    
    176800   289.01552      3745.0966     -37418.161     -37104.574    
    176900   279.29477     -9465.3965     -37413.022     -37109.983    
    177000   310.59381     -2116.0065     -37427.243     -37090.244    
    177100   307.58925     -844.1979      -37401.839     -37068.1      
    177200   307.58074     -8737.1888     -37390.845     -37057.115    
    177300   311.71225     -7553.2354     -37407.931     -37069.718    
    177400   277.38582     -8667.4376     -37411.437     -37110.469    
    177500   285.65986     -2987.0098     -37421.067     -37111.122    
    177600   287.36907     -1607.5598     -37403.677     -37091.878    
    177700   305.16995     -15906.098     -37399.083     -37067.969    
    177800   305.1189       3699.6111     -37401.102     -37070.044    
    177900   306.60714     -5172.6758     -37412.974     -37080.301    
    178000   293.15821     -683.50656     -37402.16      -37084.079    
    178100   289.3775       14053.942     -37397.843     -37083.864    
    178200   310.89715      5334.5009     -37422.668     -37085.34     
    178300   289.50954      10055.358     -37407.821     -37093.699    
    178400   301.48388      2729.9846     -37426.812     -37099.698    
    178500   301.01661     -2318.4332     -37399.432     -37072.825    
    178600   303.92535     -284.31946     -37384.187     -37054.424    
    178700   305.82222      3571.8959     -37394.899     -37063.078    
    178800   288.61283     -29.852576     -37407.617     -37094.468    
    178900   284.2032      -2802.9931     -37409.433     -37101.068    
    179000   294.9506      -4354.4393     -37415.082     -37095.056    
    179100   302.00839     -5322.9593     -37405.359     -37077.676    
    179200   301.0438      -4463.2315     -37393.427     -37066.79     
    179300   313.82801     -4137.4517     -37416.716     -37076.208    
    179400   286.5362       2560.761      -37428.757     -37117.861    
    179500   282.63512      8422.9339     -37430.456     -37123.793    
    179600   320.92835     -6136.7305     -37448.933     -37100.721    
    179700   299.7334       3626.7533     -37407.136     -37081.921    
    179800   295.57695      11125.829     -37400.135     -37079.429    
    179900   299.93216     -418.65569     -37405.312     -37079.882    
    180000   315.23041     -4869.0468     -37411.468     -37069.439    
    180100   299.88584      453.41961     -37375.296     -37049.916    
    180200   321.93817      3688.5443     -37396.196     -37046.889    
    180300   289.26913     -4017.4919     -37391.987     -37078.126    
    180400   298.94325      8643.112      -37415.866     -37091.509    
    180500   317.6917       5737.1625     -37441.211     -37096.511    
    180600   307.32257     -15722.275     -37406.19      -37072.741    
    180700   308.08415     -4367.5896     -37385.929     -37051.653    
    180800   301.74788     -5321.6799     -37384.01      -37056.609    
    180900   285.81639     -4279.9106     -37403.799     -37093.684    
    181000   284.54109     -3268.4069     -37408.157     -37099.425    
    181100   294.11611      2103.122      -37398.551     -37079.431    
    181200   308.7482      -5949.036      -37394.451     -37059.454    
    181300   293.51628     -8963.0225     -37379.858     -37061.389    
    181400   304.47077     -1571.5999     -37393.42      -37063.064    
    181500   298.69859     -3636.2005     -37409.05      -37084.957    
    181600   281.81481     -7909.0221     -37429.647     -37123.873    
    181700   292.07555     -8539.2887     -37440.605     -37123.699    
    181800   304.7718       3868.1419     -37431.615     -37100.933    
    181900   284.21062     -5137.4207     -37390.191     -37081.818    
    182000   308.738       -115.72599     -37405.303     -37070.317    
    182100   314.35108      1853.4026     -37410.881     -37069.806    
    182200   287.33131     -11655.828     -37418.016     -37106.258    
    182300   281.37069     -9521.2416     -37423.046     -37117.755    
    182400   290.99126      4551.6014     -37420.191     -37104.462    
    182500   294.55091     -9074.917      -37398.124     -37078.532    
    182600   304.52906     -1935.8732     -37412.743     -37082.325    
    182700   303.93707     -6043.3073     -37413.971     -37084.195    
    182800   300.99727     -8681.7045     -37416.996     -37090.41     
    182900   279.02049     -1348.9907     -37413.701     -37110.959    
    183000   277.00521     -9050.8226     -37441.027     -37140.472    
    183100   275.91808     -8515.4783     -37419.976     -37120.601    
    183200   297.40015      5643.72       -37422.172     -37099.488    
    183300   311.39478      1821.9515     -37418.15      -37080.282    
    183400   315.62199     -1660.7897     -37414.83      -37072.376    
    183500   301.48687     -1975.1658     -37403.818     -37076.7      
    183600   294.10248     -7377.1315     -37417.068     -37097.962    
    183700   285.30006     -5939.13       -37420.959     -37111.405    
    183800   287.75844     -11212.874     -37405.601     -37093.379    
    183900   322.08698      3352.5431     -37413.892     -37064.423    
    184000   302.79618     -6320.3413     -37400.252     -37071.713    
    184100   298.21214     -3487.6377     -37420.064     -37096.499    
    184200   296.32642     -12237.03      -37421.537     -37100.018    
    184300   294.97417      1927.7457     -37415.234     -37095.183    
    184400   286.34629     -5984.131      -37385.113     -37074.423    
    184500   306.04847      1030.2918     -37380.522     -37048.455    
    184600   309.49178     -4623.8514     -37412.063     -37076.26     
    184700   293.41866      1159.2214     -37424.126     -37105.763    
    184800   289.91423     -3548.2429     -37411.503     -37096.942    
    184900   305.19383      9137.1045     -37403.331     -37072.191    
    185000   305.61959      1021.3186     -37402.126     -37070.525    
    185100   295.23671     -6896.3945     -37411.174     -37090.837    
    185200   290.46121     -4037.1499     -37433.979     -37118.824    
    185300   280.32814     -731.41407     -37425.404     -37121.244    
    185400   286.20265     -2184.3402     -37420.001     -37109.466    
    185500   301.96183      839.16009     -37427.581     -37099.948    
    185600   283.89262     -9495.3333     -37396.777     -37088.749    
    185700   295.07143     -2341.7701     -37391.364     -37071.207    
    185800   311.17147     -12064.38      -37403.561     -37065.935    
    185900   281.57343      10090.248     -37395.696     -37090.185    
    186000   303.79847      8052.6412     -37440.079     -37110.453    
    186100   285.29217      1647.4627     -37416.266     -37106.719    
    186200   324.94984      5669.0315     -37433.428     -37080.852    
    186300   298.03997     -2700.3742     -37387.1       -37063.722    
    186400   323.6996       4617.5795     -37417.364     -37066.145    
    186500   282.98745     -11600.623     -37390.134     -37083.088    
    186600   296.39397      1578.0657     -37409.746     -37088.154    
    186700   311.26202      3685.7783     -37431.746     -37094.022    
    186800   286.51854     -8423.498      -37410.585     -37099.708    
    186900   311.29239     -4839.2748     -37415.305     -37077.548    
    187000   309.78063      7482.4818     -37387.101     -37050.984    
    187100   306.12868      3556.0712     -37392.097     -37059.943    
    187200   311.98785     -6635.6017     -37425.767     -37087.255    
    187300   278.92209     -6337.0685     -37406.403     -37103.768    
    187400   299.54627     -16504.289     -37425.576     -37100.564    
    187500   308.66344     -3536.8655     -37421.153     -37086.248    
    187600   298.1348      -6931.6226     -37403.717     -37080.237    
    187700   308.21663     -2376.4481     -37423.041     -37088.622    
    187800   277.14014      3504.8472     -37401.532     -37100.831    
    187900   293.46649     -5763.6771     -37426.821     -37108.406    
    188000   292.50857     -5532.8923     -37407.816     -37090.44     
    188100   308.84602     -6848.5224     -37399.86      -37064.757    
    188200   311.63531     -4405.8882     -37405.67      -37067.541    
    188300   286.21579     -3091.1286     -37396.389     -37085.841    
    188400   295.85303     -7795.6044     -37420.82      -37099.815    
    188500   300.28817     -1332.4691     -37427.582     -37101.764    
    188600   301.41866      3981.3843     -37401.014     -37073.97     
    188700   312.61104     -3415.8095     -37392.792     -37053.604    
    188800   310.84336     -1224.7547     -37417.698     -37080.428    
    188900   300.23607      4942.1956     -37427.808     -37102.047    
    189000   290.56113     -3254.1857     -37419.698     -37104.435    
    189100   314.93785     -4998.9819     -37429.687     -37087.975    
    189200   314.12865      10771.173     -37407.765     -37066.93     
    189300   311.59855     -1493.0143     -37413.33      -37075.241    
    189400   285.14482     -208.91897     -37418.926     -37109.54     
    189500   299.78663     -2593.775      -37439.972     -37114.699    
    189600   298.54384      342.34676     -37423.353     -37099.428    
    189700   315.52415     -1110.4191     -37411.495     -37069.146    
    189800   306.20789     -882.56414     -37393.355     -37061.115    
    189900   320.22606      1192.091      -37424.073     -37076.623    
    190000   287.23764      5471.9554     -37407.154     -37095.497    
    190100   302.94678      1164.2115     -37428.635     -37099.933    
    190200   299.01743     -5554.1545     -37414.012     -37089.574    
    190300   308.53344      16337.494     -37387.166     -37052.403    
    190400   321.80636      2961.659      -37391.251     -37042.086    
    190500   299.9089      -4337.6833     -37385.152     -37059.747    
    190600   290.26988     -6096.1887     -37402.46      -37087.513    
    190700   302.83244      1426.251      -37420.141     -37091.563    
    190800   285.17908     -8328.0275     -37403.945     -37094.522    
    190900   308.44404      2500.5243     -37433.539     -37098.873    
    191000   284.72633      3167.3089     -37422.872     -37113.94     
    191100   300.90649     -8171.1201     -37439.579     -37113.091    
    191200   313.19779     -9316.3131     -37426.385     -37086.561    
    191300   308.33471      4394.9622     -37404.621     -37070.074    
    191400   311.20452      1590.5186     -37409.957     -37072.296    
    191500   302.8188      -9095.2436     -37439.28      -37110.717    
    191600   302.66156     -52.662149     -37455.068     -37126.676    
    191700   291.84896     -3806.8155     -37427.918     -37111.257    
    191800   282.93311     -2407.3195     -37392.754     -37085.767    
    191900   309.80604      7180.3318     -37414.309     -37078.165    
    192000   283.91967     -8802.4517     -37399.035     -37090.978    
    192100   295.98874     -5853.4119     -37429.023     -37107.871    
    192200   298.2822      -5566.3808     -37437.403     -37113.763    
    192300   298.47777      7024.2276     -37437.065     -37113.212    
    192400   290.113        48.130792     -37409.48      -37094.703    
    192500   296.66218      1085.6168     -37391.693     -37069.81     
    192600   327.48107     -114.24411     -37409.889     -37054.568    
    192700   295.9795      -15005.118     -37396.491     -37075.349    
    192800   279.65237     -5042.1856     -37399.22      -37095.793    
    192900   323.68058     -6642.7329     -37445.241     -37094.043    
    193000   293.38992     -2376.7016     -37413.007     -37094.674    
    193100   301.61018     -5206.3134     -37421.86      -37094.609    
    193200   282.11398      1074.5539     -37398.685     -37092.587    
    193300   310.47319     -6518.1977     -37422.107     -37085.239    
    193400   306.8608      -4428.5319     -37417.702     -37084.753    
    193500   288.59773     -12356.687     -37409.82      -37096.687    
    193600   294.76409      6435.6961     -37424.968     -37105.144    
    193700   296.01496      7074.3797     -37426.713     -37105.533    
    193800   301.39237     -1306.4711     -37410.268     -37083.253    
    193900   325.78921     -15697.66      -37415.214     -37061.728    
    194000   312.81652     -11533.463     -37407.437     -37068.027    
    194100   279.55556      3031.5128     -37397.222     -37093.9      
    194200   288.05134     -674.70779     -37436.618     -37124.078    
    194300   291.59594     -16335.433     -37433.073     -37116.687    
    194400   293.92937     -10708.949     -37418.918     -37100        
    194500   314.96561     -4030.2758     -37431.828     -37090.086    
    194600   289.27399     -2469.086      -37398.375     -37084.509    
    194700   303.16881      3803.8307     -37418.498     -37089.555    
    194800   281.50262     -7997.8052     -37422.112     -37116.677    
    194900   281.1317       2169.9509     -37419.548     -37114.516    
    195000   311.09157      298.64971     -37423.82      -37086.281    
    195100   310.74774      4341.1031     -37410.677     -37073.511    
    195200   305.59961     -4921.0226     -37405.487     -37073.907    
    195300   281.35175     -692.13454     -37401.485     -37096.214    
    195400   268.75756     -10471.961     -37423.039     -37131.433    
    195500   278.45843     -4911.9215     -37427.081     -37124.949    
    195600   294.06255      710.15748     -37421.054     -37101.992    
    195700   309.5456       6272.0908     -37423.78      -37087.919    
    195800   296.90919     -4897.6326     -37402.403     -37080.252    
    195900   302.99921      118.42335     -37429.919     -37101.16     
    196000   289.48262     -1732.9296     -37436.422     -37122.329    
    196100   295.17245     -1925.2792     -37433.691     -37113.425    
    196200   305.03749     -11285.829     -37409.622     -37078.652    
    196300   309.50431     -5750.2095     -37410.135     -37074.318    
    196400   295.6145      -4036.6141     -37396.911     -37076.165    
    196500   286.96148     -13745.101     -37412.663     -37101.306    
    196600   291.26041     -14062.351     -37429.968     -37113.946    
    196700   300.99384      3906.3188     -37425.997     -37099.414    
    196800   300.73699     -51.04208      -37388.635     -37062.331    
    196900   294.23509     -6235.5226     -37380.893     -37061.644    
    197000   331.56209     -7244.9319     -37440.064     -37080.314    
    197100   286.44702     -9532.0272     -37415.593     -37104.793    
    197200   272.53682     -4630.3733     -37401.622     -37105.916    
    197300   296.99806     -7933.8249     -37412.296     -37090.049    
    197400   303.88469     -3900.3584     -37393.092     -37063.373    
    197500   314.57631     -7412.1672     -37396.734     -37055.414    
    197600   291.88109     -8005.4678     -37418.077     -37101.382    
    197700   292.94434     -1416.6472     -37428.965     -37111.116    
    197800   311.22246      2232.857      -37433.839     -37096.158    
    197900   307.59029     -1043.21       -37411.719     -37077.979    
    198000   310.01734     -4900.7183     -37400.415     -37064.041    
    198100   317.67616      2413.3573     -37391.082     -37046.399    
    198200   312.12148     -6587.0277     -37401.738     -37063.082    
    198300   310.2831       4460.9187     -37432.824     -37096.162    
    198400   293.79986     -2181.2837     -37422.725     -37103.947    
    198500   285.4487      -5636.4641     -37405.844     -37096.128    
    198600   302.20998     -5081.2592     -37395.411     -37067.508    
    198700   308.00182     -11848.675     -37388.02      -37053.834    
    198800   302.78441     -3589.6608     -37398.52      -37069.994    
    198900   279.74842     -7015.1268     -37409.382     -37105.85     
    199000   296.56972     -5817.3932     -37424.636     -37102.854    
    199100   281.84775     -6338.9896     -37393.485     -37087.676    
    199200   309.09783      10900.209     -37401.577     -37066.201    
    199300   309.85545     -4408.8649     -37400.625     -37064.427    
    199400   280.28466      8833.1899     -37411.774     -37107.661    
    199500   295.11382     -9904.8917     -37431.77      -37111.567    
    199600   304.23163      2255.2768     -37427.123     -37097.028    
    199700   286.63465     -4526.0565     -37383.168     -37072.166    
    199800   317.90668      5378.1086     -37405.31      -37060.377    
    199900   306.71436     -2299.5221     -37405.852     -37073.062    
    200000   294.34809      1263.2197     -37409.389     -37090.017    
Loop time of 15987.9 on 8 procs for 200000 steps with 365 atoms

Performance: 0.540 ns/day, 44.411 hours/ns, 12.509 timesteps/s, 4.566 katom-step/s
82.8% CPU use with 4 MPI tasks x 2 OpenMP threads

MPI task timing breakdown:
Section |  min time  |  avg time  |  max time  |%varavg| %total
---------------------------------------------------------------
Pair    | 8873.8     | 9171.6     | 9417.1     | 223.2 | 57.37
Bond    | 0.70243    | 0.73907    | 0.78886    |   4.2 |  0.00
Neigh   | 161.67     | 163.66     | 166.38     |  14.8 |  1.02
Comm    | 3641.5     | 3901.4     | 4210.8     | 350.4 | 24.40
Output  | 6.3671     | 8.3894     | 10.878     |  63.6 |  0.05
Modify  | 2690.4     | 2702.3     | 2714.9     |  19.2 | 16.90
Other   |            | 39.85      |            |       |  0.25

Nlocal:          91.25 ave         103 max          82 min
Histogram: 1 1 0 0 0 0 1 0 0 1
Nghost:         3476.5 ave        3495 max        3457 min
Histogram: 1 0 1 0 0 0 0 0 1 1
Neighs:        48410.5 ave       54103 max       43912 min
Histogram: 1 1 0 0 0 0 1 0 0 1

Total # of neighbors = 193642
Ave neighs/atom = 530.52603
Ave special neighs/atom = 0
Neighbor list builds = 4052
Dangerous builds = 6
System init for write_data ...
WARNING: Compute rdf cutoff less than neighbor cutoff - forcing a needless neighbor list build (src/compute_rdf.cpp:179)
Total wall time: 4:26:34
