ITEM: TIMESTEP
0
ITEM: NUMBER OF ATOMS
365
ITEM: BOX BOUNDS xy xz yz pp pp pp
-6.9345999999999997e+00 1.9702400000000001e+01 -6.9345999999999997e+00
0.0000000000000000e+00 1.5863300000000001e+01 2.0880000000000001e+00
0.0000000000000000e+00 1.7464200000000002e+01 8.7949999999999995e-01
ITEM: ATOMS id type q x y z
1 4 1.08248 3.16358 0.8819 3.02329
2 4 1.06088 1.97124 2.65114 0.816204
4 4 0.717904 2.45531 3.78188 5.8028
8 4 0.254846 -0.493493 4.25067 1.22076
10 4 1.14016 1.98203 4.87117 8.55453
68 1 -0.116932 -0.169943 6.68683 6.73346
78 1 -0.104871 1.77891 6.5905 2.55891
102 3 -0.765046 2.73857 2.20381 2.16798
105 3 -0.668995 1.11444 4.02287 0.998073
107 3 -0.701517 2.136 4.90901 6.94231
108 3 -0.671518 -1.30221 6.98377 3.94375
191 2 -9.44545e-05 1.23004 3.95487 4.58143
192 2 0.0113315 2.05641 2.19421 6.38662
193 2 -0.0220174 0.798457 1.36694 0.617774
206 2 0.0726652 -0.787522 5.78543 2.29972
222 2 0.0468182 -0.752767 2.58244 2.8491
223 2 0.0496512 -2.48647 5.48685 0.171953
224 2 0.0664399 0.263443 5.82871 6.24588
225 2 0.0141848 -1.13993 6.52114 7.17184
226 2 0.0732536 0.520825 7.26391 7.32959
252 2 0.0642299 1.62511 5.71588 3.17203
253 2 0.0614453 2.60555 6.52634 1.87577
254 2 0.0434098 0.882684 7.01253 2.13646
342 2 0.0434172 -1.09776 4.66814 4.66864
343 2 0.0195783 -0.329072 3.48058 6.89719
257 2 0.0683167 4.93129 6.30398 1.63919
256 2 0.0724266 3.9887 4.75155 1.81889
21 4 1.42319 5.00422 2.64396 4.70783
22 4 1.48753 6.74303 2.17556 0.433
25 4 0.744106 7.1148 3.08612 6.7744
29 4 1.16217 6.4054 4.42204 2.57558
32 4 1.58288 5.87472 5.69438 8.15707
34 4 1.63018 4.83347 7.45866 5.76207
74 1 -0.0943548 7.99798 0.806195 4.14779
79 1 -0.0952507 4.64719 5.47565 2.27442
119 3 -0.776909 4.28238 1.26955 4.13989
120 3 -0.719489 3.9159 3.79813 5.1123
121 3 -0.749337 7.06876 0.825457 1.32303
123 3 -0.7281 5.96435 2.21361 6.03524
129 3 -0.821244 6.08815 3.25533 3.63371
130 3 -0.8129 6.85588 3.65565 1.21366
133 3 -0.756159 6.55645 4.44007 7.40811
135 3 -0.809363 3.49149 7.30442 4.84765
136 3 -0.803619 4.8829 6.43147 7.0461
204 2 0.0408766 7.75437 2.12135 8.03946
240 2 0.0742901 7.92084 1.82324 3.79862
241 2 0.0382091 8.98804 0.491769 4.44333
242 2 0.110137 7.21169 0.506178 4.82736
255 2 0.111116 4.35925 5.77427 3.27513
3 4 1.09451 1.73631 2.31787 10.0643
7 4 1.43565 3.49529 3.07311 12.3829
12 4 1.04657 1.68858 5.03339 13.8254
13 4 0.64877 1.14326 7.87151 12.9686
33 4 1.19778 2.75173 7.68146 9.34237
67 1 -0.0923955 0.451179 5.94745 17.1213
69 1 -0.116142 3.13086 5.61527 15.1397
103 3 -0.781479 2.7601 2.03162 11.2806
104 3 -0.782126 3.71109 2.21136 13.8005
106 3 -0.785938 2.38466 3.39178 9.06042
109 3 -0.620645 1.00895 3.89847 14.8283
110 3 -0.789711 2.52547 4.39872 12.6068
111 3 -0.708777 0.819311 6.35169 13.4715
134 3 -0.795315 2.4077 6.12345 9.47028
190 2 -0.0232844 1.6702 0.86444 9.14952
195 2 -0.019289 0.232874 4.90184 8.80181
227 2 0.014107 3.09257 6.69017 15.092
228 2 0.0537933 4.0002 5.15082 14.7061
229 2 0.0818151 2.81165 5.17777 16.0748
261 2 0.0236386 2.79536 7.7912 17.2466
330 1 0.12863 1.50594 3.0067 15.8352
331 2 0.155229 2.40408 2.4383 15.6116
332 2 0.045012 1.04704 2.95596 16.8141
345 2 0.133789 -0.346706 4.58732 11.8914
353 2 0.0899232 0.224195 5.09299 16.497
354 2 0.0453428 1.08946 6.67568 16.6488
208 2 0.000835116 2.69212 8.03783 12.1985
265 2 0.00561564 4.74234 7.10801 13.3851
5 4 1.05904 4.48775 0.972583 14.5256
24 4 1.20535 5.71555 3.61386 10.4193
264 2 0.122104 4.33052 6.08789 11.9338
27 4 1.1131 6.14597 2.89963 16.2131
28 4 1.19427 8.50451 2.59174 11.1958
77 1 -0.112863 6.87517 4.20791 14.6524
80 1 -0.114738 5.56712 6.63897 16.7348
82 1 -0.109485 5.06169 6.70754 12.4376
122 3 -0.839876 4.99786 3.4867 11.8429
124 3 -0.731084 5.6861 1.48818 15.5259
125 3 -0.790976 7.29454 2.80877 17.358
126 3 -0.773524 4.8339 3.6096 16.8602
127 3 -0.822558 7.24063 3.18782 10.4418
128 3 -0.825329 8.4383 1.53458 12.4174
132 3 -0.788209 5.42006 5.00295 9.61676
203 2 0.0187473 5.02618 2.39603 9.42883
216 2 -0.0191383 6.65341 7.3664 14.2062
249 2 0.068401 7.63107 3.62331 14.1511
250 2 0.0254027 7.25293 5.03953 15.2239
251 2 0.0636255 6.00413 4.41899 14.0514
258 2 0.020037 5.36464 6.41265 15.7049
259 2 0.0889127 4.88607 6.17483 17.4313
260 2 0.0368769 6.60705 6.56749 17.0063
263 2 0.056872 6.06529 6.31328 12.4079
11 4 0.998111 -0.540838 7.97647 5.03977
14 4 0.718609 -5.04992 13.4513 4.19207
15 4 0.692723 -1.87098 9.94774 6.94136
17 4 1.07978 -2.60858 12.7192 5.97316
72 1 -0.125666 -3.13856 14.3408 7.34503
113 3 -0.67655 -1.56201 9.17589 5.54194
114 3 -0.723817 -3.74353 12.7714 4.82882
115 3 -0.720749 -2.63226 11.372 6.88821
141 3 -0.769189 -1.13063 13.0361 5.33015
194 2 0.0220675 -2.69625 7.75308 1.74969
209 2 0.0304513 -0.919766 11.0529 3.49526
235 2 0.0119877 -2.71951 14.0529 8.29447
236 2 0.0352275 -4.2165 14.3238 7.30638
244 2 0.0276317 -0.537655 12.7818 8.07582
245 2 0.0885176 -0.429682 14.3628 7.19278
327 1 -0.0844859 -2.99477 14.4206 1.63442
328 2 0.0390751 -3.84297 14.2936 0.976312
329 2 0.072554 -2.78759 13.5786 2.27943
357 2 0.0238482 -4.18069 11.6926 0.496124
112 3 -0.705823 -5.00623 15.0102 3.69042
356 2 0.0857522 -2.67431 15.1917 6.8703
349 2 0.137527 -2.12502 14.8728 1.17766
37 4 1.14973 -0.219981 12.5328 4.0911
71 1 -0.116777 -0.124774 10.1276 8.01528
23 4 0.67813 1.78758 13.7091 8.18578
30 4 1.15619 2.39506 8.08045 3.9381
36 4 1.09091 3.60472 9.66815 1.6243
39 4 1.43871 3.54308 9.81994 7.30997
40 4 1.52233 2.49555 12.2491 5.57394
75 1 -0.120666 -0.239128 13.8158 8.10334
131 3 -0.722854 0.964585 8.48174 4.61317
138 3 -0.756716 3.00693 9.32595 3.09062
139 3 -0.736106 3.72509 8.31596 0.763672
140 3 -0.72686 -0.267434 13.4846 2.77928
142 3 -0.71192 3.07899 11.0003 0.886817
143 3 -0.758084 2.56802 8.47696 7.95541
144 3 -0.818264 4.7179 8.99438 6.37845
145 3 -0.812994 1.26599 12.1618 4.52818
146 3 -0.852918 2.62842 10.8667 6.44702
147 3 -0.746254 2.38989 13.5771 6.68665
181 3 -0.764383 4.03289 10.638 8.6043
232 2 0.115212 0.598462 10.4924 7.29558
233 2 0.0251617 0.0627028 9.12628 8.36678
359 2 0.0195651 0.729652 8.70152 0.0466772
337 2 0.121267 2.40866 13.9787 0.733596
338 2 0.148701 2.74862 13.2127 2.34793
20 4 0.711153 0.676057 14.7585 2.42479
16 4 0.236611 -3.43843 12.0835 10.4671
18 4 0.994671 -0.134284 10.234 14.3977
19 4 0.62738 -1.96979 9.9858 11.9788
73 1 -0.117138 -0.85797 9.39823 16.2678
117 3 -0.585554 -3.22453 10.9511 11.6153
118 3 -0.691397 -1.49205 10.1048 13.5128
149 3 -0.71486 0.209703 11.8302 14.5271
196 2 -0.0257473 0.122026 8.19881 11.606
198 2 -0.00276205 -1.8922 12.552 9.81709
199 2 0.0403531 -4.19081 13.4652 11.2279
200 2 -0.0342632 -0.646532 10.2584 10.9046
234 2 0.00771022 -0.394379 10.8247 8.78852
237 2 0.0131467 -0.107049 9.67115 16.9909
239 2 0.0454194 -1.82762 9.84943 16.4091
243 2 0.0266547 -0.493517 14.3472 9.00822
266 2 0.0879156 0.369092 12.5094 12.2388
267 2 0.0141062 0.761584 11.9429 10.5577
268 2 0.0511079 0.558589 13.7218 10.8936
320 4 0.34987 -3.10565 13.3277 15.7205
321 1 -0.114405 -1.59334 12.7355 17.0196
323 3 -0.626913 -3.39743 14.9112 15.3836
324 2 0.035708 -1.19913 11.8455 16.5594
325 2 0.0581377 -0.914999 13.573 17.0065
326 2 0.128997 -3.21027 11.6244 14.0781
333 1 -0.0926797 -1.52766 14.7189 13.0125
334 2 0.0371873 -2.3675 14.4431 12.394
335 2 0.096246 -1.11004 13.9112 13.5982
238 2 0.0688586 -0.891141 8.34807 16.0181
358 2 0.093228 -0.798108 15.3593 12.54
31 4 0.59122 5.14962 8.68812 16.844
35 4 1.21764 5.19132 8.44467 11.1685
38 4 0.692197 4.50962 12.3296 16.9486
41 4 1.21586 4.5114 10.8569 13.0942
42 4 0.663773 1.28316 12.9753 14.9386
43 4 1.13761 2.92484 12.9001 11.6944
81 1 -0.143498 3.0481 8.7606 16.849
83 1 -0.118361 0.799717 12.7422 11.2756
116 3 -0.715085 1.0267 9.13814 13.9943
137 3 -0.788984 4.09533 8.11312 10.064
148 3 -0.805433 4.85209 9.80097 11.9548
150 3 -0.70096 1.22132 14.4453 14.199
151 3 -0.786588 3.15832 11.6595 12.7391
152 3 -0.740927 3.12622 14.3588 12.4588
154 3 -0.676215 2.24683 14.8037 9.25665
173 3 -0.650192 5.84328 9.4578 15.5521
182 3 -0.7423 3.76557 12.7493 10.3357
202 2 0.0404433 2.03281 12.1903 8.94426
207 2 -0.0502398 1.48597 8.40775 10.2549
341 2 0.00226592 3.02376 13.1106 17.3513
210 2 0.0117016 4.12318 9.90303 14.4872
211 2 0.0366689 2.89386 12.3635 14.7713
212 2 -0.0170688 3.92993 10.9536 16.0971
213 2 -0.00530152 1.15786 13.2508 16.6424
262 2 0.0492789 2.75373 8.91088 15.8227
26 4 1.3439 2.2896 15.455 13.3988
51 4 1.10024 11.1576 4.29454 1.44542
52 4 1.53498 7.53227 6.88909 4.0048
54 4 0.633961 11.5187 5.32294 6.65309
56 4 1.04363 10.4065 7.47965 4.97818
76 1 -0.122151 8.49705 3.50816 5.70865
89 1 -0.104782 9.83402 3.76344 2.95281
90 1 -0.133678 10.8891 1.75493 7.47867
91 1 -0.090129 10.3916 5.18412 8.3684
162 3 -0.820967 11.3635 2.87703 0.705232
164 3 -0.853131 7.42927 5.51931 3.1412
165 3 -0.883683 6.15002 7.24843 4.81514
166 3 -0.699111 10.5889 5.64731 0.769712
168 3 -0.813961 7.01828 6.81883 8.46608
170 3 -0.546064 11.093 7.60217 3.54304
171 3 -0.783878 8.90887 6.77896 4.96071
172 3 -0.67946 11.4711 6.8209 6.03306
176 3 -0.7318 8.34933 7.44839 0.584432
214 2 -0.00739416 10.891 4.26696 5.45949
246 2 0.109726 8.05387 3.95508 4.81806
247 2 0.000723293 9.04632 2.59692 5.499
248 2 0.0352565 9.07268 4.24296 6.26567
282 2 0.0134231 10.3745 3.02062 3.5201
283 2 0.0803577 8.99042 3.38048 2.39633
284 2 0.103745 9.66257 4.70282 3.45732
285 2 0.0545727 11.1345 0.869197 6.91425
286 2 0.0326134 11.7337 2.36344 7.76403
287 2 0.0161589 10.0477 2.30951 7.11112
290 2 0.0975068 9.40623 5.52694 8.08942
53 4 0.675863 9.30906 6.26005 0.00572981
289 2 0.0687756 10.4368 4.14443 8.65259
362 2 0.0590798 14.4104 0.170044 2.89279
9 4 0.411072 14.7909 7.03869 3.33329
47 4 0.278141 13.9714 4.08748 5.84176
66 1 -0.121556 16.2898 3.32142 2.3072
85 1 -0.105348 13.4928 2.10744 5.35266
163 3 -0.672339 12.5512 4.68609 2.17697
167 3 -0.595764 12.988 4.71252 6.98934
230 2 0.0365209 15.0099 7.7336 8.3348
270 2 0.0472817 13.3648 1.61725 6.30432
271 2 0.041935 14.3423 1.75585 4.78891
272 2 0.0365963 12.5854 2.20411 4.77628
339 3 -0.729479 12.3273 0.0427453 0.605477
351 2 0.0646818 13.8917 2.2621 1.44938
352 2 0.2617 12.9808 3.96696 2.65975
46 4 0.71613 10.1793 1.06905 9.31794
49 4 1.15748 10.9102 2.47387 15.6402
55 4 1.17294 7.69821 7.65898 9.6538
58 4 0.67195 9.73285 7.24939 11.7164
86 1 -0.121408 11.727 4.01763 14.4538
87 1 -0.0869548 12.0338 0.686977 10.2008
94 1 -0.119694 11.677 6.49103 11.3926
95 1 -0.143139 9.15987 6.38248 13.5287
155 3 -0.74694 9.60988 2.37147 10.0601
157 3 -0.702291 10.3607 1.34928 14.6343
158 3 -0.778822 12.0994 1.99608 16.6384
159 3 -0.812226 9.73833 3.15615 16.5177
174 3 -0.717562 8.7378 6.77166 10.5172
205 2 -0.00785909 9.28554 3.96781 11.9206
273 2 0.0229316 10.9615 4.21861 13.7258
274 2 0.085126 12.6313 3.59991 14.0349
275 2 0.0332069 11.8962 4.81682 15.1596
276 2 0.0743019 12.3321 1.6976 10.4339
279 2 0.0569633 12.3754 3.90684 10.1519
288 2 0.0564666 10.905 5.84767 9.04309
295 2 0.0271375 8.58258 7.39663 16.1886
297 2 0.0512306 12.0209 7.00923 10.5106
298 2 0.0295768 11.504 5.43516 11.2673
299 2 0.0298479 12.2017 6.75348 12.2975
300 2 0.0226827 9.38478 5.33861 13.428
301 2 0.0282436 8.1151 6.60414 13.5466
302 2 0.00520414 9.7613 6.90982 14.2503
346 2 0.0434839 10.3761 5.83823 16.9571
347 2 -0.00546457 12.0035 7.6879 15.9448
350 2 0.062521 17.1056 1.04035 16.5523
281 2 0.0407261 13.8145 4.94208 9.77138
6 4 0.736161 15.6312 2.46818 14.9631
45 4 1.34427 13.5741 2.44337 17.2201
48 4 1.09085 13.8078 0.970256 13.3577
50 4 0.32194 14.4529 3.14769 11.4908
88 1 -0.0966714 13.4112 3.94448 9.85553
153 3 -0.75019 14.4848 2.99292 15.9715
156 3 -0.726769 15.2063 1.11927 14.1555
160 3 -0.594091 17.8442 2.64261 10.4449
161 3 -0.693486 13.4539 2.17938 12.351
280 2 0.0558699 13.6602 3.29749 9.02889
44 4 1.13135 6.03629 13.7129 1.30252
60 4 1.09648 5.30562 12.5766 4.0722
61 4 1.04398 7.50541 11.251 0.30106
63 4 0.595231 7.57376 13.1426 6.0017
84 1 -0.104932 7.83331 14.4554 2.15241
98 1 -0.0897968 6.00273 10.5605 4.13314
175 3 -0.806269 7.93017 8.19883 3.11435
177 3 -0.754783 5.18796 13.154 2.56168
178 3 -0.79913 3.83758 12.5406 4.71918
179 3 -0.793856 7.51199 10.0208 1.33925
180 3 -0.761575 6.39576 12.4217 0.389116
184 3 -0.703317 6.30022 13.4398 5.02456
217 2 0.0587041 5.2969 10.0499 1.87669
218 2 0.00518017 4.80956 13.1409 7.94066
219 2 -0.0104617 7.4314 14.0984 7.44949
220 2 -0.0246072 7.51992 11.5415 6.68068
269 2 0.0774219 8.30501 13.575 2.55949
308 2 0.0549268 6.47046 10.493 5.10194
309 2 0.0972164 6.69042 10.4751 3.30164
310 2 0.109442 5.10045 9.97114 4.04769
59 4 1.08675 8.39833 8.67692 1.63905
336 1 -0.042125 2.54405 14.1227 1.79552
360 2 0.0761545 3.20499 14.9412 2.0405
361 2 0.0332394 8.35129 14.9009 1.32
70 1 -0.112787 14.6872 8.75767 8.28975
92 1 -0.11735 10.0939 9.48454 5.60183
96 1 -0.0928915 10.4905 9.16034 1.61103
97 1 -0.101757 11.7726 12.1037 2.83753
183 3 -0.517836 8.98146 13.3667 5.28256
291 2 0.0576781 11.0682 9.94373 5.52536
292 2 0.0335456 9.71302 9.38987 6.60516
293 2 0.0465481 9.37235 9.83251 4.88006
303 2 0.0365886 10.5565 10.0081 0.942895
304 2 0.109632 10.936 8.25485 1.22105
305 2 0.0880467 10.734 9.37119 2.64852
306 2 0.0561903 12.2307 11.1367 2.9817
307 2 0.054839 11.6229 12.5159 1.8554
355 2 0.0907852 11.6214 8.48574 7.83526
363 2 0.0817807 8.89054 11.4031 3.19054
340 3 -0.600478 8.95502 11.868 0.115947
57 4 0.600131 7.15734 8.89558 14.7473
62 4 0.758864 4.61129 11.992 9.20953
64 4 0.650374 9.18081 9.9023 12.8139
65 4 1.13844 5.97178 13.2294 14.4164
93 1 -0.114523 8.62365 8.46803 16.0808
99 1 -0.110947 6.58416 11.7551 9.77159
100 1 -0.107984 9.1175 11.6647 11.7633
101 1 -0.0896423 8.00691 12.6714 14.825
169 3 -0.778223 6.69366 8.51972 10.5675
185 3 -0.634961 7.7225 9.62275 13.4311
187 3 -0.782903 5.61075 11.9365 13.516
188 3 -0.753158 6.04448 14.5834 13.5029
189 3 -0.691847 5.28999 13.3055 15.9056
215 2 -0.00757141 8.62023 8.88634 8.82771
277 2 0.0112875 5.68838 15.2001 9.43059
278 2 0.145199 4.88754 15.0577 11.0657
294 2 0.0248439 9.53052 8.82958 15.6269
296 2 0.0950483 8.33578 9.00565 16.9732
311 2 0.0175832 7.06422 11.3862 8.87993
312 2 0.13092 6.53252 11.0349 10.5788
313 2 0.0184265 6.8923 12.7463 10.0659
314 2 0.0641941 8.10314 11.989 11.9306
315 2 0.0472138 9.33318 11.3672 10.7478
317 2 0.0365723 8.50805 12.8288 13.8876
318 2 0.0646807 7.81967 11.6397 15.0861
319 2 0.103135 8.30126 13.3324 15.6258
344 2 0.0501805 7.9155 14.1811 11.741
348 2 -0.0289663 9.2397 11.3661 16.2741
186 3 -0.666165 9.89016 8.84891 11.8279
197 2 0.0392491 13.1697 11.4077 9.21505
201 2 -0.000198391 15.184 8.35651 11.6589
221 2 -0.0257921 10.2956 10.1228 14.0863
231 2 0.0383349 14.3711 9.28903 9.17021
316 2 0.0268519 9.8774 12.2866 12.2093
322 1 -0.0631926 13.8218 12.0988 14.8553
365 2 0.0452021 10.8008 12.2403 14.4023
364 2 0.0439393 11.945 10.5746 15.4619
ITEM: TIMESTEP
100
ITEM: NUMBER OF ATOMS
365
ITEM: BOX BOUNDS xy xz yz pp pp pp
-6.9345999999999997e+00 1.9702400000000001e+01 -6.9345999999999997e+00
0.0000000000000000e+00 1.5863300000000001e+01 2.0880000000000001e+00
0.0000000000000000e+00 1.7464200000000002e+01 8.7949999999999995e-01
ITEM: ATOMS id type q x y z
1 4 1.08774 3.28846 0.957557 2.89579
2 4 1.03197 1.94302 2.722 0.737875
4 4 0.684384 2.37945 3.592 5.79507
8 4 0.270636 -0.599188 4.17554 1.14877
10 4 1.18461 2.01934 4.79887 8.50794
68 1 -0.119587 -0.482063 6.55695 6.59834
78 1 -0.104665 1.66993 6.78226 2.54642
102 3 -0.745004 2.76445 2.25561 2.10225
105 3 -0.655858 1.0204 4.06791 1.02357
107 3 -0.691151 2.19605 4.82714 6.90404
108 3 -0.657688 -1.28689 7.19296 3.84734
191 2 0.0129727 0.99021 3.67138 4.69814
192 2 0.0119017 2.24674 1.94272 6.53918
193 2 -0.0227162 0.869671 1.39072 0.401186
9 4 0.364391 -2.88206 7.32285 3.41937
255 2 0.128442 4.44917 5.78135 3.34957
223 2 0.0492121 -2.36448 5.88529 0.379292
224 2 0.0639087 0.112469 5.82921 6.14389
225 2 0.0272837 -1.47847 6.31677 6.83457
226 2 0.0547633 0.0604359 7.06374 7.34016
252 2 0.0853664 1.62397 5.77105 2.95511
253 2 0.0585992 2.39542 6.91227 1.77331
254 2 0.046339 0.685909 7.1316 2.32992
242 2 0.102573 7.35879 0.464516 4.95661
195 2 0.00101761 0.248933 4.71459 8.60644
257 2 0.059355 4.82126 6.04492 1.58854
256 2 0.0996153 3.9141 4.54193 2.10205
21 4 1.47571 4.98811 2.62302 4.77329
22 4 1.43194 6.69443 2.14861 0.441649
25 4 0.750392 7.08836 3.10752 6.80312
29 4 1.1608 6.41566 4.36461 2.71099
32 4 1.47294 5.8703 5.69845 8.13094
34 4 1.65355 4.80967 7.51024 5.79195
74 1 -0.0914305 8.04348 0.828212 4.19372
79 1 -0.0867046 4.65846 5.31605 2.40964
119 3 -0.780304 4.43268 1.2812 4.0318
120 3 -0.721403 3.71545 3.64961 4.87928
121 3 -0.735996 7.03617 0.821444 1.34553
123 3 -0.759408 5.78676 2.33379 6.17015
129 3 -0.837867 6.1654 3.30512 3.86761
130 3 -0.824716 6.81134 3.60173 1.32974
133 3 -0.734743 6.80002 4.49085 7.50997
135 3 -0.828933 3.63883 7.4294 4.68653
136 3 -0.794063 4.85931 6.33727 6.93136
204 2 0.0588102 7.72188 2.05694 8.06351
240 2 0.0780519 7.87956 1.83732 3.83918
241 2 0.0404832 9.07941 0.58057 4.42685
3 4 1.10212 1.77773 2.34072 10.1644
7 4 1.49891 3.52739 3.15112 12.3698
12 4 1.013 1.87329 5.00833 13.9361
13 4 0.64087 1.13416 7.77226 13.1441
33 4 1.18582 2.83933 7.54244 9.35253
67 1 -0.0853231 0.33505 6.11689 17.2474
69 1 -0.112261 3.37405 5.58612 15.2746
103 3 -0.846015 2.76202 2.10437 11.4067
104 3 -0.83696 3.81281 2.39228 13.7681
106 3 -0.810003 2.38917 3.35406 9.04638
109 3 -0.608323 0.9849 3.81468 14.5956
110 3 -0.776551 2.63665 4.55579 12.5748
111 3 -0.663233 0.89843 6.33771 13.85
134 3 -0.810408 2.23344 6.08144 9.44283
190 2 -0.0331527 1.68399 0.888214 9.29423
137 3 -0.796229 4.32008 7.84565 9.89134
227 2 0.0131669 3.46973 6.64591 15.1121
228 2 0.0660037 4.22119 5.01292 14.942
229 2 0.0772276 2.9252 5.29447 16.2066
261 2 0.027239 2.95732 7.57836 17.1713
330 1 0.108375 1.09508 2.75863 15.549
331 2 0.122112 1.7377 1.87497 15.3109
196 2 0.00783392 0.00969691 7.76501 11.8297
263 2 0.0437155 6.31079 6.56905 12.5771
260 2 0.0402292 6.73242 6.54719 17.0498
354 2 0.0540731 1.14889 6.61181 16.7563
208 2 0.00292179 2.70975 7.68653 12.4897
265 2 0.0208215 4.58028 7.01193 13.0421
5 4 1.09604 4.49585 1.1146 14.4114
24 4 1.17525 5.636 3.54552 10.3647
264 2 0.144404 4.89919 5.94487 11.5956
27 4 1.06472 6.1274 3.04853 16.1251
28 4 1.1129 8.38484 2.63693 11.1438
77 1 -0.122433 6.96452 4.25473 14.5391
80 1 -0.109484 5.72144 6.6194 16.6842
82 1 -0.0919955 5.26725 6.65114 12.3057
122 3 -0.861377 5.00981 3.56684 11.8321
124 3 -0.721918 5.60756 1.61117 15.513
125 3 -0.76902 7.26031 2.806 17.3167
126 3 -0.764924 4.88586 3.81321 16.8695
127 3 -0.803957 7.09092 2.93871 10.2062
128 3 -0.757439 8.26366 1.6063 12.4137
132 3 -0.767425 5.29811 4.89761 9.5428
203 2 0.0382254 4.55925 2.41914 9.59867
216 2 -0.0178434 7.00224 7.29182 14.4645
249 2 0.0650869 7.95776 3.8092 14.3901
250 2 0.0129207 7.09001 5.2332 15.0366
251 2 0.0846141 6.16393 4.16565 13.7483
258 2 0.017688 5.62166 6.46584 15.616
259 2 0.0922909 4.97719 6.12757 17.2718
157 3 -0.737051 10.2123 1.404 14.5081
353 2 0.0875815 -0.162811 5.46456 16.5384
160 3 -0.608929 0.269991 2.662 10.4994
358 2 0.085879 5.94283 0.678364 12.2326
11 4 0.988375 -0.47798 8.04933 5.03508
14 4 0.712839 -4.92882 13.5513 4.15219
15 4 0.676863 -1.71372 10.0791 6.90624
17 4 1.05112 -2.62247 12.8564 6.0164
72 1 -0.133464 -3.32495 14.4633 7.31044
113 3 -0.678254 -1.35112 9.37074 5.46048
114 3 -0.722678 -3.64853 12.8413 4.78649
115 3 -0.728691 -2.40893 11.5378 6.92434
141 3 -0.730639 -1.13711 13.2372 5.32353
194 2 0.0159529 -3.15923 8.42637 2.11174
209 2 0.0413726 -1.10787 11.1142 3.68345
235 2 0.00790597 -3.37437 13.9353 8.27923
236 2 0.0395967 -4.24579 14.8537 6.92505
244 2 0.0553384 -0.741847 12.9035 7.78837
245 2 0.0906599 -0.44923 14.6087 7.11867
327 1 -0.0714702 -2.8798 14.6561 1.38369
328 2 0.0792118 -3.47399 14.8702 0.517273
329 2 0.0455421 -3.07072 13.6594 1.70457
357 2 0.0349324 -4.35042 12.1721 0.537307
112 3 -0.707581 -4.86462 15.0856 3.60894
356 2 0.0676445 -2.50597 15.1513 7.15023
349 2 0.158021 -1.81941 14.9928 1.39334
37 4 1.13697 -0.250759 12.5857 4.139
71 1 -0.113543 -0.107616 9.9673 8.19635
23 4 0.639452 1.6258 13.7618 8.13775
30 4 1.15286 2.44286 8.19737 3.92563
36 4 1.07898 3.67804 9.6569 1.51746
39 4 1.37061 3.47897 9.81201 7.39317
40 4 1.43098 2.49238 12.2334 5.61046
75 1 -0.106217 -0.395362 13.921 7.95954
131 3 -0.732246 1.0757 8.48784 4.73605
138 3 -0.750603 3.05033 9.43826 2.99962
139 3 -0.733103 3.80832 8.26795 0.704856
140 3 -0.707434 -0.291479 13.5036 2.78082
142 3 -0.724166 3.15981 10.9767 0.771927
143 3 -0.726171 2.40042 8.4225 8.05823
144 3 -0.840745 4.62588 8.95948 6.52874
145 3 -0.808197 1.22934 12.2621 4.61335
146 3 -0.847108 2.60037 10.8728 6.53694
147 3 -0.688283 2.36508 13.7803 6.69708
206 2 0.0799199 -0.689908 7.59366 1.92407
232 2 0.128466 0.717229 9.95679 7.50657
336 1 -0.0438692 2.54442 14.0095 1.76768
359 2 0.0129934 0.820821 8.5056 0.0184081
70 1 -0.123025 -2.92932 8.81192 8.03921
338 2 0.130048 2.54765 13.0038 2.1302
20 4 0.681204 0.705586 14.7377 2.4641
16 4 0.231382 -3.52737 11.9211 10.4025
18 4 0.951574 -0.230942 10.1887 14.4121
19 4 0.678349 -1.96808 9.91162 11.9551
73 1 -0.118415 -0.93479 9.68819 16.4697
117 3 -0.60223 -3.11086 10.9868 11.6919
118 3 -0.68917 -1.49644 9.74701 13.4465
149 3 -0.702638 0.140946 11.7993 14.3042
26 4 1.32622 2.27248 15.5016 13.3713
198 2 0.00415846 -2.06569 12.6864 9.83639
199 2 0.0225213 -4.53561 13.288 10.9744
200 2 -0.0361364 -0.606804 10.1046 10.9235
234 2 0.0137583 -0.251556 10.8545 8.79796
237 2 0.00625243 -0.442646 10.4957 16.9902
239 2 0.0592529 -1.98367 9.80385 16.1198
243 2 0.030278 -0.7404 14.342 8.8946
266 2 0.0913521 0.438522 12.4636 12.206
267 2 0.0160028 0.662388 12.0758 10.4477
268 2 0.0709191 0.542024 13.8007 10.9313
320 4 0.352773 -3.14196 13.413 15.5343
321 1 -0.109647 -1.81206 12.9067 17.0452
323 3 -0.659664 -3.39252 14.9856 15.1548
324 2 0.0240749 -1.51191 11.9226 16.7818
325 2 0.0637086 -1.07997 13.6254 16.7632
326 2 0.123316 -3.27005 11.5465 14.0394
333 1 -0.0918076 -1.42342 14.9192 12.8839
334 2 0.0358725 -2.25916 14.3544 12.4529
335 2 0.118406 -0.735026 14.3598 13.4791
238 2 0.0548718 -0.644307 8.68152 16.7467
233 2 0.0227011 -0.157241 9.08375 8.84622
31 4 0.588306 5.19716 8.62792 16.778
35 4 1.19706 5.22985 8.43319 11.0512
38 4 0.710256 4.46709 12.399 16.9635
41 4 1.18225 4.46513 10.8273 13.0073
42 4 0.642113 1.31543 12.8641 14.7269
43 4 1.11239 2.90759 12.9626 11.5871
81 1 -0.141081 3.0867 8.56989 16.8083
83 1 -0.108182 0.769227 12.7944 11.2418
116 3 -0.681888 1.01492 9.11628 14.1448
262 2 0.0591255 2.74418 8.64341 15.8035
148 3 -0.809669 4.73269 9.67012 11.9243
150 3 -0.689786 1.22934 14.4068 14.2052
151 3 -0.797643 3.17731 11.6458 12.5023
152 3 -0.750225 3.04714 14.4467 12.3213
154 3 -0.657191 1.95699 14.8139 9.31515
173 3 -0.633989 5.83396 9.38425 15.479
182 3 -0.752714 3.72919 12.8474 10.2055
202 2 0.0464843 1.91855 12.2417 8.81889
207 2 -0.0201693 1.9119 8.42885 10.5595
213 2 -0.0201082 1.43175 12.8518 16.4684
210 2 0.0157417 3.99619 9.8691 14.3538
211 2 0.0426216 2.94647 12.2103 14.3956
212 2 -0.0220263 3.78917 10.9899 16.2061
231 2 0.0127405 -2.65905 8.80052 9.09377
181 3 -0.720552 3.95884 10.5829 8.78111
341 2 -0.000443831 3.02906 13.2119 17.4375
51 4 1.01984 11.2744 4.27833 1.47954
52 4 1.54714 7.53608 6.91793 4.09039
54 4 0.61204 11.4807 5.39226 6.69422
56 4 0.993198 10.3525 7.59145 5.09781
76 1 -0.119862 8.50963 3.41303 5.66586
89 1 -0.111566 9.8268 3.82728 2.8942
90 1 -0.126132 10.6963 1.52316 7.48875
91 1 -0.09418 10.2205 5.21454 8.32304
162 3 -0.792798 11.3917 2.88027 0.666526
164 3 -0.859028 7.40458 5.51737 3.2597
165 3 -0.863893 6.19231 7.28335 4.92401
166 3 -0.659578 10.7067 5.72302 0.741649
168 3 -0.768649 6.97825 6.89969 8.56998
170 3 -0.562853 11.1359 7.37905 3.69811
171 3 -0.787002 8.85496 6.90406 5.12383
172 3 -0.674229 11.448 6.90842 6.10586
176 3 -0.746649 8.39432 7.49144 0.572455
214 2 -0.00755996 10.8688 4.36089 5.47505
246 2 0.112947 8.16401 3.74202 4.65394
247 2 -0.00317389 9.12139 2.4975 5.66231
248 2 0.0482682 8.98866 4.27445 6.12317
282 2 0.0211526 10.3837 3.0625 3.47344
283 2 0.0744646 9.00779 3.46305 2.31656
284 2 0.0858676 9.69893 4.8083 3.3172
285 2 0.0874128 10.2283 0.765828 6.90646
286 2 0.0253022 11.755 1.47516 7.53151
287 2 0.0194258 10.3015 2.51602 7.42196
290 2 0.100447 9.22542 5.27754 7.96718
351 2 0.0738119 14.4025 3.0279 0.358532
343 2 0.0219602 17.0163 2.35624 6.72119
352 2 0.294877 12.4444 5.10674 3.1407
346 2 0.0838668 8.01527 4.86314 0.429539
47 4 0.280532 13.9793 4.22776 5.84548
66 1 -0.0985785 16.0939 3.55497 2.59343
85 1 -0.0993046 13.6 2.20513 5.48076
163 3 -0.676569 12.6294 4.56766 2.32047
167 3 -0.595524 12.9784 4.84891 7.00486
342 2 0.0588128 15.9447 4.29193 3.33892
270 2 0.0374665 13.9605 1.60928 6.30772
271 2 0.0455894 14.1468 2.10818 4.55188
272 2 0.0532627 12.5483 2.06898 5.27107
339 3 -0.726363 12.4133 0.0364177 0.496001
222 2 0.0365117 16.2025 2.47279 2.57128
53 4 0.622394 9.22489 6.1547 0.151542
355 2 0.104143 12.0953 7.73648 7.91777
46 4 0.69821 10.0665 0.954948 9.43206
49 4 1.14574 10.8983 2.34904 15.6643
55 4 1.12505 7.77075 7.58993 9.75026
58 4 0.633366 9.74788 7.08592 11.8152
86 1 -0.0990092 11.7956 3.91722 14.6407
161 3 -0.691627 13.5396 2.26392 12.5429
94 1 -0.118597 11.5741 6.16472 11.4764
95 1 -0.1395 9.17355 6.38732 13.6784
155 3 -0.720206 9.70075 2.3029 10.2526
289 2 0.0609824 10.4515 4.27718 8.73278
158 3 -0.768157 12.0405 1.88294 16.7063
280 2 0.0549723 13.658 3.47772 9.09733
174 3 -0.718795 8.6188 6.59939 10.6931
205 2 0.00049389 8.87933 4.15304 11.8549
273 2 0.0201268 10.9066 4.27385 14.1695
274 2 0.114822 12.495 3.49622 13.9152
275 2 0.0690084 12.2072 4.58271 15.3868
276 2 0.106753 12.0091 1.04319 11.1234
279 2 0.0657353 12.4022 3.69491 10.2876
288 2 0.0516457 10.4731 6.07652 8.87803
295 2 0.0215375 8.66578 7.43686 16.1767
297 2 0.0427215 12.0138 6.59438 10.5544
298 2 0.0378183 11.3273 5.10932 11.3587
299 2 0.0398607 12.1717 6.47595 12.3316
300 2 0.0167221 9.92223 5.66623 13.9783
301 2 0.0323846 8.20506 5.92564 13.5822
302 2 0.0144606 9.19269 7.34674 14.1795
159 3 -0.794254 9.80619 3.13417 16.5795
347 2 0.00510344 11.4836 7.13507 15.8492
332 2 0.0382846 18.2066 2.86544 16.5404
281 2 0.0421835 13.6713 4.96696 9.97134
6 4 0.687895 15.5598 2.29302 15.0533
45 4 1.31257 13.5368 2.43027 17.2526
48 4 1.05754 13.8628 0.883332 13.3097
50 4 0.337525 14.5232 3.1564 11.5923
88 1 -0.0967266 13.4044 3.95006 10.0172
153 3 -0.703743 14.34 3.01852 15.9212
156 3 -0.753892 15.1463 0.964917 14.216
345 2 0.161012 17.4812 2.65484 12.6782
44 4 1.13727 6.11057 13.7226 1.24018
60 4 1.0971 5.29112 12.6095 4.02815
61 4 1.08207 7.58695 11.1985 0.266795
63 4 0.606767 7.55904 13.2534 5.95465
84 1 -0.111851 8.03958 14.29 1.95559
98 1 -0.0870216 5.95988 10.5935 4.1507
175 3 -0.81781 7.76801 8.18168 3.10779
177 3 -0.762341 5.28132 13.2213 2.52053
178 3 -0.77771 3.82128 12.5062 4.71809
179 3 -0.814128 7.72644 10.1231 1.42926
180 3 -0.770264 6.47036 12.355 0.410285
184 3 -0.696785 6.18567 13.4462 5.09189
217 2 0.0543887 5.40245 9.99176 1.6288
218 2 0.00575488 4.89934 12.9002 7.81679
219 2 -0.0166209 7.74595 14.4877 7.16722
220 2 -0.0298727 7.47384 11.9754 7.12291
269 2 0.0672951 8.598 13.3297 2.10847
308 2 0.0605126 6.5384 10.4812 5.05671
309 2 0.107023 6.54827 10.3668 3.25797
310 2 0.112992 5.03269 10.0302 4.22635
59 4 1.07299 8.39796 8.65673 1.67981
362 2 0.0716267 7.76984 14.7673 2.90064
360 2 0.0895496 3.30261 14.575 2.21921
361 2 0.0250376 8.41021 15.0103 1.18467
363 2 0.114677 8.54821 11.266 2.9413
92 1 -0.121188 10.3633 9.64429 5.71848
96 1 -0.0867469 10.4902 9.00334 2.10092
97 1 -0.102367 11.6152 12.2949 2.92183
183 3 -0.530647 8.85119 13.1451 5.0331
291 2 0.0581981 11.4238 9.83838 5.97881
292 2 0.0385273 9.65962 9.64713 6.55911
293 2 0.0379736 9.99629 10.1508 4.80932
303 2 0.0245711 10.8301 9.81808 1.50672
304 2 0.126671 10.9123 8.1096 1.73333
305 2 0.0643309 10.5586 9.22186 3.19452
306 2 0.0464904 11.8196 11.2369 2.96859
307 2 0.0591092 11.0232 12.7696 2.1621
337 2 0.122431 2.49899 14.1407 0.710678
230 2 0.0598982 14.4008 7.90357 7.50564
57 4 0.590518 7.28857 8.94916 14.7563
62 4 0.702057 4.64072 11.9788 9.22342
64 4 0.638363 9.34598 9.83905 12.7567
65 4 1.07639 5.97351 13.1918 14.395
93 1 -0.110866 8.60748 8.49236 16.1938
99 1 -0.121223 6.57619 11.6689 9.83585
100 1 -0.112815 9.26044 11.5168 11.6365
101 1 -0.0966777 8.0664 12.8493 14.7053
169 3 -0.742371 6.783 8.64501 10.5727
185 3 -0.618851 7.85545 9.60295 13.3796
187 3 -0.78453 5.59875 11.8622 13.5082
188 3 -0.73943 5.9368 14.5551 13.4125
189 3 -0.693039 5.29206 13.2549 15.8614
364 2 0.0665262 11.8429 10.2135 17.1511
277 2 -0.00143744 5.61542 15.3732 9.53102
278 2 0.120905 4.86973 14.3373 10.7879
294 2 0.0461374 9.51082 9.02783 15.9624
296 2 0.0887592 8.12351 8.88316 17.0497
311 2 0.0541899 6.97624 10.9673 9.10171
312 2 0.112997 6.48785 11.1363 10.7746
313 2 -0.0062664 7.08668 12.637 9.8554
314 2 0.052329 8.25323 11.9056 11.8291
315 2 0.0463737 9.41697 11.135 10.6355
317 2 0.0712542 8.4971 13.743 14.2979
318 2 0.0496968 8.31977 11.9539 14.1697
319 2 0.0918599 8.1026 12.7614 15.7968
344 2 0.132362 5.61992 12.8721 11.7896
348 2 -0.0230098 9.26183 11.2733 16.2695
186 3 -0.654553 10.0799 8.6856 11.8992
197 2 0.0316653 13.2488 10.941 9.2188
201 2 0.00146395 15.2002 8.34526 11.3953
221 2 -0.00593071 10.3935 10.2332 14.0583
87 1 -0.0725589 4.95385 15.3059 10.3682
316 2 0.0208902 10.0889 12.1583 11.9641
322 1 -0.0631364 13.7866 12.1407 14.7252
365 2 0.0749802 12.3024 13.609 13.7702
340 3 -0.625971 11.0697 12.5841 17.2503
215 2 0.000146417 8.8488 8.61117 8.83819
350 2 0.0804898 10.6676 14.7077 15.8443
ITEM: TIMESTEP
200
ITEM: NUMBER OF ATOMS
365
ITEM: BOX BOUNDS xy xz yz pp pp pp
-6.9345999999999997e+00 1.9702400000000001e+01 -6.9345999999999997e+00
0.0000000000000000e+00 1.5863300000000001e+01 2.0880000000000001e+00
0.0000000000000000e+00 1.7464200000000002e+01 8.7949999999999995e-01
ITEM: ATOMS id type q x y z
1 4 1.11893 3.40151 1.03631 2.80749
2 4 0.959776 1.90988 2.75377 0.777387
4 4 0.692834 2.45633 3.5346 5.82662
8 4 0.223313 -0.833475 3.93475 1.08301
10 4 1.15128 1.93137 4.77049 8.46664
68 1 -0.119534 -0.55075 6.69819 6.49374