ITEM: TIMESTEP
0
ITEM: NUMBER OF ATOMS
365
ITEM: BOX BOUNDS xy xz yz pp pp pp
-6.9345999999999997e+00 1.9702400000000001e+01 -6.9345999999999997e+00
0.0000000000000000e+00 1.5863300000000001e+01 2.0880000000000001e+00
0.0000000000000000e+00 1.7464200000000002e+01 8.7949999999999995e-01
ITEM: ATOMS id type q x y z
224 2 0.13747 -1.49089 5.72258 5.35565
2 4 1.20528 1.30888 2.36856 0.934011
4 4 0.999397 2.64772 4.00179 5.51669
8 4 0.819922 -0.880826 4.73643 2.1773
10 4 1.29899 1.51462 5.13642 8.21092
256 2 0.15676 3.53379 4.89871 2.51336
21 4 1.42955 4.75486 2.16505 4.63942
22 4 1.53864 6.51002 2.22683 0.314073
25 4 1.11914 6.87135 2.89575 6.68439
29 4 1.30462 5.86678 4.43749 2.78095
32 4 1.52891 5.96545 5.59798 8.11765
34 4 1.51855 5.01081 7.50327 5.85248
68 1 -0.678851 -0.874154 6.2963 6.10847
74 1 -0.65839 7.83514 0.920312 3.85278
78 1 -0.657598 1.34411 6.90397 3.03035
79 1 -0.69062 4.38673 5.62036 2.75448
102 3 -0.794988 2.19148 1.54531 2.00681
105 3 -0.756815 0.125865 3.67667 1.60026
107 3 -0.844545 2.17014 4.55479 6.84979
353 2 0.1365 -1.18349 7.30024 0.95274
255 2 0.260069 4.09383 6.39947 3.62873
119 3 -0.786524 4.38177 0.924115 3.64802
120 3 -0.809864 3.39644 2.62345 5.50835
121 3 -0.847326 6.8734 0.975467 1.27102
123 3 -0.805861 6.03482 1.82355 6.0537
129 3 -0.874419 5.29456 3.36457 3.73221
130 3 -0.785745 6.42199 3.66336 1.10189
133 3 -0.855497 6.46314 4.23246 7.41887
135 3 -0.816118 3.66711 7.46913 4.86784
136 3 -0.806166 4.9342 6.2969 7.0509
191 2 0.0201034 3.42051 5.11566 4.43469
192 2 -0.0525844 1.31895 3.85535 4.48573
257 2 0.157442 4.6287 6.23963 1.79403
204 2 0.0347483 8.13284 2.0951 7.64118
206 2 -0.00779423 -0.117945 5.67041 3.4351
223 2 0.154826 -0.331298 5.74124 0.226031
67 1 -0.650783 -1.2487 6.18913 0.752699
1 4 1.34123 3.14258 0.319659 2.69127
225 2 0.17509 -1.33553 6.4567 7.10017
226 2 0.145291 0.221194 6.01904 6.13254
242 2 0.223605 7.32168 0.383564 4.73329
260 2 0.183743 3.27845 5.92132 1.00215
195 2 -0.0138068 -0.118488 5.47119 7.74327
252 2 0.112614 1.55026 6.04609 3.84569
253 2 0.173483 1.80324 6.65019 1.91135
254 2 0.164977 0.291399 7.24537 2.91255
331 2 0.17031 0.557328 0.0883266 0.52461
330 1 -0.664149 0.233627 1.10599 0.0778353
80 1 -0.662602 2.64402 6.1383 0.0825465
354 2 0.184499 -2.11826 5.94104 0.14954
240 2 0.210775 7.40724 1.96936 3.68983
342 2 0.00791059 -2.65193 6.91926 1.90092
134 3 -0.836414 1.97104 6.57126 8.69128
259 2 0.167235 1.55651 5.84566 0.181722
3 4 1.17796 1.18373 2.58646 9.97316
5 4 1.37325 4.29755 1.02534 14.3761
7 4 1.52305 3.09035 3.024 12.2606
12 4 1.06786 1.95988 5.50414 13.8114
345 2 0.105224 0.489206 4.70491 14.3079
24 4 1.31654 5.50665 3.5027 10.3007
93 1 -0.655354 7.73024 7.05273 15.4141
27 4 1.34967 5.7354 3.0779 16.2422
28 4 1.24826 8.37695 2.46285 11.3078
155 3 -0.803733 9.27708 1.83366 10.1007
265 2 0.143116 4.34852 7.17399 13.0729
69 1 -0.62819 3.17379 5.6384 15.2952
77 1 -0.684024 6.10295 4.24587 14.7197
106 3 -0.804749 1.5757 4.12839 9.35952
82 1 -0.654513 4.92226 6.67286 12.0933
103 3 -0.786342 1.97268 2.28056 11.4541
104 3 -0.809622 3.38586 2.10969 13.6301
358 2 0.184392 5.63165 1.14005 12.2884
295 2 0.146617 7.19573 5.9499 15.1483
110 3 -0.794127 2.73507 4.57697 12.8347
111 3 -0.810035 1.66858 7.024 13.4326
122 3 -0.857237 4.3785 3.31363 11.2826
124 3 -0.806032 5.23453 1.71195 15.504
125 3 -0.822414 7.06248 2.97866 17.0114
126 3 -0.751602 4.43993 3.75413 17.1275
127 3 -0.859509 6.95728 3.01571 10.7584
128 3 -0.867931 8.31439 1.39522 12.4344
132 3 -0.79107 5.39544 5.01705 9.70452
296 2 0.181208 7.54165 7.4853 16.521
157 3 -0.817535 9.82597 1.52444 14.6996
301 2 0.154195 8.05987 4.90208 12.3107
203 2 -0.0060307 5.10611 2.44986 9.11538
263 2 0.173816 5.98413 6.33208 12.2505
227 2 0.163784 3.22397 6.73722 15.5706
228 2 0.210445 4.22641 5.19853 15.1335
229 2 0.164857 2.4943 5.035 16.0034
332 2 0.208414 2.4272 2.10169 16.4338
249 2 0.167421 7.24799 4.14503 14.6844
250 2 0.155815 5.75905 5.27977 14.6886
251 2 0.190316 5.63805 3.60008 13.8685
258 2 0.175059 5.18051 6.63955 16.5443
264 2 0.282182 4.19417 5.90488 11.5079
216 2 -0.00219566 6.22527 7.53614 13.3411
137 3 -0.845222 3.6302 7.99216 10.1059
190 2 -0.0359259 1.77934 1.25065 9.04606
11 4 1.24102 -0.755993 8.13417 5.49963
14 4 1.04637 -4.98003 12.7374 4.15304
15 4 1.00354 -1.60456 9.89906 8.09489
17 4 1.2009 -2.53361 12.5212 6.14704
23 4 1.07306 1.92583 13.3861 7.87843
30 4 1.26992 2.09728 8.26145 4.06907
36 4 1.21903 3.58751 10.0191 1.98524
37 4 1.25142 0.0139757 12.3272 3.85313
39 4 1.52312 3.74424 9.92546 7.12944
40 4 1.53007 2.95159 12.2261 5.26474
112 3 -0.815282 -4.60274 14.1646 3.40196
72 1 -0.670144 -2.80447 14.1982 6.84185
75 1 -0.675627 0.233066 14.1643 7.52076
113 3 -0.770048 -1.2085 8.90302 6.89758
114 3 -0.738787 -4.05975 12.1045 5.34782
115 3 -0.762991 -2.39893 11.5601 7.49457
131 3 -0.772165 0.841551 8.55344 5.0581
138 3 -0.793192 2.37998 9.41527 2.94597
139 3 -0.766669 3.65767 8.74132 0.886303
140 3 -0.783408 0.00277931 13.44 2.65921
141 3 -0.754538 -1.16818 12.5967 4.94922
142 3 -0.836638 3.17972 11.3803 1.22799
143 3 -0.875477 2.73125 8.98607 7.83051
144 3 -0.78617 5.20332 9.00707 6.42575
145 3 -0.80304 1.38463 12.3062 4.57302
146 3 -0.860094 3.07169 10.8247 6.02661
147 3 -0.792677 2.82203 13.3664 6.56475
181 3 -0.832065 4.47096 10.9716 8.31709
359 2 0.147541 0.84085 9.61377 0.30364
209 2 -0.00323422 -0.20571 10.8343 3.18751
341 2 -0.00430972 1.77656 13.2234 0.22309
108 3 -0.781829 -1.93634 8.11405 4.25455
235 2 0.145711 -2.70132 13.9452 7.96309
236 2 0.170667 -3.89339 14.3537 6.40137
202 2 0.00511135 1.57457 11.6688 8.34691
245 2 0.215467 0.274388 14.3349 6.38037
232 2 0.191961 1.02486 10.1382 8.40723
9 4 0.605296 -3.02229 8.00469 3.15409
329 2 0.155331 -3.3551 13.3336 1.13576
327 1 -0.668664 -3.13877 14.4508 1.08476
20 4 1.14356 0.69602 14.9834 2.22685
349 2 0.232572 -2.04669 14.6542 1.10519
244 2 0.158267 -0.545034 13.4532 7.79292
243 2 0.171058 0.273238 15.1025 8.21575
328 2 0.22205 -3.73636 14.9586 0.259996
356 2 0.241442 -2.03043 14.8861 6.44283
16 4 0.560321 -3.96824 12.174 10.3371
18 4 1.23088 -0.379731 10.6965 14.2047
19 4 0.893315 -1.74459 11.4542 11.4667
31 4 0.99751 4.87342 8.92619 17.1901
324 2 0.163344 -2.15935 12.7446 16.7394
38 4 0.966875 4.81047 12.7596 17.2917
41 4 1.21387 4.8946 10.9151 13.3211
42 4 0.994327 1.36199 13.192 15.1762
43 4 1.20775 3.11496 12.855 12.0548
73 1 -0.639735 -1.52188 10.1194 15.5748
81 1 -0.680421 3.18291 9.75551 16.9526
83 1 -0.702955 1.3247 12.4036 11.6502
116 3 -0.778 0.741022 9.38055 13.8766
117 3 -0.769222 -2.99039 12.4387 11.5331
118 3 -0.789917 -1.16052 11.027 12.8316
238 2 0.16562 -0.820348 9.70246 16.3267
148 3 -0.818539 4.66863 9.63255 12.3285
149 3 -0.787051 0.325679 12.134 14.9184
150 3 -0.789313 0.910105 14.5598 14.5544
151 3 -0.818786 3.51526 11.6214 13.5767
152 3 -0.789888 3.06129 14.4088 12.8691
33 4 1.32299 2.40365 7.99183 9.03356
173 3 -0.791269 5.91919 9.12903 15.452
182 3 -0.793894 4.00658 12.4199 10.8138
334 2 0.216772 -1.98565 14.3269 12.6445
169 3 -0.826291 6.36486 8.31433 10.2864
35 4 1.27791 4.94468 8.15219 10.9923
200 2 -0.011291 -0.469392 11.978 10.4371
335 2 0.298091 -0.469825 15.0136 13.5151
201 2 0.0273464 -2.13342 9.80426 10.7065
208 2 0.0808153 3.24467 9.15054 12.6818
210 2 0.0922558 4.9376 10.2709 14.9468
211 2 0.0827362 2.8687 12.598 14.6814
212 2 -0.0311622 3.76873 11.6114 16.6149
213 2 -0.0670634 1.81199 13.4237 16.7526
13 4 0.953795 1.64383 8.48856 12.9716
237 2 0.17722 -2.14674 11.0264 16.0412
26 4 1.43454 2.04097 15.5727 13.5945
207 2 -0.0142465 0.989663 8.82339 9.62479
262 2 0.159308 2.95402 10.1532 15.9253
266 2 0.17736 1.17369 11.4095 12.0902
267 2 0.163931 1.37117 12.5318 10.524
268 2 0.193649 0.796047 13.2303 12.2005
71 1 -0.678732 0.180213 10.573 9.14658
261 2 0.122287 2.58278 8.63842 17.1921
323 3 -0.783446 -3.55629 14.7996 14.991
333 1 -0.672335 -1.43633 15.2321 13.072
197 2 0.0521319 -3.35355 11.923 8.77254
196 2 -0.0536979 1.09847 8.54448 11.4167
70 1 -0.627542 -2.68918 9.07145 9.23237
233 2 0.127946 0.365013 10.4273 10.2564
154 3 -0.79156 2.53203 14.3376 8.94183
234 2 0.116877 -0.18866 11.6386 8.75972
321 1 -0.65294 -3.30001 12.5036 16.9697
339 3 -0.781337 12.3626 0.226715 0.126637
47 4 0.718848 13.8118 3.72948 5.44417
51 4 1.13972 11.0919 4.27911 0.828806
52 4 1.46813 7.4937 6.71246 3.94613
54 4 0.964084 11.8676 5.58353 7.16771
361 2 0.152849 14.697 0.977837 0.81858
66 1 -0.653671 15.1665 4.08659 2.68905
76 1 -0.660787 8.6854 2.96596 5.97705
85 1 -0.592535 13.3562 2.00708 5.4092
89 1 -0.653428 10.5316 3.97978 2.57767
90 1 -0.657924 10.8977 1.35604 7.6217
91 1 -0.648656 10.4236 4.49742 8.26183
162 3 -0.787033 11.1772 2.6982 0.182511
163 3 -0.747344 13.0387 4.99219 0.918775
164 3 -0.839543 7.1254 5.15737 3.42358
166 3 -0.80966 10.0525 5.37675 0.183113
165 3 -0.829535 6.31958 7.22523 4.88672
167 3 -0.762621 12.8153 4.64226 6.22997
193 2 0.143077 16.8116 1.54315 0.501784
222 2 0.139173 15.4551 2.92543 2.73001
171 3 -0.797989 9.06203 6.72951 4.85602
172 3 -0.768576 12.2984 6.66487 8.22067
241 2 0.143298 8.98994 0.88008 3.92651
214 2 0.0560762 10.0797 5.67041 6.78993
343 2 0.0468293 14.7766 4.48185 4.00301
246 2 0.168772 9.10592 1.93242 5.62663
247 2 0.160137 9.38963 3.58213 6.8028
248 2 0.197437 8.29896 3.64103 5.07113
270 2 -0.0215463 14.7918 2.7911 6.49092
271 2 0.128401 13.0444 2.08205 4.12843
272 2 0.173434 12.421 1.64459 6.07254
282 2 0.179574 11.4543 4.47396 3.10235
283 2 0.17736 10.4612 2.88326 2.8737
284 2 0.213446 9.61118 4.58417 2.77073
170 3 -0.731127 11.535 7.44343 4.35823
286 2 0.124289 11.8256 2.02206 8.08155
287 2 0.174825 10.1451 1.92155 6.97287
346 2 0.0958174 7.44656 4.83666 0.482094
289 2 0.167968 10.5879 3.30787 8.0123
351 2 0.260701 14.2872 4.40881 1.92981
219 2 -0.00179472 14.7904 1.07239 5.88562
290 2 0.191673 9.34338 4.76849 8.12434
168 3 -0.832655 7.23533 6.57206 8.2858
360 2 0.188385 10.1394 0.246703 2.05006
355 2 0.257847 12.5458 7.31368 7.42166
56 4 1.14121 10.2322 7.70831 4.82924
285 2 0.180172 11.2445 0.356799 7.05222
352 2 0.314029 13.1781 4.88327 0.00483542
6 4 1.27244 15.8269 2.4923 14.9285
159 3 -0.855853 9.75356 3.33709 16.7486
46 4 1.11608 10.2425 0.785773 9.37109
350 2 0.213019 17.0882 3.55877 15.8143
49 4 1.31335 10.628 2.5316 15.6064
50 4 1.09329 15.9321 1.77807 10.8871
277 2 0.157129 12.2885 1.59604 10.2693
55 4 1.26312 7.57443 7.70119 9.39537
58 4 1.06248 9.804 6.71855 11.6295
86 1 -0.6866 11.3337 3.64937 14.1846
45 4 1.40302 13.5969 2.30205 16.7241
88 1 -0.630895 14.5108 2.68817 10.5134
94 1 -0.650284 11.3484 5.97849 10.9461
95 1 -0.656175 8.90927 5.44761 12.8757
153 3 -0.828201 14.3404 2.84705 15.2933
156 3 -0.836466 16.2786 1.10717 14.4987
302 2 0.164367 8.48526 6.09582 13.7866
288 2 0.182236 10.8234 4.9375 9.31514
158 3 -0.74758 11.9405 1.65069 16.3341
87 1 -0.650161 11.8782 0.567104 10.4184
160 3 -0.829751 17.2763 2.33584 10.2725
53 4 0.984752 10.711 6.62689 17.1866
174 3 -0.771733 8.65811 7.11291 10.4223
205 2 -0.0205405 9.32873 3.76609 11.9477
273 2 0.224615 12.4374 3.60548 14.1825
274 2 0.138671 10.9658 4.64898 14.6169
275 2 0.165375 10.8799 3.34814 13.2378
176 3 -0.774493 10.3737 8.09067 17.4292
279 2 0.173517 13.5997 2.53346 11.2829
280 2 0.0641801 14.4835 1.75981 9.36372
281 2 0.165113 14.7386 3.76278 10.0772
347 2 -0.0342935 10.3807 6.1669 15.6057
109 3 -0.772827 16.8367 3.78889 14.7936
294 2 0.169032 8.81359 7.13189 15.1017
297 2 0.266552 11.6582 6.24206 9.82923
298 2 0.123333 10.9777 4.84113 11.085
299 2 0.194693 12.1247 6.32221 11.7203
300 2 0.137395 9.82778 4.67789 13.2926
186 3 -0.742416 10.4155 8.05344 12.5264
161 3 -0.824752 15.7631 0.701413 12.0727
44 4 1.30803 6.32161 13.9442 0.926449
59 4 1.22769 8.22977 8.49434 1.34345
60 4 1.33911 5.67845 12.7825 3.86077
310 2 0.194697 5.96673 10.424 4.28698
63 4 0.818425 7.55408 14.2401 6.26061
340 3 -0.745233 9.34749 11.6624 0.334714
325 2 0.152778 11.7537 12.2817 0.458064
92 1 -0.641116 9.88674 9.42022 5.32284
96 1 -0.675702 9.95275 9.15983 1.64511
97 1 -0.61203 11.5203 11.6947 3.59182
98 1 -0.647507 6.61409 11.1175 3.67488
336 1 -0.682514 2.53825 14.5486 1.45785
177 3 -0.792781 5.74669 13.4539 2.32998
363 2 0.250056 9.35401 13.6482 6.17444
179 3 -0.766197 7.39047 9.88179 1.02754
218 2 0.073068 5.23441 13.5206 8.468
183 3 -0.74983 8.7449 13.4751 6.97875
184 3 -0.770043 6.66931 13.4918 4.96827
217 2 0.0269491 5.18998 10.2099 2.74158
178 3 -0.864537 4.20838 12.4759 4.34146
180 3 -0.777704 6.96235 12.6237 0.0830016
220 2 0.00271765 6.58952 14.3918 7.72113
84 1 -0.657727 7.88423 14.9564 1.35024
291 2 0.188733 10.6299 10.396 4.68235
292 2 0.13723 10.2238 9.23802 6.52196
293 2 0.179667 8.76735 9.53186 5.08588
303 2 0.252981 9.8522 10.295 1.14816
304 2 0.173677 10.5327 8.4646 0.986181
305 2 0.187763 10.2018 9.0779 2.72832
306 2 0.155754 11.7514 11.4184 2.46706
307 2 0.135159 10.4179 12.2078 3.94253
308 2 0.18844 7.5639 11.4517 4.29926
309 2 0.260518 6.88454 10.6297 2.52626
175 3 -0.823226 7.759 7.71819 2.70367
311 2 0.235555 7.55139 13.2236 8.57545
269 2 0.18345 8.78565 14.294 1.01439
215 2 -0.00198595 8.27507 8.9413 8.49944
337 2 0.274162 2.61675 14.9242 0.387793
194 2 0.114776 12.9965 7.83947 3.84381
362 2 0.1757 7.65092 15.0759 2.46904
338 2 0.22678 2.81027 13.444 1.56709
319 2 0.209292 7.9197 11.9557 16.2449
48 4 1.22314 8.74846 14.9923 13.4399
64 4 0.910772 10.1535 9.40846 13.2583
65 4 1.27935 6.67723 12.9693 14.4868
187 3 -0.805464 6.08558 12.0659 13.2274
99 1 -0.65235 6.66407 13.1375 9.22461
100 1 -0.640183 10.1854 10.5881 11.8642
101 1 -0.684039 8.20317 11.9543 15.0901
320 4 0.932165 13.3789 13.6018 15.7523
185 3 -0.760257 8.35174 9.22441 13.9841
62 4 1.03988 4.98632 11.9153 9.40343
364 2 0.126104 11.1969 13.5178 15.4021
188 3 -0.756486 7.1978 14.3605 13.9737
199 2 -0.0383759 12.6911 10.77 10.4793
326 2 0.139447 12.0256 11.6549 15.3535
348 2 -0.00128698 10.0009 11.6172 15.8156
365 2 0.168425 12.2665 12.716 13.7442
221 2 -0.0366087 11.2753 9.76899 14.4783
357 2 0.172498 14.0053 11.4711 17.0168
344 2 -0.0282148 9.82943 13.7209 13.355
278 2 0.168278 5.5835 14.5915 9.90919
198 2 -0.0339459 12.4174 13.3249 10.2736
322 1 -0.653172 12.083 12.7203 14.8797
318 2 0.237053 8.19525 10.8517 14.6474
312 2 0.0610195 6.60347 11.4188 9.98451
313 2 0.183963 6.77737 13.7309 10.1531
314 2 0.176032 9.03292 10.8725 11.8603
315 2 0.178065 10.5964 10.2304 10.8728
316 2 0.106349 10.8606 11.4182 12.4399
317 2 0.133242 9.12701 12.5747 14.7684
57 4 1.03363 7.00945 8.54045 14.5066
189 3 -0.785387 5.74328 13.0612 16.042
276 2 0.23799 4.56563 15.269 11.4822
230 2 0.147893 13.8681 9.53793 8.91202
231 2 0.190743 15.0782 7.9639 9.03659
61 4 1.14577 10.1074 12.2484 17.4379
239 2 0.170204 15.4126 9.33269 15.0885
ITEM: TIMESTEP
100
ITEM: NUMBER OF ATOMS
365
ITEM: BOX BOUNDS xy xz yz pp pp pp
-6.9322884666666660e+00 1.9695832533333334e+01 -6.9322884666666660e+00
0.0000000000000000e+00 1.5863300000000001e+01 2.0873039999999996e+00
0.0000000000000000e+00 1.7464200000000002e+01 8.7949999999999995e-01
ITEM: ATOMS id type q x y z
224 2 0.137777 -1.56351 5.62208 5.45256
2 4 1.18382 1.24061 2.47421 0.895927
4 4 0.98416 2.73629 4.00545 5.45479
8 4 0.806818 -0.924631 4.6617 2.05047
10 4 1.29554 1.56297 5.17957 8.06797
256 2 0.15178 3.6709 4.87163 2.69106
21 4 1.41806 4.77169 2.05448 4.6441
22 4 1.49569 6.54098 2.28386 0.130675
25 4 1.10426 6.9748 2.90361 6.48932
29 4 1.26514 5.98067 4.37084 2.84338
32 4 1.48279 6.02994 5.60985 8.07576
34 4 1.49454 5.03145 7.53324 5.98228
68 1 -0.666405 -0.90474 6.25926 6.13828
74 1 -0.672756 7.90101 0.909554 3.84926
78 1 -0.655264 1.3976 6.73336 3.11107
79 1 -0.693939 4.51137 5.61734 2.89307
102 3 -0.732274 2.18905 1.4968 2.18677
105 3 -0.777032 0.152154 3.55826 1.53117
107 3 -0.85939 2.18879 4.60168 6.77823
353 2 0.143008 -0.711169 7.05769 1.08742
255 2 0.262915 4.23583 6.40766 3.67321
119 3 -0.793403 4.40712 0.719669 3.70314
120 3 -0.767708 3.1688 2.52158 5.49207
121 3 -0.812311 6.92631 0.909947 1.11628
123 3 -0.830764 5.97419 1.87563 5.85488
129 3 -0.871787 5.34357 3.20119 3.73595
130 3 -0.785905 6.45844 3.72836 1.05099
133 3 -0.854349 6.5656 4.20614 7.22739
135 3 -0.820441 3.55825 7.59323 4.74821
136 3 -0.835635 4.94411 6.40847 7.08557
191 2 0.0237565 3.93605 4.98085 4.67927
192 2 -0.0246972 1.43486 3.92401 4.33406
257 2 0.150728 4.89266 6.18052 1.88165
204 2 0.0255824 8.10841 1.9868 7.42128
206 2 -0.00403817 -0.157729 5.5032 3.36448
241 2 0.167827 8.95108 0.693126 4.15332
67 1 -0.65902 -1.31536 6.15456 0.817569
1 4 1.30942 3.19959 0.288076 2.73001
225 2 0.162875 -1.37838 6.4512 7.2013
226 2 0.139384 0.2734 5.93147 5.99654
242 2 0.232912 7.10661 0.504142 4.57976
260 2 0.175136 3.3972 6.06841 1.25874
195 2 0.00195907 -0.0780253 5.36514 7.70397
252 2 0.130664 1.41519 5.87472 3.84005
253 2 0.165194 1.93907 6.54714 2.01288
254 2 0.168299 0.357933 7.13713 2.93355
331 2 0.177322 0.360355 0.281151 0.988498
330 1 -0.678549 0.228413 1.10292 0.168518
80 1 -0.647707 2.79825 6.28105 0.199221
354 2 0.172552 -2.43705 6.27324 0.591439
240 2 0.194232 7.72624 1.967 3.52253
342 2 0.00191428 -2.70849 7.20926 1.70709
134 3 -0.823689 2.05538 6.51254 8.64385
259 2 0.150374 1.64178 6.1747 0.335241
190 2 -0.0101133 1.40915 1.71429 8.66649
3 4 1.23243 1.1179 2.72467 10.0081
5 4 1.38843 4.28871 0.990771 14.3667
7 4 1.49665 3.17035 3.01223 12.1776
12 4 1.04544 1.95278 5.52663 13.9697
345 2 0.107403 0.383315 4.89758 14.3893
24 4 1.29138 5.62045 3.48896 10.2492
93 1 -0.690484 7.73588 6.85736 15.6609
27 4 1.29674 5.75353 3.24764 16.2514
28 4 1.25386 8.33464 2.52811 11.3467
155 3 -0.788622 9.27367 1.90671 10.0796
265 2 0.167222 4.85892 6.80621 13.247
69 1 -0.631673 3.10116 5.71473 15.4717
77 1 -0.68128 5.95374 4.38654 14.7084
106 3 -0.805343 1.44228 4.11375 9.3628
82 1 -0.678279 5.05038 6.77576 12.1627
103 3 -0.822538 2.10767 2.33495 11.2874
104 3 -0.782985 3.37958 2.03207 13.5349
358 2 0.222709 5.74931 1.21384 12.3197
295 2 0.170279 7.25371 5.89577 15.355
110 3 -0.773595 2.61339 4.50376 12.908
111 3 -0.804206 1.83359 7.03921 13.5372
122 3 -0.85264 4.62537 3.16723 11.366
124 3 -0.783612 5.13576 1.88461 15.426
125 3 -0.813623 7.09444 2.92397 16.9847
126 3 -0.746099 4.56275 3.96852 17.2797
127 3 -0.851186 7.1055 3.27647 10.7558
128 3 -0.876251 8.09252 1.46082 12.4562
132 3 -0.775213 5.47527 5.04398 9.6703
296 2 0.186322 7.45973 7.26033 16.7067
157 3 -0.81102 9.8477 1.39511 14.5466
301 2 0.168562 8.0983 4.94737 12.3828
203 2 -0.0234341 5.32301 2.47626 9.00832
263 2 0.191189 6.13845 6.40639 11.9082
227 2 0.173111 3.29104 6.80346 15.7209
228 2 0.20167 4.13326 5.16272 15.1824
229 2 0.1625 2.45692 5.21099 16.2445
332 2 0.206044 2.87561 1.73971 16.6821
249 2 0.168923 7.04158 4.05852 14.4694
250 2 0.140733 5.79126 5.54558 14.7024
251 2 0.208204 5.21092 3.87206 13.9614
258 2 0.202686 5.32812 6.55747 16.8836
264 2 0.24799 4.35827 6.0945 11.5554
216 2 0.0113228 6.46435 7.65834 13.2356
223 2 0.15384 1.30137 6.50716 17.4143
11 4 1.20327 -0.869691 8.01642 5.49729
14 4 1.06231 -5.03079 12.62 4.07459
15 4 1.00268 -1.63594 9.85237 8.11784
17 4 1.24911 -2.56184 12.4419 6.15956
23 4 0.9869 1.86145 13.3222 7.88711
30 4 1.34531 2.21159 8.15858 4.089
36 4 1.24023 3.60427 9.98559 1.9122
37 4 1.2463 0.0249919 12.4006 3.87434
39 4 1.50732 3.90728 9.93519 7.2165
40 4 1.52395 2.8422 12.2773 5.25323
112 3 -0.762841 -4.71446 14.0728 3.54737
72 1 -0.656783 -2.81405 14.2038 6.74049
75 1 -0.680845 0.158478 14.0467 7.45878
113 3 -0.755277 -1.28691 8.90957 6.83591
114 3 -0.739658 -4.01642 12.0247 5.2485
115 3 -0.778842 -2.39381 11.5342 7.36999
131 3 -0.74855 0.771903 8.34017 4.88809
138 3 -0.795464 2.52179 9.42901 2.99911
139 3 -0.788501 3.81629 8.74679 0.792776
140 3 -0.807898 -0.136396 13.5172 2.628
141 3 -0.766513 -1.15482 12.5313 4.9834
142 3 -0.84582 3.33337 11.305 1.04994
143 3 -0.827952 2.63011 8.95734 7.74762
144 3 -0.82267 5.15546 9.01816 6.72528
145 3 -0.843891 1.4856 12.4106 4.39253
146 3 -0.788511 3.23167 10.7518 5.85723
147 3 -0.820227 2.63195 13.3214 6.48817
181 3 -0.872372 4.36241 11.0291 8.37971
359 2 0.152128 1.24783 9.64447 0.50689
209 2 0.00125124 -0.190016 10.9259 3.20303
338 2 0.215712 2.75625 13.4312 1.71805
108 3 -0.761249 -2.12202 8.12841 4.20855
235 2 0.151489 -2.8359 14.1933 7.85491
236 2 0.193411 -3.87249 14.3951 6.24079
202 2 -0.0157372 1.53269 11.7617 8.50522
245 2 0.226754 0.169966 13.9542 6.3616
232 2 0.203461 1.06514 9.91114 8.40375
9 4 0.623368 -3.13808 8.21272 3.09462
329 2 0.159201 -3.05115 13.2255 1.36147
327 1 -0.665774 -3.02509 14.3699 1.21502
20 4 1.16137 0.574329 14.9 2.22849
349 2 0.244425 -1.94407 14.8566 1.20052
244 2 0.14194 -0.526798 13.3103 8.01715
243 2 0.173531 0.0805598 15.0992 7.78853
328 2 0.199997 -3.67829 14.7276 0.356058
356 2 0.228295 -1.88539 14.7332 6.23575
197 2 0.0630523 -3.28824 11.8284 8.69818
234 2 0.111292 -0.172831 11.539 8.54005
16 4 0.587014 -3.98297 12.2112 10.2362
18 4 1.18996 -0.292885 10.7384 14.5941
19 4 0.884867 -1.79662 11.3226 11.5739
31 4 1.03127 5.06496 9.02418 17.1148
324 2 0.172657 -2.14391 12.7019 16.9998
38 4 0.961938 4.82731 12.8112 17.2286
41 4 1.26235 4.85113 10.8989 13.3866
42 4 1.00055 1.25997 13.2077 15.2793
43 4 1.29801 3.12282 13.0359 12.0071
73 1 -0.644634 -1.80229 10.1382 15.4396
81 1 -0.68983 3.29583 9.8625 16.9903
83 1 -0.675551 1.33374 12.7054 11.4062
116 3 -0.756086 0.857864 9.46477 14.0169
117 3 -0.789988 -2.94349 12.3708 11.323
118 3 -0.729073 -1.0334 11.2799 12.9616
238 2 0.147929 -1.31673 9.3292 16.171
148 3 -0.814874 4.7335 9.72025 12.3692
149 3 -0.838671 0.424461 11.9208 15.3832
150 3 -0.832878 0.882278 14.4968 14.5338
151 3 -0.821149 3.4936 11.7525 13.485
152 3 -0.819664 3.07444 14.4693 12.6252
33 4 1.29423 2.42792 8.02004 9.05379
173 3 -0.787883 6.03185 8.92077 15.421
182 3 -0.832385 3.96271 12.5712 10.7916
334 2 0.21434 -2.01428 14.5101 12.4318
169 3 -0.830341 6.2731 8.23511 10.2165
35 4 1.29044 4.90619 8.26071 11.0134
200 2 -0.00649996 -0.718486 11.7161 10.2884
335 2 0.285136 -0.505214 14.9634 13.5988
201 2 0.00882318 -1.93765 9.67732 10.8411
208 2 0.0719569 3.24707 9.19806 12.699
210 2 0.0732122 5.01006 10.062 14.7929
211 2 0.0886285 2.77172 12.5668 14.6533
212 2 -0.0424961 3.4088 11.8524 16.9812
213 2 -0.0433821 1.74783 13.6886 16.7885
13 4 0.934892 1.75577 8.51223 13.0607
237 2 0.169619 -2.31273 11.081 16.0561
26 4 1.41194 1.91795 15.5083 13.4875
207 2 -0.0109956 0.960145 8.70269 9.65664
262 2 0.157035 3.046 10.3906 16.0061
266 2 0.177228 1.07922 11.9156 12.2652
267 2 0.152816 1.3789 12.2182 10.3818
268 2 0.190727 0.902261 13.7463 11.4724
71 1 -0.663984 0.184592 10.4179 9.06
261 2 0.142151 2.73248 8.86809 17.1106
323 3 -0.797688 -3.37693 14.7734 15.0081
333 1 -0.659828 -1.47797 15.2888 12.9915
321 1 -0.644352 -3.2474 12.5879 17.0443
196 2 -0.0501611 1.24684 8.67033 11.4915
70 1 -0.648512 -2.74239 9.13706 9.29945
233 2 0.120157 0.534545 10.5317 10.1552
154 3 -0.770491 2.62875 14.44 9.07022
137 3 -0.869929 3.52802 8.18588 10.1656
198 2 -0.0403032 -4.78553 13.6338 9.86815
341 2 -0.00179613 4.0528 14.3222 17.4451
339 3 -0.793678 12.341 0.14479 0.0944177
47 4 0.731464 13.7525 3.65049 5.37971
51 4 1.18784 11.1267 4.15732 0.883971
52 4 1.47517 7.52798 6.70634 4.09599
54 4 0.930834 11.8616 5.48728 7.24484
361 2 0.161802 14.5656 1.16086 1.13416
66 1 -0.639541 15.0209 4.06369 2.66698
76 1 -0.666603 8.8106 2.94242 5.86817
85 1 -0.619888 13.4774 1.96204 5.61246
89 1 -0.652204 10.4281 3.79244 2.57909
90 1 -0.679003 10.9647 1.56216 7.82065
91 1 -0.660483 10.2127 4.64452 8.18119
162 3 -0.772833 11.2404 2.62201 0.170393
163 3 -0.746274 12.921 5.10041 1.05141
164 3 -0.829149 7.19443 5.08319 3.51427
166 3 -0.828869 10.0412 5.05559 0.187224
165 3 -0.840711 6.33434 7.24748 5.0213
167 3 -0.766594 12.7991 4.5612 6.26499
193 2 0.159201 16.7704 1.47487 0.0583681
222 2 0.154154 15.1537 2.93075 2.54124
171 3 -0.801976 8.98108 6.64139 4.86699
172 3 -0.761981 12.29 6.75405 8.15531
285 2 0.168086 11.199 0.525291 7.40285
214 2 0.0661315 10.1715 5.55202 6.57216
343 2 0.0225223 15.042 4.58211 4.25531
246 2 0.173594 9.4887 2.12222 5.52035
247 2 0.166018 9.32792 3.60189 6.71481
248 2 0.193238 8.38143 3.68949 4.89985
270 2 0.00385357 15.0216 2.71113 6.29396
271 2 0.127775 12.8889 1.86795 4.40947
272 2 0.178033 12.7585 1.85072 6.45197
282 2 0.193864 10.8653 4.74816 3.09966
283 2 0.16903 10.7982 2.86038 3.06364
284 2 0.200338 9.28803 3.77426 2.59836
170 3 -0.725803 11.3455 7.47627 3.88627
286 2 0.143452 11.8783 2.17527 8.10949
287 2 0.16958 10.1134 2.06687 7.15511
346 2 0.101089 7.38024 4.95082 0.552714
289 2 0.176146 10.4585 3.48841 8.0437
351 2 0.26542 14.1624 4.56564 2.01396
219 2 0.0191754 14.9801 0.872652 5.7734
290 2 0.208663 9.11061 4.76397 8.11559
168 3 -0.82978 7.23112 6.60424 8.48177
56 4 1.07615 10.2794 7.68996 4.76379
355 2 0.251614 12.393 7.39247 7.33088
176 3 -0.820783 8.42627 7.28934 0.0729696
352 2 0.295667 13.0898 4.9416 0.102588
84 1 -0.665425 14.9156 0.0796581 1.27522
360 2 0.166635 9.79523 0.181889 2.55282
6 4 1.26191 15.8442 2.56105 14.8432
159 3 -0.859214 9.64524 3.2878 16.4567
46 4 1.16134 10.2683 0.818118 9.44141
350 2 0.243587 17.1082 3.58973 15.7736
49 4 1.28844 10.6021 2.4491 15.4286
50 4 1.06087 15.8111 1.78037 10.7366
277 2 0.143326 12.2022 1.66074 10.1296
55 4 1.31174 7.59276 7.74591 9.52202
58 4 1.07215 9.83379 6.68784 11.6889
86 1 -0.683034 11.2854 3.75924 14.2595
45 4 1.51973 13.5535 2.15275 16.7175
88 1 -0.618285 14.4212 2.75863 10.3119
94 1 -0.654262 11.3834 5.95151 10.8999
95 1 -0.663969 8.86633 5.45746 12.9987
153 3 -0.849312 14.4339 2.65138 15.4549
156 3 -0.788902 16.4941 1.1517 14.7766
302 2 0.163622 8.38103 6.05142 13.8838
288 2 0.171974 10.6191 5.16723 9.26128
158 3 -0.775035 12.0694 1.59508 16.3643
161 3 -0.840903 15.715 0.888033 12.0578
160 3 -0.82178 17.1556 2.4308 10.1849
53 4 0.988777 10.8088 6.64177 17.276
174 3 -0.794368 8.67426 7.286 10.591
205 2 -0.0193991 9.33982 3.83683 11.9409
273 2 0.191712 12.4403 3.7457 14.4663
274 2 0.159334 10.7722 4.71232 14.6687
275 2 0.150271 11.0211 3.57781 13.1753
87 1 -0.654395 11.8124 0.615759 10.4795
279 2 0.159395 13.7392 2.74034 11.3373
280 2 0.0711704 14.1105 1.65003 9.39062
281 2 0.162488 14.739 3.84062 9.82016
347 2 -0.0212693 10.6496 6.26162 15.7053
109 3 -0.798639 16.7947 3.92073 14.8394
294 2 0.148234 8.84005 6.91862 15.4352
297 2 0.256647 11.7479 6.29413 9.84364
298 2 0.118682 10.9452 4.8338 10.9119
299 2 0.1803 12.1808 6.03269 11.7493
300 2 0.151879 9.72928 4.74276 13.3895
186 3 -0.76794 10.3928 7.8193 12.756
44 4 1.34179 6.38461 14.0803 0.896774
59 4 1.27993 8.09896 8.38898 1.31064
60 4 1.32932 5.67963 12.8359 3.8193
310 2 0.192039 5.96798 10.5037 4.23047
63 4 0.858638 7.37338 14.228 6.30339
340 3 -0.738442 9.25755 11.6303 0.260737
194 2 0.116966 12.8665 7.76878 3.63512
92 1 -0.67582 9.93486 9.44634 5.15938
96 1 -0.653881 9.78584 9.11067 1.60422
97 1 -0.637479 11.4787 11.665 3.32675
98 1 -0.674797 6.61969 11.143 3.5664
336 1 -0.652592 2.45735 14.4937 1.6283
177 3 -0.786972 5.82088 13.702 2.40114
363 2 0.286702 8.82061 13.0094 6.21109
179 3 -0.770052 7.31414 9.81308 1.04668
218 2 0.0610446 4.86271 13.6715 8.40514
183 3 -0.779659 8.56517 13.475 7.04964
184 3 -0.783497 6.54189 13.4997 5.06049
217 2 0.0362543 5.05746 10.1797 2.77384
178 3 -0.80991 4.22812 12.5734 4.34342
180 3 -0.757711 6.87331 12.7597 0.0533451
220 2 0.00492685 6.19735 14.4697 7.65745
61 4 1.1208 7.91881 11.3328 0.0110819
291 2 0.195127 10.514 10.2582 4.52197
292 2 0.130728 10.2124 9.38652 6.33432
293 2 0.166624 8.75938 9.41652 5.04423
303 2 0.247045 9.75998 10.1899 1.06358
304 2 0.191942 10.455 8.33669 1.12198
305 2 0.195417 10.0398 9.23436 2.71492
306 2 0.14043 12.0404 11.2637 2.30421
307 2 0.170197 10.4191 12.0144 3.3561
308 2 0.167991 7.59292 11.4948 4.06353
309 2 0.266292 6.90357 10.6431 2.5645
175 3 -0.804519 7.63245 7.65971 2.73354
311 2 0.23961 7.33974 13.1424 8.45551
269 2 0.185088 8.82911 14.807 0.604786
362 2 0.173952 8.14876 14.6508 2.35127
325 2 0.155099 11.5822 12.421 0.47884
337 2 0.257317 2.73399 14.9745 0.54518
215 2 -0.0108041 8.25061 9.02496 8.70302
319 2 0.216894 7.80295 11.9396 16.296
48 4 1.16958 8.89379 15.1274 13.4177
64 4 0.920277 10.0748 9.25352 13.381
65 4 1.21024 6.70999 12.8476 14.4922
187 3 -0.790298 6.13542 11.8365 13.2345
99 1 -0.655099 6.47407 13.2096 9.14862
100 1 -0.659032 10.0666 10.5713 12.0316
101 1 -0.695538 8.20924 11.9411 15.1877
320 4 0.918385 13.4731 13.4895 15.7053
185 3 -0.782544 8.37414 9.24387 14.1274
62 4 1.09295 4.75899 12.0961 9.4282
364 2 0.138622 11.2511 13.4708 15.2747
188 3 -0.715444 7.46805 14.4923 13.8791
199 2 -0.0503352 12.4705 11.0393 10.544
326 2 0.142791 12.0904 11.6326 15.0134
348 2 0.0050261 10.035 11.6327 15.8241
365 2 0.158442 12.3251 12.9156 13.5871
221 2 -0.0364929 11.2564 9.62436 14.497
357 2 0.147403 14.0866 11.4301 17.1228
344 2 -0.0262526 10.0391 13.9467 13.3284
278 2 0.167638 5.44249 14.7011 9.89573
239 2 0.169488 15.1326 9.64253 14.7045
322 1 -0.654227 12.1796 12.7305 14.7396
318 2 0.255702 8.37885 10.874 14.7585
312 2 0.0753689 6.49991 11.6383 10.0371
313 2 0.17531 6.69093 13.8074 10.0829
314 2 0.194534 9.05168 11.0409 11.965
315 2 0.170309 10.3606 9.94211 11.129
316 2 0.112906 10.9619 11.2197 12.4902
317 2 0.161874 8.98071 12.6956 15.0116
57 4 1.06474 7.19983 8.34073 14.5872
189 3 -0.804354 5.70009 12.8715 15.8494
276 2 0.24006 4.85713 15.469 11.6067
230 2 0.155228 13.8625 9.55037 9.27688
231 2 0.186936 14.9636 8.0124 9.10977
ITEM: TIMESTEP
200
ITEM: NUMBER OF ATOMS
365
ITEM: BOX BOUNDS xy xz yz pp pp pp
-6.9299769333333323e+00 1.9689265066666664e+01 -6.9299769333333323e+00
0.0000000000000000e+00 1.5863300000000001e+01 2.0866080000000000e+00
0.0000000000000000e+00 1.7464200000000002e+01 8.7949999999999995e-01
ITEM: ATOMS id type q x y z
224 2 0.149104 -1.65226 5.75486 5.16713
2 4 1.25101 1.44492 2.38558 0.971318
4 4 1.0008 2.70071 4.03121 5.37886
8 4 0.827687 -0.915569 4.70684 1.9802
10 4 1.33078 1.59943 5.19804 7.96393
256 2 0.143473 3.7326 4.81164 2.65827
21 4 1.42399 4.72687 2.04604 4.70022
22 4 1.48776 6.52538 2.33863 0.0921175
25 4 1.11416 7.08766 2.89865 6.44133
29 4 1.27974 5.98383 4.36347 2.84676
32 4 1.51388 6.06947 5.50747 8.03276
34 4 1.53553 4.99063 7.51611 6.00495
68 1 -0.679059 -1.01562 6.23425 5.93309
74 1 -0.664441 7.84813 0.876899 3.80833