ITEM: TIMESTEP
0
ITEM: NUMBER OF ATOMS
365
ITEM: BOX BOUNDS xy xz yz pp pp pp
-6.9345999999999997e+00 1.9702400000000001e+01 -6.9345999999999997e+00
0.0000000000000000e+00 1.5863300000000001e+01 2.0880000000000001e+00
0.0000000000000000e+00 1.7464200000000002e+01 8.7949999999999995e-01
ITEM: ATOMS id type q x y z element
2 4 1.02875 2.36461 2.29426 1.04656 Si
4 4 0.687499 3.18577 3.25662 5.38431 Si
8 4 0.267681 0.001197 3.73901 2.03159 Si
10 4 1.11911 2.94405 5.41571 7.39031 Si
68 1 -0.130075 -1.37537 6.69438 5.7159 C
78 1 -0.0965899 1.53564 6.00246 3.69618 C
105 3 -0.667869 1.61384 3.52057 1.77467 O
107 3 -0.731572 2.47066 4.51884 6.08646 O
191 2 0.0923871 2.37825 3.33604 3.75188 H
192 2 0.0094835 2.86655 1.81315 6.24726 H
193 2 -0.0365116 1.28008 0.916913 0.953548 H
224 2 0.0539588 -0.467035 6.35285 6.27144 H
225 2 0.0264763 -1.49616 6.28066 4.71746 H
106 3 -0.757805 2.97865 4.40256 8.64265 O
252 2 0.0392271 0.644131 6.47401 3.31277 H
253 2 0.0877686 1.4627 5.7268 4.74762 H
254 2 0.0972807 1.99509 5.26546 3.08469 H
134 3 -0.747847 1.92758 7.06955 7.51265 O
363 2 0.0105952 0.750859 1.52668 7.37114 H
67 1 -0.102326 -1.14401 5.04099 0.932199 C
66 1 -0.124333 -0.757603 3.36503 3.47343 C
354 2 0.0656743 -1.1545 6.05183 1.29228 H
112 3 -0.748172 2.41339 0.533764 3.91712 O
222 2 0.0319961 -0.89306 4.15448 4.19892 H
30 4 0.79649 2.84126 7.51798 3.76326 Si
139 3 -0.722658 4.07724 7.09882 0.484966 O
23 4 0.551548 9.35888 0.580181 7.98783 Si
240 2 0.114088 8.37638 1.37399 3.26016 H
102 3 -0.739568 3.65316 1.84374 2.01492 O
356 2 0.0526949 4.5103 0.52303 7.14967 H
136 3 -0.693047 4.83459 5.96207 7.08749 O
130 3 -0.683017 7.19389 2.83051 0.894774 O
133 3 -0.71715 7.16384 4.31925 7.31189 O
135 3 -0.77237 4.30069 7.01871 4.19626 O
129 3 -0.736077 7.11599 2.82586 3.80527 O
123 3 -0.723746 6.72158 1.81352 6.2867 O
1 4 1.04015 3.87893 0.681761 3.12725 Si
120 3 -0.720055 4.78573 3.3991 5.08227 O
255 2 0.11823 4.86865 4.97489 3.42602 H
34 4 1.26502 5.36224 6.98281 5.37943 Si
257 2 0.0512947 5.10122 5.24674 1.6827 H
256 2 0.129229 4.593 3.59425 2.26924 H
21 4 1.33292 5.91336 2.20665 4.8167 Si
25 4 0.687989 7.72746 2.83368 7.08176 Si
29 4 0.839074 7.05886 3.82454 2.55087 Si
32 4 1.33722 6.22207 5.2079 8.33235 Si
119 3 -0.783679 5.14144 0.940834 4.09618 O
79 1 -0.0769493 5.10124 4.51994 2.49213 C
204 2 0.0925985 7.88461 2.29798 8.7273 H
3 4 0.999306 1.85709 3.63477 9.55768 Si
7 4 1.14281 3.33116 3.04065 12.1581 Si
12 4 0.805074 1.13215 4.87015 14.4157 Si
13 4 0.582361 -0.451554 7.31462 14.6626 Si
69 1 -0.0809035 2.70742 4.06481 15.5552 C
103 3 -0.736218 2.34041 2.73429 10.8603 O
104 3 -0.714835 2.98427 2.00022 13.5278 O
110 3 -0.681288 2.3184 4.8499 12.7396 O
111 3 -0.645898 0.934766 6.44391 14.8269 O
261 2 0.0405109 4.18392 7.83704 15.3798 H
227 2 0.090095 3.52673 3.93723 14.8768 H
228 2 0.0479223 2.38129 3.1327 15.9685 H
229 2 0.0543571 2.87409 4.74629 16.3666 H
82 1 -0.0867237 4.01787 6.97674 12.1235 C
160 3 -0.716744 0.776207 4.6451 10.1421 O
365 2 0.275137 0.594769 5.40375 9.51507 H
195 2 0.355825 1.64299 4.71742 12.0782 H
353 2 0.0578869 1.43357 5.86133 17.4465 H
263 2 0.0601816 3.30349 7.3961 12.8133 H
265 2 0.115067 3.66395 6.18769 11.4762 H
5 4 0.887377 3.87749 0.787243 14.0686 Si
208 2 0.0261239 -0.8911 6.96845 13.0273 H
196 2 0.0833263 -0.819761 6.8466 16.4304 H
81 1 -0.127058 4.85796 6.99677 15.3993 C
77 1 -0.115084 6.32278 3.71341 14.4178 C
262 2 0.0559039 4.53676 6.18086 16.0191 H
122 3 -0.827916 4.88645 2.90601 11.8273 O
124 3 -0.757039 4.74974 1.20564 15.3083 O
264 2 0.0382428 5.00352 6.82835 12.5352 H
80 1 -0.0970749 7.55733 5.84668 16.7149 C
259 2 0.0732329 6.89753 5.2915 17.3969 H
126 3 -0.783055 5.00655 3.25576 17.0081 O
128 3 -0.77551 8.07557 1.34034 12.9917 O
203 2 -0.00963889 5.17396 1.69995 9.47999 H
251 2 0.0333374 5.57985 4.47936 14.6279 H
127 3 -0.82493 7.33934 2.46637 10.5595 O
250 2 0.033769 7.36877 3.94125 14.5919 H
335 2 0.087784 5.63633 0.765245 12.13 H
125 3 -0.817277 7.13497 1.74849 16.588 O
132 3 -0.781521 5.71518 4.33736 9.59083 O
258 2 0.0241189 7.61798 5.46313 15.6879 H
249 2 0.103571 6.13057 3.1388 13.4957 H
359 2 0.0168581 5.25167 6.67547 14.4527 H
159 3 -0.793963 9.83477 2.13876 16.4709 O
31 4 0.603623 6.51006 7.63779 16.4501 Si
24 4 1.10873 5.82994 2.99061 10.4831 Si
27 4 1.10554 5.79658 2.30994 15.9387 Si
28 4 1.04283 8.45833 2.33258 11.7111 Si
22 4 1.27054 8.55085 1.88827 17.4154 Si
14 4 0.686065 -5.09714 14.2451 4.71482 Si
15 4 0.661728 -2.79638 10.1924 6.80818 Si
17 4 1.02146 -2.6132 13.0699 6.00704 Si
72 1 -0.089973 -1.72774 14.6951 7.19724 C
113 3 -0.661187 -1.36153 9.56586 6.4062 O
114 3 -0.711843 -4.22629 13.4665 5.81963 O
115 3 -0.6785 -2.69046 11.8339 7.07901 O
141 3 -0.809918 -1.60934 12.9011 4.73435 O
9 4 0.304922 -1.08941 10.4201 3.00698 Si
327 1 -0.0892375 -2.72087 13.795 2.0288 C
329 2 0.008557 -3.49952 13.1196 2.31865 H
328 2 0.0713521 -2.81686 14.1763 1.0411 H
349 2 0.133877 -1.72884 13.504 2.3133 H
108 3 -0.624295 -1.48395 9.01037 3.74971 O
235 2 0.128272 -0.816058 14.8005 6.62591 H
194 2 0.0264745 -2.6429 10.9719 2.38124 H
11 4 0.766785 -0.892426 8.60557 5.24331 Si
121 3 -0.742851 -0.282123 14.8197 1.07182 O
326 2 0.00917048 -5.05003 12.5157 0.890814 H
236 2 0.0299677 -1.61096 14.2971 8.20295 H
33 4 1.01034 2.37027 8.207 8.58781 Si
73 1 -0.0652696 0.246025 9.95719 1.5239 C
238 2 0.0936647 0.198152 8.87955 1.53547 H
239 2 0.0286858 -0.176019 10.3501 0.610616 H
142 3 -0.729843 3.43841 9.83118 0.211099 O
310 2 0.0937281 2.99267 11.0769 3.93417 H
350 2 0.339171 1.40402 8.13231 6.16891 H
237 2 0.0939757 1.18072 10.3853 1.8581 H
181 3 -0.751375 4.49796 11.2063 8.1974 O
144 3 -0.712413 5.25862 8.48145 5.85935 O
215 2 0.247659 5.11136 8.54722 7.02264 H
143 3 -0.746831 2.0641 9.77243 8.11673 O
146 3 -0.822714 2.53735 11.7207 6.24985 O
360 2 0.0728357 2.10961 12.2213 0.828227 H
98 1 -0.0788264 4.03858 10.8845 3.68761 C
209 2 0.374229 1.20506 9.60297 6.03257 H
336 1 -0.049994 2.23229 13.2726 0.613533 C
20 4 0.687259 0.932101 14.2107 1.94758 Si
37 4 1.20043 -0.0473088 12.7837 4.41884 Si
145 3 -0.8078 0.932874 13.4654 5.46854 O
36 4 1.03173 3.68167 8.5415 1.20688 Si
39 4 1.08611 3.14562 10.7469 7.38449 Si
40 4 1.18573 2.45423 13.2615 6.00961 Si
140 3 -0.776117 0.416515 13.0185 2.94318 O
131 3 -0.740936 1.2241 8.86115 5.49465 O
138 3 -0.731591 2.69608 8.52132 2.501 O
309 2 0.063687 4.2729 10.5902 2.66216 H
308 2 0.0891733 4.54871 10.293 4.46682 H
18 4 1.01623 0.296469 9.78546 15.8477 Si
201 2 0.0966049 -2.10292 12.7195 16.6306 H
233 2 0.0458414 -2.52199 8.88058 8.91124 H
149 3 -0.69013 -0.0802657 11.3438 15.5627 O
268 2 0.0776575 -0.402087 10.746 12.7137 H
323 3 -0.58955 -4.33521 14.1182 14.3658 O
83 1 -0.0760951 0.202201 11.3489 12.0447 C
150 3 -0.696439 0.192453 14.0613 14.881 O
206 2 0.33915 0.154871 14.7642 15.5634 H
333 1 -0.0918015 -1.82519 14.9189 12.5845 C
322 1 -0.0872038 -2.86178 13.23 17.2113 C
334 2 0.10315 -1.15397 14.2832 13.1323 H
116 3 -0.700753 0.0215946 8.89051 14.5366 O
267 2 0.0493789 -0.285308 12.2108 11.6294 H
118 3 -0.716149 -0.268964 9.33447 17.2961 O
358 2 0.0343463 -2.41029 14.3565 11.8896 H
245 2 0.041853 0.156536 15.334 9.25 H
320 4 0.208984 -4.02846 14.2314 16.3419 Si
232 2 0.0456954 -3.41092 10.4302 9.24806 H
75 1 -0.0950454 1.03903 14.7117 9.27036 C
266 2 0.0801043 0.771321 10.762 11.3402 H
187 3 -0.691456 4.93954 12.0863 12.741 O
244 2 0.047513 0.893046 13.7096 8.87378 H
41 4 0.718383 4.00201 10.7541 12.6086 Si
42 4 0.601303 0.895968 12.6507 15.3393 Si
152 3 -0.634431 2.24525 13.6053 12.8483 O
189 3 -0.667258 5.2434 12.3695 15.5417 O
157 3 -0.749759 3.01285 15.195 14.8124 O
38 4 0.663791 4.91757 10.9058 16.2123 Si
338 2 0.119745 3.89532 14.4426 17.1373 H
169 3 -0.730093 6.21372 8.45247 10.4358 O
148 3 -0.670438 3.49202 10.2798 11.1129 O
182 3 -0.682029 4.09707 12.9747 9.93465 O
62 4 0.80234 4.62773 11.4305 9.78614 Si
35 4 0.716719 4.55594 8.44236 10.6899 Si
243 2 0.0980115 1.58671 14.7749 10.1927 H
341 2 0.0124769 3.20887 10.8483 16.3709 H
43 4 0.414379 1.7396 12.0493 13.2112 Si
151 3 -0.688923 2.7186 10.3928 14.0919 O
26 4 1.16275 1.85626 15.027 13.6736 Si
202 2 0.353114 3.6188 13.0166 10.8184 H
210 2 0.290486 2.06259 9.64799 13.9026 H
213 2 0.0147668 2.09585 12.8773 16.5753 H
212 2 0.00781356 5.36387 9.62496 15.1305 H
137 3 -0.718478 3.83315 8.08278 9.27732 O
207 2 0.0162793 1.25128 8.07923 9.95962 H
51 4 1.00949 10.9291 3.65831 0.611013 Si
52 4 0.730375 7.47417 6.69347 3.35511 Si
54 4 0.596315 10.4395 7.09548 5.58583 Si
89 1 -0.114444 11.217 4.03515 2.66045 C
91 1 -0.0563148 9.40741 6.52515 7.27459 C
162 3 -0.788232 10.8857 2.00123 0.533437 O
164 3 -0.682365 8.26955 4.85633 2.80282 O
176 3 -0.682214 8.27389 7.10919 0.153632 O
248 2 0.10192 9.14792 3.43064 5.01858 H
214 2 0.0530751 9.87026 5.90778 4.46902 H
53 4 0.759855 8.66646 5.62901 0.865569 Si
290 2 0.0525877 10.066 5.84519 7.7888 H
76 1 -0.0813096 9.41757 2.97747 5.95327 C
246 2 0.0494476 9.73569 1.94039 5.89238 H
165 3 -0.722375 6.89011 6.54788 4.8575 O
154 3 -0.653101 10.0887 1.91426 8.58045 O
247 2 0.0610627 10.0733 3.58753 6.57223 H
288 2 0.120219 8.5642 6.05521 6.7863 H
289 2 0.123427 9.12629 7.39156 7.83782 H
282 2 0.046716 11.1225 5.11817 2.74751 H
284 2 0.070189 10.3699 3.46846 3.04882 H
166 3 -0.715456 9.53743 4.41492 0.187395 O
241 2 0.0931249 9.75167 1.05489 2.13927 H
346 2 0.355058 8.19936 2.88605 0.632381 H
217 2 0.275442 5.94361 7.31079 1.51973 H
74 1 -0.079303 9.09844 0.683007 2.90289 C
283 2 0.0315774 12.1861 3.62469 2.84235 H
342 2 0.0293926 16.602 2.30561 3.63146 H
223 2 0.0307027 15.5124 4.60509 0.942787 H
190 2 0.0141425 17.4252 1.64341 7.06773 H
85 1 -0.108831 13.2519 7.39258 3.06312 C
226 2 0.0348983 15.3494 6.68062 6.33668 H
361 2 0.0249135 15.2049 0.23853 1.95129 H
362 2 0.0379976 13.7466 0.810626 2.84372 H
272 2 0.0415412 12.9605 6.34854 3.01052 H
167 3 -0.601159 12.0016 6.75672 5.94824 O
219 2 0.0445027 12.9795 0.348827 6.34156 H
270 2 0.0599586 14.2815 7.58591 2.78952 H
46 4 0.663613 10.888 1.98384 9.98567 Si
49 4 1.08411 10.8372 1.42929 15.457 Si
86 1 -0.104846 11.207 2.9345 13.8892 C
95 1 -0.131111 10.4117 6.8524 10.2211 C
155 3 -0.719861 9.90567 1.77634 11.2818 O
158 3 -0.782787 12.2775 0.999218 16.2499 O
273 2 0.0432514 10.6088 3.78104 14.2153 H
274 2 0.0811302 10.8436 2.41643 13.0037 H
275 2 0.080021 12.2885 3.04092 13.927 H
300 2 0.0138493 11.0818 6.89458 11.0826 H
301 2 0.0238483 10.9006 6.69584 9.26221 H
302 2 0.0698706 9.54169 6.24167 10.3548 H
93 1 -0.123521 8.83505 6.80526 14.0434 C
296 2 0.0670269 9.77954 6.63731 14.5312 H
90 1 -0.134163 12.0753 3.81148 9.99224 C
295 2 0.013246 7.96024 6.31594 14.4405 H
287 2 0.0487271 12.0353 4.17483 8.96291 H
286 2 0.0253029 11.4986 4.37245 10.701 H
294 2 0.0355029 8.88006 6.79656 12.9672 H
87 1 -0.0964669 12.5865 0.851537 10.0481 C
260 2 0.0620919 8.49395 6.1996 17.1412 H
168 3 -0.78191 7.09382 6.48121 8.92798 O
278 2 0.0612372 12.9098 0.999516 11.0503 H
205 2 -0.0311476 8.71838 4.00368 12.2706 H
163 3 -0.755598 14.3239 4.99016 17.2565 O
16 4 0.237958 14.903 7.97724 15.1236 Si
280 2 0.0450926 15.4962 3.91907 10.703 H
198 2 0.0390966 13.7415 6.7024 14.724 H
285 2 0.0162906 13.0483 3.50752 10.3227 H
279 2 0.110104 16.8049 3.17017 11.6144 H
352 2 0.319261 14.3975 6.00816 17.1312 H
281 2 0.0479863 15.9573 2.18805 10.3611 H
45 4 1.25702 13.5002 1.77466 16.9559 Si
332 2 0.0451067 17.1515 3.50902 16.3 H
88 1 -0.0638304 15.9265 3.01166 11.0715 C
109 3 -0.612986 17.3881 4.06671 14.1933 O
6 4 0.640194 15.4581 2.31701 14.7509 Si
153 3 -0.710892 14.138 3.13251 15.3226 O
50 4 -0.0404332 14.5648 2.28715 12.4353 Si
330 1 0.0441172 17.43 3.14293 15.2971 C
331 2 0.069814 18.0702 2.23459 15.2612 H
351 2 0.348169 14.3238 4.03972 15.9532 H
276 2 0.0208373 13.2112 1.33889 9.31467 H
117 3 -0.616315 15.0119 8.04328 16.7018 O
357 2 0.0237511 19.0706 1.24642 17.2746 H
44 4 1.07083 5.95622 13.867 1.29622 Si
60 4 0.99565 4.784 12.9382 3.94117 Si
147 3 -0.69867 3.56742 14.4364 7.6002 O
63 4 0.334835 6.54359 13.6815 6.25893 Si
175 3 -0.689342 6.41328 8.05287 2.08419 O
177 3 -0.769007 4.77054 13.5446 2.42978 O
180 3 -0.727604 6.89994 12.6019 0.895819 O
184 3 -0.651889 6.17808 13.0326 4.8047 O
59 4 0.98936 7.97519 8.47285 1.02321 Si
220 2 0.0968984 5.76705 12.8102 7.5576 H
292 2 0.0871953 6.59413 9.66393 3.86803 H
178 3 -0.73647 3.64424 13.6622 4.90333 O
293 2 0.0995886 7.56247 11.227 4.0087 H
92 1 -0.0760614 7.38801 10.2119 4.36965 C
218 2 0.353797 3.76931 13.7485 8.30352 H
339 3 -0.776812 5.62408 14.8517 0.0546082 O
179 3 -0.717039 8.01801 9.98178 0.420288 O
269 2 0.0927012 7.59261 14.2338 3.32922 H
291 2 0.0863205 7.3939 10.1064 5.42796 H
61 4 0.826036 6.96707 11.2352 0.0265871 Si
337 2 0.114843 3.23387 13.5879 0.760849 H
242 2 0.105517 2.6307 15.0671 3.68126 H
84 1 -0.106549 7.42199 14.9647 2.55414 C
321 1 -0.109165 10.1196 14.3014 0.107318 C
96 1 0.0792682 10.9978 10.2462 1.78285 C
271 2 0.0336226 12.528 8.08683 2.66393 H
325 2 0.015147 10.6443 14.2162 1.05555 H
171 3 -0.697315 9.01075 7.83162 2.82301 O
344 2 0.0606807 12.1328 12.5003 7.82773 H
234 2 0.0142221 13.3237 8.98927 8.54442 H
305 2 0.0969724 10.465 10.7589 1.02464 H
355 2 0.318512 10.4158 11.6895 5.10513 H
345 2 0.0945993 12.8064 12.5101 7.83048 H
97 1 0.0754731 10.8847 13.1557 3.82842 C
306 2 0.0607799 11.4406 12.496 3.08834 H
172 3 -0.63937 10.0088 8.64511 5.20394 O
324 2 0.0741272 9.21855 13.7104 0.109359 H
231 2 0.0719015 12.1021 9.84204 6.28978 H
183 3 -0.565686 10.2592 12.6309 4.91635 O
303 2 0.0493178 11.9168 10.8088 1.91148 H
304 2 0.0728031 11.2614 9.18564 1.48968 H
56 4 0.860071 9.20481 9.13317 3.81785 Si
170 3 -0.558376 10.3457 10.2255 3.12006 O
70 1 -0.110111 13.0071 9.74584 5.71348 C
299 2 0.0559222 11.1096 9.55059 8.0134 H
307 2 0.0557826 10.3637 13.9944 3.29705 H
230 2 0.0617994 13.0613 10.3101 4.80426 H
19 4 0.613514 13.6865 8.24853 0.19037 Si
200 2 -0.0182829 12.8718 9.75846 0.253753 H
47 4 0.311014 13.0241 7.75867 5.18728 Si
71 1 -0.124254 14.2517 9.52928 8.66989 C
173 3 -0.664873 7.33919 8.87001 15.6226 O
65 4 0.818054 5.71082 12.6927 14.0236 Si
156 3 -0.623956 8.49287 15.6329 14.6041 O
99 1 -0.0892907 6.74866 11.4695 10.0658 C
101 1 -0.0876187 7.54076 11.7899 13.8736 C
188 3 -0.640014 5.86086 14.7698 13.6554 O
48 4 0.767758 7.82641 15.004 13.2118 Si
311 2 0.0651243 6.83846 12.275 10.7777 H
312 2 0.0527307 7.05874 11.7292 9.0691 H
313 2 0.107982 6.99421 10.4711 10.4014 H
317 2 0.0884814 7.71107 11.4206 14.8537 H
318 2 0.0724461 8.19065 12.5737 13.5948 H
319 2 0.0522068 7.56966 10.9894 13.1566 H
211 2 0.35329 5.88191 15.046 14.5833 H
57 4 0.649761 8.33458 8.76471 14.3921 Si
161 3 -0.681142 8.88443 14.6965 12.0252 O
186 3 -0.658399 9.2826 9.48888 11.4028 O
174 3 -0.711955 8.38375 8.81743 8.87681 O
55 4 1.11067 6.97065 8.07885 9.07478 Si
216 2 0.0316673 7.38859 8.91161 12.9672 H
348 2 0.0706638 7.4512 11.4102 17.409 H
277 2 0.1061 5.38169 14.8191 9.79572 H
185 3 -0.637907 9.61377 9.77319 14.1734 O
199 2 0.253443 12.312 14.6595 14.2325 H
340 3 -0.680534 9.77604 12.5486 15.511 O
347 2 0.316276 9.93835 11.5399 15.2768 H
197 2 0.0299676 14.0191 9.30209 14.4063 H
314 2 0.0653321 10.0989 12.3653 11.7445 H
343 2 0.286348 9.7446 15.1308 12.212 H
221 2 -0.0125725 11.6994 9.07318 12.7134 H
58 4 0.613454 9.63738 8.80039 9.96136 Si
64 4 0.563665 10.1854 9.97976 12.6324 Si
100 1 -0.0952149 10.7936 11.973 12.4683 C
316 2 0.0968842 10.7739 12.5075 13.4096 H
297 2 0.00109645 11.7092 10.1277 9.65961 H
315 2 0.022855 11.7977 11.8179 12.1064 H
94 1 -0.111222 10.917 10.0982 8.94014 C
364 2 0.295066 10.6633 12.8378 15.7459 H
298 2 0.059541 10.3694 11.0231 8.81772 H
ITEM: TIMESTEP
100
ITEM: NUMBER OF ATOMS
365
ITEM: BOX BOUNDS xy xz yz pp pp pp
-6.9345999999999997e+00 1.9702400000000001e+01 -6.9345999999999997e+00
0.0000000000000000e+00 1.6215588000000000e+01 2.0880000000000001e+00
0.0000000000000000e+00 1.7464200000000002e+01 1.2317879999999999e+00
ITEM: ATOMS id type q x y z element
2 4 1.01548 2.4628 2.31997 1.08404 Si
4 4 0.695786 3.31162 3.19282 5.49933 Si
8 4 0.264631 -0.0601251 3.61631 2.00061 Si
10 4 1.18186 3.01941 5.3907 7.46627 Si
68 1 -0.125414 -1.27074 6.73329 5.87437 C
78 1 -0.0977299 1.4702 5.96039 3.60248 C
105 3 -0.654655 1.52199 3.51223 1.62579 O
107 3 -0.737851 2.5316 4.39922 6.31144 O
191 2 0.0817823 1.15807 1.94542 3.49004 H
192 2 0.00260859 2.82422 1.61397 5.99693 H
193 2 -0.0185209 1.67469 0.712266 0.98291 H
224 2 0.0636087 -0.32958 6.34327 6.21308 H
225 2 0.0323913 -1.68565 6.27266 4.96786 H
353 2 0.0855517 -0.491725 5.35278 0.173172 H
252 2 0.051525 0.827407 6.2961 2.81208 H
253 2 0.0576823 1.05532 5.96427 4.58325 H
254 2 0.088774 2.0363 5.05504 3.37034 H
134 3 -0.752012 1.98734 7.00655 7.47383 O
226 2 0.0330976 -1.97677 6.85945 6.698 H
67 1 -0.080863 -1.15168 5.06048 0.966751 C
66 1 -0.136227 -0.666538 3.17646 3.49247 C
354 2 0.0522677 -1.21157 5.72696 1.81029 H
112 3 -0.760757 2.46544 0.319148 3.73893 O
222 2 0.0323747 -0.61901 3.89406 4.28313 H
30 4 0.783628 2.93036 7.31878 3.59678 Si
139 3 -0.743193 4.07695 7.06255 0.542518 O
23 4 0.551853 9.31613 0.596429 7.85073 Si
240 2 0.11306 8.46642 1.25507 3.16551 H
102 3 -0.793988 3.67091 1.88071 2.08572 O
356 2 0.0885188 4.91091 0.695699 6.80323 H
136 3 -0.684428 4.89504 6.05471 7.13638 O
130 3 -0.674 7.01856 2.91922 0.82693 O
133 3 -0.724576 7.1804 4.28729 7.17629 O
135 3 -0.77429 4.34282 6.8178 4.20303 O
129 3 -0.779127 7.15143 2.70374 3.69962 O
123 3 -0.735603 6.66741 1.97538 6.2601 O
1 4 1.10286 3.92784 0.702351 3.13739 Si
120 3 -0.730769 4.85038 3.40773 5.062 O
255 2 0.127991 5.05462 4.90483 3.48188 H
34 4 1.29872 5.34887 7.04713 5.42009 Si
257 2 0.0636103 5.0512 5.24567 1.73335 H
256 2 0.13294 4.52016 3.64316 2.32494 H
21 4 1.39931 5.99427 2.2364 4.75575 Si
25 4 0.681061 7.84015 2.86075 6.94683 Si
29 4 0.809677 7.08752 3.86047 2.55524 Si
32 4 1.31456 6.28515 5.08192 8.31293 Si
119 3 -0.808459 5.11139 0.96072 4.23802 O
79 1 -0.0736853 5.13683 4.5272 2.4898 C
204 2 0.0667736 7.9893 2.44912 8.60105 H
22 4 1.28388 6.3726 1.03644 0.0660126 Si
3 4 1.04583 1.95259 3.68672 9.66807 Si
7 4 1.12074 3.35448 3.12231 12.2255 Si
12 4 0.833548 1.09353 4.82625 14.2958 Si
13 4 0.659846 -0.400163 7.31845 14.5102 Si
69 1 -0.0794725 2.375 3.9456 15.7134 C
103 3 -0.699902 2.56014 2.57255 10.6378 O
104 3 -0.736397 3.13122 2.05063 13.3975 O
110 3 -0.693105 2.06756 4.866 12.6085 O
111 3 -0.686249 0.619423 6.18184 15.0537 O
261 2 0.0295363 4.1954 7.98108 15.4673 H
227 2 0.0847975 3.32973 3.99546 15.1653 H
228 2 0.0435273 1.87814 2.98794 15.8458 H
229 2 0.0589619 2.29109 4.58581 16.5795 H
82 1 -0.0994169 4.10069 7.32042 12.2555 C
160 3 -0.753279 0.858691 4.75306 10.2042 O
365 2 0.292138 0.99727 5.64363 9.84435 H
195 2 0.357702 1.36758 4.70139 11.8831 H
260 2 0.0673113 8.29742 5.86677 17.2102 H
263 2 0.0292345 3.43298 7.86857 12.8929 H
265 2 0.113353 3.65925 6.43708 11.8335 H
5 4 0.858524 4.0445 0.843709 14.0719 Si
208 2 0.00542004 -0.385387 7.23422 12.8104 H
106 3 -0.75925 3.06274 4.47512 8.78825 O
81 1 -0.12096 4.64247 7.04345 15.7234 C
77 1 -0.110388 6.56769 3.61095 14.2398 C
262 2 0.0740591 4.13401 6.52706 16.5266 H
122 3 -0.820203 4.89539 3.26722 11.7867 O
124 3 -0.720564 4.91476 1.26744 15.3725 O
264 2 0.0404094 5.06237 7.16217 12.6933 H
80 1 -0.0997066 7.53826 5.64842 16.4658 C
259 2 0.0720222 6.85131 4.87053 16.7643 H
126 3 -0.734487 4.93916 3.52906 16.9724 O
128 3 -0.812707 8.23278 1.22749 12.9918 O
203 2 -0.0140725 5.16671 1.68546 9.68414 H
251 2 0.0325194 6.0154 4.5457 14.2636 H
127 3 -0.864625 7.36822 2.57417 10.731 O
250 2 0.0397453 7.6203 3.62785 14.5391 H
335 2 0.0854128 6.03065 0.79483 12.4209 H
125 3 -0.786292 7.10719 1.73606 16.6229 O
132 3 -0.77692 5.78013 4.40113 9.66905 O
258 2 0.017904 7.80818 5.61941 15.4136 H
249 2 0.0963843 6.35888 2.99623 13.3568 H
359 2 0.024409 4.79158 6.37708 14.8989 H
159 3 -0.789529 9.74026 2.2296 16.5374 O
31 4 0.601414 6.5174 7.5007 16.4751 Si
24 4 1.18209 5.87003 3.06067 10.5602 Si
27 4 0.981379 5.81792 2.49257 15.9343 Si
28 4 1.1244 8.55521 2.23573 11.7522 Si
207 2 -0.0153358 1.00619 7.85939 9.8824 H
137 3 -0.72192 3.5933 7.82172 9.37336 O
245 2 0.0373422 7.21491 0.565406 9.28362 H
14 4 0.677188 -5.19945 14.2788 4.80688 Si
15 4 0.675528 -2.78291 10.3104 6.94708 Si
17 4 1.0188 -2.59714 13.1882 5.98063 Si
72 1 -0.0844022 -1.62292 14.7802 7.26852 C
113 3 -0.639943 -1.29853 9.73214 6.59539 O
114 3 -0.717079 -4.17722 13.5477 5.77922 O
115 3 -0.664165 -2.49766 11.8978 7.03751 O
141 3 -0.758089 -1.73275 12.8955 4.59545 O
9 4 0.32591 -1.26707 10.3456 3.04583 Si
327 1 -0.0795311 -2.64493 13.8647 2.05675 C
329 2 0.0359925 -3.40994 13.2507 2.46685 H
328 2 0.07159 -2.71375 14.0738 0.992105 H
349 2 0.123502 -1.66879 13.6204 2.38475 H
108 3 -0.637475 -1.58697 9.04932 3.98672 O
235 2 0.0922703 -0.552849 14.6194 7.1068 H
194 2 0.0186674 -2.7203 10.9495 2.25451 H
11 4 0.779999 -0.88882 8.70702 5.41917 Si
121 3 -0.801375 -0.30817 14.9298 1.16671 O
326 2 0.0265368 -4.56136 12.4925 0.480186 H
236 2 0.0270169 -2.02697 14.5658 8.24973 H
33 4 1.08004 2.20955 8.12483 8.58593 Si
73 1 -0.076705 -0.119053 9.88761 1.33984 C
238 2 0.0838043 -0.077434 8.80814 1.2898 H
239 2 0.0422152 -0.700332 10.3467 0.556205 H
142 3 -0.745813 3.47982 9.79393 0.140787 O
310 2 0.089315 3.13143 10.9971 3.105 H
350 2 0.340105 1.5022 8.46015 6.13609 H
237 2 0.072261 0.807157 10.3852 1.60711 H
181 3 -0.776443 4.4183 10.8947 8.23777 O
144 3 -0.778944 5.51083 8.64783 5.75501 O
215 2 0.349927 5.31312 8.94861 6.47161 H
143 3 -0.812616 2.09083 9.63009 8.08161 O
146 3 -0.825919 2.74547 11.6067 6.17399 O
360 2 0.0774355 2.33448 12.1922 0.897541 H
98 1 -0.0569567 4.12379 10.9375 3.53124 C
209 2 0.345592 1.14682 9.88012 5.75294 H
336 1 -0.0533158 2.22313 13.1788 0.522282 C
20 4 0.695118 0.862591 14.1268 1.85398 Si
37 4 1.07686 -0.110461 12.7579 4.33634 Si
145 3 -0.781045 0.837878 13.4955 5.43135 O
36 4 1.10219 3.54047 8.47279 1.08976 Si
39 4 1.16401 3.11131 10.6479 7.36286 Si
40 4 1.12611 2.35585 13.2336 5.91845 Si
140 3 -0.745799 0.530315 12.862 2.85602 O
131 3 -0.736948 1.15066 9.0032 5.41122 O
138 3 -0.765993 2.80644 8.45057 2.46758 O
344 2 0.0676621 -4.62907 13.1947 8.20887 H
308 2 0.0997223 4.1398 10.627 4.56524 H
230 2 0.064679 -4.04149 10.2586 4.64489 H
218 2 0.317822 3.52522 13.709 8.27456 H
18 4 1.01413 0.290726 9.75128 15.9265 Si
201 2 0.0847534 -2.61579 12.4735 16.3207 H
233 2 0.0385582 -2.58079 8.81521 9.22384 H
149 3 -0.70318 -0.133316 11.3485 15.7741 O
268 2 0.0423434 -0.575166 11.2419 12.3583 H
323 3 -0.590684 -4.37906 14.4745 14.3509 O
83 1 -0.0793272 0.291425 11.4733 11.7658 C
150 3 -0.703802 0.0744941 14.0737 14.8728 O
206 2 0.350993 -0.0630313 14.8578 15.5044 H
333 1 -0.0942993 -1.71116 15.0772 12.5316 C
322 1 -0.0821125 -2.97566 13.2214 17.0447 C
334 2 0.0759723 -1.42296 14.0749 12.8472 H
116 3 -0.739489 0.137201 8.83127 14.6255 O
267 2 0.0623733 0.209042 12.3645 11.1594 H
118 3 -0.691049 -0.220726 9.28613 17.4002 O
358 2 0.0421329 -2.46011 15.088 11.7302 H
213 2 0.00560793 2.0046 12.8573 16.5385 H
320 4 0.165722 -4.13131 14.3316 16.4446 Si
212 2 -0.0031 5.24464 9.72322 14.9759 H
75 1 -0.101934 1.05928 14.8075 9.27143 C
266 2 0.0713542 0.75685 10.6093 11.3102 H
187 3 -0.680968 4.93241 12.1696 12.7564 O
244 2 0.037551 0.777894 13.839 8.89994 H
41 4 0.771282 4.01759 10.8457 12.6643 Si
42 4 0.614713 0.727542 12.6767 15.4064 Si
152 3 -0.673264 2.10698 13.514 12.9006 O
189 3 -0.653659 5.24371 12.3903 15.4325 O
157 3 -0.753713 3.03113 15.212 14.8535 O
38 4 0.652093 4.91578 10.9607 16.1318 Si
338 2 0.11172 3.83884 14.1095 17.0312 H
169 3 -0.751117 5.97637 8.54243 10.4965 O
148 3 -0.711248 3.49899 10.3812 11.2224 O
182 3 -0.694047 3.98014 12.946 10.0592 O
62 4 0.799372 4.55905 11.4459 9.76899 Si
35 4 0.811968 4.37876 8.56458 10.5964 Si
243 2 0.0956027 1.6283 14.7871 10.1961 H
341 2 0.0219359 3.20793 10.8733 16.298 H
43 4 0.42709 1.64044 11.9612 13.2532 Si
151 3 -0.687184 2.74031 10.4355 14.1778 O
26 4 1.22347 1.87608 14.8983 13.7342 Si
202 2 0.366942 3.49449 12.901 10.9141 H
210 2 0.278111 2.12639 9.68408 13.8704 H
51 4 1.03745 11.044 3.7404 0.632665 Si
52 4 0.747133 7.42318 6.72142 3.28164 Si
54 4 0.623998 10.4241 7.03549 5.6415 Si
89 1 -0.110492 11.3013 4.18517 2.67726 C
91 1 -0.061786 9.43352 6.33196 7.29224 C
162 3 -0.799348 10.85 2.14941 0.546964 O
164 3 -0.706315 8.27493 4.9125 2.72843 O
176 3 -0.673979 8.2706 7.07635 0.164645 O
248 2 0.101253 8.9574 3.91511 4.9946 H
214 2 0.0460263 9.85904 5.8548 4.53422 H
53 4 0.801915 8.69117 5.65475 0.769026 Si
290 2 0.0454495 10.0793 5.57398 7.68369 H
76 1 -0.08882 9.33827 3.12115 5.64017 C
246 2 0.0552033 9.35141 2.1375 5.16978 H
165 3 -0.726146 6.7609 6.70682 4.77134 O
154 3 -0.666716 10.1274 1.88994 8.4224 O
247 2 0.0508125 10.2768 3.33121 6.13187 H
288 2 0.144188 8.44353 6.02361 7.01715 H
289 2 0.0900359 9.42542 7.2691 7.81783 H
282 2 0.0556748 11.1828 5.25237 2.67975 H
284 2 0.0651663 10.4746 3.63407 3.10125 H
166 3 -0.705474 9.8713 4.72124 0.0239051 O
241 2 0.0911136 9.57197 1.00658 1.76471 H
346 2 0.308859 8.06951 2.80928 0.710803 H
363 2 0.011038 16.8063 2.11284 6.31697 H
74 1 -0.076793 9.10562 0.59047 2.66569 C
283 2 0.0369298 12.3108 3.82458 2.94503 H
342 2 0.0135947 16.5184 2.13908 3.61785 H
223 2 0.0386751 15.5405 4.58621 0.683623 H
190 2 0.010404 16.3559 1.95319 6.20176 H
357 2 0.0184205 17.4059 0.47815 0.348756 H
167 3 -0.609334 12.0293 6.81929 5.75934 O
361 2 0.0138229 15.0893 0.432625 1.83697 H
362 2 0.0418262 13.7332 0.847021 2.97026 H
272 2 0.0486886 12.8239 6.76862 2.61909 H
217 2 0.284099 5.92485 7.45719 1.66674 H
46 4 0.681529 10.8749 1.83646 9.8503 Si
49 4 1.08895 10.7687 1.4882 15.5826 Si
86 1 -0.0965549 11.2352 2.85634 13.9234 C
95 1 -0.134034 10.6423 7.25648 10.0993 C
155 3 -0.749218 9.96485 1.77344 11.1909 O
158 3 -0.785301 12.1966 1.0537 16.3359 O
273 2 0.0343337 10.4412 3.5806 14.0332 H
274 2 0.090091 11.1736 2.2674 13.0187 H
275 2 0.0812977 12.2215 3.28769 14.0448 H
300 2 0.0208308 10.974 7.2501 11.1211 H
301 2 0.0168331 11.4104 7.35694 9.35551 H
302 2 0.0609546 9.90144 6.48686 9.86634 H
93 1 -0.121522 8.97237 6.72846 13.7818 C
296 2 0.0526928 9.19155 6.23262 14.7197 H
90 1 -0.124661 11.9476 3.7072 9.97308 C
117 3 -0.57622 15.3016 7.8352 16.7962 O
287 2 0.0441799 12.1889 3.9455 8.96069 H
286 2 0.0367735 11.2254 4.3826 10.4218 H
294 2 0.0438732 9.80601 6.89271 13.1414 H
196 2 0.151755 16.3008 5.21749 17.3239 H
276 2 0.0173003 13.2865 1.08249 9.88119 H
295 2 0.0254939 8.15698 6.27767 13.2611 H
168 3 -0.774828 7.21135 6.34013 8.86293 O
351 2 0.324539 14.2645 4.05818 16.0292 H
163 3 -0.755626 14.5644 4.92429 17.4199 O
16 4 0.170514 15.0264 7.86383 15.1611 Si
280 2 0.0347392 15.2567 3.82378 10.6304 H
198 2 0.0438988 13.4283 7.15954 14.7776 H
285 2 0.0190649 12.8079 3.48224 10.6006 H
279 2 0.112399 16.5428 3.60431 11.8901 H
352 2 0.30863 14.4543 5.78348 16.8082 H
281 2 0.0653977 16.1356 2.21345 10.7844 H
45 4 1.26757 13.4704 1.79066 17.0694 Si
332 2 0.0390514 17.101 3.4338 16.1228 H
88 1 -0.0653122 15.814 3.1204 11.2149 C
109 3 -0.612297 17.5279 3.77163 13.9888 O
6 4 0.60538 15.2943 2.32939 14.7864 Si
153 3 -0.718543 14.0463 3.15407 15.4357 O
50 4 -0.0443379 14.4191 2.4246 12.526 Si
330 1 0.0642449 17.284 3.01053 15.1367 C
331 2 0.0768167 17.8323 2.07783 15.2036 H
55 4 1.11315 6.98639 7.89309 9.34671 Si
205 2 -0.0332974 8.96898 3.73546 12.4703 H
44 4 1.16166 6.08513 13.8566 1.31531 Si
60 4 1.01625 4.68527 13.0133 3.93264 Si
147 3 -0.695966 3.44143 14.3875 7.53168 O
63 4 0.311857 6.54789 13.5471 6.23217 Si
175 3 -0.661712 6.40927 8.1561 2.2371 O
177 3 -0.786339 4.98505 13.547 2.39464 O
180 3 -0.745264 6.94689 12.4897 1.01869 O
184 3 -0.642009 6.06858 12.8596 4.81536 O
59 4 0.874941 8.08872 8.53091 1.04628 Si
220 2 0.0779465 5.78555 12.6488 7.54407 H
292 2 0.138586 6.68942 9.38369 4.06356 H
178 3 -0.740814 3.44148 13.7119 4.75661 O
293 2 0.101599 7.51274 11.0076 3.87758 H
92 1 -0.0437229 7.44796 10.0674 4.40368 C
298 2 0.0704394 10.0341 10.9758 8.35298 H
339 3 -0.831732 5.53905 14.9249 0.235379 O
179 3 -0.710359 8.17871 10.1265 0.563431 O
269 2 0.0702796 7.78772 14.3647 3.30863 H
291 2 0.106374 7.59782 10.1691 5.48745 H
61 4 0.867643 7.03602 11.1814 0.0986702 Si
337 2 0.104248 3.08879 13.8054 0.666218 H
242 2 0.114645 2.83517 15.0587 3.35576 H
84 1 -0.120199 7.43621 15.0678 2.56839 C
321 1 -0.11103 9.95893 14.5375 0.233944 C
96 1 0.0712887 10.9696 10.2207 1.71136 C
271 2 0.0393225 12.5375 8.57439 2.61351 H
325 2 0.0357713 9.82377 13.9641 1.12766 H
171 3 -0.67695 9.10422 7.80035 2.78358 O
219 2 0.038967 5.99864 15.1778 6.36971 H
234 2 0.0206005 13.4763 8.67734 8.29451 H
305 2 0.114273 10.3385 11.0122 1.23689 H
355 2 0.310472 10.6383 11.4394 5.03736 H
85 1 -0.108964 13.1902 7.75356 2.85264 C
97 1 0.0836165 10.9834 12.9012 3.91712 C
306 2 0.072437 11.4743 12.3747 3.18216 H
172 3 -0.644369 9.83101 8.51962 5.30981 O
309 2 0.0782381 4.88176 10.4825 2.90112 H
231 2 0.0644489 12.3097 10.0489 5.98998 H
183 3 -0.56441 10.3326 12.4119 4.94485 O
303 2 0.0295813 12.0478 10.385 1.62423 H
304 2 0.0831533 10.7659 9.36394 1.14502 H
56 4 0.865026 9.28621 9.09378 3.80914 Si
170 3 -0.573395 10.4088 10.1897 3.13991 O
70 1 -0.110521 13.2725 9.80659 5.58199 C
299 2 0.0348654 11.398 9.79931 8.26702 H
307 2 0.0631117 10.3924 13.7423 3.6079 H
348 2 0.0640912 5.50684 10.346 0.0865511 H
19 4 0.61055 13.6924 8.20922 0.199584 Si
47 4 0.321261 13.1444 7.76157 5.01817 Si
270 2 0.0664418 14.2511 7.9476 2.73268 H
345 2 0.0459156 12.4025 12.7641 8.38248 H
71 1 -0.134402 14.2229 9.32693 8.72899 C
173 3 -0.662873 7.36889 8.65003 15.6399 O
65 4 0.789414 5.85825 12.7329 13.9589 Si
156 3 -0.617655 8.42604 15.6246 14.5614 O
99 1 -0.0795492 6.6618 11.436 10.2024 C
101 1 -0.0972076 7.83195 11.9454 13.7265 C
188 3 -0.621497 5.72989 14.7583 13.5151 O
48 4 0.726951 7.72403 15.0174 13.1259 Si
311 2 0.0509366 6.87685 12.4754 10.419 H
312 2 0.0890788 7.14997 11.0489 9.32395 H
313 2 0.0921147 6.70186 10.7971 11.0685 H
317 2 0.0742531 7.74725 11.0335 14.3066 H
318 2 0.100462 8.50049 12.7079 14.1195 H
319 2 0.0440092 7.84626 11.8589 12.6637 H
211 2 0.330269 5.74048 15.1007 14.4664 H
57 4 0.648102 8.34094 8.58136 14.3818 Si
161 3 -0.679986 8.82207 14.6655 12.0284 O
186 3 -0.644396 9.18486 9.52249 11.5138 O