ITEM: TIMESTEP
0
ITEM: NUMBER OF ATOMS
365
ITEM: BOX BOUNDS xy xz yz pp pp pp
-6.9345999999999997e+00 1.9702400000000001e+01 -6.9345999999999997e+00
0.0000000000000000e+00 1.5863300000000001e+01 2.0880000000000001e+00
0.0000000000000000e+00 1.7464200000000002e+01 8.7949999999999995e-01
ITEM: ATOMS id type q x y z element
2 4 1.02875 2.36461 2.29426 1.04656 Si
4 4 0.687499 3.18577 3.25662 5.38431 Si
8 4 0.267681 0.001197 3.73901 2.03159 Si
10 4 1.11911 2.94405 5.41571 7.39031 Si
68 1 -0.130075 -1.37537 6.69438 5.7159 C
78 1 -0.0965899 1.53564 6.00246 3.69618 C
105 3 -0.667869 1.61384 3.52057 1.77467 O
107 3 -0.731572 2.47066 4.51884 6.08646 O
191 2 0.0923871 2.37825 3.33604 3.75188 H
192 2 0.0094835 2.86655 1.81315 6.24726 H
193 2 -0.0365116 1.28008 0.916913 0.953548 H
224 2 0.0539588 -0.467035 6.35285 6.27144 H
225 2 0.0264763 -1.49616 6.28066 4.71746 H
106 3 -0.757805 2.97865 4.40256 8.64265 O
252 2 0.0392271 0.644131 6.47401 3.31277 H
253 2 0.0877686 1.4627 5.7268 4.74762 H
254 2 0.0972807 1.99509 5.26546 3.08469 H
134 3 -0.747847 1.92758 7.06955 7.51265 O
363 2 0.0105952 0.750859 1.52668 7.37114 H
67 1 -0.102326 -1.14401 5.04099 0.932199 C
66 1 -0.124333 -0.757603 3.36503 3.47343 C
354 2 0.0656743 -1.1545 6.05183 1.29228 H
112 3 -0.748172 2.41339 0.533764 3.91712 O
222 2 0.0319961 -0.89306 4.15448 4.19892 H
30 4 0.79649 2.84126 7.51798 3.76326 Si
139 3 -0.722658 4.07724 7.09882 0.484966 O
23 4 0.551548 9.35888 0.580181 7.98783 Si
240 2 0.114088 8.37638 1.37399 3.26016 H
102 3 -0.739568 3.65316 1.84374 2.01492 O
356 2 0.0526949 4.5103 0.52303 7.14967 H
136 3 -0.693047 4.83459 5.96207 7.08749 O
130 3 -0.683017 7.19389 2.83051 0.894774 O
133 3 -0.71715 7.16384 4.31925 7.31189 O
135 3 -0.77237 4.30069 7.01871 4.19626 O
129 3 -0.736077 7.11599 2.82586 3.80527 O
123 3 -0.723746 6.72158 1.81352 6.2867 O
1 4 1.04015 3.87893 0.681761 3.12725 Si
120 3 -0.720055 4.78573 3.3991 5.08227 O
255 2 0.11823 4.86865 4.97489 3.42602 H
34 4 1.26502 5.36224 6.98281 5.37943 Si
257 2 0.0512947 5.10122 5.24674 1.6827 H
256 2 0.129229 4.593 3.59425 2.26924 H
21 4 1.33292 5.91336 2.20665 4.8167 Si
25 4 0.687989 7.72746 2.83368 7.08176 Si
29 4 0.839074 7.05886 3.82454 2.55087 Si
32 4 1.33722 6.22207 5.2079 8.33235 Si
119 3 -0.783679 5.14144 0.940834 4.09618 O
79 1 -0.0769493 5.10124 4.51994 2.49213 C
204 2 0.0925985 7.88461 2.29798 8.7273 H
3 4 0.999306 1.85709 3.63477 9.55768 Si
7 4 1.14281 3.33116 3.04065 12.1581 Si
12 4 0.805074 1.13215 4.87015 14.4157 Si
13 4 0.582361 -0.451554 7.31462 14.6626 Si
69 1 -0.0809035 2.70742 4.06481 15.5552 C
103 3 -0.736218 2.34041 2.73429 10.8603 O
104 3 -0.714835 2.98427 2.00022 13.5278 O
110 3 -0.681288 2.3184 4.8499 12.7396 O
111 3 -0.645898 0.934766 6.44391 14.8269 O
261 2 0.0405109 4.18392 7.83704 15.3798 H
227 2 0.090095 3.52673 3.93723 14.8768 H
228 2 0.0479223 2.38129 3.1327 15.9685 H
229 2 0.0543571 2.87409 4.74629 16.3666 H
82 1 -0.0867237 4.01787 6.97674 12.1235 C
160 3 -0.716744 0.776207 4.6451 10.1421 O
365 2 0.275137 0.594769 5.40375 9.51507 H
195 2 0.355825 1.64299 4.71742 12.0782 H
353 2 0.0578869 1.43357 5.86133 17.4465 H
263 2 0.0601816 3.30349 7.3961 12.8133 H
265 2 0.115067 3.66395 6.18769 11.4762 H
5 4 0.887377 3.87749 0.787243 14.0686 Si
208 2 0.0261239 -0.8911 6.96845 13.0273 H
196 2 0.0833263 -0.819761 6.8466 16.4304 H
81 1 -0.127058 4.85796 6.99677 15.3993 C
77 1 -0.115084 6.32278 3.71341 14.4178 C
262 2 0.0559039 4.53676 6.18086 16.0191 H
122 3 -0.827916 4.88645 2.90601 11.8273 O
124 3 -0.757039 4.74974 1.20564 15.3083 O
264 2 0.0382428 5.00352 6.82835 12.5352 H
80 1 -0.0970749 7.55733 5.84668 16.7149 C
259 2 0.0732329 6.89753 5.2915 17.3969 H
126 3 -0.783055 5.00655 3.25576 17.0081 O
128 3 -0.77551 8.07557 1.34034 12.9917 O
203 2 -0.00963889 5.17396 1.69995 9.47999 H
251 2 0.0333374 5.57985 4.47936 14.6279 H
127 3 -0.82493 7.33934 2.46637 10.5595 O
250 2 0.033769 7.36877 3.94125 14.5919 H
335 2 0.087784 5.63633 0.765245 12.13 H
125 3 -0.817277 7.13497 1.74849 16.588 O
132 3 -0.781521 5.71518 4.33736 9.59083 O
258 2 0.0241189 7.61798 5.46313 15.6879 H
249 2 0.103571 6.13057 3.1388 13.4957 H
359 2 0.0168581 5.25167 6.67547 14.4527 H
159 3 -0.793963 9.83477 2.13876 16.4709 O
31 4 0.603623 6.51006 7.63779 16.4501 Si
24 4 1.10873 5.82994 2.99061 10.4831 Si
27 4 1.10554 5.79658 2.30994 15.9387 Si
28 4 1.04283 8.45833 2.33258 11.7111 Si
22 4 1.27054 8.55085 1.88827 17.4154 Si
14 4 0.686065 -5.09714 14.2451 4.71482 Si
15 4 0.661728 -2.79638 10.1924 6.80818 Si
17 4 1.02146 -2.6132 13.0699 6.00704 Si
72 1 -0.089973 -1.72774 14.6951 7.19724 C
113 3 -0.661187 -1.36153 9.56586 6.4062 O
114 3 -0.711843 -4.22629 13.4665 5.81963 O
115 3 -0.6785 -2.69046 11.8339 7.07901 O
141 3 -0.809918 -1.60934 12.9011 4.73435 O
9 4 0.304922 -1.08941 10.4201 3.00698 Si
327 1 -0.0892375 -2.72087 13.795 2.0288 C
329 2 0.008557 -3.49952 13.1196 2.31865 H
328 2 0.0713521 -2.81686 14.1763 1.0411 H
349 2 0.133877 -1.72884 13.504 2.3133 H
108 3 -0.624295 -1.48395 9.01037 3.74971 O
235 2 0.128272 -0.816058 14.8005 6.62591 H
194 2 0.0264745 -2.6429 10.9719 2.38124 H
11 4 0.766785 -0.892426 8.60557 5.24331 Si
121 3 -0.742851 -0.282123 14.8197 1.07182 O
326 2 0.00917048 -5.05003 12.5157 0.890814 H
236 2 0.0299677 -1.61096 14.2971 8.20295 H
33 4 1.01034 2.37027 8.207 8.58781 Si
73 1 -0.0652696 0.246025 9.95719 1.5239 C
238 2 0.0936647 0.198152 8.87955 1.53547 H
239 2 0.0286858 -0.176019 10.3501 0.610616 H
142 3 -0.729843 3.43841 9.83118 0.211099 O
310 2 0.0937281 2.99267 11.0769 3.93417 H
350 2 0.339171 1.40402 8.13231 6.16891 H
237 2 0.0939757 1.18072 10.3853 1.8581 H
181 3 -0.751375 4.49796 11.2063 8.1974 O
144 3 -0.712413 5.25862 8.48145 5.85935 O
215 2 0.247659 5.11136 8.54722 7.02264 H
143 3 -0.746831 2.0641 9.77243 8.11673 O
146 3 -0.822714 2.53735 11.7207 6.24985 O
360 2 0.0728357 2.10961 12.2213 0.828227 H
98 1 -0.0788264 4.03858 10.8845 3.68761 C
209 2 0.374229 1.20506 9.60297 6.03257 H
336 1 -0.049994 2.23229 13.2726 0.613533 C
20 4 0.687259 0.932101 14.2107 1.94758 Si
37 4 1.20043 -0.0473088 12.7837 4.41884 Si
145 3 -0.8078 0.932874 13.4654 5.46854 O
36 4 1.03173 3.68167 8.5415 1.20688 Si
39 4 1.08611 3.14562 10.7469 7.38449 Si
40 4 1.18573 2.45423 13.2615 6.00961 Si
140 3 -0.776117 0.416515 13.0185 2.94318 O
131 3 -0.740936 1.2241 8.86115 5.49465 O
138 3 -0.731591 2.69608 8.52132 2.501 O
309 2 0.063687 4.2729 10.5902 2.66216 H
308 2 0.0891733 4.54871 10.293 4.46682 H
18 4 1.01623 0.296469 9.78546 15.8477 Si
201 2 0.0966049 -2.10292 12.7195 16.6306 H
233 2 0.0458414 -2.52199 8.88058 8.91124 H
149 3 -0.69013 -0.0802657 11.3438 15.5627 O
268 2 0.0776575 -0.402087 10.746 12.7137 H
323 3 -0.58955 -4.33521 14.1182 14.3658 O
83 1 -0.0760951 0.202201 11.3489 12.0447 C
150 3 -0.696439 0.192453 14.0613 14.881 O
206 2 0.33915 0.154871 14.7642 15.5634 H
333 1 -0.0918015 -1.82519 14.9189 12.5845 C
322 1 -0.0872038 -2.86178 13.23 17.2113 C
334 2 0.10315 -1.15397 14.2832 13.1323 H
116 3 -0.700753 0.0215946 8.89051 14.5366 O
267 2 0.0493789 -0.285308 12.2108 11.6294 H
118 3 -0.716149 -0.268964 9.33447 17.2961 O
358 2 0.0343463 -2.41029 14.3565 11.8896 H
245 2 0.041853 0.156536 15.334 9.25 H
320 4 0.208984 -4.02846 14.2314 16.3419 Si
232 2 0.0456954 -3.41092 10.4302 9.24806 H
75 1 -0.0950454 1.03903 14.7117 9.27036 C
266 2 0.0801043 0.771321 10.762 11.3402 H
187 3 -0.691456 4.93954 12.0863 12.741 O
244 2 0.047513 0.893046 13.7096 8.87378 H
41 4 0.718383 4.00201 10.7541 12.6086 Si
42 4 0.601303 0.895968 12.6507 15.3393 Si
152 3 -0.634431 2.24525 13.6053 12.8483 O
189 3 -0.667258 5.2434 12.3695 15.5417 O
157 3 -0.749759 3.01285 15.195 14.8124 O
38 4 0.663791 4.91757 10.9058 16.2123 Si
338 2 0.119745 3.89532 14.4426 17.1373 H
169 3 -0.730093 6.21372 8.45247 10.4358 O
148 3 -0.670438 3.49202 10.2798 11.1129 O
182 3 -0.682029 4.09707 12.9747 9.93465 O
62 4 0.80234 4.62773 11.4305 9.78614 Si
35 4 0.716719 4.55594 8.44236 10.6899 Si
243 2 0.0980115 1.58671 14.7749 10.1927 H
341 2 0.0124769 3.20887 10.8483 16.3709 H
43 4 0.414379 1.7396 12.0493 13.2112 Si
151 3 -0.688923 2.7186 10.3928 14.0919 O
26 4 1.16275 1.85626 15.027 13.6736 Si
202 2 0.353114 3.6188 13.0166 10.8184 H
210 2 0.290486 2.06259 9.64799 13.9026 H
213 2 0.0147668 2.09585 12.8773 16.5753 H
212 2 0.00781356 5.36387 9.62496 15.1305 H
137 3 -0.718478 3.83315 8.08278 9.27732 O
207 2 0.0162793 1.25128 8.07923 9.95962 H
51 4 1.00949 10.9291 3.65831 0.611013 Si
52 4 0.730375 7.47417 6.69347 3.35511 Si
54 4 0.596315 10.4395 7.09548 5.58583 Si
89 1 -0.114444 11.217 4.03515 2.66045 C
91 1 -0.0563148 9.40741 6.52515 7.27459 C
162 3 -0.788232 10.8857 2.00123 0.533437 O
164 3 -0.682365 8.26955 4.85633 2.80282 O
176 3 -0.682214 8.27389 7.10919 0.153632 O
248 2 0.10192 9.14792 3.43064 5.01858 H
214 2 0.0530751 9.87026 5.90778 4.46902 H
53 4 0.759855 8.66646 5.62901 0.865569 Si
290 2 0.0525877 10.066 5.84519 7.7888 H
76 1 -0.0813096 9.41757 2.97747 5.95327 C
246 2 0.0494476 9.73569 1.94039 5.89238 H
165 3 -0.722375 6.89011 6.54788 4.8575 O
154 3 -0.653101 10.0887 1.91426 8.58045 O
247 2 0.0610627 10.0733 3.58753 6.57223 H
288 2 0.120219 8.5642 6.05521 6.7863 H
289 2 0.123427 9.12629 7.39156 7.83782 H
282 2 0.046716 11.1225 5.11817 2.74751 H
284 2 0.070189 10.3699 3.46846 3.04882 H
166 3 -0.715456 9.53743 4.41492 0.187395 O
241 2 0.0931249 9.75167 1.05489 2.13927 H
346 2 0.355058 8.19936 2.88605 0.632381 H
217 2 0.275442 5.94361 7.31079 1.51973 H
74 1 -0.079303 9.09844 0.683007 2.90289 C
283 2 0.0315774 12.1861 3.62469 2.84235 H
342 2 0.0293926 16.602 2.30561 3.63146 H
223 2 0.0307027 15.5124 4.60509 0.942787 H
190 2 0.0141425 17.4252 1.64341 7.06773 H
85 1 -0.108831 13.2519 7.39258 3.06312 C
226 2 0.0348983 15.3494 6.68062 6.33668 H
361 2 0.0249135 15.2049 0.23853 1.95129 H
362 2 0.0379976 13.7466 0.810626 2.84372 H
272 2 0.0415412 12.9605 6.34854 3.01052 H
167 3 -0.601159 12.0016 6.75672 5.94824 O
219 2 0.0445027 12.9795 0.348827 6.34156 H
270 2 0.0599586 14.2815 7.58591 2.78952 H
46 4 0.663613 10.888 1.98384 9.98567 Si
49 4 1.08411 10.8372 1.42929 15.457 Si
86 1 -0.104846 11.207 2.9345 13.8892 C
95 1 -0.131111 10.4117 6.8524 10.2211 C
155 3 -0.719861 9.90567 1.77634 11.2818 O
158 3 -0.782787 12.2775 0.999218 16.2499 O
273 2 0.0432514 10.6088 3.78104 14.2153 H
274 2 0.0811302 10.8436 2.41643 13.0037 H
275 2 0.080021 12.2885 3.04092 13.927 H
300 2 0.0138493 11.0818 6.89458 11.0826 H
301 2 0.0238483 10.9006 6.69584 9.26221 H
302 2 0.0698706 9.54169 6.24167 10.3548 H
93 1 -0.123521 8.83505 6.80526 14.0434 C
296 2 0.0670269 9.77954 6.63731 14.5312 H
90 1 -0.134163 12.0753 3.81148 9.99224 C
295 2 0.013246 7.96024 6.31594 14.4405 H
287 2 0.0487271 12.0353 4.17483 8.96291 H
286 2 0.0253029 11.4986 4.37245 10.701 H
294 2 0.0355029 8.88006 6.79656 12.9672 H
87 1 -0.0964669 12.5865 0.851537 10.0481 C
260 2 0.0620919 8.49395 6.1996 17.1412 H
168 3 -0.78191 7.09382 6.48121 8.92798 O
278 2 0.0612372 12.9098 0.999516 11.0503 H
205 2 -0.0311476 8.71838 4.00368 12.2706 H
163 3 -0.755598 14.3239 4.99016 17.2565 O
16 4 0.237958 14.903 7.97724 15.1236 Si
280 2 0.0450926 15.4962 3.91907 10.703 H
198 2 0.0390966 13.7415 6.7024 14.724 H
285 2 0.0162906 13.0483 3.50752 10.3227 H
279 2 0.110104 16.8049 3.17017 11.6144 H
352 2 0.319261 14.3975 6.00816 17.1312 H
281 2 0.0479863 15.9573 2.18805 10.3611 H
45 4 1.25702 13.5002 1.77466 16.9559 Si
332 2 0.0451067 17.1515 3.50902 16.3 H
88 1 -0.0638304 15.9265 3.01166 11.0715 C
109 3 -0.612986 17.3881 4.06671 14.1933 O
6 4 0.640194 15.4581 2.31701 14.7509 Si
153 3 -0.710892 14.138 3.13251 15.3226 O
50 4 -0.0404332 14.5648 2.28715 12.4353 Si
330 1 0.0441172 17.43 3.14293 15.2971 C
331 2 0.069814 18.0702 2.23459 15.2612 H
351 2 0.348169 14.3238 4.03972 15.9532 H
276 2 0.0208373 13.2112 1.33889 9.31467 H
117 3 -0.616315 15.0119 8.04328 16.7018 O
357 2 0.0237511 19.0706 1.24642 17.2746 H
44 4 1.07083 5.95622 13.867 1.29622 Si
60 4 0.99565 4.784 12.9382 3.94117 Si
147 3 -0.69867 3.56742 14.4364 7.6002 O
63 4 0.334835 6.54359 13.6815 6.25893 Si
175 3 -0.689342 6.41328 8.05287 2.08419 O
177 3 -0.769007 4.77054 13.5446 2.42978 O
180 3 -0.727604 6.89994 12.6019 0.895819 O
184 3 -0.651889 6.17808 13.0326 4.8047 O
59 4 0.98936 7.97519 8.47285 1.02321 Si
220 2 0.0968984 5.76705 12.8102 7.5576 H
292 2 0.0871953 6.59413 9.66393 3.86803 H
178 3 -0.73647 3.64424 13.6622 4.90333 O
293 2 0.0995886 7.56247 11.227 4.0087 H
92 1 -0.0760614 7.38801 10.2119 4.36965 C
218 2 0.353797 3.76931 13.7485 8.30352 H
339 3 -0.776812 5.62408 14.8517 0.0546082 O
179 3 -0.717039 8.01801 9.98178 0.420288 O
269 2 0.0927012 7.59261 14.2338 3.32922 H
291 2 0.0863205 7.3939 10.1064 5.42796 H
61 4 0.826036 6.96707 11.2352 0.0265871 Si
337 2 0.114843 3.23387 13.5879 0.760849 H
242 2 0.105517 2.6307 15.0671 3.68126 H
84 1 -0.106549 7.42199 14.9647 2.55414 C
321 1 -0.109165 10.1196 14.3014 0.107318 C
96 1 0.0792682 10.9978 10.2462 1.78285 C
271 2 0.0336226 12.528 8.08683 2.66393 H
325 2 0.015147 10.6443 14.2162 1.05555 H
171 3 -0.697315 9.01075 7.83162 2.82301 O
344 2 0.0606807 12.1328 12.5003 7.82773 H
234 2 0.0142221 13.3237 8.98927 8.54442 H
305 2 0.0969724 10.465 10.7589 1.02464 H
355 2 0.318512 10.4158 11.6895 5.10513 H
345 2 0.0945993 12.8064 12.5101 7.83048 H
97 1 0.0754731 10.8847 13.1557 3.82842 C
306 2 0.0607799 11.4406 12.496 3.08834 H
172 3 -0.63937 10.0088 8.64511 5.20394 O
324 2 0.0741272 9.21855 13.7104 0.109359 H
231 2 0.0719015 12.1021 9.84204 6.28978 H
183 3 -0.565686 10.2592 12.6309 4.91635 O
303 2 0.0493178 11.9168 10.8088 1.91148 H
304 2 0.0728031 11.2614 9.18564 1.48968 H
56 4 0.860071 9.20481 9.13317 3.81785 Si
170 3 -0.558376 10.3457 10.2255 3.12006 O
70 1 -0.110111 13.0071 9.74584 5.71348 C
299 2 0.0559222 11.1096 9.55059 8.0134 H
307 2 0.0557826 10.3637 13.9944 3.29705 H
230 2 0.0617994 13.0613 10.3101 4.80426 H
19 4 0.613514 13.6865 8.24853 0.19037 Si
200 2 -0.0182829 12.8718 9.75846 0.253753 H
47 4 0.311014 13.0241 7.75867 5.18728 Si
71 1 -0.124254 14.2517 9.52928 8.66989 C
173 3 -0.664873 7.33919 8.87001 15.6226 O
65 4 0.818054 5.71082 12.6927 14.0236 Si
156 3 -0.623956 8.49287 15.6329 14.6041 O
99 1 -0.0892907 6.74866 11.4695 10.0658 C
101 1 -0.0876187 7.54076 11.7899 13.8736 C
188 3 -0.640014 5.86086 14.7698 13.6554 O
48 4 0.767758 7.82641 15.004 13.2118 Si
311 2 0.0651243 6.83846 12.275 10.7777 H
312 2 0.0527307 7.05874 11.7292 9.0691 H
313 2 0.107982 6.99421 10.4711 10.4014 H
317 2 0.0884814 7.71107 11.4206 14.8537 H
318 2 0.0724461 8.19065 12.5737 13.5948 H
319 2 0.0522068 7.56966 10.9894 13.1566 H
211 2 0.35329 5.88191 15.046 14.5833 H
57 4 0.649761 8.33458 8.76471 14.3921 Si
161 3 -0.681142 8.88443 14.6965 12.0252 O
186 3 -0.658399 9.2826 9.48888 11.4028 O
174 3 -0.711955 8.38375 8.81743 8.87681 O
55 4 1.11067 6.97065 8.07885 9.07478 Si
216 2 0.0316673 7.38859 8.91161 12.9672 H
348 2 0.0706638 7.4512 11.4102 17.409 H
277 2 0.1061 5.38169 14.8191 9.79572 H
185 3 -0.637907 9.61377 9.77319 14.1734 O
199 2 0.253443 12.312 14.6595 14.2325 H
340 3 -0.680534 9.77604 12.5486 15.511 O
347 2 0.316276 9.93835 11.5399 15.2768 H
197 2 0.0299676 14.0191 9.30209 14.4063 H
314 2 0.0653321 10.0989 12.3653 11.7445 H
343 2 0.286348 9.7446 15.1308 12.212 H
221 2 -0.0125725 11.6994 9.07318 12.7134 H
58 4 0.613454 9.63738 8.80039 9.96136 Si
64 4 0.563665 10.1854 9.97976 12.6324 Si
100 1 -0.0952149 10.7936 11.973 12.4683 C
316 2 0.0968842 10.7739 12.5075 13.4096 H
297 2 0.00109645 11.7092 10.1277 9.65961 H
315 2 0.022855 11.7977 11.8179 12.1064 H
94 1 -0.111222 10.917 10.0982 8.94014 C
364 2 0.295066 10.6633 12.8378 15.7459 H
298 2 0.059541 10.3694 11.0231 8.81772 H
ITEM: TIMESTEP
100
ITEM: NUMBER OF ATOMS
365
ITEM: BOX BOUNDS xy xz yz pp pp pp
-6.9345999999999997e+00 2.0002075999999999e+01 -6.9345999999999997e+00
0.0000000000000000e+00 1.5863300000000001e+01 2.3876759999999990e+00
0.0000000000000000e+00 1.7464200000000002e+01 8.7949999999999995e-01
ITEM: ATOMS id type q x y z element
2 4 1.01476 2.4583 2.31794 1.08318 Si
4 4 0.695701 3.31157 3.1928 5.49932 Si
8 4 0.263946 -0.0603828 3.61912 1.99792 Si
10 4 1.18189 3.01943 5.39071 7.46626 Si
68 1 -0.125438 -1.27073 6.7333 5.87438 C
78 1 -0.0975875 1.47011 5.96042 3.60235 C
105 3 -0.654111 1.52302 3.51406 1.62472 O
107 3 -0.737757 2.53159 4.39923 6.31147 O
191 2 0.0817224 1.15752 1.94558 3.48984 H
192 2 0.00263625 2.82412 1.614 5.99695 H
193 2 -0.0196138 1.6476 0.727479 0.971009 H
224 2 0.063599 -0.329573 6.34327 6.21306 H
225 2 0.0323085 -1.68569 6.27266 4.96789 H
353 2 0.085422 -0.499755 5.36203 0.190783 H
252 2 0.0516512 0.827262 6.29579 2.81182 H
253 2 0.0577313 1.05521 5.9645 4.58311 H
254 2 0.0888648 2.03632 5.05507 3.37047 H
134 3 -0.75204 1.98732 7.00656 7.47383 O
226 2 0.0331047 -1.97673 6.85948 6.69803 H
67 1 -0.0811396 -1.16661 5.06324 0.970833 C
66 1 -0.136095 -0.666057 3.17745 3.48951 C
354 2 0.0518736 -1.22547 5.72405 1.81694 H
112 3 -0.760757 2.46554 0.3191 3.73882 O
222 2 0.0323968 -0.618061 3.8946 4.28053 H
30 4 0.783918 2.93043 7.31876 3.59668 Si
139 3 -0.743253 4.07692 7.06263 0.542415 O
23 4 0.551819 9.31612 0.59644 7.85071 Si
240 2 0.113047 8.46643 1.25505 3.16545 H
102 3 -0.795295 3.66719 1.8777 2.08455 O
356 2 0.0885048 4.91097 0.695711 6.80319 H
136 3 -0.684422 4.89509 6.05474 7.13635 O
130 3 -0.677346 7.01851 2.92033 0.826491 O
133 3 -0.724567 7.18042 4.28728 7.17627 O
135 3 -0.774297 4.34283 6.81778 4.20302 O
129 3 -0.779375 7.1514 2.70374 3.69956 O
123 3 -0.735568 6.6674 1.97539 6.26008 O
1 4 1.10341 3.9274 0.702721 3.13706 Si
120 3 -0.7307 4.85034 3.40769 5.06199 O
255 2 0.127923 5.05417 4.90393 3.4816 H
34 4 1.29884 5.34885 7.04714 5.42009 Si
257 2 0.0635777 5.05061 5.24461 1.73311 H
256 2 0.13231 4.51963 3.64097 2.32466 H
21 4 1.39864 5.99416 2.23614 4.75569 Si
25 4 0.681164 7.84007 2.86072 6.94671 Si
29 4 0.809992 7.08756 3.86082 2.55584 Si
32 4 1.31463 6.28515 5.08192 8.31292 Si
119 3 -0.809032 5.11086 0.960818 4.23749 O
79 1 -0.0740823 5.13608 4.52619 2.48958 C
204 2 0.066781 7.98924 2.44915 8.60094 H
22 4 1.27275 6.34581 1.06846 0.0676278 Si
3 4 1.04568 1.95244 3.68671 9.66787 Si
7 4 1.12041 3.35445 3.1227 12.2254 Si
12 4 0.833886 1.09352 4.82624 14.2958 Si
13 4 0.659793 -0.400166 7.31834 14.5104 Si
69 1 -0.0795257 2.37484 3.94681 15.7139 C
103 3 -0.699739 2.56006 2.57254 10.6375 O
104 3 -0.736104 3.13097 2.05086 13.3974 O
110 3 -0.693073 2.06729 4.86644 12.6086 O
111 3 -0.685939 0.61955 6.18187 15.0537 O
261 2 0.0295936 4.19541 7.98108 15.4673 H
227 2 0.0846418 3.33057 3.99939 15.1677 H
228 2 0.0435966 1.87884 2.98839 15.8426 H
229 2 0.0590249 2.2878 4.58516 16.5809 H
82 1 -0.0993057 4.1007 7.32046 12.2555 C
160 3 -0.753294 0.858681 4.75309 10.2042 O
365 2 0.292096 0.997278 5.6437 9.84448 H
195 2 0.357708 1.36734 4.70165 11.8832 H
260 2 0.0671097 8.29739 5.86686 17.2102 H
263 2 0.0293114 3.43298 7.8686 12.893 H
265 2 0.113373 3.65927 6.43711 11.8335 H
5 4 0.857932 4.04503 0.844081 14.0709 Si
208 2 0.00548715 -0.384985 7.23425 12.8106 H
106 3 -0.759225 3.06278 4.47516 8.78827 O
81 1 -0.12084 4.64241 7.04343 15.7235 C
77 1 -0.110497 6.56796 3.61142 14.2392 C
262 2 0.074291 4.13386 6.52706 16.5266 H
122 3 -0.820183 4.89545 3.26728 11.7866 O
124 3 -0.720001 4.91518 1.26794 15.3719 O
264 2 0.0404507 5.06238 7.16222 12.6934 H
80 1 -0.10035 7.53825 5.64845 16.4658 C
259 2 0.070969 6.85124 4.87062 16.7643 H
126 3 -0.7342 4.94031 3.53082 16.9733 O
128 3 -0.81265 8.23279 1.2275 12.9917 O
203 2 -0.0140169 5.16677 1.68543 9.68412 H
251 2 0.0324893 6.01561 4.54603 14.2634 H
127 3 -0.864649 7.36825 2.57417 10.731 O
250 2 0.0392024 7.62047 3.62797 14.5388 H
335 2 0.0854515 6.03134 0.794072 12.42 H
125 3 -0.790493 7.10634 1.73595 16.6224 O
132 3 -0.776899 5.78015 4.40116 9.66905 O
258 2 0.017707 7.80814 5.61945 15.4136 H
249 2 0.0964734 6.3587 2.99616 13.3568 H
359 2 0.0244289 4.79157 6.37704 14.899 H
159 3 -0.780757 9.7393 2.22951 16.5378 O
31 4 0.601723 6.51737 7.50071 16.4751 Si
24 4 1.18211 5.87008 3.06068 10.5602 Si
27 4 0.979858 5.81805 2.49304 15.934 Si
28 4 1.12439 8.55523 2.23575 11.7522 Si
207 2 -0.015339 1.00619 7.85935 9.88243 H
137 3 -0.721964 3.59328 7.8217 9.37337 O
245 2 0.0373431 7.21491 0.565419 9.28364 H
14 4 0.677166 -5.19919 14.279 4.80668 Si
15 4 0.675606 -2.7829 10.3104 6.9471 Si
17 4 1.01867 -2.59715 13.1882 5.98064 Si
72 1 -0.0844267 -1.6229 14.7802 7.26854 C
113 3 -0.639899 -1.29852 9.73216 6.59541 O
114 3 -0.717068 -4.17722 13.5477 5.77923 O
115 3 -0.664151 -2.49763 11.8978 7.03753 O
141 3 -0.758022 -1.73279 12.8955 4.59544 O
9 4 0.325888 -1.26709 10.3456 3.04583 Si
327 1 -0.0798423 -2.64508 13.8654 2.05709 C
329 2 0.0361163 -3.4099 13.2512 2.46738 H
328 2 0.0717915 -2.7141 14.074 0.992345 H
349 2 0.122886 -1.66876 13.6213 2.3848 H
108 3 -0.637587 -1.58697 9.0493 3.98674 O
235 2 0.0922258 -0.552831 14.6194 7.10688 H
194 2 0.0186749 -2.72032 10.9494 2.25449 H
11 4 0.779981 -0.888818 8.70703 5.41919 Si
121 3 -0.787807 -0.308785 14.932 1.16457 O
326 2 0.0266021 -4.55819 12.4876 0.479801 H
236 2 0.0270602 -2.02703 14.5659 8.24973 H
33 4 1.08001 2.20953 8.12482 8.58593 Si
73 1 -0.0766916 -0.119103 9.88759 1.33982 C
238 2 0.083805 -0.077529 8.80812 1.28979 H
239 2 0.0422587 -0.700386 10.3467 0.556193 H
142 3 -0.745991 3.47955 9.79435 0.141037 O
310 2 0.0892809 3.1315 10.9969 3.10491 H
350 2 0.340143 1.50221 8.46019 6.13607 H
237 2 0.0723222 0.807124 10.3851 1.60708 H
181 3 -0.776416 4.41829 10.8947 8.23778 O
144 3 -0.77895 5.51085 8.64783 5.75501 O
215 2 0.349903 5.31317 8.94863 6.47157 H
143 3 -0.812554 2.09082 9.63007 8.08161 O
146 3 -0.825968 2.74546 11.6067 6.17402 O
360 2 0.0774023 2.33445 12.1923 0.897528 H
98 1 -0.0571135 4.12374 10.9374 3.53146 C
209 2 0.345563 1.14679 9.88013 5.75287 H
336 1 -0.0524262 2.22299 13.179 0.522334 C
20 4 0.693287 0.862072 14.1274 1.85343 Si
37 4 1.0767 -0.110433 12.7579 4.33622 Si
145 3 -0.781013 0.837821 13.4955 5.43135 O
36 4 1.10234 3.54066 8.47264 1.08991 Si
39 4 1.16408 3.11131 10.6479 7.36285 Si
40 4 1.12605 2.35581 13.2336 5.91853 Si
140 3 -0.745509 0.530321 12.8621 2.85598 O
131 3 -0.737011 1.15065 9.00321 5.41119 O
138 3 -0.766103 2.80648 8.45059 2.46756 O
344 2 0.0677097 -4.62904 13.1947 8.20894 H
308 2 0.0996853 4.13945 10.6272 4.56555 H
230 2 0.0646586 -4.04144 10.2586 4.64487 H
218 2 0.317847 3.52523 13.709 8.27462 H
18 4 1.01356 0.290881 9.75122 15.9264 Si
201 2 0.0847686 -2.61484 12.4726 16.3189 H
233 2 0.0385629 -2.58081 8.81521 9.22389 H
149 3 -0.703309 -0.133416 11.3485 15.7742 O
268 2 0.0422638 -0.575184 11.2419 12.3583 H
323 3 -0.590656 -4.3785 14.474 14.3521 O
83 1 -0.0794049 0.291423 11.4733 11.7658 C
150 3 -0.703706 0.0744298 14.0737 14.8728 O
206 2 0.352365 -0.0630411 14.858 15.5044 H
333 1 -0.0943146 -1.71077 15.0768 12.531 C
322 1 -0.0820389 -2.97273 13.2204 17.0439 C
334 2 0.0759574 -1.42289 14.0746 12.8469 H
116 3 -0.73951 0.137176 8.83112 14.6256 O
267 2 0.0623441 0.209086 12.3645 11.1594 H
118 3 -0.691113 -0.218645 9.28376 17.4005 O
358 2 0.0420799 -2.45971 15.0876 11.7296 H
213 2 0.00625095 2.00462 12.8573 16.5385 H
320 4 0.166372 -4.12759 14.3337 16.4447 Si
212 2 -0.00308489 5.24457 9.72322 14.9757 H
75 1 -0.101962 1.05928 14.8075 9.27144 C
266 2 0.0713142 0.75682 10.6093 11.3102 H
187 3 -0.680954 4.93239 12.1697 12.7564 O
244 2 0.0375438 0.777895 13.839 8.89995 H
41 4 0.771082 4.01759 10.8457 12.6643 Si
42 4 0.615336 0.727499 12.6767 15.4064 Si
152 3 -0.673254 2.10696 13.5139 12.9005 O
189 3 -0.65383 5.2438 12.3903 15.4324 O
157 3 -0.752553 3.03117 15.2121 14.8535 O
38 4 0.651645 4.91559 10.9608 16.1316 Si
338 2 0.112816 3.83884 14.1095 17.0311 H
169 3 -0.751088 5.97635 8.54245 10.4965 O
148 3 -0.711274 3.499 10.3812 11.2224 O
182 3 -0.694094 3.98012 12.946 10.0592 O
62 4 0.799463 4.55904 11.4459 9.76899 Si
35 4 0.811968 4.37875 8.56459 10.5964 Si
243 2 0.0955804 1.6283 14.7871 10.1961 H
341 2 0.0220372 3.20772 10.8735 16.2975 H
43 4 0.427096 1.64042 11.9612 13.2532 Si
151 3 -0.68721 2.7403 10.4355 14.1778 O
26 4 1.22389 1.87613 14.8984 13.7343 Si
202 2 0.366899 3.49441 12.9009 10.914 H
210 2 0.278034 2.12637 9.68403 13.8704 H
51 4 1.03769 11.0445 3.74063 0.632419 Si
52 4 0.747092 7.42326 6.72163 3.28159 Si
54 4 0.624065 10.4241 7.03543 5.64149 Si
89 1 -0.110556 11.3014 4.18524 2.67731 C
91 1 -0.061765 9.43353 6.332 7.29215 C
162 3 -0.799253 10.8498 2.14953 0.546961 O
164 3 -0.706352 8.27506 4.91258 2.72843 O
176 3 -0.674162 8.27026 7.07635 0.164432 O
248 2 0.101231 8.95737 3.91514 4.9946 H
214 2 0.0460376 9.85902 5.85471 4.5343 H
53 4 0.801957 8.69104 5.65497 0.76907 Si
290 2 0.0454703 10.0794 5.57403 7.68353 H
76 1 -0.088827 9.33825 3.12117 5.64015 C
246 2 0.0551843 9.35138 2.13754 5.16974 H
165 3 -0.72606 6.76098 6.70673 4.77149 O
154 3 -0.666665 10.1275 1.88996 8.4224 O
247 2 0.0508354 10.2767 3.33121 6.13183 H
288 2 0.144225 8.44353 6.02363 7.01712 H
289 2 0.0900089 9.42543 7.26913 7.81774 H
282 2 0.0556632 11.1828 5.25244 2.6799 H
284 2 0.0651891 10.4747 3.63414 3.10132 H
166 3 -0.705183 9.87142 4.72137 0.0237839 O
241 2 0.0916806 9.57192 1.00658 1.76467 H
346 2 0.308282 8.07673 2.80761 0.70948 H
363 2 0.0110567 16.8061 2.11302 6.31683 H
74 1 -0.0763592 9.10545 0.590339 2.66558 C
283 2 0.0367614 12.3108 3.82465 2.94511 H
342 2 0.0136407 16.5195 2.13971 3.61466 H
223 2 0.0377119 15.5301 4.58091 0.679244 H
190 2 0.0103824 16.3558 1.95313 6.20163 H
357 2 0.0187826 17.382 0.496128 0.302817 H
167 3 -0.609399 12.0292 6.81936 5.75926 O
361 2 0.0137231 15.09 0.433286 1.83817 H
362 2 0.0417915 13.7324 0.84809 2.96884 H
272 2 0.0484959 12.824 6.76878 2.61875 H
217 2 0.284052 5.92377 7.45633 1.66744 H
46 4 0.681434 10.8749 1.83644 9.85029 Si
49 4 1.08891 10.768 1.48838 15.583 Si
86 1 -0.0967555 11.2352 2.85607 13.9237 C
95 1 -0.134002 10.6423 7.25653 10.0993 C
155 3 -0.749235 9.96486 1.77344 11.1909 O
158 3 -0.784789 12.1963 1.05382 16.3358 O
273 2 0.0340168 10.4414 3.58068 14.033 H
274 2 0.0901073 11.1738 2.26757 13.0186 H
275 2 0.0813165 12.2215 3.28764 14.045 H
300 2 0.020849 10.974 7.25013 11.1211 H
301 2 0.016833 11.4105 7.35703 9.35554 H
302 2 0.0609778 9.9015 6.48689 9.86628 H
93 1 -0.121592 8.97241 6.72846 13.7817 C
296 2 0.0526041 9.19149 6.23256 14.7197 H
90 1 -0.12468 11.9476 3.7072 9.97308 C
117 3 -0.576704 15.3 7.83603 16.796 O
287 2 0.0442231 12.1889 3.9455 8.96069 H
286 2 0.036753 11.2253 4.38261 10.4218 H
294 2 0.0438625 9.8061 6.89272 13.1414 H
196 2 0.14998 16.3158 5.26705 17.3743 H
276 2 0.0173067 13.2865 1.08245 9.88127 H
295 2 0.0254631 8.15707 6.27769 13.261 H
168 3 -0.774822 7.21136 6.34012 8.86292 O
351 2 0.325315 14.265 4.05546 16.0378 H
163 3 -0.755763 14.5645 4.92263 17.4196 O
16 4 0.170971 15.0263 7.86413 15.1609 Si
280 2 0.0347579 15.2567 3.82378 10.6304 H
198 2 0.0440214 13.4287 7.15979 14.7753 H
285 2 0.0190404 12.8079 3.48226 10.6006 H
279 2 0.112431 16.5428 3.60435 11.8901 H
352 2 0.309098 14.4658 5.77798 16.8031 H
281 2 0.065434 16.1356 2.21346 10.7845 H
45 4 1.26691 13.4704 1.79082 17.0691 Si
332 2 0.0401698 17.0997 3.43561 16.1224 H
88 1 -0.0652555 15.814 3.12041 11.2149 C
109 3 -0.612226 17.5281 3.77122 13.9889 O
6 4 0.605386 15.2941 2.32959 14.7864 Si
153 3 -0.718356 14.0466 3.15447 15.4367 O
50 4 -0.0443876 14.419 2.4246 12.5259 Si
330 1 0.0646107 17.2838 3.01052 15.1371 C
331 2 0.0768696 17.8318 2.07761 15.2056 H
55 4 1.11309 6.98639 7.89307 9.34674 Si
205 2 -0.0333469 8.96901 3.73548 12.4703 H
44 4 1.1618 6.08629 13.856 1.31541 Si
60 4 1.01604 4.68544 13.0133 3.93236 Si
147 3 -0.695956 3.44139 14.3875 7.53166 O
63 4 0.311909 6.5479 13.5471 6.23218 Si
175 3 -0.661804 6.40927 8.15568 2.23726 O
177 3 -0.786383 4.98569 13.5465 2.39441 O
180 3 -0.746186 6.94668 12.4905 1.01535 O
184 3 -0.64206 6.06852 12.8595 4.81543 O
59 4 0.877344 8.08779 8.53093 1.04671 Si
220 2 0.0779795 5.78567 12.6489 7.54419 H
292 2 0.13861 6.68987 9.38339 4.06336 H
178 3 -0.740659 3.44147 13.7119 4.75661 O
293 2 0.101552 7.51286 11.0076 3.87744 H
92 1 -0.0437163 7.44806 10.0674 4.40366 C
298 2 0.0704346 10.0341 10.9758 8.35295 H
339 3 -0.831289 5.53908 14.9248 0.235928 O
179 3 -0.708624 8.18242 10.1227 0.568264 O
269 2 0.0702106 7.78601 14.3657 3.30946 H
291 2 0.10637 7.59776 10.1691 5.48748 H
61 4 0.863871 7.03398 11.1834 0.0988146 Si
337 2 0.104526 3.08879 13.8054 0.66619 H
242 2 0.114658 2.83513 15.0588 3.35573 H
84 1 -0.120373 7.43589 15.0687 2.56846 C
321 1 -0.110774 9.96338 14.5296 0.238713 C
96 1 0.0714161 10.9687 10.2204 1.71078 C
271 2 0.0393107 12.5376 8.57465 2.61322 H
325 2 0.033181 9.87988 14.0198 1.17139 H
171 3 -0.676992 9.10389 7.8002 2.78329 O
219 2 0.0389334 5.9987 15.1778 6.36976 H
234 2 0.02061 13.4763 8.67731 8.29448 H
305 2 0.114812 10.3363 11.0111 1.23672 H
355 2 0.310506 10.639 11.4391 5.03738 H
85 1 -0.109141 13.1904 7.75374 2.85213 C
97 1 0.0836973 10.9829 12.9012 3.9176 C
306 2 0.0724609 11.4733 12.3755 3.18172 H
172 3 -0.644341 9.83093 8.51958 5.30977 O
309 2 0.0780768 4.88181 10.482 2.9017 H
231 2 0.0644712 12.3097 10.049 5.98994 H
183 3 -0.564372 10.3327 12.4114 4.94541 O
303 2 0.0294542 12.0466 10.3859 1.62283 H
304 2 0.0833552 10.7657 9.36331 1.14514 H
56 4 0.865147 9.28627 9.09407 3.80893 Si
170 3 -0.573433 10.4087 10.1896 3.13983 O
70 1 -0.110495 13.2725 9.80661 5.58196 C
299 2 0.0348505 11.398 9.79934 8.26705 H
307 2 0.0632324 10.3917 13.7429 3.61002 H
348 2 0.065254 5.47437 10.4014 0.0720707 H
19 4 0.609746 13.6945 8.20776 0.200251 Si
47 4 0.321245 13.1444 7.76158 5.01809 Si
270 2 0.0662336 14.2513 7.94781 2.73285 H
345 2 0.0459331 12.4024 12.7643 8.38258 H
71 1 -0.134388 14.2229 9.32691 8.729 C
173 3 -0.662837 7.36886 8.65003 15.6398 O
65 4 0.789241 5.85827 12.7329 13.9589 Si
156 3 -0.617705 8.42597 15.6246 14.5614 O
99 1 -0.0795059 6.6618 11.436 10.2024 C
101 1 -0.0974412 7.83185 11.9454 13.7264 C
188 3 -0.621474 5.72988 14.7583 13.5151 O
48 4 0.72681 7.72401 15.0174 13.1259 Si
311 2 0.0509607 6.87687 12.4754 10.419 H
312 2 0.0890991 7.14998 11.0488 9.324 H
313 2 0.0921194 6.70184 10.7972 11.0686 H
317 2 0.074132 7.74731 11.0334 14.3064 H
318 2 0.100297 8.50009 12.7082 14.1195 H
319 2 0.0440001 7.84628 11.8591 12.6636 H
211 2 0.33029 5.74041 15.1007 14.4664 H
57 4 0.648229 8.34094 8.58134 14.3818 Si
161 3 -0.679962 8.82207 14.6655 12.0284 O
186 3 -0.644364 9.18484 9.52249 11.5138 O