LAMMPS data file via write_data, version 2 Aug 2023, timestep = 5000, units = real

365 atoms
4 atom types

0 17.6144 xlo xhi
0 14.9838 ylo yhi
0 17.4642 zlo zhi
-6.9346 2.088 0.8795 xy xz yz

Masses

1 12.0107
2 1.00794
3 15.9994
4 28.0855

Atoms # full

2 1 4 1.028749463611129 2.36461273288472 2.2942607554308365 1.0465567938224123 0 0 0
4 1 4 0.687496517136945 3.1857724619934027 3.256620597040582 5.384312773717186 0 0 0
8 1 4 0.2676830646871803 0.0011970026467965356 3.739014552380058 2.031589553920333 0 0 0
10 1 4 1.119113355883264 2.944053080560607 5.415713571013411 7.390314088606199 0 0 0
68 1 1 -0.1300754095037471 -1.375374808898802 6.694382469045832 5.715901435977285 0 0 0
78 1 1 -0.09658799347957382 1.5356388833450814 6.00245790671163 3.6961750604672896 0 0 0
105 1 3 -0.6678685473831936 1.6138429730222998 3.52057257847265 1.7746696183280073 0 0 0
107 1 3 -0.7315711667102618 2.470662581687757 4.518842214685023 6.086455947964388 0 0 0
191 1 2 0.09239033534075762 2.3782475188141747 3.336041875723849 3.7518805013384577 0 0 0
192 1 2 0.009483888979601769 2.8665509218282113 1.813151195221389 6.247261970871503 0 0 0
193 1 2 -0.03650985670102959 1.280083717328926 0.9169127138941797 0.9535476147941545 0 0 0
224 1 2 0.05395876737129988 -0.4670347617770455 6.352851282614522 6.2714387008412436 0 0 0
225 1 2 0.02647614873455547 -1.4961587052326917 6.280656779151025 4.71746028561213 0 0 0
106 1 3 -0.7578111023843654 2.9786525232889796 4.4025584666662825 8.642647704983075 0 0 0
252 1 2 0.03922684908049439 0.6441313681796834 6.4740052570331095 3.3127699730653792 0 0 0
253 1 2 0.0877686213070655 1.4626978273192446 5.726801806842646 4.747623563123573 0 0 0
254 1 2 0.09728125364566902 1.9950898278291067 5.265463404721151 3.0846924659947366 0 0 0
134 1 3 -0.7478430148846968 1.927584560934914 7.0695515708699626 7.512645232946704 0 0 0
363 31 2 0.01059285468767224 0.7508590772623644 1.5266832723518875 7.3711417521509075 1 1 0
67 1 1 -0.1023242530138574 -1.1440115786085974 5.040986505053278 0.932199484133874 0 0 0
66 1 1 -0.1243354773143086 -0.7576025373862563 3.3650279283815165 3.4734254979928205 0 0 0
354 22 2 0.06567465483176016 -1.1544961787715944 6.051827371089879 1.2922788538007761 0 0 1
112 1 3 -0.7481733431875559 2.4133903026582493 0.5337641537231295 3.9171165878450074 0 0 0
222 1 2 0.03199679920043463 -0.8930602809610731 4.154476457018701 4.198920126477367 0 0 0
30 1 4 0.7964837191731603 2.841256088175592 7.5179849747471295 3.763260324125578 0 0 0
139 1 3 -0.722651583610791 4.07724436765477 7.09881638484524 0.4849656727476748 0 0 0
23 1 4 0.5515447417043174 9.358877908694415 0.5801805770064429 7.987833974054448 0 1 0
240 1 2 0.1140873441878244 8.37637671638917 1.3739850039382815 3.2601649723585626 0 0 0
102 1 3 -0.7395647304528324 3.653160637340198 1.843737929798189 2.0149179215814237 0 0 0
356 24 2 0.05269565245502983 4.510295854173246 0.5230304561911798 7.149674469021536 0 0 0
136 1 3 -0.693045959351247 4.834585440922571 5.962067860889892 7.087486390067222 0 0 0
130 1 3 -0.6830142074650839 7.193893953268079 2.8305051318746814 0.894773658230518 0 0 0
133 1 3 -0.7171505062390232 7.163836378597935 4.319249268467695 7.311890775989657 0 0 0
135 1 3 -0.7723761499011297 4.300687470711943 7.018711975627842 4.196258794666403 0 0 0
129 1 3 -0.7360722375844915 7.115989203465943 2.8258600119736115 3.805268805308388 0 0 0
123 1 3 -0.7237433608460496 6.721581219348538 1.8135179034594815 6.286701542954258 0 0 0
1 1 4 1.040146174561182 3.8789347791555175 0.6817610123614778 3.1272465678575694 0 0 0
120 1 3 -0.7200532394741295 4.7857341228367805 3.3991013828588583 5.0822712255955285 0 0 0
255 1 2 0.118231184529401 4.868649881717061 4.974890059559776 3.426017469925627 0 0 0
34 1 4 1.265030069287847 5.36223625601978 6.982813303309326 5.379429220518022 0 0 0
257 1 2 0.05129344879234297 5.101221772536469 5.246738568937258 1.68269750826088 0 0 0
256 1 2 0.129228516854283 4.593001672121181 3.5942469304796156 2.2692434338715195 0 0 0
21 1 4 1.33291220036979 5.913355760684041 2.206652813664687 4.8166954326844635 0 0 0
25 1 4 0.6879878186897274 7.7274610409432025 2.833680839194121 7.081756565577499 0 0 0
29 1 4 0.8390692047366364 7.058863368342016 3.8245429173414656 2.550865504274037 0 0 0
32 1 4 1.337213159709503 6.2220701615526615 5.207899743038893 8.33234675824296 0 0 0
119 1 3 -0.7836754621978953 5.141436200194679 0.9408342690805666 4.0961755938404885 0 0 0
79 1 1 -0.07694673131760972 5.101243971116173 4.5199412201640925 2.492133019424686 0 0 0
204 1 2 0.09259898296738214 7.884613596791073 2.2979796569269966 8.727304413924193 0 0 0
3 1 4 0.9993159696653598 1.857091837785577 3.6347742282977995 9.557680266296597 0 0 0
7 1 4 1.142819761282614 3.331155221942459 3.040652350434992 12.158064025802554 0 0 0
12 1 4 0.8050731842337361 1.1321497667899814 4.870148727307139 14.415729925846527 0 0 0
13 1 4 0.5823614473583931 -0.45155393407112787 7.314624786072109 14.662554260841626 0 0 0
69 1 1 -0.08090318959001341 2.7074178425603153 4.064813298926536 15.555221406289267 0 0 0
103 1 3 -0.7362244977931344 2.3404075053903943 2.734292936803758 10.860255868621152 0 0 0
104 1 3 -0.7148327495208685 2.9842747547422346 2.000218976476356 13.52775090374618 0 0 0
110 1 3 -0.6812907383570768 2.3183964182496086 4.849903153131736 12.739580533625492 0 0 0
111 1 3 -0.6458990883612817 0.9347657847348738 6.44391405309935 14.826862240178919 0 0 0
261 1 2 0.04051012868320136 4.18391682215508 7.837038086841169 15.379755813109192 0 0 0
227 1 2 0.09009558254699837 3.5267322403245043 3.9372275312467444 14.876821694422878 0 0 0
228 1 2 0.04792075848257608 2.381289870926019 3.13269655350599 15.968533596316973 0 0 0
229 1 2 0.05435721503194299 2.8740889059988275 4.7462896542609405 16.366633454339883 0 0 0
82 1 1 -0.08672349573973731 4.017867250912936 6.976735846990413 12.123473846123513 0 0 0
160 1 3 -0.7167488790111207 0.7762066685726303 4.645097635098502 10.142107648417586 0 0 0
365 33 2 0.2751377237891281 0.5947687202745751 5.403754105078349 9.515070136646461 1 1 0
195 1 2 0.3558280607806988 1.6429918075587064 4.717418173055682 12.078165608095164 0 0 0
353 21 2 0.05788707662771812 1.4335712764088027 5.861329877495911 17.446543694585625 0 0 0
263 1 2 0.06018043911875601 3.3034894638591794 7.396097230128877 12.81326269674979 0 0 0
265 1 2 0.1150667727457131 3.663952910771412 6.187690870963151 11.476194848309035 0 0 0
5 1 4 0.8873769274135488 3.8774863280216163 0.7872428488181348 14.068638863305287 0 0 0
208 1 2 0.0261223739294819 -0.891100381081321 6.96844573597707 13.02732247152906 0 0 0
196 1 2 0.08332761035061835 -0.8197612890464199 6.846595176571093 16.43035443588529 0 0 0
81 1 1 -0.1270567317449235 4.857955078373714 6.996770263154266 15.399332069465633 0 0 0
77 1 1 -0.115084802633448 6.322779210973238 3.713414066210913 14.41781653218031 0 0 0
262 1 2 0.0559035504033913 4.536757107690191 6.180855380844932 16.01905973577605 0 0 0
122 1 3 -0.8279143827807344 4.886447998582103 2.906005489200531 11.827272802431612 0 0 0
124 1 3 -0.7570417603686744 4.749738504793035 1.2056408195381576 15.308262057095495 0 0 0
264 1 2 0.0382428904887375 5.003524597261393 6.828350464709762 12.535172479619597 0 0 0
80 1 1 -0.09707400446477474 7.55732945958251 5.8466769148928 16.7148628249126 0 0 0
259 1 2 0.07323079662543486 6.897525343938629 5.291502956746673 17.396909271015296 0 0 0
126 1 3 -0.78305566006673 5.006546432141348 3.255760148515396 17.00806867144042 0 0 0
128 1 3 -0.7755096019219943 8.075570716730866 1.3403444609635269 12.991672425048103 0 0 0
203 1 2 -0.009636852772944814 5.173960505332607 1.6999499601962076 9.479989381316765 0 0 0
251 1 2 0.03333753063612924 5.579851557664118 4.479358987374225 14.627924728663952 0 0 0
127 1 3 -0.8249313464988972 7.339341880262429 2.466373351927259 10.559527368052574 0 0 0
250 1 2 0.03376805205395796 7.368767642953164 3.9412537973864596 14.591870502005781 0 0 0
335 5 2 0.08778428284839766 5.636330368101246 0.7652446491994771 12.130006781631504 0 1 0
125 1 3 -0.8172776030741131 7.134968001912694 1.7484891446636586 16.587957595590133 0 0 0
132 1 3 -0.7815157655103999 5.715177068537949 4.337355340196874 9.590826900465828 0 0 0
258 1 2 0.02411933294309191 7.617978584762321 5.463125276087211 15.687887949307397 0 0 0
249 1 2 0.1035718701359551 6.1305709881384995 3.1388016528016776 13.495737292803488 0 0 0
359 27 2 0.01685727577863204 5.251667632049879 6.675472127036585 14.452655639077006 0 0 -1
159 1 3 -0.7939628442176722 9.834770120429672 2.138764736674303 16.470886854957154 0 0 0
31 1 4 0.6036163332496489 6.510058202003994 7.637785468415338 16.45008432253872 0 0 0
24 1 4 1.108727762674911 5.82994370647532 2.990610449150465 10.483050474426587 0 0 0
27 1 4 1.105545259164026 5.796581350477094 2.3099442778879693 15.938689775952618 0 0 0
28 1 4 1.042837739513576 8.458325332766803 2.332576005028346 11.711066198629931 0 0 0
22 1 4 1.270534187229063 8.550847185444445 1.8882746625996896 17.415439672596627 0 0 -1
14 1 4 0.6860684075745506 -5.097138556120906 14.245146137257644 4.714819276154768 0 0 0
15 1 4 0.6617299215571848 -2.7963823255084193 10.192407645432422 6.808177478176584 0 0 0
17 1 4 1.021468730643743 -2.6131967624386867 13.069904297776965 6.007044483193413 0 0 0
72 1 1 -0.08997411459473309 -1.727739867632628 14.695106483687283 7.197238013917304 0 0 0
113 1 3 -0.6611893785413092 -1.361529223298898 9.565863743637397 6.406197066565214 0 0 0
114 1 3 -0.7118473651172708 -4.22628887640562 13.466522161558357 5.81963243528376 0 0 0
115 1 3 -0.678502747549263 -2.6904580613262388 11.83392833409962 7.0790086686245255 0 0 0
141 1 3 -0.809920044483978 -1.6093375567106543 12.901123629870053 4.734349307332123 0 0 0
9 1 4 0.3049226102365687 -1.0894104409609382 10.42011570619608 3.0069830636951393 0 0 0
327 3 1 -0.08923642939485603 -2.7208677829041474 13.794955435790424 2.028799891361728 0 0 0
329 3 2 0.00855724125621693 -3.4995221304502633 13.119567044584427 2.3186529319345173 0 0 0
328 3 2 0.07135186620949023 -2.8168600177140903 14.176303836588476 1.0411001727519034 0 0 0
349 17 2 0.1338770478399062 -1.7288397055771334 13.5039936912174 2.3132996665055066 0 -1 0
108 1 3 -0.6242963269354692 -1.4839490403940117 9.010369006522655 3.7497060925484074 0 0 0
235 1 2 0.1282719906213984 -0.816057723294233 14.800490493324023 6.625910283432953 0 0 0
194 1 2 0.02647394880519342 -2.642902525225191 10.971883955596244 2.3812387374676396 0 0 0
11 1 4 0.7667903026545938 -0.8924262178425484 8.605574670750775 5.243308602402642 0 0 0
121 1 3 -0.7428489498769916 -0.2821229629365039 14.819741535828339 1.0718207556919914 0 -1 0
326 2 2 0.009171587098557183 -5.050027386549858 12.515744707486611 0.8908141400190298 0 0 1
236 1 2 0.02996914278547633 -1.61095571941051 14.297109789984358 8.202952686331939 0 0 0
33 1 4 1.010328034829979 2.3702676211936557 8.206998438327478 8.58781104585004 0 0 0
73 1 1 -0.06526992859055561 0.24602527531798146 9.957187782975291 1.523903872089788 0 0 1
238 1 2 0.09366510932397998 0.1981524064245888 8.879550239180471 1.535471451723568 0 0 1
239 1 2 0.02868470087662718 -0.17601896481063772 10.35008196392877 0.610615911118563 0 0 1
142 1 3 -0.729839273749126 3.4384114467740696 9.831181254514457 0.2110994462781427 0 0 0
310 1 2 0.09372926984918681 2.9926651248093896 11.076909312604412 3.934165004020237 0 0 0
350 18 2 0.3391736117348521 1.4040226198909034 8.13230876256423 6.168911061985913 1 -1 1
237 1 2 0.0939759699707038 1.180717035398065 10.385346367996771 1.858100300919163 0 0 1
181 1 3 -0.7513690694810217 4.497963857795188 11.206295248426116 8.197403662982262 0 0 0
144 1 3 -0.712406575848178 5.258618820027396 8.481448223474139 5.859350626440971 0 0 0
215 1 2 0.2476528188295128 5.111361456012822 8.547216058832342 7.02263693055159 0 0 0
143 1 3 -0.7468279023205825 2.064095297205639 9.772433140702105 8.116733799288813 0 0 0
146 1 3 -0.8227092605773636 2.5373511572400202 11.72066964311188 6.249847673038762 0 0 0
360 28 2 0.0728359906380923 2.1096103533984465 12.221260240024803 0.828227422549544 0 -1 0
98 1 1 -0.0788259919785054 4.038575395273021 10.884548809897924 3.6876076465351506 0 0 0
209 1 2 0.3742322553521768 1.2050647594783708 9.602971142031954 6.032568874305258 0 0 0
336 6 1 -0.04999309617355367 2.232291460349595 13.272622171407955 0.613533296749528 0 0 0
20 1 4 0.6872572412566095 0.9321012673182163 14.21071912669225 1.9475755077952552 0 -1 0
37 1 4 1.200427489780094 -0.04730881986687263 12.783711478625639 4.418835441525236 0 0 0
145 1 3 -0.8077946583786569 0.9328740429305027 13.465398294760574 5.468544058894471 0 0 0
36 1 4 1.031715494952482 3.681673823979631 8.541503855996712 1.206878041349746 0 0 0
39 1 4 1.0861052214527 3.145623069417928 10.746880263125233 7.3844883119961775 0 0 0
40 1 4 1.185709599336477 2.4542303784931363 13.261503324988958 6.009613149038885 0 0 0
140 1 3 -0.7761151032389051 0.4165149511123741 13.018490278206375 2.943175311460908 0 0 0
131 1 3 -0.7409400849522724 1.224104806265594 8.861152768285264 5.49464766388174 0 0 0
138 1 3 -0.7315843770599875 2.6960781229552433 8.521323457656736 2.5009956791282004 0 0 0
309 1 2 0.06368897318132639 4.272900759799706 10.590160868476206 2.662160337860783 0 0 0
308 1 2 0.08917292108391839 4.548711966534848 10.292997737385942 4.466823352964895 0 0 0
18 1 4 1.0162329959559 0.2964687896739997 9.785460068823939 15.84766342230727 0 0 0
201 1 2 0.09660452584071864 -2.1029188684402156 12.719491626490331 16.630609889005797 0 0 0
233 1 2 0.0458409633816968 -2.5219933147965996 8.880584094888624 8.911238994374084 0 0 0
149 1 3 -0.6901304784862607 -0.08026569534061645 11.343849478814692 15.562717086791483 0 0 0
268 1 2 0.0776572422539718 -0.4020869975662562 10.745984020065116 12.713719449044433 0 0 0
323 2 3 -0.5895487560300907 -4.335211753960188 14.118150045776757 14.365818891740561 0 0 0
83 1 1 -0.07609603708716314 0.20220075701866302 11.348881215467696 12.04465975919259 0 0 0
150 1 3 -0.6964367856244204 0.1924527941280887 14.061253177575928 14.8810004917013 0 0 0
206 1 2 0.3391504591384573 0.15487131556724165 14.764186400827622 15.563351397222135 0 0 -1
333 5 1 -0.09180250658694328 -1.8251857808687564 14.918915473336346 12.584536932127245 0 0 0
322 2 1 -0.08720874668497189 -2.861775357753681 13.229988800023346 17.211252646870324 0 0 0
334 5 2 0.1031484213765653 -1.1539667682639758 14.283209022521076 13.132340132598538 0 0 0
116 1 3 -0.700756704607864 0.021594645882991204 8.890513723860714 14.53660475489644 0 0 0
267 1 2 0.0493784491934395 -0.28530791293603275 12.210842151412354 11.629371985818622 0 0 0
118 1 3 -0.7161516392149665 -0.2689641532580449 9.334470347824647 17.296100849146164 0 0 0
358 26 2 0.0343448397638666 -2.410292726546122 14.356457706439471 11.889637794145504 0 -1 0
245 1 2 0.04185219588534601 0.1565359777451545 15.334048989882529 9.250002925313641 0 0 0
320 2 4 0.2089937789562982 -4.028457556907112 14.231375526792544 16.341875395942566 0 0 0
232 1 2 0.04569587556175091 -3.4109220175607327 10.43021154568217 9.24805651182508 0 0 0
75 1 1 -0.09504224853015522 1.0390299453726022 14.711741029922205 9.270355477445992 0 0 0
266 1 2 0.08010318395660079 0.7713206279859313 10.76196607195299 11.3401627428979 0 0 0
187 1 3 -0.6914565778755604 4.939542116907314 12.086302937452713 12.740959323094636 0 0 0
244 1 2 0.04751520867850275 0.8930462277862579 13.70962928701407 8.873782393485373 0 0 0
41 1 4 0.718382080695807 4.0020054375447724 10.754053173035052 12.608605143989715 0 0 0
42 1 4 0.6012968016785684 0.8959677119176419 12.650728499369556 15.339347819083303 0 0 0
152 1 3 -0.6344300455375239 2.245249942349111 13.605348147176857 12.848274459132105 0 0 0
189 1 3 -0.667257567390064 5.24339896560629 12.369540239328867 15.54166500798783 0 0 0
157 1 3 -0.7497562696554287 3.012848270986945 15.194954460858291 14.812361162532353 0 -1 0
38 1 4 0.6637872489724033 4.91757490499721 10.9057519991723 16.21226834088149 0 0 0
338 6 2 0.1197442588891304 3.8953184131170553 14.442577607741217 17.137302332205152 0 0 -1
169 1 3 -0.7300886521974699 6.213723158718753 8.452473301860824 10.435787117973257 0 0 0
148 1 3 -0.6704370165575907 3.4920241959662013 10.279757364820144 11.112905876904401 0 0 0
182 1 3 -0.6820249263301302 4.097067239483617 12.974677887874602 9.93464567944712 0 0 0
62 1 4 0.8023366028230491 4.627730834547817 11.430524598433385 9.786138059371865 0 0 0
35 1 4 0.7167171828879605 4.55594341662203 8.44236094420668 10.689859094458697 0 0 0
243 1 2 0.09801301672710803 1.586713913463151 14.774871392423263 10.192700577421409 0 0 0
341 9 2 0.01247777632347186 3.208870815050944 10.848257764606519 16.37085407151532 0 0 -1
43 1 4 0.414381494238461 1.7395957164046523 12.049262102671731 13.211167146427925 0 0 0
151 1 3 -0.6889229837085821 2.718600754085918 10.392793775857948 14.091891157077464 0 0 0
26 1 4 1.162747573404701 1.8562620913791725 15.026953383610351 13.673643373381733 0 -1 0
202 1 2 0.3531120433828341 3.6188026535170046 13.016605483502804 10.81838844710817 0 0 0
210 1 2 0.2904859255829949 2.0625906219063443 9.647989532491241 13.902556477271695 0 0 0
213 1 2 0.01476778680184523 2.0958536317244545 12.877287854902454 16.57533346647597 0 0 0
212 1 2 0.007813431723724805 5.363874587619556 9.624964250714047 15.130507399824463 0 0 0
137 1 3 -0.7184716895898694 3.8331467841847466 8.08277813311414 9.277316023693375 0 0 0
207 1 2 0.01627916072450591 1.2512792290230546 8.079234459702622 9.959620006023316 0 0 0
51 1 4 1.009482871551924 10.929087369708427 3.6583147539801257 0.6110125979448607 0 0 0
52 1 4 0.7303721826413286 7.474171474284171 6.693467574133154 3.3551132603553935 0 0 0
54 1 4 0.5963165390190647 10.439472075458516 7.095481672424975 5.58582816978011 0 0 0
89 1 1 -0.1144427491837998 11.217011550084775 4.035150644687501 2.6604470326463576 0 0 0
91 1 1 -0.05631339506096818 9.407411245152012 6.525147438914941 7.274592406340367 0 0 0
162 1 3 -0.7882251754961119 10.885696821773138 2.0012307744067717 0.533437159518165 0 0 0
164 1 3 -0.6823626346237721 8.269546290823891 4.856328899993853 2.8028186566203135 0 0 0
176 1 3 -0.6822171065243161 8.273889337052731 7.109190992967737 0.1536315461502178 0 0 0
248 1 2 0.1019211352576806 9.147918847454816 3.430638656529519 5.018577160085043 0 0 0
214 1 2 0.05307505184751534 9.870256464119853 5.90777658520979 4.469020848260048 0 0 0
53 1 4 0.7598568490739146 8.666457414111623 5.629009404489679 0.8655690374555591 0 0 0
290 1 2 0.05258843501130536 10.066026399409845 5.845185868237807 7.788796157000346 0 0 0
76 1 1 -0.08130893686206923 9.417574197763223 2.977467939249017 5.953269042257347 0 0 0
246 1 2 0.0494493687427098 9.735689674136163 1.940388059401633 5.8923783986709335 0 0 0
165 1 3 -0.7223781631743388 6.890107895262879 6.54788239047675 4.857499160281379 0 0 0
154 1 3 -0.653100719525855 10.088665722193195 1.9142561637076503 8.580450443346756 0 1 0
247 1 2 0.0610636276473276 10.073259133950877 3.5875286159482163 6.57223377571389 0 0 0
288 1 2 0.1202188159297461 8.564201468303002 6.055210088872484 6.786297212260293 0 0 0
289 1 2 0.1234274054661442 9.12628581741778 7.391557318732802 7.8378192856124365 0 0 0
282 1 2 0.04671472704620679 11.12251091474585 5.118167574418484 2.747505579150913 0 0 0
284 1 2 0.07018969881751273 10.369878836186027 3.468459423708492 3.048823269206992 0 0 0
166 1 3 -0.7154542128454728 9.537429358517295 4.41492418135585 0.1873945159617429 0 0 0
241 1 2 0.09312452450607252 9.751673259694986 1.0548909190537934 2.139266388050388 0 0 0
346 14 2 0.355056866827996 8.199363996285001 2.88604842494531 0.6323809123798013 0 0 1
217 1 2 0.2754433386036668 5.943611429336665 7.3107909398893725 1.5197279286884071 0 0 0
74 1 1 -0.07930048017436392 9.098441424918047 0.6830066370418265 2.9028876954299347 0 0 0
283 1 2 0.0315779524663155 12.186110562767503 3.6246938685259473 2.8423503399790437 0 0 0
342 10 2 0.02939136908786025 16.602030991549952 2.3056091691610328 3.6314591871272057 -1 0 0
223 1 2 0.03070263681853114 15.512396606657767 4.605086655604657 0.9427870146982686 -1 0 0
190 1 2 0.01414473373355885 17.42516006364872 1.6434109511176418 7.067726055822785 -1 0 0
85 1 1 -0.1088312511035269 13.251922382496112 7.3925789908260855 3.063119236188089 0 0 0
226 1 2 0.03489910772611499 15.34943481769223 6.680619068529214 6.336678732946732 -1 0 0
361 29 2 0.02491364488440874 15.204913039077477 0.23852968964052998 1.951286806896611 0 0 0
362 30 2 0.03799835380449283 13.746623548726358 0.8106256109550335 2.843717635887076 0 0 0
272 1 2 0.04154208617214317 12.960499017953055 6.348544508532161 3.010517226719955 0 0 0
167 1 3 -0.6011590268270924 12.001571016526224 6.756722193063714 5.9482411332466025 0 0 0
219 1 2 0.04450297896306305 12.979522239408471 0.34882681797896853 6.341559526326808 0 1 0
270 1 2 0.05995993529937125 14.281529478512732 7.585914594890907 2.7895217818008806 0 0 0
46 1 4 0.6636112621642996 10.888020739573685 1.9838432220409057 9.985665867357708 0 0 0
49 1 4 1.084112568496703 10.837151712796482 1.42929497764377 15.457000963197922 0 0 0
86 1 1 -0.1048465612572849 11.206977354589219 2.934502605400046 13.88916256315216 0 0 0
95 1 1 -0.1311109763022975 10.411690494107708 6.85240160363872 10.22108733235509 0 0 0
155 1 3 -0.7198632630397552 9.905671498362494 1.7763418782058462 11.28176994753304 0 0 0
158 1 3 -0.7827830328842863 12.27746599137063 0.99921776531625 16.24991865870267 0 0 0
273 1 2 0.04325152103843994 10.60879487582778 3.7810435378915837 14.215346032401749 0 0 0
274 1 2 0.08113139848907815 10.843575213399797 2.416427398334961 13.003659692820843 0 0 0
275 1 2 0.08002170473883195 12.288478932726875 3.040918351276847 13.92703229760493 0 0 0
300 1 2 0.0138492160127229 11.081799884656363 6.894579396215933 11.082607233015697 0 0 0
301 1 2 0.02384944630472773 10.90055053018657 6.695838648684169 9.262205020747292 0 0 0
302 1 2 0.06987102033101736 9.541694237590697 6.24167390397384 10.354798761367086 0 0 0
93 1 1 -0.1235207009502196 8.835047458310997 6.80525830867747 14.043371520831606 0 0 0
296 1 2 0.06702828472019709 9.779539214948278 6.637312276361898 14.531168457104203 0 0 0
90 1 1 -0.1341625283264618 12.07527757547919 3.8114767243142444 9.992236827941952 0 0 0
295 1 2 0.01324706775932051 7.960239988376274 6.315944268025742 14.440480534752126 0 0 0
287 1 2 0.04872861347853066 12.03530698121221 4.174828469462364 8.962910107249307 0 0 0
286 1 2 0.02530327715716271 11.498576691559984 4.372453556005692 10.700955244551235 0 0 0
294 1 2 0.03550300017331098 8.88006449745718 6.7965551297540845 12.967229466838623 0 0 0
87 1 1 -0.09646717768816132 12.586470154731392 0.8515366177651142 10.04811638332913 0 0 0
260 1 2 0.0620907057175102 8.493949738169269 6.199596859682326 17.141158157803176 0 0 0
168 1 3 -0.781904595526443 7.093823042516597 6.4812095296337215 8.927977199034684 0 0 0
278 1 2 0.06123661459278808 12.90981623141982 0.9995162392686724 11.050333255437323 0 0 0
205 1 2 -0.03114921839220224 8.718384951167113 4.003675485870633 12.270646626413297 0 0 0
163 1 3 -0.7555962893355246 14.323890162627482 4.990161386202597 17.256466741828824 0 0 -1
16 1 4 0.2379558005684548 14.902999559242993 7.97723887224213 15.123588012958539 -1 0 0
280 1 2 0.04509242747918306 15.496230684516226 3.9190727648228445 10.702981284068537 0 0 0
198 1 2 0.03909853176537439 13.741477642938863 6.702403594424324 14.723964161999465 -1 0 0
285 1 2 0.016290066777248 13.04829677902108 3.5075154537767634 10.322701307345984 0 0 0
279 1 2 0.1101050271744105 16.80491386123109 3.1701726467305678 11.614418976979394 0 0 0
352 20 2 0.3192617481786248 14.397493889612877 6.008161135568853 17.13122527045624 0 0 -1
281 1 2 0.04798611071265314 15.957285321820926 2.1880529231320174 10.361106607471259 0 0 0
45 1 4 1.257000793862151 13.500212983953446 1.7746571988454973 16.955855108303435 0 0 0
332 4 2 0.04510645518425527 17.151469203004858 3.5090242678790116 16.299998385265013 -1 0 0
88 1 1 -0.06383035623856695 15.926481453194333 3.011664262682507 11.071534653615592 0 0 0
109 1 3 -0.6129833507296422 17.388062581219494 4.0667101033671305 14.193296948218336 -1 0 0
6 1 4 0.6401988472606244 15.458098222991474 2.3170105875787383 14.750910594107799 0 0 0
153 1 3 -0.7108927429184009 14.138027987535452 3.1325107052156134 15.322583561414705 0 0 0
50 1 4 -0.04043242550320385 14.564829189632768 2.287150741889025 12.435314890958658 0 0 0
330 4 1 0.04411628882464803 17.430039311309798 3.1429305319246232 15.297083376103839 -1 0 0
331 4 2 0.06981552647680697 18.070211196299503 2.2345860471751946 15.261195230731131 -1 0 0
351 19 2 0.3481691675805643 14.323845287077123 4.039720084126347 15.953168364314386 0 0 -1
276 1 2 0.02083648577971818 13.211221652370325 1.3388938603639722 9.314669927405541 0 0 0
117 1 3 -0.6163171387332586 15.01194744051131 8.043283332560355 16.701752984069717 -1 0 0
357 25 2 0.02375063522323084 19.07055438089253 1.2464197796285172 17.274556837333847 -1 1 -1
44 1 4 1.070821460950681 5.9562219974179005 13.866963336820817 1.2962224608387694 0 0 0
60 1 4 0.9956410013968194 4.784002851095046 12.938207666963322 3.9411698068293908 0 0 0
147 1 3 -0.6986639556449167 3.5674238989652385 14.436356895923117 7.600196801768857 0 0 0
63 1 4 0.3348316800720624 6.543587350680467 13.68146429584246 6.258928432665338 0 0 0
175 1 3 -0.6893401701658812 6.41328382390014 8.052870952251345 2.0841859699545515 0 0 0
177 1 3 -0.7690021802055973 4.770536205631027 13.544607766943383 2.4297778158653687 0 0 0
180 1 3 -0.7276012391042194 6.899939486162838 12.601856553222671 0.8958189946281465 0 0 0
184 1 3 -0.6518843303511512 6.178081860983933 13.032562433854562 4.804699487744869 0 0 0
59 1 4 0.9893665851070729 7.975187306963161 8.472850167051586 1.0232099799951702 0 0 0
220 1 2 0.09689964886575494 5.76705170179974 12.810197407719354 7.557596671943798 0 0 0
292 1 2 0.08719516275300743 6.594133363237429 9.663929506051858 3.8680300984948 0 0 0
178 1 3 -0.7364636995324256 3.6442422848074845 13.662206305340272 4.903325107136881 0 0 0
293 1 2 0.09959079877966706 7.562470833475032 11.226980348191901 4.008704920591175 0 0 0
92 1 1 -0.07606330059653282 7.388009656902341 10.211938569381923 4.369648034536229 0 0 0
218 1 2 0.3537964938301114 3.7693085702823423 13.74851038318052 8.303523377147178 0 0 0
339 7 3 -0.7768067207401619 5.624080615340595 14.851713051097805 0.05460815073763323 0 -1 0
179 1 3 -0.7170400164858372 8.018013368744123 9.981784604131214 0.4202877189829204 0 0 0
269 1 2 0.0927021615809055 7.592610863461003 14.233812790098717 3.3292164055762536 0 0 0
291 1 2 0.08632135997633417 7.393904087772127 10.106359506657363 5.42796011911893 0 0 0
61 1 4 0.8260311101420976 6.96706724450067 11.23522554557289 0.0265871112750152 0 0 0
337 6 2 0.1148419151941583 3.2338701274907677 13.587880096652013 0.7608486751970931 0 0 0
242 1 2 0.105516301325501 2.6306999581814137 15.067110602654559 3.681258846970293 0 -1 0
84 1 1 -0.1065468640198344 7.421990387840532 14.96471084002969 2.55414029284347 0 0 0
321 2 1 -0.1091664782062117 10.119550591605732 14.301374761151957 0.10731805479286093 -1 0 1
96 1 1 0.07926997652841329 10.99778064352656 10.246157553823577 1.7828471941425492 0 0 0
271 1 2 0.03362191005142313 12.527957167178425 8.08682597017375 2.66393055995759 0 0 0
325 2 2 0.01514720343439857 10.644305375742862 14.216244731133493 1.0555520655170099 -1 0 1
171 1 3 -0.6973157994376471 9.01074700133831 7.831616991796275 2.8230081839234495 0 0 0
344 12 2 0.06068059512423742 12.132829240031263 12.500301294750965 7.827727165754179 0 0 0
234 1 2 0.01422258614960357 13.323694836773619 8.989265507551337 8.54442150873008 -1 0 0
305 1 2 0.09697333673556954 10.46497693390535 10.758897565994074 1.024638276276704 0 0 0
355 23 2 0.3185103829667155 10.415833137088034 11.689501593518708 5.105127618401395 0 0 0
345 13 2 0.09460065132899395 12.806402377766197 12.510133042622778 7.830477633304332 -1 -1 0
97 1 1 0.07547740478547176 10.88467042804522 13.155693406054926 3.8284163883000684 -1 0 0
306 1 2 0.06077845934833109 11.440566281357192 12.49602584774243 3.0883437171566084 -1 0 0
172 1 3 -0.6393720456101069 10.008821927692383 8.64511430108573 5.203942372734698 0 0 0
324 2 2 0.07412876839085616 9.218548690023384 13.710421543633458 0.10935935877793186 -1 0 1
231 1 2 0.07190185481067875 12.102123210107518 9.842038654176678 6.289777619733267 -1 0 0
183 1 3 -0.5656891707862769 10.259180378630225 12.630856149256351 4.916346850455426 0 0 0
303 1 2 0.04931758116620476 11.916804907953116 10.80883379636554 1.9114838295572747 0 0 0
304 1 2 0.07280136007087963 11.261352080088512 9.185641113784483 1.4896821438796015 0 0 0
56 1 4 0.8600787249787241 9.204807664183996 9.133170874918449 3.8178531566159597 0 0 0
170 1 3 -0.5583797160604449 10.345685517079254 10.225530940759267 3.1200600864831647 0 0 0
70 1 1 -0.1101122790467531 13.007060853191128 9.74584050396038 5.7134750779069226 -1 0 0
299 1 2 0.05592187952068116 11.109574943114877 9.550593049306041 8.013399161010822 0 0 0
307 1 2 0.05577997393810792 10.363731249365612 13.99442832772287 3.2970529329635347 -1 0 0
230 1 2 0.06179897191527373 13.061266837928342 10.31007002779608 4.80426375005986 -1 0 0
19 1 4 0.6135138937199858 13.68646481895963 8.248532275728124 0.1903701033300693 -1 0 1
200 1 2 -0.01828398466217343 12.871763004893179 9.758458071962664 0.25375344024287777 -1 0 1
47 1 4 0.3110152067401175 13.024061915797661 7.758667985623667 5.187279791051649 0 0 0
71 1 1 -0.1242549555751672 14.251712948457799 9.529276271647246 8.669893918889551 -1 0 0
173 1 3 -0.6648725414813794 7.339185308386819 8.870012152565353 15.62263119512737 0 0 0
65 1 4 0.8180537767781652 5.710815857451097 12.692745193617856 14.023588563142582 0 0 0
156 1 3 -0.6239589412549374 8.49286907336637 15.63287479527038 14.604115550469047 0 -1 0
99 1 1 -0.08928873346442991 6.748659513705352 11.46945529442421 10.065813418504755 0 0 0
101 1 1 -0.08761769283481395 7.540760942877917 11.789938452529455 13.873620653850804 0 0 0
188 1 3 -0.6400184823046547 5.860857663750103 14.769776408831829 13.655398441945598 0 0 0
48 1 4 0.7677597800378986 7.826408694425565 15.003977850074245 13.21178351703386 0 -1 0
311 1 2 0.0651233849904331 6.838459887123567 12.274958064933434 10.77771740986774 0 0 0