ITEM: TIMESTEP
0
ITEM: NUMBER OF ATOMS
366
ITEM: BOX BOUNDS xy xz yz pp pp pp
-7.6516000000000002e+00 1.5037200000000000e+01 -7.4931000000000001e+00
0.0000000000000000e+00 1.3615700000000000e+01 -1.5850000000000000e-01
0.0000000000000000e+00 1.7607399999999998e+01 8.0699999999999994e-02
ITEM: ATOMS id type q x y z
172 1 -0.68993 1.47551 4.9997 8.16907
3 4 1.36617 1.07085 1.8785 0.314778
5 4 1.64741 1.00043 1.90889 5.57609
7 4 1.50965 0.344208 4.29451 2.05993
9 4 1.39465 -0.8288 6.72614 0.235541
10 4 1.19594 -0.0953635 4.35824 7.23882
338 1 -0.665245 4.08329 5.83573 0.888938
24 4 1.48447 3.66839 1.84825 4.06662
297 3 -0.812402 6.76006 1.15393 1.37745
28 4 1.53339 1.55136 6.14238 4.14682
65 3 -0.822497 1.56445 0.626226 1.14733
66 3 -0.832181 -0.0324973 1.93465 4.19112
67 3 -0.842018 0.949688 0.435926 6.35715
69 3 -0.82489 -1.11426 3.57156 2.16121
70 3 -0.838463 1.37555 3.26184 1.09579
71 3 -0.815864 0.0646602 5.69391 0.986189
72 3 -0.854378 0.358146 2.99318 6.58591
73 3 -0.85666 -2.20001 6.62247 4.43308
74 3 -0.819152 -0.78379 5.55731 6.27727
89 3 -0.848948 3.30282 0.721583 3.02766
90 3 -0.881701 2.46222 2.07917 5.05751
91 3 -0.791001 2.19798 1.0258 8.54591
92 3 -0.835816 5.15666 1.84946 4.82412
210 2 0.179093 1.3495 6.13491 8.39873
94 3 -0.890093 0.910546 4.89583 3.43269
93 3 -0.821012 6.55019 0.725938 6.90147
98 3 -0.840237 2.69473 5.41355 5.24195
351 2 0.199126 -2.96297 5.5868 0.737719
171 1 -0.657858 -1.31543 3.9214 8.59181
178 1 -0.683259 3.81345 3.444 2.88321
208 2 0.251718 2.07943 4.86153 7.27813
339 2 0.224511 3.14756 5.79338 1.52684
361 2 0.223227 -0.0923247 1.23162 8.42605
225 2 0.232536 3.59636 4.34545 3.51242
226 2 0.251711 2.9317 3.27198 2.11527
227 2 0.174063 4.85333 3.24934 2.48416
96 3 -0.809907 4.33906 2.96554 8.41784
31 4 1.62613 3.83749 6.24297 5.99705
207 2 0.256461 -2.21218 4.2929 7.95784
356 2 0.174944 4.01407 4.913 0.206183
27 4 1.63785 6.36767 1.95535 5.85317
99 3 -0.857965 4.53318 5.28465 7.10604
352 2 0.185765 -1.20107 2.69665 8.78466
209 2 0.191299 1.76932 4.25671 9.00075
13 4 1.2617 -0.291967 4.52697 14.0584
14 4 1.16928 -1.70515 6.49016 11.7415
26 4 1.13237 3.4012 1.90146 9.23874
68 3 -0.746809 -0.672483 1.97185 17.1007
75 3 -0.787996 -1.12336 3.31871 14.8468
313 2 0.181569 2.59087 0.93132 16.5603
77 3 -0.75525 -1.44092 5.49849 13.0898
100 3 -0.814503 0.863179 5.34548 14.875
242 2 0.149598 3.85538 6.14846 11.8278
173 1 -0.648389 0.946491 3.75101 12.8789
175 1 -0.669498 -0.248426 6.05933 10.6531
179 1 -0.628176 4.51643 0.337455 9.50498
180 1 -0.64418 2.43334 3.03527 10.47
181 1 -0.661725 3.77306 3.21992 14.3526
204 2 0.14678 0.248357 0.893292 14.5772
206 2 0.160635 -1.03772 4.61052 9.54732
327 1 -0.672134 5.21324 1.29338 16.5511
211 2 0.177496 2.00981 3.54101 13.492
212 2 0.158394 1.05486 4.40574 12
213 2 0.142236 0.335593 2.76564 12.7077
329 2 0.172961 4.0642 1.61276 16.4983
218 2 0.149048 0.302819 5.12123 11.0473
314 2 0.179309 2.65482 2.81509 16.5254
282 2 0.161504 3.77966 5.9665 9.98905
230 2 0.179522 5.65868 0.614059 9.60487
231 2 0.121948 2.86548 2.31376 11.4032
232 2 0.162605 1.26401 2.97734 10.3842
233 2 0.169036 2.8488 4.0454 10.4033
234 2 0.17237 4.37912 2.57081 15.1365
235 2 0.154935 3.39261 2.65304 13.4674
236 2 0.184627 3.08369 3.97714 14.8769
241 2 0.198427 2.46056 5.10771 12.8435
307 2 0.164587 5.81975 2.34943 12.3885
240 2 0.165519 3.44068 6.52596 13.83
303 1 -0.680268 5.44414 1.22398 12.4424
305 2 0.162339 4.66432 0.957502 13.2837
306 2 0.153817 5.13856 0.914102 11.3728
348 2 0.217852 -3.04135 5.66503 14.8662
312 1 -0.6816 2.02286 1.90087 16.3881
321 2 0.219807 -1.96704 4.64888 17.3015
183 1 -0.669642 3.46127 5.70406 12.9322
315 2 0.162048 1.52197 1.93309 15.351
320 1 -0.685067 -2.44397 5.65271 17.4551
76 3 -0.819844 -2.90322 6.54807 10.7623
322 2 0.161748 -2.96487 5.95686 16.456
328 2 0.157114 5.74447 1.24177 15.4806
217 2 0.16568 -0.532513 5.99901 9.5566
337 2 0.173114 7.05747 0.528149 10.1461
330 2 0.248513 5.27932 0.311687 17.0677
4 4 1.59296 -5.59215 13.2407 7.4158
23 4 1.5988 0.00440676 13.5025 2.26541
15 4 1.58565 -2.37884 9.11939 1.9223
17 4 1.5634 -3.94268 11.1816 0.13625
18 4 1.66223 -2.56045 8.71786 7.69722
20 4 1.66421 -3.80902 11.2611 5.91332
84 3 -0.856966 -6.14326 12.0436 8.39914
1 4 1.64283 -5.10883 13.216 2.25718
25 4 1.40138 -0.251659 12.956 7.77298
35 4 1.62927 -1.46284 11.3507 3.91517
248 2 0.206359 0.35341 7.55055 8.46478
78 3 -0.836006 -3.44719 8.2644 2.88222
79 3 -0.851454 -1.47439 7.97696 1.10659
80 3 -0.882411 -2.99056 10.0957 0.841744
81 3 -0.861802 -4.27378 12.2975 1.25529
357 2 0.239327 1.71914 9.28953 0.296254
83 3 -0.854641 -1.70683 8.00645 6.56638
114 3 -0.829954 1.45751 9.82075 6.44377
85 3 -0.849529 -5.10478 10.7443 5.08597
86 3 -0.808757 -3.31193 9.95491 6.87205
87 3 -0.874642 -4.27592 12.5888 6.8305
37 4 1.25308 2.34914 8.87794 7.27998
103 3 -0.844382 2.51814 7.14496 3.14987
105 3 -0.85786 -1.46858 9.98485 2.97987
106 3 -0.807087 -1.16674 12.6969 2.97872
107 3 -0.878981 -2.68521 11.6615 4.87256
358 2 0.23239 -0.140959 9.45885 0.506643
111 3 -0.849751 -1.34996 11.9194 8.39769
113 3 -0.864579 -0.0581496 11.3105 4.8739
310 3 -0.863793 -6.10137 12.4557 3.35834
184 1 -0.671091 0.949365 9.32792 2.7533
39 4 1.60165 1.20718 11.3086 5.78172
243 2 0.289043 0.73046 9.46705 3.80085
244 2 0.2231 0.41529 8.42055 2.28819
245 2 0.22539 0.853553 10.2974 2.12817
95 3 -0.822732 0.403536 7.26988 4.75384
82 3 -0.851564 -3.62658 7.79582 8.38866
109 3 -0.828541 3.07752 7.56144 6.6986
8 4 1.67916 -3.6579 6.97094 3.84161
12 4 1.63032 -1.10205 6.93754 5.47227
228 2 0.277548 -3.20933 13.0858 8.55984
22 4 1.17411 -3.86065 10.7947 11.5455
324 2 0.193899 -6.52441 12.2472 14.1631
353 2 0.164198 -3.42504 13.33 12.2266
38 4 1.48344 -1.29927 10.7119 9.51147
40 4 1.34485 1.92719 9.31318 13.9552
41 4 1.31945 -1.8619 11.6065 15.6709
42 4 1.33535 0.828123 11.2247 11.5959
88 3 -0.826208 -4.95202 10.6439 10.42
229 2 0.148283 -3.492 13.3979 10.5425
102 3 -0.837912 -0.28415 7.27497 16.4448
112 3 -0.807294 -2.3255 10.7683 10.8248
116 3 -0.843288 1.03072 8.05169 14.3849
117 3 -0.87939 -0.69848 12.0398 16.599
118 3 -0.780494 -1.64035 12.5158 14.1866
119 3 -0.830558 -3.34732 11.8634 16.3516
120 3 -0.830058 0.378412 10.5059 10.3002
121 3 -0.825302 1.16324 10.2394 12.8356
122 3 -0.801585 0.0201146 12.651 12.109
174 1 -0.671234 -1.36655 8.28246 12.3796
176 1 -0.701672 -4.1092 9.67063 13.1761
177 1 -0.664251 -4.37454 12.5775 12.1142
185 1 -0.720277 0.571862 9.828 17.5511
302 4 1.15795 -0.81983 13.4568 13.1719
189 1 -0.697067 -1.65036 9.75401 15.1565
214 2 0.225288 -0.655739 8.72567 11.6227
215 2 0.236535 -0.848885 8.05544 13.3686
216 2 0.18625 -2.29631 8.89926 12.6134
220 2 0.159565 -3.16794 9.73213 13.8741
221 2 0.202111 -4.22146 8.70175 12.6314
222 2 0.225134 -5.0218 9.95574 13.6918
223 2 0.165376 -4.8827 12.3851 13.1951
224 2 0.199359 -5.05164 12.9377 11.3037
246 2 0.196386 0.393142 9.51598 16.4568
325 2 0.197759 -4.72549 12.0357 14.6556
249 2 0.282522 0.883682 9.03153 9.38273
101 3 -0.84243 2.49111 6.93533 16.406
219 2 0.160676 0.265523 7.0991 10.8588
256 2 0.222412 -0.797082 9.25652 15.8292
257 2 0.192873 -1.28736 9.95394 14.0722
258 2 0.178234 -2.53255 9.1224 15.1763
326 2 0.181519 -5.84813 13.2612 15.5037
311 3 -0.848822 -5.49503 10.4995 17.2475
323 1 -0.690136 -5.81632 12.2697 14.9653
247 2 0.159914 1.91923 7.53113 9.46891
36 4 1.3212 0.599572 11.7789 17.4725
33 4 1.49158 1.03434 6.85889 15.5317
110 3 -0.840215 -1.46154 9.26571 8.80734
186 1 -0.675884 1.23332 8.12236 8.83903
2 4 1.57647 13.6582 2.39995 3.46771
280 2 0.274144 7.92998 3.41235 7.61945
131 3 -0.836581 4.91857 6.75325 4.98182
44 4 1.59494 9.08311 1.99564 4.16222
45 4 1.22249 12.9719 0.32881 7.79414
46 4 1.58586 11.6539 2.62943 5.80921
48 4 1.32986 9.89174 4.60545 2.17697
51 4 1.39549 10.0531 4.54169 7.54296
97 3 -0.82789 6.27608 3.37967 6.6514
359 2 0.181372 11.2619 1.05695 0.173908
123 3 -0.849595 12.8857 1.14351 2.78338
124 3 -0.840025 8.53047 0.661891 3.23582
125 3 -0.811542 7.78585 2.20962 5.14963
126 3 -0.805753 12.6227 3.03349 4.60371
127 3 -0.856846 10.3567 1.91863 5.03043
128 3 -0.819511 12.4704 1.48569 6.87422
129 3 -0.794076 9.22365 3.36333 3.21518
130 3 -0.83715 10.8487 5.72886 2.96464
132 3 -0.802792 8.86427 5.20972 1.11642
133 3 -0.874162 11.2424 3.86979 6.73884
30 4 1.5721 5.34543 4.12768 7.79472
191 1 -0.642026 10.9702 0.386264 1.1083
138 3 -0.831996 9.14973 5.42984 6.61826
354 2 0.182612 9.14284 2.07941 0.218188
196 1 -0.686395 11.0211 3.59148 1.07315
197 1 -0.673056 6.48524 5.37181 3.03901
198 1 -0.701564 8.95013 3.07778 8.14331
360 2 0.220651 10.1105 0.733075 1.82026
274 2 0.19042 11.0031 2.46887 1.11825
275 2 0.262621 12.0724 3.81438 1.44864
276 2 0.232693 7.32601 4.89781 3.6861
300 2 0.260772 7.36475 4.29241 0.625196
278 2 0.166976 5.51612 4.60207 3.01862
279 2 0.180693 9.37022 2.18681 7.62168
296 4 1.00788 6.68768 1.9148 0.0455353
340 2 0.187714 4.96658 5.76102 1.65009
298 1 -0.673581 6.36811 3.83929 0.230694
277 2 0.214822 6.77573 5.78874 2.02802
273 2 0.153558 10.8236 4.02779 0.0131843
363 2 0.188904 10.7505 0.871888 8.4443
301 2 0.172841 5.57167 3.87702 0.993541
347 1 -0.673579 11.0341 6.26194 14.7572
134 3 -0.86711 10.5518 5.39619 9.00735
47 4 0.955754 10.5407 2.8935 11.9417
52 4 1.3788 6.14921 6.45293 9.64853
54 4 1.1497 9.70755 5.20945 13.817
270 2 0.16665 10.5479 0.227333 12.4359
139 3 -0.765143 10.5444 4.12567 12.9319
140 3 -0.787624 5.66315 5.41192 15.0867
135 3 -0.815405 6.15043 4.79175 9.05961
299 2 0.220432 5.91659 4.32255 16.786
145 3 -0.807635 8.84356 6.18846 12.808
182 1 -0.665664 6.23045 4.29713 12.4611
355 2 0.189139 8.095 0.625483 15.1709
193 1 -0.67242 11.6178 3.01585 10.4045
194 1 -0.665103 8.63115 2.76091 11.3027
195 1 -0.656109 10.8256 1.26378 12.8287
281 2 0.176498 8.89514 3.01623 9.28949
200 1 -0.664762 8.40382 4.34133 14.929
349 2 0.161288 10.6784 6.75598 15.7303
192 1 -0.693592 14.1505 0.777895 9.19109
238 2 0.157119 7.09293 3.64928 12.9174
239 2 0.253496 6.60294 5.31464 12.077
342 2 0.136536 11.6154 0.419646 10.0696
264 2 0.156954 11.4554 1.98339 9.78203
265 2 0.168466 12.5845 3.14236 10.9101
266 2 0.265525 11.2588 4.01098 9.86963
267 2 0.168698 8.01892 2.82239 12.2228
268 2 0.169177 8.40742 1.81415 10.5932
269 2 0.190606 8.51855 3.74208 10.7958
144 3 -0.864105 6.98184 6.79111 10.9396
271 2 0.151745 10.5437 1.42223 13.9379
272 2 0.1384 12.0436 1.50187 12.5769
263 2 0.154091 13.7582 1.51962 9.91591
285 2 0.154502 9.04039 4.48215 15.8731
286 2 0.147844 8.30135 3.23591 14.6307
287 2 0.281694 7.31945 4.85973 15.0461
304 1 -0.672919 7.88649 1.01371 14.13
308 2 0.17389 8.90966 1.20146 13.5795
309 2 0.126144 7.17903 1.92023 14.0544
316 1 -0.657219 11.6622 1.98541 15.969
317 2 0.156774 11.6455 0.804251 16.1627
318 2 0.170624 11.02 2.24515 15.0536
319 2 0.167717 11.4183 2.64597 16.9584
331 1 -0.665273 8.26971 1.91933 16.9571
332 2 0.182789 8.34075 0.798601 16.5045
333 2 0.168491 8.38479 2.80095 16.1702
334 1 -0.660861 7.85622 0.338591 9.34091
32 4 0.920515 4.84641 4.7957 13.8117
170 1 -0.677593 14.2288 0.413701 14.7754
237 2 0.173589 5.77513 3.78218 11.5886
6 4 1.14062 13.5657 1.99001 15.6931
366 2 0.159571 13.8135 0.33639 12.0211
341 1 -0.664761 11.3595 0.152734 8.93754
335 2 0.173404 8.26106 1.35856 8.94745
205 2 0.168657 13.7396 0.113093 13.7156
141 3 -0.856347 7.59697 6.73938 16.3907
11 4 1.61651 10.917 6.79827 9.61512
59 4 1.66011 6.16835 11.3177 0.139697
250 2 0.212939 3.571 10.9911 7.75278
364 2 0.268924 10.3372 8.36693 0.745327
137 3 -0.83158 7.62906 7.08925 5.09078
16 4 1.66715 8.68197 11.0753 4.11937
53 4 1.6693 9.0028 6.98055 5.92365
57 4 1.66922 7.27236 9.17193 2.14719
58 4 1.61589 3.96031 11.0887 4.2954
60 4 1.63108 7.57657 8.75811 7.93898
61 4 1.63743 6.24662 11.0209 6.19669
34 4 1.42245 2.72881 8.66346 2.58924
187 1 -0.685132 3.57713 9.95976 8.17583
43 4 1.46147 5.00577 13.2799 2.14461
115 3 -0.852447 0.994815 12.2407 7.16164
262 2 0.24036 3.19027 12.8218 0.733107
136 3 -0.847946 10.3289 7.26633 5.01554
146 3 -0.807414 6.23188 8.18705 3.05783
147 3 -0.825748 7.88207 7.92988 1.2734
148 3 -0.870345 8.40182 9.82223 3.057
149 3 -0.807447 3.47773 9.73787 3.39144
150 3 -0.852435 4.52804 12.103 3.18311
151 3 -0.818674 2.57608 11.7294 4.91323
153 3 -0.868453 6.56157 10.1316 1.1445
154 3 -0.851966 5.91528 12.6734 0.965264
155 3 -0.834311 6.52649 7.51608 8.58365
156 3 -0.841801 8.73424 7.98208 7.09867
158 3 -0.857369 7.37692 11.2852 5.07176
159 3 -0.851502 4.87736 10.5566 5.53491
160 3 -0.876602 6.68649 9.7923 7.1228
161 3 -0.805777 5.83072 12.4092 7.14099
104 3 -0.776225 3.25851 8.56984 1.01718
49 4 1.43717 6.24467 6.99889 4.07701
251 2 0.235332 4.67324 9.5436 8.03901
50 4 1.28805 8.50656 6.90104 0.186276
108 3 -0.857797 0.818586 12.3452 1.30773
252 2 0.145313 3.15282 9.81039 9.24739
336 2 0.17708 1.30013 13.1183 9.9176
157 3 -0.873858 8.20513 9.64822 9.12629
55 4 1.483 6.23581 7.14066 15.6581
56 4 1.56811 8.50686 7.2361 11.6245
21 4 1.41491 8.48045 10.7875 16.0742
62 4 1.51295 7.42204 9.17377 13.7563
63 4 1.38622 3.35537 11.3057 16.031
64 4 1.14858 6.55565 11.3755 11.6976
142 3 -0.79569 5.09654 7.7251 16.6934
143 3 -0.845568 9.73413 7.30992 10.5759
152 3 -0.883377 7.10833 11.4907 16.5971
283 2 0.200402 4.15174 7.62942 9.07235
162 3 -0.839371 6.3312 8.15052 14.3737
163 3 -0.847448 8.26615 8.57576 12.5439
164 3 -0.853413 8.33327 9.52045 15.1209
165 3 -0.84556 2.74129 10.1466 15.111
166 3 -0.821941 4.56493 11.0571 17.0311
167 3 -0.8035 2.13269 12.2315 16.6173
168 3 -0.806212 7.72676 12.0166 10.7961
169 3 -0.81268 6.77655 10.7267 13.1504
190 1 -0.664941 2.53423 11.996 11.012
201 1 -0.669522 3.89109 12.4671 14.6203
202 1 -0.687948 5.49579 10.0914 10.7706
203 1 -0.64979 5.53598 13.0477 11.9103
284 2 0.17035 4.1301 7.54944 10.9253
343 2 0.167905 3.28003 12.6598 8.86467
346 2 0.223386 9.84661 8.21238 16.5285
253 2 0.152842 3.05107 9.12694 11.7256
255 2 0.205256 4.26064 9.32449 13.2672
259 2 0.165792 2.77766 11.827 9.87937
260 2 0.152991 3.19924 11.3809 11.7283
261 2 0.160989 2.54276 13.0891 11.2914
344 1 -0.681083 10.0503 7.72009 17.5309
288 2 0.175617 4.94989 12.9913 14.729
29 4 1.36052 3.64899 7.38555 17.3932
290 2 0.17543 3.8371 11.7239 13.7981
291 2 0.219615 6.23126 9.24324 10.3598
292 2 0.171545 4.99038 10.7073 9.9776
293 2 0.174673 4.69403 9.57052 11.3971
294 2 0.169421 4.85199 12.8833 12.9169
350 2 0.251026 6.87135 13.0275 15.4666
295 2 0.155355 4.89368 13.172 10.935
188 1 -0.674432 3.37934 8.79182 12.7731
289 2 0.1883 3.00169 13.1618 14.5074
362 2 0.276221 7.10584 13.3971 9.7381
19 4 1.57346 8.76739 11.0151 9.61179
199 1 -0.688261 4.29065 6.96401 10.0008
254 2 0.183479 3.41379 7.6437 12.8385
345 2 0.157882 10.954 6.9043 17.4924
365 2 0.183766 11.0528 7.02699 13.9045
ITEM: TIMESTEP
100
ITEM: NUMBER OF ATOMS
366
ITEM: BOX BOUNDS xy xz yz pp pp pp
-7.6786700000000003e+00 1.5037200000000000e+01 -7.4931000000000001e+00
0.0000000000000000e+00 1.3615700000000000e+01 -1.8557000000000023e-01
0.0000000000000000e+00 1.7607399999999998e+01 8.0699999999999994e-02
ITEM: ATOMS id type q x y z
172 1 -0.659554 1.4252 4.77044 8.23645
3 4 1.37102 1.09501 1.86384 0.330332
5 4 1.59108 0.951192 1.75916 5.40938
7 4 1.50229 0.367293 4.39522 1.82405
2 4 1.57565 -1.27567 2.39826 3.42431
10 4 1.18241 -0.146228 4.26222 7.33485
338 1 -0.67928 3.93349 5.67811 0.821152
24 4 1.45626 3.68108 1.91002 4.04241
297 3 -0.766946 6.85532 1.13924 1.27773
28 4 1.61856 1.50895 6.14426 4.10465
65 3 -0.835985 1.35059 0.656544 1.29184
66 3 -0.85044 0.0678268 1.86741 4.0223
67 3 -0.797272 0.698882 0.32913 6.19953
69 3 -0.839617 -0.979165 3.6739 2.1235
70 3 -0.82404 1.59032 3.33884 0.772766
71 3 -0.833834 0.167394 5.94075 1.10422
72 3 -0.800912 0.239701 3.01438 6.35631
73 3 -0.839727 -2.26953 6.52673 4.40098
74 3 -0.801265 -0.79529 5.60076 6.63061
89 3 -0.835021 3.36419 0.725858 3.06198
90 3 -0.846934 2.48188 2.20824 5.07154
91 3 -0.840501 2.33377 1.0927 8.24127
92 3 -0.792311 5.17359 1.88636 4.86731
210 2 0.178855 1.2376 6.0082 8.45795
94 3 -0.854052 1.13203 4.86351 3.09358
93 3 -0.822625 6.41229 0.73186 7.00089
98 3 -0.861834 2.57054 5.70736 5.20339
351 2 0.181611 -2.99761 5.80701 0.780717
171 1 -0.660389 -1.50494 3.83586 8.59024
178 1 -0.675429 3.75382 3.39468 2.81136
208 2 0.264164 2.07168 4.56095 7.29178
339 2 0.244491 3.01573 5.68201 1.45841
361 2 0.19173 -0.0822346 1.19597 8.51667
225 2 0.215311 3.66406 4.21739 3.56286
226 2 0.272614 2.78525 3.39811 2.03862
227 2 0.161682 4.70773 3.46799 2.21769
96 3 -0.84683 4.3169 3.00961 8.25624
31 4 1.63834 3.80385 6.32145 6.08048
99 3 -0.857708 4.22661 5.25423 7.17829
356 2 0.189122 3.91393 4.84587 0.0777688
228 2 0.272081 4.60373 0.0791288 8.52576
209 2 0.173046 1.70683 4.04812 9.13109
13 4 1.30092 -0.375358 4.5107 14.1359
14 4 1.1338 -1.71365 6.49389 11.8711
26 4 1.19514 3.42099 1.94745 9.00737
68 3 -0.744547 -0.665799 1.91509 17.3148
75 3 -0.792513 -1.02377 3.28636 15.0331
313 2 0.167019 2.62777 0.653165 16.4324
77 3 -0.76351 -1.49272 5.52345 13.2477
100 3 -0.83272 0.610773 5.51817 14.9293
242 2 0.147598 3.43754 6.0459 11.7954
173 1 -0.655364 0.718873 3.57261 12.931
175 1 -0.647108 -0.344446 5.85755 10.7125
179 1 -0.661526 4.58227 0.510098 9.52678
180 1 -0.685713 2.50198 2.7479 10.4821
181 1 -0.67313 3.71611 3.05676 14.1661
204 2 0.148928 0.296561 0.909497 14.6387
206 2 0.174 -1.22333 4.64375 9.41289
327 1 -0.673218 5.2402 1.38008 16.4674
211 2 0.158177 1.85437 3.35274 13.3735
212 2 0.140717 0.724601 4.27036 11.9028
213 2 0.155759 0.187319 2.58505 12.8221
329 2 0.180899 4.07393 1.49621 16.5019
218 2 0.13665 0.024523 4.7527 10.8277
314 2 0.173173 2.81084 2.59243 16.4669
282 2 0.17278 3.87556 5.68444 10.0685
230 2 0.167213 5.67223 0.842594 9.8255
231 2 0.152506 3.06851 2.27552 11.2259
232 2 0.164325 1.40381 2.45444 10.4036
233 2 0.149569 2.7586 3.91376 10.5036
234 2 0.172558 4.34804 2.50602 14.9554
235 2 0.150664 3.28838 2.41466 13.332
236 2 0.172167 2.95263 3.76173 14.6324
241 2 0.186706 2.23374 4.84446 12.9787
307 2 0.14845 5.82844 2.3532 12.478
240 2 0.187201 3.41985 6.36209 13.8608
303 1 -0.648762 5.5107 1.18042 12.5608
305 2 0.170778 4.64418 0.94273 13.3591
306 2 0.150244 5.12081 0.890803 11.4304
348 2 0.214837 -2.96273 5.87861 14.8732
312 1 -0.682214 2.04613 1.68237 16.3736
321 2 0.21467 -1.96863 4.67192 17.57
183 1 -0.645397 3.24868 5.55197 12.9342
315 2 0.167772 1.4757 1.73761 15.4702
320 1 -0.690868 -2.48624 5.66136 17.4911
76 3 -0.804544 -2.98726 6.54854 10.8957
322 2 0.169439 -2.92874 5.9322 16.4619
328 2 0.151444 5.58351 1.42894 15.3975
217 2 0.172072 -0.62126 6.11623 9.59611
337 2 0.186395 6.99394 0.573679 10.2075
330 2 0.240101 5.52525 0.395397 16.8857
32 4 0.893464 4.73223 4.6362 13.5994
219 2 0.142575 0.485203 6.62292 11.2471
352 2 0.171069 -1.35775 2.68991 8.91667
4 4 1.55562 -5.64209 13.2471 7.36528
110 3 -0.84866 -1.48704 9.33327 8.7898
15 4 1.54599 -2.35833 9.07813 2.08927
17 4 1.57384 -3.8905 11.0772 0.255311
18 4 1.62253 -2.50287 8.85395 7.67704
20 4 1.66071 -3.87954 11.1963 5.93996
84 3 -0.886946 -6.27921 12.1009 8.304
1 4 1.63486 -5.12698 13.2733 2.24038
25 4 1.36738 -0.227565 13.0296 7.89023
35 4 1.61373 -1.3852 11.4452 4.05156
248 2 0.226177 0.0886338 7.53971 8.46606
78 3 -0.867014 -3.70123 8.35069 2.83721
79 3 -0.857067 -1.38625 7.8688 1.29363
80 3 -0.871802 -2.86317 9.96695 0.864535
81 3 -0.832585 -4.20935 12.2542 1.32825
357 2 0.254851 1.77371 9.26444 0.156882
83 3 -0.817915 -1.61143 8.06282 6.52028
114 3 -0.798903 1.49791 9.68277 6.48255
85 3 -0.819768 -5.21335 10.656 5.15502
86 3 -0.867744 -3.27735 10.2022 7.03672
87 3 -0.834502 -4.34983 12.7298 6.57382
37 4 1.23875 2.22581 8.75968 7.47275
103 3 -0.855919 2.44156 7.17784 3.15918
105 3 -0.815455 -1.44606 9.93963 3.10986
106 3 -0.815615 -1.09764 12.6436 2.9546
107 3 -0.856442 -2.79755 11.5386 4.82095
358 2 0.20018 -0.183185 9.60223 0.20479
111 3 -0.845246 -1.10138 11.9927 8.72681
113 3 -0.896016 -0.0935647 11.2951 5.01185
310 3 -0.865648 -5.96766 12.3349 3.28399
184 1 -0.661713 1.0147 9.34258 2.67122
9 4 1.42897 -0.830108 6.81609 0.308883
243 2 0.268476 0.726296 8.98935 3.7572
244 2 0.240246 0.418369 8.81428 1.91397
245 2 0.246342 1.08866 10.4646 2.53775
95 3 -0.872571 0.25121 6.94597 4.7532
82 3 -0.798968 -3.41575 7.79199 8.52216
109 3 -0.821614 3.15111 7.57472 6.93513
8 4 1.61302 -3.69662 7.09059 3.75501
12 4 1.62064 -1.14866 6.80002 5.50876
22 4 1.20591 -3.7825 10.9451 11.3183
324 2 0.1818 -6.49411 12.3021 14.0527
353 2 0.184216 -3.42417 13.3222 12.3433
38 4 1.52104 -1.17307 10.6829 9.67595
40 4 1.33478 2.02331 9.23962 13.9037
41 4 1.27815 -1.96068 11.6883 15.7187
42 4 1.28058 0.994534 11.3293 11.6626
88 3 -0.825074 -4.90826 10.774 10.2064
229 2 0.157295 -3.44813 13.5354 10.4662
102 3 -0.833021 -0.357471 7.34154 16.4867
112 3 -0.829184 -2.1679 10.8724 10.8994
116 3 -0.833601 1.12527 7.93194 14.3065
117 3 -0.855804 -0.602914 12.107 16.6441
118 3 -0.759387 -1.85235 12.5632 14.1611
119 3 -0.834261 -3.35282 11.7995 16.4544
120 3 -0.826094 0.558036 10.5191 10.3196
121 3 -0.80749 1.23221 10.3349 12.9454
122 3 -0.77589 0.0339111 12.7462 12.1218
174 1 -0.674123 -1.12079 8.3159 12.3604
176 1 -0.668748 -3.98277 9.8054 12.8657
177 1 -0.663457 -4.36851 12.6605 12.0725
185 1 -0.678164 0.647234 9.93481 17.2941
302 4 1.15132 -0.779101 13.4464 13.301
189 1 -0.652507 -1.66742 9.79466 15.2015
214 2 0.227034 -0.494828 8.82976 11.5874
215 2 0.247898 -0.393622 8.00914 13.1814
216 2 0.176563 -2.174 8.87621 12.6048
220 2 0.167853 -3.11227 9.79096 13.746
221 2 0.18437 -3.98975 8.8161 12.2332
222 2 0.243824 -4.97871 9.93929 13.3228
223 2 0.185216 -4.93083 12.4029 13.0347
224 2 0.174297 -4.92482 13.193 11.2546
246 2 0.221642 0.587265 9.76715 16.1848
325 2 0.197279 -4.77113 11.6236 14.5383
249 2 0.249915 0.84209 8.93495 9.52341
101 3 -0.841042 2.44904 7.06436 16.4123
186 1 -0.67176 1.08015 7.94917 8.86626
256 2 0.202845 -0.79472 9.67673 16.0072
257 2 0.203257 -1.36038 9.19364 14.1969
258 2 0.1711 -2.65317 9.40429 15.6382
326 2 0.175206 -5.56723 13.1192 15.5129
311 3 -0.862857 -5.44916 10.6017 17.2735
323 1 -0.649121 -5.7601 12.1316 14.8837
247 2 0.152157 1.71015 7.21796 9.51911
36 4 1.36971 0.716013 11.8441 17.4804
33 4 1.54155 0.982337 6.89783 15.5744
365 2 0.182039 -3.81612 7.16219 13.8117
341 1 -0.658756 11.2252 0.185607 8.71772
280 2 0.25117 8.09255 3.23492 7.46312
131 3 -0.849473 5.12252 6.67776 5.21181
44 4 1.58357 9.05891 1.95226 4.17174
45 4 1.20768 12.938 0.363494 7.78647
46 4 1.56553 11.7202 2.60006 5.68113
48 4 1.4141 9.77938 4.56886 2.15833
51 4 1.40762 10.0476 4.66321 7.4608
97 3 -0.840106 6.2156 3.48987 6.65257
359 2 0.184376 11.3836 0.902389 0.217392
123 3 -0.854049 13.0956 1.03631 2.81059
124 3 -0.855573 8.72279 0.717707 3.2247
125 3 -0.837595 7.85815 2.08589 5.17757
126 3 -0.810049 12.6937 3.12267 4.48562
127 3 -0.820008 10.4295 1.77152 5.0345
128 3 -0.800348 12.5134 1.57137 6.73177
129 3 -0.81269 9.21125 3.45392 3.14941
130 3 -0.80726 10.6283 5.69759 2.8548
132 3 -0.830098 8.82185 5.21489 1.11721
133 3 -0.842067 11.1686 3.90712 6.59128
30 4 1.57097 5.24201 4.16026 7.74731
191 1 -0.645267 11.0192 0.421826 1.21541
138 3 -0.837903 9.07736 5.62293 6.64011
354 2 0.188062 9.12955 2.21925 0.272717
196 1 -0.675303 10.9954 3.62104 1.02942
197 1 -0.662988 6.28022 5.3508 2.98535
198 1 -0.672939 9.09721 3.06828 8.07993
360 2 0.211493 10.532 1.12818 1.95607
274 2 0.172467 10.9982 2.43912 1.13451
275 2 0.239094 11.9451 4.13383 1.41493
276 2 0.237585 7.23231 4.83161 3.46559
300 2 0.258475 7.24574 4.28976 0.722109
278 2 0.168885 5.31703 4.60355 2.96437
279 2 0.186477 9.78644 2.28922 7.77901
207 2 0.275602 12.6158 4.04307 7.95689
340 2 0.177177 4.88169 5.58589 1.56554
298 1 -0.683516 6.29516 3.84714 0.339911
277 2 0.195473 6.57448 5.92167 2.03491
27 4 1.58141 6.38643 2.00365 5.96771
363 2 0.159394 10.6827 1.23358 8.55243
301 2 0.166368 5.52086 3.70518 1.16924
347 1 -0.671874 11.0887 6.45091 14.7082
134 3 -0.840374 10.5797 5.25256 8.90455
47 4 0.949165 10.4381 2.8316 11.9423
52 4 1.2976 6.05063 6.43666 9.52203
54 4 1.12768 9.83629 5.28683 13.7732
270 2 0.156162 10.449 0.235216 12.9086
139 3 -0.760046 10.5094 4.03678 12.9544
140 3 -0.766021 5.46266 5.55567 14.867
135 3 -0.788536 6.19675 4.82424 9.11848
299 2 0.190594 5.64057 4.40006 17.0478
145 3 -0.781774 8.98183 6.26727 12.6951
182 1 -0.661336 6.18556 4.31612 12.3586
355 2 0.187244 7.98709 0.294482 15.4938
193 1 -0.64519 11.6918 2.87868 10.4838
194 1 -0.635811 8.55237 2.99666 11.3121
195 1 -0.65544 10.8309 1.36476 13.0576
281 2 0.161983 8.9176 3.07014 9.32152
200 1 -0.661861 8.45177 4.44476 14.8559
141 3 -0.81141 7.65701 6.75608 16.3608
192 1 -0.689065 14.0797 0.751859 9.24771
238 2 0.164128 6.94665 3.77734 12.9663
239 2 0.285593 6.60766 5.28668 11.8296
205 2 0.165631 13.8858 0.115294 13.6813
264 2 0.140641 11.5131 1.80379 9.86011
265 2 0.165061 12.794 3.08214 10.8345
266 2 0.250832 11.3061 3.79592 9.81859
267 2 0.161545 7.85291 2.94976 12.2937
268 2 0.16127 8.33923 2.03716 10.6183
269 2 0.201077 8.50748 3.98933 10.6654
11 4 1.52647 10.8513 6.78971 9.72028
271 2 0.149366 10.4683 1.8638 14.1117
272 2 0.171967 11.9617 1.44384 12.9339
263 2 0.148776 13.69 1.46939 10.0272
285 2 0.149365 9.06486 4.66469 15.8233
286 2 0.151342 8.52744 3.37308 14.4793
287 2 0.250413 7.42977 4.91068 14.8826
304 1 -0.663465 7.92721 0.850735 14.4073
308 2 0.165295 8.99249 1.07244 13.8524
309 2 0.131071 7.28811 1.78184 14.5581
316 1 -0.65979 11.7068 1.97046 16.0436
317 2 0.154008 11.5842 0.799743 16.1119
318 2 0.169826 11.1677 2.45882 15.114
319 2 0.179149 11.4067 2.51807 17.0529
331 1 -0.67706 8.3785 2.06528 16.9606
332 2 0.184752 8.60922 1.02445 16.4621
333 2 0.16989 8.44972 2.98144 16.2602
334 1 -0.641077 7.92951 0.413972 9.47546
144 3 -0.821655 7.11295 6.7996 11.0819
170 1 -0.682247 14.2922 0.433213 14.7474
237 2 0.157776 5.61726 3.6392 11.6375
6 4 1.12188 13.6141 1.93387 15.8035
366 2 0.15405 14.0141 0.148786 11.9292
199 1 -0.715847 4.24411 6.70264 10.0421
335 2 0.164756 8.43568 1.3637 8.95695
273 2 0.16185 10.5736 4.02033 17.601
296 4 0.978304 6.62467 2.12329 17.5971
59 4 1.64068 6.16226 11.2241 0.232996
250 2 0.218538 3.61625 10.7188 7.64475
39 4 1.5583 1.22231 11.3589 5.83732
137 3 -0.880493 7.81085 6.81081 4.8639
16 4 1.72294 8.64703 11.0236 4.0905
53 4 1.66023 8.97343 7.05193 5.83856
57 4 1.6334 7.28761 9.06904 2.14728
58 4 1.67488 3.83649 11.165 4.31983
60 4 1.58871 7.42594 8.7475 7.92558
61 4 1.65925 6.22038 11.0199 6.17238
34 4 1.47168 2.77396 8.62231 2.57139
187 1 -0.670123 3.57097 9.85651 8.32844
43 4 1.49715 5.10864 13.2303 2.21195
115 3 -0.835621 1.0887 12.4334 7.18071
262 2 0.249748 3.00652 12.9234 1.18947
136 3 -0.826204 10.4248 7.34127 5.01207
146 3 -0.797687 6.22056 8.24964 3.23547
147 3 -0.866663 7.91125 7.88632 1.15755
148 3 -0.881458 8.33496 9.83963 3.10674
149 3 -0.818517 3.40305 9.69984 3.45059
150 3 -0.859113 4.42523 12.1986 3.26853
151 3 -0.846636 2.4929 11.7555 4.94676
153 3 -0.889344 6.52045 10.1076 1.27113
154 3 -0.869423 5.88842 12.5191 1.02437
155 3 -0.847869 6.46781 7.43535 8.3863
156 3 -0.836327 8.66765 8.27405 6.92474
158 3 -0.857451 7.43195 11.2108 5.17159
159 3 -0.874001 4.85077 10.82 5.43968
160 3 -0.852738 6.41188 9.74596 7.14583
161 3 -0.767977 5.81359 12.5161 7.10255
104 3 -0.807673 3.18683 8.58889 1.06097
49 4 1.43739 6.33185 6.92863 4.2018
251 2 0.229117 4.55081 9.18475 8.48628
50 4 1.32028 8.54186 6.83958 0.210624
108 3 -0.85091 0.875128 12.3056 1.45527
343 2 0.214833 3.22306 12.8583 8.22447
364 2 0.264558 10.2949 8.33099 0.757406
23 4 1.56238 0.125471 13.4679 2.33109
252 2 0.156247 3.07706 10.1818 9.27193
336 2 0.185873 1.27467 13.2836 10.002
157 3 -0.869819 7.8747 9.64418 9.21469
55 4 1.43996 6.12142 7.02472 15.557
56 4 1.59575 8.51223 7.3489 11.5342
21 4 1.38978 8.49966 10.8426 16.1126
62 4 1.52003 7.50558 9.10474 13.7803
63 4 1.33054 3.42561 11.2356 16.0245
64 4 1.16928 6.58234 11.3344 11.7014
142 3 -0.818221 5.03794 7.55115 16.6524
143 3 -0.883755 9.5806 7.39493 10.3639
152 3 -0.858524 7.18501 11.5998 16.5647
283 2 0.203478 3.79734 7.2784 9.20146
162 3 -0.819307 6.34627 8.02252 14.1954
163 3 -0.810545 8.41873 8.76869 12.4604
164 3 -0.855383 8.43392 9.56051 14.9987
165 3 -0.818467 2.65615 9.99476 15.1677
166 3 -0.828972 4.69009 10.9622 16.9598
167 3 -0.819225 2.08689 12.122 16.7227
168 3 -0.835679 7.76843 11.7306 10.6859
169 3 -0.799297 6.78056 10.5485 13.0754
190 1 -0.672865 2.7507 11.9826 11.2618
201 1 -0.678451 3.93977 12.46 14.6361
202 1 -0.68444 5.40665 10.1677 10.6463
203 1 -0.6711 5.58859 13.0393 11.8941
284 2 0.16576 4.24873 7.24611 11.07
345 2 0.141184 10.9055 6.91791 17.3959
346 2 0.234258 9.81123 8.32422 16.5247
253 2 0.151893 3.17571 9.1333 11.7155
255 2 0.197612 4.3086 9.21771 13.3068
259 2 0.169937 2.6465 11.9056 10.1382
260 2 0.155684 3.46224 11.1622 11.7411
261 2 0.152299 2.99217 13.0758 11.6646
344 1 -0.683503 9.99604 7.77308 17.4484
288 2 0.176777 4.99417 13.0105 14.7147
29 4 1.35394 3.62081 7.33176 17.4025
290 2 0.165842 3.87192 11.7231 13.7911
291 2 0.248074 6.15971 9.50697 10.1396
292 2 0.191937 4.88318 10.694 9.86255
293 2 0.172993 4.74947 9.51286 11.3765
294 2 0.167762 4.9678 12.8457 12.9282
350 2 0.258215 6.91466 13.0382 15.5147
295 2 0.155065 4.90124 13.3403 11.0167
188 1 -0.686272 3.44297 8.67409 12.7093
289 2 0.185801 3.10558 13.2254 14.6913
362 2 0.242176 6.92323 13.2526 9.7376
19 4 1.60793 8.67055 11.043 9.50694
254 2 0.190566 3.52957 7.53953 12.7434
349 2 0.163382 10.608 6.96635 15.6988
342 2 0.132414 3.9911 13.5199 9.89141
ITEM: TIMESTEP
200
ITEM: NUMBER OF ATOMS
366
ITEM: BOX BOUNDS xy xz yz pp pp pp
-7.7057400000000005e+00 1.5037200000000000e+01 -7.4931000000000001e+00
0.0000000000000000e+00 1.3615700000000000e+01 -2.1264000000000038e-01
0.0000000000000000e+00 1.7607399999999998e+01 8.0699999999999994e-02
ITEM: ATOMS id type q x y z
172 1 -0.655964 1.36661 4.85806 8.22935
3 4 1.4399 1.19095 1.77354 0.402477
5 4 1.62779 0.939114 1.93337 5.40718
7 4 1.54163 0.524931 4.42995 1.88743
2 4 1.61727 -1.27356 2.46438 3.26258
10 4 1.19097 -0.236662 4.31219 7.31528
338 1 -0.659071 3.83863 5.64913 0.739122
24 4 1.47308 3.7032 1.87072 4.11265
99 3 -0.867514 4.33604 5.27472 7.1955
28 4 1.61005 1.59162 6.17595 4.15445
65 3 -0.852146 1.55843 0.622014 1.3549
66 3 -0.837146 0.107486 1.99711 3.9852