ITEM: TIMESTEP
0
ITEM: NUMBER OF ATOMS
366
ITEM: BOX BOUNDS xy xz yz pp pp pp
-7.6516000000000002e+00 1.5037200000000000e+01 -7.4931000000000001e+00
0.0000000000000000e+00 1.3615700000000000e+01 -1.5850000000000000e-01
0.0000000000000000e+00 1.7607399999999998e+01 8.0699999999999994e-02
ITEM: ATOMS id type q x y z
351 2 0.159323 -3.04167 5.7445 0.429154
3 4 1.33548 0.983354 2.01991 0.251912
5 4 1.60061 0.693523 1.68023 5.47928
7 4 1.61661 0.304212 4.23627 2.20955
301 2 0.178152 5.45531 3.4622 1.89767
10 4 1.2321 -0.238956 4.39508 7.17223
339 2 0.221485 3.18417 5.43587 1.66613
24 4 1.48791 3.49582 1.80578 4.28649
297 3 -0.778684 6.68297 0.726212 1.43708
28 4 1.61381 1.57825 6.1199 4.18197
65 3 -0.798206 1.68756 0.602854 0.89928
66 3 -0.810505 -0.166402 1.5067 4.07373
67 3 -0.841357 0.799124 0.376213 6.41415
69 3 -0.857917 -1.10683 3.57743 2.6738
70 3 -0.832553 1.19149 3.13308 1.35404
71 3 -0.855927 -0.0376216 5.48018 1.1387
72 3 -0.834493 0.0247416 2.99962 6.44706
338 1 -0.671131 4.10792 5.58886 1.03512
74 3 -0.856915 -0.77034 5.55915 6.30815
89 3 -0.838966 3.2814 0.832717 3.04027
90 3 -0.847621 2.21715 2.14299 5.12237
91 3 -0.806054 2.19802 0.930274 8.58823
92 3 -0.801428 4.73356 1.56995 5.30705
27 4 1.57433 6.27121 2.05735 5.80832
94 3 -0.878689 1.08552 4.78187 3.44557
9 4 1.37045 -0.735108 6.53386 0.151646
98 3 -0.864357 2.67062 5.60994 5.19209
96 3 -0.794466 4.36106 2.89164 8.58022
172 1 -0.663704 1.49351 4.92147 8.06373
178 1 -0.688475 4.06071 3.51793 3.42134
208 2 0.267409 2.07212 4.67181 7.12418
361 2 0.248519 -0.766655 1.88202 7.77954
210 2 0.181635 1.38769 6.10807 8.3025
225 2 0.263129 3.6041 4.38954 4.08118
226 2 0.20558 3.67512 3.53667 2.38466
227 2 0.171097 5.20916 3.36044 3.44753
93 3 -0.819163 6.84146 0.870871 6.88714
356 2 0.167986 4.23623 4.75634 0.273509
31 4 1.61561 3.89273 6.2229 6.14661
99 3 -0.89702 4.26877 5.1975 7.22766
73 3 -0.8647 -2.24075 6.72296 4.30109
171 1 -0.683599 -1.21397 4.0608 8.74505
321 2 0.200054 -2.05568 4.64474 17.0658
13 4 1.28867 -0.492651 4.54092 13.9985
14 4 1.14206 -1.12211 6.56516 11.6946
26 4 1.14504 3.42359 1.71959 9.30735
68 3 -0.78576 -0.825832 2.1301 17.2496
75 3 -0.795728 -1.31426 3.51595 14.9331
209 2 0.17507 1.78812 4.3103 8.9559
77 3 -0.788697 -1.31756 5.83591 13.0054
100 3 -0.825456 0.82128 5.07872 14.699
330 2 0.165815 5.63248 1.90903 15.3313
173 1 -0.669524 0.102814 3.12154 12.8309
175 1 -0.686311 0.531929 5.69241 11.0049
179 1 -0.647659 4.62343 0.235621 9.78516
180 1 -0.656935 2.77531 2.71261 10.7427
181 1 -0.655723 3.70476 3.64176 14.3627
204 2 0.144107 0.00799169 0.854062 14.9342
206 2 0.152 -0.534496 3.41605 9.37631
207 2 0.227853 -1.58206 4.98854 9.36073
211 2 0.147306 -0.735614 3.22261 12.0566
212 2 0.178664 0.0706367 2.22571 13.4758
213 2 0.175542 1.10067 3.28709 12.4084
217 2 0.169203 0.850314 5.46101 9.93468
218 2 0.1656 0.553086 4.69741 11.6399
314 2 0.215397 2.48007 3.62092 16.8922
328 2 0.13656 4.56377 2.53033 16.8631
230 2 0.22036 5.69429 0.487904 9.93437
231 2 0.167797 1.71623 2.74264 10.4233
232 2 0.162574 3.34675 3.73663 10.8405
233 2 0.13056 3.12595 1.81063 11.5097
234 2 0.178123 4.26587 2.85673 15.0365
235 2 0.164701 3.41827 3.24195 13.3866
236 2 0.244871 2.90679 4.26618 14.8451
241 2 0.143333 3.05597 6.39473 12.5079
76 3 -0.811978 -2.36146 6.66008 10.5219
349 2 0.21759 -2.93964 6.33195 14.499
303 1 -0.67308 5.15814 1.47176 12.678
305 2 0.163363 4.32595 1.33694 13.4569
306 2 0.163077 4.9439 1.06678 11.5849
307 2 0.165397 5.4801 2.56466 12.6554
312 1 -0.690201 1.9944 2.70438 16.5334
313 2 0.172642 2.70224 1.78108 16.6126
282 2 0.194724 3.85916 5.79824 9.52626
315 2 0.188561 1.47991 2.75253 15.5615
320 1 -0.668112 -2.4572 5.72097 17.1481
302 4 1.12288 6.63368 0.320713 13.2298
322 2 0.150884 -3.05693 6.17955 16.1269
327 1 -0.644453 5.27293 1.61964 16.3899
33 4 1.50244 1.24619 6.50364 15.5521
329 2 0.269401 4.81669 0.509447 16.4319
101 3 -0.828298 2.61302 6.21384 16.3834
219 2 0.139984 1.22064 6.43853 11.4529
4 4 1.58502 -5.72515 13.1973 7.49368
8 4 1.63113 -3.7085 7.17162 3.79386
15 4 1.55883 -2.3868 9.16982 1.8315
17 4 1.56709 -3.91362 11.2523 0.34251
18 4 1.63519 -2.48751 8.92047 7.59625
20 4 1.69161 -3.96358 11.199 5.9402
114 3 -0.799321 1.85886 9.91559 6.73135
110 3 -0.858778 -1.36581 9.66472 8.52479
25 4 1.44569 0.0140387 13.2216 7.72432
35 4 1.62652 -1.39818 11.2695 4.04642
37 4 1.23051 2.34611 8.74323 7.59511
78 3 -0.873744 -3.4285 8.32096 2.68679
79 3 -0.813521 -1.34161 7.83792 0.988476
80 3 -0.88956 -2.96889 9.9797 0.596511
81 3 -0.852111 -4.09533 12.1779 1.58104
109 3 -0.798086 3.15348 7.49223 6.93908
83 3 -0.868984 -1.7045 8.0834 6.38637
84 3 -0.882956 -6.49579 12.0847 8.49891
85 3 -0.842484 -5.26185 10.888 5.03134
86 3 -0.839232 -3.46351 10.0297 6.95638
87 3 -0.852955 -4.42597 12.5483 6.77198
95 3 -0.853535 0.388012 7.0522 4.82081
103 3 -0.854529 2.59832 7.12049 3.21925
105 3 -0.851783 -1.51706 10.1627 2.71455
106 3 -0.821847 -0.921359 12.7085 3.51039
107 3 -0.845037 -2.77482 11.5014 4.92642
108 3 -0.841828 0.856056 11.9346 1.41187
111 3 -0.837019 -0.929993 12.3645 8.63611
113 3 -0.861997 -0.17074 10.686 4.93236
34 4 1.4594 2.73104 8.44805 2.43822
184 1 -0.683038 0.864382 8.99239 2.55296
39 4 1.59826 1.17603 11.1696 5.73794
243 2 0.277626 0.639089 8.87375 3.65961
244 2 0.252154 0.04873 8.4823 1.9071
245 2 0.258212 0.846605 10.0542 2.19825
248 2 0.208201 0.216883 7.9248 7.94259
310 3 -0.816987 -6.14515 12.5111 3.23338
364 2 0.245189 -4.72651 8.56064 0.5954
82 3 -0.84229 -3.51541 8.01708 8.50503
1 4 1.61834 -5.09935 13.3334 2.19698
358 2 0.240319 -0.271172 9.17836 0.15549
12 4 1.62602 -1.16558 6.88218 5.44806
357 2 0.25345 1.62207 9.0294 0.0431734
23 4 1.50035 0.078818 13.318 2.38073
22 4 1.21677 -3.77043 10.8686 11.2799
324 2 0.194281 -6.65222 12.4584 14.1033
102 3 -0.84288 0.0225171 7.02976 16.4796
38 4 1.53131 -1.07574 10.8811 9.57894
40 4 1.27499 1.91054 9.22598 13.9183
41 4 1.28637 -1.95855 11.8864 15.6392
42 4 1.22963 0.686396 11.413 11.8341
88 3 -0.810674 -4.94566 10.7884 10.2239
325 2 0.203243 -4.96714 12.6114 14.7782
229 2 0.16385 -3.44478 13.3063 10.8204
112 3 -0.846436 -2.31342 11.0062 10.6356
116 3 -0.825921 1.45639 7.77552 14.5042
117 3 -0.823706 -0.661416 11.9808 16.722
118 3 -0.777113 -1.53766 12.898 14.3454
119 3 -0.768519 -3.33528 12.2982 16.454
120 3 -0.860957 0.26432 10.585 10.4135
121 3 -0.773756 0.73374 10.4246 13.1558
122 3 -0.763203 -0.0791977 13.1213 11.9551
174 1 -0.641942 -0.686707 8.43086 12.2006
176 1 -0.704223 -3.75907 9.19789 12.2775
177 1 -0.675629 -4.14712 12.3645 12.3969
185 1 -0.697735 0.515424 9.6512 17.2632
353 2 0.17923 -3.60407 13.3732 12.5268
189 1 -0.672814 -2.34693 10.1347 15.0864
214 2 0.17241 0.370368 8.30268 11.659
215 2 0.220821 -0.649461 8.55148 13.3234
216 2 0.214568 -1.26871 9.2407 11.6755
220 2 0.173824 -2.65422 8.92145 12.3387
221 2 0.282076 -4.3275 8.44598 11.6624
222 2 0.181242 -4.18036 9.29804 13.3356
223 2 0.14192 -3.96209 11.5828 13.3559
224 2 0.199438 -5.24604 12.4896 12.1084
246 2 0.205686 0.393443 9.43162 16.2043
247 2 0.158829 0.828262 7.14445 9.63638
249 2 0.2444 0.766308 8.99121 9.37893
36 4 1.37798 0.626598 11.529 17.4798
254 2 0.165536 2.52806 7.53432 12.0851
256 2 0.22321 -2.93257 9.75623 15.9591
257 2 0.166969 -1.19085 9.79138 15.0821
258 2 0.152877 -2.93052 9.87986 13.9981
348 2 0.196824 -3.97782 7.75713 13.69
311 3 -0.871771 -5.39383 10.9054 17.1951
323 1 -0.666046 -6.07591 12.5779 15.0142
326 2 0.178069 -6.38072 13.4721 15.6069
345 2 0.162463 -3.95132 7.13165 17.2718
11 4 1.58702 -3.68075 6.8746 9.60207
188 1 -0.653541 2.6087 8.68819 12.2683
253 2 0.171314 2.08771 9.35194 11.4572
228 2 0.263696 -2.96548 13.0155 8.95441
186 1 -0.691117 0.976414 8.03704 8.82675
2 4 1.6205 13.4655 2.26543 3.45863
360 2 0.169758 10.4821 1.20376 1.00404
296 4 0.95677 6.68626 1.86873 0.217997
44 4 1.57615 8.77099 1.99517 3.88846
280 2 0.269831 8.00238 4.36102 7.87368
46 4 1.61875 11.3462 2.26151 5.76141
48 4 1.32363 9.91637 4.72745 2.26607
51 4 1.38674 10.4402 4.79915 7.50271
97 3 -0.858333 6.24665 3.43536 6.62591
300 2 0.224612 7.31985 3.56191 1.58208
123 3 -0.82342 12.7283 1.17199 2.42296
124 3 -0.839803 8.87144 0.676295 3.07679
125 3 -0.852483 7.26427 2.27508 4.53661
126 3 -0.850878 12.4533 2.59168 4.63338
127 3 -0.822828 9.92607 1.96695 5.08536
128 3 -0.847412 11.7761 0.975845 6.68405
129 3 -0.819452 9.26684 3.36835 2.98858
130 3 -0.858335 10.5994 5.86424 3.17541
132 3 -0.813871 8.90183 5.35689 0.982086
133 3 -0.843608 11.2385 3.57457 6.76745
354 2 0.176064 9.19639 1.71647 0.622556
340 2 0.189806 5.07116 5.70409 1.72903
138 3 -0.874945 9.64496 5.86154 6.59279
277 2 0.227208 6.85567 5.84602 2.06848
196 1 -0.664359 11.3388 3.90713 1.3249
197 1 -0.690006 6.56949 5.40541 3.08072
198 1 -0.641967 8.94638 3.72011 8.10244
275 2 0.232226 12.3236 4.54091 1.46712
274 2 0.22921 11.4487 2.84665 1.61163
273 2 0.152968 10.9347 4.01234 0.257736
276 2 0.225209 7.4677 4.8921 3.50889
337 2 0.169567 8.75011 1.7842 8.59758
278 2 0.176701 5.64466 4.69336 3.07187
279 2 0.202922 9.0347 2.84424 7.35756
299 2 0.180537 6.12592 4.31465 0.299524
192 1 -0.686684 13.7491 1.22589 8.5579
298 1 -0.665829 6.29323 3.51329 1.08137
131 3 -0.826856 5.19735 6.69568 5.21945
352 2 0.218914 12.9588 3.49879 8.12142
45 4 1.21559 12.5922 0.0516437 7.59423
191 1 -0.64039 10.8171 0.0386492 0.971242
30 4 1.52184 5.24189 4.05734 7.75097
6 4 1.13045 13.3386 2.25343 15.9132
32 4 0.935665 5.12344 5.08775 13.8439
47 4 0.952033 10.4935 3.02773 11.8572
237 2 0.166722 5.4095 3.87096 11.6558
54 4 1.13421 9.93379 5.34915 13.813
135 3 -0.800501 6.2366 4.88066 8.95776
139 3 -0.730253 10.7654 4.30087 12.8436
140 3 -0.781739 6.09588 5.3867 15.0238
205 2 0.162864 13.4634 0.247647 13.9106
334 1 -0.659361 8.61568 0.622376 8.99456
145 3 -0.808569 8.74121 5.94202 12.8488
182 1 -0.682565 6.09283 4.4462 12.3169
355 2 0.174961 8.00194 1.5177 15.2541
193 1 -0.687255 11.7283 2.93631 10.3864
194 1 -0.66419 8.66426 2.89476 11.3009
195 1 -0.637649 10.8213 1.52188 12.9277
363 2 0.14143 11.2661 0.172917 9.75599
200 1 -0.687879 9.15196 4.25976 15.2133
265 2 0.161514 12.7907 2.89502 10.7132
170 1 -0.662604 13.9004 0.598357 15.0073
238 2 0.177075 6.91817 3.83569 12.8448
239 2 0.278106 6.52838 5.3432 11.7502
263 2 0.169672 13.1267 1.92589 9.26724
264 2 0.138353 11.3286 2.00752 9.88798
183 1 -0.675824 4.01583 6.6231 13.2459
266 2 0.265381 11.5717 3.8847 9.81087
267 2 0.157328 8.23062 2.39632 12.3875
268 2 0.175742 8.54268 2.16661 10.4334
269 2 0.210174 8.3057 4.00497 11.0825
270 2 0.159364 10.1566 0.588987 12.7325
271 2 0.174348 11.0542 1.74993 14.1312
272 2 0.151489 11.9309 1.47905 12.3524
366 2 0.150582 13.5666 0.454549 12.1772
285 2 0.16018 9.61961 4.35921 16.2646
286 2 0.157907 9.31389 3.25471 14.6196
287 2 0.244678 8.05896 4.6069 15.1627
304 1 -0.666137 7.83763 1.48428 14.0688
308 2 0.16283 8.92305 1.53294 13.5881
309 2 0.12083 7.18874 2.44238 13.7358
316 1 -0.67281 11.452 2.11085 16.089
317 2 0.146174 11.1991 1.02141 15.6401
318 2 0.169955 10.6614 2.89576 15.7117
319 2 0.168766 11.5531 2.10741 17.2896
331 1 -0.67551 8.4348 1.81708 17.2221
332 2 0.176924 8.5994 0.839202 16.656
333 2 0.17698 8.68061 2.65934 16.5317
134 3 -0.85218 11.1534 5.46101 8.88263
336 2 0.199268 7.94429 0.493977 9.93333
281 2 0.159188 8.91658 3.41337 9.38628
52 4 1.30828 6.0778 6.45555 9.37203
335 2 0.181423 9.66617 0.0958804 9.0714
284 2 0.154751 4.22203 6.61958 11.263
199 1 -0.673912 4.35663 6.73377 10.0233
144 3 -0.802747 7.23446 6.67367 10.9047
362 2 0.215574 14.4789 0.56223 9.0443
347 1 -0.669113 11.0771 6.83341 14.4614
16 4 1.6715 8.50952 11.1167 4.00127
59 4 1.63458 6.08503 11.1229 0.0157355
43 4 1.46308 4.83401 13.1751 1.98483
49 4 1.42531 6.38168 6.95774 4.19596
50 4 1.35376 8.68415 6.86302 0.299914
53 4 1.67292 9.10548 7.20583 5.9542
57 4 1.6453 7.17459 8.98201 2.08707
58 4 1.65085 3.75303 10.9916 4.09732
60 4 1.58915 7.38945 8.92233 7.9914
61 4 1.64077 6.07017 11.0299 5.99354
262 2 0.283883 2.32661 12.9371 1.2757
250 2 0.222874 4.64307 9.04334 8.7107
343 2 0.182559 3.22224 12.4971 8.36325
115 3 -0.847938 1.01547 12.3442 6.85757
161 3 -0.809191 5.8974 12.4127 6.82193
136 3 -0.798753 10.3704 7.79768 5.04871
146 3 -0.793072 6.0429 8.08824 3.07154
147 3 -0.864149 7.92713 7.79512 1.4442
148 3 -0.851955 8.23673 9.8638 2.95507
149 3 -0.828314 3.4101 9.62372 3.14849
150 3 -0.848965 4.36094 12.1834 3.09689
151 3 -0.806023 2.26634 11.4879 4.57101
153 3 -0.84582 6.43872 9.90563 1.02671
154 3 -0.806421 5.97312 12.5131 0.977124
155 3 -0.83075 6.4043 7.61455 8.33529
156 3 -0.795281 8.70974 8.25449 7.19513
158 3 -0.865705 7.11973 11.2327 4.75967
159 3 -0.841875 4.49057 10.6977 5.41405
160 3 -0.870118 6.57462 9.87005 6.96979
137 3 -0.865288 7.8331 7.06427 5.05083
104 3 -0.841532 3.06545 8.17408 0.775774
187 1 -0.643551 3.62871 9.57363 8.75968
252 2 0.186854 3.74874 10.7726 8.73411
359 2 0.190652 3.58781 13.3265 17.5375
365 2 0.166582 10.7075 7.19035 15.4989
21 4 1.4507 8.58937 10.9449 16.0238
55 4 1.4789 6.36913 7.09194 15.6738
56 4 1.50814 8.54892 7.0898 11.7332
157 3 -0.852473 7.76377 9.6861 9.39009
62 4 1.49507 7.63794 9.14692 13.7355
63 4 1.39249 3.29589 11.2284 15.8828
64 4 1.18909 6.5889 11.4405 11.9686
142 3 -0.78686 5.03283 7.49865 16.5968
143 3 -0.782985 10.0926 7.03111 10.694
152 3 -0.86208 7.16796 11.2118 16.5663
295 2 0.15384 4.7765 13.0526 11.0154
162 3 -0.840129 6.54085 8.18974 14.4573
163 3 -0.855306 8.42793 8.51602 12.4831
164 3 -0.809192 8.8486 9.71437 14.928
165 3 -0.820259 3.02046 10.0109 14.7908
166 3 -0.84967 4.57958 11.0916 16.8682
167 3 -0.857108 2.08813 11.7495 16.7139
168 3 -0.818401 7.83069 11.7335 11.142
169 3 -0.797219 6.82073 10.6133 13.3305
190 1 -0.684771 2.4982 11.8586 11.7446
201 1 -0.663734 3.50452 12.7729 14.6365
202 1 -0.654382 5.32584 10.4113 10.9279
203 1 -0.667116 5.4214 13.0701 12.116
19 4 1.56753 8.56439 11.0871 9.65578
242 2 0.181095 4.85897 7.23878 12.8224
251 2 0.136715 2.99971 9.29528 9.6934
29 4 1.33975 3.62494 7.10774 17.458
255 2 0.171991 3.71735 9.03206 12.451
259 2 0.16744 2.59782 11.5331 10.6058
260 2 0.165578 3.14257 11.233 12.4439
261 2 0.163809 2.7679 12.9632 11.8921
283 2 0.184642 4.01433 7.77939 9.61296
288 2 0.183291 3.1834 12.403 13.6091
289 2 0.161739 4.59904 13.2512 14.7744
240 2 0.235638 3.71148 7.08167 14.2324
291 2 0.182493 5.37151 9.28462 11.2953
292 2 0.195411 5.57855 10.5666 9.83328
293 2 0.150089 4.27995 10.9478 11.2601
294 2 0.180594 4.76509 12.9343 13.0463
350 2 0.211923 6.28734 13.314 15.7281
141 3 -0.851115 7.69346 6.97427 16.5732
341 1 -0.699199 3.98973 12.7697 9.1863
342 2 0.163673 4.40317 11.9006 9.82486
344 1 -0.68174 10.1416 7.87958 17.3301
290 2 0.166384 2.64442 13.4055 15.1266
346 2 0.235492 9.9188 8.41988 16.3698
ITEM: TIMESTEP
100
ITEM: NUMBER OF ATOMS
366
ITEM: BOX BOUNDS xy xz yz pp pp pp
-7.6163851999999981e+00 1.5037200000000000e+01 -7.4578851999999980e+00
0.0000000000000000e+00 1.3615700000000000e+01 -1.5850000000000000e-01
0.0000000000000000e+00 1.7607399999999998e+01 8.0699999999999994e-02
ITEM: ATOMS id type q x y z
73 3 -0.854249 -2.23364 6.62066 4.21328
3 4 1.35189 1.01355 1.909 0.383002
5 4 1.56881 0.760351 1.70594 5.46405
7 4 1.62087 0.248557 4.32316 2.15666
301 2 0.175481 5.47199 3.57027 1.69365
10 4 1.21131 -0.333152 4.45423 7.17371
339 2 0.220494 3.19757 5.56464 1.61812
24 4 1.48001 3.59839 1.77675 4.21111
297 3 -0.76425 6.61779 0.622211 1.41953
28 4 1.62044 1.67501 6.17934 4.07812
65 3 -0.832711 1.40912 0.411646 0.983817
66 3 -0.82952 -0.218635 1.48253 4.17967
67 3 -0.826205 0.769284 0.282243 6.25882
69 3 -0.854693 -1.06114 3.51014 2.68237
70 3 -0.840364 1.1902 3.14653 1.35393
71 3 -0.874817 -0.123068 5.49889 1.13594
72 3 -0.827188 0.00496015 2.94946 6.52512
338 1 -0.680837 4.15493 5.58803 0.956462
74 3 -0.833105 -0.937388 5.62578 6.36459
89 3 -0.830944 3.1581 0.702773 3.09138
90 3 -0.847812 2.29182 2.15521 5.01096
91 3 -0.808855 2.2791 1.07083 8.39781
92 3 -0.846184 4.93317 1.64139 5.10444
351 2 0.174076 -3.17443 5.74443 0.469867
94 3 -0.88275 1.08852 4.95768 3.32511
9 4 1.41418 -0.826545 6.5675 0.228362
98 3 -0.885586 2.65663 5.72783 5.17817
96 3 -0.817816 4.42284 3.00288 8.48805
172 1 -0.665899 1.32236 5.07263 7.90955
178 1 -0.693232 4.20021 3.38991 3.25937
208 2 0.259108 1.92563 5.13142 6.92861
361 2 0.255314 -0.772499 1.85975 7.78406
210 2 0.160905 1.18747 6.22415 8.35417
225 2 0.224824 3.8283 4.27698 3.82691
226 2 0.194398 3.71019 3.24963 2.23767
227 2 0.174798 5.33316 3.30609 3.32494
93 3 -0.824633 6.83764 0.893806 6.88395
356 2 0.159052 4.17862 4.66044 0.26507
31 4 1.61503 3.92406 6.3266 6.12839
99 3 -0.888317 4.38564 5.23187 7.13868
27 4 1.61347 6.33654 2.04516 5.76505
209 2 0.170427 1.78071 4.32296 8.65565
321 2 0.216958 -2.12259 4.68451 17.035
13 4 1.31795 -0.452194 4.4853 14.0563
14 4 1.08449 -1.06418 6.55 11.6513
26 4 1.12363 3.39104 1.85797 9.23837
68 3 -0.789357 -0.681396 2.02785 17.0569
75 3 -0.775989 -1.43229 3.61945 15.1114
11 4 1.56608 -3.66806 6.76049 9.58317
77 3 -0.783614 -1.15826 5.49463 13.0932
100 3 -0.803444 0.919975 5.15409 14.7346
330 2 0.167328 5.70838 1.91026 15.5089
173 1 -0.675853 0.221083 3.12242 12.8348
175 1 -0.658496 0.531375 5.71236 10.9782
179 1 -0.64366 4.48372 0.262657 9.65074
180 1 -0.677867 2.44393 2.42662 10.7957
181 1 -0.664681 3.94663 3.48782 14.3677
204 2 0.153776 0.123439 0.816111 14.8002
206 2 0.143863 -0.818549 3.52465 9.4392
207 2 0.270226 -1.66286 5.13548 9.46453
211 2 0.157867 -0.0213984 3.23547 11.7828
212 2 0.166374 -0.14974 2.15208 13.2215
213 2 0.167724 1.35186 3.27737 12.9817
217 2 0.164375 0.760508 5.43799 9.81384
218 2 0.17445 0.602891 4.71993 11.6975
314 2 0.195925 2.38505 3.30629 16.5005
328 2 0.143423 4.65938 2.44258 17.0652
230 2 0.187778 5.49109 0.749412 9.84957
231 2 0.180162 1.36214 2.17319 10.6999
232 2 0.148216 2.727 3.52918 10.7293
233 2 0.149949 2.9751 1.80417 11.5663
234 2 0.187628 4.47113 2.79324 15.1542
235 2 0.15366 3.56946 2.89711 13.5023
236 2 0.201124 3.08589 4.19486 14.7363
241 2 0.143355 3.24212 6.42197 12.5649
76 3 -0.812247 -2.24779 6.58722 10.5007
349 2 0.211944 -2.93406 6.24844 14.3934
303 1 -0.668164 5.26063 1.36162 12.6041
305 2 0.171931 4.44698 1.20895 13.3649
306 2 0.154984 5.03124 0.979913 11.4727
307 2 0.150216 5.64271 2.50162 12.5954
312 1 -0.671424 2.01704 2.25868 16.504
313 2 0.177942 2.79146 1.41586 16.7838
282 2 0.185417 3.94622 5.90765 9.57615
315 2 0.165221 1.48943 2.07851 15.52
320 1 -0.67117 -2.54455 5.7532 17.2501
302 4 1.11979 6.63391 0.318609 13.4344
322 2 0.163729 -3.05 6.18524 16.2321
327 1 -0.666335 5.37303 1.62506 16.4973
33 4 1.51141 1.12883 6.66458 15.4707
329 2 0.285299 4.91382 0.591679 16.4825
101 3 -0.846465 2.54015 6.54361 16.2049
219 2 0.130927 1.24919 6.53954 11.3566
171 1 -0.674847 -1.34912 4.30403 8.82897
4 4 1.57282 -5.74803 13.2619 7.43218
8 4 1.57701 -3.74719 7.19979 3.73181
15 4 1.56868 -2.43566 9.15608 1.83703
17 4 1.53102 -3.85081 11.2775 0.246961
18 4 1.67184 -2.54814 8.97921 7.65295
20 4 1.69566 -4.07991 11.2482 5.8568
114 3 -0.796072 1.63503 9.73422 6.68536
110 3 -0.844673 -1.35838 9.71026 8.42467
25 4 1.4504 -0.0335589 13.266 7.75837
35 4 1.66702 -1.3869 11.1148 4.13611
37 4 1.21458 2.32615 8.73703 7.68491
78 3 -0.852504 -3.62524 8.37969 2.58298
79 3 -0.839895 -1.36675 7.90088 1.01616
80 3 -0.878911 -2.84402 10.0621 0.603898
81 3 -0.835946 -4.14595 12.1228 1.57003
109 3 -0.804466 3.18671 7.66002 6.92002
83 3 -0.808493 -1.72371 8.01805 6.42976
84 3 -0.868191 -6.47481 12.1111 8.39601
85 3 -0.855239 -5.38647 10.8248 5.07218
86 3 -0.806555 -3.54326 10.0699 6.98991
87 3 -0.857995 -4.44026 12.571 6.71736
95 3 -0.79615 0.242454 7.21095 4.70864
103 3 -0.893752 2.39215 7.14066 3.01681
105 3 -0.867653 -1.59907 9.96556 2.96997
106 3 -0.842684 -0.902074 12.5389 3.53501
107 3 -0.834695 -2.87966 11.3812 4.79836
108 3 -0.800038 0.631175 11.8714 1.48251
111 3 -0.818322 -1.00644 12.3759 8.64076
113 3 -0.868324 -0.296405 10.72 5.22265
34 4 1.45168 2.66024 8.51486 2.36961
184 1 -0.6758 0.895734 9.17974 2.53912
39 4 1.60968 1.1576 11.1314 5.86129
243 2 0.275519 0.530961 9.23558 3.62103
244 2 0.249936 0.0773291 8.61446 2.00145
245 2 0.256848 0.873343 10.2572 2.08653
248 2 0.227157 0.229423 7.94161 8.02165
310 3 -0.848667 -6.20866 12.4344 3.14493
23 4 1.53228 0.0102264 13.2747 2.47882
82 3 -0.847774 -3.26704 8.00273 8.61952
1 4 1.65362 -5.22095 13.2199 2.15122
358 2 0.240994 -0.136394 9.10153 0.254638
12 4 1.63492 -1.21142 6.90677 5.36579
357 2 0.260087 1.7342 9.00504 0.016059
364 2 0.279077 -4.65393 8.57285 0.450456
228 2 0.285524 -2.99827 13.1347 8.79082
22 4 1.21991 -3.74075 10.8021 11.2317
324 2 0.189231 -6.30846 12.2413 13.9057
102 3 -0.845763 -0.11415 6.90055 16.5042
38 4 1.54327 -1.05927 10.8641 9.55685
40 4 1.30023 1.89596 9.33558 13.7962
41 4 1.35921 -2.01128 11.87 15.6444
42 4 1.27145 0.680041 11.4947 11.9643
88 3 -0.778095 -4.91058 10.8169 10.1482
325 2 0.205693 -4.77243 12.5 14.8884
229 2 0.180624 -3.49639 13.3091 10.625
112 3 -0.846042 -2.26328 10.9231 10.6407
116 3 -0.827724 1.23962 7.94918 14.3648
117 3 -0.834387 -0.706496 11.7496 16.5787
118 3 -0.789972 -1.75963 12.8825 14.4148
119 3 -0.810809 -3.27576 12.4101 16.5417
120 3 -0.849759 0.311632 10.6902 10.3444
121 3 -0.778301 0.621557 10.5235 13.2356
122 3 -0.792683 -0.0414486 12.8881 12.3342
174 1 -0.665764 -0.717719 8.39481 12.1231
176 1 -0.692321 -3.77074 9.16649 12.2807
177 1 -0.672609 -4.11379 12.3595 12.266
185 1 -0.701468 0.575731 9.58967 17.2477
353 2 0.191047 -3.41961 13.2684 12.3056
189 1 -0.686385 -2.37762 10.0968 15.0298
214 2 0.180237 0.321412 8.41189 11.7136
215 2 0.213148 -0.718877 8.48706 13.2823
216 2 0.216417 -1.42681 9.14338 11.611
220 2 0.163 -2.65168 8.79642 12.4151
221 2 0.269657 -4.35199 8.31363 11.5605
222 2 0.196189 -4.36956 9.27244 13.225
223 2 0.145081 -4.05874 11.6828 13.2789
224 2 0.194993 -5.15073 12.6742 12.072
246 2 0.220208 0.399749 9.40348 16.1752
247 2 0.158409 0.911584 7.27054 9.72962
249 2 0.25954 0.732217 9.1316 9.46893
36 4 1.3366 0.592029 11.4195 17.4237
254 2 0.168816 2.93326 7.86097 11.9081
256 2 0.210262 -2.84724 9.61442 15.8779
257 2 0.185469 -1.17922 9.84063 14.9527
258 2 0.166931 -2.89943 9.8151 14.0093
348 2 0.188379 -3.95196 7.64452 13.6526
311 3 -0.843631 -5.36369 10.6826 17.1671
323 1 -0.692775 -5.87249 12.4815 14.8817
326 2 0.172484 -6.30899 13.4969 15.1956
186 1 -0.695778 0.978476 8.15835 8.93357
240 2 0.256285 3.45791 6.93923 14.3536
2 4 1.62947 13.5147 2.12368 3.51246
360 2 0.178178 10.5162 1.21913 1.10473
296 4 0.926989 6.76588 1.91049 0.280759
44 4 1.56035 8.85965 2.02953 3.92369
280 2 0.249428 7.99965 4.35584 7.98043
46 4 1.58038 11.2466 2.26929 5.79442
48 4 1.37946 9.89685 4.55365 2.13793
51 4 1.38373 10.27 4.8077 7.49509
97 3 -0.8659 6.24382 3.46408 6.67859
300 2 0.211094 7.28671 3.81204 1.23444
123 3 -0.830753 12.8818 0.990869 2.53697
124 3 -0.82342 8.83957 0.577267 2.97176
125 3 -0.858918 7.43966 2.21071 4.62741
126 3 -0.840918 12.334 2.41312 4.5838
127 3 -0.828846 9.8227 1.91066 5.25001
128 3 -0.794949 11.6873 0.894901 6.82132
129 3 -0.861711 9.19282 3.39379 3.02685
130 3 -0.805242 10.469 5.74664 2.98094
132 3 -0.812606 9.07257 5.21018 0.918537
133 3 -0.826597 11.1754 3.64167 6.64177
354 2 0.178159 9.32007 1.8331 0.742123
340 2 0.181797 5.1202 5.67568 1.68992
138 3 -0.864319 9.59457 5.94113 6.58652
277 2 0.189496 6.66456 6.01477 2.04256
196 1 -0.676934 11.4084 3.76208 1.27787
197 1 -0.699008 6.57311 5.61276 3.09014
198 1 -0.678986 8.88489 3.70933 8.28181
275 2 0.240708 12.3541 4.37826 1.5161
274 2 0.204007 11.5019 2.74281 1.668
273 2 0.160558 10.9424 3.83921 0.200565
276 2 0.22481 7.50387 5.14185 3.51984
191 1 -0.655017 10.8531 0.132812 0.94353
278 2 0.158543 5.61792 4.81828 3.20273
279 2 0.2048 8.90759 2.83334 7.60286
337 2 0.17469 8.71211 1.74487 8.7691
192 1 -0.670231 13.7566 1.16398 8.55194
298 1 -0.683609 6.25363 3.60467 0.802871
131 3 -0.864942 5.13174 6.76274 5.23021
352 2 0.222933 12.8383 3.75757 8.26185
30 4 1.57027 5.29323 4.07796 7.71126
6 4 1.16753 13.4105 2.1856 15.8948
32 4 0.938353 5.0399 4.98086 13.7858
47 4 0.958519 10.5918 2.94862 11.867
237 2 0.156902 5.43011 3.95628 11.6041
54 4 1.14649 10.0112 5.38492 13.7765
135 3 -0.794447 6.19728 4.94473 9.10401
139 3 -0.737151 10.7556 4.24018 12.7994
140 3 -0.755134 5.90084 5.4222 15.0363
205 2 0.163153 13.6283 0.184087 13.7868
334 1 -0.675809 8.55923 0.604626 9.0506
145 3 -0.806158 8.80424 6.12264 13.0127
182 1 -0.676599 6.1822 4.44952 12.3258
355 2 0.174126 8.11334 1.53093 15.3881
193 1 -0.686116 11.8568 2.96149 10.3977
194 1 -0.683005 8.77102 2.77244 11.3721
195 1 -0.648247 10.9445 1.46054 13.0016
362 2 0.1981 14.4461 0.435903 9.13454
200 1 -0.675803 9.34671 4.31462 15.3108
265 2 0.168911 12.922 3.05823 10.7002
170 1 -0.666982 14.0505 0.625867 14.8658
238 2 0.171576 6.90535 3.67431 12.7027
239 2 0.284484 6.6684 5.35899 11.8769
263 2 0.152199 13.1125 1.86367 9.30174
264 2 0.137577 11.6433 1.99625 9.84872
183 1 -0.672208 3.97583 6.70358 13.3801
266 2 0.258963 11.5288 3.92188 9.86421
267 2 0.147444 8.33546 2.28376 12.4814
268 2 0.161558 8.70126 1.97797 10.5078
269 2 0.209804 8.25572 3.66684 11.1655
270 2 0.15846 10.2647 0.606649 12.8144
271 2 0.189916 11.1635 1.69814 14.1654
272 2 0.153754 11.9719 1.31351 12.3571
366 2 0.14733 13.8656 0.154142 12.105
285 2 0.160326 10.0193 4.20097 16.1906
286 2 0.170856 8.88617 3.30348 14.9446
287 2 0.248428 8.50132 5.05045 15.642
304 1 -0.680354 7.92793 1.49661 14.2565
308 2 0.163093 9.01171 1.472 13.6993
309 2 0.122783 7.32418 2.4383 13.9106
316 1 -0.672022 11.5619 2.04174 16.1035
317 2 0.144385 11.3682 0.937791 15.6167
318 2 0.171651 10.7162 2.8992 15.718
319 2 0.174557 11.6473 2.04028 17.242
331 1 -0.671814 8.58993 1.94136 17.3194
332 2 0.174679 8.54126 0.947363 16.8208
333 2 0.175774 8.81421 2.77977 16.5918
363 2 0.136176 11.2309 0.0899367 9.96417
336 2 0.179652 8.08012 0.396394 10.0279
281 2 0.179788 8.82175 3.41024 9.45422
52 4 1.32512 6.2141 6.48008 9.49141
134 3 -0.866794 11.064 5.38283 8.82411
284 2 0.151145 4.3848 6.74808 11.3571
199 1 -0.663524 4.46175 6.80025 10.1385
347 1 -0.684775 11.1165 6.80428 14.4382
144 3 -0.810675 7.30064 6.78875 11.0472
141 3 -0.880464 7.69779 6.74432 16.5257
299 2 0.191263 5.87327 4.42595 17.5317
16 4 1.74707 8.45382 11.1821 4.01222
59 4 1.63312 6.11101 11.0626 0.003458
43 4 1.48223 4.92496 13.0962 1.89337
49 4 1.42111 6.37145 7.06179 4.29251
50 4 1.35194 8.57474 6.84579 0.309582
53 4 1.65407 9.2264 7.37165 5.92927
57 4 1.68044 7.18332 9.0252 2.13979
58 4 1.66916 3.72339 11.1116 4.16329
60 4 1.5687 7.40832 8.85545 7.9165
61 4 1.69129 6.12156 11.0325 6.08485
262 2 0.272151 2.57888 12.935 1.27123
250 2 0.211377 4.59139 9.1051 8.60506
45 4 1.26557 5.0569 13.4803 7.70882
115 3 -0.83365 0.979223 12.3388 6.93263
161 3 -0.847686 5.75282 12.2959 7.07149
136 3 -0.845789 10.5241 7.77093 4.95118
146 3 -0.820576 6.26766 8.36833 3.28747
147 3 -0.886643 7.9944 7.94912 1.34138
148 3 -0.844614 8.23136 10.0157 2.89818
149 3 -0.782393 3.30367 9.68343 3.21643
150 3 -0.841496 4.3406 12.1366 3.04741
151 3 -0.83381 2.31333 11.6053 4.77046
153 3 -0.830144 6.23214 9.89497 1.14862
154 3 -0.843991 5.87036 12.4846 0.8184
155 3 -0.86949 6.52771 7.56338 8.39598
156 3 -0.776328 8.95849 8.43675 7.15522
158 3 -0.86082 7.18948 11.3968 4.91719
159 3 -0.844868 4.67518 10.6803 5.24513
160 3 -0.891156 6.58279 9.8212 6.94072
137 3 -0.853861 7.86298 7.20534 5.12549
104 3 -0.776421 3.13055 8.40095 0.796998
253 2 0.153537 2.67538 9.58709 11.5142
365 2 0.16144 10.7693 7.21759 15.5127
21 4 1.39523 8.63554 10.9545 15.9789
55 4 1.52912 6.35209 6.99428 15.7226
56 4 1.4818 8.58827 7.25721 11.8242
157 3 -0.836106 7.86648 9.76065 9.27931
62 4 1.50203 7.62761 9.09113 13.8424
63 4 1.38971 3.30693 11.2351 15.8302
64 4 1.1906 6.63531 11.4336 11.8941
142 3 -0.84562 5.11715 7.32382 16.6472
143 3 -0.79009 10.0734 7.1539 10.5337
152 3 -0.846983 7.24374 11.2861 16.6359
295 2 0.154705 4.84917 13.0403 10.9874
162 3 -0.843414 6.55194 8.04418 14.3745
163 3 -0.860866 8.53078 8.66549 12.5457
164 3 -0.840914 8.64476 9.54944 14.9893
165 3 -0.83705 2.81938 10.0821 14.8256
166 3 -0.823803 4.69888 11.0085 16.6433
167 3 -0.831423 2.09488 11.7806 16.809
168 3 -0.845394 7.80662 11.9175 10.9742
169 3 -0.787257 6.80903 10.7057 13.2696
190 1 -0.686741 2.582 11.9372 11.8015
201 1 -0.662294 3.56239 12.776 14.6834
202 1 -0.666972 5.26816 10.4025 10.9135
203 1 -0.650558 5.46504 12.9473 12.0753
19 4 1.57896 8.52609 11.1664 9.61408
242 2 0.206777 4.74366 7.41836 13.0201
251 2 0.134927 3.10172 9.19469 9.7922
29 4 1.30131 3.70714 6.98205 17.3092
255 2 0.179803 4.09287 9.11512 12.6414
259 2 0.163078 2.60957 11.5789 10.7212
260 2 0.163907 3.34152 11.3734 12.4748
261 2 0.147794 2.55313 13.142 11.8679
283 2 0.169406 4.2308 7.89924 9.66652
288 2 0.185849 3.18425 12.5351 13.6246
289 2 0.155253 4.70079 13.3261 14.7373
345 2 0.1659 10.9268 7.08072 17.2866
291 2 0.181731 5.36972 9.35585 11.3417
292 2 0.193724 5.48489 10.4103 9.7898
293 2 0.164147 4.21106 10.9049 11.194
294 2 0.178654 4.76829 12.8771 13.0847
350 2 0.217007 6.35297 13.4122 15.6914
188 1 -0.687407 2.98267 8.88885 12.3246
341 1 -0.692954 3.96218 12.7859 9.23824
342 2 0.154141 4.58112 11.9267 9.84175
344 1 -0.665539 10.0397 7.80631 17.3363
290 2 0.168701 2.70999 13.3547 15.2695
346 2 0.234783 9.74287 8.19916 16.2831
359 2 0.189454 3.54804 13.6034 17.4677
343 2 0.174457 3.01086 12.2941 8.92442
252 2 0.184608 3.74444 10.8458 9.00659
187 1 -0.658783 3.6384 9.67804 8.86865
335 2 0.180946 2.12796 13.5654 9.02035
ITEM: TIMESTEP
200
ITEM: NUMBER OF ATOMS
366
ITEM: BOX BOUNDS xy xz yz pp pp pp
-7.5811703999999995e+00 1.5037200000000000e+01 -7.4226703999999994e+00
0.0000000000000000e+00 1.3615700000000000e+01 -1.5850000000000000e-01
0.0000000000000000e+00 1.7607399999999998e+01 8.0699999999999994e-02
ITEM: ATOMS id type q x y z
99 3 -0.855596 4.37308 5.25736 7.14364
3 4 1.29935 0.99752 1.82225 0.281529
5 4 1.62926 0.80973 1.87541 5.53199
7 4 1.59279 0.268626 4.16109 2.16502
209 2 0.185914 1.7515 4.55219 8.59609
10 4 1.21395 -0.429708 4.40512 7.25399
339 2 0.228064 2.86964 5.55325 1.36383
24 4 1.45952 3.55153 1.84452 4.18329
297 3 -0.761149 6.56106 0.836224 1.47867
28 4 1.54796 1.45719 6.25685 4.15434
65 3 -0.818782 1.4657 0.534095 1.14429
66 3 -0.858988 -0.21173 1.70457 4.37424