ITEM: TIMESTEP
0
ITEM: NUMBER OF ATOMS
366
ITEM: BOX BOUNDS xy xz yz pp pp pp
-7.6516000000000002e+00 1.5037200000000000e+01 -7.4931000000000001e+00
0.0000000000000000e+00 1.3615700000000000e+01 -1.5850000000000000e-01
0.0000000000000000e+00 1.7607399999999998e+01 8.0699999999999994e-02
ITEM: ATOMS id type q x y z
172 1 -0.68993 1.47551 4.9997 8.16907
3 4 1.36617 1.07085 1.8785 0.314778
5 4 1.64741 1.00043 1.90889 5.57609
7 4 1.50965 0.344208 4.29451 2.05993
9 4 1.39465 -0.8288 6.72614 0.235541
10 4 1.19594 -0.0953635 4.35824 7.23882
338 1 -0.665245 4.08329 5.83573 0.888938
24 4 1.48447 3.66839 1.84825 4.06662
297 3 -0.812402 6.76006 1.15393 1.37745
28 4 1.53339 1.55136 6.14238 4.14682
65 3 -0.822497 1.56445 0.626226 1.14733
66 3 -0.832181 -0.0324973 1.93465 4.19112
67 3 -0.842018 0.949688 0.435926 6.35715
69 3 -0.82489 -1.11426 3.57156 2.16121
70 3 -0.838463 1.37555 3.26184 1.09579
71 3 -0.815864 0.0646602 5.69391 0.986189
72 3 -0.854378 0.358146 2.99318 6.58591
73 3 -0.85666 -2.20001 6.62247 4.43308
74 3 -0.819152 -0.78379 5.55731 6.27727
89 3 -0.848948 3.30282 0.721583 3.02766
90 3 -0.881701 2.46222 2.07917 5.05751
91 3 -0.791001 2.19798 1.0258 8.54591
92 3 -0.835816 5.15666 1.84946 4.82412
210 2 0.179093 1.3495 6.13491 8.39873
94 3 -0.890093 0.910546 4.89583 3.43269
93 3 -0.821012 6.55019 0.725938 6.90147
98 3 -0.840237 2.69473 5.41355 5.24195
351 2 0.199126 -2.96297 5.5868 0.737719
171 1 -0.657858 -1.31543 3.9214 8.59181
178 1 -0.683259 3.81345 3.444 2.88321
208 2 0.251718 2.07943 4.86153 7.27813
339 2 0.224511 3.14756 5.79338 1.52684
361 2 0.223227 -0.0923247 1.23162 8.42605
225 2 0.232536 3.59636 4.34545 3.51242
226 2 0.251711 2.9317 3.27198 2.11527
227 2 0.174063 4.85333 3.24934 2.48416
96 3 -0.809907 4.33906 2.96554 8.41784
31 4 1.62613 3.83749 6.24297 5.99705
207 2 0.256461 -2.21218 4.2929 7.95784
356 2 0.174944 4.01407 4.913 0.206183
27 4 1.63785 6.36767 1.95535 5.85317
99 3 -0.857965 4.53318 5.28465 7.10604
352 2 0.185765 -1.20107 2.69665 8.78466
209 2 0.191299 1.76932 4.25671 9.00075
13 4 1.2617 -0.291967 4.52697 14.0584
14 4 1.16928 -1.70515 6.49016 11.7415
26 4 1.13237 3.4012 1.90146 9.23874
68 3 -0.746809 -0.672483 1.97185 17.1007
75 3 -0.787996 -1.12336 3.31871 14.8468
313 2 0.181569 2.59087 0.93132 16.5603
77 3 -0.75525 -1.44092 5.49849 13.0898
100 3 -0.814503 0.863179 5.34548 14.875
242 2 0.149598 3.85538 6.14846 11.8278
173 1 -0.648389 0.946491 3.75101 12.8789
175 1 -0.669498 -0.248426 6.05933 10.6531
179 1 -0.628176 4.51643 0.337455 9.50498
180 1 -0.64418 2.43334 3.03527 10.47
181 1 -0.661725 3.77306 3.21992 14.3526
204 2 0.14678 0.248357 0.893292 14.5772
206 2 0.160635 -1.03772 4.61052 9.54732
327 1 -0.672134 5.21324 1.29338 16.5511
211 2 0.177496 2.00981 3.54101 13.492
212 2 0.158394 1.05486 4.40574 12
213 2 0.142236 0.335593 2.76564 12.7077
329 2 0.172961 4.0642 1.61276 16.4983
218 2 0.149048 0.302819 5.12123 11.0473
314 2 0.179309 2.65482 2.81509 16.5254
282 2 0.161504 3.77966 5.9665 9.98905
230 2 0.179522 5.65868 0.614059 9.60487
231 2 0.121948 2.86548 2.31376 11.4032
232 2 0.162605 1.26401 2.97734 10.3842
233 2 0.169036 2.8488 4.0454 10.4033
234 2 0.17237 4.37912 2.57081 15.1365
235 2 0.154935 3.39261 2.65304 13.4674
236 2 0.184627 3.08369 3.97714 14.8769
241 2 0.198427 2.46056 5.10771 12.8435
307 2 0.164587 5.81975 2.34943 12.3885
240 2 0.165519 3.44068 6.52596 13.83
303 1 -0.680268 5.44414 1.22398 12.4424
305 2 0.162339 4.66432 0.957502 13.2837
306 2 0.153817 5.13856 0.914102 11.3728
348 2 0.217852 -3.04135 5.66503 14.8662
312 1 -0.6816 2.02286 1.90087 16.3881
321 2 0.219807 -1.96704 4.64888 17.3015
183 1 -0.669642 3.46127 5.70406 12.9322
315 2 0.162048 1.52197 1.93309 15.351
320 1 -0.685067 -2.44397 5.65271 17.4551
76 3 -0.819844 -2.90322 6.54807 10.7623
322 2 0.161748 -2.96487 5.95686 16.456
328 2 0.157114 5.74447 1.24177 15.4806
217 2 0.16568 -0.532513 5.99901 9.5566
337 2 0.173114 7.05747 0.528149 10.1461
330 2 0.248513 5.27932 0.311687 17.0677
4 4 1.59296 -5.59215 13.2407 7.4158
23 4 1.5988 0.00440676 13.5025 2.26541
15 4 1.58565 -2.37884 9.11939 1.9223
17 4 1.5634 -3.94268 11.1816 0.13625
18 4 1.66223 -2.56045 8.71786 7.69722
20 4 1.66421 -3.80902 11.2611 5.91332
84 3 -0.856966 -6.14326 12.0436 8.39914
1 4 1.64283 -5.10883 13.216 2.25718
25 4 1.40138 -0.251659 12.956 7.77298
35 4 1.62927 -1.46284 11.3507 3.91517
248 2 0.206359 0.35341 7.55055 8.46478
78 3 -0.836006 -3.44719 8.2644 2.88222
79 3 -0.851454 -1.47439 7.97696 1.10659
80 3 -0.882411 -2.99056 10.0957 0.841744
81 3 -0.861802 -4.27378 12.2975 1.25529
357 2 0.239327 1.71914 9.28953 0.296254
83 3 -0.854641 -1.70683 8.00645 6.56638
114 3 -0.829954 1.45751 9.82075 6.44377
85 3 -0.849529 -5.10478 10.7443 5.08597
86 3 -0.808757 -3.31193 9.95491 6.87205
87 3 -0.874642 -4.27592 12.5888 6.8305
37 4 1.25308 2.34914 8.87794 7.27998
103 3 -0.844382 2.51814 7.14496 3.14987
105 3 -0.85786 -1.46858 9.98485 2.97987
106 3 -0.807087 -1.16674 12.6969 2.97872
107 3 -0.878981 -2.68521 11.6615 4.87256
358 2 0.23239 -0.140959 9.45885 0.506643
111 3 -0.849751 -1.34996 11.9194 8.39769
113 3 -0.864579 -0.0581496 11.3105 4.8739
310 3 -0.863793 -6.10137 12.4557 3.35834
184 1 -0.671091 0.949365 9.32792 2.7533
39 4 1.60165 1.20718 11.3086 5.78172
243 2 0.289043 0.73046 9.46705 3.80085
244 2 0.2231 0.41529 8.42055 2.28819
245 2 0.22539 0.853553 10.2974 2.12817
95 3 -0.822732 0.403536 7.26988 4.75384
82 3 -0.851564 -3.62658 7.79582 8.38866
109 3 -0.828541 3.07752 7.56144 6.6986
8 4 1.67916 -3.6579 6.97094 3.84161
12 4 1.63032 -1.10205 6.93754 5.47227
228 2 0.277548 -3.20933 13.0858 8.55984
22 4 1.17411 -3.86065 10.7947 11.5455
324 2 0.193899 -6.52441 12.2472 14.1631
353 2 0.164198 -3.42504 13.33 12.2266
38 4 1.48344 -1.29927 10.7119 9.51147
40 4 1.34485 1.92719 9.31318 13.9552
41 4 1.31945 -1.8619 11.6065 15.6709
42 4 1.33535 0.828123 11.2247 11.5959
88 3 -0.826208 -4.95202 10.6439 10.42
229 2 0.148283 -3.492 13.3979 10.5425
102 3 -0.837912 -0.28415 7.27497 16.4448
112 3 -0.807294 -2.3255 10.7683 10.8248
116 3 -0.843288 1.03072 8.05169 14.3849
117 3 -0.87939 -0.69848 12.0398 16.599
118 3 -0.780494 -1.64035 12.5158 14.1866
119 3 -0.830558 -3.34732 11.8634 16.3516
120 3 -0.830058 0.378412 10.5059 10.3002
121 3 -0.825302 1.16324 10.2394 12.8356
122 3 -0.801585 0.0201146 12.651 12.109
174 1 -0.671234 -1.36655 8.28246 12.3796
176 1 -0.701672 -4.1092 9.67063 13.1761
177 1 -0.664251 -4.37454 12.5775 12.1142
185 1 -0.720277 0.571862 9.828 17.5511
302 4 1.15795 -0.81983 13.4568 13.1719
189 1 -0.697067 -1.65036 9.75401 15.1565
214 2 0.225288 -0.655739 8.72567 11.6227
215 2 0.236535 -0.848885 8.05544 13.3686
216 2 0.18625 -2.29631 8.89926 12.6134
220 2 0.159565 -3.16794 9.73213 13.8741
221 2 0.202111 -4.22146 8.70175 12.6314
222 2 0.225134 -5.0218 9.95574 13.6918
223 2 0.165376 -4.8827 12.3851 13.1951
224 2 0.199359 -5.05164 12.9377 11.3037
246 2 0.196386 0.393142 9.51598 16.4568
325 2 0.197759 -4.72549 12.0357 14.6556
249 2 0.282522 0.883682 9.03153 9.38273
101 3 -0.84243 2.49111 6.93533 16.406
219 2 0.160676 0.265523 7.0991 10.8588
256 2 0.222412 -0.797082 9.25652 15.8292
257 2 0.192873 -1.28736 9.95394 14.0722
258 2 0.178234 -2.53255 9.1224 15.1763
326 2 0.181519 -5.84813 13.2612 15.5037
311 3 -0.848822 -5.49503 10.4995 17.2475
323 1 -0.690136 -5.81632 12.2697 14.9653
247 2 0.159914 1.91923 7.53113 9.46891
36 4 1.3212 0.599572 11.7789 17.4725
33 4 1.49158 1.03434 6.85889 15.5317
110 3 -0.840215 -1.46154 9.26571 8.80734
186 1 -0.675884 1.23332 8.12236 8.83903
2 4 1.57647 13.6582 2.39995 3.46771
280 2 0.274144 7.92998 3.41235 7.61945
131 3 -0.836581 4.91857 6.75325 4.98182
44 4 1.59494 9.08311 1.99564 4.16222
45 4 1.22249 12.9719 0.32881 7.79414
46 4 1.58586 11.6539 2.62943 5.80921
48 4 1.32986 9.89174 4.60545 2.17697
51 4 1.39549 10.0531 4.54169 7.54296
97 3 -0.82789 6.27608 3.37967 6.6514
359 2 0.181372 11.2619 1.05695 0.173908
123 3 -0.849595 12.8857 1.14351 2.78338
124 3 -0.840025 8.53047 0.661891 3.23582
125 3 -0.811542 7.78585 2.20962 5.14963
126 3 -0.805753 12.6227 3.03349 4.60371
127 3 -0.856846 10.3567 1.91863 5.03043
128 3 -0.819511 12.4704 1.48569 6.87422
129 3 -0.794076 9.22365 3.36333 3.21518
130 3 -0.83715 10.8487 5.72886 2.96464
132 3 -0.802792 8.86427 5.20972 1.11642
133 3 -0.874162 11.2424 3.86979 6.73884
30 4 1.5721 5.34543 4.12768 7.79472
191 1 -0.642026 10.9702 0.386264 1.1083
138 3 -0.831996 9.14973 5.42984 6.61826
354 2 0.182612 9.14284 2.07941 0.218188
196 1 -0.686395 11.0211 3.59148 1.07315
197 1 -0.673056 6.48524 5.37181 3.03901
198 1 -0.701564 8.95013 3.07778 8.14331
360 2 0.220651 10.1105 0.733075 1.82026
274 2 0.19042 11.0031 2.46887 1.11825
275 2 0.262621 12.0724 3.81438 1.44864
276 2 0.232693 7.32601 4.89781 3.6861
300 2 0.260772 7.36475 4.29241 0.625196
278 2 0.166976 5.51612 4.60207 3.01862
279 2 0.180693 9.37022 2.18681 7.62168
296 4 1.00788 6.68768 1.9148 0.0455353
340 2 0.187714 4.96658 5.76102 1.65009
298 1 -0.673581 6.36811 3.83929 0.230694
277 2 0.214822 6.77573 5.78874 2.02802
273 2 0.153558 10.8236 4.02779 0.0131843
363 2 0.188904 10.7505 0.871888 8.4443
301 2 0.172841 5.57167 3.87702 0.993541
347 1 -0.673579 11.0341 6.26194 14.7572
134 3 -0.86711 10.5518 5.39619 9.00735
47 4 0.955754 10.5407 2.8935 11.9417
52 4 1.3788 6.14921 6.45293 9.64853
54 4 1.1497 9.70755 5.20945 13.817
270 2 0.16665 10.5479 0.227333 12.4359
139 3 -0.765143 10.5444 4.12567 12.9319
140 3 -0.787624 5.66315 5.41192 15.0867
135 3 -0.815405 6.15043 4.79175 9.05961
299 2 0.220432 5.91659 4.32255 16.786
145 3 -0.807635 8.84356 6.18846 12.808
182 1 -0.665664 6.23045 4.29713 12.4611
355 2 0.189139 8.095 0.625483 15.1709
193 1 -0.67242 11.6178 3.01585 10.4045
194 1 -0.665103 8.63115 2.76091 11.3027
195 1 -0.656109 10.8256 1.26378 12.8287
281 2 0.176498 8.89514 3.01623 9.28949
200 1 -0.664762 8.40382 4.34133 14.929
349 2 0.161288 10.6784 6.75598 15.7303
192 1 -0.693592 14.1505 0.777895 9.19109
238 2 0.157119 7.09293 3.64928 12.9174
239 2 0.253496 6.60294 5.31464 12.077
342 2 0.136536 11.6154 0.419646 10.0696
264 2 0.156954 11.4554 1.98339 9.78203
265 2 0.168466 12.5845 3.14236 10.9101
266 2 0.265525 11.2588 4.01098 9.86963
267 2 0.168698 8.01892 2.82239 12.2228
268 2 0.169177 8.40742 1.81415 10.5932
269 2 0.190606 8.51855 3.74208 10.7958
144 3 -0.864105 6.98184 6.79111 10.9396
271 2 0.151745 10.5437 1.42223 13.9379
272 2 0.1384 12.0436 1.50187 12.5769
263 2 0.154091 13.7582 1.51962 9.91591
285 2 0.154502 9.04039 4.48215 15.8731
286 2 0.147844 8.30135 3.23591 14.6307
287 2 0.281694 7.31945 4.85973 15.0461
304 1 -0.672919 7.88649 1.01371 14.13
308 2 0.17389 8.90966 1.20146 13.5795
309 2 0.126144 7.17903 1.92023 14.0544
316 1 -0.657219 11.6622 1.98541 15.969
317 2 0.156774 11.6455 0.804251 16.1627
318 2 0.170624 11.02 2.24515 15.0536
319 2 0.167717 11.4183 2.64597 16.9584
331 1 -0.665273 8.26971 1.91933 16.9571
332 2 0.182789 8.34075 0.798601 16.5045
333 2 0.168491 8.38479 2.80095 16.1702
334 1 -0.660861 7.85622 0.338591 9.34091
32 4 0.920515 4.84641 4.7957 13.8117
170 1 -0.677593 14.2288 0.413701 14.7754
237 2 0.173589 5.77513 3.78218 11.5886
6 4 1.14062 13.5657 1.99001 15.6931
366 2 0.159571 13.8135 0.33639 12.0211
341 1 -0.664761 11.3595 0.152734 8.93754
335 2 0.173404 8.26106 1.35856 8.94745
205 2 0.168657 13.7396 0.113093 13.7156
141 3 -0.856347 7.59697 6.73938 16.3907
11 4 1.61651 10.917 6.79827 9.61512
59 4 1.66011 6.16835 11.3177 0.139697
250 2 0.212939 3.571 10.9911 7.75278
364 2 0.268924 10.3372 8.36693 0.745327
137 3 -0.83158 7.62906 7.08925 5.09078
16 4 1.66715 8.68197 11.0753 4.11937
53 4 1.6693 9.0028 6.98055 5.92365
57 4 1.66922 7.27236 9.17193 2.14719
58 4 1.61589 3.96031 11.0887 4.2954
60 4 1.63108 7.57657 8.75811 7.93898
61 4 1.63743 6.24662 11.0209 6.19669
34 4 1.42245 2.72881 8.66346 2.58924
187 1 -0.685132 3.57713 9.95976 8.17583
43 4 1.46147 5.00577 13.2799 2.14461
115 3 -0.852447 0.994815 12.2407 7.16164
262 2 0.24036 3.19027 12.8218 0.733107
136 3 -0.847946 10.3289 7.26633 5.01554
146 3 -0.807414 6.23188 8.18705 3.05783
147 3 -0.825748 7.88207 7.92988 1.2734
148 3 -0.870345 8.40182 9.82223 3.057
149 3 -0.807447 3.47773 9.73787 3.39144
150 3 -0.852435 4.52804 12.103 3.18311
151 3 -0.818674 2.57608 11.7294 4.91323
153 3 -0.868453 6.56157 10.1316 1.1445
154 3 -0.851966 5.91528 12.6734 0.965264
155 3 -0.834311 6.52649 7.51608 8.58365
156 3 -0.841801 8.73424 7.98208 7.09867
158 3 -0.857369 7.37692 11.2852 5.07176
159 3 -0.851502 4.87736 10.5566 5.53491
160 3 -0.876602 6.68649 9.7923 7.1228
161 3 -0.805777 5.83072 12.4092 7.14099
104 3 -0.776225 3.25851 8.56984 1.01718
49 4 1.43717 6.24467 6.99889 4.07701
251 2 0.235332 4.67324 9.5436 8.03901
50 4 1.28805 8.50656 6.90104 0.186276
108 3 -0.857797 0.818586 12.3452 1.30773
252 2 0.145313 3.15282 9.81039 9.24739
336 2 0.17708 1.30013 13.1183 9.9176
157 3 -0.873858 8.20513 9.64822 9.12629
55 4 1.483 6.23581 7.14066 15.6581
56 4 1.56811 8.50686 7.2361 11.6245
21 4 1.41491 8.48045 10.7875 16.0742
62 4 1.51295 7.42204 9.17377 13.7563
63 4 1.38622 3.35537 11.3057 16.031
64 4 1.14858 6.55565 11.3755 11.6976
142 3 -0.79569 5.09654 7.7251 16.6934
143 3 -0.845568 9.73413 7.30992 10.5759
152 3 -0.883377 7.10833 11.4907 16.5971
283 2 0.200402 4.15174 7.62942 9.07235
162 3 -0.839371 6.3312 8.15052 14.3737
163 3 -0.847448 8.26615 8.57576 12.5439
164 3 -0.853413 8.33327 9.52045 15.1209
165 3 -0.84556 2.74129 10.1466 15.111
166 3 -0.821941 4.56493 11.0571 17.0311
167 3 -0.8035 2.13269 12.2315 16.6173
168 3 -0.806212 7.72676 12.0166 10.7961
169 3 -0.81268 6.77655 10.7267 13.1504
190 1 -0.664941 2.53423 11.996 11.012
201 1 -0.669522 3.89109 12.4671 14.6203
202 1 -0.687948 5.49579 10.0914 10.7706
203 1 -0.64979 5.53598 13.0477 11.9103
284 2 0.17035 4.1301 7.54944 10.9253
343 2 0.167905 3.28003 12.6598 8.86467
346 2 0.223386 9.84661 8.21238 16.5285
253 2 0.152842 3.05107 9.12694 11.7256
255 2 0.205256 4.26064 9.32449 13.2672
259 2 0.165792 2.77766 11.827 9.87937
260 2 0.152991 3.19924 11.3809 11.7283
261 2 0.160989 2.54276 13.0891 11.2914
344 1 -0.681083 10.0503 7.72009 17.5309
288 2 0.175617 4.94989 12.9913 14.729
29 4 1.36052 3.64899 7.38555 17.3932
290 2 0.17543 3.8371 11.7239 13.7981
291 2 0.219615 6.23126 9.24324 10.3598
292 2 0.171545 4.99038 10.7073 9.9776
293 2 0.174673 4.69403 9.57052 11.3971
294 2 0.169421 4.85199 12.8833 12.9169
350 2 0.251026 6.87135 13.0275 15.4666
295 2 0.155355 4.89368 13.172 10.935
188 1 -0.674432 3.37934 8.79182 12.7731
289 2 0.1883 3.00169 13.1618 14.5074
362 2 0.276221 7.10584 13.3971 9.7381
19 4 1.57346 8.76739 11.0151 9.61179
199 1 -0.688261 4.29065 6.96401 10.0008
254 2 0.183479 3.41379 7.6437 12.8385
345 2 0.157882 10.954 6.9043 17.4924
365 2 0.183766 11.0528 7.02699 13.9045
ITEM: TIMESTEP
100
ITEM: NUMBER OF ATOMS
366
ITEM: BOX BOUNDS xy xz yz pp pp pp
-7.6516000000000002e+00 1.5037200000000000e+01 -7.4931000000000001e+00
0.0000000000000000e+00 1.3642931400000000e+01 -1.5850000000000000e-01
0.0000000000000000e+00 1.7607399999999998e+01 8.0861400000000000e-02
ITEM: ATOMS id type q x y z
172 1 -0.659555 1.4252 4.77044 8.23645
3 4 1.37101 1.09502 1.86379 0.330315
5 4 1.59108 0.95119 1.75916 5.40938
7 4 1.50216 0.367277 4.39528 1.82409
2 4 1.57566 -1.27569 2.39823 3.42434
10 4 1.18241 -0.146228 4.26222 7.33485
338 1 -0.67928 3.93349 5.67809 0.821164
24 4 1.45627 3.68109 1.91001 4.04241
297 3 -0.766945 6.85532 1.13924 1.27774
28 4 1.61858 1.50896 6.14429 4.10469
65 3 -0.835989 1.35059 0.656537 1.29184
66 3 -0.85044 0.0678253 1.86741 4.02231
67 3 -0.797272 0.698882 0.32913 6.19953
69 3 -0.839656 -0.979201 3.67386 2.12355
70 3 -0.823997 1.59044 3.33877 0.772664
71 3 -0.833815 0.167414 5.94081 1.10421
72 3 -0.800913 0.239701 3.01438 6.35631
73 3 -0.839723 -2.26954 6.52673 4.40097
74 3 -0.801265 -0.795291 5.60076 6.63061
89 3 -0.835018 3.36419 0.725857 3.06198
90 3 -0.846931 2.48188 2.20824 5.07154
91 3 -0.840501 2.33377 1.0927 8.24127
92 3 -0.792312 5.17359 1.88636 4.86731
210 2 0.178855 1.2376 6.0082 8.45795
94 3 -0.854031 1.13207 4.86354 3.09364
93 3 -0.822625 6.41229 0.731861 7.00089
98 3 -0.86184 2.57054 5.70736 5.2034
351 2 0.181662 -2.99724 5.80611 0.78212
171 1 -0.660391 -1.50494 3.83587 8.59024
178 1 -0.675422 3.75383 3.39469 2.81136
208 2 0.264166 2.07168 4.56096 7.29178
339 2 0.244497 3.01575 5.68199 1.45841
361 2 0.19173 -0.0822381 1.19597 8.51667
225 2 0.215316 3.66404 4.21738 3.56287
226 2 0.272614 2.78528 3.3981 2.03855
227 2 0.161681 4.70779 3.46796 2.21775
96 3 -0.846829 4.31691 3.00961 8.25624
31 4 1.63834 3.80385 6.32145 6.08048
99 3 -0.857708 4.22661 5.25423 7.1783
356 2 0.18913 3.91394 4.84586 0.0778094
228 2 0.272081 4.60373 0.0791283 8.52576
209 2 0.173046 1.70683 4.04813 9.13109
13 4 1.30092 -0.375397 4.51066 14.1359
14 4 1.13381 -1.71364 6.4939 11.8711
26 4 1.19514 3.42099 1.94745 9.00737
68 3 -0.744569 -0.665817 1.91509 17.3148
75 3 -0.792519 -1.02377 3.28634 15.0331
313 2 0.167018 2.62793 0.653214 16.4323
77 3 -0.763525 -1.49272 5.52345 13.2477
100 3 -0.832712 0.610766 5.51811 14.9293
242 2 0.147597 3.43755 6.04585 11.7954
173 1 -0.655356 0.718875 3.57259 12.931
175 1 -0.647107 -0.344464 5.85755 10.7125
179 1 -0.661525 4.58227 0.510097 9.52678
180 1 -0.685713 2.50198 2.7479 10.4821
181 1 -0.673132 3.7161 3.05676 14.1662
204 2 0.148926 0.296551 0.909608 14.6388
206 2 0.174001 -1.22334 4.64375 9.41288
327 1 -0.673217 5.2402 1.38007 16.4673
211 2 0.158175 1.85437 3.35277 13.3736
212 2 0.140711 0.724658 4.27037 11.9027
213 2 0.155761 0.187532 2.58497 12.822
329 2 0.180894 4.07391 1.49622 16.5018
218 2 0.136652 0.0245167 4.7527 10.8277
314 2 0.173191 2.81073 2.59236 16.4669
282 2 0.17278 3.87557 5.68444 10.0685
230 2 0.167213 5.67223 0.842596 9.8255
231 2 0.152506 3.06851 2.27552 11.2259
232 2 0.164323 1.40381 2.45444 10.4036
233 2 0.149567 2.7586 3.91376 10.5036
234 2 0.172561 4.34802 2.50602 14.9554
235 2 0.150664 3.28834 2.41467 13.332
236 2 0.172165 2.95263 3.76174 14.6324
241 2 0.186705 2.23372 4.84447 12.9787
307 2 0.148449 5.82845 2.3532 12.478
240 2 0.187196 3.41988 6.36213 13.8607
303 1 -0.648761 5.5107 1.18042 12.5608
305 2 0.170778 4.64418 0.942733 13.3591
306 2 0.150244 5.12081 0.890803 11.4304
348 2 0.214903 -2.96261 5.87887 14.8725
312 1 -0.682222 2.04613 1.68233 16.3736
321 2 0.214484 -1.96646 4.67189 17.5693
183 1 -0.645398 3.24868 5.55196 12.9342
315 2 0.167772 1.47593 1.73758 15.4701
320 1 -0.690625 -2.48599 5.66149 17.4913
76 3 -0.804543 -2.98725 6.54854 10.8957
322 2 0.169369 -2.92917 5.93316 16.4619
328 2 0.151443 5.58353 1.42894 15.3975
217 2 0.17207 -0.621276 6.11625 9.59612
337 2 0.186395 6.99394 0.573683 10.2075
330 2 0.240101 5.52524 0.395421 16.8857
32 4 0.893462 4.73222 4.6362 13.5994
219 2 0.142568 0.485216 6.62294 11.2472
352 2 0.171069 -1.35775 2.68991 8.91667
4 4 1.55562 -5.64209 13.2471 7.36528
110 3 -0.848661 -1.48704 9.33327 8.7898
15 4 1.54599 -2.35829 9.0781 2.08922
17 4 1.57384 -3.8905 11.0772 0.255314
18 4 1.62253 -2.50287 8.85395 7.67704
20 4 1.66071 -3.87954 11.1963 5.93996
84 3 -0.886946 -6.27921 12.1009 8.304
1 4 1.63486 -5.12697 13.2733 2.24038
25 4 1.36738 -0.227565 13.0296 7.89023
35 4 1.61373 -1.3852 11.4452 4.05155
248 2 0.226175 0.0886339 7.53971 8.46606
78 3 -0.86701 -3.70122 8.35067 2.83719
79 3 -0.857116 -1.38617 7.86882 1.29365
80 3 -0.871811 -2.86317 9.96694 0.86453
81 3 -0.832582 -4.20934 12.2542 1.32825
357 2 0.254857 1.7737 9.26444 0.156842
83 3 -0.817916 -1.61143 8.06282 6.52028
114 3 -0.798907 1.49791 9.68277 6.48255
85 3 -0.819768 -5.21335 10.656 5.15502
86 3 -0.867743 -3.27735 10.2022 7.03672
87 3 -0.8345 -4.34982 12.7298 6.57382
37 4 1.23874 2.22581 8.75968 7.47275
103 3 -0.855919 2.44156 7.17785 3.15918
105 3 -0.815446 -1.44605 9.93963 3.10986
106 3 -0.815615 -1.09764 12.6436 2.95461
107 3 -0.856441 -2.79755 11.5386 4.82095
358 2 0.200199 -0.183177 9.6021 0.204765
111 3 -0.845246 -1.10138 11.9927 8.72681
113 3 -0.896016 -0.0935674 11.2951 5.01184
310 3 -0.865648 -5.96766 12.3349 3.28399
184 1 -0.661719 1.01469 9.34256 2.67121
9 4 1.42899 -0.830329 6.81605 0.30899
243 2 0.26847 0.726353 8.9894 3.75723
244 2 0.240278 0.418315 8.81421 1.91406
245 2 0.246339 1.08863 10.4646 2.53764
95 3 -0.872577 0.251211 6.94597 4.7532
82 3 -0.798968 -3.41575 7.79199 8.52216
109 3 -0.821616 3.15111 7.57472 6.93514
8 4 1.61302 -3.69662 7.09058 3.75501
12 4 1.62065 -1.14866 6.80002 5.50876
22 4 1.20591 -3.7825 10.9451 11.3183
324 2 0.181802 -6.4941 12.3021 14.0527
353 2 0.184216 -3.42417 13.3222 12.3433
38 4 1.52105 -1.17306 10.6829 9.67595
40 4 1.33479 2.02329 9.23966 13.9037
41 4 1.27814 -1.96068 11.6883 15.7187
42 4 1.28059 0.994531 11.3293 11.6626
88 3 -0.825074 -4.90826 10.774 10.2064
229 2 0.157294 -3.44813 13.5354 10.4662
102 3 -0.832915 -0.357601 7.34149 16.4868
112 3 -0.829185 -2.1679 10.8724 10.8994
116 3 -0.833613 1.12524 7.93199 14.3065
117 3 -0.855802 -0.602908 12.107 16.6441
118 3 -0.759386 -1.85235 12.5632 14.1611
119 3 -0.834261 -3.35282 11.7995 16.4544
120 3 -0.826098 0.558032 10.5191 10.3196
121 3 -0.807498 1.2322 10.3349 12.9454
122 3 -0.775891 0.0339111 12.7462 12.1218
174 1 -0.674121 -1.12079 8.31588 12.3604
176 1 -0.668751 -3.98276 9.80539 12.8657
177 1 -0.663459 -4.36851 12.6605 12.0725
185 1 -0.678172 0.647203 9.9348 17.2941
302 4 1.15132 -0.779101 13.4464 13.301
189 1 -0.652504 -1.66742 9.79467 15.2015
214 2 0.227031 -0.494843 8.82973 11.5873
215 2 0.247905 -0.393592 8.00912 13.1814
216 2 0.176566 -2.17401 8.87619 12.6048
220 2 0.167856 -3.11226 9.79095 13.746
221 2 0.184363 -3.98975 8.8161 12.2332
222 2 0.243821 -4.97871 9.93929 13.3228
223 2 0.185216 -4.93083 12.4029 13.0347
224 2 0.174297 -4.92482 13.193 11.2546
246 2 0.221638 0.587279 9.7672 16.1848
325 2 0.19728 -4.77113 11.6237 14.5383
249 2 0.249915 0.84209 8.93495 9.52341
101 3 -0.841043 2.44911 7.06437 16.4124
186 1 -0.671761 1.08015 7.94917 8.86626
256 2 0.202842 -0.794721 9.67674 16.0072
257 2 0.203261 -1.36036 9.19362 14.1969
258 2 0.171097 -2.65316 9.40429 15.6382
326 2 0.175207 -5.56726 13.1192 15.5129
311 3 -0.862861 -5.44916 10.6017 17.2735
323 1 -0.64912 -5.7601 12.1316 14.8837
247 2 0.152156 1.71015 7.21796 9.51911
36 4 1.36971 0.716017 11.8441 17.4804
33 4 1.54143 0.982417 6.8978 15.5744
365 2 0.182035 -3.81705 7.16234 13.8114
341 1 -0.658751 11.2252 0.185717 8.71771
280 2 0.25117 8.09255 3.23492 7.46312
131 3 -0.849477 5.12253 6.67776 5.21181
44 4 1.58357 9.05891 1.95227 4.17174
45 4 1.20768 12.938 0.363495 7.78646
46 4 1.56553 11.7202 2.60006 5.68113
48 4 1.41421 9.77932 4.56893 2.15836
51 4 1.40762 10.0476 4.66321 7.4608
97 3 -0.840108 6.2156 3.48987 6.65257
359 2 0.184382 11.3838 0.902169 0.217443
123 3 -0.854063 13.0956 1.03631 2.81059
124 3 -0.855565 8.72279 0.717714 3.2247
125 3 -0.837598 7.85815 2.08589 5.17757
126 3 -0.810047 12.6937 3.12266 4.48562
127 3 -0.820008 10.4295 1.77152 5.0345
128 3 -0.80035 12.5134 1.57137 6.73177
129 3 -0.812693 9.21122 3.45393 3.14941
130 3 -0.807225 10.6283 5.69761 2.85481
132 3 -0.830102 8.82192 5.21486 1.11717
133 3 -0.842066 11.1686 3.90712 6.59128
30 4 1.57097 5.24201 4.16025 7.74731
191 1 -0.645312 11.0192 0.4219 1.21542
138 3 -0.837904 9.07736 5.62293 6.64011
354 2 0.188059 9.12956 2.21922 0.272729
196 1 -0.675392 10.9957 3.62101 1.02963
197 1 -0.662988 6.28022 5.3508 2.98535
198 1 -0.672937 9.09721 3.06828 8.07993
360 2 0.211491 10.5322 1.12837 1.95603
274 2 0.172421 10.9982 2.43916 1.13426
275 2 0.239275 11.9463 4.13113 1.41337
276 2 0.237575 7.23234 4.83162 3.46556
300 2 0.258468 7.2454 4.28962 0.722086
278 2 0.168885 5.31702 4.60355 2.96438
279 2 0.186469 9.78644 2.28921 7.77901
207 2 0.275602 12.6158 4.04307 7.95689
340 2 0.177178 4.88167 5.58588 1.56554
298 1 -0.683546 6.29509 3.84713 0.33989
277 2 0.195464 6.57445 5.92169 2.03492
27 4 1.58141 6.38643 2.00365 5.96771
363 2 0.159419 10.6827 1.23352 8.55193
301 2 0.166364 5.52074 3.70514 1.16919
347 1 -0.6719 11.0887 6.45105 14.7081
134 3 -0.840376 10.5797 5.25256 8.90455
47 4 0.949161 10.4381 2.8316 11.9423
52 4 1.2976 6.05063 6.43666 9.52203
54 4 1.12767 9.83623 5.28683 13.7731
270 2 0.156157 10.4489 0.235218 12.9086
139 3 -0.760046 10.5094 4.03677 12.9544
140 3 -0.766023 5.46266 5.55568 14.8671
135 3 -0.788535 6.19675 4.82424 9.11848
299 2 0.190599 5.64053 4.40005 17.0478
145 3 -0.781798 8.98181 6.26725 12.695
182 1 -0.661338 6.18557 4.31612 12.3586
355 2 0.187244 7.98708 0.294461 15.4938
193 1 -0.6452 11.6918 2.87868 10.4838
194 1 -0.635813 8.55237 2.99666 11.3121
195 1 -0.655442 10.8309 1.36476 13.0576
281 2 0.161983 8.9176 3.07014 9.32152
200 1 -0.661846 8.45173 4.44474 14.8559
141 3 -0.81141 7.65699 6.75607 16.3608
192 1 -0.689069 14.0797 0.75186 9.24771
238 2 0.16413 6.94665 3.77734 12.9663
239 2 0.285593 6.60766 5.28668 11.8296
205 2 0.165629 13.8858 0.115313 13.6813
264 2 0.140632 11.5131 1.80387 9.86012
265 2 0.165061 12.794 3.08214 10.8345
266 2 0.250833 11.3061 3.79593 9.81859
267 2 0.161545 7.85291 2.94976 12.2937
268 2 0.16127 8.33922 2.03716 10.6183
269 2 0.201076 8.50748 3.98933 10.6654
11 4 1.52647 10.8513 6.78971 9.72028
271 2 0.149373 10.4683 1.86381 14.1116
272 2 0.171969 11.9617 1.44382 12.9339
263 2 0.148771 13.69 1.46939 10.0272
285 2 0.149349 9.06496 4.66476 15.8234
286 2 0.151349 8.52741 3.3731 14.4793
287 2 0.250416 7.42973 4.91068 14.8827
304 1 -0.663463 7.92721 0.850738 14.4073
308 2 0.165294 8.9925 1.07246 13.8524
309 2 0.131072 7.28811 1.78184 14.5581
316 1 -0.65978 11.7068 1.97046 16.0435
317 2 0.153997 11.5843 0.79971 16.1118
318 2 0.16983 11.1676 2.45884 15.1141
319 2 0.179093 11.4068 2.51803 17.053
331 1 -0.677056 8.3785 2.06526 16.9607
332 2 0.184751 8.60923 1.02442 16.4621
333 2 0.169888 8.4497 2.98143 16.2602
334 1 -0.641077 7.92951 0.413971 9.47546
144 3 -0.821656 7.11295 6.7996 11.0819
170 1 -0.68224 14.2922 0.433253 14.7474
237 2 0.157777 5.61726 3.6392 11.6375
6 4 1.12189 13.614 1.93385 15.8035
366 2 0.154047 14.0141 0.148784 11.9292
199 1 -0.715847 4.24411 6.70264 10.0421
335 2 0.164756 8.43568 1.3637 8.95695
273 2 0.161825 10.5737 4.01991 17.601
296 4 0.978305 6.62466 2.12327 17.5971
59 4 1.64068 6.16226 11.2241 0.232996
250 2 0.218539 3.61625 10.7188 7.64475
39 4 1.5583 1.22231 11.3589 5.83731
137 3 -0.880498 7.81085 6.81082 4.8639
16 4 1.72294 8.64703 11.0236 4.0905
53 4 1.66023 8.97343 7.05193 5.83856
57 4 1.6334 7.28761 9.06904 2.14728
58 4 1.67488 3.83649 11.165 4.31983
60 4 1.58871 7.42594 8.7475 7.92558
61 4 1.65925 6.22037 11.0199 6.17238
34 4 1.47169 2.77396 8.62232 2.57138
187 1 -0.670124 3.57097 9.85651 8.32844
43 4 1.49714 5.10861 13.2303 2.21193
115 3 -0.835613 1.0887 12.4334 7.1807
262 2 0.24976 3.00633 12.9236 1.18952
136 3 -0.826209 10.4248 7.34127 5.01207
146 3 -0.79769 6.22056 8.24964 3.23547
147 3 -0.866684 7.91123 7.88632 1.15757
148 3 -0.881461 8.33496 9.83963 3.10674
149 3 -0.818519 3.40305 9.69984 3.45059
150 3 -0.859103 4.42522 12.1986 3.26853
151 3 -0.846633 2.4929 11.7555 4.94676
153 3 -0.889345 6.52045 10.1076 1.27112
154 3 -0.869426 5.88842 12.5191 1.02437
155 3 -0.847869 6.46781 7.43535 8.3863
156 3 -0.836326 8.66765 8.27404 6.92474
158 3 -0.857451 7.43195 11.2108 5.17159
159 3 -0.874001 4.85077 10.82 5.43968
160 3 -0.852737 6.41188 9.74596 7.14583
161 3 -0.767974 5.81359 12.5161 7.10255
104 3 -0.807668 3.18682 8.5889 1.06098
49 4 1.43739 6.33185 6.92864 4.2018
251 2 0.229119 4.55081 9.18475 8.48628
50 4 1.32029 8.5418 6.83961 0.210618
108 3 -0.850912 0.875126 12.3056 1.45526
343 2 0.21481 3.2231 12.8581 8.22496
364 2 0.264536 10.2948 8.33124 0.757384
23 4 1.56238 0.125473 13.4679 2.3311
252 2 0.156246 3.07706 10.1818 9.27193
336 2 0.185872 1.27468 13.2836 10.002
157 3 -0.869818 7.8747 9.64418 9.21469
55 4 1.43997 6.12141 7.02472 15.557
56 4 1.59575 8.51222 7.34891 11.5342
21 4 1.38978 8.49965 10.8426 16.1126
62 4 1.52003 7.50558 9.10474 13.7803
63 4 1.33055 3.42561 11.2356 16.0245
64 4 1.16929 6.58234 11.3344 11.7014
142 3 -0.81823 5.03794 7.55115 16.6524
143 3 -0.883759 9.5806 7.39493 10.3639
152 3 -0.858524 7.18501 11.5998 16.5647
283 2 0.203478 3.79734 7.27841 9.20147
162 3 -0.819315 6.34627 8.02253 14.1954
163 3 -0.810552 8.41873 8.76869 12.4604
164 3 -0.855385 8.43392 9.56051 14.9987
165 3 -0.818468 2.65616 9.99476 15.1677
166 3 -0.828973 4.69009 10.9622 16.9598
167 3 -0.819229 2.08688 12.122 16.7227
168 3 -0.83568 7.76844 11.7306 10.6859
169 3 -0.799299 6.78056 10.5485 13.0754
190 1 -0.67285 2.75069 11.9826 11.2618
201 1 -0.678455 3.93977 12.46 14.6361
202 1 -0.684445 5.40665 10.1677 10.6463
203 1 -0.671105 5.58858 13.0393 11.8941
284 2 0.165757 4.24876 7.2461 11.07
345 2 0.141198 10.9052 6.91811 17.396
346 2 0.234274 9.81145 8.32452 16.5245
253 2 0.15189 3.17572 9.13337 11.7155
255 2 0.19763 4.30886 9.21752 13.3065
259 2 0.169941 2.64653 11.9056 10.1382
260 2 0.155683 3.46228 11.1622 11.7411
261 2 0.152298 2.99218 13.0758 11.6646
344 1 -0.683465 9.99591 7.77328 17.4482
288 2 0.176779 4.99415 13.0105 14.7147
29 4 1.35398 3.62082 7.33177 17.4025
290 2 0.165846 3.87193 11.7231 13.7911
291 2 0.248072 6.15971 9.50696 10.1396
292 2 0.191942 4.88316 10.694 9.86256
293 2 0.17299 4.7495 9.51287 11.3765
294 2 0.167762 4.9678 12.8457 12.9282
350 2 0.258211 6.91465 13.0383 15.5147
295 2 0.155079 4.90129 13.3403 11.0167
188 1 -0.686278 3.44302 8.67409 12.7092
289 2 0.185802 3.10561 13.2254 14.6913
362 2 0.242177 6.92324 13.2526 9.73761
19 4 1.60793 8.67055 11.043 9.50694
254 2 0.190563 3.52962 7.53957 12.7432
349 2 0.163381 10.6081 6.96623 15.6988
342 2 0.132394 3.99112 13.5215 9.89151
ITEM: TIMESTEP
200
ITEM: NUMBER OF ATOMS
366
ITEM: BOX BOUNDS xy xz yz pp pp pp
-7.6516000000000002e+00 1.5037200000000000e+01 -7.4931000000000001e+00
0.0000000000000000e+00 1.3670162800000000e+01 -1.5850000000000000e-01
0.0000000000000000e+00 1.7607399999999998e+01 8.1022799999999506e-02
ITEM: ATOMS id type q x y z
172 1 -0.655471 1.36729 4.85558 8.22553
3 4 1.4397 1.17652 1.76004 0.397781
5 4 1.63076 0.941862 1.92294 5.4077
7 4 1.54466 0.518277 4.42218 1.88832
2 4 1.61784 -1.27353 2.44436 3.26289
10 4 1.19139 -0.234953 4.30767 7.31143
338 1 -0.659596 3.82719 5.64733 0.739516
24 4 1.47456 3.70487 1.85728 4.10934
99 3 -0.866577 4.33581 5.26958 7.19576
28 4 1.60921 1.59199 6.17605 4.15253
65 3 -0.852525 1.55473 0.613152 1.34585
66 3 -0.836366 0.108572 1.98189 3.99303