ITEM: TIMESTEP
0
ITEM: NUMBER OF ATOMS
366
ITEM: BOX BOUNDS xy xz yz pp pp pp
-7.6516000000000002e+00 1.5037200000000000e+01 -7.4931000000000001e+00
0.0000000000000000e+00 1.3615700000000000e+01 -1.5850000000000000e-01
0.0000000000000000e+00 1.7607399999999998e+01 8.0699999999999994e-02
ITEM: ATOMS id type q x y z
27 4 1.60854 6.25239 2.14815 5.98211
3 4 1.34434 1.31922 2.03975 0.320388
5 4 1.59914 0.684666 1.85219 5.57438
7 4 1.56599 0.344851 4.26603 2.07308
9 4 1.30385 -0.807344 6.40435 0.0329544
10 4 1.21396 -0.484122 4.26719 7.29537
339 2 0.216938 3.15283 4.97424 1.03988
24 4 1.50889 3.46598 1.84461 4.28377
297 3 -0.765981 6.55036 0.534147 1.24843
28 4 1.49551 1.63772 6.24518 4.24256
65 3 -0.83949 2.03104 0.675612 0.780227
66 3 -0.828789 -0.157057 1.70077 4.13347
67 3 -0.816233 0.774458 0.376606 6.45308
69 3 -0.854491 -1.12933 3.59214 2.71433
70 3 -0.840528 1.41207 3.15229 1.47407
71 3 -0.854218 0.0739852 5.38749 0.923515
72 3 -0.881208 -0.029707 2.95037 6.49853
338 1 -0.680543 4.12771 5.33055 0.610544
74 3 -0.816646 -1.08515 5.58281 6.61746
89 3 -0.81676 3.23448 0.673406 3.20374
90 3 -0.865455 2.25007 2.10103 5.20081
91 3 -0.798923 2.39684 1.32629 8.49637
92 3 -0.82259 4.78671 1.80215 5.13322
93 3 -0.883684 6.81024 1.08648 7.022
94 3 -0.847557 1.07704 5.04189 3.23127
209 2 0.16957 1.5335 4.37597 8.58084
98 3 -0.789028 2.57482 5.32729 5.28128
73 3 -0.841538 -2.27521 6.58624 4.50741
172 1 -0.653318 1.23508 5.08266 7.80608
178 1 -0.670579 3.75832 3.44446 3.25848
208 2 0.301091 1.86437 5.08745 6.8017
361 2 0.219434 -0.708716 1.59836 8.18324
210 2 0.170547 1.01689 6.24645 8.20485
225 2 0.292212 2.82667 4.03737 3.50201
226 2 0.187839 3.7622 3.07124 2.12727
227 2 0.176482 4.71837 3.91534 3.69697
301 2 0.182795 5.39201 3.26021 2.09939
99 3 -0.900346 4.31931 5.30526 7.28737
31 4 1.56349 3.88793 6.34969 6.23363
351 2 0.167235 -3.03425 5.53917 0.457402
321 2 0.201729 -2.03248 4.45199 17.0823
13 4 1.29033 -0.558705 4.3871 13.9117
14 4 1.14722 -1.17164 6.39606 11.5511
26 4 1.16925 3.61627 1.98431 9.31207
68 3 -0.78972 -0.34837 2.14358 17.026
75 3 -0.801747 -1.36148 3.43693 14.9227
76 3 -0.793983 -2.43379 6.52617 10.4029
77 3 -0.788832 -1.39992 5.51668 12.7729
100 3 -0.857512 0.700467 5.0872 14.5671
330 2 0.143841 5.79523 2.09674 15.5334
173 1 -0.665469 0.0166511 3.04155 12.6251
175 1 -0.67405 0.524869 5.6788 10.815
179 1 -0.656585 4.66639 0.484759 9.80137
180 1 -0.664365 2.84885 2.59818 10.9767
181 1 -0.653569 3.8594 3.61193 14.3085
204 2 0.15175 0.264156 0.933358 14.6259
206 2 0.146526 -0.61672 3.47344 9.6383
207 2 0.2478 -1.80042 4.97889 9.36804
211 2 0.151481 -0.405952 3.17143 11.608
212 2 0.160633 -0.362003 2.05989 13.1156
213 2 0.160262 1.18217 3.29768 12.795
217 2 0.163111 0.706393 5.44038 9.69663
218 2 0.166819 0.44534 4.65231 11.4299
171 1 -0.679436 -1.37427 3.95659 8.9614
328 2 0.1655 4.2404 2.18869 16.6216
230 2 0.194887 5.80136 0.61906 9.90775
231 2 0.150766 3.68945 2.20558 11.7703
232 2 0.185464 1.81691 2.22285 11.1244
233 2 0.16354 2.87663 3.69242 10.7838
234 2 0.174344 4.34448 2.90095 15.1237
235 2 0.160255 3.52383 3.09714 13.3662
236 2 0.18805 3.0605 4.46716 14.6776
241 2 0.137505 3.46037 6.03164 12.5413
282 2 0.180583 3.76657 5.92176 9.48867
349 2 0.222136 -2.97308 6.06831 14.3652
303 1 -0.68038 5.27645 1.46146 12.7677
305 2 0.165469 4.35676 1.41958 13.4207
306 2 0.165652 5.0701 1.11781 11.6747
307 2 0.158845 5.62142 2.58635 12.5583
312 1 -0.645567 2.47833 3.02135 16.8345
313 2 0.152201 2.4962 2.23797 15.9638
101 3 -0.85935 2.34229 6.45281 16.2816
315 2 0.215099 2.20364 4.15956 16.521
320 1 -0.682616 -2.50176 5.53609 17.1789
356 2 0.166604 4.3471 4.71157 17.4239
322 2 0.148318 -3.05237 5.954 16.1027
327 1 -0.674976 5.2507 1.63095 16.4276
314 2 0.161757 3.37668 2.98111 17.5182
329 2 0.258387 5.10522 0.554751 16.3506
219 2 0.137782 1.40781 6.32491 11.2025
33 4 1.4961 1.02958 6.47165 15.4113
302 4 1.12296 6.51027 0.0999966 13.4987
96 3 -0.836072 4.63267 3.15254 8.83426
4 4 1.5276 -5.57744 13.4357 7.50152
8 4 1.61403 -3.73328 6.85188 3.83173
15 4 1.58167 -2.38122 8.83108 1.96663
17 4 1.60043 -3.5709 11.1377 0.412055
18 4 1.63462 -2.69809 8.98933 7.62472
20 4 1.70021 -4.05737 11.4018 5.85462
114 3 -0.818266 1.71807 9.98649 6.73458
12 4 1.64591 -1.18967 6.90767 5.63249
39 4 1.65122 1.18178 11.3108 5.83906
35 4 1.67084 -1.38819 11.2645 4.14496
37 4 1.25381 2.25766 8.78902 7.56013
78 3 -0.851549 -3.53249 8.0314 2.6924
79 3 -0.804029 -1.3157 7.82564 1.11204
80 3 -0.879751 -2.85026 9.80005 0.84222
81 3 -0.833518 -3.86599 12.1339 1.59854
82 3 -0.865823 -3.50821 8.0525 8.55959
83 3 -0.839827 -1.79454 8.04 6.51159
84 3 -0.870939 -6.14829 12.3032 8.53803
85 3 -0.881642 -5.30622 11.1108 4.91482
86 3 -0.805975 -3.6588 10.1065 6.73834
87 3 -0.859291 -4.22648 12.6898 6.86879
95 3 -0.834184 0.262896 7.16521 4.93644
103 3 -0.852652 2.57696 7.32581 3.43145
105 3 -0.794619 -1.60425 9.91626 3.06378
106 3 -0.858204 -1.00047 12.5436 3.29261
107 3 -0.843807 -2.72957 11.4587 4.99163
109 3 -0.854776 2.91521 7.55852 6.88458
111 3 -0.863336 -1.10498 12.3666 8.44721
113 3 -0.888899 -0.186194 10.9239 5.12193
34 4 1.36973 2.60004 8.5366 2.4598
184 1 -0.706082 0.896646 9.22696 2.58148
110 3 -0.822946 -1.58529 9.68586 8.5847
243 2 0.267556 0.64419 9.10258 3.6954
244 2 0.24911 0.10797 8.62109 1.94747
245 2 0.249529 0.877718 10.3352 2.23794
248 2 0.22726 0.106961 8.01823 7.89605
310 3 -0.812809 -6.27031 12.464 2.64818
364 2 0.271479 -4.59788 8.47293 0.451942
25 4 1.44711 -0.0920912 13.3236 7.72685
1 4 1.62261 -5.02309 13.2244 2.0491
23 4 1.54381 0.00990874 13.2304 2.34571
104 3 -0.824193 3.0163 7.99518 0.689377
357 2 0.255808 1.73921 8.95241 0.00300363
186 1 -0.68221 0.853766 8.17539 8.75706
22 4 1.20675 -3.68696 10.8705 11.295
324 2 0.177992 -5.92349 12.3624 14.1589
228 2 0.255719 -3.08378 13.4493 8.82948
38 4 1.53953 -1.07206 11.0386 9.46007
40 4 1.27373 2.03176 9.05433 13.6388
41 4 1.36311 -1.75584 11.6021 15.5716
42 4 1.24817 0.767212 11.4085 11.8741
88 3 -0.837721 -4.88653 10.6994 10.2773
325 2 0.238082 -4.46243 12.4676 15.4339
102 3 -0.826059 -0.286472 7.06436 16.2602
112 3 -0.81854 -2.23255 11.176 10.6539
116 3 -0.809605 1.36194 7.75573 14.2937
117 3 -0.86231 -0.372015 11.8043 16.3408
118 3 -0.803629 -1.94732 12.592 14.3263
119 3 -0.819158 -2.95182 11.9179 16.597
120 3 -0.837911 0.271964 10.7008 10.1621
121 3 -0.770518 0.780519 10.2314 12.9291
122 3 -0.780629 -0.0841291 12.7834 12.4059
174 1 -0.64974 -0.689432 8.14823 12.056
176 1 -0.690032 -3.64676 9.13529 12.2846
177 1 -0.656353 -4.21901 12.4723 12.2767
185 1 -0.698354 0.697262 9.56062 17.0677
353 2 0.189534 -3.43191 13.3408 12.5034
189 1 -0.669834 -1.95465 9.73107 14.9878
214 2 0.173138 0.366584 8.06514 11.5215
215 2 0.222423 -0.636354 8.07032 13.1821
216 2 0.211221 -1.26921 9.06037 11.6693
220 2 0.168414 -2.52458 8.79795 12.3007
221 2 0.294555 -4.29531 8.37397 11.6198
222 2 0.182846 -4.16035 9.28634 13.2656
223 2 0.157665 -4.25014 11.7872 13.2433
224 2 0.205707 -5.19891 12.9063 11.8882
246 2 0.251949 0.729525 9.16643 16.0855
247 2 0.161991 0.845433 7.25602 9.49423
249 2 0.276991 0.58571 9.1783 9.35718
36 4 1.28867 0.810911 11.4272 17.2596
254 2 0.158547 2.69114 7.69756 11.7953
256 2 0.200658 -2.41912 9.17171 15.8733
257 2 0.209258 -0.847807 9.55366 14.7817
258 2 0.16237 -2.59923 9.56174 13.968
348 2 0.191656 -3.7805 7.58728 13.6212
311 3 -0.832884 -5.11969 10.697 17.3312
323 1 -0.67446 -5.58576 12.5807 15.2582
229 2 0.187883 -3.30397 13.388 10.7128
29 4 1.39645 3.48486 7.01137 17.345
326 2 0.183489 -6.02808 13.5349 15.7716
11 4 1.55642 -3.83956 6.85212 9.52741
358 2 0.22417 -0.291632 9.37067 17.5046
2 4 1.5975 13.5346 2.25803 3.47203
360 2 0.21127 10.5173 1.03038 2.24625
296 4 0.973066 6.67463 1.81219 0.322896
44 4 1.652 8.64466 1.98916 4.03274
280 2 0.278607 7.86006 4.23496 8.60497
46 4 1.60465 11.227 2.38387 5.8208
48 4 1.31316 9.89684 4.4632 2.10607
51 4 1.44572 10.0087 4.68605 7.56908
97 3 -0.815962 6.12989 3.64174 6.72218
300 2 0.270259 7.27503 3.27952 2.13313
123 3 -0.797976 12.9118 1.07036 2.51253
124 3 -0.898835 8.42009 0.720203 3.17167
125 3 -0.855356 7.39847 2.33402 4.91992
126 3 -0.803739 12.3084 2.5589 4.68583
127 3 -0.840136 9.93684 1.93876 4.99416
128 3 -0.805969 11.65 1.24479 6.94729
129 3 -0.812587 8.88308 3.32508 3.01146
130 3 -0.818502 10.6408 5.50841 3.11725
132 3 -0.797782 9.08373 5.30448 0.950194
133 3 -0.821068 11.0235 3.82544 6.70051
354 2 0.172336 9.14305 2.11828 0.468972
340 2 0.18548 4.93547 5.42168 1.44027
138 3 -0.849966 9.22069 5.70161 6.72186
277 2 0.210106 6.40673 6.03798 1.86597
196 1 -0.684447 11.1436 3.41757 1.20293
197 1 -0.672983 6.26505 5.60947 2.92199
198 1 -0.696732 8.72501 3.50514 8.40511
275 2 0.236766 12.132 3.83634 1.72575
274 2 0.182294 11.013 2.25454 1.34649
30 4 1.53419 5.33377 4.33964 7.94804
276 2 0.241227 7.2258 5.1325 3.31457
299 2 0.141325 6.33971 4.00719 0.489455
278 2 0.173465 5.3698 4.96528 3.08607
279 2 0.212411 8.36198 2.68588 7.70974
45 4 1.19185 12.5883 0.0871433 7.75035
352 2 0.20077 12.9086 3.21026 8.493
298 1 -0.657296 6.38373 3.23396 1.47961
359 2 0.170046 10.7519 0.781036 0.390608
191 1 -0.691081 10.6547 0.268599 1.37654
273 2 0.160343 10.8964 3.84002 0.150107
6 4 1.12851 13.663 2.00993 15.8094
32 4 0.950567 5.17885 5.11178 13.9035
47 4 0.937787 10.4208 2.81511 11.9892
284 2 0.179315 4.24302 6.71634 11.2109
54 4 1.12947 9.7234 5.42155 13.7812
135 3 -0.834149 6.43366 5.25171 9.08038
139 3 -0.717881 10.4228 4.21094 12.8035
140 3 -0.802043 6.06519 5.58189 15.1235
347 1 -0.681157 11.1362 6.64852 14.3665
334 1 -0.670924 8.46515 0.435459 9.25911
145 3 -0.796398 8.55745 6.08062 12.8637
182 1 -0.652867 6.18111 4.51843 12.2276
355 2 0.182757 7.84573 0.688278 15.5096
193 1 -0.679052 11.5028 2.95537 10.462
194 1 -0.666713 8.49078 2.499 11.6101
195 1 -0.636219 10.8622 1.4123 13.1779
183 1 -0.685025 4.23035 6.58029 13.2046
200 1 -0.679417 8.85401 4.40276 15.1765
237 2 0.167136 5.52204 3.87283 11.5595
170 1 -0.697404 14.299 0.445662 14.7964
238 2 0.180537 7.03345 3.88406 12.6867
239 2 0.26249 6.52738 5.46604 11.6176
263 2 0.169993 13.3999 1.35424 9.74325
264 2 0.138334 11.4632 1.96715 9.83849
265 2 0.173112 12.4309 3.06394 11.0858
266 2 0.259793 11.3064 3.89784 9.8079
267 2 0.169435 8.1874 1.95639 12.6464
268 2 0.175605 8.50077 1.77067 10.803
269 2 0.201296 7.91294 3.4771 11.4
270 2 0.153677 10.1786 0.501367 12.9532
271 2 0.164046 11.2783 1.55678 14.3581
272 2 0.125978 11.891 1.29234 12.4406
366 2 0.16246 13.799 0.322463 11.9707
285 2 0.152267 9.51194 4.68543 16.0614
286 2 0.175529 8.9558 3.35054 14.7882
287 2 0.262876 7.74948 4.85896 15.2199
304 1 -0.660939 7.8463 1.1345 14.4362
308 2 0.172158 8.95174 1.30008 14.0037
309 2 0.124924 7.15715 2.13008 14.4317
316 1 -0.685947 11.8921 1.54907 16.3239
317 2 0.169372 11.6512 0.623637 15.6939
318 2 0.164497 11.4809 2.55436 15.9982
319 2 0.193553 11.7819 1.34874 17.4921
331 1 -0.678409 8.31871 2.00033 17.1521
332 2 0.161719 8.61543 0.97591 16.6407
333 2 0.189563 8.47701 2.86468 16.4406
337 2 0.164174 8.5417 1.57955 8.90689
192 1 -0.688199 13.839 0.872268 8.90099
281 2 0.163564 9.19263 3.062 9.3709
52 4 1.33664 6.08046 6.76579 9.48833
336 2 0.17401 7.80652 0.325304 10.1658
205 2 0.17775 13.9206 0.131131 13.8078
199 1 -0.675658 4.34058 6.77949 10.0866
363 2 0.140554 11.1412 0.129648 9.92289
134 3 -0.850581 10.7586 5.44105 8.83934
16 4 1.63814 8.47904 11.2592 3.86262
137 3 -0.856409 7.6721 6.95113 4.92815
43 4 1.43778 4.85045 13.0679 2.00745
49 4 1.4595 6.26089 7.08321 4.22568
50 4 1.36992 8.71098 6.90166 0.232557
53 4 1.66734 8.93749 7.15263 5.94638
57 4 1.61134 7.30039 9.01661 2.07524
58 4 1.60901 3.65605 11.0737 4.03954
60 4 1.63716 7.37386 9.09565 7.77064
61 4 1.67083 6.0661 11.1318 5.85435
262 2 0.272142 2.30367 13.037 1.41974
250 2 0.224506 4.35956 9.14425 8.40072
343 2 0.186956 3.18599 12.5247 8.53738
115 3 -0.849002 1.02095 12.6034 6.82899
161 3 -0.784872 5.72128 12.5407 6.86501
136 3 -0.799148 10.2307 7.46132 4.96655
146 3 -0.796942 6.25619 8.37447 3.24013
147 3 -0.854132 8.04521 7.70214 1.39898
148 3 -0.822759 8.37514 9.99048 2.88205
149 3 -0.813382 3.47618 9.72834 2.98423
150 3 -0.849123 4.49134 12.2257 3.33413
151 3 -0.865504 2.28047 11.5351 4.7333
153 3 -0.851667 6.45498 9.9398 1.03338
154 3 -0.85978 5.64313 12.4668 0.804183
155 3 -0.838894 6.15502 7.91627 8.40031
156 3 -0.869554 8.51288 8.24256 6.99117
158 3 -0.835609 7.03774 11.5286 4.58337
159 3 -0.807352 4.62955 10.667 5.37662
160 3 -0.920376 6.70486 10.1355 6.82989
108 3 -0.835793 0.964581 11.9835 1.40264
131 3 -0.854883 5.00642 6.82767 5.23461
59 4 1.61572 6.1493 11.1245 0.0102772
253 2 0.147702 2.78073 9.61255 11.1833
365 2 0.15365 10.8314 7.03297 15.4274
21 4 1.40608 8.76361 11.029 16.1991
55 4 1.52121 6.28767 7.17443 15.8603
56 4 1.49254 8.45023 7.2982 11.7804
157 3 -0.883359 8.01826 9.86202 8.96954
62 4 1.53258 7.56373 9.25734 13.934
63 4 1.37629 3.56777 11.0144 15.6493
64 4 1.21556 6.79997 11.39 11.8034
142 3 -0.833249 4.9918 7.41479 16.6918
143 3 -0.780252 9.8981 7.30353 10.6307
152 3 -0.832376 7.41124 11.5325 16.8608
295 2 0.167911 4.96838 12.8657 10.9824
162 3 -0.807636 6.46791 8.27495 14.4137
163 3 -0.823297 8.56706 8.58824 12.7015
164 3 -0.844202 8.59255 9.833 15.1201
165 3 -0.812584 3.03708 9.79784 14.6777
166 3 -0.810018 5.05084 10.8165 16.2993
167 3 -0.824029 2.30321 11.581 16.4976
168 3 -0.811278 7.93859 11.8902 10.9696
169 3 -0.814419 6.90352 10.6518 13.2012
190 1 -0.694041 2.56847 11.8741 11.7212
201 1 -0.652096 3.81495 12.6093 14.556
202 1 -0.673846 5.56704 10.3011 10.6677
203 1 -0.667095 5.65682 12.9601 11.9717
252 2 0.183836 3.73837 10.8476 8.9479
242 2 0.208421 4.91538 7.26651 12.6389
251 2 0.147519 3.17024 9.22782 9.8696
187 1 -0.66139 3.47863 9.67901 8.83153
255 2 0.18493 4.12211 8.8572 12.4038
259 2 0.177742 2.74795 11.6447 10.6117
260 2 0.166037 3.07084 11.0927 12.3909
261 2 0.149313 2.9032 12.9842 11.9881
283 2 0.165614 3.95439 7.91972 9.63636
288 2 0.174063 3.42661 12.329 13.5028
289 2 0.167043 4.92845 13.1675 14.6362
290 2 0.18229 3.02114 13.2395 15.0559
291 2 0.223085 5.78021 9.25613 10.871
292 2 0.183703 5.72147 10.6356 9.52213
293 2 0.15714 4.53325 10.5864 11.051
294 2 0.180354 5.01821 12.8574 12.9347
350 2 0.241467 6.85045 13.0859 15.4913
240 2 0.22406 3.7525 7.1788 14.0716
341 1 -0.681694 3.98607 12.8022 9.27799
342 2 0.140714 4.58533 11.8058 9.8592
344 1 -0.674289 10.2109 7.80874 17.2111
144 3 -0.822797 7.00017 7.20227 10.9951
188 1 -0.677742 3.03061 8.75712 12.0327
346 2 0.224659 10.0378 8.34383 16.2151
362 2 0.23644 7.05978 13.4772 9.10253
335 2 0.177152 2.08918 13.5308 9.3328
141 3 -0.889204 7.67718 7.13112 16.5719
19 4 1.59307 8.82532 11.1041 9.54952
345 2 0.153617 11.078 6.94399 17.1904
ITEM: TIMESTEP
100
ITEM: NUMBER OF ATOMS
366
ITEM: BOX BOUNDS xy xz yz pp pp pp
-7.6516000000000002e+00 1.5037200000000000e+01 -7.4931000000000001e+00
0.0000000000000000e+00 1.3615700000000000e+01 -1.5850000000000000e-01
0.0000000000000000e+00 1.7613269133333333e+01 8.0699999999999994e-02
ITEM: ATOMS id type q x y z
27 4 1.59265 6.30482 2.08866 5.92613
3 4 1.35894 1.36579 2.05949 0.401605
5 4 1.58999 0.749609 1.7238 5.56334
7 4 1.63851 0.22929 4.34706 2.15736
9 4 1.37695 -0.892925 6.38898 0.120821
10 4 1.26198 -0.357063 4.36581 7.25039
339 2 0.203005 3.15377 5.07465 1.17166
24 4 1.53735 3.53941 1.70247 4.32595
297 3 -0.74739 6.55056 0.531602 1.3549
28 4 1.57328 1.47899 6.29028 4.22772
65 3 -0.814736 1.95563 0.621695 0.692317
66 3 -0.8394 -0.28749 1.56427 4.30837
67 3 -0.852279 0.763276 0.443919 6.5417
69 3 -0.851335 -1.09013 3.63545 2.60349
70 3 -0.830563 1.29101 3.10999 1.6788
71 3 -0.860652 -0.0808539 5.31566 0.890849
72 3 -0.821132 0.0552713 3.0196 6.59631
338 1 -0.667458 4.17426 5.40002 0.723876
74 3 -0.850988 -1.04767 5.50876 6.46157
89 3 -0.874462 3.16062 0.741199 3.15901
90 3 -0.873736 2.28549 2.1322 5.11085
91 3 -0.774842 2.41982 1.33481 8.43262
92 3 -0.837672 4.87644 1.71719 5.15049
93 3 -0.823066 6.70605 0.878821 7.0882
94 3 -0.900005 0.849406 5.16931 3.35317
209 2 0.179627 1.92022 4.619 8.63529
98 3 -0.826467 2.6564 5.48962 5.37266
73 3 -0.829838 -2.28415 6.40613 4.38794
172 1 -0.678401 1.24066 5.12381 7.84424
178 1 -0.636418 3.64058 3.35112 3.17707
208 2 0.295942 1.8479 5.12379 6.89483
361 2 0.248891 -0.629753 1.64826 8.15134
210 2 0.161518 1.05584 6.28606 8.21752
225 2 0.277841 2.7284 3.91035 3.59108
226 2 0.203588 3.49862 3.00574 2.11341
227 2 0.159098 4.6531 3.9098 3.36699
301 2 0.172378 5.27236 3.31133 1.92123
99 3 -0.880022 4.296 5.34835 7.27462
31 4 1.61084 3.86614 6.28707 6.10903
296 4 0.954469 6.51432 1.7425 0.263885
96 3 -0.809867 4.41382 3.21471 8.78617
321 2 0.220866 -2.16775 4.51367 16.7148
13 4 1.23964 -0.55482 4.41518 13.9065
14 4 1.1249 -1.16745 6.51866 11.5871
26 4 1.1647 3.48188 2.00486 9.36722
68 3 -0.777169 -0.263246 2.04714 17.1853
75 3 -0.774051 -1.39787 3.26775 14.9083
76 3 -0.797355 -2.33415 6.56371 10.5157
77 3 -0.779678 -1.3391 5.61892 13.0368
100 3 -0.833197 0.825661 5.04567 14.7022
330 2 0.125195 5.82695 1.91888 15.6037
173 1 -0.666406 0.177388 3.1043 12.6845
175 1 -0.686098 0.502034 5.70481 10.9404
179 1 -0.662813 4.50367 0.351641 9.70709
180 1 -0.670453 2.75277 2.39384 11.1056
181 1 -0.653967 3.93249 3.63669 14.318
204 2 0.139914 0.302317 0.814323 14.6053
206 2 0.160572 -0.744533 3.37793 9.50525
207 2 0.248482 -1.74988 4.95401 9.31315
211 2 0.140048 -0.2534 3.11097 11.588
212 2 0.165185 -0.0299318 2.16366 13.3624
213 2 0.176055 1.22936 3.4982 12.7626
217 2 0.164326 0.779313 5.56488 9.84034
218 2 0.17104 0.466256 4.69421 11.5024
171 1 -0.672034 -1.42022 3.99521 8.84251
328 2 0.169788 4.06289 2.09993 16.5672
230 2 0.198255 5.60162 0.506477 9.84293
231 2 0.164601 3.48594 2.16979 11.9334
232 2 0.179828 1.73508 1.8098 11.1806
233 2 0.14696 2.62146 3.52465 10.9111
234 2 0.175686 4.45023 2.84712 15.0764
235 2 0.157364 3.49761 3.21331 13.3877
236 2 0.198038 3.18832 4.38989 14.8531
241 2 0.149609 3.27263 6.51834 12.6321
282 2 0.193803 3.87096 5.77328 9.62563
349 2 0.217985 -3.18559 6.13047 14.4041
303 1 -0.667762 5.44937 1.42155 12.6254
305 2 0.165028 4.61635 1.21189 13.4486
306 2 0.163985 5.07561 1.04545 11.5071
307 2 0.168387 5.82625 2.52581 12.51
312 1 -0.685668 2.3041 3.06897 16.6657
313 2 0.152959 2.5272 2.1601 16.0285
101 3 -0.833393 2.36477 6.45146 16.3052
315 2 0.256266 1.8149 3.8125 16.0551
320 1 -0.677486 -2.58182 5.51293 17.055
356 2 0.154926 4.35878 4.73428 17.5214
322 2 0.158119 -3.24287 6.00678 16.1903
327 1 -0.669604 5.04645 1.50987 16.489
314 2 0.152462 3.20187 3.45474 17.2942
329 2 0.257777 4.85298 0.432335 16.3839
219 2 0.145518 1.22375 6.43361 11.4198
33 4 1.53642 1.04784 6.48416 15.3459
302 4 1.10981 6.64569 0.167499 13.3124
4 4 1.52072 -5.53592 13.3734 7.47329
8 4 1.61162 -3.73635 6.97434 3.829
15 4 1.60077 -2.20202 8.82533 1.98909
17 4 1.59301 -3.58909 11.0951 0.414651
18 4 1.65166 -2.82905 8.89846 7.6229
20 4 1.70564 -4.09347 11.2866 5.90738
114 3 -0.823774 1.70947 9.91387 6.6731
12 4 1.6283 -1.24495 6.81108 5.55248
39 4 1.6095 1.18819 11.2174 5.75143
35 4 1.65585 -1.46112 11.0231 4.13459
37 4 1.23252 2.19377 8.71512 7.58785
78 3 -0.862205 -3.39758 8.19953 2.7627
79 3 -0.85801 -1.45267 7.51691 1.13989
80 3 -0.888525 -2.69056 9.85828 0.933244
81 3 -0.829417 -3.86859 12.2181 1.54388
82 3 -0.832352 -3.63873 7.8429 8.54645
83 3 -0.825271 -1.92039 8.02595 6.44997
84 3 -0.862598 -6.12131 12.3487 8.60657
85 3 -0.900972 -5.34789 11.1287 4.9546
86 3 -0.841012 -3.76334 10.1269 7.0804
87 3 -0.874473 -4.24951 12.6527 6.65272
95 3 -0.856217 0.23565 7.17093 4.9527
103 3 -0.879801 2.36032 7.23421 3.31403
105 3 -0.859082 -1.34698 9.78746 3.06373
106 3 -0.825221 -0.991304 12.4737 3.54638
107 3 -0.84431 -2.87598 11.3003 4.83544
109 3 -0.810744 3.03409 7.63173 6.93579
111 3 -0.854222 -1.14537 12.1179 8.42617
113 3 -0.827529 -0.307703 10.7359 5.25283
34 4 1.45602 2.75778 8.49054 2.44959
184 1 -0.650951 0.996605 9.23092 2.47054
110 3 -0.837802 -1.65736 9.50252 8.50019
243 2 0.264598 0.807398 9.11111 3.61069
244 2 0.214424 0.267429 8.58963 1.88597
245 2 0.263158 0.908788 10.3404 2.1136
248 2 0.21359 0.0920029 8.07895 7.96298
310 3 -0.848937 -6.15155 12.5591 2.85918
364 2 0.278935 -4.53064 8.38416 0.787611
25 4 1.42078 -0.06769 13.1632 7.77006
1 4 1.65297 -4.96464 13.2654 2.10408
23 4 1.5183 -0.0116403 13.1913 2.4368
357 2 0.253294 1.77714 8.99907 0.0308048
108 3 -0.797213 0.823752 12.0284 1.4092
228 2 0.263745 -3.07869 13.2603 8.74783
358 2 0.19439 -0.0804664 9.21537 0.230644
22 4 1.19842 -3.6857 10.8425 11.3588
324 2 0.187867 -6.37435 12.2904 14.2749
19 4 1.57166 -6.20575 11.1671 9.68447
38 4 1.52151 -1.23404 10.8804 9.39033
40 4 1.27258 1.95812 9.16549 13.6323
41 4 1.24001 -1.82983 11.6867 15.5924
42 4 1.2888 0.628403 11.3517 11.6576
88 3 -0.825158 -4.68796 10.8468 10.1378
325 2 0.189408 -4.57994 12.1021 14.9956
326 2 0.190466 -5.79527 13.4378 15.6852
112 3 -0.828881 -2.19394 11.0182 10.7574
116 3 -0.812766 1.33159 7.64679 14.1357
117 3 -0.788545 -0.0810081 12.0477 16.292
118 3 -0.769043 -1.87618 12.7455 14.323
119 3 -0.848459 -2.98578 11.8096 16.7237
120 3 -0.837708 0.371049 10.8222 10.1196
121 3 -0.791859 0.779296 10.2395 12.8397
122 3 -0.770257 -0.167607 12.8966 12.0947
174 1 -0.650249 -0.760704 8.31196 11.9712
176 1 -0.713378 -3.74026 9.13262 12.4014
177 1 -0.658954 -4.10427 12.4117 12.3088
185 1 -0.722366 0.661365 9.58586 17.2089
353 2 0.19916 -3.30464 13.3076 12.4538
189 1 -0.682118 -1.88167 9.98048 14.9186
214 2 0.173041 0.293254 8.21383 11.4518
215 2 0.213497 -0.739902 8.29094 13.1431
216 2 0.215294 -1.38539 9.16382 11.5634
220 2 0.171171 -2.64154 8.82797 12.3845
221 2 0.272492 -4.36307 8.44759 11.7459
222 2 0.177619 -4.18915 9.24859 13.4323
223 2 0.144103 -4.20387 11.7321 13.3156
224 2 0.209392 -5.13935 12.5983 11.8943
246 2 0.204321 0.507921 9.35311 16.1724
247 2 0.169895 0.692386 7.27232 9.63072
249 2 0.25082 0.732416 9.19311 9.45148
36 4 1.29513 0.917761 11.4031 17.2529
254 2 0.15885 2.81661 7.62754 12.0142
256 2 0.182197 -2.09533 9.3343 15.8258
257 2 0.188076 -0.710353 9.96249 14.6019
258 2 0.162169 -2.62355 9.76664 13.9612
348 2 0.198216 -3.95513 7.66317 13.7492
311 3 -0.818366 -5.29191 10.6836 17.5842
323 1 -0.653425 -5.66268 12.4031 15.1931
229 2 0.203011 -3.43933 13.3019 10.5534
186 1 -0.691657 0.865935 8.16332 8.91387
345 2 0.169141 -3.91407 7.01088 17.3728
102 3 -0.813266 -0.224853 6.87624 16.2281
2 4 1.64263 13.5515 2.25698 3.51898
360 2 0.208608 10.5127 1.12346 2.17628
351 2 0.172134 11.9679 5.31028 0.380971
44 4 1.58782 8.67067 2.0257 3.9184
280 2 0.280761 7.79841 4.07911 8.55194
46 4 1.64844 11.2437 2.34591 5.66717
48 4 1.3087 9.87797 4.61166 2.11949
51 4 1.40441 10.0479 4.64128 7.49958
97 3 -0.826781 6.2008 3.55684 6.71614
300 2 0.256275 7.2779 3.53881 1.93032
123 3 -0.869119 13.0342 1.20827 2.52741
124 3 -0.8708 8.55466 0.794922 2.97387
125 3 -0.863173 7.34252 2.31085 4.81043
126 3 -0.83826 12.4163 2.68056 4.69189
127 3 -0.864627 9.9209 1.89632 4.89968
128 3 -0.829511 11.8029 1.24758 6.69845
129 3 -0.815264 8.92739 3.49137 2.88394
130 3 -0.84787 10.5399 5.75892 3.00278
132 3 -0.825958 9.05216 5.3748 0.64697
133 3 -0.843115 10.8406 3.68166 6.58416
354 2 0.218279 8.99788 1.9085 0.729028
340 2 0.184565 5.07084 5.55953 1.5101
138 3 -0.848443 9.25448 5.66666 6.67715
277 2 0.198384 6.7152 5.9054 1.995
196 1 -0.682324 11.0338 3.52163 1.23133
197 1 -0.660595 6.41639 5.56506 3.02443
198 1 -0.683701 8.73888 3.5033 8.36105
275 2 0.237406 12.0587 3.85101 1.65435
274 2 0.17095 10.8254 2.33386 1.37132
30 4 1.5226 5.32164 4.31884 7.84705
276 2 0.23564 7.24999 5.05596 3.61923
299 2 0.160378 6.25064 4.02945 0.31115
278 2 0.166308 5.3827 5.01745 3.05519
279 2 0.199617 8.64974 2.66164 7.5907
45 4 1.21551 12.6341 0.166716 7.59715
352 2 0.217205 12.8249 3.47046 8.23477
298 1 -0.644179 6.27512 3.36589 1.26886
359 2 0.163526 10.7863 0.774718 0.283839
191 1 -0.657637 10.6457 0.337689 1.38322
273 2 0.17275 10.7926 3.89521 0.179736
131 3 -0.878838 4.9364 6.73184 5.05827
6 4 1.12925 13.8122 1.92641 15.8742
32 4 0.938439 5.13211 5.09787 13.8011
47 4 0.955368 10.6212 2.983 12.1296
284 2 0.16447 4.36299 6.72008 11.2214
54 4 1.16891 9.64842 5.49702 13.7839
135 3 -0.833488 6.3993 5.26088 8.89364
139 3 -0.762846 10.469 4.29362 13.0316
140 3 -0.789805 6.02383 5.41024 15.0615
347 1 -0.689957 10.9299 6.7956 14.4818
334 1 -0.69615 8.46899 0.47009 9.15798
145 3 -0.834871 8.58494 6.17122 12.8028
182 1 -0.66566 6.33107 4.47251 12.2715
355 2 0.206364 8.06266 0.556544 15.4256
193 1 -0.690773 11.632 2.9541 10.6029
194 1 -0.66422 8.66094 2.47082 11.6588
195 1 -0.658861 10.9827 1.51292 13.2669
183 1 -0.694441 4.21213 6.70335 13.2404
200 1 -0.672228 8.77175 4.5706 15.2171
237 2 0.159813 5.72418 3.85709 11.527
170 1 -0.692042 14.2704 0.423204 14.7677
238 2 0.190124 7.30572 3.96411 12.6569
239 2 0.27317 6.59499 5.5053 11.7889
263 2 0.166089 13.0743 1.73926 9.58851
264 2 0.152392 11.717 2.05495 9.95866
265 2 0.151281 12.6199 3.1261 11.2688
266 2 0.255724 11.3241 3.90567 10.0279
267 2 0.175716 8.38746 1.9984 12.6571
268 2 0.17452 8.59484 1.72571 10.7962
269 2 0.186583 8.12184 3.41921 11.3812
270 2 0.155597 10.3124 0.609101 13.0625
271 2 0.183247 11.1711 1.69652 14.3947
272 2 0.157955 12.0148 1.41225 12.7296
366 2 0.152507 13.841 0.533408 11.9585
285 2 0.203699 9.23782 4.8246 16.2063
286 2 0.158672 8.9246 3.40821 14.9543
287 2 0.283429 7.6512 4.93911 15.1144
304 1 -0.664193 8.00421 1.04162 14.4166
308 2 0.165204 9.09098 1.30338 14.0068
309 2 0.119158 7.29702 2.02963 14.3864
316 1 -0.662891 11.9437 1.65613 16.3129
317 2 0.164216 11.8089 0.634832 15.6886
318 2 0.175056 11.4669 2.60242 15.8529
319 2 0.188377 11.7481 1.54976 17.4205
331 1 -0.66763 8.33996 2.0582 17.3734
332 2 0.169949 8.54076 1.19175 16.6638
333 2 0.184163 8.45228 3.10203 16.8765
363 2 0.142005 11.0815 0.189807 9.69299
192 1 -0.664149 13.7726 1.10827 8.89042
281 2 0.16065 9.2943 3.22886 9.33692
52 4 1.34639 6.18847 6.73324 9.49388
362 2 0.185302 14.1516 0.0643135 9.37073
205 2 0.172356 13.8008 0.197891 13.7225
134 3 -0.81951 10.8776 5.36551 8.99305
11 4 1.56256 11.1247 6.77875 9.70705
199 1 -0.669832 4.38375 6.72943 10.0551
336 2 0.198883 7.99994 0.399915 10.1323
337 2 0.182748 8.50784 1.54648 8.86721
16 4 1.68476 8.53035 11.3244 3.90737
137 3 -0.887058 7.62788 7.06334 5.00459
43 4 1.47446 4.86904 13.3308 1.98932
49 4 1.47098 6.2352 7.13392 4.22098
50 4 1.41152 8.73444 6.85289 0.253337
53 4 1.65345 8.9255 7.12278 5.95264
57 4 1.60313 7.19626 9.05764 2.08459
58 4 1.60841 3.75131 11.0378 4.13699
60 4 1.62442 7.43543 9.02664 7.89287
61 4 1.62909 6.15433 11.1169 5.93896
262 2 0.301874 2.29661 13.0697 1.3768
252 2 0.191104 3.34341 10.5787 8.26381
343 2 0.178073 3.22775 12.4937 8.22718
115 3 -0.833908 1.01516 12.506 6.76249
161 3 -0.824145 5.6038 12.4807 6.79596
136 3 -0.81779 10.3065 7.4816 5.03884
146 3 -0.829045 6.11065 8.26517 3.07807
147 3 -0.830605 8.15243 7.90032 1.29431
148 3 -0.820433 8.29602 9.97325 3.04403
149 3 -0.816675 3.38769 9.74197 3.13062
150 3 -0.798397 4.40284 12.2558 3.09538
151 3 -0.855137 2.21657 11.5323 4.60407
153 3 -0.848647 6.51311 9.86058 0.929224
154 3 -0.832353 5.55079 12.5519 0.855357
155 3 -0.86571 6.36617 7.97384 8.48153
156 3 -0.838996 8.66523 8.22385 7.06734
158 3 -0.838805 7.10676 11.577 4.6444
159 3 -0.840039 4.75127 10.5915 5.2549
160 3 -0.905469 6.65414 9.99831 6.88355
187 1 -0.653077 3.51834 9.54338 8.77665
104 3 -0.790852 3.092 8.08276 0.886269
250 2 0.243982 4.57621 9.09743 8.69033
59 4 1.61638 6.14197 11.198 0.0242763
253 2 0.149273 2.55047 9.2737 11.1482
365 2 0.168083 10.6726 7.17205 15.5376
21 4 1.38129 8.69527 10.9379 16.2989
55 4 1.47154 6.37593 7.13855 15.6562
56 4 1.52736 8.48097 7.36561 11.7907
157 3 -0.8633 7.99538 9.85862 9.15361
62 4 1.45465 7.59928 9.28631 13.9489
63 4 1.36779 3.59208 11.081 15.6636
64 4 1.14205 6.65225 11.5184 11.7821
142 3 -0.809248 5.00438 7.41211 16.5328
143 3 -0.840927 9.9559 7.17275 10.7321
152 3 -0.843038 7.35604 11.6769 16.7962
295 2 0.164154 4.98483 13.1648 10.8395
162 3 -0.826879 6.39903 8.23432 14.3627
163 3 -0.847133 8.48514 8.73493 12.6537
164 3 -0.854755 8.61146 9.68931 15.2433
165 3 -0.842042 2.89329 10.0049 14.5961
166 3 -0.825392 4.88776 10.9076 16.5445
167 3 -0.788165 2.44968 11.6551 16.825
168 3 -0.824477 8.04378 11.7273 11.0869
169 3 -0.762304 6.81257 10.795 13.294
190 1 -0.660699 2.39335 12.1042 11.6359
201 1 -0.637472 3.81374 12.622 14.5481
202 1 -0.692311 5.61667 10.4209 10.5699
203 1 -0.680695 5.59038 13.1879 11.8592
335 2 0.176468 2.05469 13.5209 9.18516
242 2 0.20702 5.00573 7.30997 12.669
251 2 0.14813 3.01831 9.60481 9.82329
141 3 -0.852358 7.72258 6.97465 16.4737
255 2 0.189316 4.00269 9.11745 12.5333
259 2 0.180063 2.62001 12.1466 10.4931
260 2 0.159686 2.96076 11.1849 12.0829
261 2 0.16141 2.51642 13.0903 12.2146
283 2 0.190139 3.92078 7.74541 9.62003
288 2 0.168075 3.39264 12.41 13.4292
289 2 0.167345 4.97103 13.1317 14.6065
290 2 0.164718 2.98511 13.2679 15.2334
291 2 0.215187 5.91335 9.36742 10.7979
292 2 0.216104 5.79222 10.5962 9.52155
293 2 0.150374 4.60925 10.7 10.9803
294 2 0.173228 4.95002 13.096 12.8078
350 2 0.25242 6.87723 13.0413 15.4896
240 2 0.233698 3.87778 7.24672 14.1439
341 1 -0.672742 4.01255 12.8978 9.0405
342 2 0.155693 4.55029 11.9653 9.66996
344 1 -0.671323 10.2368 7.79453 17.4673
144 3 -0.838934 7.08083 7.03072 11.032
188 1 -0.669593 2.98396 8.79874 12.114
346 2 0.221407 10.0631 8.42937 16.5412
29 4 1.31467 3.61471 6.94984 17.2526
ITEM: TIMESTEP
200
ITEM: NUMBER OF ATOMS
366
ITEM: BOX BOUNDS xy xz yz pp pp pp
-7.6516000000000002e+00 1.5037200000000000e+01 -7.4931000000000001e+00
0.0000000000000000e+00 1.3615700000000000e+01 -1.5850000000000000e-01
0.0000000000000000e+00 1.7619138266666663e+01 8.0699999999999994e-02
ITEM: ATOMS id type q x y z
27 4 1.60559 6.22649 2.05486 5.84682
3 4 1.29978 1.20214 2.01255 0.433964
5 4 1.60966 0.693163 1.78316 5.6468
7 4 1.60532 0.212485 4.27004 2.18236
296 4 0.979557 6.48325 1.76807 0.246757
10 4 1.21848 -0.38821 4.42884 7.3845
339 2 0.212407 3.11018 5.50733 1.43983
24 4 1.4913 3.49354 1.85009 4.26347
297 3 -0.776334 6.53924 0.461278 1.18885
28 4 1.55461 1.32541 6.23837 4.30061
65 3 -0.828965 2.06678 0.704627 0.9192
66 3 -0.857612 -0.316509 1.7102 4.40327