ITEM: TIMESTEP
0
ITEM: NUMBER OF ATOMS
366
ITEM: BOX BOUNDS xy xz yz pp pp pp
-7.6516000000000002e+00 1.5037200000000000e+01 -7.4931000000000001e+00
0.0000000000000000e+00 1.3615700000000000e+01 -1.5850000000000000e-01
0.0000000000000000e+00 1.7607399999999998e+01 8.0699999999999994e-02
ITEM: ATOMS id type x y z
226 2 5.11907 3.771 3.29263
3 4 1.20175 2.24786 0.402997
5 4 0.791689 1.76387 5.67534
7 4 0.0198876 4.28929 2.2775
9 4 -1.00039 6.73045 0.236354
10 4 -0.0897361 4.37103 7.45063
227 2 3.51903 4.39876 4.17515
24 4 3.58455 1.94595 4.26174
93 3 6.84723 0.673128 6.811
28 4 1.50545 6.05245 4.22131
65 3 1.38459 1.04337 1.48787
66 3 -0.451748 1.66864 4.64013
67 3 0.937674 0.311548 6.35517
69 3 -1.10298 3.19347 2.44809
70 3 1.1147 3.60608 1.23797
71 3 -0.571605 5.64457 1.30862
72 3 0.393127 3.02049 6.71237
73 3 -2.17433 6.56177 4.39044
74 3 -0.652446 5.53681 6.53614
89 3 3.6585 0.879279 3.13869
90 3 2.17849 1.996 4.92163
91 3 2.44652 0.890224 8.56871
92 3 4.75247 1.86544 5.27115
338 1 3.82994 5.49766 0.300548
94 3 0.774199 4.84502 3.56399
31 4 3.94489 6.29794 6.04558
98 3 2.44295 5.46955 5.25757
99 3 4.49325 5.2216 7.10932
172 1 1.45066 4.97856 8.42565
178 1 4.01252 3.67905 3.4423
208 2 2.22665 4.61384 7.67376
361 2 -0.263254 1.42472 8.37827
210 2 1.42058 6.1262 8.56121
225 2 3.40337 3.66483 2.4449
339 2 2.80741 5.21248 0.664656
96 3 4.2884 2.94517 8.64521
171 1 -1.3897 3.6775 8.77303
297 3 7.03476 0.836707 1.16873
351 2 -3.05958 5.64984 0.4899
209 2 1.5263 4.33896 9.37755
13 4 -0.443247 4.56022 13.8522
14 4 -1.4765 6.58204 11.6098
26 4 3.55137 1.69339 9.32307
68 3 -0.0373155 2.05358 16.6572
75 3 -1.36299 3.58893 14.7923
313 2 3.25659 1.67772 17.3634
77 3 -1.56515 5.66996 12.8892
100 3 0.62874 5.49479 14.631
314 2 3.09544 3.68574 17.3937
173 1 0.57693 3.50078 12.6933
175 1 -0.0128189 5.89464 10.6354
179 1 4.968 0.308015 9.60596
180 1 2.80059 2.44079 10.9666
181 1 3.86058 3.64974 13.8474
327 1 5.69858 1.80269 16.1594
206 2 -0.834727 3.0774 9.54257
321 2 -2.19988 4.71849 17.0147
211 2 -0.0845504 3.20916 11.779
212 2 0.914144 2.63753 13.3197
213 2 1.45112 4.23504 12.3894
349 2 -3.12915 6.3373 14.4231
218 2 -0.608629 5.0255 9.96951
219 2 0.723943 5.48668 11.3684
307 2 6.03808 2.48516 12.4577
230 2 5.91911 0.856785 9.28594
231 2 3.3432 1.84065 11.7131
232 2 1.74293 2.23213 10.8444
233 2 3.0419 3.54066 10.9439
234 2 4.28893 2.90711 14.5728
235 2 3.49037 3.23788 12.7886
236 2 3.03141 4.25049 14.3053
241 2 3.49261 6.43901 12.3223
282 2 3.91515 6.01774 9.45301
207 2 -2.04393 4.50951 9.20973
303 1 5.60641 1.3865 12.4853
305 2 4.67665 1.27824 13.1392
306 2 5.3498 1.03706 11.4023
76 3 -2.63536 6.79278 10.5979
312 1 2.6878 2.60971 17.037
356 2 4.08992 4.85176 17.0977
329 2 4.5619 2.1041 16.4382
315 2 2.50081 2.61509 15.8993
320 1 -2.58987 5.71522 17.1456
330 2 5.76002 0.714896 15.8137
322 2 -3.11013 6.19572 16.1272
217 2 0.450186 6.71582 9.95496
101 3 2.42484 6.83847 15.9702
6 4 -1.20869 2.05362 15.5954
204 2 0.0547998 0.183996 14.5286
4 4 -5.64483 13.1274 7.54459
8 4 -3.57941 7.04108 3.72479
15 4 -2.31891 9.26923 1.95374
17 4 -3.98768 11.3777 0.200743
18 4 -2.54679 8.77451 7.73096
20 4 -3.93509 11.1399 5.86304
358 2 -0.141927 9.2817 0.269118
310 3 -5.81747 12.5555 3.3135
1 4 -5.07327 13.4875 2.25156
35 4 -1.40961 11.3588 4.00862
34 4 2.71985 8.34954 2.43428
78 3 -3.3332 8.34512 2.78389
79 3 -1.55528 8.08244 0.941947
80 3 -3.08957 10.3387 0.969512
81 3 -4.28911 12.7198 1.08973
82 3 -3.61415 7.88843 8.39893
83 3 -1.62234 7.93026 6.57574
84 3 -6.40881 12.1349 8.44579
85 3 -5.21276 10.7706 4.95055
86 3 -3.30339 10.0186 6.85409
87 3 -4.36279 12.3962 6.82492
95 3 0.321954 7.29107 4.84495
357 2 1.66312 9.13455 0.0334211
105 3 -1.36078 9.90695 2.99573
106 3 -0.970456 12.6231 3.10283
107 3 -2.72731 11.4951 4.90998
12 4 -1.09142 6.83596 5.53525
111 3 -0.754864 12.0294 8.49582
113 3 -0.181914 11.0664 5.11279
114 3 1.88703 9.89705 6.5168
184 1 1.10274 9.28421 2.73605
37 4 2.57609 8.79577 7.42212
243 2 1.00528 9.41744 3.84551
244 2 0.343684 8.53483 2.33703
245 2 1.02594 10.3515 2.16442
248 2 0.525709 7.69775 8.26177
23 4 0.101541 13.2909 2.22428
103 3 2.51228 6.97805 3.08501
108 3 0.885929 11.9551 1.27405
25 4 0.14061 13.1627 7.6714
364 2 -4.62569 8.47636 0.68275
22 4 -3.81405 11.1079 11.3089
326 2 -6.11268 13.3544 15.4151
33 4 0.91658 6.9282 15.468
38 4 -1.08342 10.8557 9.46088
40 4 1.71816 9.27278 13.7457
41 4 -2.09749 11.5924 15.605
42 4 0.82812 11.4851 11.729
88 3 -4.93812 10.8876 10.2935
228 2 -2.84244 13.0182 8.86908
348 2 -4.01298 7.95334 13.833
112 3 -2.36595 11.159 10.6989
116 3 0.70666 8.21434 14.2772
117 3 -0.921434 11.9452 16.6086
118 3 -1.72727 12.5301 14.062
119 3 -3.50292 11.9888 16.3894
120 3 0.359688 10.6559 10.3579
121 3 0.87481 10.5019 12.9789
122 3 0.00513611 12.8858 12.1584
174 1 -1.07383 8.31296 12.2854
176 1 -3.97784 9.6548 12.652
177 1 -4.14956 12.7612 12.0902
185 1 0.556908 9.75059 17.2726
253 2 1.81105 8.87116 11.2643
189 1 -2.13684 9.78351 15.081
214 2 0.0791389 8.14771 12.1404
215 2 -1.32064 8.55792 13.3658
216 2 -1.44408 9.1174 11.5377
220 2 -3.01322 8.99363 12.4827
221 2 -5.00609 9.16886 12.5258
222 2 -3.98772 10.5225 13.443
223 2 -4.81893 12.698 13.1482
110 3 -1.47041 9.40092 8.8371
246 2 0.299312 9.55786 16.2341
247 2 1.94099 7.42334 9.55984
249 2 0.912127 9.17648 9.45257
325 2 -4.74759 12.5211 14.5907
254 2 2.38763 7.40253 12.2906
256 2 -1.58538 9.23237 15.8697
257 2 -1.617 9.72952 14.0882
258 2 -3.22962 9.4682 15.0387
229 2 -2.51891 13.3917 10.6944
311 3 -5.59617 10.8015 17.2553
323 1 -5.83583 12.4903 14.8214
324 2 -6.50721 12.2865 13.9271
224 2 -4.85085 13.0919 11.2361
186 1 1.31887 8.18195 8.87184
36 4 0.635026 11.6709 17.3449
102 3 -0.210952 7.02271 16.6143
188 1 2.39566 8.53828 12.1778
353 2 -3.28582 13.46 12.2783
302 4 -0.80045 13.5875 13.3276
2 4 13.3638 2.12619 3.75061
30 4 5.24266 4.10395 7.88749
277 2 5.97769 6.53221 1.62414
44 4 8.72887 2.06277 4.08728
352 2 12.998 2.94604 8.15076
46 4 11.2254 2.48669 5.82193
48 4 9.86206 4.46825 2.04678
51 4 10.0474 4.70275 7.7908
97 3 6.37463 3.32811 7.02614
335 2 9.34637 1.2735 8.58618
123 3 12.7579 0.839603 3.0414
124 3 8.65198 0.702125 3.18382
125 3 7.23101 2.48517 4.72242
126 3 12.2069 2.90413 4.6386
127 3 9.80854 1.9233 5.20066
128 3 12.0869 1.39405 6.85579
129 3 9.20392 3.39754 3.00685
130 3 10.7789 5.84538 2.84952
132 3 8.92126 5.21335 0.87518
133 3 11.0217 3.70788 6.92163
301 2 5.50865 4.10136 0.757812
137 3 7.95807 6.39909 4.7556
138 3 9.28813 5.77202 6.81165
273 2 10.8557 3.67164 0.0487635
196 1 11.1604 3.50277 1.13893
197 1 6.0962 5.87882 2.57164
198 1 8.64053 3.6195 8.62007
131 3 5.06527 6.64787 5.03622
274 2 11.3687 2.40591 1.43319
275 2 12.0659 4.19277 1.50742
276 2 7.1151 5.38446 2.64282
360 2 10.6741 1.21022 1.49021
278 2 5.15969 5.09496 2.81546
279 2 8.61393 2.74147 7.88945
45 4 12.7882 0.224893 7.66291
296 4 7.01333 2.0115 0.108938
298 1 6.46824 3.59003 0.934361
299 2 7.43108 4.31895 0.873629
300 2 6.31823 3.02807 1.91024
340 2 4.65692 5.69402 1.20296
354 2 9.48906 2.62477 0.253865
191 1 10.8907 0.12989 1.05249
27 4 6.35346 2.13046 5.96986
359 2 11.2659 0.132716 0.0105068
334 1 8.5894 0.546884 9.08284
32 4 5.15427 5.08428 13.7706
47 4 10.7909 2.85233 12.3334
52 4 6.29435 6.53047 9.39051
54 4 9.85031 5.5757 13.7846
135 3 6.0867 4.92901 9.21918
139 3 10.672 4.27168 13.2315
140 3 5.90772 5.43264 15.0849
170 1 14.0578 0.641704 14.2551
355 2 7.91049 0.569692 15.5863
145 3 8.8905 6.2699 12.6487
182 1 6.44393 4.44567 12.3911
192 1 14.034 0.841825 9.02173
193 1 12.1361 2.87016 11.0758
194 1 8.92697 2.51353 11.7402
195 1 10.9703 1.24637 13.5085
363 2 11.2829 0.187776 9.54679
200 1 8.76597 4.73634 15.0649
328 2 6.10572 2.51133 15.3626
134 3 10.765 5.39996 8.97478
238 2 7.22232 3.8476 12.9109
239 2 6.90708 5.37767 11.8822
263 2 13.3128 1.48354 9.7637
264 2 11.3079 3.16393 10.1936
265 2 12.6628 1.80696 10.8875
337 2 7.72329 1.16069 9.56847
267 2 8.51826 1.84858 12.7314
268 2 8.87435 1.84692 10.6958
269 2 8.36173 3.50408 11.7128
270 2 10.4005 0.483906 12.9206
271 2 10.5457 1.49311 14.541
272 2 12.1217 1.01576 13.6673
281 2 9.12619 3.36017 9.59305
285 2 9.2821 5.26013 15.9587
286 2 8.95437 3.58989 15.0341
287 2 7.61364 4.99652 15.0078
304 1 7.98159 0.941826 14.4345
308 2 9.07879 1.05231 14.0695
309 2 7.41403 1.97015 14.3559
316 1 12.1109 1.94483 16.376
317 2 11.3009 1.33661 15.8497
318 2 11.8774 3.05085 16.4513
183 1 4.26493 6.72595 13.1019
331 1 8.59274 2.26792 17.0015
332 2 8.90972 1.27918 16.6135
333 2 8.40431 3.06449 16.2156
237 2 5.9101 3.83616 11.5659
319 2 12.5334 1.45042 17.3737
205 2 14.0812 1.09184 13.2146
144 3 7.2736 6.75245 10.68
266 2 12.7537 3.70231 11.5434
366 2 13.7933 0.0713628 11.4252
280 2 7.5895 4.11459 8.87087
53 4 9.12814 6.93007 5.68422
157 3 8.32025 9.46131 8.78097
43 4 4.92698 13.035 2.12384
49 4 6.29845 6.95061 4.10487
50 4 8.49939 6.99343 0.258759
39 4 1.31965 11.1937 5.67266
57 4 7.29634 9.13391 2.17681
58 4 3.77062 10.7908 4.02077
60 4 7.48974 8.78703 7.58432
61 4 6.14483 11.1964 5.99844
252 2 4.0536 10.8386 8.32019
341 1 3.84174 12.8925 8.71759
343 2 2.86594 12.8416 8.08447
115 3 1.32861 12.4667 6.90738
104 3 2.96353 8.25472 0.821439
136 3 10.4457 7.27385 4.85621
146 3 6.41418 8.57591 3.46734
147 3 7.94451 7.84428 1.39179
148 3 8.37515 10.1067 2.7484
149 3 3.76781 9.29566 3.2805
150 3 4.39537 11.8719 2.97265
151 3 2.36541 11.4034 4.47634
153 3 6.43984 9.89844 1.12762
154 3 6.01232 12.6534 1.02623
155 3 6.59369 7.48707 8.12425
156 3 8.52557 8.30032 6.29
158 3 7.30208 11.3995 4.83369
159 3 4.8085 10.808 5.28873
160 3 6.62535 10.003 6.94032
161 3 5.77137 12.5343 6.81254
187 1 3.87585 9.64398 8.53293
16 4 8.66794 11.2543 3.97723
250 2 4.85697 9.03192 8.43153
109 3 3.31791 7.58822 6.81042
262 2 2.57114 12.9933 1.2266
59 4 6.07094 11.1787 0.0962443
19 4 8.67652 10.8547 9.49949
21 4 8.48386 10.9643 15.9592
365 2 10.6973 7.27912 15.619
55 4 6.22455 7.15778 15.6885
56 4 8.55976 7.34879 11.5039
347 1 11.0008 6.98899 14.5153
62 4 7.52882 9.18112 13.7515
63 4 3.21205 11.1709 15.9066
64 4 6.33406 11.0804 11.7756
142 3 4.97012 7.55953 16.5798
143 3 9.80546 7.57033 10.5323
152 3 7.00855 11.193 16.5003
29 4 3.46022 7.27695 17.0508
162 3 6.52844 8.08274 14.3832
163 3 8.21534 8.79327 12.3949
164 3 8.55403 9.76219 14.9066
165 3 2.7272 9.98857 14.9799
166 3 4.45966 11.0387 16.9469
167 3 2.02379 12.0316 16.5234
168 3 7.56406 11.1805 10.6767
169 3 6.61377 10.8276 13.2683
190 1 2.55545 12.2765 11.3312
201 1 4.15024 12.2 14.5778
202 1 5.34115 9.52643 11.1986
203 1 5.45891 12.8541 11.445
261 2 2.64812 13.3971 11.3026
242 2 5.05141 7.44954 12.6013
251 2 3.32884 9.54887 9.56303
295 2 4.90415 12.8089 10.4408
255 2 3.51089 8.99964 11.9828
259 2 2.56565 11.7275 10.2196
260 2 3.40572 11.8189 11.9267
284 2 4.3865 6.92849 11.0495
283 2 4.21534 7.92261 9.45046
288 2 3.2969 12.124 13.8164
289 2 5.08719 11.5982 14.2629
290 2 4.29013 13.2592 14.9117
291 2 5.24812 8.71683 12.1254
292 2 5.74779 9.01552 10.2505
293 2 4.40252 10.1986 10.9418
294 2 4.82241 12.9603 12.3761
362 2 7.04564 13.4832 9.51202
346 2 9.71378 8.34106 16.4026
141 3 7.51459 7.09974 16.5264
342 2 4.26273 11.871 9.1618
11 4 10.9874 6.97918 9.64208
336 2 1.60058 13.3672 9.86625
350 2 5.74644 13.3738 14.3902
240 2 3.81768 7.1328 14.082
345 2 10.8892 6.97705 17.3404
199 1 4.47977 6.8869 9.91242
344 1 9.99413 7.83158 17.4069
ITEM: TIMESTEP
100
ITEM: NUMBER OF ATOMS
366
ITEM: BOX BOUNDS xy xz yz pp pp pp
-7.6516000000000002e+00 1.5037200000000000e+01 -7.4931000000000001e+00
0.0000000000000000e+00 1.3622507850000000e+01 -1.5850000000000000e-01
0.0000000000000000e+00 1.7607399999999998e+01 8.0740349999999239e-02
ITEM: ATOMS id type x y z
226 2 5.21599 3.56627 3.38618
3 4 1.23256 2.16528 0.392384
5 4 0.689998 1.81296 5.68623
7 4 0.0124056 4.33232 2.06972
9 4 -1.07006 6.73407 0.279139
10 4 -0.0479014 4.37241 7.31448
227 2 3.58241 4.45231 4.07313
24 4 3.7579 1.92375 4.2575
93 3 6.85822 0.846723 6.92207
28 4 1.47961 6.11847 4.08315
65 3 1.52724 0.989602 1.41043
66 3 -0.335796 1.82154 4.53426
67 3 0.97439 0.40548 6.49787
69 3 -1.07159 3.30722 2.51096
70 3 1.13514 3.62561 1.09733
71 3 -0.615889 5.64397 1.25908
72 3 0.337295 2.94612 6.78543
73 3 -2.11764 6.50905 4.30653
74 3 -0.697508 5.57885 6.41965
89 3 3.57695 0.95058 3.07313
90 3 2.16977 2.19296 4.99619
91 3 2.39309 0.933418 8.65606
92 3 4.95329 1.78265 5.26027
338 1 4.10252 5.36762 0.216673
94 3 0.744281 4.92013 3.45398
31 4 3.85732 6.22253 6.0653
98 3 2.74346 5.54478 5.1457
99 3 4.52471 5.2045 7.13318
172 1 1.45928 4.95974 8.34906
178 1 4.04123 3.62841 3.39413
208 2 2.40982 4.63432 7.83429
361 2 -0.355937 1.48515 8.20803
210 2 1.41339 6.27819 8.43377
225 2 3.50443 3.56077 2.39252
339 2 3.05113 5.03459 0.664571
96 3 4.15713 3.08066 8.54767
171 1 -1.53294 3.94661 8.54698
297 3 6.89577 0.66605 1.057
207 2 -2.04125 4.89953 8.74912
228 2 4.9443 0.124386 8.50135
351 2 -3.22782 5.86712 0.377629
209 2 1.30928 4.44904 9.42993
13 4 -0.472276 4.65851 13.9026
14 4 -1.64321 6.56085 11.6416
26 4 3.51646 1.83481 9.26959
68 3 -0.149728 1.98856 16.9024
75 3 -1.02681 3.50798 14.9282
204 2 0.0965805 0.0970014 14.5985
77 3 -1.48558 5.55932 12.7992
100 3 0.537375 5.59667 14.649
314 2 3.25602 3.56104 17.3816
173 1 0.550235 3.56387 12.6949
175 1 -0.156844 5.92884 10.5948
179 1 4.97181 0.578781 9.5751
180 1 2.64963 2.55784 10.9642
181 1 3.90193 3.59475 13.8247
327 1 5.78389 1.83125 16.1561
206 2 -1.26158 3.47423 9.53031
321 2 -2.40414 4.66296 16.8587
211 2 0.0520287 3.57201 11.6942
212 2 0.671699 2.50346 13.1017
213 2 1.55231 4.15815 12.7879
349 2 -3.0555 6.50514 14.3455
218 2 -0.66356 5.17398 9.86528
219 2 0.546428 5.42374 11.3108
307 2 5.95385 2.44912 12.6273
230 2 5.88172 1.18891 9.76375
231 2 3.16879 1.97141 11.7384
232 2 1.52826 2.22102 10.8281
233 2 2.78882 3.67673 10.9956
234 2 4.47631 2.67753 14.3351
235 2 3.42686 3.29373 12.7689
236 2 3.14998 4.04539 14.5377
241 2 3.34822 6.42721 12.3044
282 2 3.94335 6.21129 9.33418
6 4 -1.20678 2.09105 15.5858
303 1 5.58002 1.33415 12.605
305 2 4.73262 1.02316 13.2853
306 2 5.31768 1.04017 11.4621
76 3 -2.8838 6.72332 10.6851
312 1 2.75864 2.44194 17.0934
356 2 4.33573 4.90385 16.8707
329 2 4.69937 2.01491 16.5213
315 2 2.48369 2.36812 15.9989
320 1 -2.64876 5.80004 17.073
330 2 5.81715 0.837892 15.6362
322 2 -3.05598 6.21455 16.047
313 2 3.34364 1.60285 17.4816
217 2 0.378082 6.79307 10.003
4 4 -5.58057 13.2288 7.60251
8 4 -3.62455 6.98688 3.70791
15 4 -2.4225 9.26423 2.04086
17 4 -4.04783 11.3518 0.208114
18 4 -2.3568 8.84196 7.55672
20 4 -3.82224 11.2464 5.91682
358 2 -0.194258 9.34454 0.213972
310 3 -5.95438 12.6258 3.29963
1 4 -4.98221 13.4774 2.27381
35 4 -1.37121 11.3267 4.04492
34 4 2.62852 8.30866 2.46921
78 3 -3.44567 8.36134 2.9111
79 3 -1.68478 8.17344 0.924677
80 3 -3.25674 10.3029 1.06685
81 3 -4.37159 12.6189 1.1449
82 3 -3.38997 7.84315 8.37799
83 3 -1.54235 8.03956 6.45253
84 3 -6.23993 12.093 8.43912
85 3 -5.27892 10.7688 5.19938
86 3 -3.23895 10.1422 6.92162
87 3 -4.24683 12.5952 6.87274
95 3 0.459898 7.15233 4.70749
357 2 1.68727 9.20001 0.188048
105 3 -1.33929 10.0851 2.91717
106 3 -1.06391 12.6536 3.06483
107 3 -2.79183 11.5101 4.77116
12 4 -1.14441 6.80234 5.51559
111 3 -0.9752 12.0072 8.39818
113 3 -0.231821 11.0436 5.18918
114 3 1.77309 9.90163 6.55154
184 1 0.969322 9.14719 2.50394
37 4 2.52092 8.87257 7.45086
243 2 0.788756 9.07562 3.63111
244 2 0.2493 8.4665 1.94577
245 2 0.997619 10.2338 2.12822
248 2 0.390199 7.75326 8.35814
23 4 0.03877 13.4224 2.32528
103 3 2.48733 6.85188 2.95653
110 3 -1.28926 9.36926 8.69909
25 4 0.182244 13.0628 7.76033
39 4 1.25627 11.1477 5.70874
364 2 -4.80105 8.70665 0.497351
22 4 -3.80093 10.9642 11.352
326 2 -6.03057 13.4486 15.73
33 4 0.84124 6.96307 15.4929
38 4 -1.07423 10.778 9.42231
40 4 1.71279 9.21814 13.7485
41 4 -1.9495 11.5712 15.6444
42 4 0.807688 11.4569 11.7172
88 3 -4.90438 10.7694 10.2986
302 4 -0.748217 13.5595 13.2918
348 2 -4.17129 7.87477 13.7714
112 3 -2.26305 10.8408 10.5856
116 3 0.664388 8.26174 14.4021
117 3 -0.783775 11.9248 16.7089
118 3 -1.86006 12.4802 14.3143
119 3 -3.30124 11.8896 16.5048
120 3 0.540576 10.7378 10.2793
121 3 0.937278 10.5951 13.083
122 3 -0.114123 12.8572 11.9869
174 1 -1.07322 8.29841 12.1595
176 1 -3.96275 9.60887 12.6592
177 1 -4.25683 12.669 12.0899
185 1 0.579179 9.77717 17.277
253 2 1.65267 8.76397 11.4147
189 1 -1.91627 9.74843 15.3266
214 2 0.0677398 7.98484 11.9565
215 2 -1.19256 8.62111 13.2682
216 2 -1.40389 9.05916 11.4527
220 2 -2.91052 9.01239 12.6086
221 2 -4.92179 9.07197 12.5753
222 2 -3.95585 10.3901 13.4891
223 2 -4.78579 12.5445 13.1581
101 3 2.46763 6.87152 16.0731
246 2 0.561453 9.49563 16.1891
247 2 1.87511 7.52643 9.50369
249 2 0.951368 9.23808 9.43275
325 2 -4.75389 12.3954 14.8752
254 2 2.321 7.27291 12.3411
256 2 -1.47193 9.18724 16.2224
257 2 -1.35892 9.58913 14.3321
258 2 -3.02481 9.50592 15.2685
229 2 -2.78095 13.3586 10.367
311 3 -5.55323 10.852 17.2098
323 1 -5.80684 12.581 15.0467
324 2 -6.39221 12.606 14.0827
224 2 -4.95968 12.8959 11.249
186 1 1.31492 8.22732 8.87719
36 4 0.676433 11.6708 17.4578
102 3 -0.263367 7.14772 16.6432
188 1 2.37401 8.44062 12.1803
353 2 -3.4424 13.4984 12.2576
345 2 -4.077 7.21712 17.2942
240 2 3.61044 6.85827 14.1074
2 4 13.4292 2.18786 3.59386
30 4 5.30847 4.08965 7.92375
27 4 6.46816 2.09562 5.97798
44 4 8.83992 2.04059 3.95701
352 2 12.9141 3.27697 7.86353
46 4 11.3033 2.4268 5.77725
48 4 9.85047 4.62671 2.07937
51 4 10.0768 4.67112 7.78368
97 3 6.35228 3.43346 6.80859
280 2 7.85771 4.18033 8.74419
123 3 12.8708 0.827424 2.79635
124 3 8.5275 0.666186 3.22172
125 3 7.44646 2.44673 4.7789
126 3 12.2013 2.78934 4.49246
127 3 9.91402 1.82725 5.22921
128 3 12.1617 1.30553 6.70521
129 3 9.14668 3.33549 2.91965
130 3 10.794 5.70608 2.76573
132 3 9.01632 5.32038 0.904411
133 3 11.0314 3.61242 6.87914
301 2 5.69357 4.19116 0.658212
137 3 7.84591 6.39253 4.72377
138 3 9.33591 5.78882 6.8043
359 2 11.0347 0.455671 0.134918
196 1 11.1121 3.6574 0.981516
197 1 6.15506 6.05905 2.63051
198 1 8.80729 3.50269 8.66019
131 3 5.16725 6.73546 5.19561
274 2 11.16 2.53636 1.23587
275 2 12.0814 4.19524 1.38351
276 2 7.26575 5.77701 2.38782
360 2 10.4518 1.32545 1.71047
278 2 5.37532 5.13365 2.91179
279 2 8.56414 2.70615 7.87777
45 4 12.792 0.158203 7.53579
296 4 7.04262 1.93795 0.0836856
298 1 6.65439 3.55254 0.946975
299 2 7.61301 4.2179 0.878111
300 2 6.5729 3.00041 1.94681
340 2 4.91107 5.54671 1.15194
354 2 9.58275 2.67716 0.0169383
191 1 10.7366 0.329446 1.21131
277 2 5.74716 6.77366 1.92152
335 2 9.19516 1.1893 8.79484
334 1 8.51129 0.373685 9.26053
32 4 5.10642 5.14529 13.7086
47 4 10.8981 2.83807 12.3928
52 4 6.29951 6.52759 9.37264
54 4 10.0458 5.57596 13.6966
135 3 6.27626 4.88902 9.09779
139 3 10.7966 4.21513 13.1886
140 3 5.87014 5.52259 15.014
170 1 14.1342 0.730898 14.2388
355 2 7.91708 0.692371 15.4507
145 3 9.06889 6.15933 12.5837
182 1 6.43447 4.41207 12.3847
192 1 14.0333 0.849481 8.90284
193 1 12.1497 2.83071 11.0077
194 1 9.03201 2.37718 11.654
195 1 11.0633 1.27448 13.532
205 2 14.2433 1.18657 13.1708
200 1 8.81772 5.00186 15.1267
266 2 12.8833 3.65139 11.1067
134 3 10.5096 5.40893 9.11064
238 2 7.25564 3.82247 12.9039
239 2 6.81417 5.27581 11.7802
263 2 13.5008 1.44334 9.77888
264 2 11.258 3.0548 10.2234
265 2 12.683 1.84781 10.8706
337 2 7.6473 0.771379 9.86848
267 2 8.4814 1.97366 12.5858
268 2 8.92078 1.66804 10.833
269 2 8.6286 3.41008 11.462
270 2 10.6595 0.40092 12.9358
271 2 10.5905 1.46333 14.5269
272 2 12.2364 1.08166 13.7579
281 2 8.98933 3.11422 9.71407
285 2 9.34048 5.71013 15.8319
286 2 9.03145 3.85954 15.3472
287 2 7.66411 5.17368 15.004
304 1 7.95339 0.979507 14.3496
308 2 9.073 1.01151 13.9552
309 2 7.35277 1.97632 14.1164
316 1 12.0536 1.97901 16.1375
317 2 11.2955 1.19632 15.6666
318 2 11.7603 3.06454 15.8535
183 1 4.16112 6.69306 13.0854
331 1 8.63956 2.20751 16.9666
332 2 9.03047 1.09819 16.939
333 2 8.71006 2.6534 15.9218
237 2 5.83393 3.79547 11.6833
319 2 12.283 1.81532 17.2565
328 2 6.05116 2.65728 15.3917
363 2 11.1042 0.192895 9.32071
273 2 10.585 4.03603 17.5611
53 4 9.09534 6.89816 5.71669
157 3 8.34946 9.60042 8.68629
43 4 4.85206 13.1491 1.97829
49 4 6.42681 7.03058 4.28382
50 4 8.57607 7.04831 0.26983
109 3 3.32222 7.53266 6.79544
57 4 7.35271 9.20291 2.28924
58 4 3.72281 10.8888 3.97155
60 4 7.56064 8.9539 7.49851
61 4 6.19475 11.1967 5.88833
252 2 4.05776 10.9509 8.28225
341 1 3.88781 12.9558 8.64256
343 2 2.91422 12.6657 7.91949
115 3 1.46713 12.5118 7.04548
104 3 3.02628 8.18616 0.852074
136 3 10.4141 7.13223 4.85156
146 3 6.56131 8.48191 3.55835
147 3 7.95365 7.91135 1.46992
148 3 8.50454 10.0826 2.88362
149 3 3.58951 9.50424 3.30836
150 3 4.27003 11.8987 2.85174
151 3 2.26944 11.4441 4.50358
153 3 6.43582 9.97608 1.25493
154 3 5.9308 12.5266 0.904625
155 3 6.73285 7.50446 8.248
156 3 8.52631 8.26848 6.4086
158 3 7.3026 11.5284 4.71602
159 3 4.78811 10.7962 5.18727
160 3 6.43976 9.94054 6.86889
161 3 6.02527 12.5218 6.79764
187 1 3.94069 9.7983 8.4533
16 4 8.7517 11.2704 4.07097
250 2 4.89481 9.31751 8.45716
59 4 6.10848 11.1475 0.0989531
262 2 2.36058 13.1798 1.37316
108 3 1.02668 11.9966 1.52514
19 4 8.69504 10.8337 9.51281
21 4 8.47878 11.0006 16.0557
365 2 10.659 7.33856 15.5139
55 4 6.25194 7.22146 15.6497
56 4 8.58924 7.30517 11.5146
344 1 10.0129 7.98133 17.3242
62 4 7.4347 9.23501 13.8688
63 4 3.31519 11.0762 15.8832
64 4 6.32881 11.1191 11.6716
142 3 5.01321 7.68029 16.5748
143 3 9.81928 7.67241 10.5097
152 3 6.99125 11.4146 16.4807
29 4 3.60378 7.17532 17.1299
162 3 6.2377 8.28044 14.3398
163 3 8.19149 8.51562 12.6065
164 3 8.58312 9.75861 14.9138
165 3 2.96948 9.85243 14.9065
166 3 4.32327 10.8714 17.0743
167 3 1.81835 12.084 16.5332
168 3 7.48842 11.1046 10.5638
169 3 6.64193 10.8608 13.2315
190 1 2.61444 12.0568 11.4204
201 1 4.29381 12.1542 14.66
202 1 5.28829 9.55738 11.1949
203 1 5.68721 12.957 11.3471
261 2 2.65831 13.2319 11.6209
242 2 4.84365 7.61275 12.8551
251 2 3.26137 9.5828 9.44973
295 2 4.99914 12.973 10.3218
255 2 3.51143 8.89641 11.8849
259 2 2.75861 11.7019 10.275
260 2 3.32544 11.5205 12.1494
284 2 4.40757 6.9312 11.083
283 2 4.26714 8.04431 9.4099
288 2 3.45191 12.3212 13.856
289 2 5.2462 11.6669 14.2926
290 2 4.51109 13.0338 15.3961
291 2 5.21281 8.81849 12.1337
292 2 5.69138 9.04417 10.2176
293 2 4.31409 10.22 11.0065
294 2 5.08463 13.1991 12.2838
362 2 7.02886 13.4918 9.33576
346 2 9.76323 8.42401 16.2659
141 3 7.62172 7.06996 16.5038
342 2 4.21956 12.0339 9.24486
11 4 10.9633 6.94632 9.68363
336 2 1.5944 13.1908 10.0216
350 2 5.69735 13.5101 14.3623
144 3 7.30245 6.86329 10.794
347 1 10.999 7.00297 14.4528
199 1 4.57512 7.00383 9.89194
366 2 6.63637 13.5158 11.2281
ITEM: TIMESTEP
200
ITEM: NUMBER OF ATOMS
366
ITEM: BOX BOUNDS xy xz yz pp pp pp
-7.6516000000000002e+00 1.5037200000000000e+01 -7.4931000000000001e+00
0.0000000000000000e+00 1.3629315700000001e+01 -1.5850000000000000e-01
0.0000000000000000e+00 1.7607399999999998e+01 8.0780700000000039e-02
ITEM: ATOMS id type x y z
226 2 5.2766 3.63954 3.5788
3 4 1.20342 2.17035 0.384451
5 4 0.864751 1.7769 5.59632
7 4 0.0784976 4.40795 2.08325
228 2 4.99389 0.362772 8.42131
10 4 -0.184558 4.38398 7.34475
227 2 3.65678 4.49987 3.79267
24 4 3.76584 1.95125 4.25295
171 1 -1.56916 3.94862 8.63207
28 4 1.59177 6.07873 4.13677
65 3 1.30715 1.02609 1.45814
66 3 -0.082407 1.80148 4.32276
67 3 0.925629 0.332802 6.35246
69 3 -1.17839 3.31851 2.354
70 3 1.16733 3.65714 1.11587
71 3 -0.495337 5.73597 1.31698
72 3 0.374871 3.08439 6.54507
73 3 -2.07678 6.48736 4.29716
74 3 -0.670967 5.66059 6.42665
89 3 3.60785 0.981235 3.06928
90 3 2.39352 2.26298 5.11614
91 3 2.36324 1.05284 8.55532
92 3 5.14178 1.57529 5.35014
338 1 4.01649 5.26234 0.331587
94 3 0.897343 4.80268 3.47827
31 4 3.90715 6.29487 6.04224
98 3 2.669 5.63473 5.21047
99 3 4.35761 5.2957 7.18257
172 1 1.31194 4.908 8.35301
178 1 4.13091 3.58518 3.32534
208 2 2.12424 4.58469 7.67845
361 2 -0.331381 1.44605 8.0124
210 2 1.275 6.15222 8.46321
225 2 3.96055 3.4887 2.17772
339 2 2.97685 4.8571 0.637568
96 3 4.20836 3.21277 8.52696
207 2 -2.38032 4.77765 8.48153
9 4 -1.12386 6.72972 0.258563
93 3 7.0226 0.791353 6.94631
209 2 1.2617 4.38545 9.36597
13 4 -0.401379 4.64765 13.9365
14 4 -1.61658 6.61543 11.7259
26 4 3.44384 1.96913 9.43822
68 3 -0.238619 2.04054 16.8965
75 3 -1.16804 3.51277 14.8646
204 2 0.105893 0.174794 14.6338
77 3 -1.37665 5.53077 12.942
100 3 0.698975 5.61076 14.5576
314 2 3.21891 3.49588 17.3495
173 1 0.757968 3.71083 12.7626
175 1 -0.18056 5.91122 10.6637
179 1 4.914 0.643674 9.54598
180 1 2.83506 2.53798 11.1501
181 1 3.78898 3.65952 14.1505
327 1 5.75947 1.83618 16.1301
206 2 -1.36552 3.65517 9.74541
321 2 -2.30539 4.72229 16.9704
211 2 0.446737 4.00694 11.6172
212 2 0.768637 2.56637 13.0365
213 2 1.76958 4.24342 13.0873
349 2 -3.07066 6.21732 14.3772
218 2 -0.667124 5.13041 9.9807
219 2 0.515486 5.35818 11.4799
307 2 5.88459 2.47009 12.6152
230 2 5.79644 1.24636 9.85647
231 2 2.73979 1.64779 11.8506
232 2 1.8854 2.96453 10.8864
233 2 3.61078 3.34164 11.5554
234 2 4.29621 3.06328 15.0044
235 2 3.46657 3.03604 13.2728
236 2 2.98266 4.41697 14.5272
241 2 3.18807 6.29524 12.2542
282 2 3.81846 6.08599 9.28341
313 2 3.14078 1.39204 17.3224
303 1 5.41402 1.41503 12.6323
305 2 4.48207 1.47578 13.2415
306 2 5.18112 1.08144 11.4932
76 3 -2.84292 6.69144 10.7815
312 1 2.67565 2.36136 16.9204
356 2 4.30294 4.76703 17.0936
329 2 4.64436 2.00795 16.4003
315 2 2.46391 2.36857 15.8643
320 1 -2.70811 5.80861 17.0993
330 2 5.84457 0.838886 15.613
322 2 -3.1552 6.23842 16.0788
217 2 0.372401 6.80171 10.052
205 2 -0.72949 1.22505 13.3511
4 4 -5.45468 13.3397 7.49416
8 4 -3.59781 6.87182 3.73225
15 4 -2.44627 9.1648 2.03273
17 4 -4.03757 11.3523 0.288082
18 4 -2.39353 8.82405 7.56218
20 4 -3.83336 11.2101 5.97063
358 2 -0.255291 9.26223 0.285122
310 3 -5.8098 12.7464 3.43964
1 4 -5.12595 13.5495 2.28208
35 4 -1.38343 11.2947 4.0134
34 4 2.60214 8.32705 2.34833
78 3 -3.51191 8.29631 2.84097
79 3 -1.65937 8.20716 0.837261
80 3 -3.20151 10.2936 1.1534
81 3 -4.41041 12.6004 1.30829
82 3 -3.4648 7.75241 8.31624
83 3 -1.77132 8.06939 6.36127
84 3 -6.11981 12.277 8.5197
85 3 -5.2832 10.8654 5.28712
86 3 -3.31429 10.1095 6.97057
87 3 -4.05947 12.6696 6.92187
95 3 0.385706 7.34006 4.77147
39 4 1.23147 11.1287 5.71078
105 3 -1.4458 9.83093 3.01376
106 3 -1.10941 12.6299 3.07767
107 3 -2.76524 11.4167 4.81882
12 4 -1.03264 6.95904 5.47751
111 3 -0.740189 11.9819 8.50784
113 3 -0.206977 11.0702 5.02599
114 3 1.77247 9.80584 6.53328
184 1 0.919221 9.12109 2.44089
110 3 -1.21339 9.34785 8.55795
243 2 0.650036 9.20001 3.53337
244 2 0.185464 8.44542 1.87722
245 2 0.981287 10.2007 2.00061
248 2 0.535076 7.68186 8.20997
103 3 2.27249 6.95541 2.99166
16 4 -6.24224 11.2481 4.0723
357 2 1.64651 9.14331 0.136183
22 4 -3.73123 11.0374 11.2648
353 2 -3.42396 13.5263 12.2334
33 4 0.900502 7.00478 15.4034
38 4 -1.00206 10.6996 9.46066
40 4 1.75769 9.33273 13.7272
41 4 -1.87527 11.6903 15.7192
42 4 0.753192 11.4857 11.7791
88 3 -4.87118 10.8031 10.2437
302 4 -0.876904 13.5658 13.3623
348 2 -3.96096 7.91088 13.7884
112 3 -2.28423 11.1565 10.5551
116 3 0.797506 8.2617 14.423
117 3 -0.566179 12.1235 16.6452
118 3 -1.76747 12.5285 14.3653
119 3 -3.21264 11.8285 16.5868
120 3 0.423544 10.5547 10.5309
121 3 0.941398 10.5311 13.2021
122 3 -0.0250132 12.925 12.1406
174 1 -1.13309 8.37058 12.2449
176 1 -3.90287 9.69912 12.6834
177 1 -4.32576 12.6612 12.0725
185 1 0.555742 9.71511 17.3199
253 2 1.79555 9.11032 11.3891
189 1 -1.70828 9.86584 15.1166
214 2 -0.0616757 8.26418 11.7754
215 2 -1.06723 8.59286 13.3441
216 2 -1.79591 9.09288 11.6838
220 2 -2.99178 9.03591 12.6262
221 2 -4.98565 9.25907 12.6034
222 2 -3.89562 10.5843 13.4704
223 2 -4.92144 12.6022 13.1358
101 3 2.40889 6.95028 16.0339
246 2 0.543252 9.47082 16.2231
247 2 1.96235 7.37138 9.44029
249 2 0.903012 9.05765 9.40743
325 2 -4.67227 12.2213 14.9103
254 2 2.31431 7.34802 12.0869
256 2 -1.16116 9.38789 15.9835
257 2 -1.03749 9.80576 14.1711
258 2 -2.71046 9.37823 14.8931
229 2 -2.77863 13.3154 10.1665
311 3 -5.57946 10.8263 17.2677
323 1 -5.79422 12.5126 15.0047
324 2 -6.30903 12.5138 13.9837
224 2 -5.01547 12.8789 11.1726
186 1 1.32077 8.14809 8.83138
36 4 0.699536 11.5937 17.4342
102 3 -0.261377 7.14521 16.598
188 1 2.46089 8.54847 12.0828
326 2 -5.87914 13.5276 15.4305
2 4 13.5305 2.23685 3.53246
30 4 5.23463 4.16176 7.80752
27 4 6.49925 1.97631 5.94802
44 4 8.79683 2.01878 3.95363
352 2 13.1104 3.0419 8.11979
46 4 11.3899 2.42094 5.71761
48 4 9.88728 4.58908 1.99521
51 4 10.0199 4.64407 7.74091
97 3 6.21934 3.27394 6.9082
53 4 9.02693 6.75771 5.6819
123 3 12.8777 0.855681 2.84607
124 3 8.60203 0.609889 3.1323
125 3 7.4196 2.48707 4.6749
126 3 12.3933 2.91013 4.51701
127 3 10.0318 1.85461 5.07926
128 3 12.1059 1.31921 6.65402
129 3 9.28681 3.38313 2.99095
130 3 10.8216 5.74264 2.61513
132 3 8.90096 5.35227 1.00469
133 3 11.0313 3.7078 6.78759
301 2 5.71561 4.1327 0.551857
137 3 7.69982 6.43307 4.70146
138 3 9.14908 5.64925 6.7534
359 2 11.088 0.731321 0.138494
196 1 11.0932 3.61216 0.842005
197 1 6.32115 5.86209 2.54993
198 1 8.76854 3.3936 8.48699
131 3 5.11579 6.59407 5.00976
274 2 11.006 2.42498 0.980223
275 2 12.1616 3.98696 1.19574
276 2 7.36585 5.36328 2.50244
360 2 10.3515 1.16663 1.83784
278 2 5.44907 5.0997 2.66943
279 2 8.60286 2.5409 7.69805
45 4 12.7442 0.180687 7.5276
297 3 7.18167 0.83968 1.07817
298 1 6.66356 3.57899 0.934633
299 2 7.55007 4.25672 0.877063
300 2 6.58496 3.23432 1.98319
340 2 4.84129 5.51633 1.28772
280 2 7.75479 4.06494 8.69961
191 1 10.7668 0.390598 1.18662
277 2 6.19925 6.63727 1.78325
351 2 11.7234 5.68417 0.38137
192 1 14.0706 0.90431 8.74637
334 1 8.68304 0.460897 9.2593
32 4 5.06835 5.06805 13.6886
47 4 10.8263 2.73757 12.3397
52 4 6.29534 6.53122 9.37539
54 4 9.94734 5.41116 13.8134
135 3 6.38368 4.98341 8.95838
139 3 10.7591 3.96891 13.3401
140 3 5.92218 5.59829 14.8707
170 1 14.1845 0.772826 14.3353
355 2 7.84427 0.324273 15.2597
145 3 9.07458 6.08259 12.5187
182 1 6.3119 4.47521 12.2989
266 2 12.8 3.79162 11.1334
193 1 12.0374 2.91529 10.9317
194 1 9.00728 2.47536 11.7248
195 1 11.0958 1.21948 13.5073
284 2 4.35911 6.72793 11.0433