ITEM: TIMESTEP
0
ITEM: NUMBER OF ATOMS
243
ITEM: BOX BOUNDS xy xz yz pp pp pp
-8.8456499999999991e+00 1.7691299999999998e+01 -8.8456499999999991e+00
0.0000000000000000e+00 1.7691299999999998e+01 0.0000000000000000e+00
0.0000000000000000e+00 1.8963100000000001e+01 0.0000000000000000e+00
ITEM: ATOMS id type x y z
140 1 4.38992 5.35919 6.01143
3 2 2.6111 2.98552 0.988377
156 1 3.78742 7.82539 6.33258
6 2 0.9147 2.20242 5.4902
10 2 0.262387 4.62161 1.80134
86 1 -0.16312 2.10256 9.45054
13 2 -0.15766 4.71716 7.07545
15 2 -0.936633 7.12856 5.04068
28 2 6.60621 0.222875 2.03586
100 1 -2.90217 8.33173 1.83689
155 1 1.57944 7.81235 7.93365
29 2 3.44836 1.94733 3.66583
149 1 4.02388 7.53779 0.774024
148 1 2.20061 8.16131 2.47462
32 2 3.60264 2.47849 8.86774
33 2 6.21986 2.1535 5.13425
37 2 5.30738 4.44408 1.26051
38 2 1.59674 6.98252 3.36092
105 1 -3.46524 7.64957 7.63594
40 2 5.15536 4.40892 7.0563
41 2 1.29012 6.63109 8.97959
42 2 3.95475 6.69078 5.20152
173 1 7.95798 1.05981 2.30081
49 2 2.66085 8.73326 7.16768
82 1 2.75653 1.43271 0.468403
83 1 -0.271844 1.93881 4.31789
84 1 1.05101 0.875315 6.43611
88 1 -0.85973 4.21158 2.94502
89 1 1.12188 3.28426 1.47433
90 1 -0.538307 5.14589 0.44861
91 1 -1.35591 3.98525 7.85353
92 1 0.570504 3.44223 6.47148
93 1 -2.22217 6.76 4.15003
94 1 -0.542094 5.87339 5.95541
4 2 1.88523 0.285636 7.71503
1 2 2.42062 0.194552 1.49322
31 2 7.53333 0.476099 7.27056
106 1 -1.38028 8.17847 6.181
118 1 3.10607 0.582563 2.9428
119 1 2.2973 2.51029 4.64365
120 1 5.90941 0.599628 0.61597
121 1 3.13572 1.19796 8.03258
123 1 4.93392 1.70507 4.27109
124 1 7.01437 0.947618 5.80185
130 1 3.67952 3.33983 2.10584
131 1 6.14487 3.23166 0.62137
132 1 1.22396 5.74626 2.44565
133 1 0.299821 7.53383 4.0683
11 2 -3.26067 7.37998 3.105
135 1 4.03947 3.7281 7.99996
136 1 5.88299 3.22263 6.25551
137 1 0.840936 5.26519 8.21945
139 1 2.57142 6.43658 4.46555
2 2 -1.3482 2.77653 3.46892
22 2 -2.37541 8.83166 7.22881
46 2 3.19085 8.76057 1.37441
101 1 -0.714221 7.85193 0.569492
134 1 4.2973 5.03653 0.146615
174 1 7.25003 2.70397 4.02045
194 1 5.21635 7.01308 4.14974
200 1 6.16125 5.30853 7.95561
146 1 2.52359 6.36209 10.0055
9 2 0.928336 2.56027 10.5739
16 2 -0.398339 4.58777 12.5671
18 2 -1.32742 6.85933 10.6406
25 2 -3.421 8.36612 12.1786
165 1 -3.21424 8.66659 13.7494
35 2 3.47141 2.30153 14.2724
36 2 6.12429 2.46169 10.6646
43 2 5.05591 4.51143 12.7665
44 2 0.961983 6.49033 14.5629
45 2 3.83363 6.71553 10.8936
210 1 5.51128 6.32217 16.1443
98 1 -2.39899 6.04525 9.72006
128 1 4.79732 2.12332 9.84536
87 1 1.26413 1.24902 11.5015
95 1 -1.73604 3.65232 13.1267
96 1 0.437058 3.91751 11.3824
12 2 -0.525745 6.53153 18.612
30 2 6.03284 1.92476 18.6666
99 1 -1.04863 5.94514 11.9356
201 1 5.10705 6.89494 9.94854
112 1 -2.08236 8.15686 11.2902
122 1 2.35948 2.90369 9.84947
125 1 1.95116 1.65211 14.1243
126 1 4.55205 1.09579 14.5275
127 1 4.50141 2.1494 15.5381
52 2 2.62709 8.67981 12.9683
129 1 6.49509 1.07395 11.3964
138 1 0.0774291 7.17363 9.95083
141 1 3.94501 3.56165 13.348
142 1 5.76532 3.65419 11.665
143 1 0.518253 5.09558 13.8142
144 1 1.35207 6.38986 16.1477
145 1 0.0330497 6.92304 15.7364
39 2 3.94992 6.49325 18.5294
147 1 4.3346 5.78457 12.144
163 1 1.73796 7.48634 13.6234
164 1 3.60441 8.08681 11.8214
7 2 1.12155 0.802457 13.0418
34 2 6.98874 0.615546 12.8999
208 1 6.11461 4.94618 13.9346
179 1 7.29188 2.88644 9.61406
226 1 3.45934 9.42918 8.35296
24 2 -3.67076 10.6863 5.23901
47 2 -1.04173 10.9954 3.6114
162 1 1.93578 12.3487 5.91897
158 1 -1.26297 11.9676 8.48098
51 2 1.75159 10.9674 5.12708
161 1 1.95574 9.72783 6.12849
219 1 2.76797 10.82 3.88745
153 1 2.50181 9.5967 0.188674
109 1 -3.13965 10.1129 6.62276
110 1 -3.97382 12.2526 5.39161
150 1 -0.771042 10.0561 2.29062
151 1 -1.29959 12.4838 3.21939
152 1 -2.40634 10.3923 4.1921
19 2 -1.64373 9.08019 1.12745
160 1 0.20229 10.9961 4.68022
157 1 -1.54683 9.35368 8.5606
50 2 -1.5561 10.7474 9.43941
27 2 -4.71984 10.4424 10.2494
53 2 -2.47526 9.89113 14.5643
54 2 1.10537 10.8397 11.0937
48 2 2.42404 10.8466 18.1622
104 1 -2.4678 12.3755 17.3475
116 1 -4.52524 9.46026 11.6243
117 1 -5.67595 11.6561 10.6878
159 1 -3.16842 10.9331 9.83365
103 1 -1.88878 10.045 18.8293
166 1 -0.921874 9.61235 14.4859
167 1 -2.73181 11.3157 13.8729
168 1 -2.97887 9.91239 16.2608
169 1 -0.424869 10.581 10.5404
170 1 1.66678 9.7526 12.2001
171 1 0.918095 12.2018 11.8271
228 1 2.18315 11.0384 9.95148
236 1 3.58381 9.33929 14.0804
239 1 2.65235 10.4417 16.6106
21 2 -2.66943 10.8199 17.56
177 1 13.7557 0.66376 7.05224
216 1 8.99254 8.76797 0.53014
199 1 11.4594 5.43059 7.30676
14 2 14.2167 6.4095 8.59047
224 1 8.09238 7.71891 6.16385
56 2 8.50756 2.37114 3.0966
223 1 6.99136 7.77437 8.36865
214 1 6.93487 7.85701 2.12741
59 2 8.79388 2.63202 9.02344
60 2 11.2021 2.35123 4.72704
64 2 9.91121 4.26213 0.841728
65 2 6.42986 6.69402 3.1258
204 1 9.33494 5.37916 5.89934
67 2 10.2328 4.48922 6.84266
68 2 6.39332 6.45718 9.07884
69 2 8.80932 6.72044 5.08784
73 2 7.52389 8.1363 0.557315
58 2 12.2519 0.220626 6.75154
172 1 14.6658 1.52932 2.04263
202 1 9.94622 7.66115 4.48774
178 1 8.78506 1.34037 7.92773
203 1 7.67614 6.32986 4.00706
180 1 12.2809 2.86052 3.68155
181 1 9.85078 2.14574 3.8876
182 1 11.5993 0.938259 5.47772
190 1 8.93104 3.5194 1.97263
191 1 11.0797 3.18444 0.517296
192 1 10.6104 5.53902 1.56322
55 2 13.2819 0.770169 1.7052
197 1 9.37989 3.88221 8.05298
198 1 10.8059 3.33646 5.93293
5 2 16.0963 2.7322 8.87193
76 2 7.93866 8.64235 7.44854
176 1 12.6449 1.11011 0.305258
193 1 6.19855 5.49184 2.10031
8 2 14.9471 3.94698 14.3438
17 2 12.9498 5.98424 13.3659
234 1 8.42663 7.66759 11.9971
62 2 8.86598 2.3837 14.6481
63 2 11.2308 2.46462 11.0279
70 2 10.3064 4.59089 12.9763
71 2 6.61756 6.03173 15.0247
72 2 8.77956 6.45274 11.0097
79 2 7.46817 8.37879 13.0823
175 1 12.828 0.685483 14.165
233 1 6.80607 7.32192 14.0863
97 1 14.0638 5.2719 14.2335
185 1 9.25252 1.70081 16.0774
66 2 8.35306 5.79113 17.5939
187 1 12.3693 3.09563 10.0172
183 1 14.4782 0.318264 11.8543
189 1 11.8355 1.07999 11.7515
195 1 12.7025 6.50264 16.7447
205 1 9.70039 3.69325 14.1911
206 1 11.2484 3.57361 12.1908
207 1 11.3459 5.7658 13.5421
209 1 7.93747 5.79439 16.0215
211 1 10.0337 6.71004 10.0629
215 1 7.61643 6.75843 18.6111
213 1 9.27042 5.19544 11.8875
111 1 13.54 6.90226 12.1991
188 1 9.77954 2.27534 10.2603
196 1 9.28808 4.63643 18.3272
212 1 7.49506 6.0812 10.1413
61 2 12.9654 0.388219 12.5005
57 2 12.2207 2.54749 18.5844
85 1 15.2867 3.4727 15.8562
186 1 7.93042 2.309 15.9227
184 1 8.39046 1.32995 13.4115
20 2 11.2592 10.1532 4.17416
23 2 10.5816 10.0001 8.34041
107 1 10.6618 10.984 7.10847
232 1 7.74991 11.8656 4.77644
225 1 9.37454 8.97872 8.06714
78 2 6.74467 10.7396 5.37384
102 1 11.7332 10.5276 2.70461
229 1 7.98793 10.5239 4.30685
230 1 5.28209 10.362 4.79136
218 1 4.8517 12.0115 2.95962
77 2 3.62504 10.7454 9.26175
231 1 7.21345 10.056 6.7808
74 2 4.30716 10.6403 3.4819
227 1 3.94099 12.0402 8.38904
217 1 4.2641 9.58466 2.25816
115 1 12.0016 9.69807 9.15743
108 1 12.7043 9.82946 4.86818
26 2 10.6936 11.7762 15.2948
113 1 11.3261 10.3738 14.8405
81 2 6.0453 10.4857 11.2315
114 1 10.1366 12.7434 14.1888
220 1 11.2897 12.3112 16.6526
221 1 6.42471 8.96339 18.6139
237 1 5.11114 9.86782 16.2178
238 1 4.00143 11.8564 14.7113
240 1 7.35227 10.7585 10.281
222 1 6.85067 11.4068 17.5563
242 1 6.40676 9.35375 12.3311
243 1 7.06963 11.7483 11.3387
75 2 6.10149 10.0366 17.4775
241 1 4.62762 10.7127 10.5482
235 1 8.26445 9.3763 14.0262
154 1 3.12176 12.2208 18.5266
80 2 3.84309 10.4016 15.3685
ITEM: TIMESTEP
100
ITEM: NUMBER OF ATOMS
243
ITEM: BOX BOUNDS xy xz yz pp pp pp
-8.8456499999999991e+00 1.7691299999999998e+01 -8.8456499999999991e+00
0.0000000000000000e+00 1.7691299999999998e+01 0.0000000000000000e+00
0.0000000000000000e+00 1.8963100000000001e+01 0.0000000000000000e+00
ITEM: ATOMS id type x y z
140 1 4.49726 5.42528 5.97502
3 2 2.54679 3.01277 0.968819
156 1 3.84659 7.90823 6.14235
6 2 0.833409 2.20146 5.41483
10 2 0.20067 4.62889 1.8137
193 1 5.91417 5.2925 2.33193
13 2 -0.0937399 4.74652 7.08782
15 2 -0.97772 7.07202 5.05421
28 2 6.65275 0.236865 1.94425
100 1 -2.80341 8.6023 2.00172
155 1 1.82063 7.75422 7.95046
29 2 3.40287 1.9061 3.74031
149 1 4.02661 7.69263 0.565849
148 1 2.17355 8.29211 2.45082
32 2 3.62376 2.47583 8.91925
33 2 6.24611 2.35852 5.14555
37 2 5.21943 4.38728 1.17652
38 2 1.51548 7.04563 3.2756
105 1 -3.43219 7.79968 7.76144
40 2 5.07666 4.50525 7.15525
41 2 1.34165 6.68268 9.04214
42 2 4.02932 6.74368 5.07961
173 1 8.0554 1.03135 2.25077
49 2 2.83243 8.71257 7.20154
82 1 2.72295 1.53428 0.377761
83 1 -0.71512 1.86078 4.34074
84 1 0.98488 0.869496 6.37636
88 1 -0.901308 4.04082 2.8141
89 1 0.978929 3.25569 1.27642
90 1 -0.600184 5.17923 0.455537
91 1 -1.36324 4.08451 7.91375
92 1 0.540008 3.47115 6.36646
93 1 -2.31128 6.83363 4.15147
94 1 -0.564493 5.73125 5.9212
4 2 1.71684 0.45837 7.7341
1 2 2.60754 0.233702 1.41874
31 2 7.51481 0.553919 7.30585
106 1 -1.28852 8.09816 6.25108
118 1 2.88285 0.581798 2.99033
119 1 2.2248 2.52443 4.65128
120 1 6.10792 0.458771 0.416365
121 1 3.15051 1.19254 8.09166
123 1 4.85747 1.71664 4.42214
124 1 7.02752 1.04693 5.8098
130 1 3.69452 3.28605 2.1663
131 1 6.22227 3.26837 0.496559
132 1 1.15362 5.77959 2.35314
133 1 0.245635 7.50405 4.12722
11 2 -3.31555 7.68531 3.23211
135 1 3.93222 3.69866 7.95924
136 1 5.87688 3.37758 6.32558
137 1 0.944414 5.39516 8.16223
139 1 2.61711 6.52494 4.31093
200 1 5.93132 5.40698 8.17079
22 2 -2.31536 8.83352 7.24471
194 1 5.16076 7.05412 3.92335
101 1 -0.603036 7.83861 0.657157
86 1 -0.180548 2.17583 9.37699
174 1 7.30114 2.89374 4.0303
146 1 2.60727 6.42456 9.98681
9 2 0.942704 2.68049 10.564
16 2 -0.528647 4.54173 12.642
18 2 -1.42124 6.89352 10.6881
25 2 -3.50657 8.41619 12.2416
165 1 -3.02312 8.79817 13.7196
35 2 3.58464 2.30262 14.3573
36 2 6.17234 2.4275 10.642
43 2 5.06953 4.51513 12.7568
44 2 1.10211 6.36902 14.5607
45 2 3.82662 6.81023 10.9105
210 1 5.29826 6.38234 16.0658
98 1 -2.37879 6.12759 9.64564
128 1 4.8804 2.07062 9.79758
87 1 1.04345 1.3605 11.5211
95 1 -1.78676 3.72986 13.1806
96 1 0.223339 3.78568 11.4756
12 2 -0.624363 6.58423 18.6314
30 2 6.23337 1.8601 18.6825
99 1 -1.16728 5.87577 11.9561
201 1 5.09077 7.00111 10.0134
112 1 -2.18278 8.13621 11.3888
122 1 2.40578 2.8575 9.88512
125 1 2.08797 1.66084 14.1282
126 1 4.85044 1.32533 14.4597
127 1 4.4435 1.9549 15.6964
52 2 2.53787 8.73613 13.0206
129 1 6.52425 1.13302 11.5545
138 1 0.0491114 7.08941 9.91507
141 1 3.92831 3.64387 13.4177
142 1 5.79211 3.68333 11.5922
143 1 0.527625 5.05551 13.7326
144 1 1.25287 6.24171 16.1386
145 1 0.0268047 6.84316 15.6951
39 2 4.12751 6.60589 18.3453
147 1 4.1988 5.71239 12.0847
163 1 1.71427 7.56898 13.7377
164 1 3.33315 8.12042 11.7456
7 2 1.06513 0.965249 13.0699
34 2 7.26409 0.69575 12.8949
208 1 5.97112 5.02538 13.9866
179 1 7.35307 2.75494 9.58814
134 1 4.37971 5.11066 18.9613
226 1 3.54854 9.59027 8.33707
24 2 -3.59305 10.6828 5.20925
47 2 -0.967901 10.9804 3.61308
162 1 1.95783 12.3255 6.02884
158 1 -1.33691 11.9341 8.45167
51 2 1.73127 10.9584 5.32911
161 1 2.04436 9.7862 6.32062
219 1 2.83174 10.9811 4.17407
153 1 2.44414 9.84554 0.260561
109 1 -3.0612 10.1598 6.66326
110 1 -3.88089 12.2819 5.20556
150 1 -0.638845 10.1436 2.23214
151 1 -1.40404 12.4727 3.17294
152 1 -2.33983 10.3249 4.18797
19 2 -1.50084 9.14661 1.1327
160 1 0.253359 10.8328 4.67515
157 1 -1.47894 9.41017 8.49706
50 2 -1.61857 10.7644 9.45804
46 2 3.23101 8.86455 1.31333
27 2 -4.6706 10.3979 10.2445
53 2 -2.39603 9.99605 14.6472
54 2 0.950946 10.8026 11.1598
48 2 2.36291 10.9796 18.0709
104 1 -2.46461 12.2919 17.7118
116 1 -4.54057 9.36128 11.4379
117 1 -5.39737 11.7341 10.8291
159 1 -3.18198 10.681 9.83153
103 1 -2.01462 9.8869 18.7487
166 1 -0.821598 9.8216 14.6256
167 1 -2.77209 11.3174 13.8333
168 1 -2.91191 10.1133 16.1452
169 1 -0.540012 10.5647 10.6229
170 1 1.55782 9.76361 12.2611
171 1 0.829005 12.2248 11.919
228 1 1.98998 10.9625 9.94026
236 1 3.40662 9.42498 14.1957
239 1 2.54124 10.5354 16.5837
21 2 -2.73349 10.7758 17.5749
177 1 13.7907 0.971542 6.92508
2 2 16.1626 2.58698 3.10856
199 1 11.1738 5.53091 7.46137
14 2 14.2918 6.34873 8.46293
224 1 8.056 7.79484 6.10207
56 2 8.50822 2.44468 2.95609
223 1 6.93381 7.91012 8.41758
214 1 6.87108 7.66729 1.98651
59 2 8.89854 2.62499 9.03457
60 2 11.0804 2.31312 4.74381
64 2 9.97636 4.26197 0.860229
65 2 6.42033 6.59141 3.12388
204 1 9.21635 5.41195 6.04935
67 2 10.2281 4.45938 6.85143
68 2 6.40954 6.63098 9.17988
69 2 8.79123 6.68295 5.16251
73 2 7.43021 8.14457 0.495938
58 2 12.3502 0.302642 6.73752
172 1 14.6447 2.08728 2.35082
202 1 10.09 7.33484 4.54174
178 1 8.7903 1.2999 8.05911
203 1 7.74109 6.28743 4.02204
180 1 12.3432 2.80491 3.8594
181 1 9.79165 2.05629 3.78365
182 1 11.5743 0.900315 5.40766
190 1 8.85744 3.65712 1.8727
191 1 11.1664 3.18907 0.487107
192 1 10.7117 5.53063 1.59695
55 2 13.6975 1.15838 1.73698
197 1 9.44098 3.85604 8.14303
198 1 10.8612 3.36954 5.95711
5 2 16.132 2.71953 8.81699
76 2 7.95847 8.69825 7.48045
176 1 12.8918 1.29741 0.324908
8 2 14.76 3.85872 14.3394
17 2 12.8786 5.95865 13.2976
234 1 8.4807 7.64555 12.0478
62 2 9.02206 2.45226 14.6713
63 2 11.3638 2.43596 10.9371
70 2 10.2957 4.5492 12.9802
71 2 6.5292 6.07401 15.0755
72 2 8.79159 6.35613 11.1532
79 2 7.49829 8.38503 13.0843
175 1 13.0765 0.629177 14.0078
233 1 6.93954 7.32391 14.1316
97 1 13.7486 5.10277 14.3335
185 1 9.41806 1.7655 16.0934
66 2 8.40669 5.76305 17.6058
187 1 12.1838 2.9368 9.69628
183 1 14.4641 0.370136 11.8507
189 1 11.8652 0.94601 11.4091
195 1 12.6248 6.50353 16.8421
205 1 9.60288 3.90692 14.3132
206 1 11.3008 3.4905 12.2085
207 1 11.3124 5.66762 13.4912
209 1 7.74804 5.56439 16.1367
211 1 10.0713 6.71278 10.2775
215 1 7.63038 6.83635 18.4616
213 1 9.10711 5.16707 12.1742
111 1 13.4233 7.02964 12.289
188 1 9.80289 2.36201 10.4026
196 1 9.20413 4.73411 18.455
212 1 7.58724 6.06267 10.1224
61 2 13.0292 0.376217 12.4786
57 2 12.341 2.57182 18.5097
85 1 15.2101 3.31662 15.761
186 1 8.09508 2.38499 15.993
184 1 8.49816 1.60958 13.3806
20 2 11.29 10.1909 4.15348
23 2 10.5846 9.96815 8.39771
107 1 10.6475 10.9991 7.21824
232 1 7.69274 11.981 4.81246
225 1 9.42493 8.86069 8.22178
78 2 6.90053 10.6322 5.31196
102 1 11.5047 10.2862 2.58066
229 1 8.15897 10.6999 4.32875
230 1 5.4202 10.2975 4.57927
218 1 4.9468 12.2766 3.01787
77 2 3.55285 10.8165 9.3333
231 1 7.25667 10.0377 6.84097
74 2 4.32732 10.8651 3.46049
227 1 4.00339 11.98 8.36168
217 1 4.16425 9.89457 2.15563
115 1 12.026 9.78412 9.02413
108 1 12.67 9.88881 4.89632
216 1 8.81562 8.97359 0.588255
26 2 10.7919 11.7905 15.4172
113 1 11.3132 10.3352 14.9143
81 2 6.13092 10.4362 11.1884
114 1 10.146 12.7867 14.3813
220 1 11.1256 12.3484 16.8561
221 1 6.46732 9.16149 18.6024
237 1 5.18232 9.92892 16.3218
238 1 4.07257 11.8022 14.8347
240 1 7.48112 10.6358 10.3276
222 1 7.23458 11.5227 17.5688
242 1 6.28212 9.10404 12.2282
243 1 7.2358 11.6061 11.3946
75 2 6.30636 10.266 17.4341
241 1 4.73378 10.5504 10.4229
235 1 8.14832 9.52273 14.0442
154 1 2.69438 12.4794 18.4066
80 2 3.84132 10.366 15.4634
ITEM: TIMESTEP
200
ITEM: NUMBER OF ATOMS
243
ITEM: BOX BOUNDS xy xz yz pp pp pp
-8.8456499999999991e+00 1.7691299999999998e+01 -8.8456499999999991e+00
0.0000000000000000e+00 1.7691299999999998e+01 0.0000000000000000e+00
0.0000000000000000e+00 1.8963100000000001e+01 0.0000000000000000e+00
ITEM: ATOMS id type x y z
140 1 4.56528 5.47115 5.8198
3 2 2.53796 3.06588 0.931466
156 1 3.84308 8.0707 6.09911
6 2 0.682898 2.24454 5.23208
10 2 0.145861 4.66678 1.70548
193 1 5.73929 5.30716 2.36715
13 2 -0.0806931 4.79597 7.00681
15 2 -1.04088 6.99988 4.97609
28 2 6.65732 0.315923 1.94743
100 1 -2.75716 8.46757 1.79945
155 1 1.99667 7.69259 8.08095
29 2 3.42789 1.97997 3.67041
149 1 4.00682 7.69209 0.0655231
148 1 2.06081 7.95182 2.0256
32 2 3.57965 2.57986 8.9618
33 2 6.26031 2.3053 5.18605
37 2 5.19667 4.47056 1.10381
38 2 1.53002 7.02294 3.25732
105 1 -3.45049 7.83587 7.74382
40 2 5.07121 4.52714 7.05526
41 2 1.32233 6.6407 9.08221
42 2 4.15685 6.87447 5.10562
173 1 7.99275 1.08998 2.36922
49 2 2.84533 8.81697 7.18254
82 1 2.87562 1.57633 0.429905
83 1 -0.643991 1.83026 4.25889
84 1 1.15382 1.02043 6.21851
88 1 -0.937169 4.08501 2.7963
89 1 1.03355 3.28835 1.41575
90 1 -0.579665 5.21535 0.399174
91 1 -1.31266 4.12347 7.86706
92 1 0.624958 3.47844 6.30148
93 1 -2.41077 6.9451 4.08067
94 1 -0.655749 5.69484 5.79757
4 2 1.72264 0.567045 7.63766
1 2 2.69958 0.260778 1.4078
31 2 7.56541 0.487809 7.34397
106 1 -1.40533 8.17153 6.01177
118 1 3.06175 0.560314 2.93196
119 1 2.03604 2.44025 4.39734
120 1 5.94773 0.651862 0.514139
121 1 3.06741 1.19232 8.1959
123 1 4.86564 1.81648 4.44658
124 1 7.15912 1.13308 5.90146
130 1 3.59697 3.37112 2.12691
131 1 6.13372 3.21167 0.62622
132 1 1.21282 5.68701 2.39664
133 1 0.209296 7.46584 4.04891
11 2 -3.34238 7.95221 3.26215
135 1 3.95097 3.7423 7.86177
136 1 5.90954 3.39018 6.34513
137 1 0.817618 5.4987 8.11726
139 1 2.7369 6.74461 4.31352
200 1 5.80112 5.37725 8.20175
174 1 7.28761 2.90557 4.024
22 2 -2.29596 8.78119 7.15621
101 1 -0.549259 7.88694 0.655885
86 1 -0.133514 2.21969 9.35483
46 2 3.20924 8.77073 1.18634
146 1 2.45626 6.27442 10.1798
9 2 0.912034 2.53269 10.5739
16 2 -0.522897 4.45049 12.5739
18 2 -1.42433 6.7563 10.6774
25 2 -3.45307 8.33534 12.2618
134 1 4.60438 5.16963 18.8067
35 2 3.50091 2.34197 14.4168
36 2 6.17419 2.54325 10.7558
43 2 5.02239 4.6383 12.8816
44 2 0.997544 6.27426 14.4885
45 2 3.74275 6.86142 10.9771
210 1 5.1745 6.55965 16.4366
98 1 -2.60254 6.02615 9.79367
128 1 4.91192 2.26844 9.82514
87 1 1.06863 1.28038 11.583
95 1 -1.70308 3.56976 13.2648
96 1 0.128886 3.7095 11.3354
12 2 -0.732835 6.62524 18.6385
30 2 6.15268 1.95735 18.5968
99 1 -1.07429 5.8729 11.9987
201 1 5.02193 7.16 10.021
112 1 -2.12104 8.06377 11.3375
122 1 2.34477 2.96565 10.0018
125 1 2.11955 1.52672 14.1135
126 1 4.75668 1.27364 14.4139
127 1 4.41009 1.89184 15.6771
52 2 2.40528 8.73008 13.1194
129 1 6.60879 1.16955 11.5611
138 1 -0.0590836 7.07987 9.82826
141 1 3.89223 3.61933 13.4984
142 1 5.91216 3.7835 11.8584
143 1 0.662968 4.90308 13.6711
144 1 1.26837 6.09611 16.0854
145 1 -0.062664 6.50881 15.6675
39 2 4.57441 6.57168 18.0962
147 1 4.22 5.72377 12.0607
163 1 1.58218 7.47324 13.6745
164 1 3.31339 8.14969 11.9258
7 2 0.870933 1.06968 13.1865
34 2 7.35626 0.610264 12.8573
208 1 5.78999 5.0987 14.1641
179 1 7.3674 2.86386 9.67862
226 1 3.64151 9.68696 8.2626
24 2 -3.51809 10.7524 5.17209
47 2 -0.968653 11.0003 3.4861
162 1 1.86649 12.3458 6.14472
158 1 -1.00513 11.7875 8.49224
51 2 1.72754 10.9589 5.29066
161 1 1.95233 9.73609 6.31034
219 1 2.97622 10.8093 4.25789
153 1 2.44971 9.87034 0.313406
109 1 -3.06323 10.0646 6.53417
110 1 -3.80099 12.3103 5.22229
150 1 -0.71787 10.2589 2.04758
151 1 -1.32914 12.5337 3.33422
152 1 -2.25055 10.4021 4.18756
19 2 -1.4834 9.13971 1.1285
160 1 0.354802 10.8505 4.39877
157 1 -1.43204 9.31477 8.44961
50 2 -1.56072 10.5994 9.39587
108 1 -4.78236 9.80754 4.62696
27 2 -4.62242 10.4211 10.2785
53 2 -2.50796 10.0932 14.6112
54 2 0.935149 10.6997 11.2193
48 2 2.22923 10.9735 18.1036
104 1 -2.3402 12.3216 17.7863
116 1 -4.42337 9.40328 11.5168
117 1 -5.0505 11.8742 10.7398
159 1 -3.17024 10.7262 9.69187
103 1 -1.84886 9.81976 18.6824
166 1 -0.9066 9.98998 14.7153
167 1 -2.74097 11.4728 13.8879
168 1 -2.9455 10.1121 16.2152
169 1 -0.580904 10.4937 10.6432
170 1 1.3013 9.67702 12.4358
171 1 0.929075 12.1327 11.939
228 1 2.03696 10.7497 10.0134
236 1 3.40652 9.38929 14.2227
239 1 2.63479 10.3432 16.6218
21 2 -2.61336 10.7667 17.6704
165 1 -3.21721 8.88881 13.7857
177 1 13.8934 1.16662 7.11313
2 2 16.184 2.64275 3.14211
199 1 11.2073 5.44615 7.43884
14 2 14.2614 6.36671 8.4525
224 1 8.25181 7.73473 6.1957
56 2 8.49904 2.48204 3.01539
223 1 6.96361 7.74535 8.34518
214 1 6.82956 7.54556 1.77036
59 2 8.84046 2.59133 9.07507
60 2 11.1084 2.40764 4.77917
64 2 9.92458 4.20059 0.783359
65 2 6.38621 6.56588 3.00112
204 1 8.92344 5.3308 6.09284
67 2 10.0239 4.48162 6.96549
68 2 6.32234 6.59202 9.21206
69 2 8.69238 6.62476 5.12274
73 2 7.49025 8.1898 0.421443
58 2 12.6491 0.400579 6.5772
172 1 14.7356 2.33364 2.43183
202 1 10.1279 7.24776 4.69411
178 1 8.81836 1.23075 8.08826
203 1 7.68835 6.35941 3.91732
180 1 12.2099 3.00895 3.81269
181 1 9.81706 2.21353 3.87667
182 1 11.6494 0.910516 5.44746
190 1 8.86632 3.49572 1.83209
191 1 11.2028 3.10973 0.512942
192 1 10.4792 5.4573 1.60498
55 2 13.9166 1.15188 1.64924
197 1 9.41297 3.77196 8.26059
198 1 10.7043 3.37649 6.02322
5 2 16.1515 2.8558 8.86982
76 2 8.0429 8.65355 7.52323
176 1 13.3422 1.35621 0.236294
194 1 5.2401 7.25614 3.98462
216 1 8.94078 8.83501 0.825453
8 2 14.8357 3.80635 14.3564
17 2 12.8573 5.94666 13.4043
234 1 8.37152 7.61042 12.2041
62 2 9.10311 2.38252 14.7166
63 2 11.2957 2.29602 10.9869
70 2 10.319 4.49728 12.8922
71 2 6.26896 6.10424 15.3232
72 2 8.66211 6.36304 11.2366
79 2 7.43697 8.37966 13.2449
175 1 12.9236 0.922239 13.8782
233 1 6.90977 7.35171 14.3775
97 1 13.8323 5.0354 14.2809
185 1 9.55948 1.62199 16.0335
66 2 8.3244 5.77496 17.5439
187 1 12.3018 2.71385 9.78026
183 1 14.4482 0.588461 11.7549
189 1 11.7218 0.791639 11.5598
195 1 12.4688 6.59442 16.8535
205 1 9.87848 3.77805 14.2795
206 1 11.2148 3.4181 12.1598
207 1 11.26 5.7874 13.1596
209 1 7.61996 5.51927 16.106
211 1 10.0357 6.72456 10.5342
215 1 7.62668 6.89004 18.4209
213 1 9.0001 4.97145 11.9857
111 1 13.5981 6.88031 12.3708
188 1 9.76952 2.1738 10.3772
196 1 9.22354 4.66916 18.3209
212 1 7.47923 6.04313 10.1963
61 2 13.031 0.34365 12.4371
57 2 12.4698 2.57762 18.6391
85 1 15.1736 3.11956 15.7208
186 1 8.27562 2.33671 16.1173
184 1 8.47197 1.57399 13.4586
20 2 11.3678 10.1367 4.12382
23 2 10.6724 10.0396 8.31363
107 1 10.6584 11.1776 7.27133
232 1 7.82087 12.0261 4.8637
225 1 9.44013 8.97236 8.23029
78 2 6.9448 10.7271 5.31447
102 1 11.3931 10.0866 2.47626
229 1 8.27898 10.7602 4.31212
230 1 5.57611 10.4767 4.49247
218 1 4.71092 12.3373 2.90915
77 2 3.55234 10.7732 9.43445
231 1 7.34506 9.99418 6.76196
74 2 4.36776 10.8242 3.42946
227 1 3.99875 11.9954 8.50397
217 1 4.14642 9.74377 2.16831
115 1 12.0223 9.70877 9.21921
26 2 10.7257 11.7973 15.3313
113 1 11.5132 10.5631 14.7158
81 2 6.14777 10.3036 11.1123
114 1 10.1094 12.9052 14.38
220 1 11.0664 12.1354 16.8738
221 1 6.45347 9.2655 18.6205
237 1 5.26557 10.028 16.3264
238 1 3.91994 11.9584 15.137
240 1 7.30927 10.6652 10.0117
222 1 7.19515 11.733 17.5834
242 1 6.30457 9.09614 12.2622
243 1 7.27776 11.4727 11.2283
75 2 6.31016 10.4075 17.4707
241 1 4.62397 10.7301 10.6902
235 1 8.10213 9.70125 13.8918
154 1 2.63293 12.4917 18.412
80 2 3.85111 10.3856 15.5164
ITEM: TIMESTEP
300
ITEM: NUMBER OF ATOMS
243
ITEM: BOX BOUNDS xy xz yz pp pp pp
-8.8456499999999991e+00 1.7691299999999998e+01 -8.8456499999999991e+00
0.0000000000000000e+00 1.7691299999999998e+01 0.0000000000000000e+00
0.0000000000000000e+00 1.8963100000000001e+01 0.0000000000000000e+00
ITEM: ATOMS id type x y z
140 1 4.36491 5.56788 5.94786
3 2 2.57363 3.03373 0.873434
156 1 3.88618 8.0449 6.33764
6 2 0.707805 2.06468 5.24539
10 2 0.198833 4.58997 1.75837
193 1 5.81789 5.35177 2.30744
13 2 -0.116918 4.67558 7.00115
15 2 -0.978912 7.01984 4.95294
28 2 6.60676 0.293075 1.93046
100 1 -2.90021 8.44251 1.75652
155 1 1.80774 7.69368 7.9949
29 2 3.39946 2.03667 3.58806
86 1 -0.126204 2.1002 9.46828
148 1 2.16096 8.02539 2.10387
32 2 3.49564 2.56229 9.05452
33 2 6.24847 2.43268 5.14075
37 2 5.305 4.46329 1.09183
38 2 1.61437 6.98828 3.25192
105 1 -3.52508 7.73513 7.59873
40 2 5.00524 4.58488 7.0483
41 2 1.3447 6.56574 9.02213
42 2 4.07749 6.93054 5.18301
173 1 8.06728 1.07112 2.24409
49 2 2.7799 8.7367 7.22685
82 1 2.85761 1.51277 0.304947
83 1 -0.646255 1.82619 4.20723
84 1 0.963646 0.807516 6.23982
88 1 -1.00697 4.10187 2.73812
89 1 1.03671 3.30729 1.21068
90 1 -0.348976 5.22733 0.395504
91 1 -1.33376 3.99837 7.8264
92 1 0.419234 3.40116 6.1169
93 1 -2.20109 6.92365 3.89419
94 1 -0.648382 5.7012 5.84139
4 2 1.7015 0.511749 7.66193
1 2 2.78268 0.237033 1.27848
31 2 7.59843 0.538575 7.19564
106 1 -1.40977 8.08032 6.08322
118 1 3.33625 0.544516 2.89117
119 1 2.0503 2.46081 4.35757
120 1 5.97908 0.585278 0.486159
121 1 2.99367 1.22126 8.26679
123 1 4.77251 2.05689 4.50376
124 1 6.88614 1.04341 5.8023
130 1 3.61873 3.38143 2.0187
131 1 6.24692 3.3526 0.447903
132 1 1.30775 5.60497 2.43706
133 1 0.271942 7.44145 3.98707
11 2 -3.29206 7.90171 3.20907
135 1 3.80917 3.71282 7.79329
136 1 6.00455 3.48036 6.39481
137 1 0.88801 5.34127 8.07215
139 1 2.77977 6.77677 4.33241
200 1 5.86992 5.41762 8.23255
174 1 7.25093 2.81347 3.91212
22 2 -2.32377 8.76846 7.12222
101 1 -0.536594 7.86083 0.70368
146 1 2.43443 6.26661 10.1541
9 2 0.935483 2.51608 10.632
16 2 -0.545297 4.44935 12.5305
18 2 -1.32411 6.75403 10.614
25 2 -3.31523 8.33902 12.2744
134 1 4.7383 5.24303 18.7684
35 2 3.35371 2.26751 14.4622
36 2 6.10998 2.56912 10.8882
43 2 4.87083 4.58532 12.9877
44 2 0.806765 6.26645 14.4993
45 2 3.70067 6.83666 11.0659
210 1 5.02097 6.90744 16.4911
98 1 -2.4794 6.06626 9.69344
128 1 4.84872 2.34293 9.87731
87 1 1.14234 1.28982 11.6369
95 1 -1.72108 3.57882 13.1527
96 1 0.268775 3.7904 11.3203
12 2 -0.451754 6.63104 18.6317
30 2 6.20679 1.98191 18.596
99 1 -1.09749 5.75743 11.8375
201 1 4.8568 7.074 9.92474
112 1 -2.02003 8.09267 11.2889
122 1 2.30693 3.0442 10.0538
125 1 1.84954 1.61216 14.3479
126 1 4.60193 1.19118 14.4246
127 1 4.5775 2.05449 15.6238
52 2 2.30462 8.72229 13.0783
129 1 6.45743 1.14368 11.621
138 1 0.00351463 7.04283 9.76784
141 1 3.65739 3.50655 13.3597
142 1 5.83775 3.69047 12.0779
143 1 0.534953 4.88626 13.6917
144 1 1.32121 6.15173 16.0129
145 1 -0.111357 6.40949 15.7661
39 2 4.64247 6.67225 18.0858
147 1 4.41007 5.85601 12.1899
163 1 1.55546 7.51017 13.7969
164 1 3.21873 8.03224 11.9305
7 2 0.812333 1.04123 13.1941
34 2 7.33434 0.678747 12.9461
208 1 5.60385 5.11701 14.3315
179 1 7.35921 2.936 9.88986
149 1 3.74181 7.76102 18.7612
226 1 3.57306 9.56989 8.31859
24 2 -3.54944 10.7397 5.15741
47 2 -0.831558 11.0354 3.47787
162 1 1.76501 12.2565 5.85305
158 1 -0.86663 11.8255 8.52201
51 2 1.80197 10.8367 5.19705
161 1 1.92562 9.63952 6.24898
219 1 3.05918 10.6796 4.2137
153 1 2.35895 10.0925 0.510256
109 1 -3.13038 10.085 6.58324
110 1 -3.97124 12.2846 5.2635
150 1 -0.806651 10.1917 2.10866
151 1 -0.999505 12.651 3.31891
152 1 -2.24355 10.5939 4.15271
19 2 -1.4627 9.10978 1.0986
160 1 0.449601 10.7256 4.35479
157 1 -1.45642 9.27807 8.3585
50 2 -1.47141 10.591 9.35951
108 1 -4.92437 9.92522 4.68026
46 2 3.16796 8.85205 1.19153
27 2 -4.5234 10.3904 10.2008
53 2 -2.51841 10.2177 14.6497
54 2 0.99308 10.8908 11.2634
48 2 2.24797 10.912 18.0832
104 1 -2.34273 12.2979 17.8078
116 1 -4.30488 9.38565 11.5537
117 1 -5.13061 11.8096 10.6975
159 1 -3.07558 10.7083 9.63908
103 1 -1.82432 9.78686 18.6815
166 1 -0.954631 9.94737 14.7883
167 1 -2.69001 11.6767 13.9721
168 1 -3.03982 10.1892 16.2315
169 1 -0.502488 10.6367 10.6476
170 1 1.34837 9.79361 12.3642
171 1 1.21144 12.3743 11.7398
228 1 2.04676 10.6199 10.0644
236 1 3.34832 9.48496 14.1178
239 1 2.73877 10.2769 16.6993
21 2 -2.64515 10.7605 17.6863
165 1 -2.90215 8.87718 13.7681
177 1 13.8978 1.37872 7.07065
2 2 16.0846 2.7515 3.23813
199 1 11.3983 5.4563 7.41524
14 2 14.1861 6.45569 8.56557
224 1 8.09018 7.71577 6.07577
56 2 8.54072 2.417 2.9954
223 1 7.01839 7.85526 8.4178
214 1 6.7472 7.77867 1.83554
59 2 8.73259 2.65663 9.08962
60 2 11.1714 2.35829 4.77316
64 2 9.99397 4.05691 0.709208
65 2 6.34338 6.70417 3.00802
204 1 9.15021 5.24992 6.03902
67 2 10.1753 4.48521 7.00126
68 2 6.23415 6.62651 9.20152
69 2 8.69747 6.55109 5.14648
73 2 7.62677 8.1784 0.460862
58 2 12.6992 0.431795 6.61387
172 1 14.7683 2.17432 2.53242
202 1 9.93074 7.45554 4.66127
178 1 8.57124 1.46488 8.06246
203 1 7.64332 6.31515 3.93885
180 1 12.1109 3.33081 3.89904
181 1 9.73544 1.98488 3.99901
182 1 11.8948 0.937922 5.20637
190 1 8.88574 3.49742 1.82252
191 1 11.1641 3.01767 0.420177
192 1 10.5781 5.38273 1.41465
55 2 14.0481 1.05272 1.68542
197 1 9.28687 3.89782 8.22104
198 1 10.8538 3.17933 6.25193
5 2 16.1912 2.8372 8.98411
76 2 8.03416 8.60492 7.41693
176 1 13.3137 1.38335 0.248856
194 1 5.27489 7.23723 4.13619
216 1 9.14817 8.60427 0.815751
8 2 14.8717 3.79018 14.3309
17 2 12.9324 5.9434 13.4418
234 1 8.32465 7.44118 12.3615
62 2 9.04222 2.50686 14.7099
63 2 11.1583 2.25028 11.0309
70 2 10.3366 4.57092 12.9641
71 2 6.13373 6.23556 15.3925
72 2 8.60267 6.3207 11.2547
79 2 7.37657 8.31452 13.2687
175 1 12.9033 0.986646 13.9559
233 1 6.59572 7.58575 14.4945
97 1 13.7128 4.89755 14.2887
185 1 9.57624 1.63976 15.9937
66 2 8.39696 5.72964 17.5279
187 1 12.2757 2.59412 9.84454
183 1 14.4264 0.655511 11.7537
189 1 11.6575 0.835645 11.6653
195 1 12.5687 6.71575 16.6957
205 1 9.91303 3.78229 14.2797
206 1 11.1081 3.51182 12.0937
207 1 11.3395 5.89169 13.4225
209 1 7.4506 5.63969 16.2309
211 1 9.99422 6.57456 10.5672
215 1 7.84956 6.83156 18.5273
213 1 9.02021 5.00999 12.1027
111 1 13.6752 6.90003 12.4283
188 1 9.71115 2.19516 10.2683
196 1 9.39891 4.63017 18.2266
212 1 7.35445 6.24089 10.2637
61 2 13.0452 0.380147 12.5137
57 2 12.5954 2.73145 18.664
85 1 15.1528 3.24912 15.7856
186 1 8.32875 2.35803 16.1747
184 1 8.43209 1.7205 13.4418
20 2 11.3528 10.1895 4.00292
23 2 10.6415 10.0547 8.37876
107 1 10.8723 11.1744 7.25093
232 1 7.82673 12.034 4.91533
225 1 9.50811 9.01395 8.08486
78 2 7.07086 10.6875 5.31072
102 1 11.3803 10.0185 2.49005
229 1 8.31943 10.8413 4.20583
230 1 5.66037 10.4469 4.50839
218 1 4.46724 12.0145 2.6257
115 1 11.9726 9.7908 9.27833
231 1 7.45328 9.95601 6.74369
74 2 4.4697 10.649 3.4187
227 1 3.8299 12.1614 8.84146
217 1 4.34788 9.35753 2.19255
77 2 3.49713 10.7194 9.4725
26 2 10.6972 11.8073 15.3249
113 1 11.7396 10.8538 14.5662
81 2 6.06018 10.348 11.1479
114 1 10.1644 12.9638 14.4347
220 1 10.839 12.1147 16.8853
221 1 6.86743 9.39666 18.5542
237 1 5.24305 9.98345 16.2148
238 1 3.96923 12.03 14.8374
240 1 7.21083 10.3646 9.98023
222 1 6.98118 11.8098 17.3571
242 1 6.39842 9.18434 12.2675
243 1 7.18104 11.4531 10.9458
75 2 6.22374 10.3912 17.4928