ITEM: TIMESTEP
0
ITEM: NUMBER OF ATOMS
243
ITEM: BOX BOUNDS xy xz yz pp pp pp
-7.0765199999999986e+00 1.7691299999999998e+01 -7.0765199999999986e+00
0.0000000000000000e+00 1.7691299999999998e+01 0.0000000000000000e+00
0.0000000000000000e+00 1.8963100000000001e+01 0.0000000000000000e+00
ITEM: ATOMS id type x y z
2 2 -0.808239 2.54973 3.99916
3 2 2.93822 2.95955 0.843192
156 1 4.09525 7.7989 6.05621
6 2 1.75838 2.19413 5.55285
10 2 0.400834 4.35249 1.81268
193 1 6.28528 5.23062 2.26759
13 2 0.724276 4.66262 7.04273
15 2 -0.290712 7.08166 5.17271
28 2 7.15245 0.420187 1.87078
100 1 -2.24497 8.00871 1.73472
155 1 2.28283 7.78674 7.89562
29 2 4.07471 1.80489 3.41643
46 2 3.41384 8.5891 0.940861
194 1 5.83588 7.06125 4.16292
32 2 4.27407 2.66016 9.15211
33 2 6.7107 2.31565 4.9542
37 2 5.60077 4.36031 1.05504
38 2 2.03125 6.81604 3.06758
105 1 -2.6559 8.45256 7.76968
40 2 5.41562 4.50601 6.95085
41 2 1.91145 6.73976 9.03727
42 2 4.52926 6.71432 4.97863
86 1 0.828591 1.37313 9.34104
49 2 3.35516 8.65336 7.17004
82 1 3.23947 1.48897 0.268497
83 1 0.572562 1.93969 4.43001
84 1 1.60547 1.02526 6.7189
88 1 -0.74801 3.61408 2.78978
89 1 1.40522 3.25022 1.16329
90 1 -0.439223 5.22527 0.74475
91 1 -0.243002 3.54177 7.71503
92 1 1.67614 3.7622 6.08014
93 1 -1.26855 6.78814 3.93054
94 1 -0.135531 5.76393 6.14038
4 2 1.95737 0.978068 8.29801
5 2 -0.244676 2.61934 9.04016
31 2 7.69398 0.378883 7.07881
106 1 -0.818734 8.3511 6.04082
118 1 3.68177 0.464599 2.58959
119 1 3.16351 1.99935 4.73346
120 1 6.66438 0.627745 0.367952
121 1 3.46776 1.36105 8.58406
123 1 5.6047 1.84107 3.85716
124 1 7.43344 0.992764 5.58183
130 1 3.97028 3.30516 2.023
131 1 6.79723 3.36923 0.54239
132 1 1.47851 5.37517 2.55423
133 1 1.09812 7.38933 4.30355
11 2 -2.52754 7.20617 3.06131
135 1 4.43412 3.82464 7.99147
136 1 6.11672 3.30428 6.16514
137 1 1.38736 5.32009 8.31237
139 1 3.38457 6.52315 3.87413
140 1 4.71418 5.39943 5.86617
148 1 2.33646 7.72739 1.775
1 2 2.91223 0.129492 1.16685
98 1 -1.86932 6.35654 9.35063
200 1 6.50902 5.22451 7.91869
146 1 3.18316 6.39157 10.0514
9 2 1.99173 2.28292 11.0709
16 2 0.0858229 4.42293 12.4472
18 2 -0.814736 6.79625 10.5072
25 2 -2.6025 8.62472 12.241
210 1 5.43086 6.40708 16.4027
35 2 3.74325 2.69987 14.8364
36 2 6.76043 2.49566 10.9908
43 2 5.59016 4.54597 12.9626
44 2 1.71448 6.34297 14.3428
45 2 4.41137 6.64629 10.9998
30 2 6.82526 2.08018 18.5552
128 1 5.71314 2.28207 9.70702
208 1 6.35963 5.20148 14.2502
87 1 2.29147 0.956646 11.9231
95 1 -1.09071 3.48415 13.1137
96 1 1.10886 3.36774 11.8528
12 2 -0.551845 6.25777 18.4403
165 1 -1.95871 8.73376 13.7485
99 1 -0.575384 5.40037 11.3404
201 1 5.71436 6.62748 10.1092
112 1 -1.39349 8.08149 11.299
122 1 3.24871 2.99461 10.358
125 1 2.44885 1.79984 14.4177
126 1 4.91409 1.7461 15.5035
127 1 4.29126 2.76296 16.3595
52 2 3.24546 8.67837 12.9336
129 1 6.69872 1.19636 12.0061
138 1 0.7172 7.32293 9.96283
141 1 4.48055 3.50204 13.6207
142 1 6.48079 3.79984 11.9082
143 1 0.839795 5.30962 13.5329
144 1 2.4415 5.91773 15.689
145 1 1.12134 6.57044 15.7729
39 2 4.85448 6.52106 17.9584
147 1 4.58876 5.67206 12.2374
163 1 2.23213 7.6629 13.573
164 1 4.1161 8.04979 11.6385
7 2 1.89242 0.615157 13.5013
34 2 7.52705 0.473621 13.1357
149 1 4.13073 7.72455 18.7052
134 1 5.00587 5.16046 18.7608
101 1 -0.281759 7.79896 18.8797
85 1 -0.429045 2.09372 15.2562
226 1 4.51707 9.2416 8.2093
24 2 -2.8025 11.1563 4.9482
47 2 -0.0845195 10.951 3.26904
162 1 2.85952 12.3614 5.44677
22 2 -1.52286 9.33537 7.08253
51 2 2.50987 10.8408 5.09599
161 1 2.65815 9.90336 6.48603
219 1 3.52898 10.2108 4.00716
217 1 4.50446 9.25817 1.90491
109 1 -2.28518 10.5811 6.30701
110 1 -2.95418 12.7534 5.09807
150 1 -0.00174088 9.62 2.31841
151 1 0.0480368 12.2346 2.34942
152 1 -1.53252 10.8607 3.98276
153 1 2.59419 9.83237 0.192295
160 1 1.03513 10.7516 4.47639
157 1 -0.603624 9.88837 8.31381
158 1 -0.0751515 12.3544 8.46519
19 2 -1.02643 8.86781 0.948579
103 1 -1.81527 10.0825 0.114334
50 2 -0.48515 11.0891 9.36233
27 2 -3.34307 11.1292 10.7143
53 2 -1.56891 9.82645 14.8515
54 2 2.11938 10.8842 11.1365
48 2 2.95703 10.8634 17.9613
104 1 -3.09273 12.0589 17.6668
116 1 -3.28528 10.0235 11.8507
117 1 -4.03434 12.546 11.2071
159 1 -1.91655 11.4328 10.0689
154 1 3.53355 12.2481 18.4276
166 1 -0.144462 10.7346 14.6264
167 1 -1.42952 11.378 14.3699
168 1 -2.23252 9.7967 16.3984
169 1 0.653122 10.7931 10.494
170 1 2.37012 9.89037 12.3775
171 1 2.03785 12.3449 11.6497
228 1 3.28321 10.6947 10.055
236 1 4.19419 9.14464 14.1496
239 1 3.2826 10.2344 16.5368
21 2 -2.45457 10.5887 17.7332
80 2 4.52324 10.1396 15.4317
177 1 14.863 1.21115 6.34658
58 2 13.4005 0.732318 6.70197
199 1 11.4395 5.11632 7.87154
174 1 7.90287 3.08662 4.09202
224 1 8.54666 7.95184 5.8254
56 2 9.03584 2.52111 3.02513
223 1 7.05875 7.77557 8.11995
214 1 7.29165 7.52978 1.89732
59 2 9.259 2.21579 8.96467
60 2 11.5925 2.44248 4.90189
64 2 10.4627 3.56948 0.51104
65 2 6.90746 6.53432 3.0753
204 1 9.45886 5.53266 6.34084
67 2 10.3121 4.40181 7.06187
68 2 6.79743 6.43628 8.91987
69 2 9.15517 6.57667 5.15902
73 2 8.19553 7.89517 0.552129
76 2 7.88933 8.66869 7.08229
172 1 14.5546 1.32742 1.25938
202 1 10.6005 6.89774 4.54518
191 1 10.98 2.06248 0.252914
203 1 8.28929 6.13639 3.88422
180 1 12.8289 2.97181 4.03495
181 1 10.3113 1.99921 3.89707
182 1 12.1145 1.13791 5.7693
190 1 9.50668 3.56711 1.90033
14 2 14.8134 6.93737 8.28161
192 1 11.8234 4.39502 0.83816
173 1 8.46257 1.17325 2.34574
197 1 9.45745 3.55716 8.07663
198 1 11.066 3.45352 5.99899
55 2 13.734 0.0149915 1.00222
178 1 8.84281 0.974064 8.0006
8 2 16.0974 2.915 14.5432
17 2 13.3926 6.30179 13.0346
234 1 8.24035 6.94121 12.3191
62 2 9.98142 2.1351 14.0677
63 2 11.8956 2.10045 10.6737
70 2 10.9873 4.53744 12.3993
71 2 6.72596 6.20077 15.515
72 2 9.13078 6.55862 11.017
79 2 7.97659 8.08737 13.4402
175 1 13.4373 2.65424 15.6752
233 1 7.32567 7.53022 14.8118
97 1 14.5052 5.48102 13.8394
185 1 10.7998 1.78975 15.4593
66 2 8.92738 5.49987 17.6726
187 1 13.2389 1.82744 9.84763
196 1 9.66199 4.20068 18.24
189 1 11.9481 0.822587 11.6761
195 1 12.9133 8.3072 18.4928
205 1 10.0198 3.64494 13.3872
206 1 11.8827 3.47475 11.5027
207 1 11.9128 5.63555 13.2428
209 1 7.85832 5.51033 16.4762
211 1 9.87149 7.838 10.4296
215 1 8.76211 6.58509 18.7562
213 1 10.1439 5.35704 11.401
111 1 13.9194 7.44215 12.03
188 1 10.6784 1.81094 9.69671
183 1 14.1143 0.578737 13.2845
212 1 8.0704 6.05315 9.86575
221 1 7.30464 8.65414 18.3665
57 2 11.7359 1.13924 18.1087
186 1 9.39651 2.19479 15.579
184 1 9.08722 1.03329 13.2165
179 1 8.16516 2.49892 10.1387
176 1 12.8332 0.0972066 18.5701
235 1 9.4557 8.5383 13.8222
20 2 12.2671 10.506 3.5052
23 2 11.8092 11.0549 9.02354
229 1 8.67699 10.7783 4.36085
232 1 8.05563 12.0567 4.60524
227 1 5.10205 11.7188 8.49951
78 2 7.13201 10.6883 4.93295
102 1 12.8105 10.7726 2.00832
107 1 11.7224 11.3297 7.42276
230 1 6.11481 10.2999 3.82364
218 1 4.78571 11.8385 2.28341
216 1 9.34366 9.0175 0.890242
231 1 7.07764 9.91063 6.41606
74 2 4.71756 10.4468 3.00464
225 1 9.2628 9.16284 7.67441
108 1 13.4762 10.4563 4.60129
77 2 4.69974 10.4255 9.38085
26 2 11.5503 12.4693 15.5233
115 1 13.2649 10.6136 9.56765
81 2 7.12568 10.323 11.3877
114 1 12.1438 13.8566 15.0723
220 1 10.4872 12.342 16.6561
113 1 12.094 11.1561 14.6517
237 1 5.95313 9.70429 16.1012
238 1 4.79107 11.6063 14.7737
240 1 8.52397 11.0003 11.0521
222 1 6.90616 11.2606 18.1215
242 1 7.1355 9.29671 12.6393
243 1 7.48951 11.9014 11.5239
75 2 6.97097 9.85221 17.3648
241 1 6.00684 10.1773 10.2672
61 2 6.01366 17.5131 12.3332
ITEM: TIMESTEP
100
ITEM: NUMBER OF ATOMS
243
ITEM: BOX BOUNDS xy xz yz pp pp pp
-7.0765199999999986e+00 1.7691299999999998e+01 -7.0765199999999986e+00
0.0000000000000000e+00 1.7691299999999998e+01 0.0000000000000000e+00
0.0000000000000000e+00 1.8963100000000001e+01 0.0000000000000000e+00
ITEM: ATOMS id type x y z
2 2 -0.885402 2.70305 4.04076
3 2 2.83472 3.04569 0.902226
156 1 3.97267 7.87818 5.97397
6 2 1.6572 2.26415 5.60487
10 2 0.320241 4.40753 1.86605
193 1 6.04262 5.32583 2.36392
13 2 0.703399 4.76407 7.07894
15 2 -0.244353 7.04692 5.10733
28 2 7.08592 0.638822 1.89686
100 1 -2.25334 8.18406 1.86936
155 1 2.36566 7.82041 8.08243
29 2 3.98238 1.86411 3.49713
46 2 3.46359 8.56999 0.856691
194 1 5.91089 7.13224 4.16701
32 2 4.28308 2.75977 9.16694
33 2 6.71171 2.47507 4.96003
37 2 5.54449 4.43994 1.12952
38 2 2.09042 6.74397 3.09301
105 1 -2.609 8.3646 7.63331
40 2 5.40196 4.45955 6.99313
41 2 1.95729 6.71044 9.13225
42 2 4.54403 6.75298 4.9772
86 1 0.846406 1.53823 9.3381
49 2 3.27551 8.75441 7.16504
82 1 3.09928 1.65271 0.186651
83 1 0.476529 2.00937 4.52828
84 1 1.51643 1.24908 6.85518
88 1 -0.699048 3.92744 3.00056
89 1 1.30104 3.20729 1.32475
90 1 -0.379164 5.2054 0.672002
91 1 -0.296645 3.62224 7.7188
92 1 1.60305 3.75513 6.20068
93 1 -1.39359 6.63372 4.02292
94 1 -0.0718696 5.83151 6.16564
4 2 2.01593 1.07413 8.33341
5 2 -0.201878 2.76959 9.14582
31 2 7.53821 0.504051 7.11057
106 1 -0.700187 8.40315 5.889
118 1 3.67311 0.429881 2.67535
119 1 3.03007 1.95757 4.79625
120 1 6.60667 0.774111 0.348093
121 1 3.55588 1.44466 8.57683
123 1 5.49823 2.02562 3.99851
124 1 7.36852 1.14487 5.64936
130 1 3.90113 3.38104 2.08311
131 1 6.67973 3.48255 0.381556
132 1 1.41954 5.37587 2.60127
133 1 1.12392 7.38201 4.23802
11 2 -2.60808 7.27022 3.15501
135 1 4.39618 3.90794 8.08532
136 1 6.19549 3.26221 6.30308
137 1 1.50543 5.44887 8.2319
139 1 3.44167 6.41043 3.8747
140 1 4.87919 5.44919 5.86062
148 1 2.41856 7.65811 1.79665
1 2 3.24121 0.326302 1.08232
98 1 -1.63628 6.29462 9.14012
200 1 6.45674 5.35075 7.85823
101 1 -0.454746 7.89358 0.0773909
146 1 3.11025 6.38987 10.1146
9 2 2.07113 2.38883 11.0989
16 2 0.031193 4.4373 12.4043
18 2 -0.831246 6.80933 10.4698
25 2 -2.64904 8.59273 12.27
210 1 5.4483 6.53001 16.4535
35 2 3.73647 2.69656 14.9908
36 2 6.77549 2.5136 10.9862
43 2 5.50523 4.51404 13.0405
44 2 1.57372 6.47869 14.3636
45 2 4.41947 6.66274 10.9894
30 2 6.78914 2.15303 18.458
128 1 5.72399 2.58442 9.82669
208 1 6.40645 5.16312 14.2805
87 1 2.08883 1.02389 11.931
95 1 -0.959217 3.41302 13.1662
96 1 1.01497 3.48893 11.5934
12 2 -0.411272 6.36873 18.548
165 1 -2.09582 8.6688 13.772
99 1 -0.666299 5.49338 11.4733
201 1 5.58821 6.74569 9.87352
112 1 -1.51576 8.08953 11.2861
122 1 3.36207 3.06234 10.4265
125 1 2.46643 1.75352 14.6285
126 1 4.80652 1.61682 15.6211
127 1 4.40157 2.71156 16.467
52 2 3.27878 8.74702 12.9844
129 1 6.58782 1.14934 11.9329
138 1 0.69217 7.11288 9.99374
141 1 4.45043 3.52555 13.7567
142 1 6.44336 3.75093 11.9783
143 1 0.870306 5.29714 13.5103
144 1 2.58468 6.00564 15.5432
145 1 1.3047 6.5189 15.9615
39 2 4.83641 6.43226 17.9168
147 1 4.67872 5.57167 12.1344
163 1 2.19439 7.65534 13.52
164 1 4.15126 8.02719 11.817
7 2 1.81531 0.774365 13.5183
34 2 7.49865 0.441612 13.0448
149 1 4.1475 7.6613 18.59
134 1 4.84283 5.17514 18.8757
85 1 -0.610647 2.16484 15.5912
226 1 4.29455 9.29198 8.2692
24 2 -2.71923 11.2243 4.95047
47 2 -0.148811 10.9908 3.24202
162 1 2.97294 12.2693 5.42791
22 2 -1.51476 9.31875 6.98967
51 2 2.47479 10.8173 5.02351
161 1 2.45547 9.97937 6.37389
219 1 3.61303 10.2452 4.06576
217 1 4.59955 9.23776 1.82818
109 1 -2.23894 10.5963 6.35182
110 1 -3.03015 12.8379 4.95239
150 1 0.0115314 9.76831 2.29244
151 1 0.0489184 12.3749 2.3581
152 1 -1.67555 10.8014 3.78665
153 1 2.61977 9.74149 0.111838
160 1 0.988533 10.9303 4.42091
157 1 -0.637438 9.86825 8.24148
158 1 -0.201935 12.4018 8.57387
19 2 -1.1307 8.98375 1.0349
103 1 -1.67188 10.2309 0.0957051
50 2 -0.476685 11.0497 9.35684
108 1 -4.09844 10.3544 4.63808
27 2 -3.3662 11.1463 10.8271
53 2 -1.65177 9.82518 14.8223
54 2 2.13927 10.9352 11.0659
48 2 2.7979 10.8512 17.9337
104 1 -2.91116 12.02 17.4397
116 1 -3.23111 10.0351 11.9101
117 1 -3.97849 12.5414 11.2713
159 1 -1.91795 11.3114 10.1373
154 1 3.44426 12.2075 18.3751
166 1 -0.2794 10.6462 14.6034
167 1 -1.54127 11.3127 14.2617
168 1 -1.97643 9.66466 16.3729
169 1 0.743485 10.588 10.2671
170 1 2.55572 10.0033 12.3233
171 1 1.9574 12.4409 11.5841
228 1 3.42751 10.8543 10.1091
236 1 4.27923 9.14027 14.218
239 1 3.40759 10.2244 16.563
21 2 -2.50388 10.4973 17.6932
80 2 4.57546 10.1498 15.4298
114 1 -5.50002 13.8933 15.3165
177 1 14.7742 1.30649 6.36998
58 2 13.3447 0.884306 6.86998
199 1 11.5562 5.26236 7.69685
174 1 7.8684 3.03977 3.94867
224 1 8.54006 7.7236 5.69634
56 2 9.08429 2.56888 3.01721
223 1 7.23631 7.81657 8.05081
214 1 7.41819 7.38546 1.7868
59 2 9.21674 2.24827 9.05991
60 2 11.4653 2.43964 4.97027
64 2 10.5228 3.5985 0.531334
65 2 6.9131 6.5 3.03719
204 1 9.3615 5.47816 6.25948
67 2 10.3604 4.43625 7.04615
68 2 6.85391 6.52647 8.89507
69 2 9.23698 6.46124 5.02837
73 2 8.26602 7.96807 0.507341
76 2 8.13788 8.57389 7.01384
172 1 14.521 1.21124 1.23554
202 1 10.6085 6.91629 4.48083
191 1 11.029 2.06568 0.204549
203 1 8.28763 6.02449 3.80698
180 1 12.7064 2.91265 4.05498
181 1 10.307 1.98957 3.99207
182 1 12.1604 1.14523 5.79118
190 1 9.52997 3.63518 1.83708
14 2 14.882 6.85567 8.16344
192 1 11.8284 4.53861 0.66561
173 1 8.53817 1.26258 2.20436
197 1 9.54674 3.4713 8.05964
198 1 10.9817 3.63672 5.80108
178 1 8.72107 1.03875 8.07401
8 2 16.0845 2.90183 14.5756
17 2 13.4709 6.24642 13.1969
234 1 8.43503 6.96352 12.2348
62 2 9.92546 2.16357 14.0055
63 2 12.0823 2.1054 10.6254
70 2 11.1922 4.4691 12.3479
71 2 6.78376 6.18062 15.4747
72 2 9.1449 6.46158 10.9192
79 2 8.14749 8.09347 13.3642
175 1 13.5666 2.82754 15.9662
233 1 7.43815 7.42909 14.6943
97 1 14.7021 5.58796 14.0191
185 1 10.7832 1.54776 15.2757
66 2 8.87474 5.46277 17.7136
187 1 13.4103 1.79739 9.84431
196 1 9.64523 4.15162 18.1501
189 1 11.9772 0.813159 11.6894
195 1 13.0187 8.65681 18.2855
205 1 10.2868 3.60668 13.3478
206 1 12.1408 3.46967 11.5487
207 1 12.0182 5.60686 13.1001
209 1 7.70936 5.4288 16.6143
211 1 9.84024 7.77326 10.3531
215 1 8.85236 6.61396 18.818
213 1 10.2622 5.35716 11.3276
111 1 13.8815 7.40335 12.2258
188 1 10.7631 2.05109 9.68017
183 1 14.0831 0.418486 13.3492
212 1 8.11158 6.09278 9.74892
221 1 7.27889 8.69979 18.3426
57 2 11.8512 1.21013 18.0785
186 1 9.56199 2.26864 15.5772
184 1 8.95042 1.03906 13.2999
179 1 8.20441 2.51987 10.282
235 1 9.5262 8.65121 13.9852
20 2 12.3863 10.3743 3.5594
23 2 11.8593 10.8917 8.97997
229 1 8.49881 10.8471 4.07644
232 1 8.05343 12.0035 4.85258
227 1 5.22283 11.7493 8.3242
78 2 7.16038 10.6404 4.88082
102 1 12.7849 10.4988 2.01588
107 1 12.0021 11.5142 7.48989
230 1 6.03561 10.1656 3.88202
218 1 4.77451 11.882 2.48488
216 1 9.54474 8.91409 0.861929
231 1 7.38194 9.86957 6.25983
74 2 4.73299 10.3601 2.99196
225 1 9.24219 9.3437 7.82805
55 2 6.44318 17.6538 1.03928
77 2 4.67874 10.5097 9.26999
26 2 11.571 12.4618 15.5751
115 1 13.2222 10.5969 9.69561
81 2 7.04029 10.3677 11.5225
61 2 5.94157 17.4468 12.3996
220 1 10.5141 12.2594 16.7341
113 1 12.0104 11.1019 14.8352
237 1 5.92081 9.70795 16.1816
238 1 4.79417 11.5447 14.7273
240 1 8.49211 11.0789 11.1942
222 1 6.8648 11.389 17.9743
242 1 7.31782 9.33691 12.7327
243 1 7.49001 11.9504 11.7497
75 2 6.97782 9.96162 17.3852
241 1 5.93873 10.1591 10.3434
176 1 5.7327 17.6672 18.5743
ITEM: TIMESTEP
200
ITEM: NUMBER OF ATOMS
243
ITEM: BOX BOUNDS xy xz yz pp pp pp
-7.0765199999999986e+00 1.7691299999999998e+01 -7.0765199999999986e+00
0.0000000000000000e+00 1.7691299999999998e+01 0.0000000000000000e+00
0.0000000000000000e+00 1.8963100000000001e+01 0.0000000000000000e+00
ITEM: ATOMS id type x y z
2 2 -0.964791 2.77976 4.0553
3 2 2.86364 3.0626 0.940037
156 1 4.17905 7.91382 6.00212
6 2 1.66656 2.33406 5.50474
10 2 0.315507 4.4329 1.8647
193 1 6.11256 5.40881 2.29019
13 2 0.688371 4.77216 7.08877
15 2 -0.165927 7.11216 5.06344
28 2 7.13853 0.585536 1.82947
100 1 -2.33726 8.44388 2.14167
155 1 2.35446 7.88995 8.0235
29 2 4.03183 1.99243 3.52679
46 2 3.45679 8.50377 0.822689
101 1 -0.531534 7.78507 0.318426
32 2 4.2515 2.86033 9.15424
33 2 6.73098 2.42295 4.97044
37 2 5.54661 4.52189 1.10385
38 2 2.2354 6.68068 3.15489
105 1 -2.68979 8.24705 7.45094
40 2 5.55405 4.62096 7.01457
41 2 1.95504 6.71995 9.10541
42 2 4.63615 6.78004 4.99423
86 1 0.759244 1.54641 9.36626
49 2 3.3918 8.7763 7.11939
82 1 3.14422 1.6309 0.189071
83 1 0.448367 2.11908 4.47722
84 1 1.42104 1.28407 6.7452
88 1 -0.809929 4.02663 3.02237
89 1 1.32669 3.16909 1.43468
90 1 -0.478104 5.10448 0.675664
91 1 -0.329464 3.772 7.80621
92 1 1.54847 3.89188 6.07151
93 1 -1.42138 6.804 4.15987
94 1 -0.0712376 5.8948 6.1629
4 2 1.95678 1.20815 8.26652
5 2 -0.366113 2.81258 9.12448
31 2 7.50583 0.501761 7.16649
106 1 -0.601287 8.38289 5.94674
118 1 3.64402 0.616314 2.69651
119 1 3.09573 2.1214 4.82
120 1 6.46933 0.890658 0.388376
121 1 3.46502 1.66464 8.52776
123 1 5.58391 1.96948 3.90321
124 1 7.38408 1.0771 5.66961
130 1 3.9416 3.43451 2.03167
131 1 6.64397 3.502 0.419959
132 1 1.43823 5.45001 2.51041
133 1 1.16492 7.4297 4.14341
11 2 -2.6466 7.14528 3.17581
135 1 4.41654 4.03231 8.06986
136 1 6.18255 3.41113 6.15632
137 1 1.5921 5.42807 8.21329
139 1 3.56745 6.26092 3.91308
140 1 4.83294 5.52859 5.96282
148 1 2.65758 7.61625 1.89893
1 2 3.31146 0.303833 1.15083
98 1 -1.59046 6.33825 9.09661
200 1 6.60095 5.43315 7.92872
194 1 5.9874 7.09095 4.19707
146 1 3.0758 6.4255 10.1822
9 2 1.97871 2.48748 11.0562
16 2 0.0405937 4.50292 12.4651
18 2 -0.896093 6.76324 10.4856
25 2 -2.7507 8.51099 12.2423
210 1 5.513 6.42703 16.5192
35 2 3.84977 2.60992 15.0227
36 2 6.71207 2.4916 10.9954
43 2 5.42627 4.39709 13.0264
44 2 1.61086 6.4229 14.3832
45 2 4.48123 6.66411 11.0056
30 2 6.53477 2.24411 18.4544
128 1 5.68927 2.50088 9.7755
208 1 6.15322 5.18256 14.2805
87 1 2.21718 1.23061 12.0257
95 1 -1.05761 3.43138 13.1095
96 1 0.913865 3.57463 11.5194
12 2 -0.486749 6.3328 18.6226
165 1 -2.13721 8.64563 13.7427
99 1 -0.857506 5.60217 11.56
201 1 5.70427 6.85003 9.98745
112 1 -1.58607 8.14549 11.146
122 1 3.31889 3.17926 10.4412
125 1 2.39853 2.04162 14.5379
126 1 4.89036 1.63174 15.7213
127 1 4.38823 2.75406 16.5338
52 2 3.23303 8.70193 13.0019
129 1 6.58508 1.09009 11.834
138 1 0.583539 7.06717 9.89165
141 1 4.37415 3.52221 13.7802
142 1 6.50316 3.57975 12.1601
143 1 0.782834 5.2465 13.7102
144 1 2.47304 5.82856 15.5856
145 1 1.4381 6.74401 15.9958
39 2 4.63439 6.40579 17.8613
147 1 4.73039 5.55222 12.1709
163 1 2.05519 7.64391 13.4107
164 1 4.18412 8.05807 11.811
7 2 1.79786 0.901797 13.5376
34 2 7.43943 0.433606 13.0761
149 1 4.07672 7.68829 18.5733
134 1 4.68477 5.10727 18.8258
85 1 -0.523024 2.37023 15.4197
226 1 4.294 9.50453 8.18374
24 2 -2.64514 11.1435 4.85944
47 2 -0.0829714 11.1005 3.12089
162 1 2.84156 12.2819 5.45076
22 2 -1.46642 9.25717 7.00208
51 2 2.34793 10.8206 5.00851
161 1 2.51696 9.85567 6.29427
219 1 3.31784 10.1386 3.91487
217 1 4.58171 9.43969 1.67733
109 1 -2.0151 10.6026 6.27856
110 1 -2.93784 12.6797 5.13242
150 1 0.108499 9.83327 2.17982
151 1 0.0807925 12.439 2.26912
152 1 -1.55719 10.9393 3.65413
108 1 -3.93194 10.2097 4.55305
160 1 0.941549 11.1547 4.41579
157 1 -0.601205 9.74967 8.24665
158 1 -0.2799 12.1688 8.51492
19 2 -1.22935 9.00676 1.09369
103 1 -1.80008 10.3021 0.0803552
50 2 -0.458245 10.855 9.38302
74 2 4.70892 10.3367 3.03621
27 2 -3.32193 11.0804 10.7605
53 2 -1.58435 9.72668 14.8079
54 2 2.2089 11.0194 11.0997
48 2 2.63961 10.7197 17.744
104 1 -2.8875 11.9586 17.2228
116 1 -3.29126 9.94927 11.9133
117 1 -3.88434 12.5083 11.3629
159 1 -1.77622 11.1426 10.2156
154 1 3.1645 12.1035 18.2257
166 1 -0.282031 10.588 14.4643
167 1 -1.52712 11.2975 14.4113
168 1 -1.93612 9.5433 16.4408
169 1 0.861187 10.5559 10.3062
170 1 2.50865 9.96059 12.2888
171 1 2.07066 12.4871 11.6594
228 1 3.50137 11.0038 10.1659
236 1 4.16477 8.96445 14.2759
239 1 3.27088 10.1282 16.4091
21 2 -2.51818 10.481 17.6348
80 2 4.62439 10.0677 15.4144
114 1 -5.51176 13.9076 15.385
153 1 2.43036 9.65347 18.9065
177 1 14.7073 1.17608 6.08757
58 2 13.3323 0.885738 6.82707
199 1 11.4135 5.31401 7.86563
174 1 7.87796 3.06771 4.01632
224 1 8.68166 7.86035 5.70159
56 2 9.07492 2.49209 3.05414
223 1 7.19722 7.87286 8.08384
214 1 7.40283 7.5698 1.86794
59 2 9.19761 2.26268 9.07421
60 2 11.5361 2.52755 4.98492
64 2 10.4699 3.48411 0.508843
65 2 6.95536 6.54767 3.05427
204 1 9.38147 5.58388 6.22032
67 2 10.2526 4.54961 7.1176
68 2 6.91471 6.59696 8.95096
69 2 9.2789 6.5622 5.00613
73 2 8.33193 7.96594 0.531031
76 2 8.17549 8.63234 6.99646
172 1 14.4291 1.07043 1.31761
202 1 10.7676 6.77822 4.38381
191 1 11.1084 2.02567 0.17057
203 1 8.1977 6.05867 3.89964
180 1 12.7066 3.07159 3.97912
181 1 10.3057 1.99562 4.057
182 1 12.076 1.32544 5.89702
190 1 9.7269 3.53425 1.93462
14 2 14.9538 6.73594 8.07147
192 1 11.692 4.55972 0.776603
173 1 8.57811 1.20364 2.19871
197 1 9.4086 3.57033 8.14013
198 1 11.04 3.61567 6.02685
178 1 8.65403 1.07138 8.13276
8 2 16.0727 3.07023 14.5742
17 2 13.4937 6.10922 13.2441
234 1 8.4813 6.97139 12.2476
62 2 9.71531 2.26542 14.0076
63 2 12.0315 2.09349 10.6105
70 2 11.1164 4.49259 12.3032
71 2 6.726 6.08919 15.5372
72 2 9.22409 6.51861 10.9569
79 2 8.17872 8.03094 13.4403
175 1 13.8473 2.85566 16.2132
233 1 7.40238 7.34028 14.651
97 1 14.561 5.71437 14.3758
185 1 10.7021 1.44431 15.0785
66 2 8.98656 5.43971 17.6712
187 1 13.3008 1.99194 9.63762
196 1 9.56145 4.01983 18.2075
189 1 11.9472 0.812969 11.5692
195 1 12.8615 8.65187 18.1574
205 1 10.2312 3.6477 13.3536
206 1 12.0286 3.34242 11.5799
207 1 12.0263 5.45995 13.2198
209 1 8.07172 5.37559 16.3402
211 1 10.2478 7.62944 10.4772
215 1 8.91296 6.72699 18.6102
213 1 10.179 5.24334 11.1772
111 1 13.8825 7.32324 12.2593
188 1 10.6914 1.88912 9.66059
183 1 13.9757 0.31287 13.2259
212 1 8.14584 6.07968 9.85028
221 1 7.34476 8.7886 18.4766
57 2 11.9129 1.22162 18.008
186 1 9.48112 2.01379 15.645
184 1 8.81149 1.20899 13.0815
179 1 8.1592 2.55551 10.3024
235 1 9.58105 8.59848 13.9194
20 2 12.4171 10.1607 3.61311
23 2 11.9048 10.8439 8.92596
229 1 8.64862 10.919 4.02084
232 1 8.09446 12.0501 4.78441
227 1 5.35904 11.7153 8.36446
78 2 7.30237 10.6203 4.82457
102 1 12.8003 10.4724 2.11373
107 1 12.2041 11.5584 7.54091
230 1 6.13292 10.1359 3.77044
218 1 4.59909 11.824 2.49858
216 1 9.55535 8.90163 0.884695
231 1 7.36237 9.83388 6.25267
77 2 4.79972 10.5799 9.30386
225 1 9.46121 9.09475 7.80504
55 2 6.3423 17.5395 1.10499
26 2 11.6145 12.4105 15.6179
115 1 13.2792 10.4775 9.7366
81 2 7.0527 10.377 11.6022
61 2 5.76447 17.3896 12.3282
220 1 10.3871 12.3307 16.6407
113 1 12.3332 11.2461 14.8319
237 1 6.04681 9.78339 16.1771
238 1 4.75678 11.5434 14.7784
240 1 8.33964 11.3064 11.1717
222 1 7.0107 11.471 18.1457
242 1 7.34513 9.20365 12.7037
243 1 7.26355 11.8871 11.992
75 2 6.97172 10.0509 17.5108
241 1 5.97471 10.1592 10.3808
176 1 5.52819 17.5977 18.6962
ITEM: TIMESTEP
300
ITEM: NUMBER OF ATOMS
243
ITEM: BOX BOUNDS xy xz yz pp pp pp
-7.0765199999999986e+00 1.7691299999999998e+01 -7.0765199999999986e+00
0.0000000000000000e+00 1.7691299999999998e+01 0.0000000000000000e+00
0.0000000000000000e+00 1.8963100000000001e+01 0.0000000000000000e+00
ITEM: ATOMS id type x y z
2 2 -1.03631 2.68924 3.99329
3 2 2.84004 3.09672 0.952108
156 1 4.1355 7.94601 6.03208
6 2 1.57692 2.35686 5.45343
10 2 0.277241 4.39087 1.84798
193 1 6.25145 5.29303 2.32262
13 2 0.649073 4.80109 7.0794
15 2 -0.20498 7.06786 5.03945
28 2 7.14621 0.545211 1.74688
100 1 -2.30721 8.32907 2.22581
155 1 2.49754 7.90993 8.22528
29 2 4.01379 1.9499 3.52325
46 2 3.52322 8.51175 0.826983
101 1 -0.490881 7.7386 0.407235
32 2 4.22087 2.89452 9.2237
33 2 6.7167 2.36187 4.93484
37 2 5.51184 4.55132 1.14205
38 2 2.15048 6.7006 3.09303
105 1 -2.66301 8.25691 7.45731
40 2 5.61888 4.52628 7.09858
41 2 1.98793 6.6841 9.10969
42 2 4.69107 6.83068 5.01391
86 1 0.791242 1.41531 9.33456
49 2 3.39378 8.77499 7.1798
82 1 3.24221 1.62194 0.275886
83 1 0.324497 2.00156 4.48551
84 1 1.43519 1.30825 6.7313
88 1 -0.715914 3.93699 3.07682
89 1 1.27426 3.14878 1.27671
90 1 -0.515274 5.01336 0.570899
91 1 -0.382357 3.75438 7.76194
92 1 1.46836 3.86578 6.03394
93 1 -1.48175 6.65382 4.15761
94 1 -0.105668 5.95752 6.17716
4 2 1.94735 1.26414 8.22747
5 2 -0.414801 2.79952 9.05775
31 2 7.36156 0.521943 7.27836
106 1 -0.551304 8.42596 5.89881
118 1 3.76512 0.594015 2.72941
119 1 3.0432 2.16051 4.78141
120 1 6.33208 0.838047 0.384543
121 1 3.43987 1.66353 8.45696
123 1 5.5743 1.94242 3.89784
124 1 7.29094 1.04455 5.69802
130 1 3.95558 3.4437 2.03715
131 1 6.46963 3.54546 0.319665
132 1 1.3886 5.46531 2.40373
133 1 1.19984 7.20248 4.24798
11 2 -2.62641 7.12956 3.16835
135 1 4.37075 4.0687 8.08202
136 1 6.35744 3.35951 6.22416
137 1 1.50294 5.45616 8.25606
139 1 3.50751 6.45531 3.90549
140 1 4.99856 5.50052 5.98052
148 1 2.61732 7.62978 1.87928
1 2 3.22681 0.256765 1.23219
98 1 -1.84364 6.26795 9.22825
200 1 6.65793 5.29249 8.03227
134 1 4.55986 5.26849 0.0759359
146 1 3.16133 6.44288 10.1544
9 2 1.83326 2.47941 11.0163
16 2 -0.080596 4.55664 12.4392
18 2 -0.830314 6.93886 10.3787
25 2 -2.67181 8.49038 12.3116
210 1 5.8965 6.30224 16.833
35 2 3.80623 2.60906 14.9093
36 2 6.73628 2.59473 10.9925
43 2 5.48808 4.4149 13.0392
44 2 1.68517 6.33568 14.3535
45 2 4.51662 6.65734 10.9906
30 2 6.5664 2.18699 18.4696
128 1 5.72047 2.47851 9.73025
208 1 6.15761 5.01984 14.4281
87 1 1.98945 1.26466 12.0808
95 1 -1.1522 3.5439 13.2045
96 1 0.829348 3.67708 11.378
12 2 -0.68346 6.32309 18.625
165 1 -1.88508 8.56469 13.7403
99 1 -0.663101 5.75318 11.5242
201 1 5.71514 6.76683 9.89615
112 1 -1.5808 8.13561 11.1739
122 1 3.18526 3.13574 10.4543
125 1 2.36842 1.85258 14.6911
126 1 4.92333 1.62291 15.5999
127 1 4.30226 2.67627 16.4508
52 2 3.24295 8.7052 12.9432
129 1 6.57379 1.15287 11.7187
138 1 0.693033 7.21158 9.90822
141 1 4.55603 3.29184 13.6364
142 1 6.58831 3.80345 12.074
143 1 0.834872 5.22041 13.601
144 1 2.71785 5.91287 15.5527
145 1 1.42416 6.46913 15.945
39 2 4.70969 6.43519 17.9158
147 1 4.73351 5.41506 12.0074
163 1 2.09008 7.64845 13.4431
164 1 4.12458 7.89935 11.921
7 2 1.51483 1.01634 13.6103
34 2 7.28612 0.38861 12.9675
149 1 4.44221 7.87473 18.5546
85 1 -0.727006 2.2639 15.5574
226 1 4.44697 9.53627 8.17755
24 2 -2.57273 11.0662 4.88231
47 2 -0.0679551 11.1198 3.15248
162 1 2.95181 12.2485 5.54678
22 2 -1.44049 9.22783 7.02571
51 2 2.41262 10.7976 5.02029
161 1 2.35985 9.80293 6.42073
219 1 3.4704 10.1876 3.96565
217 1 4.56679 9.39294 1.69526
109 1 -2.01715 10.5884 6.32206
110 1 -2.94563 12.5955 4.84903
150 1 0.163232 9.97283 2.05792
151 1 0.241632 12.3995 2.2651
152 1 -1.57032 10.9156 3.62701
108 1 -3.87136 10.1925 4.50745
160 1 1.02617 10.9119 4.31498
157 1 -0.709195 9.54457 8.44385
158 1 -0.149832 12.1456 8.42427
19 2 -1.2288 8.99545 1.16778
103 1 -1.98854 10.0976 0.135981
50 2 -0.428751 10.8692 9.36233
74 2 4.68357 10.4006 2.96347
153 1 2.47685 9.51551 0.0222099
27 2 -3.28302 11.0305 10.7827
53 2 -1.56942 9.88322 14.7202
54 2 2.2737 11.1126 11.1379
48 2 2.60129 10.5571 17.7529
104 1 -2.98665 11.9744 17.4486
116 1 -3.33209 9.97456 12.0158
117 1 -3.81736 12.4617 11.1215
159 1 -1.76844 11.2164 10.201
154 1 2.84709 12.0394 18.2186
166 1 -0.143855 10.4816 14.3826
167 1 -1.25165 11.401 14.1515
168 1 -1.85649 9.60614 16.3274
169 1 0.922102 10.7503 10.3512
170 1 2.66279 10.0533 12.2711
171 1 2.00577 12.6072 11.7881
228 1 3.51486 11.1319 10.0444
236 1 4.22266 9.08382 14.158
239 1 3.44273 10.062 16.4533
21 2 -2.44495 10.4644 17.5975
80 2 4.62971 10.1207 15.3272
115 1 -4.22777 10.5873 9.56
114 1 -5.50706 14.0076 15.5745
177 1 14.7453 1.22226 6.05297
58 2 13.3862 0.844001 6.76341
199 1 11.4274 5.17623 8.02042
174 1 7.91546 2.94601 3.99247
224 1 8.86055 7.95668 5.68643
56 2 9.10706 2.47304 2.97311
223 1 7.38014 7.8683 7.92206
214 1 7.47329 7.52907 1.92395
59 2 9.17466 2.28016 9.02163
60 2 11.5124 2.5444 4.99252
64 2 10.493 3.60496 0.508627
65 2 7.06444 6.50533 3.12045
204 1 9.40845 5.69489 6.40697
67 2 10.2529 4.57271 7.20316
68 2 7.02365 6.62514 8.88907
69 2 9.39257 6.55102 5.07511
73 2 8.19242 7.92603 0.513983
76 2 8.3187 8.68889 6.9569
172 1 14.3105 0.965011 1.45024
202 1 10.8164 6.89579 4.46794
191 1 10.9487 2.01813 0.210002
203 1 8.39659 5.96976 3.91408
180 1 12.6926 3.08727 4.08726
181 1 10.2712 2.11051 4.01355
182 1 12.0909 1.23737 5.87641
190 1 9.46386 3.50807 1.78858
14 2 14.8468 6.80501 8.07949
192 1 11.8294 4.37305 0.854316
173 1 8.5989 1.19365 2.10751
197 1 9.22953 3.5794 8.03553
198 1 11.0757 3.68003 6.09397
178 1 8.58289 1.06355 8.1578
194 1 6.08758 7.16665 4.2026
216 1 9.51195 8.80353 1.00151
8 2 15.9911 3.23261 14.7303
17 2 13.3938 6.21 13.2651
234 1 8.43375 6.89978 12.3187
62 2 9.56921 2.2646 13.9374
63 2 11.9689 2.08363 10.5444
70 2 11.134 4.42309 12.3859
71 2 6.74311 6.07699 15.5274
72 2 9.33122 6.5289 10.987
79 2 8.11914 8.04804 13.4078
175 1 13.7743 2.9496 16.629
233 1 7.31905 7.30154 14.6935
97 1 14.2875 5.81044 14.4673
185 1 10.7251 1.80591 14.967
66 2 8.87632 5.42942 17.6675
187 1 13.2041 2.05389 9.51269
196 1 9.56418 4.11255 18.2334
189 1 11.9786 0.709891 11.4102
195 1 12.8497 8.52389 17.9826
205 1 10.0008 3.7056 13.35
206 1 12.0428 3.4052 11.5191
207 1 11.9216 5.61243 13.2386
209 1 8.02281 5.3696 16.3219
211 1 10.2498 7.742 10.5595
215 1 8.74549 6.65023 18.6874
213 1 10.1767 5.22794 11.3529
111 1 13.9372 7.3478 12.2287
188 1 10.6765 1.98961 9.60278
183 1 14.02 0.377519 13.2497
212 1 8.25863 6.3353 9.82463
221 1 7.23596 8.78505 18.4486
57 2 11.8236 1.21636 18.1114
186 1 9.41366 2.21336 15.5126
184 1 8.69909 1.10102 13.2016
179 1 8.21842 2.53009 10.307
235 1 9.54064 8.63355 13.8468
20 2 12.512 10.1322 3.64318
23 2 12.0066 10.9919 8.91157
229 1 8.84045 10.9828 4.15517
232 1 7.97282 12.0911 4.64265
227 1 5.54104 11.9295 8.61308
78 2 7.359 10.6021 4.75823
102 1 12.7139 10.3709 2.10232
107 1 12.263 11.4947 7.42595
230 1 6.11857 10.3173 3.74386
218 1 4.67127 11.9588 2.57148
55 2 6.21359 17.4795 1.2006
231 1 7.49894 9.90345 6.22351
77 2 4.85098 10.6729 9.27645
225 1 9.70985 9.08786 7.67717
26 2 11.5607 12.5452 15.5734
176 1 5.43714 17.5753 18.7119
81 2 7.02135 10.3199 11.4986
61 2 5.72418 17.4563 12.4174
220 1 10.3773 12.042 16.4895
113 1 12.2711 11.3968 14.777
237 1 5.99559 9.72658 16.1522
238 1 4.81893 11.53 14.7008
240 1 8.24703 11.3015 11.1199
222 1 6.99818 11.4225 18.0578
242 1 7.25425 9.18843 12.6441