ITEM: TIMESTEP
0
ITEM: NUMBER OF ATOMS
243
ITEM: BOX BOUNDS xy xz yz pp pp pp
-1.0614780000000000e+01 1.7691299999999998e+01 -1.0614780000000000e+01
0.0000000000000000e+00 1.7691299999999998e+01 0.0000000000000000e+00
0.0000000000000000e+00 1.8963100000000001e+01 0.0000000000000000e+00
ITEM: ATOMS id type x y z
173 1 7.41379 1.36929 2.64934
3 2 2.27079 2.62783 0.763512
156 1 2.85531 7.86345 5.96933
6 2 0.59262 2.33615 5.14064
10 2 -0.342424 4.2713 1.05575
193 1 5.34114 5.38036 2.10143
13 2 -0.367872 4.63307 6.88981
15 2 -1.43835 6.84521 4.84686
28 2 5.88414 0.949828 2.21795
100 1 -3.20871 7.30381 1.45352
155 1 1.04226 7.75215 8.01029
29 2 3.38091 2.24643 3.455
178 1 7.73937 1.40934 8.3428
194 1 4.38815 6.9808 3.96396
32 2 3.01221 2.87679 9.13512
33 2 5.76873 2.80262 5.43619
37 2 4.74296 4.52428 0.835842
38 2 0.982795 6.61846 2.79485
105 1 -3.91604 7.60684 7.33708
40 2 4.39799 4.84544 7.21723
41 2 0.657016 6.59939 9.03647
42 2 3.1555 6.63792 4.98554
46 2 2.42829 8.76567 0.852243
49 2 2.00415 8.65558 7.07618
82 1 2.66635 1.09071 0.448751
83 1 -0.804233 2.29977 4.28754
84 1 0.9133 1.11155 6.10463
88 1 -1.67086 3.87024 2.00554
89 1 0.711257 3.01739 0.866596
98 1 -2.97372 5.95458 9.4465
91 1 -1.42661 3.68131 7.55661
92 1 0.669262 3.73509 6.0491
93 1 -2.77507 6.61296 4.02672
94 1 -1.03099 5.52582 5.69528
4 2 1.30482 0.846241 7.6993
22 2 -2.78559 8.7083 6.86863
31 2 6.47761 0.793435 7.55021
106 1 -1.66329 7.91988 6.03108
118 1 3.99615 0.331731 2.84206
119 1 1.91112 2.32656 4.07618
120 1 5.75923 0.864868 0.595669
121 1 2.54324 1.49005 8.43232
123 1 4.56219 2.87841 4.38537
124 1 6.03013 1.33485 6.1226
130 1 3.1636 3.42317 1.82524
131 1 5.85331 3.66961 0.0939698
132 1 0.529137 5.36494 1.92833
133 1 -0.390149 7.14431 3.60058
11 2 -3.81137 7.11295 2.93703
135 1 3.27631 4.03354 8.04057
136 1 5.54332 3.85143 6.74453
137 1 0.333291 5.41266 8.08237
139 1 1.97389 6.30558 4.0089
140 1 3.71119 5.46209 5.90994
148 1 1.6146 7.6826 1.69886
19 2 -2.24086 8.57185 0.696209
2 2 -1.75959 3.49779 3.6341
200 1 4.98308 6.02212 8.11314
146 1 1.77313 6.28141 10.16
9 2 0.514657 2.5154 10.8716
16 2 -1.04262 4.46614 12.8396
18 2 -1.98325 6.4893 10.6445
25 2 -4.07252 8.07196 12.1766
208 1 4.98177 5.07707 14.2956
35 2 3.02994 2.01954 14.557
36 2 5.5895 2.5551 10.9699
43 2 4.22268 4.42728 13.0564
44 2 0.304909 6.42719 14.8691
45 2 3.06577 6.64021 11.137
34 2 6.5497 0.446619 12.9771
52 2 1.72362 8.62796 13.2021
7 2 0.996541 0.340216 12.9404
87 1 1.08959 1.17029 11.5861
184 1 7.91918 1.18829 13.4393
96 1 -0.108592 3.3986 12.0826
12 2 -0.911967 6.46161 17.708
164 1 2.61519 7.76038 12.159
99 1 -1.7248 5.28522 11.6562
201 1 4.27238 7.18651 10.2642
112 1 -2.64294 7.66437 11.5328
122 1 1.79986 3.28153 10.1433
125 1 2.24847 0.790349 13.933
126 1 4.25376 1.57154 15.4944
127 1 2.96294 1.83702 16.1353
179 1 6.92541 2.93904 10.1664
129 1 5.84553 1.05727 11.6597
138 1 -0.638062 7.0106 9.95287
141 1 3.15005 3.40393 13.6898
142 1 5.22277 3.55671 12.1488
143 1 -0.238234 5.28206 13.9593
144 1 1.55994 5.83009 15.6903
145 1 -0.734386 6.7328 16.1031
39 2 4.06426 6.81019 18.0669
147 1 3.58828 5.40209 11.9606
163 1 0.645357 7.67892 13.9191
210 1 4.37262 6.61199 16.4931
128 1 4.34367 2.40233 9.86395
134 1 3.89498 5.44407 18.8408
101 1 -1.29925 7.69874 18.6395
149 1 3.29392 8.05182 18.6229
86 1 -0.651808 2.26638 9.7694
30 2 6.10769 2.11943 18.6159
90 1 -0.736108 4.99091 18.3365
116 1 -5.09408 8.54594 10.9656
108 1 -5.55709 10.0793 4.32658
24 2 -4.06349 10.7733 4.78779
47 2 -1.50918 10.6532 2.99558
162 1 0.673799 12.1438 5.62518
50 2 -2.36506 10.3927 9.37393
51 2 0.749691 10.6839 5.08195
161 1 0.941055 9.58503 6.28394
219 1 1.86586 10.3303 4.00133
226 1 2.90015 9.62933 8.01145
109 1 -3.52412 9.87995 5.9773
110 1 -4.48499 12.2327 5.43789
150 1 -1.47833 9.44156 1.90746
151 1 -0.959109 11.9787 2.3354
152 1 -3.04556 10.7271 3.53246
153 1 1.43442 9.80429 0.113331
160 1 -0.710339 10.4578 4.38025
157 1 -2.25082 9.25169 8.29083
158 1 -1.89472 11.6435 8.52357
102 1 -6.45998 11.5321 2.13879
1 2 -7.4921 17.6603 1.544
27 2 -5.43339 10.0103 10.2614
53 2 -3.14648 10.2762 14.3629
54 2 0.255243 10.6237 11.0806
48 2 1.17844 10.8671 17.9076
104 1 -4.01659 11.9311 17.6478
103 1 -3.12057 9.62846 18.7287
117 1 -5.9654 11.035 11.3228
228 1 1.28977 10.5876 9.84623
154 1 -0.100508 11.7519 17.9878
166 1 -1.61601 10.0072 13.9986
167 1 -3.6189 11.744 13.9239
168 1 -3.32432 9.97194 15.9801
169 1 -1.28127 10.0934 10.5722
170 1 0.891484 9.76715 12.375
171 1 0.0601961 12.0729 11.7277
165 1 -3.96413 9.21089 13.4107
236 1 2.75466 9.25829 14.2646
239 1 1.69034 10.3172 16.5123
21 2 -3.31528 10.5312 17.438
159 1 -3.99059 10.4465 9.7355
174 1 7.03744 3.13927 4.45168
55 2 12.8372 0.41969 0.865764
199 1 10.4713 5.63161 8.08451
14 2 13.4954 6.71625 8.63518
224 1 7.28747 7.61564 6.40561
56 2 8.12521 2.65311 3.39974
223 1 6.29076 8.23955 8.79088
214 1 5.94222 7.66668 1.94258
59 2 8.27062 2.69654 9.18362
60 2 10.6505 2.27192 5.23568
64 2 9.63778 4.43271 1.3794
65 2 5.69117 6.58004 3.11151
204 1 8.80654 5.53826 6.05979
67 2 9.5835 4.67508 7.15186
68 2 5.51567 6.90796 9.32124
69 2 8.03404 6.71557 5.26647
73 2 6.8264 8.37157 0.751824
215 1 7.71004 7.1692 0.112736
172 1 13.7228 1.16762 1.98231
202 1 8.96299 7.65753 4.44262
76 2 7.20573 8.83792 7.44431
203 1 6.9599 6.29462 4.1301
180 1 11.946 2.59422 4.32573
181 1 9.49527 2.21546 4.13578
182 1 10.8441 0.781453 5.85194
190 1 8.39496 3.74534 2.23172
191 1 10.7856 3.23111 1.03602
192 1 10.4555 5.59221 2.14388
198 1 10.4128 3.45307 6.42399
197 1 8.56937 3.86064 8.10302
5 2 15.8846 2.92301 8.92284
8 2 15.448 2.35102 14.6746
17 2 11.9267 6.27179 13.8938
234 1 7.32781 7.20556 12.5473
62 2 8.65765 2.1909 14.4674
63 2 10.9873 2.67968 10.7569
70 2 9.78948 4.54179 12.7742
71 2 5.3961 6.3332 15.2407
72 2 7.83236 6.30452 11.3295
61 2 12.7103 0.468626 11.9506
175 1 14.0304 1.91537 15.2989
233 1 5.64623 7.6755 14.3437
97 1 12.4763 5.58174 15.2153
185 1 9.51065 1.51282 15.763
66 2 8.45735 6.18993 18.0514
187 1 12.15 2.9205 9.6976
79 2 6.58799 8.43301 13.2305
189 1 11.4563 1.3767 11.5443
195 1 11.0785 7.69374 16.862
205 1 9.38558 3.49059 13.8846
206 1 10.8353 3.88241 11.7282
207 1 10.475 5.87884 13.3791
209 1 6.78178 5.92156 15.9293
211 1 8.93166 7.2565 10.6619
186 1 8.21945 2.16662 16.0518
213 1 8.49213 4.91306 11.8649
111 1 13.0416 6.72562 12.8204
188 1 9.57765 2.39566 10.0283
183 1 14.129 1.16561 11.7198
212 1 6.66143 6.20762 10.2113
176 1 12.3413 1.40916 18.6495
85 1 16.7532 1.42402 14.6251
196 1 9.1903 4.96561 18.8172
57 2 11.731 2.93385 18.6751
95 1 15.5151 3.56264 13.6156
20 2 10.8816 10.5518 3.34937
23 2 9.55383 10.3163 8.82078
107 1 9.35478 11.8343 8.33831
232 1 6.69272 12.0024 4.89282
225 1 8.71469 9.26042 7.9646
78 2 6.03636 10.5477 5.06838
115 1 11.0885 9.94074 9.15576
216 1 7.83936 9.4505 1.36371
230 1 4.63759 10.1746 4.21955
218 1 3.48577 12.1144 2.92742
77 2 2.74303 10.7321 9.20686
231 1 6.35699 9.93443 6.59465
74 2 3.31352 10.5601 3.31221
227 1 3.08757 12.2401 8.56565
229 1 7.37009 10.8908 4.19961
217 1 3.45368 9.7083 1.9019
58 2 1.34651 17.3347 6.23862
177 1 2.82844 17.6861 6.70765
26 2 9.01997 11.9864 15.7104
113 1 10.255 11.1931 16.2903
81 2 5.14276 10.3833 11.1661
114 1 9.01848 12.2393 14.1662
220 1 7.6718 12.0218 16.5985
80 2 3.09344 10.2092 15.5976
237 1 4.36868 9.78251 16.5296
238 1 3.29853 11.7048 15.1355
240 1 6.4142 11.0688 10.4495
222 1 4.53982 11.6082 18.3216
242 1 5.59126 9.23398 12.2536
243 1 5.60703 11.9052 11.3867
75 2 5.1936 10.2804 17.8479
241 1 3.74791 10.2115 10.3404
235 1 7.56628 9.40676 14.0121
221 1 6.02128 9.17238 18.5558
ITEM: TIMESTEP
100
ITEM: NUMBER OF ATOMS
243
ITEM: BOX BOUNDS xy xz yz pp pp pp
-1.0614780000000000e+01 1.7691299999999998e+01 -1.0614780000000000e+01
0.0000000000000000e+00 1.7691299999999998e+01 0.0000000000000000e+00
0.0000000000000000e+00 1.8963100000000001e+01 0.0000000000000000e+00
ITEM: ATOMS id type x y z
173 1 7.16135 1.39795 2.8136
3 2 2.24217 2.68977 0.796151
156 1 2.79886 7.70658 6.07297
6 2 0.59448 2.36604 5.10118
10 2 -0.289574 4.39849 1.04604
193 1 5.33167 5.34967 2.19859
13 2 -0.351574 4.62364 6.95429
15 2 -1.45634 6.76112 4.90075
28 2 5.65523 1.22528 2.19812
100 1 -3.12008 7.51326 1.52578
155 1 1.16178 7.92244 8.12927
29 2 3.30305 2.30214 3.59638
178 1 7.76201 1.44768 8.25574
194 1 4.31671 7.09374 3.89775
32 2 2.95675 2.84648 9.13792
33 2 5.87746 2.88071 5.43811
37 2 4.63485 4.64986 0.901198
38 2 0.995999 6.70947 2.93174
105 1 -3.93628 7.61935 7.37349
40 2 4.40457 4.84731 7.26196
41 2 0.729293 6.67859 9.02749
42 2 3.22901 6.68997 4.98917
46 2 2.46793 8.78023 0.927652
49 2 1.99605 8.71279 7.02482
82 1 2.63721 1.11865 0.563368
83 1 -0.87033 2.36142 4.27576
84 1 0.774662 1.0824 6.11791
88 1 -1.4994 3.98268 2.11214
89 1 0.677541 3.08424 0.810546
98 1 -3.14739 5.98283 9.44324
91 1 -1.4721 3.61426 7.5976
92 1 0.648336 3.62011 6.0796
93 1 -2.87701 6.47835 4.08957
94 1 -1.00876 5.57659 5.85785
4 2 1.08059 0.957309 7.69221
22 2 -2.81897 8.69836 6.90662
31 2 6.40189 0.875964 7.61698
106 1 -1.73727 8.0787 5.80818
118 1 3.95118 0.407892 3.04711
119 1 1.7606 2.18014 3.94111
120 1 5.81384 1.17095 0.574013
121 1 2.50452 1.55567 8.28332
123 1 4.39603 2.79007 4.75988
124 1 6.147 1.42076 6.07461
130 1 3.1789 3.40147 1.87209
131 1 5.68487 3.78413 0.0570318
132 1 0.538981 5.52313 1.94244
133 1 -0.279797 7.20341 3.80121
11 2 -3.73846 7.34335 2.99037
135 1 3.32479 4.00164 8.08868
136 1 5.54436 3.82738 6.70291
137 1 0.436905 5.46974 8.0507
139 1 2.00146 6.26809 4.07489
140 1 3.87546 5.55087 5.90374
148 1 1.53376 7.68191 1.77701
19 2 -2.20441 8.63289 0.636739
2 2 -1.77208 3.50311 3.61219
200 1 5.08149 6.01627 8.14837
1 2 3.08084 0.0746812 1.68633
146 1 1.97285 6.34493 10.0723
9 2 0.495266 2.51824 10.9039
16 2 -1.03641 4.50821 12.884
18 2 -2.0434 6.42692 10.5897
25 2 -4.11141 8.08446 12.1804
208 1 5.04741 5.2635 14.1897
35 2 3.06442 2.09192 14.4988
36 2 5.64707 2.68766 11.0007
43 2 4.25101 4.53569 13.0342
44 2 0.374752 6.41266 14.9705
45 2 3.08723 6.78944 11.1864
34 2 6.52641 0.57673 13.0312
52 2 1.60895 8.70385 13.195
7 2 0.835777 0.497263 13.0957
87 1 0.754037 1.0684 11.5665
184 1 7.94888 1.083 13.6182
96 1 -0.0350962 3.43297 12.1284
12 2 -1.16417 6.45022 17.7302
164 1 2.34768 7.80518 12.1179
99 1 -1.70756 5.18398 11.58
201 1 4.3478 7.34903 10.3249
112 1 -2.69424 7.59712 11.5919
122 1 1.78002 3.14023 10.1553
125 1 2.28848 0.767446 13.7502
126 1 4.35272 1.62367 15.3295
127 1 3.08901 1.91953 16.0697
179 1 6.91061 3.08191 10.1177
129 1 6.05679 1.21614 11.6723
138 1 -0.671879 6.85232 9.8457
141 1 3.24331 3.44926 13.675
142 1 5.32694 3.6089 12.2634
143 1 -0.415475 5.36909 14.0632
144 1 1.82494 5.842 15.4055
145 1 -0.537776 6.84261 16.3318
39 2 4.08326 6.93991 17.9626
147 1 3.44579 5.52512 12.0467
163 1 0.652521 7.75019 14.0327
210 1 4.37689 6.72828 16.3973
128 1 4.34198 2.74057 10.0051
134 1 3.92353 5.60416 18.8176
101 1 -1.21217 7.66105 18.7671
149 1 3.382 8.15927 18.7131
86 1 -0.571609 2.2593 9.71311
30 2 6.23509 2.35901 18.5725
90 1 -0.874666 4.99332 18.3744
116 1 -4.90276 8.63149 10.8974
85 1 -0.863298 1.45271 14.3025
108 1 -5.54228 10.0958 4.16234
24 2 -4.15893 10.7238 4.84371
47 2 -1.61394 10.6275 2.98099
162 1 0.881894 12.194 5.54701
50 2 -2.44981 10.5511 9.30097
51 2 0.855387 10.6944 4.99218
161 1 0.949537 9.68653 6.2815
219 1 2.12452 10.4783 4.05085
226 1 2.96231 9.69662 7.92171
109 1 -3.63479 9.85136 6.07959
110 1 -4.43 12.2497 5.28791
150 1 -1.56067 9.48523 1.84762
151 1 -1.19549 11.9171 2.18272
152 1 -3.11582 10.626 3.57691
153 1 1.573 9.965 0.261751
160 1 -0.475648 10.3707 4.13738
157 1 -2.21341 9.30036 8.32309
158 1 -1.97772 11.8892 8.6463
102 1 -6.68378 11.4412 1.9744
27 2 -5.50457 10.0131 10.2444
53 2 -3.21664 10.2308 14.3333
54 2 0.12982 10.5474 11.0137
48 2 1.30212 10.8874 17.9567
104 1 -3.74962 12.1542 17.6378
103 1 -3.20223 9.65559 18.6645
117 1 -6.04745 10.9118 11.4678
228 1 1.14109 10.4174 9.74865
154 1 0.0522503 11.8741 17.9818
166 1 -1.62149 10.1116 14.0419
167 1 -3.75425 11.7283 14.0241
168 1 -3.3498 9.90834 15.954
169 1 -1.3975 10.2986 10.5945
170 1 0.855127 9.69926 12.2404
171 1 0.231446 12.0954 11.3976
165 1 -3.91496 9.18647 13.3698
236 1 2.63524 9.24148 14.2474
239 1 1.83912 10.4229 16.5582
21 2 -3.27723 10.6259 17.4164
159 1 -4.0619 10.6096 9.667
174 1 7.10598 3.38018 4.45428
55 2 12.7729 0.415956 0.971083
199 1 10.564 5.54044 7.77387
14 2 13.3417 6.6578 8.59305
224 1 7.40013 7.51845 6.37355
56 2 8.0777 2.66923 3.33395
223 1 6.35817 8.32995 8.70153
214 1 6.29551 7.87458 2.08745
59 2 8.23832 2.77656 9.14762
60 2 10.5951 2.21655 5.32058
64 2 9.69609 4.53784 1.35925
65 2 5.67936 6.70062 3.03086
204 1 8.7022 5.41213 5.80561
67 2 9.4361 4.6436 7.03629
68 2 5.65645 6.92816 9.31849
69 2 7.95712 6.6609 5.14567
73 2 6.96506 8.48898 0.686821
187 1 12.0956 2.91866 9.44937
172 1 13.7294 1.203 1.96571
202 1 9.12836 7.5232 4.47314
177 1 13.247 0.394798 6.56476
203 1 6.7856 6.34082 4.14108
180 1 12.0035 2.68948 4.69304
181 1 9.41994 2.17934 4.10708
182 1 10.7805 0.731595 6.07631
190 1 8.48475 3.72184 2.113
191 1 10.778 3.06617 0.996648
192 1 10.33 5.63233 2.31261
198 1 10.17 3.32563 6.35957
197 1 8.40439 4.09553 8.21617
5 2 15.8692 3.01868 9.0369
76 2 7.21291 8.8237 7.39693
8 2 15.4456 2.26877 14.5571
17 2 11.9379 6.21591 13.9013
234 1 7.3192 7.26519 12.5717
62 2 8.74616 2.17599 14.5239
63 2 11.0544 2.61446 10.6146
70 2 9.83494 4.46293 12.7352
71 2 5.49957 6.33475 15.3238
72 2 7.92464 6.36501 11.378
61 2 12.899 0.555296 11.9113
175 1 14.2997 1.60613 15.3819
233 1 5.77842 7.67312 14.4176
97 1 12.3028 5.49227 15.2649
185 1 9.39035 1.56493 15.8988
66 2 8.28456 6.08776 17.896
95 1 15.4628 3.58133 13.6208
79 2 6.51649 8.4531 13.2564
189 1 11.5433 1.22915 11.3901
195 1 10.9218 7.64384 17.0474
205 1 9.3679 3.53331 13.9446
206 1 10.9482 3.77877 11.7783
207 1 10.4821 5.74888 13.3901
209 1 6.89026 6.00233 16.3414
211 1 9.034 7.27838 10.6733
186 1 8.15643 2.3681 16.0275
213 1 8.51697 4.96148 11.961
111 1 12.9408 6.7049 12.7117
188 1 9.45318 2.44077 10.1198
183 1 14.4539 1.04326 11.6944
212 1 6.76828 6.20371 10.2948
176 1 12.3363 1.35506 18.6891
57 2 11.6479 2.793 18.6794
196 1 9.2976 5.06059 18.8156
215 1 7.64458 7.11635 18.96
20 2 10.8668 10.5285 3.24166
23 2 9.57414 10.3288 8.65182
107 1 9.47188 11.8794 8.34515
232 1 6.89793 11.9604 4.8961
225 1 8.65806 9.3914 7.78878
78 2 6.04473 10.5556 5.08728
115 1 10.9839 9.79524 9.10024
216 1 8.07883 9.53552 1.23073
230 1 4.75786 10.341 4.21413
218 1 3.72046 12.0974 2.67144
77 2 2.64888 10.6786 9.2434
231 1 6.24519 9.80124 6.54291
74 2 3.4906 10.6155 3.23376
227 1 2.79546 12.15 8.6258
229 1 7.41253 10.7282 4.27837
217 1 3.34689 9.54558 2.01701
58 2 1.29311 17.2962 6.3689
26 2 9.11567 12.0132 15.6671
113 1 10.4108 11.3135 16.2794
81 2 5.13786 10.2853 11.1279
114 1 8.94317 12.4575 14.1485
220 1 7.75295 11.9828 16.5282
80 2 3.04757 10.246 15.4858
237 1 4.32113 9.81833 16.3802
238 1 3.42723 11.7178 14.9614
240 1 6.36833 11.2094 10.6728
222 1 4.88232 11.4214 18.6504
242 1 5.53616 9.16642 12.1877
243 1 5.49698 11.8059 11.6625
75 2 5.21385 10.1824 17.6948
241 1 3.69946 10.2664 10.3728
235 1 7.52426 9.41877 13.9676
221 1 5.96825 9.1368 18.6408
ITEM: TIMESTEP
200
ITEM: NUMBER OF ATOMS
243
ITEM: BOX BOUNDS xy xz yz pp pp pp
-1.0614780000000000e+01 1.7691299999999998e+01 -1.0614780000000000e+01
0.0000000000000000e+00 1.7691299999999998e+01 0.0000000000000000e+00
0.0000000000000000e+00 1.8963100000000001e+01 0.0000000000000000e+00
ITEM: ATOMS id type x y z
173 1 7.16271 1.60696 2.71738
3 2 2.34501 2.76034 0.889071
156 1 2.77681 7.87808 5.95514
6 2 0.514994 2.32265 5.13116
10 2 -0.255783 4.44802 1.06935
193 1 5.4041 5.6938 1.98679
13 2 -0.337951 4.67808 6.91961
15 2 -1.36059 6.93617 4.91805
28 2 5.72042 1.3147 2.13925
100 1 -3.32871 7.55811 1.41499
155 1 1.12343 7.85913 8.05813
29 2 3.35299 2.28056 3.65058
178 1 7.8635 1.47742 8.25745
194 1 4.4324 7.24179 3.89675
32 2 3.03671 2.89987 9.20228
33 2 5.75596 2.87185 5.48111
37 2 4.68667 4.71015 0.885374
38 2 0.991194 6.74334 2.91977
105 1 -4.06907 7.52531 7.30799
40 2 4.46386 4.93001 7.23851
41 2 0.723403 6.62565 9.01026
42 2 3.26816 6.71223 4.95675
46 2 2.42451 8.81639 0.955949
49 2 1.876 8.69271 6.95377
82 1 2.54249 1.17159 0.733615
83 1 -0.91161 2.4316 4.30262
84 1 0.707517 1.08861 6.29183
88 1 -1.35808 3.87595 2.08435
89 1 0.854115 3.27593 0.665794
98 1 -3.05875 6.05961 9.42764
91 1 -1.48231 3.85012 7.62876
92 1 0.656681 3.77053 6.0151
93 1 -2.65227 6.60091 3.97834
94 1 -1.06417 5.63901 5.8554
4 2 1.18632 0.931372 7.81736
22 2 -3.03511 8.75343 6.92089
31 2 6.67338 0.828343 7.47179
106 1 -1.88378 8.08685 6.01892
118 1 3.96193 0.455598 3.005
119 1 1.85675 2.23679 4.15424
120 1 5.70484 1.18926 0.519235
121 1 2.62108 1.53355 8.17773
123 1 4.37871 2.86141 4.7383
124 1 6.20777 1.38712 6.0203
130 1 3.27353 3.45716 1.94945
5 2 -1.78227 3.19187 9.08675
132 1 0.517208 5.56353 1.94059
133 1 -0.13245 7.34767 3.92994
11 2 -3.70894 7.34358 3.00847
135 1 3.50917 4.13298 8.23008
136 1 5.60782 3.85323 6.75629
137 1 0.546791 5.33834 8.0465
139 1 2.07762 6.18871 3.98046
140 1 3.95095 5.58727 5.92897
148 1 1.55944 7.90504 1.97391
19 2 -2.24287 8.57058 0.685766
2 2 -1.96271 3.32645 3.45517
200 1 5.17606 5.9372 8.24673
1 2 3.05438 0.0738247 1.77385
146 1 1.84134 6.33242 10.1136
9 2 0.472097 2.612 10.9616
16 2 -1.08345 4.47243 12.8058
18 2 -2.0016 6.47732 10.5369
25 2 -4.11716 8.04493 12.1531
208 1 5.13572 5.16963 14.4927
35 2 3.12269 2.04689 14.3658
36 2 5.54568 2.6776 10.9995
43 2 4.36908 4.63259 13.1659
44 2 0.34106 6.36874 14.9214
45 2 2.96683 6.78951 11.185
34 2 6.48304 0.625148 13.0887
52 2 1.53119 8.73906 13.1866
7 2 0.584321 0.718586 13.2639
87 1 0.564891 1.19227 11.7398
184 1 7.93433 1.15544 13.5414
96 1 0.144552 3.67841 12.167
12 2 -1.1319 6.45343 17.7976
164 1 2.39556 7.94469 12.1278
99 1 -1.79681 5.17793 11.5005
201 1 4.23661 7.25398 10.2883
112 1 -2.70656 7.67165 11.4783
122 1 1.86036 3.10147 10.2526
125 1 1.87725 0.881225 14.0988
126 1 4.37895 1.48755 15.2774
127 1 3.22667 2.10492 15.9715
131 1 5.75146 3.91546 18.9143
129 1 5.8096 1.25228 11.7129
138 1 -0.63679 6.9367 9.79255
141 1 3.29182 3.46778 13.577
142 1 5.36527 3.76521 12.2594
143 1 -0.625965 5.42502 14.0501
144 1 1.66723 5.71836 15.3461
145 1 -0.559043 6.69917 16.2829
39 2 3.88723 6.88485 18.0469
147 1 3.61807 5.62627 12.1508
163 1 0.688824 7.72612 14.1375
210 1 4.44431 6.60082 16.5845
128 1 4.29513 2.36292 10.0558
134 1 3.62652 5.56261 18.9334
101 1 -1.16046 7.71872 18.7713
149 1 2.92971 8.00801 18.6011
86 1 -0.630368 2.32825 9.73829
30 2 6.15918 2.38472 18.4976
90 1 -1.18915 5.00942 18.4594
116 1 -5.09159 8.64484 10.9497
95 1 -2.00736 3.40325 13.425
179 1 6.9398 3.17271 10.1569
108 1 -5.52546 10.0682 4.12408
24 2 -4.16111 10.6464 4.72634
47 2 -1.50164 10.5113 2.9244
162 1 0.84588 12.3146 5.34935
50 2 -2.44379 10.6497 9.28564
51 2 0.954108 10.7684 4.92478
161 1 0.90978 9.60842 6.09771
219 1 2.29642 10.5925 4.08258
226 1 2.74942 9.69193 7.86635
109 1 -3.93523 9.93953 6.25148
110 1 -4.5339 12.1319 4.99952
150 1 -1.4351 9.32564 1.86877
151 1 -1.54514 11.9901 2.2027
152 1 -2.77626 10.3194 3.84007
153 1 1.58389 10.0103 0.287969
160 1 -0.280348 10.5519 3.96587
157 1 -2.30068 9.39543 8.18061
158 1 -2.07709 11.98 8.43541
102 1 -6.56243 11.0448 1.87646
27 2 -5.46159 10.02 10.1922
53 2 -3.27681 10.2263 14.2989
54 2 0.115976 10.6254 11.1181
48 2 1.27404 10.8141 17.8866
104 1 -3.6008 12.0659 17.2815
103 1 -3.01714 9.66866 18.6242
117 1 -5.96085 10.9318 11.3855
228 1 1.20163 10.3591 9.96624
154 1 0.0154098 11.83 17.8191
166 1 -1.66801 10.2856 14.2688
167 1 -3.77417 11.7133 14.2181
168 1 -3.32134 9.75818 15.8981
169 1 -1.42559 10.4922 10.5841
170 1 0.464933 9.7611 12.512
171 1 0.338679 12.1703 11.3713
165 1 -3.96798 9.12998 13.3444
236 1 2.63037 9.42134 14.1706
239 1 1.87415 10.3367 16.4861
21 2 -3.2802 10.528 17.3277
159 1 -4.06033 10.5918 9.57501
174 1 6.89862 3.27977 4.40003
55 2 12.8934 0.240521 1.03704
199 1 10.5568 5.54036 7.46486
14 2 13.3471 6.61819 8.61467
224 1 7.55671 7.58394 6.37947
56 2 8.03438 2.79858 3.37218
223 1 6.37055 8.12442 8.74
214 1 6.30292 8.08933 2.0842
59 2 8.14679 2.87808 9.14568
60 2 10.4454 2.25304 5.29621
64 2 9.48501 4.44684 1.11557
65 2 5.73172 6.83346 3.06066
204 1 8.83058 5.43252 5.7373
67 2 9.39252 4.61993 6.96395
68 2 5.5672 6.90723 9.43485
69 2 8.12998 6.7397 5.14955
73 2 7.08332 8.54281 0.712186
187 1 11.9201 2.91443 9.39633
172 1 13.477 1.29625 2.12467
202 1 9.16958 7.66865 4.41092
177 1 13.2324 0.298811 6.63822
203 1 6.91144 6.40992 4.09895
180 1 11.8387 2.83073 4.76632
181 1 9.40054 2.2428 4.07001
182 1 10.6293 0.741165 5.93003
190 1 8.31359 3.87502 2.12726
191 1 10.6898 3.26812 0.9861
192 1 10.3227 5.54638 2.02628
198 1 10.0857 3.24275 6.48295
197 1 8.49836 4.17194 8.236
76 2 7.18359 8.70395 7.45048
8 2 15.8041 2.06709 14.4384
17 2 11.9486 6.23731 13.951
234 1 7.40476 7.29772 12.6322
62 2 8.7048 2.13603 14.5914
63 2 10.9668 2.49926 10.57
70 2 9.82467 4.47644 12.6796
71 2 5.6498 6.25781 15.5436
72 2 7.93526 6.45489 11.3272
61 2 12.9253 0.583349 11.9472
175 1 14.4361 1.41779 15.1274
233 1 5.82315 7.60121 14.5356
97 1 12.5334 5.33356 15.1126
185 1 9.33983 1.65469 15.9879
66 2 7.95817 6.01562 17.8097
85 1 16.8635 0.940608 14.3348
79 2 6.50241 8.42021 13.3255
189 1 11.5965 1.05724 11.1647
195 1 10.6767 7.74613 17.0556
205 1 9.33136 3.45584 13.9372
206 1 10.8107 3.61315 11.7621
207 1 10.5718 5.79626 13.3464
209 1 7.02583 5.72532 16.4987
211 1 9.00637 7.37876 10.5952
186 1 8.04594 2.31164 16.0633
213 1 8.60089 5.03243 11.7625
111 1 13.0397 6.71195 12.8391
188 1 9.48968 2.35923 9.91632
183 1 14.3295 1.16319 11.4588
212 1 6.65123 6.2418 10.4238
176 1 12.0624 1.03008 18.8171
57 2 11.6783 2.5954 18.8463
196 1 9.0275 4.98787 18.6456
215 1 7.45543 7.08122 18.9348
20 2 10.8123 10.4008 3.279
23 2 9.55952 10.2672 8.58871
107 1 9.25126 11.7921 8.565
232 1 7.16981 11.8818 4.91245
225 1 8.63383 9.3222 7.72621
78 2 6.23988 10.5458 5.13997
115 1 11.0662 9.86059 9.07265
216 1 8.52781 9.26475 0.892901
230 1 4.86406 10.5348 4.34064
218 1 3.70159 12.0855 2.68742
77 2 2.66552 10.6165 9.21394
231 1 6.27883 9.94272 6.64883
74 2 3.69251 10.6114 3.24995
227 1 2.76767 12.0505 8.65669
229 1 7.66759 10.6279 4.34769
217 1 3.58377 9.55256 2.03176
58 2 1.13674 17.4769 6.6189
26 2 9.05404 11.8722 15.6892
113 1 10.5127 11.6709 16.2901
81 2 5.09788 10.3126 11.2092
114 1 9.05066 12.5904 14.2736
220 1 7.77075 11.8966 16.6243
80 2 3.14048 10.3027 15.4139
237 1 4.46023 9.9752 16.3694
238 1 3.49402 11.7609 14.7392
240 1 6.16004 11.2161 10.4014
222 1 4.90251 11.4366 18.538
242 1 5.50501 9.08535 12.1511
243 1 5.66717 11.7707 11.64
75 2 5.3557 10.1744 17.6735
241 1 3.75802 10.3782 10.3336
235 1 7.20455 9.6618 14.0792
221 1 6.00206 8.88477 18.392
ITEM: TIMESTEP
300
ITEM: NUMBER OF ATOMS
243
ITEM: BOX BOUNDS xy xz yz pp pp pp
-1.0614780000000000e+01 1.7691299999999998e+01 -1.0614780000000000e+01
0.0000000000000000e+00 1.7691299999999998e+01 0.0000000000000000e+00
0.0000000000000000e+00 1.8963100000000001e+01 0.0000000000000000e+00
ITEM: ATOMS id type x y z
173 1 7.14174 1.62117 2.71801
3 2 2.3668 2.60952 0.874023
156 1 2.83728 7.9457 5.88269
6 2 0.575151 2.32928 5.14889
10 2 -0.200343 4.44068 1.13109
134 1 3.77084 5.42925 0.0373506
13 2 -0.336924 4.71218 6.85064
15 2 -1.4708 6.9829 4.88914
28 2 5.75431 1.23416 2.03214
100 1 -3.40461 7.57926 1.45322
155 1 1.01488 7.70619 7.89615
29 2 3.35445 2.29576 3.70413
19 2 -2.23497 8.48972 0.744954
140 1 3.78627 5.6446 6.12617
32 2 3.07294 2.79073 9.15028
33 2 5.75047 2.87814 5.54275
37 2 4.75519 4.64558 0.99615
38 2 1.02858 6.83012 2.98732
105 1 -4.06674 7.41658 7.3895
40 2 4.46969 4.92171 7.36483
41 2 0.707565 6.65898 9.05512
42 2 3.39948 6.761 4.94044
148 1 1.59378 7.99451 2.1063
49 2 1.82967 8.69653 6.92766
82 1 2.4871 1.01278 0.755007
83 1 -0.824398 2.27456 4.28449
84 1 0.570097 1.12533 6.16605
88 1 -1.50175 3.63055 1.91572
89 1 0.917577 3.35031 0.76442
98 1 -2.93936 5.95231 9.36686
91 1 -1.37617 3.68978 7.61083
92 1 0.624565 3.73016 5.92804
93 1 -2.59615 6.62145 3.78693
94 1 -1.13901 5.7426 5.91758
4 2 1.30159 0.802808 7.62887
22 2 -3.05045 8.61511 6.98121
31 2 6.70803 0.727831 7.38935
106 1 -1.90025 8.22211 5.88412
118 1 4.01583 0.462774 3.05884
119 1 1.87656 2.07911 4.24686
120 1 5.49086 1.24593 0.44057
121 1 2.62711 1.58479 8.23895
123 1 4.37886 2.96263 4.78036
124 1 5.90066 1.21431 6.06603
130 1 3.36884 3.2741 1.89669
5 2 -1.79357 3.37792 9.13833
132 1 0.3795 5.68607 1.96311
133 1 -0.0961646 7.26878 4.03036
11 2 -3.81028 7.21286 2.96065
135 1 3.31432 4.17179 8.29444
136 1 5.43578 3.73502 6.92889
137 1 0.370055 5.3742 8.13056
139 1 2.23678 6.21001 3.92798
2 2 -1.85359 3.0904 3.37324
146 1 1.85582 6.41777 10.2105
9 2 0.465917 2.57061 10.9809
16 2 -1.15037 4.44188 12.8069
18 2 -2.00815 6.53411 10.5826
25 2 -4.08485 8.04934 12.1922
208 1 5.16296 5.0543 14.569
35 2 3.1245 2.04197 14.4513
36 2 5.63593 2.69004 11.013
43 2 4.30817 4.64717 13.2002
44 2 0.193573 6.39462 14.9122
45 2 3.05917 6.86617 11.2683
34 2 6.48829 0.616735 13.1459
52 2 1.46765 8.83448 13.143
7 2 0.496951 0.63463 13.3024
87 1 0.441859 1.17279 11.78
184 1 7.98676 1.23091 13.4124
96 1 0.188136 3.76579 12.1244
12 2 -0.941025 6.47589 17.8021
164 1 2.38879 8.13784 12.037
99 1 -1.837 5.26558 11.5693
201 1 4.25897 7.20162 10.221
112 1 -2.72962 7.72971 11.3494
122 1 1.92598 2.8463 10.2894
125 1 1.91683 0.964939 13.9526
126 1 4.38198 1.41351 15.2532
127 1 3.46769 2.18341 16.0607
131 1 5.75286 3.97871 18.8372
129 1 5.96541 1.31123 11.7648
138 1 -0.547164 6.94423 10.0077
141 1 3.28261 3.44211 13.5539
142 1 5.23122 3.89793 12.0968
143 1 -0.741749 5.46268 13.9843
144 1 1.50524 5.54233 15.3183
145 1 -0.507683 6.82074 16.2836
39 2 3.66578 6.75893 18.1103
147 1 3.57136 5.84104 12.45
163 1 0.636327 7.7747 14.0909
210 1 4.55162 6.84485 16.7983
128 1 4.39674 2.3656 9.98515
179 1 6.89751 3.03872 10.1091
101 1 -1.2627 7.74697 18.7052
149 1 2.99624 8.06302 18.7493
86 1 -0.733292 2.4887 9.87961
30 2 6.13195 2.45824 18.5083
90 1 -0.855377 5.00892 18.4918
95 1 -1.83866 3.10987 13.2887
108 1 -5.46226 9.84633 4.08929
24 2 -4.0801 10.5528 4.79002
47 2 -1.61626 10.5329 2.95714
162 1 0.898479 12.2227 5.51305
50 2 -2.4253 10.7259 9.19706
51 2 0.953809 10.7849 4.83966
161 1 1.06135 9.78618 6.05242
219 1 2.36199 10.5588 4.09287
226 1 2.73635 9.48724 8.00138
109 1 -3.88678 9.74232 6.13256
110 1 -4.29154 12.109 4.78306
150 1 -1.42456 9.31458 1.92186
151 1 -1.60482 11.9056 2.17788
152 1 -2.9345 10.224 3.7484
153 1 1.6727 10.1939 0.311366
160 1 -0.316766 10.5857 3.89206
157 1 -2.36321 9.42123 8.28309
158 1 -2.24385 12.0549 8.36901
46 2 2.4048 8.92273 1.03421
1 2 -7.4728 17.658 1.78592
27 2 -5.31422 9.95349 10.1964
53 2 -3.20723 10.2383 14.3409
54 2 0.156014 10.8365 11.0885
48 2 1.26203 10.8366 17.8903
104 1 -3.5569 12.0443 17.5349
103 1 -2.91675 9.67455 18.7987
117 1 -5.98286 11.0822 11.1853
228 1 1.21987 10.392 9.95976
154 1 -0.0461618 11.7544 17.8209
166 1 -1.63144 10.3523 14.1284
167 1 -3.78801 11.7612 14.0981
168 1 -3.43582 9.79586 15.9286
169 1 -1.38671 10.7151 10.4447
170 1 0.5081 9.79675 12.2596
171 1 0.503742 12.3566 11.4646
165 1 -3.87863 9.25363 13.269
236 1 2.67368 9.50622 13.9727
239 1 1.976 10.511 16.4555
21 2 -3.35954 10.4648 17.4355
159 1 -3.86164 10.5491 9.80111
174 1 6.93442 3.40125 4.57243
55 2 12.989 0.334463 1.10371
199 1 10.5548 5.65508 7.67286
14 2 13.375 6.43032 8.65763
224 1 7.43638 7.55809 6.40083
56 2 7.96178 2.8973 3.3693
223 1 6.25302 8.35576 8.83945
214 1 6.22344 8.05972 2.02018
59 2 8.15097 2.85556 9.09788
60 2 10.4477 2.3029 5.23045
64 2 9.47741 4.36493 1.01183
65 2 5.82412 6.84031 2.99668
204 1 8.8155 5.4314 5.75319
67 2 9.4647 4.65684 6.99857
68 2 5.62784 6.98591 9.47845
69 2 8.11824 6.75745 5.16321
73 2 6.92808 8.46944 0.604991
200 1 5.24304 6.09185 8.20031
172 1 13.5193 1.29363 2.27592
202 1 9.24288 7.58051 4.41611
177 1 13.2494 0.259108 6.50346
203 1 7.0049 6.49945 4.03485
180 1 11.7575 2.86607 4.58194
181 1 9.30058 2.34338 4.11029
182 1 10.6891 0.764999 5.69593
190 1 8.363 3.97593 2.23774
191 1 10.4245 3.10001 0.706125
192 1 10.357 5.65485 1.38053
198 1 9.972 3.22617 6.49242
197 1 8.52302 4.1559 8.2196
76 2 7.22386 8.75103 7.49024
194 1 4.58103 7.19098 3.91143
193 1 5.48949 5.63396 2.02697
176 1 11.9118 0.845752 0.00117894
178 1 7.85523 1.65081 8.05479
8 2 15.8547 2.02454 14.5019
17 2 12.061 6.18522 13.9417
234 1 7.67194 7.49993 12.6844
62 2 8.73613 2.2991 14.4654
63 2 10.9243 2.56238 10.5879
70 2 9.90568 4.55424 12.6711
71 2 5.62096 6.27586 15.6419
72 2 7.96179 6.53481 11.4056
61 2 12.7956 0.51764 11.9873
175 1 14.3551 1.56908 14.8502
233 1 5.8496 7.54117 14.5938
97 1 12.5368 5.2747 15.1536
185 1 9.28656 1.6771 15.8485
66 2 7.92038 5.92749 17.7351
85 1 16.9669 0.889884 14.3155
79 2 6.45824 8.35376 13.3568
189 1 11.4584 1.08279 11.2807
195 1 10.447 7.98066 17.0439
205 1 9.34623 3.6727 13.9223
206 1 10.9004 3.60718 11.8125
207 1 10.701 5.82881 13.2649
209 1 7.06075 5.92756 16.3403
211 1 8.99419 7.40925 10.523
186 1 7.95543 2.27524 15.8612
213 1 8.67459 5.17217 11.8061
111 1 13.1413 6.56507 12.8102
188 1 9.40861 2.43604 10.0293
183 1 14.0441 1.20291 11.2551
212 1 6.62048 6.31059 10.519
187 1 12.0009 3.03723 9.50186
57 2 11.4716 2.4047 18.6567
196 1 8.65036 4.66784 18.4666
215 1 7.33415 6.93911 18.8801
116 1 12.5658 8.49905 11.0399
20 2 10.9286 10.46 3.36761
23 2 9.69528 10.1199 8.74185
107 1 9.19065 11.5735 8.81552
232 1 7.27847 11.8826 4.84222
225 1 8.71571 9.05991 8.07384
78 2 6.2988 10.6116 5.09651
115 1 11.2475 9.79975 9.02691
216 1 8.18911 9.40235 0.537291
230 1 4.98588 10.4082 4.21848
218 1 3.85208 12.0788 2.45947
77 2 2.67514 10.5816 9.25329
231 1 6.46041 9.93876 6.60337
74 2 3.73241 10.6822 3.20831
227 1 2.76552 12.1175 8.77977
229 1 7.76681 10.5591 4.44128
217 1 3.5634 9.63656 1.92814
58 2 1.06179 17.6091 6.69146
102 1 11.102 10.9536 1.86373
26 2 9.08536 11.9419 15.6438
113 1 10.5474 11.8571 16.3645
81 2 5.0834 10.3137 11.2702
114 1 8.94267 12.7136 14.2771
220 1 7.87006 11.9108 16.6346
80 2 3.184 10.4781 15.304
237 1 4.45585 9.91615 16.2403
238 1 3.52247 11.9402 14.755
240 1 6.28953 10.956 10.4137
222 1 5.15008 11.5768 18.4803
242 1 5.64738 9.10116 12.168
243 1 5.76961 11.7243 11.5569
75 2 5.28275 10.2479 17.5957