LAMMPS (2 Aug 2023 - Update 2)
  using 1 OpenMP thread(s) per MPI task
Reading data file ...
  triclinic box = (0 0 0) to (15.4114 12.7411 17.5034) with tilt (-7.2027 -1.8261 0.3384)
WARNING: Triclinic box skew is large. LAMMPS will run inefficiently. (src/domain.cpp:220)
  2 by 1 by 2 MPI processor grid
  reading atoms ...
  310 atoms
Finding 1-2 1-3 1-4 neighbors ...
  special bond factors lj:    0        0        0       
  special bond factors coul:  0        0        0       
     0 = max # of 1-2 neighbors
     0 = max # of 1-3 neighbors
     0 = max # of 1-4 neighbors
     1 = max # of special neighbors
  special bonds CPU = 0.000 seconds
  read_data CPU = 0.006 seconds
WARNING: Van der Waals parameters for element SI indicate inner wall+shielding, but earlier atoms indicate a different van der Waals method. This may cause division-by-zero errors. Keeping van der Waals setting for earlier atoms. (src/REAXFF/reaxff_ffield.cpp:251)
*****Minimization starts.*****

CITE-CITE-CITE-CITE-CITE-CITE-CITE-CITE-CITE-CITE-CITE-CITE-CITE

Your simulation uses code contributions which should be cited:
- pair reaxff command: doi:10.1016/j.parco.2011.08.005
- fix qeq/reaxff command: doi:10.1016/j.parco.2011.08.005
The log file lists these citations in BibTeX format.

CITE-CITE-CITE-CITE-CITE-CITE-CITE-CITE-CITE-CITE-CITE-CITE-CITE

Switching to 'neigh_modify every 1 delay 0 check yes' setting during minimization
WARNING: Fix qeq/reaxff group is not charge neutral, net charge = 22.14 (src/REAXFF/fix_qeq_reaxff.cpp:392)
Neighbor list info ...
  update: every = 1 steps, delay = 0 steps, check = yes
  max neighbors/atom: 2000, page size: 100000
  master list distance cutoff = 12
  ghost atom cutoff = 12
  binsize = 6, bins = 5 3 3
  2 neighbor lists, perpetual/occasional/extra = 2 0 0
  (1) pair reaxff, perpetual
      attributes: half, newton off, ghost
      pair build: half/bin/newtoff/ghost
      stencil: full/ghost/bin/3d
      bin: standard
  (2) fix qeq/reaxff, perpetual, copy from (1)
      attributes: half, newton off
      pair build: copy
      stencil: none
      bin: none
Setting up cg style minimization ...
  Unit style    : real
  Current step  : 0
Per MPI rank memory allocation (min/avg/max) = 148.7 | 149.4 | 150.2 Mbytes
   Step          Temp          Press         Density         Volume         PotEng         TotEng    
         0   0              192976.37      1.4204665      3436.9359     -22769.99      -22769.99     
        39   0              712.7403       1.4204665      3436.9359     -25828.665     -25828.665    
Loop time of 7.40004 on 4 procs for 39 steps with 310 atoms

96.6% CPU use with 4 MPI tasks x 1 OpenMP threads

Minimization stats:
  Stopping criterion = energy tolerance
  Energy initial, next-to-last, final = 
     -22769.9897652666  -25828.6414272193  -25828.6645642853
  Force two-norm initial, final = 4428.6909 237.76276
  Force max component initial, final = 538.14802 114.39795
  Final line search alpha, max atom move = 0.00060842372 0.069602429
  Iterations, force evaluations = 39 131

MPI task timing breakdown:
Section |  min time  |  avg time  |  max time  |%varavg| %total
---------------------------------------------------------------
Pair    | 5.2539     | 5.5089     | 5.6581     |   6.8 | 74.44
Bond    | 0.00037847 | 0.00039167 | 0.00040389 |   0.0 |  0.01
Neigh   | 0          | 0          | 0          |   0.0 |  0.00
Comm    | 0.25251    | 0.40168    | 0.65686    |  25.1 |  5.43
Output  | 0.012661   | 0.015208   | 0.016766   |   1.3 |  0.21
Modify  | 1.464      | 1.4642     | 1.4643     |   0.0 | 19.79
Other   |            | 0.009671   |            |       |  0.13

Nlocal:           77.5 ave          82 max          72 min
Histogram: 1 0 0 1 0 0 0 0 0 2
Nghost:        3786.75 ave        3808 max        3761 min
Histogram: 1 0 1 0 0 0 0 0 0 2
Neighs:          47853 ave       50619 max       44609 min
Histogram: 1 0 1 0 0 0 0 0 1 1

Total # of neighbors = 191412
Ave neighs/atom = 617.45806
Ave special neighs/atom = 0
Neighbor list builds = 0
Dangerous builds = 0
System init for write_data ...
##### Equilibration starts.##### 
WARNING: Compute rdf cutoff less than neighbor cutoff - forcing a needless neighbor list build (src/compute_rdf.cpp:179)
Neighbor list info ...
  update: every = 10 steps, delay = 0 steps, check = yes
  max neighbors/atom: 2000, page size: 100000
  master list distance cutoff = 12
  ghost atom cutoff = 12
  binsize = 6, bins = 5 3 3
  3 neighbor lists, perpetual/occasional/extra = 2 1 0
  (1) pair reaxff, perpetual
      attributes: half, newton off, ghost
      pair build: half/bin/newtoff/ghost
      stencil: full/ghost/bin/3d
      bin: standard
  (2) compute rdf, occasional
      attributes: half, newton on, cut 7
      pair build: half/bin/newton/tri
      stencil: half/bin/3d/tri
      bin: standard
  (3) fix qeq/reaxff, perpetual, copy from (1)
      attributes: half, newton off
      pair build: copy
      stencil: none
      bin: none
Setting up Verlet run ...
  Unit style    : real
  Current step  : 0
  Time step     : 0.5
Per MPI rank memory allocation (min/avg/max) = 153.5 | 154.3 | 155.1 Mbytes
   Step          Temp          Press          PotEng         TotEng    
         0   300            4387.4634     -25828.665     -25552.344    
       100   236.02015      2309.8144     -25734.754     -25517.363    
Loop time of 5.23887 on 4 procs for 100 steps with 310 atoms

Performance: 0.825 ns/day, 29.105 hours/ns, 19.088 timesteps/s, 5.917 katom-step/s
98.0% CPU use with 4 MPI tasks x 1 OpenMP threads

MPI task timing breakdown:
Section |  min time  |  avg time  |  max time  |%varavg| %total
---------------------------------------------------------------
Pair    | 4.2416     | 4.3827     | 4.451      |   4.0 | 83.66
Bond    | 0.00028816 | 0.00030817 | 0.00033091 |   0.0 |  0.01
Neigh   | 0.033449   | 0.033924   | 0.034146   |   0.2 |  0.65
Comm    | 0.23153    | 0.29998    | 0.44091    |  15.1 |  5.73
Output  | 0.00058611 | 0.0010453  | 0.0016931  |   1.5 |  0.02
Modify  | 0.51708    | 0.51733    | 0.51786    |   0.0 |  9.87
Other   |            | 0.003618   |            |       |  0.07

Nlocal:           77.5 ave          83 max          72 min
Histogram: 1 0 0 1 0 0 1 0 0 1
Nghost:         3754.5 ave        3797 max        3707 min
Histogram: 1 0 0 0 1 0 1 0 0 1
Neighs:        47823.8 ave       51244 max       44669 min
Histogram: 1 0 0 1 0 1 0 0 0 1

Total # of neighbors = 191295
Ave neighs/atom = 617.08065
Ave special neighs/atom = 0
Neighbor list builds = 1
Dangerous builds = 0
System init for write_data ...
WARNING: Compute rdf cutoff less than neighbor cutoff - forcing a needless neighbor list build (src/compute_rdf.cpp:179)
Total wall time: 0:00:12
