LAMMPS data file via write_data, version 2 Aug 2023, timestep = 1, units = real

386 atoms
4 atom types

0 16.7222 xlo xhi
0 13.589 ylo yhi
0 17.3161 zlo zhi
-7.3464 -0.3071 -0.018 xy xz yz

Masses

1 12.0107
2 1.00794
3 15.9994
4 28.0855

Atoms # full

1 1 4 0 -0.24019999999999997 1.0952300000000001 3.07462 0 0 0
2 1 2 0.41 0.3483499999999994 1.6489100000000008 1.84917 0 0 0
3 1 2 0.41 -0.7818499999999996 1.81502 5.33636 0 0 0
4 1 2 0.41 -0.82892 3.20676 4.22782 0 0 0
5 1 2 0.41 0.7312600000000008 2.56488 4.80147 0 0 0
6 1 1 0 -0.2812499999999999 2.29092 4.484759999999998 0 0 0
10 3 4 0 -0.8270199999999993 3.45206 7.923599999999999 0 0 0
11 3 2 0.41 0.4809800000000005 2.7737100000000003 7.73989 0 0 0
12 3 2 0.41 -1.0946600000000006 4.269850000000003 6.70603 0 0 0
34 5 4 0 4.135030000000003 0.59874 3.72278 0 0 0
36 5 4 0 3.677320000000001 2.05134 8.53562 0 0 0
37 5 4 0 6.57933 1.63935 5.29775 0 0 0
40 5 4 0 5.436469999999999 4.88627 1.57107 0 0 0
41 5 4 0 1.88954 6.71553 4.92701 0 0 0
42 5 4 0 3.2368799999999998 6.3443 0.20906 0 0 0
43 5 4 0 5.881449999999996 3.94168 7.10119 0 0 0
87 5 2 0.41 2.3721299999999994 2.16541 7.83411 0 0 0
88 5 2 0.41 7.347039999999999 1.67181 4.03 0 0 0
90 5 2 0.41 3.18374 1.73186 3.55313 0 0 0
108 5 2 0.41 -1.84552 5.494 4.77982 0 0 0
109 5 2 0.41 -1.1379300000000006 6.608640000000001 3.57987 0 0 0
117 5 2 0.41 6.158269999999997 0.5840400000000002 2.27993 0 0 0
118 5 2 0.41 4.66006 0.51548 1.30875 0 0 0
120 5 2 0.41 4.483339999999997 0.09286 7.27012 0 0 0
122 5 2 0.41 6.98724 0.8482700000000003 7.61214 0 0 0
126 5 2 0.41 6.177699999999997 2.93284 2.88939 0 0 0
127 5 2 0.41 4.666489999999998 2.6282800000000015 1.98147 0 0 0
128 5 2 0.41 4.636379999999996 3.6065000000000005 3.46342 0 0 0
129 5 2 0.41 2.4974399999999957 4.921820000000003 3.37121 0 0 0
130 5 2 0.41 0.7545699999999999 4.87754 3.69746 0 0 0
131 5 2 0.41 1.9035800000000016 4.27471 4.91856 0 0 0
133 5 2 0.41 3.06441 5.03875 7.81096 0 0 0
134 5 2 0.41 1.3595199999999992 5.51724 7.6223199999999975 0 0 0
192 5 1 0 -1.7162700000000006 6.552430000000003 4.51208 0 0 0
195 5 1 0 5.148889999999999 0.16627000000000006 2.22569 0 0 0
196 5 1 0 4.31122 0.30450000000000005 8.33415 0 0 0
197 5 1 0 7.520929999999998 0.80123 6.65407 0 0 0
199 5 1 0 5.22294 3.3630600000000017 2.56814 0 0 0
200 5 1 0 1.736709999999999 5.04537 4.15402 0 0 0
201 5 1 0 2.13034 5.23799 8.34973 0 0 0
231 5 3 -0.82 5.11022 0.95319 5.01034 0 0 0
235 5 3 -0.82 4.070220000000001 5.00845 0.6617399999999998 0 0 0
236 5 3 -0.82 4.702549999999999 3.08723 7.77368 0 0 0
237 5 3 -0.82 6.331720000000001 3.21446 5.71434 0 0 0
238 5 3 -0.82 3.375910000000001 6.76553 5.60584 0 0 0
320 11 2 0.41 2.2738299999999994 1.19596 0.43077 0 0 0
321 11 2 0.41 2.2158099999999985 2.610760000000001 1.5030899999999996 0 0 0
323 11 1 0 2.18946 2.28532 0.45649 0 0 0
324 12 2 0.41 -0.9424800000000003 4.76257 0.08675 0 0 0
325 12 2 0.41 0.47125999999999874 4.846590000000001 1.16122 0 0 0
326 12 2 0.41 -0.82902 3.6655700000000024 1.46484 0 0 0
327 12 1 0 -0.24327999999999997 4.164039999999999 0.68068 0 0 0
329 14 2 0.41 2.13692 0.65831 6.25083 0 0 0
362 25 2 0.41 5.99761 1.6757100000000007 0.33056 0 0 0
377 35 2 0.41 -2.573460000000001 6.011350000000003 0.34876 0 0 0
378 35 2 0.41 -2.2976500000000026 5.590740000000001 2.0486 0 0 0
379 35 1 0 -2.99257 6.08209 1.35687 0 0 0
7 2 4 0 0.32465999999999917 2.8814000000000015 16.93813 0 0 0
8 2 2 0.41 0.7711100000000012 3.49142 15.65009 0 0 0
9 2 3 -0.82 -0.7818600000000002 1.7020200000000012 16.45922 0 0 0
13 3 2 0.41 -1.88037 4.675430000000003 9.81192 0 0 0
14 3 2 0.41 -0.4840199999999997 5.5433 9.18165 0 0 0
15 3 2 0.41 -0.23402000000000028 4.15036 10.25461 0 0 0
16 3 1 0 -0.8575500000000011 4.54429 9.43949 0 0 0
26 5 4 0 -0.8466600000000004 4.43117 13.9363 0 0 0
44 5 4 0 2.3667700000000003 6.58523 9.58936 0 0 0
47 5 4 0 0.48242999999999797 6.7149600000000005 15.847149999999996 0 0 0
84 5 2 0.41 -1.6542000000000012 5.01397 12.839819999999996 0 0 0
85 5 2 0.41 0.3552999999999997 3.7532100000000006 13.387169999999998 0 0 0
89 5 2 0.41 6.63484 1.5943200000000004 10.32154 0 0 0
119 5 2 0.41 5.250729999999997 0.15023 8.88058 0 0 0
123 5 2 0.41 4.36517 2.2626999999999997 10.90222 0 0 0
124 5 2 0.41 2.59394 2.15978 10.76982 0 0 0
125 5 2 0.41 3.427440000000001 3.67991 10.38209 0 0 0
132 5 2 0.41 1.8253099999999984 4.312140000000002 8.84963 0 0 0
135 5 2 0.41 5.45583 2.1896600000000013 14.2937 0 0 0
136 5 2 0.41 4.35131 2.83185 13.061589999999997 0 0 0
137 5 2 0.41 4.480630000000001 3.64646 14.62565 0 0 0
155 5 2 0.41 2.672869999999997 6.78016 12.9753 0 0 0
156 5 2 0.41 3.594979999999999 6.76232 14.48492 0 0 0
198 5 1 0 3.4974700000000003 2.58761 10.31425 0 0 0
202 5 1 0 5.055479999999999 3.11041 13.85811 0 0 0
223 5 3 -0.82 -1.84201 3.317540000000001 14.66593 0 0 0
241 5 3 -0.82 -0.3558099999999986 5.73218 14.838549999999998 0 0 0
242 5 3 -0.82 1.7999300000000003 5.894080000000001 16.41169 0 0 0
243 5 3 -0.82 3.480179999999998 6.080360000000002 10.70589 0 0 0
322 11 2 0.41 2.7469100000000006 2.7047700000000003 17.25742 0 0 -1
334 17 2 0.41 0.84688 0.95608 12.5046 0 0 0
335 17 2 0.41 -0.1255700000000001 1.5471100000000002 13.84256 0 0 0
336 17 1 0 0.2782600000000002 0.6358800000000003 13.38983 0 0 0
337 18 2 0.41 3.6195999999999975 0.8434900000000001 14.27505 0 0 0
338 18 2 0.41 3.2612599999999987 0.65374 15.99986 0 0 0
339 18 2 0.41 2.4950499999999995 1.9508100000000006 15.06957 0 0 0
340 18 1 0 2.82582 0.90488 15.02654 0 0 0
345 20 2 0.41 -0.28511999999999993 0.4661700000000002 8.85242 0 0 0
346 20 2 0.41 1.42988 0.45454 9.26013 0 0 0
347 20 2 0.41 0.2227900000000003 0.95679 10.47821 0 0 0
348 20 1 0 0.42796 0.25564 9.65918 0 0 0
363 26 2 0.41 6.633899999999994 1.6847400000000001 16.15508 0 0 0
364 26 2 0.41 5.3828999999999985 2.908870000000001 16.43836 0 0 0
365 26 1 0 6.170729999999995 2.31532 16.91696 0 0 0
368 29 2 0.41 3.135619999999999 0.5261700000000002 12.13125 0 0 0
375 34 2 0.41 -1.74387 2.87358 11.24355 0 0 0
17 4 4 0 -5.67546 12.60032 4.52403 0 0 0
18 4 2 0.41 -5.21696 10.27776 5.095629999999999 0 0 0
19 4 2 0.41 -5.462290000000003 10.465470000000005 3.34878 0 0 0
20 4 1 0 -5.84354 10.763270000000006 4.334869999999999 0 0 0
21 4 3 -0.82 -6.675670000000001 13.37983 3.46762 0 0 0
22 4 3 -0.82 -4.11369 12.86978 4.05675 0 0 0
25 5 4 0 -0.8773600000000008 7.497650000000001 5.86322 0 0 0
28 5 4 0 -2.55818 8.35939 8.28293 0 0 0
49 5 4 0 2.8707899999999973 8.107810000000006 2.57945 0 0 0
50 5 4 0 0.07515999999999894 11.045930000000006 3.8887 0 0 0
83 5 2 0.41 -0.8149199999999995 8.93847 5.563269999999998 0 0 0
110 5 2 0.41 -2.7119599999999995 6.97781 4.31895 0 0 0
111 5 2 0.41 -4.27018 10.087559999999998 8.01389 0 0 0
112 5 2 0.41 -3.6309100000000014 9.63223 6.427539999999998 0 0 0
113 5 2 0.41 -2.704690000000001 10.7224 7.46787 0 0 0
138 5 2 0.41 0.3839300000000003 9.367670000000004 2.01445 0 0 0
139 5 2 0.41 -1.193130000000001 10.178830000000005 2.03471 0 0 0
140 5 2 0.41 -0.8669100000000011 8.86392 3.17103 0 0 0
141 5 2 0.41 -1.673799999999998 10.61246 5.49498 0 0 0
142 5 2 0.41 -2.33045 11.54487 4.16269 0 0 0
143 5 2 0.41 -1.4129199999999975 12.35996 5.43552 0 0 0
144 5 2 0.41 0.4010899999999945 10.076110000000002 7.27672 0 0 0
145 5 2 0.41 0.9018099999999976 11.520980000000002 8.18829 0 0 0
146 5 2 0.41 -0.7118600000000026 11.448 7.476149999999998 0 0 0
158 5 2 0.41 0.5839800000000027 11.3009 0.58 0 0 0
193 5 1 0 -3.3489 9.835670000000006 7.46751 0 0 0
203 5 1 0 -0.414740000000003 9.727110000000003 2.66838 0 0 0
204 5 1 0 -1.4643000000000033 11.45369 4.82651 0 0 0
205 5 1 0 0.05917999999999907 10.84906 7.97373 0 0 0
225 5 3 -0.82 -1.7674900000000024 7.345000000000004 7.24614 0 0 0
234 5 3 -0.82 0.6900500000000024 6.9773700000000005 6.02954 0 0 0
245 5 3 -0.82 1.8014600000000003 7.9312499999999995 3.81338 0 0 0
246 5 3 -0.82 2.4192999999999993 6.95299 1.49494 0 0 0
247 5 3 -0.82 0.6613199999999978 12.332430000000006 3.04379 0 0 0
248 5 3 -0.82 2.8681399999999995 9.55217 1.8565999999999998 0 0 0
253 5 3 -0.82 1.225229999999997 10.61002 4.98942 0 0 0
254 5 3 -0.82 2.9164399999999944 9.67881 6.74086 0 0 0
330 14 2 0.41 -6.785909999999999 13.53708 6.60132 0 -1 0
331 14 1 0 -5.782179999999999 13.308959999999999 6.23692 0 -1 0
332 15 2 0.41 -5.30899 12.619590000000004 6.94978 0 0 0
342 19 2 0.41 -1.8345800000000012 9.203600000000005 0.10959 0 0 0
343 19 2 0.41 -3.287139999999999 9.216319999999998 1.13365 0 0 0
344 19 1 0 -2.9181 9.39335 0.11552 0 0 0
349 21 2 0.41 -3.82845 12.42458 0.24187 0 0 0
350 21 2 0.41 -4.45486 11.368840000000006 1.5261199999999997 0 0 0
351 21 2 0.41 -4.9515600000000015 13.058160000000006 1.47589 0 0 0
352 21 1 0 -4.711510000000001 12.192270000000006 0.84851 0 0 0
357 23 2 0.41 -2.10379 12.665150000000002 2.15288 0 0 0
367 28 2 0.41 0.39790999999999827 13.340660000000005 6.4318 0 0 0
376 35 2 0.41 -3.0419799999999997 7.141989999999998 1.63643 0 0 0
23 5 4 0 -5.920839999999999 13.35895 14.5626 0 0 0
27 5 4 0 -4.02145 8.288669999999998 16.15842 0 0 0
30 5 4 0 -3.0324599999999973 9.64254 13.50194 0 0 0
31 5 4 0 -6.49352 11.764960000000002 17.13559 0 0 0
32 5 4 0 -4.711730000000003 11.75826 12.33149 0 0 0
38 5 4 0 0.9638199999999981 12.990520000000005 12.81243 0 0 0
53 5 4 0 -0.5184900000000023 10.149750000000004 9.57729 0 0 0
55 5 4 0 2.193859999999997 8.796310000000002 14.22475 0 0 0
56 5 4 0 -0.9848400000000028 11.754140000000005 14.67824 0 0 0
57 5 4 0 1.6592299999999993 10.23951 11.606599999999998 0 0 0
91 5 2 0.41 1.1463200000000022 6.910770000000001 10.36204 0 0 0
92 5 2 0.41 -0.42851000000000083 7.106600000000001 16.93933 0 0 0
94 5 2 0.41 0.11610999999999999 10.78516 14.82515 0 0 0
102 5 2 0.41 -3.2798700000000007 7.015280000000003 16.02807 0 0 0
114 5 2 0.41 -1.639390000000002 8.492530000000004 11.79902 0 0 0
115 5 2 0.41 -2.221940000000002 7.365350000000005 13.03515 0 0 0
116 5 2 0.41 -0.8891300000000004 8.4731 13.406339999999995 0 0 0
147 5 2 0.41 -1.6090600000000002 11.210540000000005 11.55311 0 0 0
148 5 2 0.41 -2.49699 11.45121 10.04176 0 0 0
149 5 2 0.41 -1.0453899999999998 12.41905 10.38699 0 0 0
150 5 2 0.41 -3.4077499999999974 13.25211 10.82059 0 0 0
151 5 2 0.41 -2.7103300000000026 13.22279 12.45062 0 0 0
159 5 2 0.41 -1.878590000000001 11.850950000000005 16.95008 0 0 0
160 5 2 0.41 -2.3402 13.28434 16.00017 0 0 0
161 5 2 0.41 -0.7210199999999998 13.165470000000001 16.71373 0 0 0
194 5 1 0 -1.8429399999999998 8.380490000000005 12.87111 0 0 0
206 5 1 0 -1.4939900000000028 11.423360000000006 10.48682 0 0 0
207 5 1 0 -3.6493800000000007 13.204770000000005 11.88418 0 0 0
209 5 1 0 3.2617399999999988 7.40364 13.6632 0 0 0
210 5 1 0 1.1181199999999971 10.97201 17.267599999999998 0 0 -1
211 5 1 0 -1.5180800000000025 12.596430000000005 16.23053 0 0 0
224 5 3 -0.82 -3.7393500000000013 7.5262 9.055119999999997 0 0 0
226 5 3 -0.82 -3.95906 9.03539 14.703919999999998 0 0 0
227 5 3 -0.82 -6.70072 12.809940000000003 15.894839999999999 0 0 0
228 5 3 -0.82 -5.94473 11.639160000000006 11.27564 0 0 0
229 5 3 -0.82 -3.997610000000001 10.27203 12.3225 0 0 0
230 5 3 -0.82 -5.30062 12.009100000000005 13.83673 0 0 0
250 5 3 -0.82 2.8416499999999982 7.964319999999999 8.81382 0 0 0
252 5 3 -0.82 -1.4632099999999983 8.81081 9.40631 0 0 0
255 5 3 -0.82 1.0206399999999975 8.130240000000002 15.19463 0 0 0
256 5 3 -0.82 -2.2792300000000014 10.96676 14.09845 0 0 0
257 5 3 -0.82 -0.4968799999999985 12.87754 13.555169999999997 0 0 0
258 5 3 -0.82 0.8034500000000024 9.60421 10.39624 0 0 0
259 5 3 -0.82 1.35154 9.41634 12.96443 0 0 0
260 5 3 -0.82 1.2061499999999983 11.80086 11.7211 0 0 0
317 8 2 0.41 -4.108560000000002 7.64567 11.56411 0 0 0
341 19 2 0.41 -3.3920000000000017 10.427550000000005 17.181669999999997 0 0 -1
366 27 2 0.41 -3.7662100000000014 13.16022 8.70322 0 0 0
369 30 2 0.41 0.8833799999999989 9.99429 16.8288 0 0 0
370 31 2 0.41 1.2284200000000007 11.68038 16.44014 0 0 0
35 5 4 0 7.669360000000001 3.51709 0.39689 0 0 0
59 5 4 0 13.911539999999997 1.05876 7.32374 0 0 0
61 5 4 0 12.491999999999999 2.9646000000000012 5.22904 0 0 0
65 5 4 0 6.78574 6.67114 3.57521 0 0 0
67 5 4 0 11.115079999999995 4.77076 7.15566 0 0 0
86 5 2 0.41 8.17181 3.1449 1.74443 0 0 0
95 5 2 0.41 10.22844 1.4523000000000006 8.25699 0 0 0
96 5 2 0.41 12.14291 2.4603899999999994 3.89201 0 0 0
97 5 2 0.41 13.668049999999997 3.87209 5.14668 0 0 0
121 5 2 0.41 8.476870000000005 1.3306100000000007 6.77828 0 0 0
167 5 2 0.41 13.494449999999997 5.429930000000002 7.16715 0 0 0
168 5 2 0.41 13.19329 3.85003 7.93579 0 0 0
170 5 2 0.41 8.74042 5.69017 4.69584 0 0 0
171 5 2 0.41 8.434829999999998 4.94588 3.11379 0 0 0
172 5 2 0.41 7.442449999999994 4.492720000000001 4.52043 0 0 0
180 5 2 0.41 8.02616 6.44486 6.96311 0 0 0
214 5 1 0 12.815089999999996 4.87237 7.8218 0 0 0
215 5 1 0 7.953009999999999 5.32467 4.02493 0 0 0
220 5 1 0 13.004119999999995 0.022460000000000004 8.5408 0 0 0
233 5 3 -0.82 6.782269999999997 4.8993100000000025 0.62246 0 0 0
239 5 3 -0.82 5.344469999999999 5.435120000000003 6.71577 0 0 0
261 5 3 -0.82 14.746569999999998 2.25686 8.05784 0 0 0
263 5 3 -0.82 12.88494 1.70201 6.21344 0 0 0
267 5 3 -0.82 5.583029999999999 6.16711 2.57241 0 0 0
270 5 3 -0.82 10.115119999999996 4.00434 8.2165 0 0 0
271 5 3 -0.82 11.191650000000005 3.81292 5.80097 0 0 0
272 5 3 -0.82 7.192319999999997 4.03241 8.08635 0 0 0
274 5 3 -0.82 10.468709999999998 6.2411200000000004 6.80468 0 0 0
295 5 3 -0.82 15.03594 0.08558000000000002 6.59452 0 0 0
308 7 4 0 12.499049999999995 2.34836 0.42738 0 0 0
309 7 4 0 12.08780999999999 5.239720000000002 1.51331 0 0 0
310 7 2 0.41 12.09498 5.70046 3.92785 0 0 0
311 7 2 0.41 10.547849999999995 4.97901 3.45748 0 0 0
312 7 2 0.41 10.88064999999999 6.687860000000002 3.09029 0 0 0
313 7 1 0 11.32569 5.68212 3.14362 0 0 0
314 7 3 -0.82 12.662239999999999 0.9850400000000005 1.31989 0 0 0
315 7 3 -0.82 12.36977 3.6146200000000004 1.4389899999999998 0 0 0
316 7 3 -0.82 11.041509999999999 5.639790000000003 0.29044 0 0 0
353 22 2 0.41 11.04722 0.7259400000000004 3.90744 0 0 0
354 22 2 0.41 9.67814 0.26947 4.92961 0 0 0
355 22 2 0.41 9.542209999999995 1.6670800000000006 3.8408699999999993 0 0 0
356 22 1 0 9.957969999999994 0.6549899999999997 3.94203 0 0 0
359 24 2 0.41 9.553879999999996 1.4079600000000008 0.94382 0 0 0
360 24 2 0.41 7.838260000000001 0.9898000000000001 1.2123 0 0 0
361 24 1 0 8.844370000000005 0.5868100000000002 1.08548 0 0 0
386 40 3 -0.82 14.92674 0.75089 2.68412 0 0 0
39 5 4 0 7.7794499999999935 2.05853 11.13491 0 0 0
46 5 4 0 6.348639999999999 4.18235 13.09875 0 0 0
48 5 4 0 5.099919999999998 6.1591900000000015 10.947569999999997 0 0 0
60 5 4 0 10.2214 2.6451300000000013 9.12648 0 0 0
63 5 4 0 9.733939999999995 2.97358 15.85248 0 0 0
64 5 4 0 12.55742 3.27229 11.16752 0 0 0
68 5 4 0 7.343880000000002 5.38015 9.03805 0 0 0
70 5 4 0 11.02289 4.59348 13.398089999999998 0 0 0
71 5 4 0 7.652099999999994 6.35958 14.9043 0 0 0
72 5 4 0 9.493769999999996 6.171650000000001 11.13242 0 0 0
99 5 2 0.41 12.91626 4.67326 10.81849 0 0 0
103 5 2 0.41 6.655839999999996 6.597520000000001 15.95307 0 0 0
162 5 2 0.41 8.599970000000003 0.8056000000000002 15.60361 0 0 0
163 5 2 0.41 9.647729999999994 1.22309 14.23891 0 0 0
164 5 2 0.41 8.051989999999995 1.97963 14.36504 0 0 0
165 5 2 0.41 14.15058 1.39864 10.73647 0 0 0
166 5 2 0.41 14.152190000000001 1.88418 12.45366 0 0 0
169 5 2 0.41 12.82919 5.3477500000000004 8.80177 0 0 0
173 5 2 0.41 12.979069999999998 5.956760000000003 12.9098 0 0 0
174 5 2 0.41 12.993139999999993 5.391420000000003 14.59976 0 0 0
175 5 2 0.41 11.946459999999991 6.749770000000001 14.10362 0 0 0
185 5 2 0.41 12.30904 0.6011899999999998 9.155019999999999 0 0 0
212 5 1 0 8.910390000000001 1.62074 14.94207 0 0 0
213 5 1 0 14.09341 2.25112 11.42329 0 0 0
216 5 1 0 12.35809 5.78338 13.79659 0 0 0
232 5 3 -0.82 8.362309999999995 0.8047700000000001 12.00307 0 0 0
240 5 3 -0.82 7.292409999999999 3.2567200000000005 12.12257 0 0 0
244 5 3 -0.82 5.522419999999998 5.33486 12.2891 0 0 0
262 5 3 -0.82 8.973000000000004 2.552910000000001 10.15818 0 0 0
264 5 3 -0.82 10.85767 2.26282 16.81794 0 0 0
265 5 3 -0.82 8.661920000000002 3.80875 16.77391 0 0 0
266 5 3 -0.82 11.63087 2.645590000000001 9.95918 0 0 0
273 5 3 -0.82 5.83042 5.44617 9.6727 0 0 0
275 5 3 -0.82 10.416039999999995 3.9824799999999994 14.77499 0 0 0
276 5 3 -0.82 11.63824 3.3358 12.53554 0 0 0
277 5 3 -0.82 7.335350000000004 4.910070000000003 14.19883 0 0 0
278 5 3 -0.82 9.155049999999997 6.447520000000001 15.57129 0 0 0
279 5 3 -0.82 10.8228 6.4721 10.21847 0 0 0
280 5 3 -0.82 8.40999 5.308730000000001 10.284199999999998 0 0 0
281 5 3 -0.82 9.868909999999994 5.34034 12.483719999999998 0 0 0
305 6 4 0 14.55114 2.02464 15.65369 0 0 0
306 6 3 -0.82 13.45743 2.53862 16.74224 0 0 0
307 6 3 -0.82 13.94304 0.71459 14.85975 0 0 0
333 16 2 0.41 16.16751 0.0034600000000000013 13.06278 0 0 0
371 32 2 0.41 11.389120000000002 1.12249 13.11892 0 0 0
372 32 2 0.41 12.42096 0.43267999999999995 11.85661 0 0 0
373 32 1 0 11.9093 0.21456000000000003 12.79937 0 0 0
33 5 4 0 1.9961200000000023 13.176320000000006 2.55546 0 0 0
45 5 4 0 4.92188 6.868570000000001 6.08205 0 0 0
51 5 4 0 2.981109999999996 10.895010000000001 0.92565 0 0 0
52 5 4 0 3.7594199999999987 8.94887 7.91948 0 0 0
54 5 4 0 2.5426199999999963 10.996980000000006 5.8471 0 0 0
58 5 4 0 6.249949999999995 13.55559 2.2014 0 0 0
69 5 4 0 10.411529999999994 7.784290000000002 6.23521 0 0 0
73 5 4 0 8.564699999999991 8.60856 1.71267 0 0 0
74 5 4 0 5.25836 11.62799 4.37191 0 0 0
75 5 4 0 7.727330000000005 11.345640000000001 0.50941 0 0 0
76 5 4 0 9.030779999999998 10.20733 7.820079999999997 0 0 0
78 5 4 0 7.660689999999995 12.222830000000005 5.83192 0 0 0
93 5 2 0.41 2.3396699999999986 12.151000000000002 6.74519 0 0 0
100 5 2 0.41 9.40881 7.8264499999999995 5.14286 0 0 0
101 5 2 0.41 11.775220000000001 8.09044 5.73749 0 0 0
104 5 2 0.41 9.673279999999995 9.24189 2.44209 0 0 0
105 5 2 0.41 4.212109999999999 7.899890000000001 3.10464 0 0 0
107 5 2 0.41 8.1323 12.367750000000001 4.4508 0 0 0
176 5 2 0.41 6.999560000000001 10.29641 3.39481 0 0 0
177 5 2 0.41 5.506469999999996 10.0335 2.4761 0 0 0
178 5 2 0.41 5.725959999999998 9.294900000000005 4.08733 0 0 0
179 5 2 0.41 6.932229999999999 7.48345 7.89449 0 0 0
181 5 2 0.41 8.63285 7.34069 8.37358 0 0 0
183 5 2 0.41 6.7228499999999976 9.37732 7.84717 0 0 0
217 5 1 0 5.91244 10.184460000000003 3.47874 0 0 0
218 5 1 0 7.776049999999997 6.8002199999999995 7.96767 0 0 0
219 5 1 0 7.415740000000001 9.81056 8.57038 0 0 0
249 5 3 -0.82 3.1620399999999993 12.13757 1.97426 0 0 0
251 5 3 -0.82 4.956229999999997 8.07101 7.20519 0 0 0
268 5 3 -0.82 5.99134 7.258700000000004 4.906659999999999 0 0 0
282 5 3 -0.82 7.611089999999998 7.845789999999999 2.79006 0 0 0
283 5 3 -0.82 9.196479999999998 7.55789 0.63569 0 0 0
284 5 3 -0.82 5.467719999999998 13.038270000000004 3.54091 0 0 0
285 5 3 -0.82 3.7072499999999997 11.42223 4.80124 0 0 0
286 5 3 -0.82 9.227459999999995 11.91492 0.81741 0 0 0
287 5 3 -0.82 7.676300000000001 9.75344 0.9350499999999997 0 0 0
288 5 3 -0.82 6.64593 12.2459 1.31864 0 0 0
289 5 3 -0.82 9.998569999999997 8.95632 7.331959999999999 0 0 0
293 5 3 -0.82 6.09979 11.72263 5.8025 0 0 0
294 5 3 -0.82 8.67976 11.15512 6.51992 0 0 0
328 13 2 0.41 9.854939999999997 10.393480000000002 4.44145 0 0 0
358 24 2 0.41 1.5187299999999992 13.55735 0.18326 0 -1 0
383 37 2 0.41 5.1058900000000005 7.86812 0.48158 0 0 0
385 39 2 0.41 5.098299999999999 12.83804 7.99723 0 0 0
24 5 4 0 11.898599999999993 7.7325200000000045 10.27442 0 0 0
29 5 4 0 9.64582999999999 12.09053 10.20784 0 0 0
62 5 4 0 5.726489999999997 13.12864 14.06142 0 0 0
66 5 4 0 9.970559999999999 6.88485 16.91748 0 0 0
77 5 4 0 4.251789999999994 10.95663 10.277139999999996 0 0 0
79 5 4 0 8.43443 8.51769 12.84578 0 0 0
80 5 4 0 4.361239999999996 10.709440000000003 15.62344 0 0 0
81 5 4 0 7.052439999999999 11.26211 11.90238 0 0 0
82 5 2 0.41 11.186559999999998 9.01769 10.10181 0 0 0
98 5 2 0.41 2.032749999999998 12.842070000000005 13.80809 0 0 0
106 5 2 0.41 3.6569899999999915 12.263480000000005 9.95549 0 0 0
152 5 2 0.41 6.754030000000003 7.8915 10.93164 0 0 0
153 5 2 0.41 5.366559999999998 8.478380000000001 11.862 0 0 0
154 5 2 0.41 5.2995899999999985 8.397970000000004 10.09397 0 0 0
157 5 2 0.41 4.141909999999994 7.7515300000000025 13.116849999999996 0 0 0
182 5 2 0.41 7.476239999999997 9.17425 9.4567 0 0 0
184 5 2 0.41 6.995250000000002 10.776989999999998 8.875469999999996 0 0 0
186 5 2 0.41 9.687529999999997 9.856010000000005 14.49443 0 0 0
187 5 2 0.41 10.5884 9.58422 12.991749999999998 0 0 0
188 5 2 0.41 10.44085 8.28646 14.17838 0 0 0
189 5 2 0.41 5.45629 8.76215 14.6021 0 0 0
190 5 2 0.41 6.206159999999995 9.133730000000005 16.16036 0 0 0
191 5 2 0.41 6.570550000000002 10.12435 14.73916 0 0 0
208 5 1 0 5.663440000000001 7.89224 10.99122 0 0 0
221 5 1 0 9.910919999999997 9.12015 13.71321 0 0 0
222 5 1 0 5.776679999999999 9.57787 15.25731 0 0 0
269 5 3 -0.82 11.122989999999998 7.977520000000001 16.52632 0 0 0
290 5 3 -0.82 9.86778 11.09761 8.9149 0 0 0
291 5 3 -0.82 4.409629999999998 10.10258 8.88494 0 0 0
292 5 3 -0.82 3.2617299999999996 10.15285 11.30882 0 0 0
296 5 3 -0.82 7.509839999999999 7.53073 13.772 0 0 0
297 5 3 -0.82 8.86947 7.63696 11.51574 0 0 0
298 5 3 -0.82 2.995459999999995 10.07961 14.8931 0 0 0
299 5 3 -0.82 4.79687 12.2184 15.0886 0 0 0
300 5 3 -0.82 3.96906 10.83228 17.22297 0 0 0
301 5 3 -0.82 8.168920000000002 11.933 10.92421 0 0 0
302 5 3 -0.82 5.671419999999999 11.1701 11.03813 0 0 0
303 5 3 -0.82 7.518849999999997 9.779310000000004 12.34725 0 0 0
304 5 3 -0.82 6.8146999999999975 12.166280000000004 13.25108 0 0 0
318 9 2 0.41 10.26328999999999 10.38177 16.59302 0 0 0
319 10 2 0.41 7.13378 11.43335 16.39037 0 0 0
374 33 2 0.41 3.8184599999999946 13.02401 12.59572 0 0 0
380 36 2 0.41 3.6692899999999975 8.458639999999997 16.58539 0 0 0
381 36 2 0.41 4.81301 7.15504 16.17361 0 0 0
382 36 1 0 4.158399999999996 7.55556 16.95303 0 0 0
384 38 2 0.41 6.377869999999999 13.112600000000002 9.20583 0 0 0

Velocities

1 0.0008658889099666404 0.00447655637020305 -0.00019540571630929904
2 0.0018545536293712063 -0.004086033734672272 0.013079006567908981
3 0.0004129840778991798 -0.0041354134582693835 -0.020868091857777216
4 -0.0010188629550240576 -0.009970783412837154 -0.009649154051915543
5 -0.0035544622707205376 -0.012719430645781488 -0.015003196747782535
6 -0.0021533769319689055 0.0041604680455133505 0.00041866639764623825
10 -0.0008259258491843488 -0.003112029932398496 0.0011879941122914738
11 0.03842636750718497 0.0007648553216430412 0.018486979623754732
12 0.015689676295438604 -0.01059770250536031 -0.0006306688147235941
34 -0.00025071067432865353 -0.0031579079849250393 -0.0026166563219820692
36 0.002726072117610261 0.0006359569478021603 0.004397459126617603
37 -0.004113452410268146 -0.005844698101108577 0.004584012686501633
40 0.0016092347298335696 -0.00013304417280933566 -0.0030052598019625803
41 -0.00040714620661947456 -0.003588822639726476 0.008156256105759103
42 -0.003966833773665116 0.002949926770168275 -0.004147214121430532
43 -0.003157688182653831 0.001833412874034695 0.0015004796803205177
87 0.0050380502772499865 0.00565810322887234 -0.0015641668120647454
88 -0.013943846300301469 -0.016578504073538697 0.007945950438004177
90 0.006518671131427907 0.01820601881705206 -0.013094263615290274
108 0.0029183658014023755 -0.001499575345568043 -0.03149287551221166
109 0.01748905190897793 0.0009717074521984888 0.011690712021141532
117 -0.00773770496737557 0.009490623588728412 0.022548759712330852
118 -0.002750896955256944 0.0012020906744504495 0.016302189647698095
120 4.538130835462146e-06 -0.026475681727007327 0.004098734139640919
122 0.013472956389545493 -0.01384040566261136 0.006976450631394129
126 0.003958709169214256 -0.01324669050048164 0.02352223677753369
127 0.007631964371809963 -0.011096587880137227 0.011561661599686112
128 -0.007694580645196893 -0.004368385588796687 0.005214458773008255
129 0.01808533835910065 -0.014374103746554075 -0.010576654978334973
130 -0.004777024124040051 -0.03986888130900178 -0.019120099177188835
131 -0.009238899520499791 0.020367514351396245 -0.013348057839563507
133 0.019932683161718322 0.010113285703530761 0.004056267358991814
134 0.00908398472648808 0.025948023762889245 0.007028325513550712
192 0.0038344132974072044 -0.0011422094353692302 -0.0003442958881729197
195 -0.005385973322382226 -0.009323007982192622 -0.0005240091906064388
196 0.0017119219317408268 -0.0020211042273114463 0.0005652100854410263
197 -0.0037733958361421942 -0.0003605874123993204 -0.0031632164265869463
199 0.00629125261863394 -0.0026910228079110414 -0.008022847401092124
200 0.0004842464636182094 -0.0019196373720649792 -0.0006159570676296817
201 0.004038558507084447 0.005709255294294276 -0.0017915868679793494
231 -0.0007025928834923471 0.0004658228445411129 0.004517980923836661
235 0.0026450923680448966 0.003211313225994686 -0.0012567814798066167
236 -0.0010207458014007467 0.004501263830624478 -0.0020682889460426008
237 -0.0022390606473827023 -0.0040631629052557535 -0.0028263084722201974
238 0.0022139570243785243 -0.002896503176447535 -0.0006111215371206707
320 0.012089417653529798 0.019914995903800903 0.007503950709445816
321 -0.007651802808224739 0.004907310081480156 -0.019301498070530165
323 -0.0032748337333970545 -0.0020305102341802916 -0.0033341520246600543
324 0.015823019718412337 -0.025164533276085824 -0.0007064910282990011
325 -0.0037177914336112457 0.005670435785662485 0.019638923137149433
326 0.0022904816882786732 -0.007329083921775254 0.004557041424235772
327 -0.0005083106017852771 0.005133898062852275 -0.0017540113718768
329 -0.02463130186182717 -0.012363772149159322 0.006315955546669493
362 -0.014787569471481538 0.04488397656944135 -0.033714385492142805
377 0.0006035605094913825 0.013159285709992894 0.007305230862355189
378 -0.03021789271610777 -0.009995244422280579 0.019954729907965454
379 -0.00010123040623549115 0.002570032473112123 0.0025524036892620224
7 0.0014156691853117339 -0.0009868385974323678 0.001807750360763263
8 0.005869844993238993 0.031748582780888074 -0.003964635826558428
9 0.0037741470392618015 0.0019258842282861355 0.005147556476394449
13 0.039820718541488886 0.014134640481520242 -0.015365385369809349
14 0.015859370649209382 -0.006878819802576421 -0.014510251006196904
15 -0.002144570776349094 0.02449932722090792 0.007299174530012745
16 0.001154288686193717 6.348268231264821e-05 -0.00014465957778399887
26 0.0010741692036824126 0.0036034417147119578 -0.0017615499492671333
44 0.000836804100936553 0.0014607835580945246 -0.0040165152278888745
47 -0.0023845560728778825 0.001543082387473111 0.0033767182506305453
84 0.006433746042097087 -0.0017397311445986516 -0.026061405016501494
85 -0.02144745022453207 -0.0029892369925550886 -0.007698337480406547
89 0.020038448114480377 -0.017932774271211482 -0.004063759151507946
119 -0.00266748473400264 0.002949222286436158 0.011812271903179138
123 -0.001629966592822548 0.0085923250288728 -0.023740510382428394
124 0.028818105577599146 0.001743953132228628 -0.02898008174323695
125 -0.006003675775031509 -0.020346833516627378 0.01875037087902173
132 -0.004758890743984914 0.010429172843330635 0.0002837642584052288
135 -0.001443210218057952 0.0022000877125459956 -0.006805222937088609
136 -0.017534238947812017 0.008274548814394456 -0.015522086788728046
137 -0.02223030598267896 0.014301263597136857 -0.0037362450940545415
155 0.014420929447286299 0.012306095489415666 0.008295822267671909
156 0.023688367353050268 -0.019036626299174835 0.025525214974758886
198 -0.003725257858274388 -0.0034412104632143116 -0.0021015355867585214
202 -0.0023059845817750054 0.0055425348273469175 0.004230835405481089
223 -0.00552306558925561 -0.0005471541929575349 -0.0052297934686066855
241 -0.0022811820364069895 -0.0036044509394657946 -0.0015828582366139684
242 0.0037089063354829484 -0.0008263696453689644 8.186479243794984e-05
243 -0.0009725543660808566 0.001610707381808257 -0.0031386817777364863
322 0.023821097351246028 -0.0005350941226890802 0.004070924360405193
334 0.010910652694726507 -0.0012709601672504312 -0.013718830401739364
335 0.0031851195791371832 0.028066123801530462 -0.00038209534655335334
336 -0.005410181428331112 -0.0009930653152997095 0.008328515481423552
337 0.02124635404869264 -0.015135755746212187 -0.019787054079131495
338 0.00038686378075014714 0.026774543298966134 0.006827355609221983
339 0.00168474721331479 -0.005323666785536922 0.026686430047691733
340 0.005937893682287676 -0.007563625855801335 0.00317225246626533
345 0.0033943036939327546 -0.004679214743750742 0.025096203284851314
346 0.014458309895591602 -0.016517577330178317 0.010523640841245161
347 -0.023831683346163517 -0.004441234485297963 0.01121228068076715
348 0.002758937691492497 -0.003582990217509528 0.0012463923134116233
363 -0.014010937063765277 -0.000507205084394915 0.012696324251181236
364 0.00952691507958733 0.010060368056807673 0.016578857271333177
365 -0.0015454312900413385 -0.002923552001162725 -2.6608555114702137e-05
368 -0.02136098659116396 0.011087953894660054 -0.015675184912322802
375 -0.002574506692053998 -0.006404124918363472 0.018708947037728206
17 0.004722694795100901 -0.004501030578536084 -0.0029542650708322257
18 0.007475450415214278 -0.023314579924328036 0.0048494722381852776
19 -0.010991320024884788 -0.007052766819686235 -0.007816977556776666
20 0.002467253727668308 0.00016414895341656822 0.000608499993900876
21 0.00039966544953522204 -0.005466994943904086 -0.0005720841146616165
22 -0.003420011366825443 0.009382381034947714 0.004821283034214942
25 -0.001104470096690151 -0.0025325899141423833 0.00027523905946119843
28 0.0019213286203973343 0.003232545249602531 0.0003981022027799245
49 -0.001605116704307966 -0.003510804913952548 0.004861094863146299
50 -0.003323841888080386 -0.006278201525703069 0.0003116679954055323
83 -0.003101374666279884 0.028782696116347622 -0.013612409277591964
110 0.023440615732788706 0.00942003001587217 -0.02162130149249481
111 0.028678158508165144 0.01930463445058586 0.011102817335950584