ITEM: TIMESTEP
0
ITEM: NUMBER OF ATOMS
350
ITEM: BOX BOUNDS xy xz yz pp pp pp
-6.7108999999999996e+00 1.5238200000000001e+01 -6.2626999999999997e+00
-6.4200000000000002e-01 1.4502800000000001e+01 -4.4819999999999999e-01
0.0000000000000000e+00 1.7008500000000002e+01 -6.4200000000000002e-01
ITEM: ATOMS id type q x y z element
7 4 0.889263 -0.995532 3.24439 2.94455 Si
29 4 1.25369 6.64264 1.49676 4.73214 Si
14 4 0.958313 0.65304 5.18487 1.43759 Si
17 4 1.02125 -0.733977 6.51709 5.65147 Si
26 4 0.604177 4.05974 0.767503 3.46579 Si
296 3 -0.713837 -0.469111 2.08618 2.00192 O
33 4 1.02851 1.74929 5.95974 4.12409 Si
34 4 1.02615 5.17416 3.34816 6.45112 Si
36 4 1.11059 4.03046 6.07731 5.95233 Si
94 2 0.35453 -1.78266 5.45146 2.49491 H
62 1 -0.10269 2.72581 1.95024 4.35976 C
77 2 0.103601 1.76055 3.58899 6.42695 H
322 2 0.0573047 -0.958968 3.55194 7.36756 H
79 2 0.0202243 -1.41803 5.4883 6.90613 H
82 2 -0.00472152 4.4987 1.25881 1.88737 H
84 2 0.282558 1.64207 5.83536 7.46876 H
83 2 0.0685204 1.22367 3.56469 6.53352 H
272 2 0.0209723 4.50416 3.89996 1.30086 H
117 2 0.0309416 1.78938 1.51643 4.00546 H
118 2 0.0622414 2.84424 2.94238 3.94911 H
119 2 0.0993865 2.91665 1.88801 5.44156 H
164 3 -0.693388 -1.48382 4.76094 1.85051 O
280 2 0.0899745 4.43648 4.56949 3.57399 H
95 2 0.104436 4.36578 5.32059 3.13839 H
167 3 -0.751974 -1.81703 6.36377 4.45199 O
182 3 -0.715994 5.47541 0.512971 4.27215 O
317 2 0.0898281 1.63998 1.14627 0.609346 H
189 3 -0.768849 1.63527 5.07606 2.70796 O
190 3 -0.770538 0.61393 5.6321 5.22845 O
191 3 -0.721708 4.48703 2.11801 7.36422 O
194 3 -0.795818 3.23424 6.51132 4.62009 O
195 3 -0.72404 3.9066 4.39804 6.06863 O
201 3 -0.687956 2.61502 6.15535 7.67692 O
315 1 -0.106083 2.37043 1.94861 0.637572 C
166 3 -0.745175 -0.311951 7.10621 1.51625 O
318 2 0.0327687 2.41449 2.47341 1.58013 H
334 2 0.0171695 0.925824 0.284412 2.54409 H
268 1 -0.101576 4.82185 4.3748 0.39188 C
316 2 0.0329308 3.32914 1.73597 0.215414 H
165 3 -0.757509 1.27625 4.75338 0.0145695 O
192 3 -0.782805 6.04998 2.85017 5.18377 O
319 1 -0.10689 -0.814924 3.53802 8.4372 C
320 2 0.0364412 0.187058 3.65513 8.79857 H
133 2 0.0601192 3.16122 5.16521 14.7201 H
13 4 0.69379 0.634424 1.02716 11.2043 Si
18 4 1.0153 -0.53481 3.32629 12.7555 Si
19 4 0.786675 -1.15309 5.91971 11.497 Si
28 4 1.08888 4.28672 1.60947 8.92372 Si
31 4 0.660175 3.70543 1.73012 14.0392 Si
198 3 -0.718047 2.25797 6.47985 11.1355 O
12 4 1.07823 -1.71224 2.57036 15.3351 Si
63 1 -0.118041 3.29048 3.41024 9.57562 C
64 1 -0.0797491 4.16496 1.99975 12.1078 C
67 1 -0.0905831 2.18407 5.59081 14.6595 C
102 2 0.270331 0.854559 0.818568 8.54592 H
125 2 0.052475 3.22325 2.20455 11.6184 H
85 2 0.339847 1.40834 1.85961 14.0722 H
336 2 -0.00934668 -1.08585 6.38503 15.859 H
136 2 0.0406205 4.04376 4.47026 12.3709 H
120 2 0.0215738 3.96576 3.94697 10.2051 H
121 2 0.0421662 2.40045 3.04683 10.0585 H
210 3 -0.734594 6.39665 -0.529439 14.5044 O
123 2 0.122874 4.44656 1.00512 11.846 H
124 2 0.0418879 4.917 2.75021 12.0192 H
267 4 0.667008 5.34916 2.2443 16.3854 Si
132 2 0.0965211 1.44268 5.01184 15.131 H
8 4 0.857813 1.0068 2.63902 16.3472 Si
321 2 0.0536858 -1.52726 4.17192 8.94234 H
161 3 -0.778447 -0.340987 1.92207 15.9059 O
162 3 -0.706767 -0.0580361 0.598598 9.17977 O
163 3 -0.726778 2.02818 0.182726 11.3288 O
193 3 -0.728413 -0.127314 6.43049 9.72109 O
169 3 -0.752949 0.0661455 1.80797 12.5485 O
170 3 -0.754925 -0.486091 4.42522 11.5918 O
269 2 0.0785551 4.93396 0.620722 16.7968 H
184 3 -0.674089 2.8794 -0.0615605 14.5137 O
185 3 -0.640838 4.9483 2.38817 14.8451 O
186 3 -0.664512 1.99511 2.55771 14.4984 O
187 3 -0.82465 5.52266 1.25412 9.81822 O
188 3 -0.781713 6.78419 0.518207 12.0406 O
168 3 -0.760803 -1.67635 3.48613 13.9804 O
134 2 0.0769532 1.9221 5.82004 13.6355 H
181 3 -0.64951 3.11279 0.493451 8.77832 O
68 1 -0.122067 4.51052 5.36374 12.7341 C
80 2 0.302884 0.45903 5.67877 9.77637 H
270 2 0.0675997 3.54499 4.11064 16.8134 H
122 2 0.0832175 3.10993 3.85397 8.62704 H
137 2 0.057456 4.33346 5.5081 13.791 H
1 4 0.6061 -4.19342 13.4734 2.48693 Si
2 1 -0.138114 -5.07234 11.8214 3.30894 C
111 2 0.0710305 -2.85898 7.8835 2.21503 H
180 3 -0.639978 -2.80609 13.7884 3.28532 O
6 3 -0.740263 -3.83961 13.3878 0.912677 O
57 1 -0.0918448 -3.98643 12.8908 6.53671 C
20 4 0.996272 -1.41844 10.0807 1.44112 Si
22 4 0.717421 -1.02355 9.03206 7.36664 Si
27 4 0.983052 1.01393 14.0396 6.92478 Si
39 4 0.704779 0.175225 11.1982 3.76858 Si
40 4 0.560742 2.41394 7.7735 7.96164 Si
104 2 0.071775 -3.50438 13.5599 5.85944 H
60 1 -0.109941 -3.13464 8.86479 1.9239 C
61 1 -0.122906 -2.93333 8.68626 8.21617 C
69 1 -0.0271783 0.46237 12.9431 2.57807 C
70 1 -0.0900481 -1.53184 11.5447 5.03452 C
103 2 0.0245127 -3.70225 11.8528 6.41778 H
88 2 0.0915278 1.33077 8.46311 6.83646 H
100 2 0.055262 1.83531 10.5532 7.23562 H
116 2 0.0596951 -3.22298 7.82575 7.58459 H
87 2 0.284589 -0.10106 7.6375 2.51234 H
113 2 0.0309038 -3.49487 9.47581 2.74466 H
9 4 0.455114 -3.20555 13.3914 8.43818 Si
112 2 0.0373979 -3.71005 8.88318 1.02727 H
138 2 0.135269 0.481721 12.4242 1.59087 H
139 2 0.102682 1.39282 13.3848 2.91272 H
140 2 0.128081 -0.430269 13.5494 2.72919 H
141 2 0.0318511 -2.12219 10.6584 4.90633 H
142 2 0.111356 -2.00228 12.4495 4.73104 H
143 2 0.0662072 -1.06257 11.6262 6.01485 H
21 4 1.14409 -2.42284 12.818 0.26135 Si
172 3 -0.767083 -1.85795 11.6285 1.26043 O
173 3 -0.754682 -0.510341 8.01404 6.24122 O
287 2 0.105166 2.6029 8.73135 3.94173 H
5 2 0.0408022 -4.16504 11.3101 3.65939 H
199 3 -0.676726 -0.423351 10.0151 2.82044 O
16 4 0.987908 0.102468 7.89065 0.168509 Si
203 3 -0.703524 -0.432154 13.2264 8.0848 O
205 3 -0.660001 1.49768 10.7275 4.54733 O
290 3 -0.723305 2.52163 11.2974 1.28739 O
278 1 -0.0553822 2.6489 8.74747 2.85449 C
285 2 0.0724577 3.35387 8.06979 2.40118 H
286 2 0.118385 1.69383 8.91586 2.34244 H
202 3 -0.775637 -0.155764 10.1405 8.10024 O
105 2 0.0739016 -5.05051 13.0259 6.63576 H
114 2 0.0443653 -3.52285 9.56085 8.13062 H
42 4 0.607614 2.10158 11.5242 5.80655 Si
171 3 -0.733664 -0.630591 9.36479 0.166808 O
345 2 0.0372142 -4.67423 10.7824 0.548419 H
213 3 -0.749692 1.79743 9.97066 12.0247 O
23 4 0.49363 -4.9045 12.7411 10.1775 Si
24 4 0.708846 -1.71464 8.60016 12.8475 Si
25 4 1.27296 -2.36061 11.2791 11.4347 Si
11 4 0.795309 -3.66441 13.7956 12.5623 Si
37 4 0.98872 2.30843 7.4723 15.6522 Si
41 4 1.32025 -0.233491 11.3851 9.15827 Si
38 4 0.693064 3.6758 6.85945 11.7334 Si
44 4 0.990335 -0.248628 12.8917 15.7907 Si
45 4 1.17645 1.73417 11.4756 11.442 Si
72 1 -0.113888 -3.18512 8.15904 14.3311 C
73 1 -0.0507548 -0.250936 10.9919 14.7388 C
78 2 0.349461 -0.385594 13.8312 8.82134 H
115 2 0.0525107 -2.58186 8.4647 9.21672 H
214 3 -0.790792 1.03864 12.4338 12.502 O
197 3 -0.751291 1.24631 7.53618 16.9236 O
339 2 0.314708 -2.93839 12.0483 14.5787 H
35 4 1.03895 1.12971 7.42605 10.4129 Si
150 2 0.0984752 0.758038 10.6811 15.0073 H
151 2 0.162807 -0.514129 11.2224 13.7202 H
152 2 0.0914123 -1.0038 10.4272 15.2636 H
175 3 -0.693423 -0.853218 7.34366 12.2985 O
176 3 -0.677855 -3.27916 11.282 15.2312 O
177 3 -0.665809 -4.32162 10.8845 10.8756 O
178 3 -0.743709 -1.64719 10.1272 12.2768 O
179 3 -0.75828 -2.61305 12.5863 12.3791 O
147 2 0.0917892 -4.13078 8.41179 13.8386 H
344 2 0.105915 -5.31902 13.7222 15.4559 H
200 3 -0.676769 1.9335 8.40483 9.36926 O
204 3 -0.826945 -1.56754 11.5778 10.0048 O
207 3 -0.744086 1.94614 8.62418 14.5507 O
209 3 -0.731797 0.858831 12.9215 16.965 O
323 1 -0.0927428 -5.98256 12.898 15.6687 C
211 3 -0.78039 -1.71428 13.0685 16.5257 O
212 3 -0.802065 1.13751 11.6569 9.97508 O
235 4 0.602974 -4.92701 11.1201 15.2759 Si
148 2 0.0780593 -2.96034 8.75333 15.1885 H
43 4 1.13718 2.7662 9.27231 13.2098 Si
246 2 0.295817 -4.74279 11.0858 11.7985 H
149 2 0.0167271 -3.01676 7.09455 14.471 H
30 4 1.14688 0.985741 13.9271 13.1332 Si
101 2 0.215425 1.20006 9.49756 16.68 H
303 2 0.319163 -2.53743 13.9099 14.7805 H
15 4 0.967046 11.7635 6.44818 4.53825 Si
46 4 1.0679 9.35727 2.48884 3.62731 Si
49 4 1.21604 12.0477 2.44337 4.82056 Si
50 4 0.697307 9.11848 5.31002 3.83404 Si
51 4 1.0905 6.97698 6.62674 5.27488 Si
52 4 0.611777 8.58972 6.80032 1.44477 Si
53 4 1.07794 10.3617 3.14522 7.20677 Si
54 4 1.04041 9.61106 5.97251 6.57179 Si
66 1 -0.0812673 6.67492 4.23594 7.90875 C
91 2 0.294069 7.68487 4.72554 1.48787 H
183 3 -0.701574 7.09878 0.981981 6.23238 O
271 2 0.0748277 5.60873 5.08778 0.500879 H
219 3 -0.762822 13.5389 2.48624 4.2913 O
346 2 0.0793907 9.73492 0.498961 1.01723 H
282 2 0.279565 10.876 0.734262 6.32929 H
99 2 0.00715743 9.8349 6.03079 0.55599 H
340 2 0.167537 11.2348 3.48567 1.81666 H
215 3 -0.752214 8.72144 1.02926 3.7998 O
131 2 0.111593 7.29908 4.95697 7.38964 H
220 3 -0.760179 10.9764 2.41354 3.53252 O
221 3 -0.754421 11.6513 0.376445 5.6227 O
222 3 -0.717721 8.6242 3.81836 4.16815 O
223 3 -0.674553 10.8405 5.45762 3.57464 O
224 3 -0.798675 5.62421 6.43774 6.17918 O
225 3 -0.661922 7.70915 5.57051 2.1498 O
226 3 -0.809355 9.47794 1.801 7.42987 O
227 3 -0.787161 11.4796 3.35437 6.01706 O
228 3 -0.773317 11.0814 6.42567 6.05038 O
47 4 0.995006 13.0046 0.131159 6.61203 Si
230 3 -0.753687 9.57706 4.55579 7.49206 O
129 2 0.0939937 7.22765 3.354 8.17283 H
294 4 0.703312 13.6151 1.19934 1.27878 Si
281 2 0.14705 11.8389 3.95835 1.79493 H
216 3 -0.730146 12.8408 1.10185 7.91597 O
297 3 -0.772888 12.1629 1.70363 0.904856 O
229 3 -0.842455 8.22417 6.7032 6.21125 O
92 2 0.296349 9.47979 0.503435 4.53267 H
10 4 0.609022 13.8984 1.58553 9.00824 Si
135 2 0.0108158 5.55596 5.51454 12.427 H
313 3 -0.725731 6.87475 2.48575 16.8905 O
312 3 -0.82164 9.58537 2.4283 16.7933 O
58 1 -0.129565 12.7509 2.02882 10.6596 C
110 2 0.0360839 11.6916 5.42872 10.2664 H
341 2 0.0560383 13.9655 -0.257986 12.8516 H
130 2 0.0152499 5.99211 4.68542 8.6253 H
295 2 0.0428112 14.0044 0.154144 16.8008 H
106 2 0.0318136 13.2198 1.54136 11.4777 H
107 2 0.0355039 11.7653 1.62963 10.473 H
108 2 0.0349217 12.772 3.10476 10.7417 H
329 2 0.033282 9.23768 0.920883 14.0024 H
127 2 0.0460711 8.13943 3.61361 11.062 H
311 3 -0.818617 12.0097 2.00748 15.4416 O
310 2 0.0864 11.3714 4.26695 15.2992 H
314 3 -0.657626 8.15783 3.23734 14.5172 O
48 4 1.06324 9.05694 0.823761 8.61541 Si
32 4 1.13604 6.92431 1.3842 10.6974 Si
126 2 0.00702768 6.39812 3.99031 10.7164 H
328 1 -0.120147 9.3364 -0.125568 13.8476 C
218 3 -0.821744 8.33978 1.36343 9.94906 O
243 1 -0.103135 8.35267 6.12609 10.3716 C
298 4 1.09769 11.0192 1.70115 16.6561 Si
248 2 0.0334711 7.68048 6.23388 14.6644 H
256 2 0.0161694 7.43713 5.8867 10.895 H
257 2 0.0440535 9.28096 5.85415 10.8597 H
258 2 0.059905 8.37068 5.83191 9.31775 H
65 1 -0.12779 7.09294 3.39772 11.3114 C
299 4 1.06677 8.19691 2.48315 15.9611 Si
300 4 0.29473 9.353 4.04779 13.8083 Si
301 1 -0.0978922 10.4966 2.88629 12.5216 C
302 1 -0.0967804 10.6671 5.03931 15.1147 C
128 2 0.0855922 6.92108 3.26752 12.3769 H
304 2 0.0149925 8.49567 5.32362 12.9587 H
305 2 0.0576549 9.81772 2.16385 12.0883 H
306 2 0.0944698 11.2507 2.41464 13.1531 H
307 2 0.026115 10.9185 3.53559 11.7792 H
308 2 0.0357809 10.0371 5.31103 15.9531 H
309 2 0.0239306 11.0738 5.89763 14.616 H
109 2 0.0237092 11.5294 5.38084 12.0497 H
59 1 -0.126339 11.9378 5.92847 11.1884 C
348 2 0.0338991 9.90972 -0.404707 13.0007 H
261 2 0.0201074 12.5132 -0.279764 11.1665 H
97 2 0.000864815 11.4491 3.09586 8.59282 H
331 2 0.0397145 7.99797 14.056 3.04181 H
250 2 0.0482918 8.34978 8.57937 8.17081 H
55 4 0.6235 8.29173 8.66473 3.55816 Si
71 1 -0.0953378 4.05598 8.93113 7.30832 C
74 1 -0.0729936 7.20273 10.4242 2.74845 C
75 1 -0.119256 9.46499 9.22298 5.1873 C
217 3 -0.731758 2.67619 13.7158 8.3639 O
293 3 -0.730479 7.22593 13.1708 6.89411 O
347 2 0.0844888 3.77124 13.7829 2.32757 H
144 2 0.0470297 4.96367 8.716 7.96311 H
153 2 0.119807 6.27867 10.4014 3.28846 H
154 2 0.117449 7.11181 10.2048 1.70694 H
155 2 0.0115157 7.80528 11.2987 3.00747 H
156 2 0.0134058 9.93166 10.1554 4.86713 H
157 2 0.0503191 10.1037 8.35099 5.24563 H
158 2 0.0491981 8.72272 9.31284 5.96078 H
337 2 -0.0131861 11.4742 8.07238 3.9914 H
231 3 -0.688454 7.02155 7.87515 4.18032 O
232 3 -0.682677 9.12148 7.96269 2.33562 O
292 3 -0.696554 5.16377 11.3616 6.02832 O
146 2 0.0665181 4.22093 8.51542 6.29736 H
274 4 1.03109 3.73837 10.4968 2.19405 Si
275 4 0.923122 2.67022 12.617 0.287125 Si
276 4 0.727516 4.26879 12.084 4.87813 Si
277 4 0.643068 6.69786 11.6688 6.43338 Si
333 2 0.061897 6.32635 13.6007 2.54923 H
96 2 0.0553741 7.39975 7.43974 0.43385 H
332 2 0.0101924 7.74757 13.2148 1.45325 H
145 2 0.0462619 3.65038 9.93059 7.32145 H
283 2 -0.0196827 7.8576 11.0308 5.33334 H
284 2 0.0170292 6.89948 10.6527 7.8116 H
89 2 0.256877 3.46858 13.4745 7.66373 H
289 3 -0.769137 4.99988 10.216 1.1784 O
288 2 0.0329496 4.85543 13.7686 0.857316 H
291 3 -0.731232 4.18624 11.4012 3.45131 O
279 1 -0.0863764 3.8882 14.053 1.29195 C
4 2 0.0153189 9.56618 12.2191 4.10486 H
330 1 -0.12228 7.32927 13.859 2.2061 C
206 3 -0.708782 1.80796 13.0799 5.84878 O
98 2 0.0788843 6.39319 7.04957 8.26917 H
3 2 0.0220069 9.61648 11.2277 2.57675 H
324 2 0.0415585 8.93305 12.777 16.6824 H
56 4 0.561594 4.38458 11.108 15.2665 Si
76 1 -0.117136 5.97367 12.3611 15.6653 C
260 2 0.0873988 7.03575 13.7742 9.59545 H
90 2 -0.00984622 3.36291 12.0626 11.4674 H
343 2 0.0425631 8.49134 12.8508 14.9379 H
240 1 -0.127252 8.32383 7.08395 14.7087 C
326 2 0.063212 8.58269 10.0017 16.5349 H
159 2 0.03818 5.70654 13.2849 15.1238 H
160 2 0.0689914 6.82182 11.8076 15.3126 H
273 4 1.00565 4.84759 8.83622 16.7626 Si
233 3 -0.699209 4.35438 10.785 13.6192 O
234 3 -0.693027 2.94862 11.6005 15.8787 O
265 3 -0.695033 10.0073 10.5393 13.797 O
236 4 0.631422 6.98342 8.57443 14.7289 Si
237 4 0.143166 8.37539 8.16585 10.6148 Si
238 4 1.13509 8.54321 10.4392 13.0137 Si
239 4 0.283481 8.46153 13.2994 11.6338 Si
349 2 0.0598634 3.22 13.8084 14.7487 H
241 1 -0.08646 9.14782 8.87988 8.83379 C
242 1 -0.0900537 6.44595 8.99539 10.8551 C
244 1 -0.0847046 6.72174 13.4571 10.5944 C
208 3 -0.742036 3.85703 8.19581 12.635 O
81 2 0.310215 10.2315 9.05387 11.6831 H
86 2 -0.0122298 4.79342 6.9918 10.3893 H
338 2 0.342117 8.60933 12.8278 8.81252 H
245 2 0.046712 5.73852 7.83085 13.8292 H
253 2 0.072688 6.21995 8.74493 11.8728 H
254 2 0.0242712 5.88277 8.44785 10.1282 H
255 2 0.0583339 6.64387 10.0502 10.6323 H
259 2 0.0611988 6.18311 12.5298 10.5545 H
249 2 0.0215532 8.84075 7.19447 15.6556 H
325 1 -0.111661 9.63767 9.77892 16.6392 C
262 3 -0.705819 6.42705 8.78149 16.2869 O
263 3 -0.764974 7.29146 9.90429 13.8674 O
264 3 -0.628044 9.47753 8.63553 12.1587 O
335 2 0.315662 5.20075 10.3507 13.2928 H
266 3 -0.695293 8.37189 11.8335 12.2747 O
327 2 0.039549 9.87011 8.76717 16.4051 H
196 3 -0.743672 3.90398 7.66422 16.1224 O
252 2 0.107716 9.34442 9.88952 8.92921 H
174 3 -0.630856 9.34833 12.271 8.91671 O
247 2 0.0662294 8.99848 7.18883 13.8935 H
93 2 0.14666 2.82887 10.3776 9.56324 H
251 2 0.035873 9.96988 8.24438 8.757 H
350 2 0.0160098 6.02563 12.5239 16.7204 H
342 2 0.035265 11.7292 6.99515 11.1946 H
ITEM: TIMESTEP
100
ITEM: NUMBER OF ATOMS
350
ITEM: BOX BOUNDS xy xz yz pp pp pp
-6.8451180000000003e+00 1.5542964000000001e+01 -6.3879540000000006e+00
-6.4200000000000002e-01 1.4502800000000001e+01 -4.5716400000000001e-01
0.0000000000000000e+00 1.7008500000000002e+01 -6.4200000000000002e-01
ITEM: ATOMS id type q x y z element
7 4 0.984121 -0.985792 3.218 3.08146 Si
29 4 1.10858 6.62076 1.44303 4.81032 Si
14 4 0.885878 0.582849 5.16356 1.47031 Si
17 4 1.00583 -0.700267 6.67575 5.52597 Si
26 4 0.65642 3.98009 0.841725 3.56423 Si
296 3 -0.716386 -0.429742 2.09714 2.06733 O
33 4 1.0931 1.72739 6.00872 4.06734 Si
34 4 0.974369 5.16537 3.28393 6.54901 Si
36 4 1.20332 4.05933 6.05624 5.86381 Si
94 2 0.342677 -1.50927 5.40673 2.47773 H
62 1 -0.106388 2.77086 1.87287 4.75049 C
77 2 0.0807398 2.21543 3.32867 6.53772 H
322 2 0.0808529 -1.1283 3.46438 7.04548 H
79 2 0.011605 -1.23642 5.83041 6.98576 H
82 2 -0.00376698 4.28885 1.57221 2.07631 H
84 2 0.291083 2.24427 5.47964 7.81403 H
83 2 0.0620386 1.37345 3.65549 6.32008 H
272 2 0.0318151 4.29995 3.6281 1.34865 H
117 2 0.031167 1.91429 1.21453 4.9528 H
118 2 0.0494263 2.48449 2.74915 4.13925 H
119 2 0.106457 3.39079 2.10745 5.61804 H
164 3 -0.682504 -1.49164 4.64013 1.88044 O
280 2 0.0849384 4.89754 5.72462 2.61288 H
271 2 0.0551827 4.98096 5.09529 0.491727 H
167 3 -0.729144 -1.95054 6.32144 4.45576 O
182 3 -0.709174 5.46313 0.530729 4.16003 O
317 2 0.0774586 1.34097 1.08374 0.835633 H
189 3 -0.773171 1.66566 5.08603 2.71836 O
190 3 -0.801877 0.668373 5.91092 5.25703 O
191 3 -0.746133 4.5038 2.06331 7.42877 O
194 3 -0.804007 3.06039 6.66867 4.6906 O
195 3 -0.782225 4.10234 4.49196 6.17285 O
201 3 -0.711802 2.87948 6.2718 7.75531 O
315 1 -0.0970627 2.11604 1.78202 0.622084 C
319 1 -0.114263 -0.884411 3.60876 8.0859 C
318 2 0.0328925 2.41484 2.37908 1.46633 H
334 2 0.0081672 0.85086 0.162784 2.55361 H
268 1 -0.105295 4.44891 4.15126 0.425914 C
316 2 0.0698593 2.94251 1.40088 0.031805 H
165 3 -0.725817 1.17304 4.62287 0.0626316 O
192 3 -0.691299 5.91575 2.97314 5.05987 O
320 2 0.0225681 0.166476 3.66327 8.37887 H
269 2 0.0820442 5.57179 1.37008 0.0782506 H
166 3 -0.743814 -0.287704 7.18214 1.73448 O
181 3 -0.64678 2.98753 0.531281 8.93687 O
133 2 0.0823206 2.51935 4.98531 15.2713 H
13 4 0.711295 0.60577 0.968891 11.1979 Si
18 4 1.0361 -0.473312 3.29164 12.7621 Si
19 4 0.779265 -1.03269 5.9875 11.4491 Si
28 4 0.972038 4.25643 1.64508 8.96557 Si
31 4 0.692839 3.58711 1.5666 14.1702 Si
198 3 -0.709593 2.36638 6.29955 11.118 O
80 2 0.302381 -0.156618 5.69811 9.23545 H
63 1 -0.123489 3.40391 3.4322 9.72044 C
64 1 -0.0658449 4.07532 1.84396 12.1522 C
67 1 -0.0742276 1.86086 5.62577 14.7079 C
102 2 0.288774 0.852365 1.01739 8.54805 H
125 2 0.0483245 3.26163 2.40754 11.7634 H
85 2 0.274632 1.47252 2.38542 13.9931 H
336 2 0.017803 -0.995843 6.02944 16.1285 H
136 2 0.0622827 3.64266 4.78966 13.2801 H
120 2 0.0203204 4.05511 3.82783 10.481 H
121 2 0.0491137 2.4376 3.11881 10.0606 H
122 2 0.0662187 3.36228 4.02178 8.81315 H
123 2 0.131649 4.1524 0.865995 11.663 H
124 2 0.0668554 5.01734 2.37011 12.2582 H
267 4 0.697641 5.34974 2.29204 16.3961 Si
132 2 0.0856947 0.804036 5.51226 14.9779 H
8 4 0.833806 0.828275 2.51362 16.3855 Si
321 2 0.0342705 -1.48963 4.34193 8.59745 H
161 3 -0.754301 -0.598379 1.87678 15.8985 O
162 3 -0.708828 -0.0352125 0.867976 9.09205 O
163 3 -0.722111 2.04995 0.354336 11.6453 O
193 3 -0.704136 -0.320541 6.46375 9.59161 O
169 3 -0.769914 -0.212242 1.73325 12.4218 O
170 3 -0.735296 -0.500573 4.41914 11.6337 O
68 1 -0.118031 4.50867 5.31127 12.884 C
184 3 -0.675511 2.82792 -0.202704 14.6857 O
185 3 -0.643747 4.90501 2.20359 14.8574 O
186 3 -0.668527 2.10589 2.70217 14.6784 O
187 3 -0.779206 5.73215 1.21039 9.63155 O
270 2 0.0748916 3.16184 3.49717 16.7747 H
168 3 -0.769858 -1.42137 3.72455 14.087 O
134 2 0.0723453 2.1037 5.77094 13.6822 H
1 4 0.62753 -4.10688 13.4955 2.36734 Si
2 1 -0.137326 -4.9791 11.8206 3.11314 C
111 2 0.06231 -2.78147 8.16358 2.40584 H
180 3 -0.66591 -2.94951 13.8991 3.36786 O
6 3 -0.775269 -3.64922 13.4353 0.785405 O
57 1 -0.0844516 -3.99342 13.0695 6.63307 C
20 4 1.02444 -1.47859 10.0048 1.36657 Si
22 4 0.719965 -1.0322 8.99435 7.39619 Si
27 4 1.03533 1.14757 13.9444 6.93091 Si
39 4 0.677467 0.107101 11.0395 3.78584 Si
40 4 0.631103 2.44247 7.80211 7.93825 Si
104 2 0.0729548 -3.52017 13.8648 6.04773 H
60 1 -0.115085 -3.26403 8.78758 1.66648 C
61 1 -0.111852 -2.91636 8.52968 8.1003 C
69 1 -0.0280962 0.616092 12.7587 2.75327 C
70 1 -0.0767092 -1.30744 11.5773 5.3191 C
103 2 0.036567 -3.69886 12.0537 6.42028 H
88 2 0.0838122 1.35944 8.24007 6.68731 H
100 2 0.0586789 1.89287 10.5035 7.19795 H
116 2 0.0575854 -3.0531 7.46789 8.14399 H
87 2 0.316969 0.0425025 7.89008 2.37333 H
113 2 0.0497489 -4.10356 9.3662 1.96697 H
206 3 -0.748894 1.69374 13.0077 5.76623 O
112 2 0.0376532 -3.4528 8.27818 0.741404 H
138 2 0.137231 0.0640128 12.7166 1.81075 H
139 2 0.107365 1.70833 12.6844 2.63748 H
140 2 0.129164 0.331306 13.5539 3.44474 H
141 2 0.0413454 -1.94834 10.7086 5.40585 H
142 2 0.093584 -1.733 12.436 4.80213 H
143 2 0.113334 -0.72464 11.8356 6.17654 H
21 4 1.19344 -2.3072 12.7826 0.203755 Si
172 3 -0.808892 -1.68761 11.5497 1.02022 O
173 3 -0.718192 -0.604863 8.28367 6.00617 O
287 2 0.108279 3.28315 8.72027 3.83863 H
5 2 0.0360634 -4.20796 11.0894 3.21405 H
199 3 -0.703132 -0.547236 9.95385 2.72514 O
16 4 0.92598 0.173681 7.81988 0.235612 Si
203 3 -0.723483 -0.395247 13.1634 7.90487 O
205 3 -0.650708 1.54961 10.7035 4.45528 O
290 3 -0.74986 2.6394 11.364 1.18438 O
278 1 -0.0651386 2.8589 8.60773 2.83158 C
285 2 0.0737428 3.2595 7.81275 2.17906 H
286 2 0.0851919 1.80551 8.86279 2.72149 H
202 3 -0.779232 -0.300713 10.266 8.01995 O
105 2 0.0758744 -5.0745 13.1425 6.7107 H
114 2 0.0374301 -3.46889 8.98646 7.28327 H
42 4 0.588855 2.11657 11.4903 5.77232 Si
171 3 -0.728912 -0.776826 9.15126 0.0745489 O
345 2 0.0297047 -4.48555 10.9751 0.643627 H
197 3 -0.750504 1.7419 8.09786 0.0275637 O
101 2 0.221226 1.564 10.0498 0.514654 H
213 3 -0.758846 1.76058 9.92177 12.0348 O
23 4 0.452298 -4.89858 12.6981 10.2003 Si
24 4 0.701965 -1.69335 8.57233 12.7558 Si
25 4 1.24625 -2.34899 11.3822 11.4621 Si
11 4 0.748693 -3.87899 13.7121 12.7409 Si
37 4 0.951223 2.31338 7.50484 15.621 Si
41 4 1.35781 -0.365597 11.444 9.07181 Si
343 2 0.0457061 -6.19462 13.3924 14.7495 H
44 4 1.00398 -0.182667 12.7448 15.675 Si
45 4 1.14183 1.59172 11.4654 11.4493 Si
72 1 -0.101197 -3.08719 8.39213 14.3072 C
73 1 -0.0520236 -0.263072 10.7452 14.8182 C
78 2 0.328683 -0.587383 13.9631 8.54861 H
115 2 0.0699727 -3.08544 9.0461 9.0279 H
214 3 -0.808857 0.962085 12.4748 12.5317 O
210 3 -0.74262 0.0209513 13.8255 14.5065 O
339 2 0.30646 -3.00153 12.1017 14.5656 H
35 4 0.922698 1.32387 7.36174 10.4837 Si
150 2 0.119075 0.767273 10.4968 14.8043 H
151 2 0.130712 -0.741324 10.958 13.8553 H
152 2 0.0991671 -0.865684 10.1369 15.4722 H
175 3 -0.667469 -0.812394 7.22467 12.582 O
176 3 -0.700699 -3.28919 11.3027 15.2263 O
177 3 -0.661991 -4.2442 10.8608 10.8323 O
178 3 -0.726752 -1.62456 10.0677 12.1288 O
179 3 -0.751286 -2.63115 12.6754 12.4237 O
147 2 0.0845582 -4.09302 8.5707 13.95 H
344 2 0.119613 -5.10379 13.6306 16.1263 H
200 3 -0.659343 1.89273 8.3985 9.333 O
204 3 -0.829935 -1.70107 11.5589 9.95604 O
207 3 -0.738917 1.83508 8.57303 14.4093 O
209 3 -0.722274 1.02537 12.6908 16.842 O
323 1 -0.089163 -5.89335 13.0456 15.7193 C
211 3 -0.745762 -1.58736 13.1339 16.5266 O
212 3 -0.77148 1.01975 11.5218 9.92983 O
235 4 0.641015 -4.923 11.1772 15.2844 Si
148 2 0.103635 -2.78195 9.11434 15.0773 H
43 4 1.201 2.68411 9.23564 13.1741 Si
246 2 0.302071 -4.66074 10.8544 11.7107 H
149 2 0.0325814 -2.83695 7.3832 14.5939 H
30 4 1.14658 0.916561 13.9376 13.1067 Si
303 2 0.329306 -2.49488 13.8747 14.8824 H
9 4 0.424144 -3.2807 13.4624 8.58474 Si
38 4 0.670961 3.70424 6.80848 11.7757 Si
15 4 0.989052 11.6422 6.53851 4.53944 Si
46 4 1.13016 9.36149 2.43565 3.51479 Si
49 4 1.29522 12.029 2.38 4.86975 Si
50 4 0.746815 9.08199 5.20557 3.7906 Si
51 4 0.968452 7.0183 6.56736 5.28762 Si
52 4 0.620536 8.43576 6.85174 1.5151 Si
53 4 1.15735 10.5173 3.24529 7.41411 Si
54 4 1.01456 9.64589 5.93465 6.62959 Si
66 1 -0.086245 6.67555 4.22254 7.81824 C
91 2 0.317636 7.58029 4.72568 1.80353 H
183 3 -0.736792 7.38896 0.844561 6.19255 O
95 2 0.0922698 5.09125 6.61226 2.3414 H
219 3 -0.812303 13.5517 2.73208 4.38679 O
346 2 0.0830939 9.8972 0.504561 1.44292 H
282 2 0.310976 10.7895 0.32527 5.94734 H
99 2 -0.00816018 9.55272 6.34382 0.365234 H
340 2 0.13986 11.4335 5.02456 1.65962 H
215 3 -0.746231 8.55958 0.994056 3.58177 O
131 2 0.0968104 7.28689 4.64552 7.06051 H
220 3 -0.806742 10.9117 2.47517 3.76117 O
221 3 -0.757006 11.7197 0.180007 5.50282 O
222 3 -0.727053 8.58644 3.72245 4.15037 O
223 3 -0.722993 10.6424 5.59033 3.63041 O
224 3 -0.755605 5.53435 6.72469 6.03668 O
225 3 -0.698315 7.60276 5.65388 2.16279 O
226 3 -0.791504 9.8019 1.83301 7.6299 O
227 3 -0.806669 11.6402 3.07909 6.27759 O
228 3 -0.776609 11.0571 6.6164 6.09123 O
47 4 0.971301 13.0212 0.102601 6.57084 Si
230 3 -0.813234 9.55703 4.57459 7.41848 O
129 2 0.0705339 7.25229 3.58676 8.4781 H
294 4 0.650949 13.6521 1.24493 1.29799 Si
281 2 0.114544 11.3176 4.70056 1.15164 H
216 3 -0.684452 12.7485 0.944286 7.9536 O
297 3 -0.683503 12.1736 1.87674 1.02761 O
229 3 -0.758133 8.24769 6.8269 6.41323 O
92 2 0.306083 8.67145 0.115293 4.3131 H
130 2 0.026253 5.99482 4.85946 8.34201 H
10 4 0.605876 13.8008 1.72186 8.88019 Si
135 2 0.0211493 5.0778 4.70864 12.218 H
313 3 -0.72676 6.85318 2.61416 16.8532 O
312 3 -0.79861 9.60603 2.40534 16.7782 O
58 1 -0.112545 12.6899 1.99577 10.583 C
110 2 0.0289613 12.1153 5.06431 10.1862 H
341 2 0.0654865 14.4801 -0.314444 13.2709 H
188 3 -0.775582 6.87485 0.653975 12.0656 O
295 2 0.0518151 13.7187 0.18042 16.6928 H
106 2 0.06018 13.1522 1.42509 11.4015 H
107 2 0.0468079 11.7178 1.59521 10.3252 H
108 2 0.0349187 12.7931 3.07342 10.6804 H
329 2 0.0250802 9.23265 0.868264 14.0106 H
127 2 0.0357729 8.05646 3.74986 10.8681 H
311 3 -0.811229 11.9905 1.88896 15.3412 O
310 2 0.0688228 11.6698 4.67648 14.931 H
314 3 -0.64421 8.09227 3.32075 14.6661 O
48 4 1.06386 9.24182 0.807985 8.72207 Si
32 4 1.09655 7.02233 1.42245 10.6436 Si
126 2 0.00200268 6.21215 3.82867 10.8923 H
328 1 -0.1235 9.24029 -0.203485 13.8936 C
218 3 -0.80365 8.52892 1.30064 10.0897 O
243 1 -0.106471 8.0037 6.16375 10.2907 C
298 4 1.01763 11.0212 1.62366 16.6022 Si
248 2 0.0465076 7.61367 6.1092 14.9063 H
256 2 0.0131962 7.01658 5.94806 10.6936 H
257 2 0.0405781 8.83309 5.69667 10.8124 H
258 2 0.0542488 8.06913 6.10062 9.21272 H
65 1 -0.131987 7.11875 3.41512 11.3118 C
299 4 1.07034 8.2022 2.41663 16.0049 Si
300 4 0.285433 9.26656 4.05698 13.8244 Si
301 1 -0.100027 10.2526 2.81906 12.4053 C
302 1 -0.100702 10.7481 5.24553 14.8217 C
128 2 0.0852963 7.0696 3.33659 12.4133 H
304 2 0.017035 8.25499 5.16901 12.8759 H
305 2 0.0813677 9.45955 2.16686 12.0663 H
306 2 0.0699969 11.0006 2.34992 13.0199 H
307 2 0.0225267 10.5956 3.56353 11.6925 H
308 2 0.0379997 10.3082 5.50273 15.7444 H
309 2 0.0265627 10.8434 6.05831 14.1296 H
109 2 0.0273643 11.5603 5.71552 11.8259 H
59 1 -0.120129 12.0853 5.89346 10.8983 C
137 2 0.0459336 5.06919 5.81784 13.6727 H
12 4 1.09329 13.3978 2.68146 15.2503 Si
97 2 -0.0339151 11.3876 3.33676 8.92812 H
86 2 -0.0104697 4.88819 6.84283 10.4965 H
342 2 0.0350992 11.8068 6.83883 10.4048 H
331 2 0.0488751 7.72633 14.212 3.19336 H
250 2 0.05126 8.42211 9.13326 8.21806 H
55 4 0.608726 8.23756 8.68221 3.66693 Si
71 1 -0.0924689 4.13486 8.98745 7.60446 C
74 1 -0.0907739 7.39184 10.5443 2.85671 C
75 1 -0.109269 9.46852 9.18025 5.29296 C
217 3 -0.745634 2.77496 13.6867 8.37229 O
293 3 -0.708276 7.36245 13.185 6.96757 O
347 2 0.0676908 4.41937 13.515 2.15772 H
144 2 0.0701849 4.81981 8.19501 7.71265 H
153 2 0.131185 6.34125 10.2913 2.86207 H
154 2 0.0612867 7.792 10.7318 1.85853 H
155 2 0.0184759 7.64263 11.2775 3.57503 H
156 2 0.0150816 10.0312 9.97643 4.86739 H
157 2 0.082446 10.0155 8.27808 5.49493 H
158 2 0.0454571 8.8633 9.52776 6.11568 H
337 2 -0.0108067 11.4515 8.18858 4.07283 H
231 3 -0.663205 7.02814 7.68112 4.12397 O
232 3 -0.656657 9.1225 8.03948 2.44818 O
292 3 -0.726776 5.1283 11.565 6.07634 O
146 2 0.0677812 4.05284 9.40983 6.59036 H
274 4 1.02573 3.71124 10.4454 2.18336 Si
275 4 1.00499 2.90049 12.6438 0.202797 Si
276 4 0.742796 4.24608 12.0444 4.83681 Si
277 4 0.65395 6.60413 11.7118 6.60582 Si
333 2 0.0461643 6.39965 13.5974 2.14407 H
96 2 0.0540603 7.27408 7.63227 0.535298 H
332 2 0.00510115 8.14504 13.3616 1.63347 H
145 2 0.0486897 4.13983 9.77542 8.40192 H
283 2 -0.0116277 7.67064 10.8988 5.54279 H
284 2 0.018132 6.62048 11.0089 8.20067 H
89 2 0.273027 3.43527 13.2872 7.67543 H
289 3 -0.762535 4.93368 10.0702 1.17883 O
288 2 0.0108615 4.9679 14.1612 0.574058 H
291 3 -0.742818 4.2103 11.3439 3.41002 O
279 1 -0.11537 4.1598 14.0624 1.25952 C
3 2 0.0110754 9.52255 11.6381 2.35023 H
330 1 -0.126107 7.41175 13.927 2.20584 C
98 2 0.0927024 6.67889 7.2538 8.16256 H
4 2 0.0229782 9.81929 12.1312 4.07707 H
324 2 0.020157 8.56833 12.7678 16.4026 H
56 4 0.577713 4.51311 11.2214 15.1251 Si
76 1 -0.115297 5.92113 12.776 15.1228 C
260 2 0.082037 7.24083 13.7441 9.83004 H
90 2 0.000391349 3.18364 12.0561 11.1755 H
338 2 0.315174 8.55757 12.9016 8.75792 H
240 1 -0.12988 8.2266 6.98991 14.782 C
326 2 0.0630188 8.7752 9.77775 16.8221 H
159 2 0.0407812 5.40509 13.6099 14.7203 H
160 2 0.072796 6.74978 12.4034 14.5172 H
273 4 1.02335 4.80286 8.97168 16.631 Si
233 3 -0.696116 4.42196 10.5765 13.6 O
234 3 -0.721707 3.09648 11.6189 15.7837 O
265 3 -0.726135 10.0231 10.5569 13.8574 O
236 4 0.667225 6.96097 8.56029 14.6565 Si
237 4 0.155354 8.24724 8.20266 10.5443 Si
238 4 1.15492 8.65148 10.3857 12.9749 Si
239 4 0.252538 8.62205 13.2638 11.8462 Si
349 2 0.0593264 2.93807 13.7407 14.7936 H
241 1 -0.079421 9.19283 8.90004 8.85805 C
242 1 -0.0954604 6.35795 9.10326 10.6893 C
244 1 -0.0743442 6.93231 13.3544 10.7634 C
208 3 -0.754506 3.8096 8.25645 12.4908 O
81 2 0.285669 10.2047 8.9287 11.6842 H
350 2 0.00646323 6.16312 12.8885 16.1732 H
348 2 0.0378562 3.65709 13.9184 13.1487 H
245 2 0.020044 5.83831 7.67241 13.6747 H
253 2 0.0689987 6.0482 8.84752 11.7057 H
254 2 0.0208053 5.78067 8.60168 9.91154 H
255 2 0.0553727 6.4815 10.159 10.5585 H
259 2 0.0822836 6.6884 12.3027 10.7949 H
249 2 0.0247622 8.83321 7.20122 15.6238 H
325 1 -0.119178 9.85742 9.8954 16.7957 C
262 3 -0.721472 6.3318 8.86748 16.0816 O
263 3 -0.742635 7.38484 9.96236 13.9142 O
264 3 -0.643864 9.36873 8.55137 12.061 O
335 2 0.310808 5.1861 9.93354 13.3907 H
266 3 -0.708715 8.55642 11.7135 12.159 O
327 2 0.0361532 10.4059 9.04327 16.3896 H
196 3 -0.751667 3.87386 7.84472 15.8727 O
252 2 0.124132 9.76781 9.74796 9.2527 H
174 3 -0.592701 9.32726 12.2073 8.99236 O
247 2 0.0543399 8.71286 7.05879 13.8236 H
93 2 0.125863 3.5726 9.64896 10.4529 H
251 2 0.0392386 9.80454 8.0928 8.53565 H
261 2 0.0287278 6.21164 13.9937 11.2577 H
ITEM: TIMESTEP
200
ITEM: NUMBER OF ATOMS
350
ITEM: BOX BOUNDS xy xz yz pp pp pp
-6.9793360000000000e+00 1.5847728000000000e+01 -6.5132079999999997e+00