ITEM: TIMESTEP
0
ITEM: NUMBER OF ATOMS
350
ITEM: BOX BOUNDS xy xz yz pp pp pp
-6.7108999999999996e+00 1.5238200000000001e+01 -6.2626999999999997e+00
-6.4200000000000002e-01 1.4502800000000001e+01 -4.4819999999999999e-01
0.0000000000000000e+00 1.7008500000000002e+01 -6.4200000000000002e-01
ITEM: ATOMS id type q x y z
7 4 1.28836 -0.613891 2.39768 3.67907
180 3 -0.807455 3.83169 0.0145978 2.87426
14 4 1.43558 0.0810631 4.69233 1.84688
17 4 1.21829 -0.941408 6.56363 6.52682
26 4 0.999927 4.37479 1.51718 3.15112
34 4 1.38349 5.4331 3.60958 7.08283
33 4 1.2745 1.26155 6.34474 4.18446
318 2 0.159595 1.33296 0.727361 1.13839
36 4 1.42797 4.24562 5.95514 5.27223
57 1 -0.638988 1.21653 0.738919 7.06136
62 1 -0.647003 3.06138 2.50557 4.07068
77 2 0.0126519 1.05706 2.59349 4.16042
195 3 -0.83982 4.548 4.41164 5.98334
79 2 0.0512412 -0.323948 5.78579 7.90515
82 2 0.0853854 4.76376 2.13314 1.57529
16 4 1.29546 -0.584119 7.11592 0.0274686
103 2 0.17606 0.981519 1.7622 7.47538
321 2 0.221967 -1.32113 2.62436 7.84987
117 2 0.146594 2.49065 1.56392 4.51832
118 2 0.156988 2.55307 3.02338 3.06416
119 2 0.264685 3.65387 3.26702 4.85212
164 3 -0.813545 -1.18528 3.60392 2.78418
165 3 -0.857294 1.10947 3.75905 0.990117
166 3 -0.85537 -0.729321 5.91421 1.05445
167 3 -0.797249 -2.33934 5.8875 6.30246
182 3 -0.769818 5.69072 1.59522 4.13864
104 2 0.250801 0.292232 0.014654 7.02672
189 3 -0.823263 0.97841 5.26405 3.01486
190 3 -0.841723 0.132277 6.36524 5.33733
191 3 -0.833131 4.59387 2.73775 8.06051
194 3 -0.840883 2.78437 6.15365 4.69756
272 2 0.17203 5.00173 5.18587 0.30794
105 2 0.112389 1.84035 0.711559 5.95966
315 1 -0.632563 1.77671 1.04399 0.123383
185 3 -0.777196 5.38562 2.6676 0.244188
183 3 -0.822117 6.97323 0.237464 6.1094
200 3 -0.835447 2.36227 6.8538 8.4218
295 2 -0.0206986 -0.0544241 0.250558 0.204259
316 2 0.194114 2.9498 1.12722 0.0745094
8 4 1.32405 1.05122 2.29793 16.7247
11 4 1.34225 2.96973 -0.0775387 13.4447
13 4 1.26949 1.00893 1.5852 11.6715
18 4 1.23174 -0.489547 3.88911 13.033
19 4 1.26138 -1.13721 6.2423 10.9021
28 4 1.35073 4.25744 1.80553 9.37629
31 4 1.20549 3.90203 2.15145 15.4696
35 4 1.13915 1.6864 5.93587 9.63164
322 2 0.136234 -0.0723607 2.85052 9.19954
63 1 -0.688497 3.33334 3.17663 10.5707
64 1 -0.676781 4.78669 3.41546 14.5566
67 1 -0.671087 2.15636 5.40673 14.3989
83 2 0.0276474 1.84162 2.01122 10.2176
198 3 -0.779242 2.45391 6.17294 11.1188
85 2 0.0368556 0.320243 4.68353 14.3409
317 2 0.159241 0.838495 -0.174264 16.0466
319 1 -0.66524 -1.1859 2.88958 8.94153
120 2 0.156949 3.98169 2.78752 11.4784
121 2 0.173936 2.26356 3.50674 10.9748
122 2 0.156024 3.81814 4.04896 10.0874
59 1 -0.667256 -2.64172 5.65917 9.81984
124 2 0.163066 4.24897 3.45669 13.532
324 2 0.155284 0.517983 0.0460698 14.5504
132 2 0.251568 2.11864 4.3931 14.9441
133 2 0.178221 3.24682 5.69918 14.189
134 2 0.202293 1.59528 5.45146 13.4267
161 3 -0.849242 -0.395939 2.1138 15.8281
162 3 -0.804182 -0.202031 0.760136 10.9887
163 3 -0.87847 1.9716 0.713225 12.6004
193 3 -0.805267 0.0535653 6.23042 9.68544
169 3 -0.880545 0.519035 2.902 12.2806
170 3 -0.815392 -0.933435 5.075 12.0636
84 2 -0.0133155 2.06776 4.28468 9.44407
184 3 -0.80602 3.6878 0.883086 14.5687
110 2 0.171358 -2.0921 5.54663 8.76915
186 3 -0.82301 2.30415 2.84347 15.9371
187 3 -0.790668 5.62921 1.48063 10.1236
123 2 0.155924 4.85403 4.46248 15.0058
181 3 -0.800305 3.25437 0.627601 8.953
336 2 0.0180343 -2.48168 6.18992 16.1704
168 3 -0.800131 -1.82386 3.12129 13.6658
320 2 0.166216 -1.69964 3.96876 9.23604
197 3 -0.816729 0.0924183 6.46699 15.9251
1 4 0.992414 -3.33304 13.3029 2.13934
2 1 -0.695761 -4.79067 12.621 3.18567
3 2 0.0410417 -3.11976 11.6511 2.80148
5 2 0.161365 -4.57273 12.4547 4.26015
6 3 -0.813944 -3.53115 13.3062 0.515693
290 3 -0.797252 2.35889 11.3049 1.2405
20 4 1.21386 -1.74544 9.8252 1.24655
22 4 1.07869 -2.01765 9.38239 7.67165
138 2 0.201336 -0.310959 13.6475 3.50015
39 4 1.0991 -0.666814 11.5156 4.00281
40 4 1.05272 2.99867 7.78615 7.32229
42 4 0.959219 1.97889 11.1871 5.71221
60 1 -0.652445 -3.42083 9.07784 1.44456
61 1 -0.698385 -3.36778 9.98377 6.48606
69 1 -0.65741 0.193382 12.7808 2.87385
70 1 -0.683274 -2.14622 12.3946 5.02939
87 2 0.0217122 1.17059 7.90373 3.50044
88 2 -0.0222591 1.79072 8.4535 6.29277
100 2 -0.0318892 2.25352 10.3531 7.14954
113 2 0.170109 -4.09588 9.39099 2.48512
112 2 0.15577 -3.84134 9.3219 0.359178
111 2 0.175892 -3.10692 7.96473 1.51135
115 2 0.170288 -2.71423 10.0751 5.51689
116 2 0.187322 -3.63891 10.9641 6.95238
78 2 0.0133375 -2.50225 13.653 6.53692
139 2 0.229783 -0.0691979 12.7696 1.78445
140 2 0.20862 1.25986 12.6963 3.0283
141 2 0.19128 -1.93842 12.0074 6.08497
142 2 0.159539 -3.21659 12.1424 4.71705
143 2 0.198989 -1.81914 13.4811 4.96878
171 3 -0.782921 -0.688873 8.46 0.780055
202 3 -0.795933 -1.14371 10.5321 8.34095
173 3 -0.82055 -1.29245 8.16474 6.98545
172 3 -0.808851 -1.94747 10.8833 0.0730878
337 2 0.0104484 -3.28639 8.38056 5.32092
199 3 -0.770215 -1.20859 10.5807 2.85001
9 4 1.01215 -3.66717 14.1878 7.78266
203 3 -0.814416 0.278739 12.7866 7.91667
205 3 -0.781707 0.586317 10.8476 5.06617
334 2 0.153387 -5.31148 13.7872 3.05127
278 1 -0.678755 2.82067 9.08327 3.32943
285 2 0.170997 2.63997 8.29678 2.51641
286 2 0.172708 1.89991 9.48244 3.93437
174 3 -0.791334 -4.47969 12.758 8.37054
114 2 0.170236 -4.24204 9.26376 6.41138
80 2 0.0104244 -3.17924 8.7634 8.88758
23 4 0.992596 -4.7951 12.2938 9.80992
24 4 1.0642 -2.4481 9.2423 11.7955
25 4 1.48254 -2.1877 12.2061 11.4524
209 3 -0.827676 0.548104 12.6445 16.7796
37 4 1.34617 1.59996 6.98541 15.3374
41 4 1.58481 -0.182469 11.7977 9.10927
43 4 1.50307 2.51438 9.1309 13.3783
44 4 1.34782 -0.327909 12.31 15.4485
45 4 1.35068 1.9603 11.1951 11.1258
72 1 -0.683111 -3.51275 8.74776 13.1902
73 1 -0.662164 -0.106821 10.398 15.1232
213 3 -0.834399 1.77625 9.98799 12.04
339 2 0.0505368 -4.25087 13.5025 14.4912
21 4 1.36463 -3.18108 11.7393 16.4105
147 2 0.172818 -3.15293 7.68753 13.4339
38 4 1.03289 3.66166 7.32596 11.2664
149 2 0.218757 -3.34379 9.50266 14.0343
150 2 0.226778 0.642594 10.0043 15.7912
151 2 0.235948 0.378277 10.5858 14.0296
152 2 0.234775 -1.05729 9.85219 15.1682
175 3 -0.769373 -1.70435 7.83103 11.3296
176 3 -0.813639 -4.34823 11.3593 15.2341
177 3 -0.866197 -3.58262 11.9689 10.7125
178 3 -0.76813 -1.69467 10.6017 12.1366
179 3 -0.800193 -2.38583 13.4938 12.5213
196 3 -0.827602 2.79068 7.1562 16.4783
81 2 0.0639582 -3.90919 9.62247 10.533
323 1 -0.67801 -6.24748 13.5675 14.427
204 3 -0.79961 -1.0647 12.5183 10.183
207 3 -0.816866 1.51934 8.18262 14.2223
102 2 0.0191553 -5.71049 13.4265 10.5928
210 3 -0.785034 0.474337 13.0041 14.0147
211 3 -0.77896 -1.90863 12.6125 15.629
212 3 -0.876607 1.13272 11.2408 9.80191
146 2 0.161936 2.92987 9.82633 8.84606
208 3 -0.808144 3.54953 8.13188 12.6385
15 4 1.24115 11.5811 6.66585 5.44136
46 4 1.28938 9.72425 2.29302 3.64108
49 4 1.52852 12.229 1.86903 5.39869
50 4 1.26076 11.0281 5.04508 2.86391
51 4 1.27085 7.05295 6.39868 4.38824
52 4 0.949059 9.48489 6.81972 0.957856
53 4 1.33405 10.7239 3.45279 7.5326
54 4 1.28711 9.03282 6.04823 6.74561
66 1 -0.670348 6.19447 5.02215 8.25776
91 2 0.026636 9.52353 1.69251 2.05476
94 2 0.101379 12.575 4.31271 2.6803
95 2 -0.00895391 7.65755 5.25667 3.26657
29 4 1.50157 7.08456 1.67209 5.29016
280 2 0.019414 5.27141 7.15192 1.15457
268 1 -0.681147 6.0999 5.44741 0.573577
129 2 0.205653 6.28845 5.84526 7.46827
192 3 -0.801094 6.70097 2.87673 6.32042
215 3 -0.869289 8.48832 1.79415 4.45728
219 3 -0.815961 13.7474 2.34673 4.97509
220 3 -0.849475 11.1162 1.76439 4.09389
221 3 -0.810617 12.2272 0.276312 6.11749
222 3 -0.826336 9.97862 3.92213 3.39682
223 3 -0.846056 11.1833 6.11282 4.04416
224 3 -0.821664 5.44069 6.2321 4.13155
225 3 -0.857568 10.6341 5.7732 1.51704
346 2 0.212433 10.0662 0.201369 0.957247
227 3 -0.819496 11.803 2.95385 6.4983
228 3 -0.850802 10.2612 6.95578 6.36738
229 3 -0.850189 7.81489 6.10075 5.75805
230 3 -0.807411 9.64227 4.54959 6.97324
271 2 0.117026 6.29813 5.54974 1.82839
294 4 1.01839 13.9038 0.548615 1.40075
347 2 0.176253 8.29796 0.546366 1.61769
226 3 -0.887696 10.0376 2.24296 8.20206
297 3 -0.816839 12.5626 1.18303 0.780599
296 3 -0.84599 14.5738 1.04038 2.80475
340 2 -0.016899 12.3782 3.78907 0.832055
267 4 1.03594 6.63569 3.54387 0.608286
96 2 -0.000598042 8.0042 5.99954 0.629976
269 2 -0.0265114 6.94682 3.07182 2.15079
98 2 -0.0188545 8.44556 6.6212 8.26617
217 3 -0.878327 8.92072 -0.214318 7.96212
216 3 -0.850232 13.2758 0.295819 8.47399
270 2 0.162087 6.38014 6.34738 0.0234039
10 4 1.01311 13.6185 1.19021 9.75967
342 2 0.150318 11.8805 6.60526 9.92886
32 4 1.33314 7.03228 1.55535 11.0515
48 4 1.35978 9.27913 1.04991 8.82849
58 1 -0.677505 11.9502 1.06982 10.9525
65 1 -0.670497 7.00553 3.3511 11.7424
68 1 -0.662477 5.4009 6.42512 11.4178
93 2 0.0287574 10.6794 0.422642 9.5654
188 3 -0.817324 7.20632 0.527857 12.3254
12 4 1.196 13.62 1.89838 14.7917
107 2 0.141939 11.574 2.03394 10.39
108 2 0.168302 12.5113 1.37969 11.8992
126 2 0.161201 7.88321 3.83616 11.2431
127 2 0.162806 7.03153 3.39707 12.8831
109 2 0.149395 12.3537 4.76336 10.4511
328 1 -0.665721 9.35607 -0.171764 13.8351
131 2 0.163933 5.4368 5.20543 9.05777
135 2 0.160285 6.56462 6.39797 10.9447
106 2 0.136756 11.0472 0.487319 11.2856
128 2 0.152136 5.97233 3.69532 11.2845
313 3 -0.835267 7.47182 2.7033 16.7583
218 3 -0.840353 8.25152 1.4219 9.9485
243 1 -0.663116 8.43516 6.22729 10.1642
245 2 0.0467963 6.59882 6.29173 14.1898
248 2 0.156977 8.18597 5.7221 15.7792
256 2 0.16481 7.58274 5.74609 9.49131
257 2 0.149357 8.21622 6.13064 11.2786
258 2 0.125002 9.50607 5.84279 9.91224
97 2 -0.00162344 11.5938 4.31839 8.74346
299 4 1.25269 8.72613 2.28018 15.9142
300 4 0.826745 9.84792 4.50767 13.9669
301 1 -0.639564 10.7938 3.57905 12.6264
302 1 -0.663301 11.3335 5.54526 14.954
303 2 0.0198595 8.14105 1.12063 14.8882
304 2 -0.00124121 8.66889 5.74093 13.6225
305 2 0.19564 11.6772 4.1245 12.2581
306 2 0.110531 9.83318 3.69135 11.8715
307 2 0.202904 11.0092 2.46111 12.9691
309 2 0.217038 12.0972 4.95839 14.3396
137 2 0.176387 5.48067 6.67796 12.5528
310 2 0.163775 11.0659 5.26364 16.0824
311 3 -0.809148 12.2305 1.84181 15.5493
308 2 0.145069 11.1495 6.60584 14.7205
335 2 -0.00564728 13.799 0.311173 14.0192
314 3 -0.801713 9.19645 3.54845 15.0032
125 2 0.177218 5.82711 3.1092 14.2881
329 2 0.167911 9.33294 0.89644 13.4784
312 3 -0.851753 9.88422 1.68842 16.79
240 1 -0.656678 7.97763 6.64351 15.1922
349 2 0.212208 9.25087 -0.358331 14.9492
130 2 0.168987 7.20101 4.46983 8.58309
136 2 0.150112 4.94938 5.4026 11.222
298 4 1.24522 11.4591 1.78453 16.9809
156 2 0.158758 10.8797 8.92889 3.94758
47 4 1.20077 6.54444 13.9386 7.30148
55 4 1.1409 8.49985 8.75929 3.02244
332 2 0.150903 7.4084 12.6838 1.04273
74 1 -0.666291 7.61186 10.4271 2.60095
75 1 -0.665475 9.99786 9.60845 4.1141
158 2 0.163309 10.1497 10.6781 3.75627
71 1 -0.675318 3.69398 9.36083 8.11207
288 2 0.138722 3.1756 13.9029 2.59695
144 2 0.119469 3.90969 9.98702 7.17446
153 2 0.192065 6.6578 10.36 3.26726
154 2 0.181127 7.39016 10.1661 1.49814
155 2 0.163802 7.97681 11.4904 2.67966
4 2 0.149189 9.94183 11.7751 2.66097
157 2 0.162589 9.75785 9.55609 5.23881
273 4 1.27935 4.62552 8.32964 0.0699158
27 4 1.45871 1.44803 13.7116 7.04579
231 3 -0.820133 7.52634 7.83413 3.83904
232 3 -0.842903 9.0282 8.09387 1.66481
331 2 0.155929 7.24041 13.3149 2.94514
293 3 -0.752048 7.91784 12.8997 6.55877
274 4 1.31959 3.55352 10.4582 2.03454
275 4 1.30432 2.34565 12.796 0.451253
276 4 1.00809 4.88172 12.5222 4.05389
277 4 0.901051 7.2425 11.7239 5.69812
333 2 0.187115 5.76678 13.3935 1.63096
206 3 -0.808079 2.33378 12.6767 5.6796
281 2 0.0194314 5.61536 13.8726 3.31217
282 2 0.106341 3.51597 13.3101 4.68257
283 2 0.00235567 8.18092 11.183 4.3314
284 2 -0.0341279 7.26209 10.2802 6.5141
327 2 0.16435 9.60117 11.0548 0.204119
289 3 -0.857083 4.39014 9.58175 1.00112
330 1 -0.663468 6.84237 13.2939 1.81947
291 3 -0.858336 4.27028 11.5017 3.04842
292 3 -0.853441 5.76509 11.9365 5.16853
279 1 -0.683708 2.88707 14.3103 1.58365
92 2 0.00167655 5.30985 12.9936 8.1275
201 3 -0.773783 4.30258 7.24952 6.51631
287 2 0.183169 3.71621 8.80548 3.93747
89 2 0.00677078 3.15986 10.3112 4.80424
254 2 0.151216 6.67223 8.21466 8.31574
247 2 0.144633 8.84316 7.05472 14.6312
56 4 1.14093 3.94262 11.1296 15.4835
76 1 -0.686749 5.62389 11.9436 15.0662
145 2 0.165283 4.81303 9.07867 8.6431
90 2 0.0163898 3.63309 10.9531 10.6308
101 2 0.0359698 5.22663 10.4951 16.412
99 2 0.00142965 9.51661 6.82187 16.3895
86 2 0.00425695 3.94771 8.33942 9.79551
159 2 0.179276 5.42115 13.0272 15.2157
160 2 0.208899 5.66793 11.6154 13.9451
344 2 0.175097 8.81134 13.3955 13.3127
233 3 -0.845048 3.2735 10.2477 14.3825
234 3 -0.831606 3.06963 12.166 16.2573
348 2 0.15752 3.88272 13.7248 13.2986
236 4 1.04357 6.46881 8.0918 14.9865
237 4 0.862022 8.47643 8.3885 10.1611
238 4 1.42724 7.64334 10.0101 12.7882
239 4 0.698702 6.25874 12.439 11.1461
148 2 0.182354 10.6845 8.79158 12.7526
241 1 -0.630226 10.1804 9.10194 9.3155
242 1 -0.650039 6.6272 8.63715 9.40221
244 1 -0.645556 5.01896 11.9358 9.70603
246 2 0.00338352 6.82287 12.2697 9.36915
251 2 0.128304 10.32 8.02516 8.92784
249 2 0.0481752 7.97182 8.15574 16.0818
343 2 0.120778 8.04631 13.4909 15.1405
250 2 0.0173278 8.4559 9.70006 8.85093
253 2 0.167809 6.10346 7.83737 10.2262
235 4 1.14952 9.32047 11.4821 14.9924
255 2 0.155106 6.33631 9.72509 9.5099
259 2 0.159189 4.34408 12.2074 8.82684
260 2 0.0405657 4.41316 12.622 11.3384
261 2 0.156265 5.19799 10.8425 9.64804
262 3 -0.873828 5.32217 7.94618 16.0481
263 3 -0.796885 6.6605 9.14964 13.7922
264 3 -0.781486 8.41573 9.01693 11.587
265 3 -0.824631 8.666 10.7386 13.8187
266 3 -0.791129 6.74616 11.1883 12.0316
30 4 1.41895 1.44547 13.6346 12.9335
325 1 -0.672868 8.34805 10.9109 16.5517
326 2 0.162062 7.4863 10.2638 16.5873
350 2 0.162264 6.65314 11.5626 15.6734
338 2 -0.013274 9.40176 10.9356 9.776
345 2 0.102685 8.16626 12.08 16.8459
214 3 -0.864201 2.08619 12.6243 11.9004
341 2 -0.00953622 6.57435 14.0117 11.7914
252 2 0.144719 10.0203 9.84646 8.51417
ITEM: TIMESTEP
100
ITEM: NUMBER OF ATOMS
350
ITEM: BOX BOUNDS xy xz yz pp pp pp
-6.7108999999999996e+00 1.5238200000000001e+01 -6.2626999999999997e+00
-3.3723600000000076e-01 1.4502800000000001e+01 -4.4819999999999999e-01
0.0000000000000000e+00 1.7008500000000002e+01 -3.3723600000000076e-01
ITEM: ATOMS id type q x y z
7 4 1.29 -0.649631 2.45107 3.53295
180 3 -0.847131 3.78099 0.0999133 2.85691
14 4 1.45961 0.0603221 4.77613 1.8475
17 4 1.23192 -0.846709 6.57694 6.56621
26 4 1.03681 4.38514 1.49066 3.19126
34 4 1.40419 5.59322 3.65013 7.05109
33 4 1.2918 1.25353 6.44729 4.26742
318 2 0.172322 1.35499 0.959201 1.1968
36 4 1.45298 4.30863 5.90872 5.24924
57 1 -0.652203 1.2317 0.464275 6.72029
62 1 -0.678384 3.00572 2.56179 4.00578
77 2 0.0278851 1.06204 2.70814 3.92847
195 3 -0.797043 4.45732 4.29456 5.90334
79 2 0.0666357 -0.445584 5.69846 7.94787
82 2 0.0667045 4.59711 2.26619 1.68295
316 2 0.200459 2.80598 1.21121 0.073164
103 2 0.185383 0.941674 1.51074 6.9795
321 2 0.183682 -1.42835 2.73624 8.00824
117 2 0.160415 2.42848 1.72716 4.47285
118 2 0.17558 2.67862 3.06042 3.06989
119 2 0.285264 3.53351 3.33821 4.7773
164 3 -0.810849 -1.2837 3.73072 2.6889
165 3 -0.87393 0.950599 3.63426 1.17599
166 3 -0.852388 -0.427883 5.87522 0.759566
167 3 -0.811793 -2.30691 6.09233 6.11778
182 3 -0.805585 5.72755 1.58592 4.11678
201 3 -0.804096 4.21619 6.93479 6.58427
189 3 -0.836402 0.760152 5.53385 3.13295
190 3 -0.854927 0.320392 6.45604 5.55346
191 3 -0.811044 4.79742 2.91754 8.15544
194 3 -0.812175 2.81164 5.96649 4.64156
272 2 0.166611 5.0907 5.17934 0.480373
105 2 0.100462 1.99294 0.485449 5.63759
315 1 -0.665339 1.70256 1.1486 0.139196
185 3 -0.735425 5.20743 2.59206 0.189772
183 3 -0.831799 6.89673 0.150864 6.05422
104 2 0.24702 0.34929 -0.191859 6.632
295 2 -0.00274832 -0.151041 0.498169 0.368723
9 4 1.0144 2.63858 -0.278149 7.68261
8 4 1.30804 0.82555 2.36374 16.7279
11 4 1.32766 2.94085 0.0744196 13.4304
13 4 1.27235 0.870439 1.50467 11.6031
18 4 1.26517 -0.448439 3.93966 12.9768
19 4 1.25315 -1.15409 6.22488 10.8251
28 4 1.34232 4.26638 1.97877 9.42662
31 4 1.18533 3.88185 2.31818 15.4828
35 4 1.20774 1.72026 5.84714 9.61699
322 2 0.143448 -0.123418 3.04993 9.40925
63 1 -0.687523 3.21496 3.3116 10.5238
64 1 -0.679736 4.97267 3.57818 14.6735
67 1 -0.675364 2.30277 5.42676 14.2063
83 2 0.0160535 1.71044 2.09816 10.2062
198 3 -0.791799 2.55034 6.31227 10.9991
85 2 0.0131728 0.52708 4.56039 14.249
317 2 0.182063 0.814137 -0.125636 16.2463
319 1 -0.678852 -1.24536 2.9159 9.18484
120 2 0.161002 3.87395 2.9911 11.4578
121 2 0.160971 2.20769 3.62831 10.878
122 2 0.14518 3.76667 4.18962 9.917
59 1 -0.671302 -2.81942 5.61108 10.0325
124 2 0.185249 5.00516 3.20434 13.5802
324 2 0.164486 0.593674 0.0762906 14.4671
132 2 0.235444 2.17385 4.48206 14.8964
133 2 0.198442 3.36822 5.61813 14.0194
134 2 0.187247 1.75846 5.3392 13.214
161 3 -0.87267 -0.430506 2.08288 15.746
162 3 -0.809648 -0.260807 0.558231 10.9917
163 3 -0.861405 1.87266 0.719437 12.5025
193 3 -0.82231 0.0755573 5.97403 9.59115
169 3 -0.867816 0.356897 2.78483 12.379
170 3 -0.832554 -0.887049 5.05646 11.9323
84 2 -0.00428009 2.04692 4.1773 9.23913
184 3 -0.792064 3.73312 1.20877 14.3251
110 2 0.146202 -2.44819 5.59312 8.94154
186 3 -0.78601 2.24313 2.96246 15.9333
187 3 -0.781603 5.6025 1.5968 10.2413
123 2 0.16744 4.648 4.61549 14.7659
181 3 -0.76975 3.29184 0.837024 8.8583
336 2 -0.00952721 -2.35657 6.11908 15.8235
168 3 -0.825561 -1.63604 3.07046 13.723
320 2 0.180379 -1.76929 3.86524 9.53203
197 3 -0.83557 0.247711 6.55703 16.0851
16 4 1.31156 -1.0521 6.50583 16.8823
200 3 -0.854326 2.33696 6.71979 8.51184
1 4 1.0276 -3.296 13.3359 2.20912
2 1 -0.676057 -4.9017 12.6855 3.08124
3 2 0.0377606 -3.12389 11.8269 3.05048
5 2 0.140705 -4.93292 12.2178 4.17156
6 3 -0.831707 -3.48004 13.1459 0.600976
290 3 -0.768509 2.19392 11.3073 1.39106
20 4 1.27681 -1.74173 9.88708 1.2564
22 4 1.09186 -1.8602 9.38367 7.70335
138 2 0.227512 -0.177715 13.8999 3.68341
39 4 1.13068 -0.596256 11.4563 3.95527
40 4 1.07307 2.9984 7.61551 7.40675
42 4 0.950476 1.87218 10.9575 5.68392
60 1 -0.64499 -3.50375 9.16291 1.36084
61 1 -0.700904 -3.38919 9.87133 6.70242
69 1 -0.664059 0.153659 13.0514 3.06949
70 1 -0.67288 -1.77025 12.3379 5.21252
87 2 0.0107213 1.16264 8.01234 3.62784
88 2 -0.0230413 1.87033 8.2919 6.32398
100 2 -0.0174923 2.05667 9.99625 7.05299
113 2 0.206778 -4.11053 9.41728 2.33011
112 2 0.183577 -4.05144 9.42891 0.432977
111 2 0.178326 -3.12039 8.05494 1.45953
115 2 0.14573 -2.66321 10.1036 5.67363
116 2 0.175264 -3.62254 10.8538 7.24621
78 2 0.0226023 -2.38436 13.5679 6.59401
139 2 0.223296 -0.019714 13.3293 1.98939
140 2 0.168087 1.33476 12.8229 3.25319
141 2 0.22338 -1.367 12.1184 6.31882
142 2 0.141812 -2.82434 11.9192 5.08803
143 2 0.189507 -1.70731 13.4426 4.91557
171 3 -0.811932 -0.931141 8.51298 0.621661
202 3 -0.782486 -1.05633 10.5576 8.38147
173 3 -0.827095 -1.12483 8.22065 7.01712
172 3 -0.85254 -2.05533 11.0801 0.249416
337 2 0.000573955 -3.01477 8.56063 5.28793
199 3 -0.796877 -1.30087 10.4972 2.88063
27 4 1.51813 1.37728 13.6592 7.03918
203 3 -0.844105 0.284354 12.8595 7.94471
205 3 -0.814782 0.50241 10.79 5.02085
334 2 0.159188 -5.32549 13.859 3.18589
278 1 -0.687804 2.79126 9.04706 3.07846
285 2 0.173893 2.53354 8.18393 2.45847
286 2 0.175513 1.86499 9.66194 3.31163
174 3 -0.791364 -4.30771 12.9318 8.42529
287 2 0.157508 3.59994 8.88336 3.88877
80 2 0.0127781 -3.18203 8.77379 8.66979
23 4 0.978393 -4.74362 12.4075 9.85888
24 4 1.04872 -2.34951 9.19388 11.8905
25 4 1.47679 -2.11371 12.1474 11.3937
209 3 -0.782597 0.448221 12.5941 16.8508
37 4 1.43655 1.65367 6.8934 15.3631
41 4 1.53198 -0.0711448 11.8995 9.16579
43 4 1.47167 2.47689 9.11381 13.3017
44 4 1.32846 -0.515037 12.3236 15.3116
45 4 1.31149 1.97185 11.1221 11.1551
72 1 -0.685593 -3.61133 8.85734 13.2316
73 1 -0.679653 -0.41507 10.4324 14.9806
213 3 -0.822791 1.61256 9.91796 12.1803
339 2 0.0362992 -4.24786 13.6592 14.5492
21 4 1.44055 -3.23144 11.6259 16.5011
147 2 0.140434 -3.57699 7.69202 13.2138
38 4 1.0195 3.78563 7.34652 11.1861
149 2 0.200283 -3.22562 9.29929 14.2078
150 2 0.232671 0.313356 9.96675 15.6557
151 2 0.251398 -0.0649905 10.4866 13.8842
152 2 0.202977 -1.40058 9.97875 14.9758
175 3 -0.785923 -1.57404 7.76921 11.3866
176 3 -0.828473 -4.37783 11.1046 15.3982
177 3 -0.853006 -3.48414 12.0331 10.6674
178 3 -0.817577 -1.69322 10.6488 11.9785
179 3 -0.745408 -2.47657 13.514 12.6149
196 3 -0.85521 2.83072 6.98199 16.354
81 2 0.0590137 -3.87904 9.35508 10.8997
323 1 -0.675871 -6.20083 13.5859 14.5638
204 3 -0.779284 -0.885863 12.7268 10.2476
207 3 -0.801766 1.54867 8.14868 14.439
102 2 0.0690028 -5.71509 13.598 10.5921
210 3 -0.763619 0.445255 13.09 14.1001
211 3 -0.776384 -1.99982 12.6728 15.4465
212 3 -0.861859 1.26832 11.0932 9.74992
146 2 0.177627 2.98652 9.7582 8.81943
15 4 1.27017 11.6794 6.9307 5.49419
46 4 1.25609 9.72914 2.37517 3.73012
49 4 1.50638 12.1312 1.8181 5.45192
50 4 1.23552 11.0468 5.02811 3.09034
51 4 1.25363 7.22934 6.36281 4.39125
52 4 0.921898 9.68576 6.63794 1.11963
53 4 1.30375 10.5577 3.46814 7.53638
54 4 1.29686 9.0504 6.11293 6.7144
66 1 -0.670845 6.38564 4.95675 8.27623
91 2 0.0319248 9.48079 1.60726 2.209
94 2 0.113512 12.3859 3.93203 3.032
95 2 0.0316306 8.04155 5.1672 3.42825
29 4 1.51773 7.02085 1.61737 5.3019
280 2 0.0168742 5.07586 6.95656 0.958593
268 1 -0.658886 6.22165 5.36963 0.655475
129 2 0.208094 6.01593 5.95489 7.85823
192 3 -0.810052 6.70823 2.74819 6.44602
215 3 -0.854429 8.39157 1.98978 4.45166
219 3 -0.773406 13.9035 2.21145 4.94455
220 3 -0.885343 11.1289 1.75586 4.14915
221 3 -0.852702 12.0538 0.49632 6.31681
222 3 -0.824639 9.68588 4.06793 3.42749
223 3 -0.825273 11.4045 6.20572 4.15103
224 3 -0.838151 5.60335 6.14109 4.29609
225 3 -0.847205 10.8305 5.60159 1.64178
270 2 0.144288 6.66348 6.32501 0.0900667
227 3 -0.817382 11.6164 3.05748 6.35275
130 2 0.204498 7.50889 4.73491 8.12471
229 3 -0.849401 7.72071 6.16666 5.89912
230 3 -0.832416 9.53898 4.62168 7.09108
271 2 0.101165 6.46215 5.41649 1.86528
294 4 1.04091 13.8142 0.486919 1.51233
347 2 0.174932 8.31146 0.607939 1.33026
226 3 -0.8432 9.83125 2.23737 8.13171
297 3 -0.805797 12.6528 1.44674 0.81751
296 3 -0.854248 14.4946 1.07864 2.77285
340 2 0.012721 12.1373 4.06077 0.456993
267 4 0.939759 6.62826 3.45775 0.782435
96 2 -0.0110841 8.12724 5.90912 0.830938
269 2 -0.00872491 7.0309 2.86208 2.30514
98 2 -0.0108207 8.62133 6.80623 8.26957
217 3 -0.840396 8.79551 -0.0741171 7.87299
346 2 0.179151 10.0436 0.00887211 1.5199
10 4 1.00808 13.575 1.19248 9.84349
342 2 0.154805 11.7771 6.45445 10.3189
32 4 1.36924 7.13564 1.61121 10.8833
48 4 1.33962 9.45539 0.937414 8.87102
58 1 -0.686947 11.9536 1.07166 11.1135
65 1 -0.666134 7.34114 3.38813 11.601
68 1 -0.665799 5.47286 6.31903 11.3655
93 2 -0.0288878 10.8751 0.342377 9.63211
188 3 -0.805985 7.18624 0.56931 12.1351
12 4 1.25218 13.6099 1.86197 14.7434
107 2 0.140859 11.5299 2.02002 10.7013
108 2 0.169676 12.534 1.40021 12.0881
126 2 0.16306 7.96013 3.98621 10.7775
127 2 0.177606 7.81912 3.31427 12.5671
109 2 0.143364 12.2029 4.51349 10.5121
328 1 -0.670345 9.35538 -0.321902 13.7266
131 2 0.172847 5.99052 4.65584 9.30599
135 2 0.171559 6.58913 6.31243 11.0053
106 2 0.117213 11.1141 0.310736 11.3501
128 2 0.148126 6.179 3.71153 11.6453
313 3 -0.809907 7.42727 2.55569 16.8451
218 3 -0.834711 8.3792 1.37502 9.8976
243 1 -0.683569 8.45606 6.43836 10.1978
245 2 0.0450996 7.05939 6.30255 14.1982
248 2 0.128751 8.4044 5.8347 15.8849
256 2 0.165837 7.6276 5.97466 9.48138
257 2 0.155998 8.22696 6.25992 11.2719
258 2 0.133744 9.47505 6.06638 9.96037
97 2 -0.016494 11.4857 4.31954 8.78913
299 4 1.20101 8.68419 2.13833 15.9177
300 4 0.82593 9.79649 4.50856 13.8921
301 1 -0.675676 10.5362 3.68744 12.3918
302 1 -0.668322 11.3037 5.51347 14.837
303 2 0.0147062 8.216 0.805404 15.0117
304 2 -0.00282937 8.55814 5.70818 13.5735
305 2 0.193418 11.6216 4.0141 12.3422
306 2 0.133584 9.85571 4.07941 11.5529
307 2 0.189925 10.3956 2.59064 12.5101
309 2 0.196133 12.1304 4.80228 14.6723
216 3 -0.832257 13.4883 0.259168 8.54623
310 2 0.152422 11.2726 5.72809 15.8883
311 3 -0.800913 12.1545 1.61865 15.4562
308 2 0.137836 11.3684 6.40966 14.1126
335 2 0.00748428 14.0038 0.431861 13.9299
314 3 -0.772848 9.26687 3.40432 14.9107
125 2 0.199858 5.94363 3.36415 15.2405
329 2 0.156449 9.31958 0.841003 13.5721
312 3 -0.836425 9.84627 1.70052 16.8596
298 4 1.25579 11.4204 1.85641 16.9264
137 2 0.170982 5.46632 6.41694 12.5313
136 2 0.144864 4.92971 5.36417 10.9678
99 2 0.00444165 9.71069 6.60198 16.5571
341 2 -0.00563425 12.6853 -0.443133 12.1055
156 2 0.169118 11.0047 8.97728 4.07719
47 4 1.23898 6.64444 13.9886 7.25249
55 4 1.08642 8.52993 8.88051 3.12202
332 2 0.145897 7.50553 12.6296 1.26552
74 1 -0.689538 7.76523 10.6234 2.60495
75 1 -0.654979 10.1061 9.61718 4.07347
158 2 0.156399 10.2709 10.7344 3.70628
71 1 -0.675018 3.68715 9.27499 8.07258
288 2 0.140363 2.54952 13.9831 2.82499
144 2 0.125141 3.87974 9.92489 7.13649
153 2 0.209535 6.893 10.9503 3.20237
154 2 0.160857 7.24756 10.1616 1.65443
155 2 0.162698 8.45279 11.4115 2.27749
4 2 0.141376 9.70275 12.0967 2.30243
157 2 0.137535 9.54192 9.56804 5.11038
114 2 0.17024 10.9053 9.28736 6.41142
228 3 -0.867228 10.2578 7.01702 6.2868
231 3 -0.81624 7.6167 7.87362 3.89264
232 3 -0.789448 9.31062 7.96369 1.91094
331 2 0.170719 7.05633 13.1888 3.07588
293 3 -0.806842 7.55351 12.905 6.54579
274 4 1.29801 3.50179 10.4746 1.85305
275 4 1.2499 2.28321 12.9124 0.46907
276 4 1.00747 4.76959 12.4905 3.957
277 4 0.893858 7.158 11.566 5.59572
333 2 0.17265 5.65434 13.3096 1.67395
206 3 -0.81286 2.35541 12.4619 5.9814
281 2 0.0184635 5.40692 13.9215 3.25175
282 2 0.0784995 3.30669 13.0783 4.73137
283 2 0.000341339 8.32847 11.3149 4.37828
284 2 -0.0338027 7.22768 10.1866 6.50547
327 2 0.160901 9.48036 11.3927 0.318208
289 3 -0.865515 4.34892 9.58657 0.827411
330 1 -0.670575 6.78417 13.253 1.96263
291 3 -0.835064 4.34184 11.5574 2.849
292 3 -0.836145 5.76424 11.8409 4.94524
279 1 -0.696491 2.73343 14.2566 1.71802
92 2 0.00144348 5.50568 13.1062 8.21311
89 2 -0.017885 3.05673 10.1622 4.70976
254 2 0.158684 6.96514 7.97887 8.25096
247 2 0.162651 9.20598 7.04311 14.665
56 4 1.12322 3.91925 11.1622 15.3383
76 1 -0.674802 5.56183 12.0045 14.8707
145 2 0.15194 4.8911 8.90407 8.61966
90 2 -0.00704704 3.6101 10.9395 10.5889
101 2 0.0360146 5.24161 10.4267 16.046
240 1 -0.639816 8.26058 6.77832 15.2124
86 2 -0.0141841 3.7613 8.59706 9.96858
159 2 0.176287 5.30193 13.0578 15.2845
160 2 0.18889 5.51849 11.9962 13.7494
344 2 0.177019 8.74522 13.1751 13.4943
233 3 -0.821934 3.27459 10.29 14.2185
234 3 -0.817623 3.13512 12.1746 16.2956
348 2 0.15183 3.83397 13.6117 13.1567
236 4 1.01978 6.46714 7.94519 14.9261
237 4 0.870075 8.58122 8.4181 10.3038
238 4 1.45242 7.55732 10.0841 12.8447
239 4 0.70245 6.13909 12.532 11.2724
208 3 -0.779185 3.61969 8.09154 12.6568
241 1 -0.620372 10.3175 9.08641 9.48576
242 1 -0.644355 6.65697 8.43814 9.2461
244 1 -0.640451 5.01985 11.9655 9.73555
246 2 0.0365221 6.65535 12.7182 9.46955
251 2 0.116284 10.5069 7.92229 9.26868
249 2 0.0413349 7.88515 8.15614 16.2259
343 2 0.130989 8.10607 13.7058 15.2398
250 2 0.0176081 8.58786 9.57954 8.88229
253 2 0.164185 6.16467 7.60383 10.032
235 4 1.15167 9.39689 11.4076 14.9605
255 2 0.156495 6.26041 9.45487 9.3293
259 2 0.15404 4.40446 12.3322 8.88192
260 2 0.0148363 4.25638 12.576 11.192
261 2 0.145503 5.09453 10.7513 9.84446
262 3 -0.858767 5.19592 7.71122 15.7958
263 3 -0.7891 6.61743 9.14779 13.8022
264 3 -0.768443 8.36165 9.03828 11.7171
265 3 -0.834054 8.72714 10.7761 13.6836
266 3 -0.801294 6.76055 11.2939 12.0484
30 4 1.37962 1.39651 13.6795 12.8784
325 1 -0.667951 8.27796 11.003 16.435
326 2 0.150392 7.48561 10.2034 16.1762
350 2 0.158211 6.60193 11.5561 15.4625
338 2 -0.000888531 9.62905 10.897 9.79247
345 2 0.113418 7.79204 12.0673 16.5257
214 3 -0.855291 1.83577 12.4407 12.0146
273 4 1.29526 4.10872 7.63735 16.9228
252 2 0.15298 10.4792 9.7164 8.56214
349 2 0.212554 2.99422 13.8134 14.8602
148 2 0.216676 10.6277 9.29844 12.9209
ITEM: TIMESTEP
200
ITEM: NUMBER OF ATOMS
350
ITEM: BOX BOUNDS xy xz yz pp pp pp
-6.7108999999999996e+00 1.5238200000000001e+01 -6.2626999999999997e+00
-3.2472000000000278e-02 1.4502800000000001e+01 -4.4819999999999999e-01
0.0000000000000000e+00 1.7008500000000002e+01 -3.2472000000000278e-02
ITEM: ATOMS id type q x y z
7 4 1.06905 -0.55633 2.25606 3.8818
272 2 0.17139 5.15048 5.23097 0.449155
14 4 1.32986 0.177413 4.20094 2.32876
17 4 1.24138 -0.712215 6.76234 6.721
26 4 1.0357 4.23623 1.39091 3.13149
34 4 1.29318 5.68906 3.70895 7.07669
33 4 1.25135 1.32946 6.39504 4.35081
318 2 0.168685 1.61195 1.0466 1.20719
36 4 1.43777 4.32033 5.82319 5.1774
57 1 -0.648583 1.41002 0.290918 6.44444
62 1 -0.670882 2.90541 2.47636 3.99741
77 2 -0.014574 1.05825 2.6308 4.47679
195 3 -0.758533 4.29908 4.30055 5.89772
79 2 0.0831825 -0.468277 5.8377 8.10753
82 2 0.0885194 4.49318 2.11766 1.56593
185 3 -0.732515 5.04562 2.58774 0.122097
103 2 0.163471 1.37019 1.41213 6.20389
321 2 0.191839 -1.15154 2.77224 8.16569
117 2 0.144069 2.38499 1.53803 4.56062
118 2 0.192957 2.34099 2.9196 3.05152
119 2 0.279215 3.38173 3.22003 4.78815
164 3 -0.818599 -1.13388 3.73655 2.79053
165 3 -0.811157 1.34545 3.53814 1.42292
166 3 -0.638888 -1.24216 6.2403 0.102581
167 3 -0.839161 -2.19048 6.34997 6.27533
182 3 -0.802537 5.59843 1.60043 3.99276
201 3 -0.799088 4.34387 6.89387 6.62666
189 3 -0.788532 0.771677 5.47735 3.0917
190 3 -0.864268 0.511436 6.39176 5.71771
191 3 -0.788191 4.71714 2.89462 8.20427
194 3 -0.848389 2.95693 6.09989 4.50512
183 3 -0.849461 7.09906 0.084209 5.84886
200 3 -0.855698 2.36682 6.66226 8.40523
295 2 0.0184294 0.00822354 0.371743 0.665192
8 4 1.13102 0.867377 2.49378 16.7079
11 4 1.37113 3.10638 0.0460984 13.3471
13 4 1.24942 0.925235 1.37877 11.5992
18 4 1.25938 -0.561366 3.86656 12.8881
19 4 1.26619 -1.36306 6.18 10.9792
28 4 1.31856 4.28132 2.05777 9.4127
31 4 1.2353 3.81478 2.50258 15.4036