LAMMPS (2 Aug 2023 - Update 2)
  using 1 OpenMP thread(s) per MPI task
Reading data file ...
  triclinic box = (0 0 0) to (15.7087 13.0868 17.5248) with tilt (-8.2042 -0.1458 -2.0056)
WARNING: Triclinic box skew is large. LAMMPS will run inefficiently. (src/domain.cpp:220)
  2 by 1 by 2 MPI processor grid
  reading atoms ...
  331 atoms
Finding 1-2 1-3 1-4 neighbors ...
  special bond factors lj:    0        0        0       
  special bond factors coul:  0        0        0       
     0 = max # of 1-2 neighbors
     0 = max # of 1-3 neighbors
     0 = max # of 1-4 neighbors
     1 = max # of special neighbors
  special bonds CPU = 0.001 seconds
  read_data CPU = 0.007 seconds
WARNING: Van der Waals parameters for element SI indicate inner wall+shielding, but earlier atoms indicate a different van der Waals method. This may cause division-by-zero errors. Keeping van der Waals setting for earlier atoms. (src/REAXFF/reaxff_ffield.cpp:251)
*****Minimization starts.*****

CITE-CITE-CITE-CITE-CITE-CITE-CITE-CITE-CITE-CITE-CITE-CITE-CITE

Your simulation uses code contributions which should be cited:
- pair reaxff command: doi:10.1016/j.parco.2011.08.005
- fix qeq/reaxff command: doi:10.1016/j.parco.2011.08.005
The log file lists these citations in BibTeX format.

CITE-CITE-CITE-CITE-CITE-CITE-CITE-CITE-CITE-CITE-CITE-CITE-CITE

Switching to 'neigh_modify every 1 delay 0 check yes' setting during minimization
WARNING: Fix qeq/reaxff group is not charge neutral, net charge = 27.88 (src/REAXFF/fix_qeq_reaxff.cpp:392)
Neighbor list info ...
  update: every = 1 steps, delay = 0 steps, check = yes
  max neighbors/atom: 2000, page size: 100000
  master list distance cutoff = 12
  ghost atom cutoff = 12
  binsize = 6, bins = 5 3 3
  2 neighbor lists, perpetual/occasional/extra = 2 0 0
  (1) pair reaxff, perpetual
      attributes: half, newton off, ghost
      pair build: half/bin/newtoff/ghost
      stencil: full/ghost/bin/3d
      bin: standard
  (2) fix qeq/reaxff, perpetual, copy from (1)
      attributes: half, newton off
      pair build: copy
      stencil: none
      bin: none
Setting up cg style minimization ...
  Unit style    : real
  Current step  : 0
Per MPI rank memory allocation (min/avg/max) = 155.7 | 156.9 | 157.9 Mbytes
   Step          Temp          Press         Density         Volume         PotEng    
         0   0              169612.15      1.400369       3602.6891     -25709.856    
        19   0              17164.647      1.400369       3602.6891     -28282.963    
Loop time of 1.58697 on 4 procs for 19 steps with 331 atoms

98.2% CPU use with 4 MPI tasks x 1 OpenMP threads

Minimization stats:
  Stopping criterion = energy tolerance
  Energy initial, next-to-last, final = 
     -25709.8561704197  -28282.9618237572  -28282.9629761401
  Force two-norm initial, final = 4313.5197 542.08393
  Force max component initial, final = 525.11622 190.8201
  Final line search alpha, max atom move = 0.00026023841 0.04965872
  Iterations, force evaluations = 19 39

MPI task timing breakdown:
Section |  min time  |  avg time  |  max time  |%varavg| %total
---------------------------------------------------------------
Pair    | 1.038      | 1.0758     | 1.1549     |   4.5 | 67.79
Bond    | 7.8709e-05 | 8.1174e-05 | 8.5764e-05 |   0.0 |  0.01
Neigh   | 0          | 0          | 0          |   0.0 |  0.00
Comm    | 0.070657   | 0.1498     | 0.18763    |  12.0 |  9.44
Output  | 0.0042341  | 0.0049452  | 0.0053793  |   0.6 |  0.31
Modify  | 0.35355    | 0.35358    | 0.3536     |   0.0 | 22.28
Other   |            | 0.002755   |            |       |  0.17

Nlocal:          82.75 ave          87 max          79 min
Histogram: 1 0 1 0 0 0 1 0 0 1
Nghost:        3996.75 ave        4019 max        3960 min
Histogram: 1 0 0 0 0 0 1 0 1 1
Neighs:        51835.2 ave       54180 max       49661 min
Histogram: 1 0 1 0 0 0 1 0 0 1

Total # of neighbors = 207341
Ave neighs/atom = 626.40785
Ave special neighs/atom = 0
Neighbor list builds = 0
Dangerous builds = 0
System init for write_data ...
##### Equilibration starts.##### 
WARNING: Compute rdf cutoff less than neighbor cutoff - forcing a needless neighbor list build (src/compute_rdf.cpp:179)
Neighbor list info ...
  update: every = 10 steps, delay = 0 steps, check = yes
  max neighbors/atom: 2000, page size: 100000
  master list distance cutoff = 12
  ghost atom cutoff = 12
  binsize = 6, bins = 5 3 3
  3 neighbor lists, perpetual/occasional/extra = 2 1 0
  (1) pair reaxff, perpetual
      attributes: half, newton off, ghost
      pair build: half/bin/newtoff/ghost
      stencil: full/ghost/bin/3d
      bin: standard
  (2) compute rdf, occasional
      attributes: half, newton on, cut 7
      pair build: half/bin/newton/tri
      stencil: half/bin/3d/tri
      bin: standard
  (3) fix qeq/reaxff, perpetual, copy from (1)
      attributes: half, newton off
      pair build: copy
      stencil: none
      bin: none
Setting up Verlet run ...
  Unit style    : real
  Current step  : 0
  Time step     : 0.5
Per MPI rank memory allocation (min/avg/max) = 160.6 | 161.8 | 162.8 Mbytes
   Step          Temp          Press          PotEng         TotEng    
         0   300            20908.445     -28282.963     -27987.863    
       100   253.61032      13224.588     -28203.168     -27953.7      
       200   277.08828      6041.9164     -28189.348     -27916.785    
       300   320.70824     -2079.2057     -28211.064     -27895.594    
       400   285.36818     -1191.6619     -28195.308     -27914.6      
       500   318.00944     -888.18181     -28262.658     -27949.843    
       600   319.32338     -1579.9583     -28302.293     -27988.185    
       700   342.16699      4072.0779     -28371.565     -28034.986    
       800   315.57242      1674.9474     -28398.715     -28088.297    
       900   304.29263     -2324.1236     -28430.066     -28130.743    
      1000   315.66795      5144.5451     -28473.979     -28163.467    
      1100   283.70781      10883.819     -28474.09      -28195.016    
      1200   296.71338      4784.1206     -28498.461     -28206.594    
      1300   375.16623     -6411.6655     -28599.676     -28230.637    
      1400   318.22621     -6518.4304     -28588.475     -28275.446    
      1500   293.16277     -4522.1164     -28596.701     -28308.326    
      1600   290.76439     -1713.0496     -28624.465     -28338.45     
      1700   286.36665     -12794.815     -28642.343     -28360.654    
      1800   303.54131     -4474.0939     -28671.687     -28373.103    
      1900   313.92398     -2179.4108     -28699.884     -28391.088    
      2000   290.19539     -1164.2169     -28690.518     -28405.062    
      2100   301.13526      8392.9182     -28679.299     -28383.082    
      2200   365.41055      1809.9486     -28731.272     -28371.829    
      2300   349.7874       1565.1115     -28761.914     -28417.839    
      2400   306.60324     -9133.3941     -28779.094     -28477.499    
      2500   343.13588     -3177.9171     -28857.156     -28519.625    
      2600   332.8967      -113.25668     -28892.746     -28565.286    
      2700   273.84101     -5105.049      -28859.133     -28589.764    
      2800   308.65772      4905.8657     -28911.597     -28607.981    
      2900   296.43937     -1392.1449     -28927.644     -28636.046    
      3000   313.44428     -1234.5831     -28946.443     -28638.118    
      3100   268.74052     -4217.318      -28902.792     -28638.441    
      3200   334.00625      354.45399     -28936.005     -28607.454    
      3300   286.78532     -3825.9204     -28899.775     -28617.673    
      3400   298.78199      2811.2389     -28930.884     -28636.982    
      3500   305.36183     -5282.9352     -28952.862     -28652.487    
      3600   280.34684      4386.8239     -28935.621     -28659.853    
      3700   292.60989     -837.55517     -28949.55      -28661.719    
      3800   290.86459      1837.9433     -28950.088     -28663.974    
      3900   313.65663     -1466.7562     -28980.223     -28671.69     
      4000   297.56394      4347.1295     -28987.536     -28694.832    
      4100   305.6517      -2543.3653     -28999.744     -28699.084    
      4200   298.13047      3011.9987     -28968.694     -28675.433    
      4300   318.55776      1999.2601     -28976.457     -28663.102    
      4400   295.91423      3947.8035     -28959.241     -28668.16     
      4500   289.12938      29.710748     -28959.275     -28674.868    
      4600   323.45506      4661.8922     -28967.865     -28649.693    
      4700   326.3163       1719.8808     -28956.022     -28635.036    
      4800   304.84724     -265.565       -28975.312     -28675.444    
      4900   306.84305      2588.9813     -29002.127     -28700.296    
      5000   306.22505      2583.1233     -29021.716     -28720.493    
      5100   290.91967     -1811.5765     -29024.901     -28738.733    
      5200   394.6339      -3713.9833     -29142.019     -28753.831    
      5300   320.4152       4852.9004     -29109.454     -28794.272    
      5400   277.36153      2202.6751     -29098.316     -28825.484    
      5500   294.7294      -4913.6202     -29148.349     -28858.434    
      5600   301.27894      4449.051      -29166.847     -28870.488    
      5700   265.76105      656.90163     -29119.328     -28857.907    
      5800   362.21559     -2023.1124     -29197.733     -28841.434    
      5900   278.58502     -1116.8478     -29097.485     -28823.45     
      6000   327.27429     -2562.6525     -29132.217     -28810.288    
      6100   293.88267     -2832.3712     -29138.982     -28849.9      
      6200   275.66001      6096.2756     -29143.48      -28872.323    
      6300   367.80335     -1818.3152     -29251.512     -28889.716    
      6400   299.54467      2515.2765     -29194.89      -28900.238    
      6500   286.95812     -2212.4649     -29191.496     -28909.224    
      6600   257.80604     -7111.7391     -29146.09      -28892.495    
      6700   293.855        5546.3229     -29155.646     -28866.591    
      6800   356.06272      4648.9025     -29229.303     -28879.056    
      6900   292.87019      2235.5064     -29191.984     -28903.898    
      7000   288.67336      5014.204      -29203.528     -28919.57     
      7100   300.55931     -1275.0312     -29231.826     -28936.176    
      7200   347.88904      2205.542      -29297.797     -28955.59     
      7300   257.77745      7753.3862     -29231.192     -28977.624    
      7400   286.02498      2059.9784     -29253.901     -28972.547    
      7500   296.53125     -285.3297      -29257.062     -28965.374    
      7600   357.14257     -2911.5525     -29325.752     -28974.443    
      7700   288.68167     -1246.0559     -29290.313     -29006.347    
      7800   342.86547      3066.9123     -29368.168     -29030.902    
      7900   326.5596      -1714.6235     -29368.452     -29047.226    
      8000   286.17554      887.43573     -29330.39      -29048.889    
      8100   285.8976       3081.3486     -29313.179     -29031.951    
      8200   295.58304     -3191.6002     -29299.705     -29008.95     
      8300   332.57772     -5467.2046     -29360.075     -29032.929    
      8400   351.82259      1568.1704     -29408.196     -29062.12     
      8500   319.30973      4139.9792     -29391.335     -29077.241    
      8600   315.89999     -1580.5782     -29424.859     -29114.118    
      8700   313.20679      1405.2017     -29433.37      -29125.278    
      8800   354.01898     -4182.0369     -29477.919     -29129.682    
      8900   333.40941      859.17368     -29471.975     -29144.011    
      9000   269.16551      877.47816     -29427.217     -29162.448    
      9100   272.94264      1509.7166     -29437.142     -29168.657    
      9200   324.74211      2448.404      -29474.553     -29155.114    
      9300   346.18992     -3668.5105     -29492.004     -29151.468    
      9400   324.28889      2100.6006     -29502.759     -29183.767    
      9500   270.93643      2625.8713     -29470.94      -29204.428    
      9600   322.43202     -4267.1451     -29542.953     -29225.787    
      9700   319.35021      1715.5652     -29540.312     -29226.177    
      9800   281.25862     -809.61831     -29495.916     -29219.251    
      9900   354.01642     -5802.5907     -29596.113     -29247.879    
     10000   285.23388      3800.9368     -29554.763     -29274.187    
     10100   327.54841      1796.7843     -29612.399     -29290.2      
     10200   272.28663     -7064.0867     -29567.109     -29299.27     
     10300   287.49866     -1868.2053     -29598.201     -29315.398    
     10400   310.20145     -1241.0693     -29629.739     -29324.604    
     10500   284.42031     -6028.7088     -29594.515     -29314.74     
     10600   308.91198     -5591.1281     -29591.946     -29288.08     
     10700   288.55587     -2123.7163     -29567.368     -29283.526    
     10800   297.02281     -6452.3973     -29591.554     -29299.383    
     10900   301.23207     -3956.1005     -29629.973     -29333.661    
     11000   314.17852     -3268.7114     -29655.624     -29346.577    
     11100   285.07949      1634.0169     -29662.601     -29382.177    
     11200   266.3001      -3719.8713     -29659.285     -29397.334    
     11300   295.18083      1079.1224     -29679.294     -29388.934    
     11400   321.04681      8566.1312     -29690.42      -29374.617    
     11500   364.88952      720.58929     -29729.384     -29370.454    
     11600   297.10171      78.719222     -29701.881     -29409.632    
     11700   321.9048      -3668.967      -29745.507     -29428.86     
     11800   316.77085      80.949473     -29762.812     -29451.215    
     11900   306.81928     -2140.8074     -29758.293     -29456.485    
     12000   312.48987      1422.1182     -29747.613     -29440.227    
     12100   338.29029      1566.3211     -29740.691     -29407.925    
     12200   317.99596      5579.4331     -29731.508     -29418.706    
     12300   297.74268     -2187.7368     -29737.947     -29445.068    
     12400   313.45074     -810.67981     -29780.076     -29471.744    
     12500   322.66742      2854.4357     -29811.716     -29494.319    
     12600   307.72253     -9796.4519     -29823.432     -29520.736    
     12700   308.34418      5096.8537     -29848.513     -29545.205    
     12800   310.17027     -3458.6578     -29868.423     -29563.318    
     12900   285.03627      1207.0756     -29855.237     -29574.856    
     13000   287.73678      1215.1387     -29855.459     -29572.422    
     13100   308.3677       1256.1479     -29840.066     -29536.735    
     13200   327.18115      877.17997     -29859.669     -29537.832    
     13300   300.9617      -2318.9755     -29853.045     -29556.999    
     13400   295.2198       6350.2154     -29869.714     -29579.316    
     13500   298.38475      1373.5787     -29887.049     -29593.538    
     13600   298.46696      3074.0796     -29906.135     -29612.543    
     13700   312.94591      8393.2828     -29940.507     -29632.672    
     13800   289.87938      613.86151     -29926.135     -29640.991    
     13900   288.1723       4920.5882     -29915.814     -29632.348    
     14000   318.32825      4106.9436     -29941.959     -29628.83     
     14100   300.80126     -2114.6768     -29942.382     -29646.493    
     14200   264.71028     -3346.3692     -29947.08      -29686.693    
     14300   275.06134     -973.3536      -29947.433     -29676.864    
     14400   295.76627     -2319.6465     -29943.036     -29652.1      
     14500   292.65992      7032.6285     -29930.759     -29642.879    
     14600   319.80908      12399.405     -29954.589     -29640.003    
     14700   278.09433     -563.00255     -29937.243     -29663.691    
     14800   263.78319     -3505.8141     -29945.183     -29685.708    
     14900   293.33916      3119.0482     -29965.191     -29676.643    
     15000   328.82185     -772.19045     -29985.532     -29662.081    
     15100   315.94881     -3448.7298     -29981.402     -29670.613    
     15200   318.5153       1623.0882     -29992.91      -29679.597    
     15300   315.99471     -5806.4885     -29997.181     -29686.347    
     15400   303.01086     -8897.0371     -29988.516     -29690.454    
     15500   311.21465     -4378.5009     -29983.078     -29676.946    
     15600   317.70906     -4359.7699     -29989.403     -29676.883    
     15700   331.68989     -3447.4643     -30015.873     -29689.601    
     15800   369.71551      6984.3231     -30095.05      -29731.373    
     15900   328.90223     -7597.1211     -30106.541     -29783.01     
     16000   289.49137      1170.5974     -30121.768     -29837.004    
     16100   270.52536     -5445.7908     -30134.008     -29867.901    
     16200   324.28582     -2520.3199     -30192.452     -29873.463    
     16300   293.50761     -1033.5964     -30170.21      -29881.496    
     16400   305.21045     -2358.0488     -30193.566     -29893.341    
     16500   290.58176     -1087.4738     -30209.215     -29923.379    
     16600   298.74635     -461.17687     -30222.722     -29928.855    
     16700   299.49969     -2370.7161     -30213.554     -29918.946    
     16800   304.75297      1736.6607     -30213.841     -29914.065    
     16900   294.95981      991.56935     -30206.318     -29916.176    
     17000   274.82141     -4102.6381     -30181.347     -29911.014    
     17100   320.46576      5780.1704     -30202.001     -29886.769    
     17200   306.18576     -1852.3517     -30199.7       -29898.515    
     17300   299.58135      3215.7534     -30220.591     -29925.903    
     17400   294.76402      7147.6098     -30221.196     -29931.246    
     17500   311.45979     -4164.8819     -30234.485     -29928.112    
     17600   278.68205     -2787.5933     -30210.985     -29936.854    
     17700   300.70183     -414.61763     -30264.252     -29968.461    
     17800   298.82134      7225.5176     -30276.227     -29982.286    
     17900   316.65365     -1542.2437     -30291.383     -29979.901    
     18000   271.34685      1374.5554     -30252.046     -29985.131    
     18100   286.11418     -1805.6825     -30280.158     -29998.717    
     18200   317.62606      4681.3117     -30298.726     -29986.288    
     18300   325.86183      4523.5876     -30295.988     -29975.449    
     18400   331.10157      2125.2954     -30331.034     -30005.34     
     18500   321.49668      2520.096      -30351.802     -30035.556    
     18600   316.20491      4961.4106     -30372.378     -30061.337    
     18700   299.24422     -1063.2592     -30378.597     -30084.24     
     18800   283.76657      5096.4672     -30389.676     -30110.544    
     18900   288.0157       1249.5505     -30395.855     -30112.544    
     19000   292.32409      6680.7765     -30379.538     -30091.988    
     19100   302.74767      1112.5561     -30363.991     -30066.188    
     19200   325.93822      9962.4384     -30377.568     -30056.954    
     19300   298.53934     -1764.471      -30399.596     -30105.933    
     19400   303.94116     -12281.268     -30417.826     -30118.849    
     19500   284.25065      1478.3606     -30389.047     -30109.439    
     19600   299.56193      2487.8473     -30387.657     -30092.988    
     19700   304.48189     -9168.8833     -30374.48      -30074.971    
     19800   309.48499     -4745.9185     -30379.899     -30075.469    
     19900   295.10855      2148.4053     -30390.899     -30100.61     
     20000   293.4177      -3123.4374     -30411.555     -30122.929    
Loop time of 390.026 on 4 procs for 20000 steps with 331 atoms

Performance: 2.215 ns/day, 10.834 hours/ns, 51.279 timesteps/s, 16.973 katom-step/s
98.3% CPU use with 4 MPI tasks x 1 OpenMP threads

MPI task timing breakdown:
Section |  min time  |  avg time  |  max time  |%varavg| %total
---------------------------------------------------------------
Pair    | 290.05     | 310.43     | 323.82     |  76.0 | 79.59
Bond    | 0.046628   | 0.047535   | 0.048196   |   0.3 |  0.01
Neigh   | 6.3364     | 6.5132     | 6.7018     |   5.1 |  1.67
Comm    | 3.7898     | 17.226     | 37.645     | 323.3 |  4.42
Output  | 0.069639   | 0.16741    | 0.31001    |  24.7 |  0.04
Modify  | 54.947     | 55.257     | 55.417     |   2.5 | 14.17
Other   |            | 0.3871     |            |       |  0.10

Nlocal:          82.75 ave         104 max          59 min
Histogram: 1 0 0 0 0 1 1 0 0 1
Nghost:        2711.25 ave        2794 max        2623 min
Histogram: 1 0 1 0 0 0 0 0 1 1
Neighs:        31607.8 ave       37997 max       24169 min
Histogram: 1 0 0 0 0 1 1 0 0 1

Total # of neighbors = 126431
Ave neighs/atom = 381.96677
Ave special neighs/atom = 0
Neighbor list builds = 521
Dangerous builds = 0
System init for write_data ...
WARNING: Compute rdf cutoff less than neighbor cutoff - forcing a needless neighbor list build (src/compute_rdf.cpp:179)
Total wall time: 0:06:31
