LAMMPS (2 Aug 2023 - Update 2)
  using 1 OpenMP thread(s) per MPI task
# Initialization
units           real
dimension       3
boundary        p p p
atom_style      full
timestep        0.5   # fs

variable       nevery equal 1000
variable       nrepeat equal 1
variable       nfreq equal ${nevery}*${nrepeat}
variable       nfreq equal 1000*${nrepeat}
variable       nfreq equal 1000*1
variable       nthermo equal ${nfreq}/10
variable       nthermo equal 1000/10
variable       nrun equal 1200*${nthermo}          # stpes of equilibrated run 1000 (30 min)
variable       nrun equal 1200*100          

variable temp equal 300.0                # temperature of initial sample
variable tdamp equal 50.0                 # time constant for thermostat
variable seed equal 123456                # seed for thermostat
variable ufac equal 1.01325e-4         # pressure unit conversion, from atm to Gpa
variable up equal .6                  # the deformation magnitude 0.01

variable FF string "SiOCHN_2018.ff C H O Si"   # force field args for pair_coeff
# pair_coeff * * CHONSSi.ff O Si
# pair_coeff * * CHOSiNa.ff O Si
# 2019: pair_coeff * * SiOCHN_2018.ff C H O Si
# pair_coeff * * PDMSDecomp.ff Si O
# 2020: pair_coeff * * CHONSi.ff C H O Si
# pair_coeff * * CHOFe.ff O Si
variable structure string 333U-50C-1-vasp

# Read the initial sctructure
# box tilt large
read_data       ${structure}.data
read_data       333U-50C-1-vasp.data
Reading data file ...
  triclinic box = (0 0 0) to (17.1722 13.1279 17.5867) with tilt (-8.382 0.0305 0.3027)
WARNING: Triclinic box skew is large. LAMMPS will run inefficiently. (src/domain.cpp:220)
  2 by 2 by 2 MPI processor grid
  reading atoms ...
  362 atoms
Finding 1-2 1-3 1-4 neighbors ...
  special bond factors lj:    0        0        0       
  special bond factors coul:  0        0        0       
     0 = max # of 1-2 neighbors
     0 = max # of 1-3 neighbors
     0 = max # of 1-4 neighbors
     1 = max # of special neighbors
  special bonds CPU = 0.001 seconds
  read_data CPU = 0.008 seconds

# Assign the force field
pair_style reaxff NULL safezone 3.0 mincap 150
pair_coeff * * ${FF}
pair_coeff * * SiOCHN_2018.ff C H O Si
WARNING: Van der Waals parameters for element SI indicate inner wall+shielding, but earlier atoms indicate a different van der Waals method. This may cause division-by-zero errors. Keeping van der Waals setting for earlier atoms. (src/REAXFF/reaxff_ffield.cpp:251)
# charge method for reaxff
fix myqeq all qeq/reaxff 1 0.0 10.0 1.0e-6 reaxff maxiter 400

# # Energy minimization
# print "*****Minimization starts.*****"
# dump dump_opt all custom 1 dump/dump_opt.lammpstrj id type q x y z
# minimize 1.0e-6 1.0e-6 100 1000
# min_style cg
# # Save the optimized structure
# write_data ${structure}_opt.data
# undump dump_opt
# unfix bondinfo

velocity        all create ${temp} ${seed} dist gaussian
velocity        all create 300 ${seed} dist gaussian
velocity        all create 300 123456 dist gaussian

# # Equilibration
# variable       nequil equal 10*${nthermo}  # 2000: 100 ps
# include ff.mod.lmp
# if "$(is_defined(fix,avgp))" then "unfix avgp"
# if "$(is_defined(fix,avgl))" then "unfix avgl"
# thermo_style custom step temp pe press density vol
# dump dump_eq all custom ${nthermo} dump/dump_eq.lammpstrj id type q x y z

# run ${nequil}
# # Save the equilibrated structure
# write_data ${structure}_eq.data
# undump dump_eq

# use tmp to save initial length and tilt
variable tmp equal lx
variable lx0 equal ${tmp}
variable lx0 equal 17.1722
variable tmp equal ly
variable ly0 equal ${tmp}
variable ly0 equal 13.1279
variable tmp equal lz
variable lz0 equal ${tmp}
variable lz0 equal 17.5867

variable tmp equal yz
variable yz0 equal ${tmp}
variable yz0 equal 0.3027
variable tmp equal xz
variable xz0 equal ${tmp}
variable xz0 equal 0.0305
variable tmp equal xy
variable xy0 equal ${tmp}
variable xy0 equal -8.382

# velocity all create ${temp} ${seed} dist gaussian
# Write restart
write_restart equil.res
System init for write_restart ...
WARNING: Fix qeq/reaxff group is not charge neutral, net charge = -7.38 (src/REAXFF/fix_qeq_reaxff.cpp:392)
Neighbor list info ...
  update: every = 1 steps, delay = 0 steps, check = yes
  max neighbors/atom: 2000, page size: 100000
  master list distance cutoff = 12
  ghost atom cutoff = 12
  binsize = 6, bins = 5 3 3
  2 neighbor lists, perpetual/occasional/extra = 2 0 0
  (1) pair reaxff, perpetual
      attributes: half, newton off, ghost
      pair build: half/bin/newtoff/ghost
      stencil: full/ghost/bin/3d
      bin: standard
  (2) fix qeq/reaxff, perpetual, copy from (1)
      attributes: half, newton off
      pair build: copy
      stencil: none
      bin: none

# uzz Perturbation
variable dir equal 3
include displace.mod.lmp
# Find which length (epsilon) to calculate
if "${dir} == 1" then    "variable len0 equal ${lx0}"    "variable dlen equal lx-${len0}"
if "${dir} == 2" then    "variable len0 equal ${ly0}"    "variable dlen equal ly-${len0}"
if "${dir} == 3" then    "variable len0 equal ${lz0}"    "variable dlen equal lz-${len0}"
variable len0 equal ${lz0}
variable len0 equal 17.5867
variable dlen equal lz-${len0}
variable dlen equal lz-17.5867
if "${dir} == 4" then    "variable len0 equal ${lx0}"    "variable dlen equal 2*(yz-${yz0})"
if "${dir} == 5" then    "variable len0 equal ${ly0}"    "variable dlen equal 2*(xz-${xz0})"
if "${dir} == 6" then    "variable len0 equal ${lz0}"    "variable dlen equal 2*(xy-${xy0})"

# strain vector (epsilon)
variable eps equal v_dlen/v_len0

# stress vector (sigma)
variable sig1 equal -f_avgp[1]*${ufac}
variable sig1 equal -f_avgp[1]*0.000101325
variable sig2 equal -f_avgp[2]*${ufac}
variable sig2 equal -f_avgp[2]*0.000101325
variable sig3 equal -f_avgp[3]*${ufac}
variable sig3 equal -f_avgp[3]*0.000101325
variable sig4 equal -f_avgp[6]*${ufac}
variable sig4 equal -f_avgp[6]*0.000101325
variable sig5 equal -f_avgp[5]*${ufac}
variable sig5 equal -f_avgp[5]*0.000101325
variable sig6 equal -f_avgp[4]*${ufac}
variable sig6 equal -f_avgp[4]*0.000101325

# Reset box and simulation parameters
clear
  using 1 OpenMP thread(s) per MPI task
# box tilt large
read_restart equil.res
Reading restart file ...
  restart file = 2 Aug 2023, LAMMPS = 2 Aug 2023
  restoring atom style full from restart
  triclinic box = (0 0 0) to (17.1722 13.1279 17.5867) with tilt (-8.382 0.0305 0.3027)
WARNING: Triclinic box skew is large. LAMMPS will run inefficiently. (src/domain.cpp:220)
  2 by 2 by 2 MPI processor grid
  pair style reaxff stores no restart info
  362 atoms
Finding 1-2 1-3 1-4 neighbors ...
  special bond factors lj:    0        0        0       
  special bond factors coul:  0        0        0       
     0 = max # of 1-2 neighbors
     0 = max # of 1-3 neighbors
     0 = max # of 1-4 neighbors
     1 = max # of special neighbors
  special bonds CPU = 0.000 seconds
  read_restart CPU = 0.004 seconds

# Positive deformation
variable delta equal ${up}*${len0}
variable delta equal 0.6*${len0}
variable delta equal 0.6*17.5867
variable deltaxy equal ${up}*xy
variable deltaxy equal 0.6*xy
variable deltaxz equal ${up}*xz
variable deltaxz equal 0.6*xz
variable deltayz equal ${up}*yz
variable deltayz equal 0.6*yz
if "${dir} == 1" then    "fix deform_p all deform ${nthermo} x delta 0 ${delta} xy delta ${deltaxy} xz delta ${deltaxz} remap v units box flip no"
if "${dir} == 2" then    "fix deform_p all deform ${nthermo} y delta 0 ${delta} yz delta ${deltayz} remap v units box flip no"
if "${dir} == 3" then    "fix deform_p all deform ${nthermo} z delta 0 ${delta} remap v units box"
fix deform_p all deform ${nthermo} z delta 0 ${delta} remap v units box
fix deform_p all deform 100 z delta 0 ${delta} remap v units box
fix deform_p all deform 100 z delta 0 10.55202 remap v units box
if "${dir} == 4" then    "fix deform_p all deform ${nthermo} yz delta ${delta} remap v units box flip no"
if "${dir} == 5" then    "fix deform_p all deform ${nthermo} xz delta ${delta} remap v units box flip no"
if "${dir} == 6" then    "fix deform_p all deform ${nthermo} xy delta ${delta} remap v units box flip no"

# Run deformation MD
print "*****Positive-deform ${dir} starts.*****"
*****Positive-deform 3 starts.*****
# Save bond information
fix bondinfo all reaxff/bonds ${nthermo} bonds/bonds.pos${dir}.reaxff
fix bondinfo all reaxff/bonds 100 bonds/bonds.pos${dir}.reaxff
fix bondinfo all reaxff/bonds 100 bonds/bonds.pos3.reaxff
# Reset neighbor style
neighbor        2 bin
neigh_modify    every 10 delay 0 check no

include ff.mod.lmp
# Setup forcefield, system
# undefine any fix ave/* fix before using reset_timestep
if "$(is_defined(fix,avgp))" then "unfix avgp"
if "$(is_defined(fix,avgl))" then "unfix avgl"
reset_timestep 0

# Assign the force field
pair_style reaxff NULL safezone 3.0 mincap 150
pair_coeff * * ${FF}
pair_coeff * * SiOCHN_2018.ff C H O Si
WARNING: Van der Waals parameters for element SI indicate inner wall+shielding, but earlier atoms indicate a different van der Waals method. This may cause division-by-zero errors. Keeping van der Waals setting for earlier atoms. (src/REAXFF/reaxff_ffield.cpp:251)

# charge method for reaxff
fix myqeq all qeq/reaxff 1 0.0 10.0 1.0e-6 reaxff maxiter 400
# fix bondinfo all reaxff/bonds ${nthermo} bonds.reaxff
# Setup neighbor style
neighbor        2 bin
neigh_modify    every 10 delay 0 check no

# Setup output
thermo		${nthermo}
thermo		100
thermo_style custom step temp press vol lz density
# thermo_style custom step vol lx ly lz yz xz xy
thermo_modify norm no
# thermo_modify line multi

# Sample pressure (and length vector)
fix avgp all ave/time  ${nevery} ${nrepeat} ${nfreq} c_thermo_press mode vector
fix avgp all ave/time  1000 ${nrepeat} ${nfreq} c_thermo_press mode vector
fix avgp all ave/time  1000 1 ${nfreq} c_thermo_press mode vector
fix avgp all ave/time  1000 1 1000 c_thermo_press mode vector
# fix avgp all ave/time  10 10 ${nthermo} c_thermo_press mode vector
# variable lx equal lx
# variable ly equal ly
# variable lz equal lz
# fix avgl all ave/time  ${nevery} ${nrepeat} ${nfreq} v_lx v_ly v_lz

# nvt
fix fnvt all nvt temp ${temp} ${temp} ${tdamp}
fix fnvt all nvt temp 300 ${temp} ${tdamp}
fix fnvt all nvt temp 300 300 ${tdamp}
fix fnvt all nvt temp 300 300 50


# Save stress, strain to "./stress_strain/stress_strain.pos${dir}.out"
print "# Stress and strain vectors, ${structure}, positive deformation ${dir}"       file stress_strain/stress_strain.pos${dir}.out screen no
print "# Stress and strain vectors, ${structure}, positive deformation ${dir}"       file stress_strain/stress_strain.pos3.out screen no
fix data all print ${nfreq} "${eps} ${sig1} ${sig2} ${sig3} ${sig4} ${sig5} ${sig6}"       append stress_strain/stress_strain.pos${dir}.out screen no       title "# eps sig1 sig2 sig3 sig4 sig5 sig6"
fix data all print 1000 "${eps} ${sig1} ${sig2} ${sig3} ${sig4} ${sig5} ${sig6}"       append stress_strain/stress_strain.pos${dir}.out screen no       title "# eps sig1 sig2 sig3 sig4 sig5 sig6"
fix data all print 1000 "${eps} ${sig1} ${sig2} ${sig3} ${sig4} ${sig5} ${sig6}"       append stress_strain/stress_strain.pos3.out screen no       title "# eps sig1 sig2 sig3 sig4 sig5 sig6"

# compute MSD and RDF
compute msd1 all msd
fix myMSD all ave/time 10 10 ${nthermo} c_msd1[1] c_msd1[2] c_msd1[3] c_msd1[4] c_thermo_temp     file msd.out     title2 "# TimeStep MSD_X MSD_Y MSD_Z MSD_Total Temperture"
fix myMSD all ave/time 10 10 100 c_msd1[1] c_msd1[2] c_msd1[3] c_msd1[4] c_thermo_temp     file msd.out     title2 "# TimeStep MSD_X MSD_Y MSD_Z MSD_Total Temperture"
# C-C C-Si Si-O C-H Si-Si
compute rdf1 all rdf 100  1 1  1 4  3 4  1 2 cutoff 5.0
fix myRDF all ave/time ${nevery} ${nrepeat} ${nfreq} c_rdf1[*]     file rdf.out mode vector     title3 "# Row r g1(r) coor1(r) ..."
fix myRDF all ave/time 1000 ${nrepeat} ${nfreq} c_rdf1[*]     file rdf.out mode vector     title3 "# Row r g1(r) coor1(r) ..."
fix myRDF all ave/time 1000 1 ${nfreq} c_rdf1[*]     file rdf.out mode vector     title3 "# Row r g1(r) coor1(r) ..."
fix myRDF all ave/time 1000 1 1000 c_rdf1[*]     file rdf.out mode vector     title3 "# Row r g1(r) coor1(r) ..."

# save trajectory
# if "$(is_defined(dump,dump_pos${dir1}))" then "undump dump_pos${dir1}"
dump dump_pos${dir} all custom ${nthermo} dump/pos${dir}_deform.lammpstrj id type q x y z element
dump dump_pos3 all custom ${nthermo} dump/pos${dir}_deform.lammpstrj id type q x y z element
dump dump_pos3 all custom 100 dump/pos${dir}_deform.lammpstrj id type q x y z element
dump dump_pos3 all custom 100 dump/pos3_deform.lammpstrj id type q x y z element
dump_modify dump_pos${dir} element C H O Si
dump_modify dump_pos3 element C H O Si
run ${nrun}
run 120000

CITE-CITE-CITE-CITE-CITE-CITE-CITE-CITE-CITE-CITE-CITE-CITE-CITE

Your simulation uses code contributions which should be cited:

- pair reaxff command: doi:10.1016/j.parco.2011.08.005

@Article{Aktulga12,
 author = {H. M. Aktulga and J. C. Fogarty and S. A. Pandit and A. Y. Grama},
 title = {Parallel Reactive Molecular Dynamics: {N}umerical Methods and Algorithmic Techniques},
 journal = {Parallel Computing},
 year =    2012,
 volume =  38,
 number =  {4--5},
 pages =   {245--259}
}

- fix qeq/reaxff command: doi:10.1016/j.parco.2011.08.005

@Article{Aktulga12,
 author = {H. M. Aktulga and J. C. Fogarty and S. A. Pandit and A. Y. Grama},
 title = {Parallel Reactive Molecular Dynamics: {N}umerical Methods and Algorithmic Techniques},
 journal = {Parallel Computing},
 year =    2012,
 volume =  38,
 pages =   {245--259}
}

CITE-CITE-CITE-CITE-CITE-CITE-CITE-CITE-CITE-CITE-CITE-CITE-CITE

WARNING: Compute rdf cutoff less than neighbor cutoff - forcing a needless neighbor list build (src/compute_rdf.cpp:179)
WARNING: Fix qeq/reaxff group is not charge neutral, net charge = -7.38 (src/REAXFF/fix_qeq_reaxff.cpp:392)
Neighbor list info ...
  update: every = 10 steps, delay = 0 steps, check = no
  max neighbors/atom: 2000, page size: 100000
  master list distance cutoff = 12
  ghost atom cutoff = 12
  binsize = 6, bins = 5 3 3
  3 neighbor lists, perpetual/occasional/extra = 2 1 0
  (1) pair reaxff, perpetual
      attributes: half, newton off, ghost
      pair build: half/bin/newtoff/ghost
      stencil: full/ghost/bin/3d
      bin: standard
  (2) compute rdf, occasional
      attributes: half, newton on, cut 7
      pair build: half/bin/newton/tri
      stencil: half/bin/3d/tri
      bin: standard
  (3) fix qeq/reaxff, perpetual, copy from (1)
      attributes: half, newton off
      pair build: copy
      stencil: none
      bin: none
Per MPI rank memory allocation (min/avg/max) = 135.6 | 136.8 | 138 Mbytes
   Step          Temp          Press          Volume           Lz          Density    
         0   300            183521.71      3964.6564      17.5867        1.6616584    
       100   1222.9285      8513.1144      3966.6387      17.595493      1.660828     
       200   705.92873      11126.071      3968.621       17.604287      1.6599984    
       300   567.84499      32096.851      3970.6034      17.61308       1.6591697    
       400   462.73088      10618.267      3972.5857      17.621873      1.6583417    
       500   392.43129      2448.3722      3974.568       17.630667      1.6575146    
       600   295.86191      4679.2131      3976.5504      17.63946       1.6566884    
       700   261.78549      6976.7401      3978.5327      17.648253      1.6558629    
       800   284.33903      5078.884       3980.515       17.657047      1.6550383    
       900   306.93492      11268.489      3982.4973      17.66584       1.6542145    
      1000   303.19657      4308.0043      3984.4797      17.674633      1.6533915    
      1100   300.532        4195.9851      3986.462       17.683427      1.6525693    
      1200   316.9913       5815.4561      3988.4443      17.69222       1.6517479    
      1300   284.42649      9173.3187      3990.4267      17.701014      1.6509274    
      1400   306.1774       9651.5904      3992.409       17.709807      1.6501077    
      1500   283.1883      -4531.704       3994.3913      17.7186        1.6492888    
      1600   291.82868     -7493.5994      3996.3736      17.727394      1.6484707    
      1700   313.83233     -274.82696      3998.356       17.736187      1.6476534    
      1800   317.91562      7583.7755      4000.3383      17.74498       1.6468369    
      1900   288.29199      9948.1345      4002.3206      17.753774      1.6460212    
      2000   303.59668      4611.001       4004.3029      17.762567      1.6452064    
      2100   287.30675      7943.8122      4006.2853      17.77136       1.6443923    
      2200   301.56703     -1365.5574      4008.2676      17.780154      1.643579     
      2300   310.0522      -8701.0295      4010.2499      17.788947      1.6427666    
      2400   311.56352      9956.2421      4012.2323      17.79774       1.641955     
      2500   296.5355       14769.775      4014.2146      17.806534      1.6411441    
      2600   311.85493     -1023.7096      4016.1969      17.815327      1.6403341    
      2700   297.41914      3791.4971      4018.1792      17.82412       1.6395248    
      2800   278.40574      3330.3548      4020.1616      17.832914      1.6387164    
      2900   300.92909      7401.1424      4022.1439      17.841707      1.6379087    
      3000   310.1005       8676.6351      4024.1262      17.8505        1.6371019    
      3100   308.7396       2548.5065      4026.1086      17.859294      1.6362958    
      3200   287.74492     -9972.7364      4028.0909      17.868087      1.6354906    
      3300   288.15         6154.6426      4030.0732      17.876881      1.6346861    
      3400   298.1059       6100.0185      4032.0555      17.885674      1.6338824    
      3500   315.29665      3318.928       4034.0379      17.894467      1.6330795    
      3600   316.19165     -16136.767      4036.0202      17.903261      1.6322774    
      3700   305.01696     -9477.4896      4038.0025      17.912054      1.6314761    
      3800   272.15238     -1163.3247      4039.9849      17.920847      1.6306756    
      3900   295.15096     -3284.9228      4041.9672      17.929641      1.6298758    
      4000   310.04512     -1608.6055      4043.9495      17.938434      1.6290769    
      4100   325.30149     -7349.4181      4045.9318      17.947227      1.6282787    
      4200   284.42426      2303.8171      4047.9142      17.956021      1.6274813    
      4300   276.59746      4378.3541      4049.8965      17.964814      1.6266847    
      4400   288.53438     -8480.9961      4051.8788      17.973607      1.6258889    
      4500   286.21011     -9785.647       4053.8612      17.982401      1.6250938    
      4600   300.68324     -12279.676      4055.8435      17.991194      1.6242995    
      4700   345.64353     -10889.936      4057.8258      17.999987      1.623506     
      4800   325.14838      7462.1737      4059.8081      18.008781      1.6227133    
      4900   280.62783      4440.6553      4061.7905      18.017574      1.6219213    
      5000   285.01841     -11054.47       4063.7728      18.026367      1.6211302    
      5100   293.43043     -9578.2335      4065.7551      18.035161      1.6203398    
      5200   306.79331     -8533.4319      4067.7375      18.043954      1.6195501    
      5300   332.92266     -15152.226      4069.7198      18.052748      1.6187612    
      5400   314.20201     -7565.4299      4071.7021      18.061541      1.6179731    
      5500   290.05904     -2439.7701      4073.6844      18.070334      1.6171858    
      5600   274.14582     -19903.633      4075.6668      18.079128      1.6163992    
      5700   286.57781     -15655.035      4077.6491      18.087921      1.6156134    
      5800   322.55607     -9743.4613      4079.6314      18.096714      1.6148284    
      5900   306.53121     -10658.46       4081.6137      18.105508      1.6140441    
      6000   327.50294      4109.5379      4083.5961      18.114301      1.6132606    
      6100   320.52188     -7794.5758      4085.5784      18.123094      1.6124778    
      6200   291.39216     -14208.007      4087.5607      18.131888      1.6116958    
      6300   284.27671     -9281.9379      4089.5431      18.140681      1.6109146    
      6400   287.08622     -8212.1411      4091.5254      18.149474      1.6101341    
      6500   310.08326     -11996.134      4093.5077      18.158268      1.6093544    
      6600   336.98609     -13259.615      4095.49        18.167061      1.6085754    
      6700   292.91243     -4392.5335      4097.4724      18.175854      1.6077972    
      6800   301.43038      1773.0138      4099.4547      18.184648      1.6070197    
      6900   293.90834     -9793.5405      4101.437       18.193441      1.606243     
      7000   291.51069     -13851.92       4103.4194      18.202234      1.6054671    
      7100   307.31999     -4963.6466      4105.4017      18.211028      1.6046919    
      7200   304.66119      7237.8113      4107.384       18.219821      1.6039174    
      7300   281.52481     -5923.416       4109.3663      18.228615      1.6031437    
      7400   285.94364     -14864.055      4111.3487      18.237408      1.6023707    
      7500   289.39853      3819.5731      4113.331       18.246201      1.6015985    
      7600   286.33066     -3392.0605      4115.3133      18.254995      1.600827     
      7700   293.47116     -19419.424      4117.2957      18.263788      1.6000563    
      7800   314.31393     -12894.533      4119.278       18.272581      1.5992863    
      7900   310.24311     -10709.622      4121.2603      18.281375      1.598517     
      8000   300.97513     -12108.124      4123.2426      18.290168      1.5977485    
      8100   266.3498      -4083.8074      4125.225       18.298961      1.5969807    
      8200   296.80223      9393.2266      4127.2073      18.307755      1.5962137    
      8300   307.00936      2403.9974      4129.1896      18.316548      1.5954474    
      8400   323.77309     -9111.2085      4131.172       18.325341      1.5946818    
      8500   300.11019     -19272.152      4133.1543      18.334135      1.5939169    
      8600   294.39531     -2860.3371      4135.1366      18.342928      1.5931528    
      8700   297.83586     -16797.124      4137.1189      18.351721      1.5923895    
      8800   293.63222     -21310.213      4139.1013      18.360515      1.5916268    
      8900   311.77044     -12733.534      4141.0836      18.369308      1.5908649    
      9000   319.69079     -11462.008      4143.0659      18.378101      1.5901037    
      9100   304.40107     -8036.1234      4145.0483      18.386895      1.5893433    
      9200   280.13444     -14128.058      4147.0306      18.395688      1.5885836    
      9300   291.92529     -20868.62       4149.0129      18.404482      1.5878246    
      9400   302.9356      -2963.7044      4150.9952      18.413275      1.5870663    
      9500   296.63031     -127.92381      4152.9776      18.422068      1.5863088    
      9600   291.65264     -14649.92       4154.9599      18.430862      1.5855519    
      9700   292.29704     -7557.5129      4156.9422      18.439655      1.5847958    
      9800   283.71327     -20158.532      4158.9245      18.448448      1.5840404    
      9900   303.04209     -14050.912      4160.9069      18.457242      1.5832858    
     10000   317.08806     -15598.817      4162.8892      18.466035      1.5825318    
     10100   298.44952     -3249.9507      4164.8715      18.474828      1.5817786    
     10200   291.9383      -6330.8744      4166.8539      18.483622      1.5810261    
     10300   303.85514     -6907.0742      4168.8362      18.492415      1.5802743    
     10400   324.90923     -9483.2676      4170.8185      18.501208      1.5795232    
     10500   307.54235     -2499.4465      4172.8008      18.510002      1.5787728    
     10600   309.05475     -605.76506      4174.7832      18.518795      1.5780232    
     10700   311.9294       4369.5728      4176.7655      18.527588      1.5772742    
     10800   299.59692     -7648.9217      4178.7478      18.536382      1.576526     
     10900   293.8798      -5515.9844      4180.7302      18.545175      1.5757785    
     11000   293.80926     -21235.714      4182.7125      18.553968      1.5750317    
     11100   314.08987     -12268.153      4184.6948      18.562762      1.5742856    
     11200   305.70683      764.76883      4186.6771      18.571555      1.5735402    
     11300   322.25673     -7344.613       4188.6595      18.580349      1.5727955    
     11400   308.08188     -1607.3212      4190.6418      18.589142      1.5720515    
     11500   302.6775      -18132.19       4192.6241      18.597935      1.5713082    
     11600   305.48935     -11432.173      4194.6065      18.606729      1.5705656    
     11700   300.41797     -8414.6183      4196.5888      18.615522      1.5698237    
     11800   299.32311     -4144.7024      4198.5711      18.624315      1.5690825    
     11900   300.00045      5412.4307      4200.5534      18.633109      1.5683421    
     12000   292.19294      12655.788      4202.5358      18.641902      1.5676023    
     12100   291.64337     -9609.1264      4204.5181      18.650695      1.5668632    
     12200   294.12274     -14246.551      4206.5004      18.659489      1.5661248    
     12300   319.7101      -11922.597      4208.4828      18.668282      1.5653871    
     12400   315.69722     -10142.646      4210.4651      18.677075      1.5646501    
     12500   313.21301     -3426.9848      4212.4474      18.685869      1.5639138    
     12600   283.73362     -10932.389      4214.4297      18.694662      1.5631782    
     12700   302.60125     -15763.695      4216.4121      18.703455      1.5624433    
     12800   317.01327     -13401.937      4218.3944      18.712249      1.561709     
     12900   292.44918     -11912.276      4220.3767      18.721042      1.5609755    
     13000   311.60573     -7159.3401      4222.359       18.729836      1.5602426    
     13100   312.51442     -806.41494      4224.3414      18.738629      1.5595105    
     13200   313.11854      3146.2459      4226.3237      18.747422      1.558779     
     13300   295.93598     -8761.0825      4228.306       18.756216      1.5580482    
     13400   282.65327     -5654.9919      4230.2884      18.765009      1.5573181    
     13500   300.50988     -12981.357      4232.2707      18.773802      1.5565887    
     13600   311.62783     -18750.951      4234.253       18.782596      1.5558599    
     13700   297.19066     -9691.6117      4236.2353      18.791389      1.5551319    
     13800   303.87683     -231.28431      4238.2177      18.800182      1.5544045    
     13900   265.91802     -18351.328      4240.2         18.808976      1.5536778    
     14000   277.21972     -12342.366      4242.1823      18.817769      1.5529518    
     14100   270.7355      -15096.057      4244.1647      18.826562      1.5522265    
     14200   305.38858     -22109.302      4246.147       18.835356      1.5515018    
     14300   299.76345     -15963.448      4248.1293      18.844149      1.5507778    
     14400   291.71739     -25510.162      4250.1116      18.852942      1.5500545    
     14500   303.86639     -705.54972      4252.094       18.861736      1.5493319    
     14600   282.49056     -7311.1007      4254.0763      18.870529      1.5486099    
     14700   312.98054     -25884.17       4256.0586      18.879322      1.5478886    
     14800   320.20262     -6158.6016      4258.041       18.888116      1.547168     
     14900   310.0504      -2552.131       4260.0233      18.896909      1.546448     
     15000   291.27677      93.310235      4262.0056      18.905703      1.5457288    
     15100   284.80622     -6411.7838      4263.9879      18.914496      1.5450101    
     15200   296.07813     -9026.1909      4265.9703      18.923289      1.5442922    
     15300   318.76871     -12558.218      4267.9526      18.932083      1.5435749    
     15400   306.53281     -240.86117      4269.9349      18.940876      1.5428583    
     15500   282.35776     -14773.945      4271.9173      18.949669      1.5421424    
     15600   284.48922      3856.435       4273.8996      18.958463      1.5414271    
     15700   297.74094     -9747.0515      4275.8819      18.967256      1.5407125    
     15800   312.43974     -10645.477      4277.8642      18.976049      1.5399985    
     15900   291.69828     -15846.369      4279.8466      18.984843      1.5392852    
     16000   282.66522     -16367.894      4281.8289      18.993636      1.5385726    
     16100   284.53015     -9433.9129      4283.8112      19.002429      1.5378606    
     16200   250.62884     -14776.851      4285.7936      19.011223      1.5371493    
     16300   277.38116     -10440.788      4287.7759      19.020016      1.5364387    
     16400   284.02588     -9543.6917      4289.7582      19.028809      1.5357287    
     16500   308.10148     -4635.4786      4291.7405      19.037603      1.5350193    
     16600   296.13817     -3557.8466      4293.7229      19.046396      1.5343106    
     16700   300.87856     -20521.54       4295.7052      19.055189      1.5336026    
     16800   271.46548     -3757.5941      4297.6875      19.063983      1.5328952    
     16900   286.35291     -185.88246      4299.6698      19.072776      1.5321885    
     17000   320.82389     -7957.5583      4301.6522      19.08157       1.5314824    
     17100   320.07153     -17006.662      4303.6345      19.090363      1.530777     
     17200   298.87575     -11925.215      4305.6168      19.099156      1.5300722    
     17300   279.3429      -18521.275      4307.5992      19.10795       1.5293681    
     17400   293.93181     -8487.4316      4309.5815      19.116743      1.5286646    
     17500   311.29304     -16382.643      4311.5638      19.125536      1.5279618    
     17600   331.45533     -21519.581      4313.5461      19.13433       1.5272596    
     17700   318.65475     -10595.737      4315.5285      19.143123      1.526558     
     17800   301.93365     -883.74692      4317.5108      19.151916      1.5258571    
     17900   304.98043     -10908.044      4319.4931      19.16071       1.5251569    
     18000   286.1685      -18612.941      4321.4755      19.169503      1.5244573    
     18100   297.60755     -11431.201      4323.4578      19.178296      1.5237583    
     18200   309.97212     -5184.7448      4325.4401      19.18709       1.52306      
     18300   306.88428     -5903.0639      4327.4224      19.195883      1.5223623    
     18400   289.18304     -13367.332      4329.4048      19.204676      1.5216652    
     18500   313.3458      -23127.959      4331.3871      19.21347       1.5209688    
     18600   277.40906     -8287.8351      4333.3694      19.222263      1.520273     
     18700   275.68238     -9763.4283      4335.3518      19.231056      1.5195779    
     18800   303.85942     -11250.772      4337.3341      19.23985       1.5188834    
     18900   291.25885     -18966.154      4339.3164      19.248643      1.5181895    
     19000   296.98771     -1723.5048      4341.2987      19.257437      1.5174963    
     19100   298.38472      5539.9103      4343.2811      19.26623       1.5168037    
     19200   283.08952     -13158.146      4345.2634      19.275023      1.5161117    
     19300   279.62488     -11066.333      4347.2457      19.283817      1.5154204    
     19400   307.68899     -2728.5201      4349.2281      19.29261       1.5147296    
     19500   299.48821     -15282.545      4351.2104      19.301403      1.5140396    
     19600   308.08843     -17318.929      4353.1927      19.310197      1.5133501    
     19700   296.43225     -7730.9019      4355.175       19.31899       1.5126613    
     19800   283.91013     -4979.0457      4357.1574      19.327783      1.5119731    
     19900   287.67714     -12870.947      4359.1397      19.336577      1.5112855    
     20000   315.40232     -10944.991      4361.122       19.34537       1.5105986    
     20100   303.59196      74.877876      4363.1044      19.354163      1.5099122    
     20200   280.67731     -10208.714      4365.0867      19.362957      1.5092265    
     20300   304.9129       491.36391      4367.069       19.37175       1.5085415    
     20400   325.53312     -9811.3953      4369.0513      19.380543      1.507857     
     20500   326.86254     -11753.458      4371.0337      19.389337      1.5071732    
     20600   296.71985     -22134.054      4373.016       19.39813       1.50649      
     20700   297.73495     -11947.807      4374.9983      19.406923      1.5058074    
     20800   291.38908     -15802.376      4376.9806      19.415717      1.5051254    
     20900   305.32677     -13456.332      4378.963       19.42451       1.504444     
     21000   288.70626     -2391.2758      4380.9453      19.433304      1.5037633    
     21100   305.11446     -9206.6746      4382.9276      19.442097      1.5030831    
     21200   299.06694     -24434.645      4384.91        19.45089       1.5024036    
     21300   296.85755     -13421.647      4386.8923      19.459684      1.5017247    
     21400   290.67748     -2710.117       4388.8746      19.468477      1.5010464    
     21500   293.17314     -10077.14       4390.8569      19.47727       1.5003688    
     21600   275.84813     -15009.842      4392.8393      19.486064      1.4996917    
     21700   295.44592     -21722.472      4394.8216      19.494857      1.4990153    
     21800   313.85682     -12924.775      4396.8039      19.50365       1.4983394    
     21900   296.16983     -10721.063      4398.7863      19.512444      1.4976642    
     22000   300.71117     -24045.032      4400.7686      19.521237      1.4969896    
     22100   305.10183     -4261.807       4402.7509      19.53003       1.4963155    
     22200   314.13174     -11096.531      4404.7332      19.538824      1.4956421    
     22300   322.01722     -9161.6645      4406.7156      19.547617      1.4949693    
     22400   309.23916     -8930.7006      4408.6979      19.55641       1.4942971    
     22500   301.84501     -20568.201      4410.6802      19.565204      1.4936255    
     22600   286.35084     -20253.442      4412.6626      19.573997      1.4929546    
     22700   303.15536     -18136.249      4414.6449      19.58279       1.4922842    
     22800   286.97772     -12438.732      4416.6272      19.591584      1.4916144    
     22900   307.12202     -27652.315      4418.6095      19.600377      1.4909452    
     23000   315.67527     -12466.096      4420.5919      19.609171      1.4902766    
     23100   304.00849     -7289.2648      4422.5742      19.617964      1.4896086    
     23200   290.47588     -6076.8849      4424.5565      19.626757      1.4889412    
     23300   302.68777     -14365.967      4426.5389      19.635551      1.4882744    
     23400   303.44674     -4785.4313      4428.5212      19.644344      1.4876083    
     23500   294.5525      -3924.7542      4430.5035      19.653137      1.4869427    
     23600   335.2248      -18163.544      4432.4858      19.661931      1.4862777    
     23700   309.49293     -8956.0703      4434.4682      19.670724      1.4856132    
     23800   290.08999     -16610.528      4436.4505      19.679517      1.4849494    
     23900   288.49317     -21607.523      4438.4328      19.688311      1.4842862    
     24000   305.02587     -28333.657      4440.4152      19.697104      1.4836236    
     24100   332.99645     -16361.817      4442.3975      19.705897      1.4829615    
     24200   293.84215     -14794.337      4444.3798      19.714691      1.4823001    
     24300   316.18446     -19040.606      4446.3621      19.723484      1.4816392    
     24400   298.49571     -18784.07       4448.3445      19.732277      1.480979     
     24500   309.15586     -14859.495      4450.3268      19.741071      1.4803193    
     24600   300.78644     -12017.321      4452.3091      19.749864      1.4796602    
     24700   307.66312     -21915.544      4454.2914      19.758657      1.4790017    
     24800   318.86243     -5204.4888      4456.2738      19.767451      1.4783438    
     24900   318.36457     -9733.6599      4458.2561      19.776244      1.4776865    
     25000   295.14041     -10071.193      4460.2384      19.785038      1.4770297    
     25100   295.66792     -18254.733      4462.2208      19.793831      1.4763735    
     25200   312.00553     -23394.547      4464.2031      19.802624      1.475718     
     25300   296.59302     -15620.833      4466.1854      19.811418      1.475063     
     25400   306.20935     -9691.5539      4468.1677      19.820211      1.4744085    
     25500   293.08553     -15031.158      4470.1501      19.829004      1.4737547    
     25600   315.82234     -12479.607      4472.1324      19.837798      1.4731014    
     25700   310.91587     -10864.854      4474.1147      19.846591      1.4724488    
     25800   309.04645     -25239.966      4476.0971      19.855384      1.4717966    
     25900   295.18712     -18106.893      4478.0794      19.864178      1.4711451    
     26000   282.22097     -12205.435      4480.0617      19.872971      1.4704942    
     26100   274.80213     -14126.942      4482.044       19.881764      1.4698438    
     26200   303.89291     -16193.009      4484.0264      19.890558      1.469194     
     26300   296.60058     -7035.3653      4486.0087      19.899351      1.4685448    
     26400   302.22845     -12803.971      4487.991       19.908144      1.4678961    
     26500   304.40549     -25142.633      4489.9734      19.916938      1.467248     
     26600   295.8922      -13699.701      4491.9557      19.925731      1.4666005    
     26700   300.81174     -20920.621      4493.938       19.934524      1.4659536    
     26800   296.33606     -14783.63       4495.9203      19.943318      1.4653072    
     26900   294.21388     -20594.88       4497.9027      19.952111      1.4646615    
     27000   311.39575     -15588.074      4499.885       19.960905      1.4640162    
     27100   332.78738     -18250.934      4501.8673      19.969698      1.4633716    
     27200   304.82292     -20058.681      4503.8497      19.978491      1.4627275    
     27300   303.73286     -18707.082      4505.832       19.987285      1.462084     
     27400   306.5951      -19739.55       4507.8143      19.996078      1.461441     
     27500   289.67454     -12154.307      4509.7966      20.004871      1.4607986    
     27600   301.75423     -9155.0266      4511.779       20.013665      1.4601568    
     27700   316.48025     -17598.443      4513.7613      20.022458      1.4595155    
     27800   292.62611     -17513.001      4515.7436      20.031251      1.4588748    
     27900   297.7829      -20329.244      4517.726       20.040045      1.4582347    
     28000   288.91198     -16583.134      4519.7083      20.048838      1.4575951    
     28100   295.71613     -18219.181      4521.6906      20.057631      1.4569561    
     28200   299.48595     -14486.735      4523.6729      20.066425      1.4563176    
     28300   323.68192     -29740.457      4525.6553      20.075218      1.4556797    
     28400   327.69951     -15617.15       4527.6376      20.084011      1.4550424    
     28500   296.08026     -11490.178      4529.6199      20.092805      1.4544056    
     28600   297.36356     -20517.366      4531.6022      20.101598      1.4537694    
     28700   310.85027     -21898.696      4533.5846      20.110391      1.4531337    
     28800   307.82476     -17381.577      4535.5669      20.119185      1.4524986    
     28900   282.80205     -25268.66       4537.5492      20.127978      1.4518641    
     29000   286.5756      -20716.28       4539.5316      20.136772      1.4512301    
     29100   285.81818     -13608.556      4541.5139      20.145565      1.4505966    
     29200   314.03856     -12834.552      4543.4962      20.154358      1.4499637    
     29300   308.02746     -21358.345      4545.4785      20.163152      1.4493314    
     29400   295.1536      -16144.708      4547.4609      20.171945      1.4486996    
     29500   302.55819     -20202.195      4549.4432      20.180738      1.4480683    
     29600   279.86364     -27602.076      4551.4255      20.189532      1.4474376    
     29700   327.6839      -20773.685      4553.4079      20.198325      1.4468075    
     29800   314.57423     -12535.237      4555.3902      20.207118      1.4461779    
     29900   294.31034     -18381.082      4557.3725      20.215912      1.4455489    
     30000   288.6086      -17439.831      4559.3548      20.224705      1.4449204    
     30100   288.20334     -9186.3136      4561.3372      20.233498      1.4442924    
     30200   299.13388     -22906.707      4563.3195      20.242292      1.443665     
     30300   301.63926     -18582.956      4565.3018      20.251085      1.4430381    
     30400   332.40074     -22956.623      4567.2842      20.259878      1.4424118    
     30500   297.30231     -14485.636      4569.2665      20.268672      1.441786     
     30600   285.98626     -30190.328      4571.2488      20.277465      1.4411608    
     30700   282.01591     -10747.817      4573.2311      20.286258      1.4405361    
     30800   293.10211     -14142.503      4575.2135      20.295052      1.439912     
     30900   303.99311     -33641.987      4577.1958      20.303845      1.4392884    
     31000   332.44297     -21065.478      4579.1781      20.312638      1.4386653    
     31100   302.79416     -13107.09       4581.1605      20.321432      1.4380428    
     31200   284.71593     -19990.825      4583.1428      20.330225      1.4374208    
     31300   306.75535     -28108.974      4585.1251      20.339019      1.4367993    
     31400   319.00609     -29986.398      4587.1074      20.347812      1.4361784    
     31500   323.35303     -23389.602      4589.0898      20.356605      1.435558     
     31600   311.0732      -12839.055      4591.0721      20.365399      1.4349382    
     31700   281.77887     -16888.843      4593.0544      20.374192      1.4343189    
     31800   281.60885     -10043.91       4595.0367      20.382985      1.4337001    
     31900   309.21947     -16794.052      4597.0191      20.391779      1.4330819    
     32000   315.48739     -20502.509      4599.0014      20.400572      1.4324642    
     32100   328.09223     -30963.019      4600.9837      20.409365      1.431847     
     32200   294.04486     -21203.618      4602.9661      20.418159      1.4312303    
     32300   284.67613     -19376.093      4604.9484      20.426952      1.4306142    
     32400   290.37516     -17034.71       4606.9307      20.435745      1.4299986    
     32500   308.37222     -27100.208      4608.913       20.444539      1.4293836    
     32600   318.38125     -17440.188      4610.8954      20.453332      1.4287691    
     32700   304.4847      -17072.993      4612.8777      20.462125      1.4281551    
     32800   311.79802     -23470.121      4614.86        20.470919      1.4275416    
     32900   289.50372     -19396.859      4616.8424      20.479712      1.4269287    
     33000   289.40115     -21880.79       4618.8247      20.488506      1.4263162    
     33100   298.5274      -23801.514      4620.807       20.497299      1.4257043    
     33200   309.95248     -15558.142      4622.7893      20.506092      1.425093     
     33300   301.35151     -10067.833      4624.7717      20.514886      1.4244821    
     33400   301.83275     -27566.339      4626.754       20.523679      1.4238718    
     33500   300.48155     -23015.333      4628.7363      20.532472      1.423262     
     33600   283.72196     -20537.083      4630.7187      20.541266      1.4226528    
     33700   302.3892      -26501.96       4632.701       20.550059      1.422044     
     33800   293.62654     -32144.796      4634.6833      20.558852      1.4214358    
     33900   310.5776      -25106.448      4636.6656      20.567646      1.4208281    
     34000   288.95        -16575.402      4638.648       20.576439      1.4202209    
     34100   337.71191     -36630.937      4640.6303      20.585232      1.4196142    
     34200   311.45434     -14770.968      4642.6126      20.594026      1.419008     
     34300   301.11361     -20400.917      4644.595       20.602819      1.4184024    
     34400   286.38982     -28260.543      4646.5773      20.611612      1.4177973    
     34500   294.1783      -14408.448      4648.5596      20.620406      1.4171927    
     34600   310.9743      -11352.528      4650.5419      20.629199      1.4165886    
     34700   309.8087      -23607.347      4652.5243      20.637992      1.415985     
     34800   307.23121     -27754.06       4654.5066      20.646786      1.415382     
     34900   297.13161     -13985.781      4656.4889      20.655579      1.4147794    
     35000   308.31156     -11112.856      4658.4713      20.664372      1.4141774    
     35100   322.50631     -34759.68       4660.4536      20.673166      1.4135759    
     35200   320.8593      -25746.11       4662.4359      20.681959      1.4129748    
     35300   300.3306      -17581.567      4664.4182      20.690753      1.4123743    
     35400   292.97467     -25875.147      4666.4006      20.699546      1.4117744    
     35500   323.17649     -23805.973      4668.3829      20.708339      1.4111749    
     35600   302.58728     -21469.46       4670.3652      20.717133      1.4105759    
     35700   327.99241     -21671.143      4672.3475      20.725926      1.4099774    
     35800   318.40982     -28883.623      4674.3299      20.734719      1.4093795    
     35900   310.26534     -24579.135      4676.3122      20.743513      1.408782     
     36000   288.85428     -19277.557      4678.2945      20.752306      1.4081851    
     36100   282.99205     -28271.372      4680.2769      20.761099      1.4075887    
     36200   300.88422     -19891.913      4682.2592      20.769893      1.4069927    
     36300   318.21069     -24682.825      4684.2415      20.778686      1.4063973    
     36400   318.89088     -12499.373      4686.2238      20.787479      1.4058024    
     36500   294.65304     -23402.004      4688.2062      20.796273      1.405208     
     36600   295.82704     -8715.7042      4690.1885      20.805066      1.404614     
     36700   305.56015     -24114.519      4692.1708      20.813859      1.4040206    
     36800   296.01292     -26058.322      4694.1532      20.822653      1.4034277    
     36900   315.03257     -27660.951      4696.1355      20.831446      1.4028353    
     37000   302.47279     -24152.343      4698.1178      20.840239      1.4022434    
     37100   313.47691     -22852.887      4700.1001      20.849033      1.401652     
     37200   294.23319     -26301.658      4702.0825      20.857826      1.4010611    
     37300   303.9656      -27745.438      4704.0648      20.86662       1.4004706    
     37400   280.51514     -22858.23       4706.0471      20.875413      1.3998807    
     37500   294.2947      -18527.973      4708.0295      20.884206      1.3992913    
     37600   314.07887     -20301.938      4710.0118      20.893         1.3987024    
     37700   275.982       -25227.174      4711.9941      20.901793      1.3981139    
     37800   318.68664     -30793.555      4713.9764      20.910586      1.397526     
     37900   283.77705     -32184.139      4715.9588      20.91938       1.3969386    
     38000   300.29315     -11415.017      4717.9411      20.928173      1.3963516    
     38100   304.82945     -32073          4719.9234      20.936966      1.3957652    
     38200   317.78257     -26098.32       4721.9058      20.94576       1.3951792    
     38300   304.47082     -19418.277      4723.8881      20.954553      1.3945937    
     38400   312.36169     -21858.003      4725.8704      20.963346      1.3940087    
     38500   295.05685     -17806.756      4727.8527      20.97214       1.3934242    
     38600   307.69902     -31505.77       4729.8351      20.980933      1.3928402    
     38700   315.14031     -26904.147      4731.8174      20.989726      1.3922567    
     38800   315.99632     -7335.6335      4733.7997      20.99852       1.3916737    
     38900   325.96786     -30813.369      4735.7821      21.007313      1.3910912    
     39000   283.85661     -19147.734      4737.7644      21.016106      1.3905091    
     39100   301.09806     -15800.251      4739.7467      21.0249        1.3899276    
     39200   297.07025     -14696.8        4741.729       21.033693      1.3893465    
     39300   297.38851     -36118.421      4743.7114      21.042487      1.3887659    
     39400   304.77072     -27836.211      4745.6937      21.05128       1.3881858    
     39500   314.66174     -18480.629      4747.676       21.060073      1.3876062    
     39600   300.01889     -17922.734      4749.6583      21.068867      1.3870271    
     39700   303.25767     -24695.835      4751.6407      21.07766       1.3864484    
     39800   281.81985     -28945.288      4753.623       21.086453      1.3858702    
     39900   284.09716     -21285.937      4755.6053      21.095247      1.3852926    
     40000   294.02808     -30682.958      4757.5877      21.10404       1.3847153    
     40100   312.78861     -16945.222      4759.57        21.112833      1.3841386    
     40200   308.73947     -21987.107      4761.5523      21.121627      1.3835624    
     40300   291.14477     -23027.96       4763.5346      21.13042       1.3829866    
     40400   292.67435     -19358.425      4765.517       21.139213      1.3824113    
     40500   314.62971     -29147.486      4767.4993      21.148007      1.3818365    
     40600   316.37116     -24936.304      4769.4816      21.1568        1.3812622    
     40700   308.7108      -23732.347      4771.464       21.165593      1.3806883    
     40800   284.05365     -26538.471      4773.4463      21.174387      1.380115     
     40900   289.38638     -24702.582      4775.4286      21.18318       1.3795421    
     41000   303.47285     -27723.518      4777.4109      21.191973      1.3789696    
     41100   309.7477      -36949.013      4779.3933      21.200767      1.3783977    
     41200   285.13271     -22065.476      4781.3756      21.20956       1.3778262    
     41300   293.70461     -31349.058      4783.3579      21.218354      1.3772552    
     41400   308.5402      -23537.121      4785.3403      21.227147      1.3766847    
     41500   289.25887     -16902.077      4787.3226      21.23594       1.3761146    
     41600   328.7195      -27279.169      4789.3049      21.244734      1.375545     
     41700   327.30099     -31627.658      4791.2872      21.253527      1.3749759    
     41800   329.39716     -30910.921      4793.2696      21.26232       1.3744073    
     41900   307.80105     -26772.084      4795.2519      21.271114      1.3738391    
     42000   294.69365     -31340.328      4797.2342      21.279907      1.3732714    
     42100   281.68179     -28924.608      4799.2166      21.2887        1.3727042    
     42200   278.30014     -25799.186      4801.1989      21.297494      1.3721374    
     42300   303.5186      -28868.006      4803.1812      21.306287      1.3715711    
     42400   309.02948     -27932.323      4805.1635      21.31508       1.3710053    
     42500   293.10329     -28287.188      4807.1459      21.323874      1.3704399    
     42600   287.72677     -33230.231      4809.1282      21.332667      1.369875     
     42700   296.86736     -19158.763      4811.1105      21.34146       1.3693106    
     42800   301.50895     -21949.945      4813.0929      21.350254      1.3687466    
     42900   290.05052     -25385.571      4815.0752      21.359047      1.3681831    
     43000   316.85376     -33998.323      4817.0575      21.36784       1.3676201    
     43100   273.899       -24485.684      4819.0398      21.376634      1.3670575    
     43200   314.18922     -24926.917      4821.0222      21.385427      1.3664954    
     43300   298.73782     -28507.481      4823.0045      21.394221      1.3659338    
     43400   290.01372     -23102.358      4824.9868      21.403014      1.3653726    
     43500   295.56275     -24208.461      4826.9691      21.411807      1.3648118    
     43600   305.7479      -17885.372      4828.9515      21.420601      1.3642516    
     43700   300.99773     -33405.058      4830.9338      21.429394      1.3636918    
     43800   319.95384     -29284.049      4832.9161      21.438187      1.3631324    
     43900   292.17457     -27098.647      4834.8985      21.446981      1.3625735    
     44000   304.31931     -20372.472      4836.8808      21.455774      1.3620151    
     44100   286.59216     -25071.954      4838.8631      21.464567      1.3614571    
     44200   303.68361     -32099.077      4840.8454      21.473361      1.3608996    
     44300   295.70267     -28736.52       4842.8278      21.482154      1.3603425    
     44400   284.82192     -21310.935      4844.8101      21.490947      1.3597859    
     44500   299.26679     -25509.9        4846.7924      21.499741      1.3592298    
     44600   290.82328     -19587.277      4848.7748      21.508534      1.3586741    
     44700   311.85428     -16092.739      4850.7571      21.517327      1.3581189    
     44800   292.69854     -17728.886      4852.7394      21.526121      1.3575641    
     44900   292.22712     -30991.724      4854.7217      21.534914      1.3570097    
     45000   331.10132     -25059.15       4856.7041      21.543708      1.3564558    
     45100   322.95263     -29420.274      4858.6864      21.552501      1.3559024    
     45200   303.47492     -24985.913      4860.6687      21.561294      1.3553494    
     45300   294.45267     -20397.028      4862.6511      21.570088      1.3547969    
     45400   287.88412     -21401.448      4864.6334      21.578881      1.3542448    
     45500   310.49157     -19794.477      4866.6157      21.587674      1.3536932    
     45600   301.75412     -12814.031      4868.598       21.596468      1.353142     
     45700   302.87299     -27489.521      4870.5804      21.605261      1.3525913    
     45800   268.32452     -21432.614      4872.5627      21.614054      1.352041     
     45900   276.11878     -24530.032      4874.545       21.622848      1.3514912    
     46000   302.70066     -16979.873      4876.5274      21.631641      1.3509418    
     46100   319.05602     -21489.714      4878.5097      21.640434      1.3503929    
     46200   305.73916     -22368.295      4880.492       21.649228      1.3498444    
     46300   299.0765      -30374.777      4882.4743      21.658021      1.3492963    
     46400   293.08177     -27138.007      4884.4567      21.666814      1.3487487    
     46500   280.94622     -29266.175      4886.439       21.675608      1.3482016    
     46600   304.70657     -21162.64       4888.4213      21.684401      1.3476548    
     46700   295.82854     -20237.03       4890.4037      21.693194      1.3471086    
     46800   299.92012     -27476.014      4892.386       21.701988      1.3465627    
     46900   302.09882     -25598.438      4894.3683      21.710781      1.3460173    
     47000   287.1104      -20926.062      4896.3506      21.719575      1.3454724    
     47100   294.39772     -28867.611      4898.333       21.728368      1.3449279    
     47200   296.6689      -30208.183      4900.3153      21.737161      1.3443838    
     47300   303.18001     -30555.403      4902.2976      21.745955      1.3438402    
     47400   291.45986     -23900.688      4904.2799      21.754748      1.343297     
     47500   300.21976     -31966.527      4906.2623      21.763541      1.3427543    
     47600   304.02188     -23826.963      4908.2446      21.772335      1.342212     
     47700   296.03239     -32567.796      4910.2269      21.781128      1.3416701    
     47800   294.40895     -33299.301      4912.2093      21.789921      1.3411287    
     47900   294.75934     -21847.095      4914.1916      21.798715      1.3405877    
     48000   328.81888     -31450.013      4916.1739      21.807508      1.3400471    
     48100   302.31435     -24847.401      4918.1562      21.816301      1.339507     
     48200   291.02994     -26000.45       4920.1386      21.825095      1.3389673    
     48300   310.52805     -37065.714      4922.1209      21.833888      1.338428     
     48400   307.77833     -38287.481      4924.1032      21.842681      1.3378892    
     48500   309.60381     -31593.432      4926.0856      21.851475      1.3373508    
     48600   317.24437     -26923.282      4928.0679      21.860268      1.3368129    
     48700   299.04805     -23627.096      4930.0502      21.869061      1.3362754    
     48800   297.97426     -26214.061      4932.0325      21.877855      1.3357383    
     48900   311.57456     -30541.457      4934.0149      21.886648      1.3352016    
     49000   284.25165     -25362.47       4935.9972      21.895442      1.3346654    
     49100   317.76341     -28291.287      4937.9795      21.904235      1.3341296    
     49200   313.30855     -19657.9        4939.9619      21.913028      1.3335942    
     49300   289.0596      -25324.969      4941.9442      21.921822      1.3330593    
     49400   311.31633     -32504.762      4943.9265      21.930615      1.3325248    
     49500   295.47862     -27512.796      4945.9088      21.939408      1.3319907    
     49600   299.87347     -29499.069      4947.8912      21.948202      1.3314571    
     49700   302.35643     -28042.538      4949.8735      21.956995      1.3309238    
     49800   338.25364     -25825.743      4951.8558      21.965788      1.330391     
     49900   325.89438     -31588.995      4953.8382      21.974582      1.3298587    
     50000   295.83683     -26765.748      4955.8205      21.983375      1.3293267    
     50100   288.53589     -25356.354      4957.8028      21.992168      1.3287952    
     50200   285.62765     -29312.47       4959.7851      22.000962      1.3282641    
     50300   300.36933     -31359.88       4961.7675      22.009755      1.3277335    
     50400   318.8015      -34075.63       4963.7498      22.018548      1.3272032    
     50500   309.53312     -25206.381      4965.7321      22.027342      1.3266734    
     50600   306.43314     -25798.415      4967.7144      22.036135      1.326144     
     50700   286.66354     -31851.512      4969.6968      22.044928      1.325615     
     50800   291.61727     -26160.839      4971.6791      22.053722      1.3250865    
     50900   286.88495     -27968.116      4973.6614      22.062515      1.3245583    
     51000   300.77796     -25671.575      4975.6438      22.071309      1.3240306    
     51100   299.98874     -28555.459      4977.6261      22.080102      1.3235033    
     51200   304.74443     -23938.971      4979.6084      22.088895      1.3229764    
     51300   296.1636      -31471.611      4981.5907      22.097689      1.32245      
     51400   296.6262      -34399.277      4983.5731      22.106482      1.321924     
     51500   281.60739     -29660.123      4985.5554      22.115275      1.3213983    
     51600   298.57973     -31326.223      4987.5377      22.124069      1.3208731    
     51700   308.28732     -23594.291      4989.5201      22.132862      1.3203484    
     51800   302.20378     -27425.432      4991.5024      22.141655      1.319824     
     51900   299.07848     -30675.724      4993.4847      22.150449      1.3193001    
     52000   293.46247     -26116.062      4995.467       22.159242      1.3187765    
     52100   312.43758     -28488.215      4997.4494      22.168035      1.3182534    
     52200   296.4576      -23203.753      4999.4317      22.176829      1.3177307    
     52300   302.21926     -29915.419      5001.414       22.185622      1.3172084    
     52400   287.39645     -30260.606      5003.3964      22.194415      1.3166865    
     52500   321.65377     -37110.137      5005.3787      22.203209      1.3161651    
     52600   314.74989     -34630.831      5007.361       22.212002      1.315644     
     52700   308.19334     -25089.379      5009.3433      22.220795      1.3151234    
     52800   328.1655      -29993.879      5011.3257      22.229589      1.3146032    
     52900   293.59748     -36501.313      5013.308       22.238382      1.3140834    
     53000   296.62341     -30905.49       5015.2903      22.247176      1.313564     
     53100   308.45791     -33494.846      5017.2727      22.255969      1.313045     
     53200   310.43624     -26654.126      5019.255       22.264762      1.3125264    
     53300   305.26637     -35647.471      5021.2373      22.273556      1.3120082    
     53400   315.06176     -24602.178      5023.2196      22.282349      1.3114905    
     53500   300.76968     -38121.492      5025.202       22.291142      1.3109731    
     53600   293.06514     -29280.245      5027.1843      22.299936      1.3104562    
     53700   305.17343     -26761.786      5029.1666      22.308729      1.3099396    
     53800   308.5445      -33945.746      5031.149       22.317522      1.3094235    
     53900   305.04855     -31587.215      5033.1313      22.326316      1.3089078    
     54000   284.54955     -32238.364      5035.1136      22.335109      1.3083925    
     54100   294.08759     -26954.343      5037.0959      22.343902      1.3078775    
     54200   309.40864     -24784.659      5039.0783      22.352696      1.307363     
     54300   318.8009      -21458.377      5041.0606      22.361489      1.3068489    
     54400   303.94318     -28123.301      5043.0429      22.370282      1.3063352    
     54500   276.71671     -31183.456      5045.0252      22.379076      1.3058219    
     54600   281.21845     -32669.145      5047.0076      22.387869      1.305309     
     54700   294.40848     -23706.01       5048.9899      22.396662      1.3047966    
     54800   314.37844     -30088.734      5050.9722      22.405456      1.3042845    
     54900   298.18276     -29099.237      5052.9546      22.414249      1.3037728    
     55000   305.13322     -24651.102      5054.9369      22.423043      1.3032615    
     55100   282.59214     -31852.25       5056.9192      22.431836      1.3027506    
     55200   285.19286     -23996.893      5058.9015      22.440629      1.3022401    
     55300   304.03835     -33317.027      5060.8839      22.449423      1.3017301    
     55400   282.62909     -33082.37       5062.8662      22.458216      1.3012204    
     55500   288.97097     -32199.118      5064.8485      22.467009      1.3007111    
     55600   294.68172     -27058.046      5066.8309      22.475803      1.3002022    
     55700   271.15565     -34117.156      5068.8132      22.484596      1.2996937    
     55800   259.14715     -31200.622      5070.7955      22.493389      1.2991856    
     55900   296.02706     -27341.889      5072.7778      22.502183      1.2986779    
     56000   334.50408     -22769.125      5074.7602      22.510976      1.2981706    
     56100   317.70462     -29399.735      5076.7425      22.519769      1.2976637    
     56200   292.09488     -29651.738      5078.7248      22.528563      1.2971572    
     56300   290.7646      -32103.493      5080.7072      22.537356      1.2966511    
     56400   289.38113     -20377.871      5082.6895      22.546149      1.2961454    
     56500   311.05918     -24404.392      5084.6718      22.554943      1.2956401    
     56600   320.52471     -19839.635      5086.6541      22.563736      1.2951352    
     56700   323.83574     -28913.022      5088.6365      22.572529      1.2946306    
     56800   286.961       -23372.694      5090.6188      22.581323      1.2941265    
     56900   293.26224     -30361.638      5092.6011      22.590116      1.2936227    
     57000   287.34365     -23788.244      5094.5835      22.598909      1.2931194    
     57100   305.6365      -28516.959      5096.5658      22.607703      1.2926164    
     57200   301.71679     -29373.982      5098.5481      22.616496      1.2921139    
     57300   278.0455      -37195.166      5100.5304      22.62529       1.2916117    
     57400   284.50844     -29624.518      5102.5128      22.634083      1.2911099    
     57500   302.8581      -22901.995      5104.4951      22.642876      1.2906085    
     57600   306.23527     -33450.506      5106.4774      22.65167       1.2901075    
     57700   288.64426     -26192.16       5108.4598      22.660463      1.2896068    
     57800   303.51128     -28473.515      5110.4421      22.669256      1.2891066    
     57900   301.91927     -22619.541      5112.4244      22.67805       1.2886068    
     58000   283.72551     -20411.092      5114.4067      22.686843      1.2881073    
     58100   297.08554     -26673.884      5116.3891      22.695636      1.2876082    
     58200   318.24968     -22275.524      5118.3714      22.70443       1.2871095    
     58300   316.25706     -34892.731      5120.3537      22.713223      1.2866112    
     58400   307.13643     -27714.997      5122.336       22.722016      1.2861133    
     58500   307.40685     -23837.286      5124.3184      22.73081       1.2856158    
     58600   284.56018     -26637.526      5126.3007      22.739603      1.2851187    
     58700   304.93643     -36283.436      5128.283       22.748396      1.2846219    
     58800   311.05423     -22630.473      5130.2654      22.75719       1.2841255    
     58900   292.32439     -31474.766      5132.2477      22.765983      1.2836295    
     59000   297.81392     -21623.111      5134.23        22.774777      1.2831339    
     59100   295.26067     -29853.569      5136.2123      22.78357       1.2826387    
     59200   279.56879     -26170.859      5138.1947      22.792363      1.2821438    
     59300   303.82273     -27185.771      5140.177       22.801157      1.2816494    
     59400   307.7124      -25569.963      5142.1593      22.80995       1.2811553    
     59500   299.62528     -26263.023      5144.1417      22.818743      1.2806616    
     59600   321.01473     -14526.839      5146.124       22.827537      1.2801683    
     59700   317.68515     -26792.31       5148.1063      22.83633       1.2796753    
     59800   311.56909     -9043.948       5150.0886      22.845123      1.2791828    
     59900   280.89567     -28844.472      5152.071       22.853917      1.2786906    
     60000   301.01214     -5487.3614      5154.0533      22.86271       1.2781988    
     60100   305.27121     -13437.31       5156.0356      22.871503      1.2777074    
     60200   316.94813     -16267.321      5158.018       22.880297      1.2772163    
     60300   312.89375     -14894.777      5160.0003      22.88909       1.2767256    
     60400   292.25318     -23147.183      5161.9826      22.897883      1.2762353    
     60500   295.86736     -19036.923      5163.9649      22.906677      1.2757454    
     60600   292.16222     -26997.54       5165.9473      22.91547       1.2752559    
     60700   299.26614     -16622.003      5167.9296      22.924263      1.2747667    
     60800   312.43583     -12114.973      5169.9119      22.933057      1.2742779    
     60900   294.50613     -4990.7702      5171.8943      22.94185       1.2737895    
     61000   302.87564     -13224.958      5173.8766      22.950643      1.2733015    
     61100   303.23746     -11263.909      5175.8589      22.959437      1.2728138    
     61200   304.96426     -8527.9465      5177.8412      22.96823       1.2723265    
     61300   315.3596      -16810.443      5179.8236      22.977024      1.2718396    
     61400   309.70847     -6447.2112      5181.8059      22.985817      1.271353     
     61500   306.48839     -16270.069      5183.7882      22.99461       1.2708669    
     61600   278.67052     -15136.263      5185.7706      23.003404      1.2703811    
     61700   284.71882     -17850.85       5187.7529      23.012197      1.2698956    
     61800   283.56852     -12493.64       5189.7352      23.02099       1.2694106    
     61900   311.04956     -18364.91       5191.7175      23.029784      1.2689259    
     62000   300.43275     -11915.992      5193.6999      23.038577      1.2684415    
     62100   286.03563     -14321.423      5195.6822      23.04737       1.2679576    
     62200   286.86165     -13482.851      5197.6645      23.056164      1.267474     
     62300   285.73411     -6768.3474      5199.6468      23.064957      1.2669908    
     62400   295.89856     -19826.564      5201.6292      23.07375       1.2665079    
     62500   314.03347     -12567.039      5203.6115      23.082544      1.2660255    
     62600   297.80247     -30884.665      5205.5938      23.091337      1.2655433    
     62700   301.45494     -15628.459      5207.5762      23.10013       1.2650616    
     62800   294.83379     -9527.6997      5209.5585      23.108924      1.2645802    
     62900   272.59204     -14412.892      5211.5408      23.117717      1.2640992    
     63000   309.91748     -26550.495      5213.5231      23.126511      1.2636186    
     63100   315.11656     -22153.092      5215.5055      23.135304      1.2631383    
     63200   292.22375     -21870.687      5217.4878      23.144097      1.2626584    
     63300   287.95783     -14874.722      5219.4701      23.152891      1.2621788    
     63400   294.45225     -22335.41       5221.4525      23.161684      1.2616996    
     63500   298.10297     -10850.557      5223.4348      23.170477      1.2612208    
     63600   302.27797     -19076.057      5225.4171      23.179271      1.2607423    
     63700   299.92023     -14581.939      5227.3994      23.188064      1.2602643    
     63800   307.34271     -8442.7144      5229.3818      23.196857      1.2597865    
     63900   315.70861     -21734.249      5231.3641      23.205651      1.2593091    
     64000   292.38761     -20328.491      5233.3464      23.214444      1.2588321    
     64100   305.53731     -20298.743      5235.3288      23.223237      1.2583555    
     64200   294.1884      -12736.041      5237.3111      23.232031      1.2578792    
     64300   304.12324     -20265.303      5239.2934      23.240824      1.2574033    
     64400   289.2575      -10917.321      5241.2757      23.249617      1.2569277    
     64500   295.81705     -23742.82       5243.2581      23.258411      1.2564525    
     64600   324.47363     -16918.873      5245.2404      23.267204      1.2559776    
     64700   321.95409     -19033.431      5247.2227      23.275997      1.2555031    
     64800   294.88715     -21659.089      5249.2051      23.284791      1.255029     
     64900   305.25948     -15091.735      5251.1874      23.293584      1.2545552    
     65000   298.30775     -21686.767      5253.1697      23.302377      1.2540818    
     65100   301.89903     -27749.714      5255.152       23.311171      1.2536088    
     65200   318.133       -22726.97       5257.1344      23.319964      1.2531361    
     65300   321.44341     -26418.925      5259.1167      23.328758      1.2526637    
     65400   297.51193     -23733.982      5261.099       23.337551      1.2521917    
     65500   299.49126     -19975.12       5263.0814      23.346344      1.2517201    
     65600   289.85114     -8438.5579      5265.0637      23.355138      1.2512488    
     65700   304.21173     -30811.809      5267.046       23.363931      1.2507779    
     65800   300.72263     -16848.983      5269.0283      23.372724      1.2503073    
     65900   312.93884     -23656.706      5271.0107      23.381518      1.2498371    
     66000   311.74634     -21688.192      5272.993       23.390311      1.2493672    
     66100   307.0601      -21776.986      5274.9753      23.399104      1.2488977    
     66200   305.05445     -19879.502      5276.9576      23.407898      1.2484286    
     66300   298.89941     -21027.859      5278.94        23.416691      1.2479598    
     66400   291.75068     -23653.298      5280.9223      23.425484      1.2474913    
     66500   318.92919     -13025.882      5282.9046      23.434278      1.2470232    
     66600   297.51211     -14945.113      5284.887       23.443071      1.2465555    
     66700   277.8077      -22288.066      5286.8693      23.451864      1.2460881    
     66800   288.96565     -21348.145      5288.8516      23.460658      1.245621     
     66900   304.39568     -20012.132      5290.8339      23.469451      1.2451543    
     67000   294.3814      -15228.732      5292.8163      23.478244      1.244688     
     67100   280.7594      -8156.0915      5294.7986      23.487038      1.244222     
     67200   302.46613     -24935.578      5296.7809      23.495831      1.2437563    
     67300   311.44555     -27509.297      5298.7633      23.504625      1.243291     
     67400   281.97572     -20089.867      5300.7456      23.513418      1.242826     
     67500   290.53244     -21325.426      5302.7279      23.522211      1.2423614    
     67600   310.08545     -20246.176      5304.7102      23.531005      1.2418972    
     67700   306.69218     -26520.194      5306.6926      23.539798      1.2414333    
     67800   316.63291     -17989.267      5308.6749      23.548591      1.2409697    
     67900   307.36976     -19438.466      5310.6572      23.557385      1.2405065    
     68000   322.6507      -21664.75       5312.6396      23.566178      1.2400436    
     68100   297.84972     -14294.615      5314.6219      23.574971      1.2395811    
     68200   290.85597     -27928.888      5316.6042      23.583765      1.2391189    
     68300   304.26978     -28318.087      5318.5865      23.592558      1.238657     
     68400   296.26989     -26476.513      5320.5689      23.601351      1.2381955    
     68500   298.92511     -21250.909      5322.5512      23.610145      1.2377344    
     68600   320.15461     -17826.399      5324.5335      23.618938      1.2372736    
     68700   299.45151     -29263.533      5326.5159      23.627731      1.2368131    
     68800   290.80743     -17933.549      5328.4982      23.636525      1.236353     
     68900   288.17765     -16731.572      5330.4805      23.645318      1.2358932    
     69000   260.74612     -22688.459      5332.4628      23.654111      1.2354338    
     69100   292.95243     -26162.517      5334.4452      23.662905      1.2349747    
     69200   295.28631     -16738.271      5336.4275      23.671698      1.2345159    
     69300   302.13394     -22492.368      5338.4098      23.680492      1.2340575    
     69400   294.86088     -26643.646      5340.3922      23.689285      1.2335994    
     69500   311.11648     -11871.271      5342.3745      23.698078      1.2331417    
     69600   274.62904     -14937.145      5344.3568      23.706872      1.2326843    
     69700   306.28819     -20215.38       5346.3391      23.715665      1.2322272    
     69800   307.20578     -16269.896      5348.3215      23.724458      1.2317705    
     69900   312.16202     -21346.961      5350.3038      23.733252      1.2313141    
     70000   321.52738     -25425.086      5352.2861      23.742045      1.2308581    
     70100   314.79227     -20550.098      5354.2684      23.750838      1.2304024    
     70200   303.84265     -14356.571      5356.2508      23.759632      1.229947     
     70300   285.81722     -26605.55       5358.2331      23.768425      1.229492     
     70400   298.0779      -19614.82       5360.2154      23.777218      1.2290373    
     70500   320.45883     -32839.888      5362.1978      23.786012      1.2285829    
     70600   304.40247     -26048.052      5364.1801      23.794805      1.2281289    
     70700   316.96599     -29140.429      5366.1624      23.803598      1.2276752    
     70800   285.6651      -25923.166      5368.1447      23.812392      1.2272219    
     70900   272.64407     -21534.208      5370.1271      23.821185      1.2267689    
     71000   295.70948     -29531.981      5372.1094      23.829978      1.2263162    
     71100   292.89445     -24119.854      5374.0917      23.838772      1.2258638    
     71200   297.6244      -22075.28       5376.0741      23.847565      1.2254118    
     71300   305.11811     -25824.547      5378.0564      23.856359      1.2249601    
     71400   285.51977     -16305.614      5380.0387      23.865152      1.2245088    
     71500   303.82257     -22967.564      5382.021       23.873945      1.2240578    
     71600   305.12422     -26021.735      5384.0034      23.882739      1.2236071    
     71700   298.71609     -22976.691      5385.9857      23.891532      1.2231567    
     71800   288.31323     -24726.614      5387.968       23.900325      1.2227067    
     71900   318.96366     -21812.413      5389.9504      23.909119      1.222257     
     72000   291.19116     -28263.827      5391.9327      23.917912      1.2218077    
     72100   286.63766     -21559.141      5393.915       23.926705      1.2213586    
     72200   292.4798      -26940.3        5395.8973      23.935499      1.2209099    
     72300   283.40926     -32893.731      5397.8797      23.944292      1.2204616    
     72400   323.84691     -22603.861      5399.862       23.953085      1.2200135    
     72500   307.29712     -29944.548      5401.8443      23.961879      1.2195658    
     72600   319.10706     -26425.437      5403.8267      23.970672      1.2191184    
     72700   296.93883     -23038.534      5405.809       23.979465      1.2186714    
     72800   298.63247     -22367.163      5407.7913      23.988259      1.2182246    
     72900   299.74984     -20540.902      5409.7736      23.997052      1.2177782    
     73000   325.3264      -32173.857      5411.756       24.005845      1.2173322    
     73100   314.79299     -31121.506      5413.7383      24.014639      1.2168864    
     73200   309.61952     -34227.462      5415.7206      24.023432      1.216441     
     73300   299.68079     -31167.409      5417.7029      24.032226      1.2159959    
     73400   286.65009     -23265.694      5419.6853      24.041019      1.2155511    
     73500   289.72543     -20956.751      5421.6676      24.049812      1.2151067    
     73600   311.20706     -19673.427      5423.6499      24.058606      1.2146626    
     73700   312.40842     -25751.374      5425.6323      24.067399      1.2142188    
     73800   295.31101     -22193.813      5427.6146      24.076192      1.2137753    
     73900   306.37414     -32314.449      5429.5969      24.084986      1.2133322    
     74000   285.92353     -27130.003      5431.5792      24.093779      1.2128894    
     74100   296.73171     -29579.471      5433.5616      24.102572      1.2124469    
     74200   303.22192     -28759.361      5435.5439      24.111366      1.2120047    
     74300   327.94505     -26400.651      5437.5262      24.120159      1.2115628    
     74400   291.90949     -17300.905      5439.5086      24.128952      1.2111213    
     74500   279.54497     -26220.993      5441.4909      24.137746      1.2106801    
     74600   299.99769     -32526.412      5443.4732      24.146539      1.2102392    
     74700   296.27204     -28617.386      5445.4555      24.155332      1.2097986    
     74800   324.20662     -19691.243      5447.4379      24.164126      1.2093584    
[...]
     98700   304.42984     -16765.488      5921.2143      26.265736      1.1125935    
     98800   302.93928     -14212.847      5923.1966      26.27453       1.1122212    
     98900   286.38304     -11500.529      5925.179       26.283323      1.1118491    
     99000   282.25033     -21488.924      5927.1613      26.292116      1.1114772    
     99100   299.73306     -22282.982      5929.1436      26.30091       1.1111056    
     99200   306.13554     -20410.932      5931.126       26.309703      1.1107342    
     99300   282.62787     -10822.698      5933.1083      26.318497      1.1103631    
     99400   299.1135      -16656.175      5935.0906      26.32729       1.1099923    
     99500   294.55742     -23215.758      5937.0729      26.336083      1.1096216    
     99600   310.70645     -26346.852      5939.0553      26.344877      1.1092513    
     99700   311.64227     -20955.112      5941.0376      26.35367       1.1088812    
     99800   307.25573     -21840.271      5943.0199      26.362463      1.1085113    
     99900   298.78449     -19502.285      5945.0022      26.371257      1.1081417    
    100000   292.85124     -15527.637      5946.9846      26.38005       1.1077723    
    100100   293.01035     -26482.447      5948.9669      26.388843      1.1074031    
    100200   305.73391     -18394.148      5950.9492      26.397637      1.1070343    
    100300   329.4288      -16429.27       5952.9316      26.40643       1.1066656    
    100400   308.90479     -14824.22       5954.9139      26.415223      1.1062972    
    100500   298.90312     -19035.436      5956.8962      26.424017      1.1059291    
    100600   287.29128     -26966.185      5958.8785      26.43281       1.1055612    
    100700   295.49998     -25937.841      5960.8609      26.441603      1.1051935    
    100800   300.807       -22137.118      5962.8432      26.450397      1.1048261    
    100900   295.17215     -19418.086      5964.8255      26.45919       1.1044589    
    101000   284.31584     -21130.035      5966.8079      26.467983      1.104092     
    101100   299.55119     -13989.166      5968.7902      26.476777      1.1037253    
    101200   288.82962     -18579.245      5970.7725      26.48557       1.1033588    
    101300   312.60484     -19308.899      5972.7548      26.494364      1.1029926    
    101400   304.65518     -19162.029      5974.7372      26.503157      1.1026267    
    101500   295.88014     -14063.05       5976.7195      26.51195       1.102261     
    101600   295.39603     -11356.419      5978.7018      26.520744      1.1018955    
    101700   303.03419     -23513.63       5980.6842      26.529537      1.1015303    
    101800   283.65239     -22196.429      5982.6665      26.53833       1.1011653    
    101900   301.91296     -11711.131      5984.6488      26.547124      1.1008005    
    102000   306.88996     -15004.024      5986.6311      26.555917      1.100436     
    102100   297.46015     -22510.864      5988.6135      26.56471       1.1000718    
    102200   299.80786     -19215.382      5990.5958      26.573504      1.0997078    
    102300   291.72023     -17712.844      5992.5781      26.582297      1.099344     
    102400   281.45759     -16698.496      5994.5605      26.59109       1.0989804    
    102500   311.25847     -17763.771      5996.5428      26.599884      1.0986171    
    102600   290.49739     -27477.681      5998.5251      26.608677      1.0982541    
    102700   313.05651     -18677.272      6000.5074      26.61747       1.0978913    
    102800   283.05613     -29664.585      6002.4898      26.626264      1.0975287    
    102900   292.40159     -26892.968      6004.4721      26.635057      1.0971663    
    103000   277.26503     -25499.577      6006.4544      26.64385       1.0968042    
    103100   303.23249     -23069.958      6008.4368      26.652644      1.0964424    
    103200   287.83071     -20831.982      6010.4191      26.661437      1.0960807    
    103300   303.01267     -20719.754      6012.4014      26.670231      1.0957194    
    103400   294.31379     -23281.084      6014.3837      26.679024      1.0953582    
    103500   307.43875     -26125.122      6016.3661      26.687817      1.0949973    
    103600   304.39263     -19197.721      6018.3484      26.696611      1.0946366    
    103700   292.38456     -19933.46       6020.3307      26.705404      1.0942762    
    103800   279.59945     -17132.691      6022.313       26.714197      1.093916     
    103900   300.88878     -21227.576      6024.2954      26.722991      1.093556     
    104000   305.42417     -23556.322      6026.2777      26.731784      1.0931963    
    104100   302.52842     -26721.041      6028.26        26.740577      1.0928368    
    104200   304.50857     -23114.471      6030.2424      26.749371      1.0924776    
    104300   306.00365     -16924.033      6032.2247      26.758164      1.0921186    
    104400   298.68898     -22059.659      6034.207       26.766957      1.0917598    
    104500   307.20372     -18624.851      6036.1893      26.775751      1.0914013    
    104600   309.76874     -23907.01       6038.1717      26.784544      1.091043     
    104700   289.54848     -19129.462      6040.154       26.793337      1.0906849    
    104800   283.25746     -16319.063      6042.1363      26.802131      1.090327     
    104900   296.73971     -22342.02       6044.1187      26.810924      1.0899694    
    105000   295.97148     -25327.63       6046.101       26.819717      1.0896121    
    105100   302.18309     -34022.494      6048.0833      26.828511      1.0892549    
    105200   303.40129     -28821.963      6050.0656      26.837304      1.088898     
    105300   309.27948     -17776.339      6052.048       26.846098      1.0885414    
    105400   274.72801     -25103.325      6054.0303      26.854891      1.0881849    
    105500   307.0076      -21098.366      6056.0126      26.863684      1.0878288    
    105600   273.10353     -14307.843      6057.995       26.872478      1.0874728    
    105700   288.64038     -18304.941      6059.9773      26.881271      1.0871171    
    105800   315.99858     -18688.717      6061.9596      26.890064      1.0867616    
    105900   300.97611     -18577.25       6063.9419      26.898858      1.0864063    
    106000   290.85074     -28286.973      6065.9243      26.907651      1.0860513    
    106100   296.86063     -23332.785      6067.9066      26.916444      1.0856964    
    106200   311.07864     -21694.035      6069.8889      26.925238      1.0853419    
    106300   315.88459     -14434.131      6071.8713      26.934031      1.0849875    
    106400   274.61034     -24919.45       6073.8536      26.942824      1.0846334    
    106500   297.56812     -20796.836      6075.8359      26.951618      1.0842796    
    106600   290.69069     -12427.597      6077.8182      26.960411      1.0839259    
    106700   291.73776     -8303.798       6079.8006      26.969204      1.0835725    
    106800   298.22719     -12876.698      6081.7829      26.977998      1.0832193    
    106900   287.30264     -23564.373      6083.7652      26.986791      1.0828664    
    107000   324.27463     -20610.623      6085.7476      26.995584      1.0825136    
    107100   281.63154     -15794.691      6087.7299      27.004378      1.0821611    
    107200   290.32316     -20724.315      6089.7122      27.013171      1.0818089    
    107300   288.65574     -24677.761      6091.6945      27.021965      1.0814568    
    107400   288.44697     -26265.821      6093.6769      27.030758      1.081105     
    107500   300.77205     -20834.617      6095.6592      27.039551      1.0807534    
    107600   302.16664     -16751.268      6097.6415      27.048345      1.0804021    
    107700   299.53189     -25506.78       6099.6238      27.057138      1.080051     
    107800   335.42531     -20043.538      6101.6062      27.065931      1.0797001    
    107900   324.01946     -16601.471      6103.5885      27.074725      1.0793494    
    108000   316.58763     -19453.297      6105.5708      27.083518      1.078999     
    108100   302.41907     -23318.338      6107.5532      27.092311      1.0786488    
    108200   295.63486     -15645.15       6109.5355      27.101105      1.0782988    
    108300   305.05471     -12688.789      6111.5178      27.109898      1.077949     
    108400   327.60409     -29617.51       6113.5001      27.118691      1.0775995    
    108500   322.59156     -23887.635      6115.4825      27.127485      1.0772502    
    108600   301.52616     -27180.458      6117.4648      27.136278      1.0769011    
    108700   295.46534     -22384.253      6119.4471      27.145071      1.0765523    
    108800   294.39086     -16296.98       6121.4295      27.153865      1.0762036    
    108900   315.29058     -19227.582      6123.4118      27.162658      1.0758552    
    109000   308.93011     -20628.326      6125.3941      27.171451      1.0755071    
    109100   330.92394     -25920.148      6127.3764      27.180245      1.0751591    
    109200   299.72131     -21014.175      6129.3588      27.189038      1.0748114    
    109300   308.3528      -24060.812      6131.3411      27.197832      1.0744639    
    109400   294.70319     -26846.211      6133.3234      27.206625      1.0741166    
    109500   306.83002     -25347.677      6135.3058      27.215418      1.0737696    
    109600   287.50976     -19129.069      6137.2881      27.224212      1.0734227    
    109700   282.0647      -22792.808      6139.2704      27.233005      1.0730761    
    109800   286.91082     -4395.9935      6141.2527      27.241798      1.0727298    
    109900   329.36719     -11682.731      6143.2351      27.250592      1.0723836    
    110000   308.75714     -15389.207      6145.2174      27.259385      1.0720377    
    110100   296.66496     -15529.493      6147.1997      27.268178      1.071692     
    110200   297.39991     -16527.904      6149.1821      27.276972      1.0713465    
    110300   273.9165      -15337.17       6151.1644      27.285765      1.0710012    
    110400   289.29063     -24965.969      6153.1467      27.294558      1.0706562    
    110500   326.96021     -23536.652      6155.129       27.303352      1.0703114    
    110600   319.33516     -14785.174      6157.1114      27.312145      1.0699668    
    110700   302.19052     -16050.997      6159.0937      27.320938      1.0696224    
    110800   302.85551     -24242.526      6161.076       27.329732      1.0692783    
    110900   300.24131     -24794.114      6163.0583      27.338525      1.0689343    
    111000   301.39187     -16160.582      6165.0407      27.347319      1.0685906    
    111100   291.50518     -12775.558      6167.023       27.356112      1.0682471    
    111200   289.20043     -18279.172      6169.0053      27.364905      1.0679039    
    111300   301.43946     -16003.155      6170.9877      27.373699      1.0675608    
    111400   308.09462     -17931.962      6172.97        27.382492      1.067218     
    111500   308.33616     -22179.224      6174.9523      27.391285      1.0668754    
    111600   289.4778      -20281.05       6176.9346      27.400079      1.066533     
    111700   292.16714     -17383.962      6178.917       27.408872      1.0661908    
    111800   289.55867     -15680.85       6180.8993      27.417665      1.0658489    
    111900   279.02606     -19792.642      6182.8816      27.426459      1.0655072    
    112000   312.24536     -19650.545      6184.864       27.435252      1.0651657    
    112100   288.64095     -14590.682      6186.8463      27.444045      1.0648244    
    112200   302.09194     -21690.121      6188.8286      27.452839      1.0644833    
    112300   285.55599     -16185.852      6190.8109      27.461632      1.0641424    
    112400   301.71939     -21320.482      6192.7933      27.470425      1.0638018    
    112500   331.20521     -18432.176      6194.7756      27.479219      1.0634614    
    112600   317.56673     -16156.457      6196.7579      27.488012      1.0631212    
    112700   288.51561     -14339.483      6198.7403      27.496805      1.0627812    
    112800   286.80338     -13315.975      6200.7226      27.505599      1.0624414    
    112900   275.16768     -19875.14       6202.7049      27.514392      1.0621019    
    113000   316.2074      -19646.347      6204.6872      27.523185      1.0617626    
    113100   306.75943     -21441.615      6206.6696      27.531979      1.0614235    
    113200   287.97081     -21489.73       6208.6519      27.540772      1.0610846    
    113300   294.77598     -17058.808      6210.6342      27.549566      1.0607459    
    113400   309.58258     -18964.08       6212.6166      27.558359      1.0604074    
    113500   292.95947     -10966.941      6214.5989      27.567152      1.0600692    
    113600   308.31903     -15632.11       6216.5812      27.575946      1.0597311    
    113700   308.01773     -18186.95       6218.5635      27.584739      1.0593933    
    113800   294.24425     -16356.757      6220.5459      27.593532      1.0590557    
    113900   294.97987     -19574.39       6222.5282      27.602326      1.0587183    
    114000   293.8098      -16094.866      6224.5105      27.611119      1.0583812    
    114100   280.85809     -25690.144      6226.4929      27.619912      1.0580442    
    114200   302.1475      -12283.166      6228.4752      27.628706      1.0577075    
    114300   321.94976     -7838.6993      6230.4575      27.637499      1.0573709    
    114400   321.11617     -12956.193      6232.4398      27.646292      1.0570346    
    114500   282.72835     -27408.814      6234.4222      27.655086      1.0566985    
    114600   315.04833     -19598.875      6236.4045      27.663879      1.0563626    
    114700   298.19605     -16264.332      6238.3868      27.672672      1.056027     
    114800   297.75375     -18160.258      6240.3691      27.681466      1.0556915    
    114900   293.20568     -5871.3208      6242.3515      27.690259      1.0553563    
    115000   311.78459     -19386.181      6244.3338      27.699053      1.0550212    
    115100   291.6939      -17732.649      6246.3161      27.707846      1.0546864    
    115200   292.18593     -15820.416      6248.2985      27.716639      1.0543518    
    115300   287.94551     -13975.833      6250.2808      27.725433      1.0540174    
    115400   296.11641     -6350.5697      6252.2631      27.734226      1.0536832    
    115500   307.34921     -5680.6996      6254.2454      27.743019      1.0533492    
    115600   313.35435     -10704.263      6256.2278      27.751813      1.0530155    
    115700   297.1322      -13011.725      6258.2101      27.760606      1.0526819    
    115800   316.79281     -22381.276      6260.1924      27.769399      1.0523486    
    115900   298.52903     -25365.098      6262.1748      27.778193      1.0520155    
    116000   287.04459     -19263.199      6264.1571      27.786986      1.0516825    
    116100   311.29212     -13809.646      6266.1394      27.795779      1.0513498    
    116200   333.17528     -3945.1824      6268.1217      27.804573      1.0510173    
    116300   325.26108     -10878.536      6270.1041      27.813366      1.0506851    
    116400   281.32546     -7370.352       6272.0864      27.822159      1.050353     
    116500   283.94758     -18041.814      6274.0687      27.830953      1.0500211    
    116600   304.73612     -2799.1482      6276.0511      27.839746      1.0496895    
    116700   295.60765     -4317.0633      6278.0334      27.848539      1.049358     
    116800   296.29716     -11660.833      6280.0157      27.857333      1.0490268    
    116900   299.51455     -6632.1109      6281.998       27.866126      1.0486958    
    117000   296.10917      7209.4203      6283.9804      27.874919      1.0483649    
    117100   313.66852     -1620.3584      6285.9627      27.883713      1.0480343    
    117200   288.38652     -199.46611      6287.945       27.892506      1.0477039    
    117300   290.62592     -2014.5112      6289.9274      27.9013        1.0473737    
    117400   306.05804     -3218.2434      6291.9097      27.910093      1.0470437    
    117500   311.56304     -5686.0047      6293.892       27.918886      1.046714     
    117600   300.30919     -1872.7658      6295.8743      27.92768       1.0463844    
    117700   293.88529      2002.9507      6297.8567      27.936473      1.046055     
    117800   316.92366      83.240079      6299.839       27.945266      1.0457259    
    117900   300.00626     -1052.2683      6301.8213      27.95406       1.0453969    
    118000   302.2708       7954.2507      6303.8037      27.962853      1.0450682    
    118100   291.6034      -7858.4181      6305.786       27.971646      1.0447397    
    118200   294.96185      26.573073      6307.7683      27.98044       1.0444113    
    118300   312.32976     -1828.5761      6309.7506      27.989233      1.0440832    
    118400   320.25712     -1427.6924      6311.733       27.998026      1.0437553    
    118500   311.79957      3656.3837      6313.7153      28.00682       1.0434276    
    118600   277.49755      3772.7626      6315.6976      28.015613      1.0431001    
    118700   289.58969     -4598.9075      6317.6799      28.024406      1.0427728    
    118800   305.43451      5856.8112      6319.6623      28.0332        1.0424457    
    118900   307.17063      12926.56       6321.6446      28.041993      1.0421188    
    119000   296.62923     -1271.8974      6323.6269      28.050787      1.0417921    
    119100   311.24893      1276.0896      6325.6093      28.05958       1.0414656    
    119200   298.96944     -1797.0975      6327.5916      28.068373      1.0411394    
    119300   302.65154      12644.745      6329.5739      28.077167      1.0408133    
    119400   283.266        3817.0111      6331.5562      28.08596       1.0404874    
    119500   288.4544      -4109.5123      6333.5386      28.094753      1.0401618    
    119600   310.3521      -1780.3553      6335.5209      28.103547      1.0398363    
    119700   336.6583       2401.4502      6337.5032      28.11234       1.0395111    
    119800   326.56334     -502.49134      6339.4856      28.121133      1.039186     
    119900   290.11728     -6560.5684      6341.4679      28.129927      1.0388612    
    120000   301.94398      5368.354       6343.4502      28.13872       1.0385365    
Loop time of 4465.08 on 8 procs for 120000 steps with 362 atoms

Performance: 1.161 ns/day, 20.672 hours/ns, 26.875 timesteps/s, 9.729 katom-step/s
98.7% CPU use with 8 MPI tasks x 1 OpenMP threads

MPI task timing breakdown:
Section |  min time  |  avg time  |  max time  |%varavg| %total
---------------------------------------------------------------
Pair    | 2788.4     | 3358.3     | 3777.6     | 615.3 | 75.21
Bond    | 0.3146     | 0.3436     | 0.37705    |   4.3 |  0.01
Neigh   | 201.15     | 227.92     | 242.64     |  97.2 |  5.10
Comm    | 50.478     | 470.36     | 1040.2     |1644.9 | 10.53
Output  | 0.62628    | 0.68755    | 0.75816    |   5.0 |  0.02
Modify  | 389.9      | 404.55     | 431.62     |  73.3 |  9.06
Other   |            | 2.948      |            |       |  0.07

Nlocal:          45.25 ave          52 max          32 min
Histogram: 1 0 0 0 1 1 0 1 2 2
Nghost:        2450.25 ave        2493 max        2370 min
Histogram: 1 0 0 0 1 1 0 2 1 2
Neighs:        19186.6 ave       20558 max       15260 min
Histogram: 1 0 0 0 0 0 1 1 2 3

Total # of neighbors = 153493
Ave neighs/atom = 424.01381
Ave special neighs/atom = 0
Neighbor list builds = 12000
Dangerous builds not checked
unfix deform_p
unfix data
undump dump_pos${dir}
undump dump_pos3

# Delete dir to make sure it is not reused
variable dir delete



Total wall time: 1:14:25
