ITEM: TIMESTEP
0
ITEM: NUMBER OF ATOMS
366
ITEM: BOX BOUNDS xy xz yz pp pp pp
-7.5839999999999996e+00 1.5901800000000000e+01 -7.5839999999999996e+00
0.0000000000000000e+00 1.4340199999999999e+01 1.7780000000000001e-01
0.0000000000000000e+00 1.7246500000000001e+01 4.3709999999999999e-01
ITEM: ATOMS id type x y z q
9 4 0.0834438 4.09622 1.63373 1.55713
11 4 0.0362385 4.95573 7.15061 0.922896
69 1 -1.64207 5.37277 6.19349 -0.663863
98 3 -0.272365 1.6237 4.83569 -0.794915
102 3 -0.786999 3.30904 2.76972 -0.840431
104 3 -0.873685 4.81028 0.509578 -0.817037
210 2 -1.48874 6.71774 2.41414 0.170317
215 2 -1.44181 5.18447 5.09773 0.198303
216 2 -1.87835 6.45217 6.4224 0.141192
241 2 -0.109575 6.5274 4.9223 0.169725
5 4 1.00354 2.16744 5.69096 1.32657
19 4 7.79166 0.108942 1.97439 1.60743
23 4 7.06537 2.25551 5.97912 1.36176
27 4 1.57078 6.76772 2.97625 1.17538
29 4 5.20421 3.96564 7.89585 1.17909
64 1 2.23442 2.67359 4.32611 -0.674885
70 1 1.33328 6.42132 6.89102 -0.671684
76 1 5.48073 1.84005 5.00574 -0.686382
77 1 3.22688 6.28647 3.87015 -0.685211
79 1 3.84007 4.73347 6.70605 -0.667693
99 3 1.76156 1.11778 6.73656 -0.794954
103 3 1.12207 3.10802 0.938591 -0.843112
105 3 0.592483 3.62 6.47929 -0.780944
115 3 6.9368 1.17478 1.06299 -0.847634
118 3 7.44594 0.931102 6.76468 -0.844089
124 3 0.912604 5.4374 2.34087 -0.804408
125 3 4.50869 2.67606 8.48635 -0.826508
126 3 6.54165 3.64235 7.09245 -0.754494
199 2 2.1716 1.80294 3.5954 0.200393
200 2 3.23965 2.75907 4.83156 0.162101
201 2 1.86998 3.64627 3.87688 0.198117
218 2 1.9178 6.20897 5.9403 0.173941
219 2 1.96371 6.33351 7.82955 0.147308
235 2 4.73592 1.44169 5.76559 0.230178
236 2 5.79659 1.05112 4.25296 0.213502
237 2 5.14076 2.80302 4.51328 0.14577
238 2 3.91839 6.1206 2.9763 0.194254
239 2 3.02751 5.34048 4.44908 0.1582
244 2 2.84534 4.38179 7.12629 0.205254
245 2 4.0609 4.26733 5.70093 0.16017
246 2 3.94066 5.8718 6.71159 0.156576
286 2 7.65232 6.41644 8.04919 0.168723
287 2 7.58039 6.71755 6.19907 0.162141
303 4 5.50102 4.73096 1.13826 1.36235
304 4 6.96226 6.52636 3.44113 0.946963
305 1 4.52478 3.46933 2.20821 -0.683805
308 1 6.08218 5.43621 4.80875 -0.655917
309 3 6.26581 3.69124 0.207001 -0.816658
310 3 4.3643 5.72776 0.612674 -0.822316
311 3 6.56574 5.73687 2.1535 -0.756816
312 2 5.27342 2.69597 2.54 0.185055
313 2 3.72829 3.05677 1.51292 0.220319
314 2 4.0686 4.06096 3.07191 0.15943
321 2 5.55337 4.60567 4.24966 0.170432
322 2 5.37369 6.10911 5.37658 0.167483
323 2 6.94907 5.06088 5.43239 0.220647
325 2 3.76258 0.658977 3.04841 0.18177
326 2 4.2648 0.643275 1.22767 0.211353
355 3 1.6059 0.563492 0.568976 -0.825162
94 1 7.21866 7.04215 7.22139 -0.670872
214 2 13.3124 4.65457 6.60969 0.209999
363 2 15.3181 0.792009 8.05922 0.189744
2 4 14.294 2.11416 3.70953 1.58837
42 4 9.25017 2.19831 3.80772 1.61541
46 4 11.8995 2.04057 5.52859 1.56525
50 4 10.4634 4.28024 1.72039 1.41644
52 4 10.6245 4.07815 7.7193 1.16451
89 1 11.658 5.23611 2.89314 -0.676116
90 1 9.8526 5.32336 6.41989 -0.675928
149 3 13.7611 0.892358 2.78336 -0.836662
150 3 8.63604 0.907445 3.0786 -0.846925
151 3 8.11655 2.7943 4.90218 -0.841565
153 3 11.8184 0.736838 1.00881 -0.833302
156 3 13.0608 2.7237 4.60636 -0.847881
157 3 10.5749 1.897 4.65782 -0.847338
158 3 12.3624 0.598151 6.16989 -0.82645
165 3 9.56396 3.38937 2.72185 -0.840768
166 3 11.4199 3.35978 0.815685 -0.834115
168 3 9.68187 5.43539 0.833335 -0.808211
170 3 11.6205 3.13386 6.89066 -0.814356
273 2 11.3751 6.3309 2.83906 0.153489
274 2 11.5266 4.78615 3.92338 0.193102
275 2 10.6972 5.6389 5.73467 0.151269
276 2 9.40501 6.19443 6.99264 0.160084
277 2 9.07486 4.68853 5.8952 0.216184
306 1 8.92361 6.55122 3.75566 -0.66847
316 2 9.22257 5.4764 3.87854 0.21241
344 1 14.3037 1.25243 7.92326 -0.670881
345 2 14.2496 1.97513 7.05851 0.220204
364 2 12.6695 5.01044 2.44065 0.214546
315 2 9.34908 7.04173 2.83273 0.180592
4 4 -4.97141 13.9215 7.7031 1.34315
324 1 -3.72896 13.9523 2.10135 -0.678984
1 4 -5.48463 13.3741 1.6368 1.32995
13 4 -6.24637 11.807 4.25094 1.34888
14 4 -2.17821 9.753 7.66442 1.16208
15 4 -3.47655 12.0257 5.87452 1.52703
34 4 -0.981527 11.9512 3.95208 1.39277
67 1 -1.8675 7.28231 1.50801 -0.676447
71 1 -2.95769 8.07582 8.20504 -0.662508
72 1 -0.657818 9.26616 6.55364 -0.677838
84 1 -1.49351 10.2267 3.19442 -0.686691
85 1 -0.113431 10.6295 0.28417 -0.675313
107 3 -6.27084 13.1287 2.98073 -0.754407
108 3 -5.18688 11.7173 0.986553 -0.795035
109 3 -4.87589 11.8813 5.05366 -0.8499
110 3 -3.22237 10.6291 6.79269 -0.821622
111 3 -3.68326 13.3395 6.87052 -0.783351
134 3 -0.828509 12.9814 2.71977 -0.846869
135 3 -2.24122 12.2823 4.87552 -0.841384
139 3 -0.490847 12.8365 8.55836 -0.848313
208 2 -2.99911 7.27475 1.41173 0.1772
209 2 -1.41401 8.31568 1.3967 0.180637
221 2 -2.03902 7.45643 8.45198 0.14713
222 2 -3.48968 7.68341 7.28463 0.151188
223 2 -1.07499 8.41511 5.92688 0.14934
224 2 0.177363 8.94405 7.27077 0.183993
225 2 -0.326396 10.154 5.91318 0.252886
242 2 -0.581622 7.82488 3.65346 0.166812
259 2 -0.540378 9.70684 2.8836 0.177291
260 2 -2.2286 10.4038 2.3583 0.155054
261 2 -1.97927 9.72997 4.10188 0.161959
262 2 -0.631694 10.5242 1.36687 0.17325
327 1 -6.1378 12.4393 7.9881 -0.691698
328 2 -5.46849 11.6149 8.39269 0.169019
337 1 -3.59884 9.39553 0.322068 -0.685854
338 2 -3.77826 9.31529 1.43397 0.155504
339 2 -2.5145 9.58681 0.0607884 0.153752
358 2 -3.14918 12.9968 2.268 0.215487
360 2 -5.18863 9.95278 3.04963 0.173297
41 4 5.35952 13.7777 1.80556 1.65147
21 4 0.570122 13.7878 7.78271 1.66131
33 4 3.18904 9.3305 1.88509 1.55828
35 4 1.55356 11.6141 0.352908 1.44117
36 4 2.94282 9.68405 7.56914 1.18612
38 4 1.77385 11.7948 5.68889 1.5925
44 4 5.5118 13.7179 7.3659 1.41255
56 4 4.23139 11.5094 3.81793 1.63016
58 4 7.86947 8.88998 7.41269 0.921214
60 4 6.74237 11.3956 5.78264 1.56559
78 1 0.255348 7.38634 4.27394 -0.665305
87 1 4.0306 8.19359 6.85557 -0.683062
132 3 1.98238 8.11401 2.24279 -0.796181
133 3 4.35874 8.53648 1.04883 -0.835046
136 3 2.41722 10.5129 1.12135 -0.849982
137 3 1.15175 13.0098 1.08461 -0.817842
141 3 0.360175 11.6767 4.83267 -0.852418
142 3 2.04016 10.2544 6.38509 -0.822439
143 3 1.60456 12.8666 6.90117 -0.842487
178 3 3.80793 10.0095 3.21193 -0.84704
179 3 4.67923 12.5743 2.66083 -0.843906
180 3 2.99265 12.1057 4.68574 -0.828531
182 3 3.85138 10.7346 8.34305 -0.822988
186 3 5.52552 11.2902 4.76004 -0.852272
187 3 7.1041 9.81978 6.38134 -0.800335
188 3 6.44515 12.4559 6.97754 -0.845835
217 2 0.739124 7.39741 6.83164 0.158384
240 2 3.55426 7.15574 4.52124 0.155004
243 2 0.80245 8.18229 4.86917 0.195111
267 2 4.29819 7.56715 7.75046 0.129983
268 2 4.9186 8.72782 6.39858 0.212064
269 2 3.40788 7.64109 6.08713 0.161816
288 2 6.09032 7.12985 7.27351 0.163126
307 1 6.31524 8.38429 3.46463 -0.657431
318 2 6.53352 9.04034 2.50057 0.200951
319 2 6.71224 8.86393 4.41396 0.210176
320 2 5.20674 8.14001 3.55714 0.208444
351 1 6.81247 10.288 0.876269 -0.688073
352 2 7.89526 10.4622 1.16895 0.183722
353 2 6.64163 9.35275 0.260588 0.222661
354 2 6.06641 10.4324 1.72139 0.208239
357 3 6.34738 13.0603 0.677053 -0.816823
95 1 9.81319 8.79275 7.02617 -0.670271
185 3 8.13721 11.8316 5.09281 -0.836975
289 2 9.9055 8.2416 6.05144 0.153497
290 2 10.2685 8.22491 7.88731 0.141608
317 2 9.08956 7.1617 4.69738 0.140657
329 2 9.12667 12.1802 6.98509 0.238385
366 2 10.1961 9.85131 6.95493 0.20702
334 1 9.51295 10.0421 3.52658 -0.668668
335 2 8.67301 9.96975 2.77926 0.170452
336 2 9.3793 9.34078 4.41171 0.168806
347 1 9.03292 8.1998 0.726286 -0.678072
349 2 9.91645 8.3197 1.4196 0.161842
350 2 8.05461 8.0286 1.26807 0.17856
10 4 -1.09688 6.73973 17.2253 1.33273
65 1 -0.134391 2.15002 11.1544 -0.676034
68 1 -0.261879 4.75304 9.06896 -0.669876
100 3 0.232374 2.34381 15.9975 -0.814667
106 3 -2.31164 6.7834 16.1759 -0.831904
202 2 -0.0865365 1.66761 10.1318 0.177719
203 2 -0.538203 3.20298 11.1172 0.156707
211 2 -1.07404 3.9668 9.13151 0.166702
212 2 -0.583042 5.75912 9.47533 0.14447
226 2 -0.76252 7.00548 13.0649 0.161457
331 1 -1.30681 3.85155 14.1458 -0.676474
332 2 -0.447598 3.72803 13.4112 0.154694
333 2 -1.17018 4.73775 14.8403 0.210642
3 4 1.53501 2.42931 17.0431 1.5862
8 4 1.72576 2.31817 11.7369 1.17442
20 4 6.77279 2.56193 17.0098 1.60924
22 4 3.94479 1.85034 9.76237 1.52537
25 4 4.19364 2.48876 15.3509 1.58925
26 4 6.4592 2.3925 11.5449 1.61365
30 4 5.49326 4.83471 13.4851 1.5885
32 4 3.84716 7.16135 12.012 1.17704
54 4 6.85492 7.26766 15.189 1.65741
66 1 1.85133 3.7324 13.1085 -0.683441
80 1 5.47345 5.19024 9.4104 -0.679101
81 1 1.68454 5.97244 14.8629 -0.672157
82 1 2.11095 6.65991 11.3149 -0.67696
101 3 2.14526 0.904102 12.36 -0.82134
116 3 3.13388 0.500253 9.19818 -0.801939
117 3 2.58804 2.84929 10.4944 -0.776583
119 3 3.7153 1.23881 14.4123 -0.842425
120 3 5.43596 1.96582 16.2735 -0.86217
121 3 2.89147 2.84944 16.2444 -0.8543
122 3 5.07475 1.81672 10.9147 -0.833523
123 3 7.09793 1.24391 12.4909 -0.84077
127 3 4.68432 3.84207 14.4926 -0.845581
128 3 6.24758 3.83974 12.4407 -0.837289
131 3 4.48041 5.79721 12.6184 -0.832678
155 3 7.47391 2.70856 10.316 -0.859192
162 3 8.05616 2.57432 16.0693 -0.855099
174 3 6.40232 5.95469 14.2632 -0.814576
205 2 2.92751 4.05717 13.1134 0.24424
206 2 1.52197 3.30116 14.0905 0.214259
207 2 1.17193 4.56015 12.7345 0.148965
213 2 0.73013 4.40099 9.48775 0.190392
247 2 5.71301 6.20192 8.96774 0.153732
248 2 6.33586 4.74651 9.98735 0.233898
249 2 4.50716 5.18431 10.0007 0.181348
250 2 1.73272 5.22895 15.7186 0.221588
251 2 2.63093 5.96944 14.2454 0.217676
252 2 0.751469 5.85724 14.2441 0.149562
253 2 2.28654 5.78163 10.6265 0.16757
255 2 1.49961 6.37797 12.2273 0.166603
283 2 7.42454 5.7728 11.2475 0.211134
285 2 7.75549 6.96623 9.82072 0.151312
204 2 15.0635 1.50447 11.9159 0.198589
7 4 14.4187 2.33325 15.3186 1.41713
12 4 12.1097 6.92278 15.1867 1.54947
24 4 8.16995 0.346101 13.2793 1.47771
43 4 11.8711 2.43104 17.2127 1.66292
45 4 8.89408 2.20371 9.71073 1.61218
47 4 12.7062 0.351428 13.5622 1.63652
48 4 9.39613 2.53299 15.2018 1.68467
49 4 11.2702 2.57094 11.7351 1.41887
51 4 9.4987 7.02261 16.959 1.42165
53 4 10.5245 4.95788 13.553 1.55044
88 1 12.6818 2.56768 10.3856 -0.682843
91 1 11.6487 5.17702 8.96099 -0.677796
93 1 8.20481 6.26726 10.5862 -0.678498
152 3 13.2583 2.59608 16.3792 -0.837853
154 3 8.84121 0.788936 8.93071 -0.837051
159 3 13.9734 1.07657 14.3756 -0.830897
160 3 9.13606 1.32004 14.1293 -0.821009
161 3 10.6517 2.23235 16.1716 -0.849447
163 3 9.96847 2.11032 10.9272 -0.837882
164 3 11.9206 1.54722 12.7831 -0.847412
169 3 9.51579 3.36818 8.62497 -0.804922
171 3 9.64623 3.94292 14.4397 -0.853054
172 3 11.137 4.14436 12.224 -0.848518
173 3 11.822 5.52915 14.3959 -0.834288
175 3 8.14707 6.86778 16.1009 -0.814697
177 3 9.6269 6.31925 12.9844 -0.8002
270 2 12.1419 2.54859 9.39091 0.20184
271 2 13.2526 1.61146 10.6068 0.195932
272 2 13.2668 3.51551 10.5693 0.165213
278 2 11.2032 6.20601 8.78615 0.151838
279 2 12.7305 5.11088 8.64971 0.167071
280 2 11.4659 4.79376 10.0109 0.202821
282 2 11.5436 6.96049 10.8408 0.173143
284 2 8.91496 5.51418 10.1288 0.190191
346 2 13.8137 1.70952 8.90413 0.177472
359 2 13.4064 3.85737 13.641 0.228857
6 4 -4.67271 13.9918 13.5556 1.58347
16 4 -2.15307 9.08484 13.4016 1.18087
18 4 -3.17959 11.7938 11.82 1.37039
37 4 -0.914473 11.7901 9.72003 1.59138
73 1 -1.07069 7.83322 12.3578 -0.660897
74 1 -1.14417 9.95652 14.8193 -0.659489
75 1 -4.73475 11.3008 10.808 -0.680544
112 3 -3.25271 8.15846 14.0959 -0.80015
113 3 -2.68328 10.305 12.5052 -0.799007
114 3 -3.6416 12.8689 12.964 -0.82844
138 3 -1.55746 10.4423 8.95729 -0.818433
140 3 -2.07978 12.3577 10.7561 -0.791866
220 2 -3.65686 8.1415 9.12749 0.174308
227 2 -0.193459 8.427 11.9707 0.196991
228 2 -1.7529 7.4664 11.5333 0.171509
229 2 -1.86394 10.7009 15.2823 0.156477
230 2 -0.274013 10.4591 14.3001 0.212246
231 2 -0.804299 9.14903 15.5415 0.233463
232 2 -5.41711 10.7458 11.5236 0.207104
233 2 -4.35076 10.6476 9.96511 0.17266
234 2 -5.16665 12.2858 10.4473 0.210969
297 4 -4.37345 11.4402 16.9845 1.16316
298 1 -3.0852 12.7839 16.3406 -0.685194
299 3 -5.43482 11.0608 15.8449 -0.792751
300 2 -2.78224 12.4822 15.3004 0.194299
301 2 -2.22337 12.7991 17.0684 0.166694
302 2 -3.65693 13.7604 16.3473 0.233477
340 1 -0.408358 13.2497 14.5877 -0.690119
341 2 -0.825175 14.0109 15.3149 0.222209
343 2 -1.21062 12.7136 13.9938 0.198514
356 3 -5.83883 13.2306 14.383 -0.840525
361 2 -3.87635 8.96561 16.9894 0.242568
362 2 -0.556094 11.6561 16.8003 0.154629
365 2 -4.31785 8.61922 11.7262 0.22501
130 3 0.269238 7.63931 16.5848 -0.813261
146 3 0.35721 11.3239 10.5934 -0.858747
263 2 0.375044 10.0562 17.1235 0.215527
342 2 0.345808 12.5465 15.0564 0.206089
28 4 4.44139 7.70907 17.1632 1.58901
31 4 1.61454 7.72261 15.6688 1.37594
39 4 2.72043 9.6798 13.6008 1.57487
40 4 1.65141 11.7623 11.4514 1.63767
57 4 6.57726 12.2031 16.9343 1.43811
59 4 4.11131 11.9618 9.4581 1.59257
61 4 7.73172 9.66243 13.2592 1.57644
62 4 3.82533 12.0556 15.319 1.63503
63 4 6.19383 11.8798 11.7211 1.4135
83 1 5.01719 8.01259 10.6666 -0.677089
86 1 1.69626 9.03048 8.93296 -0.688055
96 1 7.48776 9.57118 9.20497 -0.649655
97 1 7.92631 12.4194 11.0169 -0.674919
129 3 3.01083 7.76613 16.4278 -0.845188
144 3 1.51172 8.93809 14.5368 -0.817947
145 3 3.55488 8.36566 12.9999 -0.806201
147 3 2.05778 10.4881 12.3789 -0.864434
148 3 1.25704 13.0559 12.3926 -0.834003
176 3 5.66556 7.75804 16.1382 -0.851967
181 3 7.80512 12.1641 15.8489 -0.817599
183 3 4.57686 13.3833 8.69438 -0.805917
184 3 2.83293 12.1063 10.4139 -0.847133
189 3 7.26708 8.5973 14.3698 -0.838215
192 3 3.63685 10.7121 14.4364 -0.840399
193 3 5.12303 11.8751 16.3119 -0.839425
194 3 4.14588 13.3859 14.48 -0.840288
195 3 2.34693 12.2488 16.1254 -0.832621
196 3 5.34415 11.4871 10.4049 -0.846693
197 3 6.4633 10.5246 12.6338 -0.798219
198 3 5.72456 13.2068 12.4933 -0.8598
254 2 1.67999 7.55574 10.7745 0.166806
256 2 4.57496 7.63968 9.70006 0.135795
257 2 6.05712 7.6211 10.8888 0.187296
258 2 4.9173 9.1381 10.8133 0.235912
264 2 1.4124 7.96944 8.67558 0.148174
265 2 0.809063 9.73464 8.92073 0.227638
266 2 2.27863 9.11028 9.90366 0.18323
291 2 7.26409 10.6685 9.00491 0.21582
293 2 6.56538 9.00084 9.74115 0.204484
294 2 7.67907 13.1601 10.1996 0.160533
167 3 10.8306 7.36281 16.098 -0.840958
17 4 9.14849 11.8687 14.8936 1.56615
55 4 9.239 7.3428 11.8305 1.18996
92 1 10.9411 7.90625 10.9787 -0.675582
190 3 8.43902 8.71719 12.0697 -0.821313
191 3 8.77725 10.8436 13.7097 -0.850698
281 2 10.6451 8.40621 10.0154 0.136324
292 2 8.47063 9.42135 9.74959 0.165666
295 2 8.41291 11.4768 10.6325 0.179053
296 2 8.48969 12.8874 11.878 0.223012
348 2 9.1482 9.45822 17.1937 0.216606
330 2 8.82062 12.7837 8.74377 0.170178
ITEM: TIMESTEP
100
ITEM: NUMBER OF ATOMS
366
ITEM: BOX BOUNDS xy xz yz pp pp pp
-7.6483617657079437e+00 1.5912403577359500e+01 -7.6506639282594238e+00
8.5175809217315823e-02 1.4222493073810435e+01 1.9070573991098905e-01
-6.9999694057221618e-02 1.7316499694057200e+01 4.0456888302775107e-01
ITEM: ATOMS id type x y z q
9 4 0.150146 4.19234 1.60998 1.55453
11 4 0.108625 4.98784 7.24321 0.926184
69 1 -1.5707 5.37312 6.252 -0.650872
98 3 -0.451093 1.58454 4.84654 -0.797687
102 3 -0.692416 3.33049 2.79602 -0.825355
104 3 -0.851697 4.94877 0.504262 -0.815579
210 2 -1.42259 6.72626 2.31962 0.161695
215 2 -1.57176 4.72182 5.30492 0.208717
216 2 -1.56716 6.508 6.00288 0.133116
241 2 -0.434678 6.42394 4.86144 0.178334
5 4 0.946764 2.19434 5.70669 1.30047
19 4 0.0647013 13.8512 1.94137 1.60361
23 4 6.96061 2.22898 5.92314 1.36546
27 4 1.54757 6.68092 2.97043 1.18245
29 4 5.12809 4.05805 7.8346 1.19069
64 1 2.01125 2.88576 4.31488 -0.668281
70 1 1.31563 6.48908 6.72763 -0.665715
76 1 5.2942 1.74831 5.13964 -0.690141
77 1 3.10751 6.17221 4.10389 -0.6666
79 1 3.97005 5.20123 6.76647 -0.666538
99 3 1.77497 1.20504 6.72247 -0.798513
103 3 1.15055 3.26148 0.801665 -0.834277
105 3 0.608654 3.64426 6.51019 -0.768544
115 3 6.79177 1.21184 1.04607 -0.8239
118 3 7.53501 0.993416 6.76206 -0.832053
124 3 1.12098 5.34122 2.25074 -0.822926
125 3 4.3462 2.84899 8.52048 -0.824971
126 3 6.36698 3.55492 7.01734 -0.767934
199 2 1.8431 2.15335 3.43487 0.201804
200 2 3.0687 2.8466 4.7224 0.160477
201 2 1.69581 3.94973 4.01476 0.212812
218 2 1.93897 6.41451 5.85383 0.201261
219 2 1.99684 6.6654 7.687 0.128838
235 2 4.60719 1.4466 5.96462 0.234078
236 2 5.57712 0.901576 4.43767 0.20523
237 2 4.97151 2.68621 4.62644 0.153422
238 2 3.81635 6.11308 3.18016 0.181853
239 2 3.0716 5.18086 4.67366 0.159395
244 2 2.96067 4.94385 7.27687 0.183129
245 2 4.02045 4.81249 5.68986 0.161617
246 2 4.08707 6.32271 6.89945 0.161798
286 2 7.63658 6.21622 8.0008 0.169476
287 2 7.28191 6.72652 6.24731 0.158726
303 4 5.38037 4.79982 1.10271 1.33835
304 4 6.98636 6.64302 3.37669 0.937183
305 1 4.44927 3.63938 2.2622 -0.686859
308 1 6.17358 5.63998 4.86265 -0.661322
309 3 6.08678 3.73476 0.138453 -0.815035
310 3 4.25508 5.90677 0.623259 -0.814168
311 3 6.53553 5.78447 2.13329 -0.730607
312 2 5.19633 2.86051 2.47143 0.189955
313 2 3.50762 3.2234 1.71917 0.216524
314 2 4.14796 4.26002 3.17954 0.157633
321 2 5.47269 4.94953 4.38155 0.17764
322 2 5.6358 6.35892 5.53026 0.176616
323 2 7.00438 5.08482 5.43379 0.225221
325 2 3.61612 1.41537 2.27226 0.173766
326 2 4.37411 0.199007 1.09042 0.214645
355 3 1.5204 0.764338 0.624479 -0.836516
94 1 7.0528 6.92972 7.35012 -0.665959
214 2 -2.43833 5.09028 6.93402 0.171984
363 2 15.2497 0.724096 8.3339 0.181234
2 4 14.2464 2.13907 3.70427 1.56953
42 4 9.19711 2.12619 3.70823 1.62807
46 4 11.7735 1.90649 5.42154 1.56516
50 4 10.5791 4.27524 1.68963 1.39148
52 4 10.4553 3.96633 7.67035 1.18656
89 1 11.8373 5.11278 2.86553 -0.677499
90 1 9.53587 5.10144 6.33904 -0.65525
149 3 13.6307 1.01307 2.63494 -0.806988
150 3 8.50672 0.921769 3.02244 -0.878217
151 3 7.92172 2.79175 4.80375 -0.811042
153 3 11.6762 0.717053 0.832043 -0.832381
156 3 12.9085 2.66662 4.43183 -0.84237
157 3 10.4449 1.7467 4.53947 -0.86162
158 3 12.2991 0.585764 6.12747 -0.851407
165 3 9.6562 3.30445 2.65728 -0.837014
166 3 11.6012 3.44742 0.782298 -0.812617
168 3 9.77741 5.43046 0.783799 -0.780501
170 3 11.4153 3.04412 6.78692 -0.791027
273 2 11.5607 6.22601 2.86102 0.146941
274 2 11.7131 4.66877 3.82866 0.212101
275 2 10.5039 5.73999 6.19893 0.118277
276 2 8.64264 5.79241 6.72288 0.165624
277 2 9.29672 4.7195 5.35575 0.210934
306 1 8.95695 6.54721 3.5419 -0.659463
316 2 9.28858 5.44212 3.5993 0.20254
344 1 14.245 1.14449 8.04611 -0.659386
345 2 14.2776 1.88686 7.19494 0.205588
364 2 12.8603 4.8679 2.41149 0.229354
315 2 9.24594 7.10258 2.53724 0.182301
4 4 -5.015 13.8214 7.69002 1.33629
324 1 3.79338 0.31856 2.04491 -0.681839
1 4 -5.58507 13.3972 1.57719 1.35625
13 4 -6.26972 11.8784 4.20448 1.38551
14 4 -2.24606 9.59307 7.7372 1.13695
15 4 -3.51954 11.9446 5.89348 1.55208
34 4 -1.01656 11.8229 3.90123 1.40833
67 1 -1.79543 7.3254 1.40309 -0.682718
71 1 -3.18185 8.03633 8.11944 -0.667314
72 1 -0.703077 9.10506 6.65301 -0.677317
84 1 -1.31897 10.1023 3.06625 -0.678096
85 1 -0.35703 11.078 0.0742206 -0.657839
107 3 -6.30927 13.1418 3.05828 -0.773455
108 3 -5.35406 11.8371 0.9156 -0.808644
109 3 -4.89754 11.8394 5.05002 -0.833508
110 3 -3.34392 10.4273 6.78302 -0.769689
111 3 -3.74521 13.1384 6.86247 -0.820514
134 3 -1.02806 12.8051 2.61864 -0.848194
135 3 -2.27607 12.0245 4.89627 -0.847454
139 3 -0.529245 12.7298 8.54331 -0.859429
208 2 -2.90447 7.38204 1.28949 0.175595
209 2 -1.29583 8.36573 1.26397 0.173632
221 2 -2.17957 7.4427 8.32327 0.135568
222 2 -3.70264 7.76137 7.19546 0.166744
223 2 -1.05117 8.13359 6.183 0.143778
224 2 0.201641 9.01731 7.46548 0.174674
225 2 -0.3415 9.84329 5.886 0.230498
242 2 -0.689236 7.51189 3.4339 0.168014
259 2 -0.281483 9.66706 2.78864 0.187485
260 2 -2.03934 10.1424 2.18541 0.156359
261 2 -1.78087 9.54822 3.92118 0.168854
262 2 -0.739941 10.734 1.21204 0.18056
327 1 -6.31618 12.4785 8.01502 -0.684764
328 2 -5.63593 11.5497 8.25613 0.158978
337 1 -3.70585 9.46158 0.264126 -0.682032
338 2 -3.93104 9.40246 1.33072 0.153739
350 2 8.40374 8.11944 1.44493 0.166859
358 2 -3.38539 13.4999 2.90129 0.221879
360 2 -5.16528 10.2663 2.58538 0.20165
41 4 5.16213 13.6566 1.68713 1.61489
21 4 0.580006 13.6892 7.83878 1.62867
33 4 3.06738 9.29455 1.86516 1.55356
35 4 1.50525 11.5835 0.216428 1.45399
36 4 2.99248 9.76435 7.47325 1.20777
38 4 1.7398 11.8036 5.67022 1.60045
44 4 5.43004 13.5033 7.30522 1.41361
56 4 4.20544 11.4299 3.76712 1.62205
58 4 7.80085 8.77553 7.5235 0.92777
60 4 6.75703 11.3273 5.70481 1.50281
78 1 0.0567001 7.1957 4.1664 -0.670836
87 1 4.08234 8.36009 6.79377 -0.683462
132 3 1.99395 8.04835 2.27058 -0.808299
133 3 4.29549 8.63349 0.899033 -0.810001
136 3 2.13578 10.4615 1.09405 -0.852215
137 3 1.0652 13.0366 0.940053 -0.803517
141 3 0.296901 11.7221 4.74778 -0.848355
142 3 2.0839 10.3076 6.34852 -0.846403
143 3 1.62249 12.8309 6.86758 -0.850551
178 3 3.66307 9.88598 3.19564 -0.827739
179 3 4.60055 12.4305 2.56097 -0.870381
180 3 2.95983 12.0041 4.63263 -0.836064
182 3 3.80629 10.6558 8.5274 -0.835588
186 3 5.54114 11.1695 4.58239 -0.864962
187 3 7.15942 9.73098 6.43805 -0.782717
188 3 6.38593 12.3186 6.95916 -0.871974
217 2 0.609474 7.39489 6.63782 0.169201
240 2 3.43994 7.08204 4.76578 0.153193
243 2 0.622235 8.09094 4.64636 0.180861
267 2 4.19488 7.73757 7.77178 0.120649
268 2 5.0431 8.84981 6.50811 0.218047
269 2 3.55731 7.72704 5.98261 0.161214
288 2 5.8742 6.82364 7.57713 0.148658
307 1 6.32616 8.47667 3.47231 -0.655029
318 2 6.6194 9.16251 2.54691 0.192203
319 2 6.65689 8.93336 4.45533 0.215694
320 2 5.22952 8.107 3.47477 0.206924
351 1 7.00196 10.3947 0.891429 -0.700483
352 2 8.05282 10.22 0.614767 0.193161
353 2 6.32274 9.50658 0.677874 0.23544
354 2 6.85526 10.8962 1.91579 0.189193
357 3 6.2961 13.0289 0.539649 -0.815405
95 1 9.69203 8.57506 7.17152 -0.669855
185 3 8.18881 11.7323 5.12239 -0.854795
289 2 9.80275 8.01619 6.16043 0.149098
290 2 10.1549 7.97158 7.98467 0.1442
317 2 9.21383 7.17581 4.41484 0.137776
329 2 8.84966 12.2498 7.10321 0.258646
366 2 10.1695 9.57129 7.14537 0.213599
334 1 9.61468 10.2728 3.16163 -0.649817
335 2 8.63766 10.2914 2.47665 0.172173
336 2 9.55456 9.41837 3.93035 0.158178
347 1 9.32805 8.21352 0.834877 -0.687888
349 2 10.2947 8.17183 1.4143 0.160098
278 2 11.1133 6.04612 8.33477 0.124762
264 2 1.59949 7.78067 8.52027 0.136067
348 2 9.23813 9.09487 0.189643 0.21883
10 4 -1.12519 6.77266 17.2718 1.30448
65 1 -0.258593 2.32168 11.2587 -0.672608
68 1 -0.18053 4.70307 9.07764 -0.683453
100 3 0.291284 2.31518 16.1192 -0.853304
106 3 -2.32441 6.78009 16.2338 -0.80567
202 2 -0.363962 1.91221 10.227 0.176657
203 2 -0.691706 3.37308 11.2936 0.154086
211 2 -0.949474 3.89726 9.06023 0.170192
212 2 -0.475285 5.63198 9.65204 0.14839
226 2 -0.24276 7.40909 13.266 0.158182
331 1 -1.21573 3.79404 14.2671 -0.671768
332 2 -0.62269 3.62925 13.2964 0.158584
333 2 -0.780298 4.61062 14.9155 0.188431
3 4 1.55297 2.48858 17.1122 1.61646
8 4 1.66166 2.31335 11.7274 1.21186
20 4 6.69123 2.562 17.1241 1.55675
22 4 3.95439 1.88485 9.78568 1.53408
25 4 4.25441 2.47378 15.3754 1.55998
26 4 6.39219 2.43173 11.528 1.6098
30 4 5.49028 4.90809 13.4655 1.54722
32 4 3.79039 7.07048 12.0504 1.14747
54 4 6.88759 7.25375 15.2543 1.63346
66 1 1.82181 3.86149 12.892 -0.686973
80 1 5.55063 5.22015 9.27703 -0.668101
81 1 1.55801 5.97464 14.8501 -0.684669
82 1 2.03278 6.70048 11.1478 -0.675764
101 3 1.9422 0.906589 12.3593 -0.829763
116 3 3.24557 0.423409 9.19199 -0.778515
117 3 2.49795 2.69063 10.4738 -0.794534
119 3 3.65662 1.33501 14.3525 -0.844602
120 3 5.54067 1.70149 16.2222 -0.848946
121 3 3.03481 2.75406 16.4186 -0.85269
122 3 5.10289 1.73678 10.8086 -0.861627
123 3 7.19186 1.42497 12.5051 -0.847848
127 3 4.74368 3.75533 14.5843 -0.829491
128 3 6.07352 3.95103 12.2785 -0.832577
131 3 4.2322 5.64582 12.7068 -0.84551
155 3 7.49141 2.64768 10.3592 -0.853615
162 3 8.02811 2.70951 16.1998 -0.843838
174 3 6.4828 5.95408 14.1563 -0.828431
205 2 2.72202 4.55714 12.7148 0.258147
206 2 1.87507 3.48747 13.9706 0.199611
207 2 0.847207 4.37712 12.7586 0.149216
213 2 0.824317 4.28561 9.40283 0.19737
247 2 5.73251 6.29498 8.86454 0.159076
248 2 6.53792 4.66816 9.55769 0.221349
249 2 4.73574 5.17968 10.1121 0.194945
250 2 1.78351 5.29721 15.7272 0.202758
251 2 2.35166 5.8717 14.0118 0.20642
252 2 0.494813 5.809 14.4488 0.153258
253 2 1.8229 5.60383 11.0303 0.180748
255 2 1.40098 7.15007 11.9763 0.17566
283 2 7.27722 5.83136 10.9613 0.209911
285 2 7.56168 7.26518 9.77784 0.160471
204 2 14.9055 1.67131 12.0148 0.201408
7 4 14.5521 2.32351 15.4828 1.45536
12 4 11.9793 6.98214 15.2247 1.5433
24 4 8.07882 0.453026 13.3915 1.47481
43 4 11.8586 2.47991 17.2584 1.62811
45 4 8.93534 2.14747 9.86977 1.61394
47 4 12.8334 0.396708 13.6545 1.59709
48 4 9.27818 2.57547 15.255 1.68014
49 4 11.3407 2.62836 11.8323 1.39485
51 4 9.57551 7.07763 17.0709 1.39954
53 4 10.4605 4.97818 13.5358 1.55345
88 1 12.6771 2.67376 10.3863 -0.681654
91 1 11.467 5.00739 8.9102 -0.655603
93 1 8.04998 6.42599 10.3704 -0.667834
152 3 13.292 2.57829 16.443 -0.830212
154 3 8.94802 0.756807 9.08949 -0.834242
159 3 14.1659 1.06428 14.5235 -0.797823
160 3 9.10042 1.23036 14.3531 -0.831268
161 3 10.6259 2.52251 16.1932 -0.831776
163 3 10.0006 2.09599 11.1463 -0.823049
164 3 12.0292 1.62331 12.8669 -0.84623
169 3 9.51694 3.25479 8.68505 -0.807773
171 3 9.5385 3.87338 14.3408 -0.847005
172 3 11.1576 4.27356 12.2255 -0.828203
173 3 11.7349 5.66846 14.3671 -0.839212
175 3 8.09371 6.85827 16.3479 -0.784701
177 3 9.5566 6.21996 12.845 -0.811156
270 2 12.0603 2.53916 9.41958 0.205683
271 2 13.3404 1.81439 10.6601 0.190224
272 2 13.1654 3.66757 10.4648 0.172406
330 2 8.74085 12.6941 8.91194 0.171449
279 2 12.6099 4.79504 8.85886 0.159998
280 2 11.0366 4.91844 9.96097 0.20712
282 2 11.39 6.9024 10.6644 0.17415
284 2 8.74035 5.77356 9.73558 0.165666
346 2 13.6816 1.62246 8.96254 0.184641
359 2 13.3624 3.93789 14.0605 0.231685
6 4 -4.7788 13.8864 13.5136 1.57073
16 4 -2.10687 9.04866 13.4614 1.16842
18 4 -3.16912 11.7253 11.8058 1.36991
37 4 -0.897111 11.7364 9.74476 1.55532
73 1 -0.986122 7.85073 12.4356 -0.665122
74 1 -1.1755 9.78683 15.0301 -0.664389
75 1 -4.69 11.3811 10.6974 -0.681435
112 3 -3.34521 8.19681 14.0558 -0.774004
113 3 -2.62867 10.2863 12.5367 -0.787941
114 3 -3.72568 12.7821 12.9464 -0.833194
138 3 -1.72442 10.372 9.03625 -0.799298
140 3 -1.9593 12.3244 10.8654 -0.781939
220 2 -3.87177 8.08442 9.04234 0.182447
227 2 -0.468683 8.42327 11.6452 0.206107
228 2 -1.73128 7.10495 12.0374 0.173519
229 2 -1.92463 10.2783 15.6684 0.168212
230 2 -0.475525 10.5057 14.5723 0.210741
231 2 -0.552089 8.92607 15.6392 0.272005
232 2 -5.30292 10.6544 11.2723 0.195896
233 2 -4.16133 10.8841 9.77483 0.181651
234 2 -5.28141 12.2592 10.404 0.228876
297 4 -4.4807 11.4646 17.0448 1.15877
298 1 -3.18322 12.6688 16.2598 -0.68586
299 3 -5.50483 10.8943 15.9904 -0.784911
300 2 -3.19745 12.4174 15.1539 0.211585
301 2 -2.08776 12.4618 16.7367 0.153917
302 2 -3.48692 13.7402 16.4547 0.232916
340 1 -0.850906 13.319 14.5903 -0.696075
341 2 -1.37047 14.0754 15.2293 0.27886
343 2 -1.55816 12.6874 14.0625 0.218779
356 3 -5.89921 13.0867 14.384 -0.823669
361 2 -3.91572 8.97203 17.0843 0.244911
362 2 -0.751927 12.3724 17.0087 0.167748
365 2 -4.36896 8.54538 11.5025 0.219869
130 3 0.297255 7.71742 16.4871 -0.82462
146 3 0.410779 11.129 10.5528 -0.836716
263 2 -0.0469987 10.5945 16.7557 0.18917
342 2 -0.0755473 12.6825 15.1804 0.181279
28 4 4.42085 7.72903 17.1706 1.5941
31 4 1.64894 7.67923 15.7277 1.36501
39 4 2.79227 9.63361 13.6789 1.57487
40 4 1.61275 11.7824 11.4604 1.63036
57 4 6.56191 12.1719 17.0284 1.4379
59 4 4.13198 11.9287 9.54559 1.60121
61 4 7.73196 9.52805 13.3183 1.55497
62 4 3.93101 11.9106 15.4399 1.60545
63 4 6.31661 11.8373 11.8157 1.4068
83 1 5.14515 7.68143 10.8037 -0.670333
86 1 1.68469 8.89894 8.81182 -0.65636
96 1 7.35978 9.50727 9.2414 -0.644681
97 1 7.93628 12.4712 10.9598 -0.68383
129 3 2.98327 7.80835 16.4506 -0.874224
144 3 1.52101 9.10255 14.5161 -0.787027
145 3 3.47908 8.32894 13.04 -0.821798
147 3 2.21176 10.5667 12.4051 -0.805617
148 3 1.02733 12.9608 12.4357 -0.824714
176 3 5.6839 7.68847 16.1697 -0.852898
181 3 7.80026 12.2091 15.8449 -0.811214
183 3 4.51867 13.2794 8.71548 -0.811178
184 3 2.80988 12.1081 10.4695 -0.826266
189 3 7.33415 8.56977 14.5458 -0.86238
192 3 3.88339 10.5695 14.5302 -0.809267
193 3 5.08474 11.7225 16.5063 -0.865592
194 3 4.16291 13.2453 14.5375 -0.834656
195 3 2.296 12.0738 16.1728 -0.820096
196 3 5.34031 11.4845 10.5499 -0.826964
197 3 6.50333 10.3803 12.6537 -0.791501
198 3 5.90815 13.1349 12.6399 -0.862316
254 2 1.92939 7.35779 10.2096 0.162461
256 2 4.51225 7.53711 9.83373 0.128416
257 2 6.24743 7.20316 10.6913 0.183673
258 2 5.20057 8.7642 11.0725 0.233966
296 2 8.3374 13.1522 11.7382 0.245976
265 2 0.701354 9.49767 8.76222 0.208313
266 2 2.28109 9.06376 9.78844 0.197465
291 2 6.99317 10.5598 8.92814 0.222485
293 2 6.52162 8.84725 9.865 0.195967
294 2 7.65562 13.0127 10.0059 0.160022
167 3 10.8093 7.37973 16.1652 -0.886495
17 4 9.07769 11.7743 14.9435 1.54927
55 4 9.24388 7.29637 11.735 1.20987
92 1 10.8279 7.87512 10.8147 -0.691355
190 3 8.44388 8.6141 12.0622 -0.813568
191 3 8.82491 10.7459 13.6993 -0.822304
281 2 10.5274 8.4011 9.85607 0.139899
292 2 8.39078 9.54132 9.69006 0.166168
295 2 8.61134 11.5995 10.7272 0.177424
339 2 -2.37709 10.0569 17.4705 0.14228
ITEM: TIMESTEP
200
ITEM: NUMBER OF ATOMS
366
ITEM: BOX BOUNDS xy xz yz pp pp pp
-7.7486009139846859e+00 1.5854629708584895e+01 -7.7572295446837867e+00
1.8686233306472477e-01 1.4149748230970362e+01 1.3925833928399486e-01
-2.2852983786369307e-01 1.7475029837863683e+01 4.3351056403508309e-01
ITEM: ATOMS id type x y z q
9 4 0.0505895 4.19307 1.45964 1.53341
11 4 -0.0674053 5.00575 7.09825 0.926868
69 1 -1.71588 5.42059 6.1637 -0.673535
98 3 -0.445913 1.74941 4.81038 -0.797243
102 3 -0.855443 3.20067 2.49404 -0.807588
104 3 -0.973279 4.91435 0.389045 -0.806779
210 2 -1.74289 6.51061 2.05756 0.175962
215 2 -1.77308 4.82264 5.22034 0.225949
216 2 -1.80478 6.53967 5.97381 0.137124
241 2 -0.607023 6.56366 4.93381 0.164135
5 4 0.903671 2.22518 5.59377 1.34153
19 4 7.58595 0.345254 1.68785 1.61854