LAMMPS (2 Aug 2023 - Update 2)
  using 6 OpenMP thread(s) per MPI task
Reading data file ...
  triclinic box = (0 0 0) to (15.6782 14.2194 17.6383) with tilt (-7.0409 -1.0144 0.675)
  1 by 1 by 2 MPI processor grid
  reading atoms ...
  350 atoms
  reading velocities ...
  350 velocities
Finding 1-2 1-3 1-4 neighbors ...
  special bond factors lj:    0        0        0       
  special bond factors coul:  0        0        0       
     0 = max # of 1-2 neighbors
     0 = max # of 1-3 neighbors
     0 = max # of 1-4 neighbors
     1 = max # of special neighbors
  special bonds CPU = 0.000 seconds
  read_data CPU = 0.008 seconds
WARNING: Van der Waals parameters for element SI indicate inner wall+shielding, but earlier atoms indicate a different van der Waals method. This may cause division-by-zero errors. Keeping van der Waals setting for earlier atoms. (src/REAXFF/reaxff_ffield.cpp:251)
##### Heat starts.##### 

CITE-CITE-CITE-CITE-CITE-CITE-CITE-CITE-CITE-CITE-CITE-CITE-CITE

Your simulation uses code contributions which should be cited:
- pair reaxff command: doi:10.1016/j.parco.2011.08.005
- fix qeq/reaxff command: doi:10.1016/j.parco.2011.08.005
The log file lists these citations in BibTeX format.

CITE-CITE-CITE-CITE-CITE-CITE-CITE-CITE-CITE-CITE-CITE-CITE-CITE

WARNING: Compute rdf cutoff less than neighbor cutoff - forcing a needless neighbor list build (src/compute_rdf.cpp:179)
Neighbor list info ...
  update: every = 10 steps, delay = 0 steps, check = yes
  max neighbors/atom: 2000, page size: 100000
  master list distance cutoff = 12
  ghost atom cutoff = 12
  binsize = 6, bins = 4 3 3
  3 neighbor lists, perpetual/occasional/extra = 2 1 0
  (1) pair reaxff, perpetual
      attributes: half, newton off, ghost
      pair build: half/bin/newtoff/ghost
      stencil: full/ghost/bin/3d
      bin: standard
  (2) compute rdf, occasional
      attributes: half, newton on, cut 7
      pair build: half/bin/newton/tri
      stencil: half/bin/3d/tri
      bin: standard
  (3) fix qeq/reaxff, perpetual, copy from (1)
      attributes: half, newton off
      pair build: copy
      stencil: none
      bin: none
Setting up Verlet run ...
  Unit style    : real
  Current step  : 0
  Time step     : 0.5
Per MPI rank memory allocation (min/avg/max) = 194 | 194.1 | 194.1 Mbytes
   Step          Temp          Press     
         0   300            7984.4245    
       100   285.46526      13582.855    
       200   280.96505     -1315.9023    
       300   292.96944      6808.2755    
       400   315.09048      1498.8193    
       500   287.59819      4498.3492    
       600   287.39712      1792.6836    
       700   310.699        2517.6734    
       800   300.61754     -8691.4663    
       900   302.09704      16258.756    
      1000   321.6101      -4447.9685    
      1100   313.85142     -7800.622     
      1200   311.08897      2464.4008    
      1300   311.47552      1848.3658    
      1400   308.6024       2149.9986    
      1500   308.61661     -10527.346    
      1600   336.81226      6297.4883    
      1700   320.88118      12846.679    
      1800   316.33793      9876.5969    
      1900   302.81228     -3377.758     
      2000   327.30844      3373.8081    
      2100   341.86082      14809.673    
      2200   314.52502     -2816.4228    
      2300   325.11842      5157.5872    
      2400   336.98182      13248.595    
      2500   313.07989     -1661.8669    
      2600   313.41692      1784.3528    
      2700   317.19031     -3050.0652    
      2800   335.73552      5087.3179    
      2900   321.99355      14963.967    
      3000   341.68594      906.31232    
      3100   336.60371     -2753.0484    
      3200   330.39641      8088.5449    
      3300   345.23944      8157.6204    
      3400   312.94093     -3997.7937    
      3500   341.90035     -97.289299    
      3600   323.57694      7368.4975    
      3700   330.98615      21204.002    
      3800   341.64417      90.314372    
      3900   345.88476      1910.2642    
      4000   332.3083       5177.9359    
      4100   359.6789       5538.5493    
      4200   332.64504      2948.5263    
      4300   348.44667     -5389.546     
      4400   344.3417       4295.541     
      4500   337.09409     -541.39336    
      4600   356.31172      9938.637     
      4700   360.58518     -4293.9513    
      4800   372.61522     -3971.1083    
      4900   328.50233     -9931.7175    
      5000   343.16826      21564.875    
      5100   358.13266      10958.462    
      5200   360.87805     -7553.5279    
      5300   353.4885       22623.55     
      5400   355.64952     -1895.1216    
      5500   338.84592      14026.034    
      5600   347.20299     -3427.5493    
      5700   356.62119      9131.3462    
      5800   354.56715      6315.4145    
      5900   347.35477      4828.4154    
      6000   370.59503     -4946.2371    
      6100   369.91561      12358.019    
      6200   357.46623      16575.373    
      6300   353.9713       2732.3005    
      6400   370.36713      17081.089    
      6500   354.23303      6006.1461    
      6600   368.94829     -1396.1289    
      6700   359.80042     -3463.5161    
      6800   368.2487       696.80802    
      6900   370.3362       3181.9079    
      7000   362.09711      7034.1041    
      7100   357.01318      3790.6867    
      7200   370.38637      3380.3579    
      7300   376.40519      10760.456    
      7400   361.00631      492.81075    
      7500   363.3317      -14413.449    
      7600   345.25914      14655.88     
      7700   381.57625      9998.8322    
      7800   371.62037      13345.868    
      7900   380.42935      15422.622    
      8000   387.17144      15699.689    
      8100   375.56905     -3896.2351    
      8200   385.71206     -9962.3571    
      8300   394.52557      3399.2206    
      8400   378.28805      13234.857    
      8500   383.48286     -462.07421    
      8600   366.53399      23069.905    
      8700   388.15224      5733.0142    
      8800   371.21243      3361.2084    
      8900   390.78551      3553.9757    
      9000   381.82854      4659.6459    
      9100   376.12046     -3439.7223    
      9200   383.03297      10625.742    
      9300   392.84184      12563.477    
      9400   375.27241     -7348.0277    
      9500   392.58731     -15668.618    
      9600   407.69942      15119.413    
      9700   392.85784      10085.063    
      9800   398.1016       5246.9521    
      9900   409.17866      2586.0824    
     10000   367.78765      8034.9602    
     10100   411.08812      11129.531    
     10200   397.62429      2987.6152    
     10300   396.77776      3627.7622    
     10400   397.5907       7202.4122    
     10500   412.28856      7598.9005    
     10600   420.36761      5.2216031    
     10700   404.64475      12737.533    
     10800   404.74736     -7819.0391    
     10900   412.76819      11080.714    
     11000   405.16515     -2863.6561    
     11100   420.28738      23898.808    
     11200   408.24765      16796.492    
     11300   404.15122      853.5773     
     11400   421.33945     -10840.569    
     11500   406.67371     -9098.2859    
     11600   411.90538      3708.4831    
     11700   417.89968      14425.027    
     11800   413.56193      17710.969    
     11900   421.083       -393.13666    
     12000   415.2466       5179.0977    
     12100   424.05029     -8026.7179    
     12200   436.59781      4698.8874    
     12300   404.23135      15304.667    
     12400   433.06339      12308.093    
     12500   421.01317     -81.219879    
     12600   430.42164     -3050.183     
     12700   422.20886     -17732.051    
     12800   417.06199      2853.3104    
     12900   443.03726     -4212.161     
     13000   409.01811      4486.375     
     13100   436.0185       4900.0156    
     13200   428.79698     -3423.4004    
     13300   438.84089      22581.867    
     13400   442.18273     -6547.6483    
     13500   419.0002       5265.7371    
     13600   426.60462      1181.7363    
     13700   453.0549       4293.3925    
     13800   430.30439      10493.094    
     13900   448.90562      24858.691    
     14000   427.39765     -2081.7861    
     14100   429.77874     -1757.315     
     14200   450.38929      16590.986    
     14300   433.78416     -1308.3889    
     14400   449.0765       6740.4744    
     14500   444.80569     -20617.603    
     14600   419.07827     -5064.6608    
     14700   458.51796      5396.7195    
     14800   453.6957      -9861.224     
     14900   455.73625      14112.574    
     15000   462.88115      11172.167    
     15100   500.04877      730.49239    
     15200   464.18426      25534.725    
     15300   445.2025      -703.04621    
     15400   474.35871      11566.562    
     15500   450.95299     -340.1282     
     15600   476.94784     -6008.2817    
     15700   464.73964      5414.6171    
     15800   482.74553     -2102.2058    
     15900   447.77216     -6576.6865    
     16000   481.91608     -19046.313    
     16100   461.91807      1100.9827    
     16200   447.67859     -7297.602     
     16300   444.37883      3205.8664    
     16400   453.15567      2383.9491    
     16500   481.03749      3121.4542    
     16600   473.29487      1517.0629    
     16700   470.13327      16537.981    
     16800   468.76162     -2287.0651    
     16900   468.85295      10593.436    
     17000   458.85377      6548.2447    
     17100   459.96988      26308.375    
     17200   453.79463      2677.1193    
     17300   464.8795       2716.7318    
     17400   475.42611      7783.1187    
     17500   482.97887      14096.522    
     17600   460.70569     -1124.3413    
     17700   475.49908      13855.023    
     17800   481.23946     -22890.716    
     17900   470.40025      3317.8837    
     18000   464.44079      14292.535    
     18100   491.35338      8918.1886    
     18200   489.69297      8664.3215    
     18300   454.16252     -9473.3776    
     18400   490.7867       13322.349    
     18500   490.94577      11917.002    
     18600   460.13661      7559.1807    
     18700   475.20397     -19085.301    
     18800   474.03857      5786.1455    
     18900   513.4282       19622.482    
     19000   480.11571      322.08038    
     19100   484.21022     -1533.3242    
     19200   479.91254      2766.6234    
     19300   502.71154      12676.035    
     19400   530.04272     -7724.121     
     19500   480.93829     -5457.1478    
     19600   490.17584      3787.3729    
     19700   497.10431      775.95571    
     19800   506.43324      5797.8893    
     19900   508.36118      18066.13     
     20000   491.41607     -3996.7485    
     20100   511.79998     -8367.0456    
     20200   519.13484      23470.025    
     20300   493.1127       19479.975    
     20400   500.51607      6949.1767    
     20500   512.35532     -8847.4093    
     20600   504.12916      1587.2437    
     20700   484.65569      5544.5536    
     20800   524.01768      11149.952    
     20900   537.29248      22750.982    
     21000   519.89713      10487.523    
     21100   532.19411      24871.782    
     21200   488.31474      24489.788    
     21300   500.12491      1430.7753    
     21400   521.9526      -10294.831    
     21500   504.76062      18186.106    
     21600   510.37299      18957.482    
     21700   513.13013      7472.993     
     21800   548.43516      6495.3806    
     21900   515.39899      3052.2306    
     22000   545.50864      659.98227    
     22100   513.40939      4139.4953    
     22200   517.92897      16670.742    
     22300   489.32445      1827.1567    
     22400   482.74187      11911.434    
     22500   523.72071      12088.154    
     22600   546.23675      11132.38     
     22700   522.48345      5178.6328    
     22800   525.91797     -6828.2175    
     22900   508.36787     -10609.732    
     23000   517.16165      16692.652    
     23100   541.76658      9528.163     
     23200   512.6607      -8942.2828    
     23300   539.27398     -5411.3683    
     23400   543.62911     -8934.3704    
     23500   576.91157      30795.669    
     23600   529.02738      1484.2364    
     23700   562.77831      441.51607    
     23800   537.61849      5513.7328    
     23900   527.45094      3546.4739    
     24000   543.4901      -15163.887    
     24100   548.3172       171.00394    
     24200   519.74428      4663.1701    
     24300   573.73277      21816.894    
     24400   527.70404     -48.414025    
     24500   555.47155     -1703.2538    
     24600   564.19527      17159.32     
     24700   579.47615     -1089.3599    
     24800   552.63893      2772.5091    
     24900   559.93085      4615.4767    
     25000   540.36711      1640.8291    
     25100   573.09943     -3202.2514    
     25200   516.78975      14988.439    
     25300   578.84513      27362.659    
     25400   582.33543      17936.869    
     25500   554.27756     -9625.48      
     25600   570.09381      13858.727    
     25700   547.9384       13348.948    
     25800   559.53616     -3353.9371    
     25900   543.15766     -19521.052    
     26000   533.84472      24188.331    
     26100   548.20389      21157.55     
     26200   560.57428      2066.3321    
     26300   573.23558     -9774.7698    
     26400   582.84158      5973.983     
     26500   569.77246     -10763.298    
     26600   554.82924      8273.6632    
     26700   548.75614      7811.1715    
     26800   572.08296      13974.336    
     26900   566.42924      15104.006    
     27000   567.44586      5233.9034    
     27100   568.043        6088.1548    
     27200   536.80338      12969.269    
     27300   555.97442      31862.398    
     27400   547.42332      30.192159    
     27500   541.04552      2680.9597    
     27600   584.62699      2644.8326    
     27700   564.77935      8882.0715    
     27800   591.05531     -12840.94     
     27900   577.88489     -1309.3574    
     28000   588.43111      13749.166    
     28100   562.00421      11722.218    
     28200   542.68722      2725.0444    
     28300   517.43239      2549.1661    
     28400   610.45698     -6300.5696    
     28500   574.98761     -5044.8053    
     28600   598.63714      13788.534    
     28700   578.31155     -23008.303    
     28800   611.81826      10314.345    
     28900   594.76615      12792.069    
     29000   564.65008      11390.818    
     29100   633.28351     -14163.332    
     29200   596.44452      6669.6401    
     29300   567.95079     -9936.2057    
     29400   569.15515      4508.898     
     29500   604.31872      9350.3287    
     29600   585.07862      19148.378    
     29700   602.18555      4974.526     
     29800   561.18352      1680.0523    
     29900   608.23712      5922.5896    
     30000   585.36526      5071.5051    
     30100   585.13318     -51.918769    
     30200   564.55737     -9149.8458    
     30300   625.31797     -2156.095     
     30400   602.71019      7197.5002    
     30500   598.44294      23619.713    
     30600   588.13732      1977.118     
     30700   555.82854      13099.733    
     30800   637.11485      13842.562    
     30900   615.73788     -2444.0388    
     31000   584.05823     -534.32008    
     31100   581.27741      20235.971    
     31200   614.72934      13167.754    
     31300   621.55809      21803.874    
     31400   612.649        183.80042    
     31500   618.00872      12737.764    
     31600   573.94408      6114.6314    
     31700   608.58193      11977.551    
     31800   646.12004      15488.045    
     31900   600.90541      3591.5921    
     32000   620.16823      1342.0662    
     32100   643.14123      24697.328    
     32200   627.08232      5093.6139    
     32300   672.11518     -5558.3917    
     32400   619.8667      -3339.8369    
     32500   583.58049      17548.896    
     32600   626.45384      190.71732    
     32700   657.5042       8744.8089    
     32800   605.80955     -16348.249    
     32900   625.52278      16337.315    
     33000   633.22017      12984.701    
     33100   603.20924      12021.473    
     33200   634.11477     -13194.233    
     33300   655.89348      7036.6487    
     33400   633.92938      26500.959    
     33500   646.17956      5325.505     
     33600   637.8148      -16894.668    
     33700   644.28891      17836.789    
     33800   616.60321      1481.146     
     33900   657.36833     -10242.505    
     34000   601.84441      4971.3504    
     34100   661.71133     -2163.5094    
     34200   678.22267      6838.216     
     34300   635.6312       15972.425    
     34400   618.48315      10126.639    
     34500   667.29328      13528.209    
     34600   648.5284      -13332.122    
     34700   663.88028     -735.92447    
     34800   638.70147      6591.3627    
     34900   636.13353      9283.7016    
     35000   688.7533      -5619.0792    
     35100   625.11771      45.153277    
     35200   652.73337      8355.0204    
     35300   672.49744      25588.256    
     35400   629.39101      11464.569    
     35500   672.76228      5869.2625    
     35600   675.09216     -10532.664    
     35700   650.84572     -174.33392    
     35800   641.8858      -919.00459    
     35900   634.21008      19243.819    
     36000   708.21469     -2570.6741    
     36100   615.05288      10689.584    
     36200   646.63796      16421.768    
     36300   707.96315     -1200.4706    
     36400   674.59152     -3516.3669    
     36500   646.10369      19877.431    
     36600   647.59434     -13791.694    
     36700   642.97942      880.4101     
     36800   674.5024       20318.027    
     36900   670.98447     -1888.269     
     37000   642.73361     -13879.178    
     37100   681.17546      4428.7822    
     37200   668.50362      318.05272    
     37300   636.74575      19253.727    
     37400   689.78925     -3634.2404    
     37500   682.60463      10957.738    
     37600   643.3352      -6898.2166    
     37700   657.88327      32870.611    
     37800   699.70588      20898.787    
     37900   665.15743      17056.963    
     38000   673.30434     -4257.0843    
     38100   667.61074     -8054.5845    
     38200   704.30659      8655.419     
     38300   660.5042       4978.8827    
     38400   695.22487      14228.17     
     38500   684.06579      1275.3403    
     38600   732.96642      15389.04     
     38700   712.33496      9076.2411    
     38800   684.25058      19003.798    
     38900   698.00889      2819.8231    
     39000   704.44655     -3891.8384    
     39100   683.19685     -12858.785    
     39200   700.53716      5346.7958    
     39300   686.61811      10410.647    
     39400   686.038       -4534.0404    
     39500   692.52746     -8413.7002    
     39600   689.5142      -7545.9078    
     39700   675.54692     -11351.849    
     39800   693.1931       32573.164    
     39900   671.15743      20815.514    
     40000   733.66423      8129.6056    
     40100   713.95734      3872.2519    
     40200   707.8284      -5806.8483    
     40300   710.78058      4939.5218    
     40400   709.52376      15525.286    
     40500   669.67541      18549.602    
     40600   693.56853      5503.5618    
     40700   721.88822      10696.789    
     40800   696.59272      19892.628    
     40900   703.72937      17258.985    
     41000   731.0535       19388.971    
     41100   686.47368      428.61462    
     41200   712.74688     -8947.9206    
     41300   720.49535      18855.447    
     41400   723.38196      26667.069    
     41500   702.06596      11750.057    
     41600   705.05789      5383.3945    
     41700   715.92234     -2224.7351    
     41800   706.61581     -19804.699    
     41900   760.53823      3030.2283    
     42000   697.92488      18239.987    
     42100   720.79382      11480.102    
     42200   758.84091      9030.1347    
     42300   677.38216      7993.3366    
     42400   715.8794       4720.2961    
     42500   758.19172      7885.8609    
     42600   720.11829     -21519.05     
     42700   742.38696      19883.92     
     42800   729.8465       16100.876    
     42900   728.6076       10482.883    
     43000   738.28936      12196.73     
     43100   708.86039      13387.343    
     43200   740.02789      11600.086    
     43300   734.84658      2245.0077    
     43400   710.64476      3457.7764    
     43500   750.45741     -3386.562     
     43600   761.45213      5396.0713    
     43700   689.40477      30712.029    
     43800   734.36764      13224.387    
     43900   755.66952      20109.89     
     44000   700.77963      11777.159    
     44100   763.47907      12887.641    
     44200   723.97772      486.33929    
     44300   759.97836      12637.51     
     44400   751.95005     -1174.2745    
     44500   788.31424      1636.0591    
     44600   748.88852      12397.231    
     44700   727.741        9958.0167    
     44800   737.82966     -3309.0305    
     44900   758.50767      30301.427    
     45000   754.8509       23840.023    
     45100   813.25934      11238.43     
     45200   751.42462     -6473.5054    
     45300   747.27528     -18419.695    
     45400   730.81182      12418.55     
     45500   770.90276      5692.652     
     45600   738.38841      19329.598    
     45700   722.87696      20895.736    
     45800   806.07508      18445.863    
     45900   789.65132      4388.4011    
     46000   737.03272     -6657.2462    
     46100   756.22744      13268.036    
     46200   764.2603      -11036.648    
     46300   756.7188       15924.716    
     46400   720.70312     -19181.448    
     46500   736.99766      12228.433    
     46600   769.91647      9048.3475    
     46700   799.77575      11830.919    
     46800   777.33113      20726.688    
     46900   779.97515      9918.0067    
     47000   791.03359      14963.162    
     47100   791.93752      8163.7936    
     47200   752.81436      1864.3845    
     47300   764.04185      16884.784    
     47400   788.81031      23421.109    
     47500   786.72582      16717.482    
     47600   804.76381      3244.9474    
     47700   765.59194     -7629.2812    
     47800   765.0172       20930.372    
     47900   762.01484      8533.9072    
     48000   779.84089      1116.0986    
     48100   750.11047      22148.427    
     48200   793.81335      20907.566    
     48300   776.91676      20151.453    
     48400   769.34837      2246.7072    
     48500   779.99646      21052.667    
     48600   762.90798     -15635.932    
     48700   777.0906      -1681.3675    
     48800   785.26515      863.97174    
     48900   764.1079      -13391.191    
     49000   789.58625     -9239.0138    
     49100   810.04117      5767.3072    
     49200   782.63514      4193.2054    
     49300   788.86588      12556.2      
     49400   807.68402      1186.4823    
     49500   805.62206     -344.33561    
     49600   787.22908     -13320.833    
     49700   806.87904      7185.5896    
     49800   761.88353      1009.8597    
     49900   808.01713      17919.074    
     50000   793.79689      7044.992     
     50100   757.93711      29462.298    
     50200   819.07778     -14725.196    
     50300   783.17072      19445.508    
     50400   806.60675      13689.588    
     50500   804.53594      2922.3547    
     50600   816.11484      3716.0775    
     50700   771.13582     -1627.6222    
     50800   869.25145     -8877.0801    
     50900   768.96934      1338.7472    
     51000   785.74318      14637.831    
     51100   809.66619      22963.67     
     51200   765.87492      11741.315    
     51300   806.4387       11549.794    
     51400   832.19044      30445.391    
     51500   816.44455     -16925.819    
     51600   741.57174      8520.9833    
     51700   800.62332      3807.6591    
     51800   805.03556     -5356.5699    
     51900   757.53617     -3579.0596    
     52000   804.36344      25422.916    
     52100   850.29789      15321.422    
     52200   833.07416      1636.4373    
     52300   804.26764      1550.3302    
     52400   803.79728      18781.728    
     52500   847.95926      3236.1432    
     52600   824.482        7850.7809    
     52700   861.10147      10305.16     
     52800   812.9214       6019.6079    
     52900   776.99513      24591.017    
     53000   816.37209      12514.078    
     53100   812.96483     -16586.674    
     53200   823.9354      -4163.8298    
     53300   831.64998     -4075.4942    
     53400   823.01143     -10036.908    
     53500   805.3938       12027.109    
     53600   817.96913      2540.6364    
     53700   828.73183     -4812.0071    
     53800   822.3343       20499.94     
     53900   862.38458      20818.911    
     54000   804.64638      13789.899    
     54100   838.21827      474.29607    
     54200   822.07011      2267.7295    
     54300   799.91291      3373.5548    
     54400   814.21913      13935.703    
     54500   850.40959     -20110.668    
     54600   860.68419     -3789.3155    
     54700   789.88804     -1788.2772    
     54800   857.42198      4067.9669    
     54900   896.61504      31982.131    
     55000   901.52589      30578.06     
     55100   846.23884      16631.692    
     55200   892.29155      1900.3415    
     55300   854.30779      252.24183    
     55400   808.84447      11641.09     
     55500   837.74157      22672.727    
     55600   877.90158      8345.2094    
     55700   830.79752     -3171.9421    
     55800   895.98828      15175.329    
     55900   928.40963      4900.5138    
     56000   870.77706     -5871.8327    
     56100   920.41594     -5506.4474    
     56200   845.52157      1815.9179    
     56300   882.38436      12566.748    
     56400   841.34468      24326.493    
     56500   893.12368      8527.5655    
     56600   910.5487      -3914.1424    
     56700   847.18756      5386.1316    
     56800   872.88871      19325.245    
     56900   887.04649      4302.8309    
     57000   906.98334      17580.007    
     57100   887.92902     -4187.6317    
     57200   845.02776      6369.1488    
     57300   837.60781     -24409.917    
     57400   866.96067      3915.7599    
     57500   879.75642      15335.875    
     57600   820.40916      2918.6402    
     57700   913.34927      1954.5532    
     57800   835.76164      23795.414    
     57900   847.05558      2131.0322    
     58000   837.10627     -8310.1315    
     58100   890.44184     -15058.344    
     58200   844.38085     -14207.405    
     58300   843.32272     -17800.074    
     58400   858.47782      4756.6181    
     58500   873.28381      20695.796    
     58600   876.19004      1991.6297    
     58700   873.42768      22563.202    
     58800   884.52542      14182.33     
     58900   904.37108      1026.9169    
     59000   952.54478     -14189.461    
     59100   862.09854      13643.804    
     59200   904.95741     -32495.76     
     59300   899.84769     -1691.4922    
     59400   926.76849      17646.38     
     59500   891.82042      1156.9004    
     59600   897.74266      18982.335    
     59700   914.69162      17687.382    
     59800   898.17707      10560.922    
     59900   869.94063      4402.2895    
     60000   895.00933     -20815.616    
     60100   881.8276       10080.492    
     60200   910.08642     -6766.5338    
     60300   922.7083      -16906.256    
     60400   887.40999      1347.5035    
     60500   940.75134      7141.9496    
     60600   855.89234      25155.06     
     60700   908.46645      12237.63     
     60800   939.37644     -6020.0615    
     60900   873.82429      17639.87     
     61000   929.34371      7650.3226    
     61100   956.21802      6696.695     
     61200   960.4499      -3433.7905    
     61300   877.6135       9210.234     
     61400   889.85103     -15823.38     
     61500   911.4141       27802.149    
     61600   899.52042      5792.371     
     61700   893.59244     -4813.9608    
     61800   912.84871      13864.508    
     61900   950.35752      19414.621    
     62000   913.14498      25548.569    
     62100   948.17562     -2820.806     
     62200   989.2371       8256.9994    
     62300   932.84655     -781.88154    
     62400   902.27042      18075.762    
     62500   933.92637      6870.9641    
     62600   983.951        19268.039    
     62700   899.76108     -3176.5074    
     62800   939.397       -5770.0922    
     62900   915.42962      503.26961    
     63000   915.74103      1523.1302    
     63100   923.2485       15271.117    
     63200   941.7887       861.22436    
     63300   953.83896     -191.77237    
     63400   935.35709     -5056.7081    
     63500   952.7699      -7569.3374    
     63600   913.54308      9937.8682    
     63700   960.71346      13582.235    
     63800   971.67869     -7813.3124    
     63900   908.58545      2067.7056    
     64000   935.67902      26285.747    
     64100   911.24377      609.72321    
     64200   935.21638     -5914.576     
     64300   932.97099     -2050.9309    
     64400   952.32027      3254.3703    
     64500   992.70026      14803.792    
     64600   961.4447       25850.525    
     64700   953.46856      13207.856    
     64800   908.59104      15814.363    
     64900   949.17224     -6656.7599    
     65000   967.27006     -15671.933    
     65100   911.95111     -9364.8743    
     65200   959.27535     -15466.88     
     65300   958.09445      26164.008    
     65400   961.02034      6777.8773    
     65500   988.92968      18942.141    
     65600   925.50531     -2836.0175    
     65700   1001.954       7749.269     
     65800   954.33733      9944.3233    
     65900   906.98979      7154.0803    
     66000   945.69631      13189.209    
     66100   913.81466      1289.5064    
     66200   954.79051      209.63367    
     66300   952.48866      16490.988    
     66400   944.46809      20785.972    
     66500   1021.7336      9335.0005    
     66600   918.64038      12651.49     
     66700   970.18799     -13079.207    
     66800   964.32247     -7655.8214    
     66900   955.37284     -1865.8228    
     67000   975.79395     -25900.586    
     67100   955.95347      18826.996    
     67200   994.80725      5779.5213    
     67300   950.6734      -3305.9185    
     67400   981.36579      24539.594    
     67500   941.98847      6278.7628    
     67600   1009.4381     -5930.891     
     67700   963.39636     -7605.4169    
     67800   972.0155       25665.821    
     67900   913.33113      10013.715    
     68000   988.30007      4600.7028    
     68100   1009.3003      17816.907    
     68200   974.75466      765.27594    
     68300   1014.0423      12972.191    
     68400   954.71982      16357.818    
     68500   973.26375     -10828.481    
     68600   997.45758      1554.9406    
     68700   1023.0717      7824.2827    
     68800   1014.4591     -3065.0369    
     68900   948.6906       59225.576    
     69000   979.03763     -12299.358    
     69100   1004.304       62927.973    
     69200   970.12867      1976.8086    
     69300   1015.7924      17237.252    
     69400   964.14141      13763.29     
     69500   954.46677      6125.1408    
     69600   996.08935      14292.301    
     69700   989.32586      20502.531    
     69800   1026.2235     -5889.476     
     69900   1037.2918     -5504.7041    
     70000   960.86581      5762.349     
     70100   1007.0013      8721.5995    
     70200   975.10123     -13624.212    
     70300   957.48345     -4407.65      
     70400   1017.5763      10259.868    
     70500   991.24761      36058.771    
     70600   1026.7564     -9548.0849    
     70700   1049.0079      4864.8684    
     70800   975.20128      8390.591     
     70900   1006.1771      23562.013    
     71000   992.3798       22561.851    
     71100   999.3012       19544.904    
     71200   1036.8371      25072.882    
     71300   1041.2411      2484.4466    
     71400   1056.6116      31350.926    
     71500   1003.5353      19292.581    
     71600   1033.3758      43753.116    
     71700   1103.3236      34273.705    
     71800   996.54457      16532.203    
     71900   989.83734      16717.871    
     72000   1011.9038      3875.1027    
     72100   1003.0453      12405.731    
     72200   1076.1763      23194.746    
     72300   1078.1746      7254.4817    
     72400   1018.4047      16572.084    
     72500   1010.3124      1502.1036    
     72600   1024.0154      6437.4093    
     72700   1054.1018     -2119.0609    
     72800   1014.7252      267.71321    
     72900   987.64015      15702.173    
     73000   1034.8586     -2860.0629    
     73100   1048.8143      19834.206    
     73200   1033.9755     -3238.7439    
     73300   1017.7363      9568.616     
     73400   1049.4295     -21461.188    
     73500   996.52529     -5797.1881    
     73600   999.10525     -2724.6579    
     73700   1004.0862      2101.4246    
     73800   1014.669       8796.3786    
     73900   1019.351      -7155.5292    
     74000   1036.5938      8306.3681    
     74100   1020.1747      31509.281    
     74200   1017.1338     -9824.263     
     74300   1024.4488      1468.2346    
     74400   978.04111      13991.098    
     74500   1015.2712      3382.7032    
     74600   1051.3078     -9874.466     
     74700   1061.4059     -3056.322     
     74800   1054.3031      13748.967    
     74900   1035.1472     -15448.337    
     75000   1011.8695      14544.85     
     75100   1101.5914      2925.5687    
     75200   1038.5795     -3212.2952    
     75300   1046.2048      8838.5921    
     75400   978.77056      4719.1508    
     75500   1059.5295      197.9407     
     75600   1027.8879      5718.7777    
     75700   1127.8749      27736.651    
     75800   1095.285       7756.8348    
     75900   1085.6451      13817.117    
     76000   1084.3447     -3279.0517    
     76100   1074.2238      18060.124    
     76200   1067.3803      14614.669    
     76300   1043.2063      31861.319    
     76400   1041.1811      13578.101    
     76500   1048.3527      5239.1917    
     76600   1081.5333      20408.925    
     76700   1093.3653      22101.6      
     76800   1077.9296      10372.916    
     76900   1058.437      -7943.9117    
     77000   1080.9012     -7920.0417    
     77100   1070.1626      14320.8      
     77200   1072.3159      18483.035    
     77300   1017.8589      12676.45     
     77400   1050.0175      21076.807    
     77500   1104.3108      30985.401    
     77600   1066.6623      13808.577    
     77700   1091.0071      12041.951    
     77800   1137.2773      7057.361     
     77900   1050.6334      21482.923    
     78000   1039.9178     -5229.4285    
     78100   1095.1597      5876.139     
     78200   1089.2472      10745.759    
     78300   1067.4109      37411.339    
     78400   1066.9278      23619.037    
     78500   1119.0747      6791.2234    
     78600   1124.824       36904.993    
     78700   1110.2186     -10317.597    
     78800   1102.3204      2980.2869    
     78900   1024.0073      2884.6082    
     79000   1099.1413      12915.662    
     79100   1101.7164      38975.484    
     79200   1080.7882     -418.68883    
     79300   1076.687       12136.981    
     79400   1148.4734      7189.0211    
     79500   1085.6738      38753.948    
     79600   1050.7971      23878.299    
     79700   1035.2067      10909.878    
     79800   1136.2225      8728.4771    
     79900   1103.7426     -2466.4548    
     80000   1120.0336     -12559.398    
     80100   1127.2306      23805.741    
     80200   1122.8877      20206.489    
     80300   1125.1715     -2880.2025    
     80400   1088.1292      14391.852    
     80500   1095.5647      7066.9521    
     80600   1145.3973      28806.713    
     80700   1093.9908      3657.3689    
     80800   1110.5327      7078.1197    
     80900   1109.1809      21046.886    
     81000   1071.85       -1613.8444    
     81100   1137.742      -2886.2567    
     81200   1115.022       24216.345    
     81300   1114.7218      32432.633    
     81400   1146.2463      12771.101    
     81500   1159.3213      25135.36     
     81600   1081.0186      10654.084    
     81700   1100.9231      7274.5218    
     81800   1116.3134     -10362.808    
     81900   1129.6427      32528.778    
     82000   1101.5698     -10530.428    
     82100   1088.4067      1474.2717    
     82200   1167.1413      11333.005    
     82300   1154.3099      10136.222    
     82400   1115.0959      17293.634    
     82500   1049.5796      32885.374    
     82600   1143.9505      14385.842    
     82700   1057.8954     -321.39813    
     82800   1103.8626      4496.4299    
     82900   1237.7617     -2134.5633    
     83000   1148.1261      14853.963    
     83100   1102.831      -2536.9958    
     83200   1135.9046      22141.602    
     83300   1116.1145      13571.481    
     83400   1117.4676      7278.3647    
     83500   1108.4762     -4012.0826    
     83600   1151.2865     -23276.371    
     83700   1097.7085      1178.1429    
     83800   1172.4549      580.00336    
     83900   1127.1909      9695.8365    
     84000   1170.4519     -8391.1091    
     84100   1164.7789      32665.628    
     84200   1135.6691      17788.741    
     84300   1105.4008     -2391.1233    
     84400   1161.4929      46938.201    
     84500   1160.084       28071.956    
     84600   1083.7276      35907.514    
     84700   1175.5312      752.4031     
     84800   1180.6142      9564.3791    
     84900   1155.7044      7830.3832    
     85000   1113.8173      20843.32     
     85100   1156.1293      1012.7936    
     85200   1170.3741      25142.043    
     85300   1181.3466      14052.107    
     85400   1135.4401     -3423.9874    
     85500   1229.2382      3803.1906    
     85600   1157.2919      1453.8183    
     85700   1136.1113      15071.92     
     85800   1175.5483      15097.612    
     85900   1143.8605      14370.092    
     86000   1168.1939     -1725.6144    
     86100   1135.4462      8918.4397    
     86200   1180.941       16805.633    
     86300   1148.7226      59174.219    
     86400   1089.0099      4205.9589    
     86500   1226.3256     -8157.6212    
     86600   1167.037       11957.348    
     86700   1259.7319      19152.277    
     86800   1179.217       22697.943    
     86900   1163.6761      28396.223    
     87000   1149.8728      21944.949    
     87100   1229.7015      15847.137    
     87200   1184.0521      26233.496    
     87300   1180.8297      16769.352    
     87400   1153.3765      31000.532    
     87500   1212.4543      13856.007    
     87600   1173.8321      31187.206    
     87700   1196.7031      6894.4035    
     87800   1105.7679     -11940.177    
     87900   1216.0736     -7745.4092    
     88000   1178.4568      35044.547    
     88100   1180.4532      30462.668    
     88200   1129.4939      21206.675    
     88300   1116.0527      6928.8158    
     88400   1171.1579      16317.007    
     88500   1174.1917      4705.3619    
     88600   1183.8364      37553.764    
     88700   1261.3718      8103.4148    
     88800   1190.9593      6277.8923    
     88900   1207.9609      8715.5679    
     89000   1192.5066      21015.904    
     89100   1194.9024      8371.3658    
     89200   1153.4153      16348.802    
     89300   1207.9246      12312.446    
     89400   1153.0452      36124.996    
     89500   1188.0603      57951.515    
     89600   1192.6653      9900.3353    
     89700   1189.2962      24046        
     89800   1185.7004      26570.436    
     89900   1238.2807      33375.823    
     90000   1222.3461      770.568      
     90100   1204.5624      30520.786    
     90200   1198.3243     -6912.9959    
     90300   1141.288       2529.3058    
     90400   1144.837       23680.767    
     90500   1203.0019      26943.003    
     90600   1199.2488      21654.447    
     90700   1093.1132     -17355.788    
     90800   1248.7974     -19739.639    
     90900   1230.9228      27617.259    
     91000   1224.1837      20209.537    
     91100   1236.7042      25865.153    
     91200   1174.1039     -5281.5616    
     91300   1259.2631      4870.8048    
     91400   1186.6269      9626.2281    
     91500   1268.1762     -2130.5608    
     91600   1222.1193      3132.9656    
     91700   1238.4308      26168.943    
     91800   1205.8042      30030.426    
     91900   1260.8212      20219.297    
     92000   1160.535       30038.212    
     92100   1225.5972      12902.016    
     92200   1200.9636      19770.081    
     92300   1266.2939      22678.645    
     92400   1202.4668      17994.376    
     92500   1209.7294      7938.924     
     92600   1160.4438      49169.459    
     92700   1211.134       18021.917    
     92800   1163.0928      30649.475    
     92900   1187.6734      5949.7307    
     93000   1236.3976      41837.866    
     93100   1223.1863      10129.275    
     93200   1164.7881      28285.06     
     93300   1224.7829      15548.152    
     93400   1267.3711      38098.175    
     93500   1249.3669      25598.407    
     93600   1224.2805     -6771.6244    
     93700   1244.988       11580.863    
     93800   1168.0483      25677.198    
     93900   1269.5027     -9964.5827    
     94000   1247.1445      12238.704    
     94100   1175.5684      35492.208    
     94200   1251.4951     -5040.9866    
     94300   1274.3466      14394.728    
     94400   1266.9114      21268.198    
     94500   1283.5667      21035.309    
     94600   1146.3562      18595.491    
     94700   1231.6901      553.31065    
     94800   1261.5902      28073.362    
     94900   1184.9485      19690.183    
     95000   1281.7638      7037.0603    
     95100   1242.1455     -2993.8856    
     95200   1263.1172      22057.028    
     95300   1253.9228     -2039.8189    
     95400   1204.5185      9751.256     
     95500   1159.9465      11464.07     
     95600   1266.7464      13654.96     
     95700   1247.8426      25475.468    
     95800   1222.0091      11127.82     
     95900   1262.8241      33829.931    
     96000   1259.164       13227.108    
     96100   1277.6163      19462.99     
     96200   1295.8501      23705.661    
     96300   1303.5118      22246.182    
     96400   1199.1938      14683.109    
     96500   1323.6317      1747.1398    
     96600   1250.1818      3545.054     
     96700   1249.7247      8864.2229    
     96800   1219.8535      8016.9125    
     96900   1260.7109      9700.2604    
     97000   1282.5435      21807.286    
     97100   1214.1159      33600.106    
     97200   1282.1997      26934.644    
     97300   1321.1828      41180.749    
     97400   1249.2682      378.53205    
     97500   1229.8684      15060.831    
     97600   1305.2086      36518.731    
     97700   1269.8061      396.16366    
     97800   1300.8769     -2876.5863    
     97900   1268.3002      15436.7      
     98000   1296.9741      17072.262    
     98100   1257.2953      3193.2657    
     98200   1272.595       8597.2249    
     98300   1304.2188      509.56507    
     98400   1295.982       7020.8969    
     98500   1380.2299      25932.295    
     98600   1240.1914      15582.483    
     98700   1283.4936      12682.894    
     98800   1184.9283     -11425.462    
     98900   1308.1908      29143.617    
     99000   1280.4379      16730.594    
     99100   1289.5449      15471.024    
     99200   1237.0421      33661.024    
     99300   1357.5319      24840.379    
     99400   1330.8003      16117.525    
     99500   1289.3685     -19139.75     
     99600   1274.3887     -5878.8019    
     99700   1279.8322      19715.088    
     99800   1287.2679      8884.6677    
     99900   1317.9976      7418.7217    
    100000   1292.0359      2811.9756    
    100100   1420.451       20542.342    
    100200   1257.0384      2337.2907    
    100300   1270.8647      1984.9686    
    100400   1305.3919      20017.337    
    100500   1285.4168      33622.366    
    100600   1291.0916     -8326.1483    
    100700   1367.3599      19859.327    
    100800   1312.1006      5115.9224    
    100900   1266.0852      28622.278    
    101000   1268.7316      6959.5314    
    101100   1319.789      -7728.063     
    101200   1322.5505      8538.0888    
    101300   1275.4862      24798.275    
    101400   1312.6232      7339.4246    
    101500   1309.3858      2688.2881    
    101600   1324.8078      23829.51     
    101700   1354.9736      1534.4398    
    101800   1367.8677      17871.233    
    101900   1305.4562      28990.569    
    102000   1353.2247      53860.067    
    102100   1313.5572      18263.193    
    102200   1325.5746      20244.81     
    102300   1255.7525      27515.831    
    102400   1230.2418     -6961.6308    
    102500   1327.6623      629.58793    
    102600   1275.8982      25724.946    
    102700   1373.9794      14619.834    
    102800   1358.2567     -2350.0427    
    102900   1330.5123      4705.7179    
    103000   1360.5099      37057.282    
    103100   1267.8015      23143.022    
    103200   1351.5676      13040.154    
    103300   1295.4848      3272.1779    
    103400   1371.0657     -3022.1667    
    103500   1376.4743      5889.2464    
    103600   1299.3751     -2878.7875    
    103700   1364.9395      25533.974    
    103800   1363.166      -13184.497    
    103900   1340.5646      16395.017    
    104000   1370.1481     -11331.363    
    104100   1353.0174      3305.5505    
    104200   1360.4768      16767.962    
    104300   1382.8433      19102.369    
    104400   1379.7512      12177.81     
    104500   1231.2238      23450.569    
    104600   1399.1752      13917.417    
    104700   1377.2088      3428.2156    
    104800   1386.5334     -14595.435    
    104900   1354.4095     -16872.15     
    105000   1409.5033      3618.9874    
    105100   1344.0274      21760.207    
    105200   1396.613      -9023.9796    
    105300   1321.539       13450.429    
    105400   1333.302       32666.684    
    105500   1320.3985     -9486.0467    
    105600   1335.9397     -5548.8323    
    105700   1363.9762      1125.2728    
    105800   1353.5691      24790.966    
    105900   1416.0062      21568.209    
    106000   1376.6355      4161.4858    
    106100   1315.9474      23016.652    
    106200   1371.7934      18278.257    
    106300   1286.5285      22566.626    
    106400   1371.7134      47139.287    
    106500   1384.1073      24664.493    
    106600   1394.8644      8780.7024    
    106700   1330.256       20595.189    
    106800   1377.9522      23240.204    
    106900   1374.8062      39063.608    
    107000   1293.3939      19414.296    
    107100   1296.4941      4492.6261    
    107200   1391.7703     -5524.4507    
    107300   1331.8128      7208.0045    
    107400   1372.8944      8940.9697    
    107500   1365.2032      18893.688    
    107600   1367.3343      33957.246    
    107700   1349.8213      11739.239    
    107800   1424.55       -2646.8559    
    107900   1381.0632      37819.484    
    108000   1348.2677      31357.802    
    108100   1359.0406      10594.863    
    108200   1285.1155      22873.822    
    108300   1433.7786      17677.446    
    108400   1471.3911      29844.546    
    108500   1289.51        7232.3167    
    108600   1408.6337      19738.624    
    108700   1374.5411      27447.24     
    108800   1426.6752      37810.862    
    108900   1439.1999     -923.2567     
    109000   1346.8512      14050.358    
    109100   1380.5019      1033.9197    
    109200   1415.4387      10710.536    
    109300   1395.246      -3360.6634    
    109400   1413.5556      4770.8589    
    109500   1418.016       22393.991    
    109600   1453.0056     -1693.5952    
    109700   1381.1696      17859.698    
    109800   1387.6019      2461.1565    
    109900   1318.2138     -6847.4495    
    110000   1394.6639     -16647.43     
    110100   1455.1458     -6251.7067    
    110200   1442.4666      15309.02     
    110300   1427.4008      27296.292    
    110400   1454.0757      18950.647    
    110500   1336.2532     -2047.098     
    110600   1384.4694      12101.163    
    110700   1421.6658      35017.769    
    110800   1375.2157      15406.622    
    110900   1465.3552      33707.723    
    111000   1329.6164      3676.639     
