ITEM: TIMESTEP
0
ITEM: NUMBER OF ATOMS
295
ITEM: BOX BOUNDS xy xz yz pp pp pp
-8.3339999999999996e+00 1.5144700000000000e+01 -7.6974000000000000e+00
0.0000000000000000e+00 1.4189300000000001e+01 -6.3660000000000005e-01
0.0000000000000000e+00 1.6498000000000001e+01 5.8050000000000002e-01
ITEM: ATOMS id type q x y z
6 4 1.26505 0.718812 1.57313 6.12331
7 4 1.31209 -0.227476 3.62934 1.78734
8 4 1.23484 -0.657526 3.92434 7.83357
10 4 1.22306 -1.9787 6.43332 5.47624
25 4 1.40861 0.730544 6.03509 3.81084
27 4 0.983452 3.08832 6.33 5.73281
50 1 -0.673435 2.58796 0.931299 2.16848
51 1 -0.681457 2.33723 2.27012 5.53671
52 1 -0.680314 -1.77402 4.6292 1.19039
204 2 0.154818 5.30552 3.25919 2.63506
79 3 -0.790386 -0.0441258 1.03269 4.78767
276 2 0.20425 5.16122 0.631781 0.515609
275 2 0.21789 7.03371 0.795027 0.679726
82 3 -0.804612 0.603496 2.94127 0.564588
84 3 -0.840301 0.0360308 2.75028 6.92438
85 3 -0.775477 -1.99109 5.02513 6.77554
53 1 -0.670283 0.641528 5.15058 8.22352
102 3 -0.766871 0.706109 4.77192 2.70859
103 3 -0.79174 -0.824276 6.40067 4.24397
104 3 -0.865121 4.15902 3.40582 8.19683
106 3 -0.782576 1.6644 5.64487 5.22654
107 3 -0.826765 4.052 5.59025 6.68358
170 2 0.175208 3.05442 0.406522 3.03538
203 2 0.163035 5.13247 1.56626 3.5494
81 3 -0.822729 -0.888898 2.52211 2.76713
173 2 0.175206 2.45968 1.72016 4.50454
174 2 0.210066 3.20322 2.05247 6.22074
175 2 0.229122 2.12746 3.41683 5.41006
176 2 0.170419 -2.05366 5.19663 2.07328
274 1 -0.652818 6.04099 1.33587 0.847982
178 2 0.153273 -1.21843 5.30753 0.365437
277 2 0.173956 5.79185 1.83248 1.87919
205 2 0.187527 4.15834 3.07341 4.12046
171 2 0.220928 1.77275 1.63615 2.45882
249 2 0.167117 4.63646 4.65446 3.03696
180 2 0.205488 1.66779 4.63642 7.85059
250 2 0.22108 3.30884 6.06612 2.6224
179 2 0.186849 0.31742 6.06695 7.66285
63 1 -0.659815 5.12181 2.70692 3.63956
281 2 0.071765 -3.04823 5.80193 7.80742
172 2 0.187969 3.37246 1.46734 1.4615
78 3 -0.748437 0.809079 0.302505 0.0944487
182 2 0.156724 -3.50309 6.27237 3.46041
54 1 -0.679121 -3.61276 6.32594 4.58746
3 4 1.29551 0.0343818 2.51224 15.8606
267 1 -0.665295 -0.478169 1.94592 11.5586
96 3 -0.873208 2.9357 0.842449 8.28022
20 4 1.3806 3.52525 2.15841 8.9224
23 4 1.32927 2.51904 2.66925 13.9858
28 4 1.27732 4.35283 4.43986 12.3563
285 2 0.172788 -0.825214 2.50794 12.4556
61 1 -0.669927 2.02805 3.10826 9.80344
64 1 -0.65179 2.60083 0.967421 12.98
83 3 -0.808457 -1.20994 3.22278 9.13673
100 3 -0.804012 6.15981 0.498883 11.8991
97 3 -0.773179 3.82396 2.54651 15.0916
98 3 -0.830791 1.13545 2.87935 14.753
99 3 -0.822137 4.50992 1.61914 10.1451
108 3 -0.822607 2.93881 3.63985 12.7894
9 4 1.24444 -3.54557 6.98031 8.97334
19 4 1.28602 5.1275 3.18889 15.9752
148 2 0.0127328 0.372307 6.80447 10.8399
206 2 0.165098 1.53526 0.684915 13.0365
269 2 0.175924 0.48425 2.40631 11.0002
181 2 0.155028 0.516139 5.30617 9.37239
266 2 0.163615 -2.20005 3.83783 15.2697
24 4 1.53746 5.76567 1.97318 11.1097
197 2 0.222379 2.16111 2.9969 10.914
198 2 0.195869 1.08895 2.69014 9.39309
199 2 0.191729 2.26846 4.22747 9.47875
259 2 0.022275 0.115388 6.64764 15.1251
208 2 0.200502 2.99287 1.00657 11.8756
110 3 -0.869289 4.09585 5.69328 11.4343
268 2 0.166945 -0.43117 0.814822 11.7428
154 2 -0.0233536 2.11155 7.13323 10.4595
86 3 -0.842935 -2.28478 6.99347 10.0337
109 3 -0.841394 5.38621 3.38137 11.9225
264 1 -0.65956 -1.78002 2.77237 15.2218
257 3 -0.777328 2.7627 6.81353 16.4133
295 2 0.226783 -3.10972 5.39609 11.593
265 2 0.147433 -1.54446 2.41894 14.1527
1 4 1.25035 -5.69583 13.1392 1.06892
4 4 1.24422 -5.44381 13.145 7.74719
12 4 1.03948 -2.74424 9.19048 1.44547
15 4 1.41203 -2.71236 9.02124 7.07251
16 4 1.51896 -4.06901 11.2532 5.42777
30 4 1.20867 1.50889 8.57665 2.11162
31 4 1.35169 -1.33244 11.2128 3.79656
80 3 -0.806807 -6.83211 13.4947 7.18724
56 1 -0.670988 -4.24095 8.67509 2.46482
189 2 0.218117 -0.790937 7.78953 0.588348
57 1 -0.661322 -1.97703 7.77466 0.468568
66 1 -0.642232 -1.08458 12.7228 2.63716
280 3 -0.834333 -4.47763 12.6201 0.219308
111 3 -0.837108 1.59019 7.35779 3.16328
88 3 -0.808799 -3.2158 10.3575 0.368242
90 3 -0.829364 -1.90367 7.81957 6.32253
91 3 -0.833704 -5.32625 11.1685 4.53388
92 3 -0.822143 -3.61379 9.86803 5.98845
93 3 -0.798782 -4.46699 12.4184 6.66465
188 2 0.189981 -5.09028 9.41949 2.32252
112 3 -0.819128 1.2546 7.83639 0.702002
113 3 -0.76851 -1.46911 9.96196 2.74338
114 3 -0.789197 -2.66493 11.7264 4.52622
115 3 -0.78288 -1.6311 10.2603 7.91761
116 3 -0.804083 0.0194294 11.0964 4.62462
155 2 0.0956854 0.0272658 9.41716 2.32462
292 2 0.209719 -1.86443 12.7876 6.97912
65 1 -0.631373 2.52625 8.09087 7.2834
157 2 0.0234218 1.63441 9.56889 6.43427
211 2 0.166879 1.60479 7.41676 7.40789
214 2 0.148049 0.0755875 12.8405 2.59656
213 2 0.183014 -1.50905 12.5534 1.58798
289 2 0.136685 -2.46181 6.97085 1.13685
87 3 -0.790368 -6.38266 11.7302 2.10819
187 2 0.20233 -4.04339 8.49611 3.563
221 2 0.190704 0.554758 10.2821 0.118075
222 2 0.170292 -0.258229 11.878 0.990741
67 1 -0.655357 -1.67802 12.9697 8.1521
212 2 0.180048 -1.63683 13.5391 3.30459
89 3 -0.807565 -3.79481 8.38307 8.2231
183 2 0.177453 -4.09167 7.31156 4.96111
287 2 0.124285 -4.38343 7.70207 1.87655
69 1 -0.670617 0.28343 11.386 0.0154085
11 4 1.02079 -1.19831 7.80128 10.7683
224 2 0.199015 0.384719 10.0867 12.1893
17 4 1.12001 -2.31408 9.55432 13.1746
32 4 1.02252 -1.59523 11.3616 9.04121
34 4 1.23709 -1.36261 11.9725 14.9285
288 2 0.187687 -3.05388 8.39248 15.86
55 1 -0.665067 0.625579 8.31543 9.82304
58 1 -0.670446 -3.75849 8.56752 14.0076
59 1 -0.671444 -3.35087 10.9655 12.2054
216 2 0.199796 -2.60292 13.4229 8.72491
255 4 1.04997 1.36275 7.52336 16.0943
185 2 0.190518 1.30662 8.18849 8.9188
94 3 -0.82653 -1.5537 8.67878 12.0621
95 3 -0.825664 -5.4531 11.3051 14.9042
117 3 -0.764992 -1.44692 10.1444 14.4266
118 3 -0.856048 -0.450775 12.6237 13.7456
119 3 -0.80898 -3.00354 12.5739 15.1488
120 3 -0.773744 -0.117886 11.4395 9.90952
147 2 -0.0456644 -5.68673 12.0255 9.05557
290 2 0.236864 -4.5473 8.53047 13.2041
156 2 -0.0117269 -2.78618 11.0201 10.3167
184 2 0.15935 -0.395444 8.91894 9.43668
186 2 0.160621 1.03053 9.07738 10.6366
191 2 0.199209 -4.02418 9.19061 14.8909
192 2 0.212795 -4.08277 11.3318 12.9923
193 2 0.153151 -3.91635 10.3509 11.401
194 2 0.19718 -2.67607 11.8241 11.8428
258 2 0.136475 1.97781 8.86298 14.3879
260 2 0.152669 0.801078 7.59551 13.4693
190 2 0.164683 -3.39238 7.53414 14.2423
256 1 -0.652865 0.901537 8.24439 14.4062
261 2 0.262984 -0.0604532 9.08695 14.4397
14 4 1.52866 -4.33991 12.0614 15.8714
215 2 0.19279 -0.747512 13.51 8.344
207 2 0.221284 -4.39484 13.8728 13.6275
2 4 1.34788 13.6961 1.44633 3.79732
21 4 1.14804 6.61826 3.47911 4.74251
251 2 0.146346 5.16749 6.44404 2.83146
36 4 1.21137 9.2277 1.76616 4.76826
248 1 -0.655445 6.27488 6.75427 0.271896
40 4 1.22469 11.7771 2.07087 6.10029
43 4 1.00883 10.5288 2.95697 2.07312
235 2 0.193838 8.71598 3.60661 0.453137
62 1 -0.675017 7.27441 5.06162 3.78168
228 2 0.161265 8.51635 1.06683 7.96201
74 1 -0.676155 9.25334 4.11188 1.32717
105 3 -0.808642 5.825 3.89499 6.06042
122 3 -0.818366 7.82672 2.45125 4.87046
125 3 -0.862679 12.4483 1.76603 4.68508
126 3 -0.806805 10.1103 2.22772 6.06075
127 3 -0.837959 12.1534 1.00112 7.22961
133 3 -0.796501 9.94059 2.22836 3.35872
134 3 -0.76755 11.2287 1.82677 1.00009
234 2 0.18178 8.47873 4.43237 2.19707
286 2 0.139726 10.9888 5.37243 5.04807
162 2 0.0845494 12.3683 3.69692 6.37794
164 2 0.00222318 11.8562 4.0075 2.34179
200 2 0.156982 8.4401 5.03054 3.96502
246 4 1.09686 4.84368 5.57694 0.581405
37 4 0.990527 10.5735 0.486131 0.218291
236 2 0.121748 9.99538 4.98926 1.05567
201 2 0.161215 6.79562 5.84672 4.41766
202 2 0.163478 6.85411 4.84652 2.78139
151 2 -0.00458712 4.0925 6.60401 4.3383
161 2 0.0997146 7.54368 3.91041 8.07776
283 2 0.179844 13.4975 0.191342 1.83692
26 4 1.46731 5.03223 4.4674 7.38098
177 2 0.170062 12.5674 3.99515 0.772731
247 1 -0.665796 4.43887 5.71412 2.56727
101 3 -0.794487 5.42436 4.13269 0.178585
152 2 0.0199233 5.09377 5.16768 13.7571
241 2 0.146154 6.8954 5.89701 13.4027
227 2 0.223738 10.154 1.83417 8.58998
39 4 1.04115 8.22837 2.9006 9.28047
41 4 1.22741 8.03617 2.3372 14.7937
42 4 0.980913 10.6539 3.54912 11.5719
45 4 1.22249 8.8147 6.68119 10.4682
29 4 0.981863 3.73444 6.91688 10.6031
72 1 -0.674856 9.40096 3.80574 14.8528
73 1 -0.687336 11.2805 5.03188 12.3869
284 2 0.175538 12.7458 1.99656 15.7106
242 2 0.168318 5.34116 6.95628 12.9114
252 2 0.173055 6.56654 6.82702 16.3202
124 3 -0.804252 7.02927 2.37098 10.219
128 3 -0.822924 8.13372 1.55945 13.3032
129 3 -0.815632 8.52686 1.3134 16.0864
130 3 -0.799981 6.5776 3.06288 15.2772
131 3 -0.795117 11.9715 2.83484 11.0077
132 3 -0.757485 9.2538 3.7692 10.2829
71 1 -0.643499 9.15848 1.35059 8.85257
44 4 1.21395 6.37539 6.82195 8.6924
135 3 -0.792114 6.44388 5.15508 8.32844
137 3 -0.795759 10.2488 6.57929 9.67784
163 2 0.0206839 10.111 3.06416 13.1166
165 2 0.0840659 8.31446 5.0767 10.7577
233 2 0.182992 10.3178 5.67917 12.3907
229 2 0.153563 9.00218 4.43028 14.0328
230 2 0.157017 10.4213 3.36667 14.7716
231 2 0.174406 9.21487 4.19813 15.9512
232 2 0.163987 11.7098 4.96792 13.389
5 4 1.2056 13.2562 2.16943 10.3375
76 1 -0.68341 6.27881 6.81245 13.5745
240 2 0.1721 6.01071 7.01867 14.7778
226 2 0.278149 9.01881 0.657988 9.82987
136 3 -0.783298 4.57539 7.13335 9.36208
13 4 1.03032 8.50094 11.2765 3.65055
263 2 0.171566 4.24261 13.4397 2.97755
46 4 0.894822 3.60417 10.4922 3.11641
68 1 -0.645014 1.67146 12.4492 6.45384
75 1 -0.675502 6.376 7.80085 7.034
139 3 -0.808851 2.72928 9.71284 2.02981
140 3 -0.831257 2.80084 10.9059 4.42288
238 2 0.185202 7.38046 8.23138 7.04813
149 2 0.0758681 7.23588 12.3028 4.43029
210 2 0.22463 3.42177 7.83525 7.85362
160 2 0.0927197 6.70902 13.4225 7.53873
166 2 -0.0167509 4.47044 11.775 2.38688
167 2 -0.0169578 5.00005 9.55855 3.46109
209 2 0.0620546 2.88768 8.21858 5.9881
217 2 0.207156 2.70917 12.8153 6.025
218 2 0.200256 1.84443 11.9583 7.52242
159 2 0.011641 2.81056 12.5935 1.2047
141 3 -0.818027 4.40231 12.1369 7.94373
294 2 0.170403 4.74569 12.3801 0.288292
38 4 1.26963 5.13351 13.5214 8.19185
158 2 0.000239304 1.36766 13.6851 4.91499
262 1 -0.652814 5.37215 13.4618 2.91517
219 2 0.170169 0.808739 13.1889 6.45861
270 1 -0.659673 6.5926 10.6325 3.9488
271 2 0.15802 5.87633 10.4028 4.79202
272 2 0.0742718 7.66474 9.51356 3.81236
273 2 0.121201 6.14732 10.8331 2.89575
282 2 0.152349 5.85468 12.4282 3.35883
33 4 1.0231 1.50926 10.9378 5.34532
239 2 0.149681 5.57773 8.61409 7.16374
291 2 0.247164 8.06486 10.9603 0.733387
150 2 0.0218315 8.95602 9.16277 0.158438
168 2 0.0128442 3.39288 9.6326 8.04409
253 2 0.132586 6.43027 7.00315 1.431
237 2 0.168057 6.10644 7.03056 6.25054
18 4 1.04225 8.34789 10.4525 15.0366
293 2 0.120398 3.72312 13.9793 15.1526
245 2 0.143656 6.14263 11.7852 12.5712
47 4 1.2661 3.87533 11.033 9.05207
48 4 1.17755 7.43299 8.08766 12.7811
49 4 1.10087 6.24674 10.257 10.918
244 2 0.144211 7.85284 12.313 11.6879
225 2 0.177704 1.78817 11.0984 13.0866
77 1 -0.662302 6.76671 12.0413 11.5262
121 3 -0.740224 1.13969 13.2366 11.4296
60 1 -0.663508 6.99127 11.0698 16.2075
35 4 1.29835 1.3077 11.7196 10.7401
142 3 -0.821063 2.60537 11.5096 9.82173
143 3 -0.782899 8.87704 7.43426 11.9949
144 3 -0.747702 8.0035 9.22759 14.0453
145 3 -0.844229 5.0435 10.5724 9.99369
146 3 -0.815288 6.39803 9.06113 11.8683
278 1 -0.672879 3.31107 13.1948 16.1057
153 2 -0.0129986 3.94244 8.25754 11.584
279 2 0.173398 2.85065 12.261 15.6552
169 2 0.000541687 7.73438 10.9559 10.2453
223 2 0.139946 2.23307 9.56525 11.8964
196 2 0.132101 6.72101 11.8893 15.2097
243 2 0.253975 6.23109 12.8921 10.8913
220 2 0.19485 0.562243 12.6547 16.1349
70 1 -0.666229 1.50794 10.4135 12.1618
254 2 0.157528 5.37413 8.26879 16.1694
195 2 0.156671 6.09315 10.3858 16.4026
22 4 1.4812 -0.165029 13.7761 12.7276
138 3 -0.841414 7.6846 7.22394 9.52021
123 3 -0.785526 5.33738 13.9424 9.74278
ITEM: TIMESTEP
100
ITEM: NUMBER OF ATOMS
295
ITEM: BOX BOUNDS xy xz yz pp pp pp
-8.3339999999999996e+00 1.5144700000000000e+01 -7.6974000000000000e+00
0.0000000000000000e+00 1.4184251766666668e+01 -6.3660000000000005e-01
0.0000000000000000e+00 1.6498000000000001e+01 5.7545176666666720e-01
ITEM: ATOMS id type q x y z
6 4 1.24344 0.667926 1.57933 6.06558
7 4 1.28488 -0.21679 3.77626 2.02618
8 4 1.21713 -0.744565 3.94872 7.84225
10 4 1.28454 -1.81662 6.49092 5.63549
25 4 1.44166 0.738718 6.13687 3.85563
27 4 1.02319 3.14282 6.37877 5.70361
50 1 -0.675001 2.65474 0.840146 2.28263
51 1 -0.671552 2.17601 2.48118 5.33078
52 1 -0.66004 -1.81442 4.63713 1.42057
204 2 0.165998 4.92618 3.19091 2.74659
79 3 -0.818616 -0.207101 0.942886 4.81037
276 2 0.210845 5.19187 0.721984 0.639403
54 1 -0.661246 -3.32405 6.5366 4.51027
82 3 -0.789523 0.45424 3.22559 0.58077
84 3 -0.817944 0.105779 2.85166 6.8622
85 3 -0.801024 -2.10007 5.05335 6.82039
182 2 0.162832 -2.98774 6.72295 3.41516
102 3 -0.824299 0.727058 5.01477 2.77558
103 3 -0.818322 -0.662714 6.49894 4.48483
104 3 -0.828958 4.30591 3.14777 7.9126
106 3 -0.771252 1.76135 5.73111 5.36375
107 3 -0.817902 3.99996 5.66249 6.7632
170 2 0.188297 3.26048 0.215939 3.02734
203 2 0.159389 5.58942 1.63503 3.73502
81 3 -0.828025 -0.817252 2.52173 2.91254
173 2 0.169137 2.08367 1.94096 4.25846
174 2 0.212869 3.13541 2.25878 5.89035
175 2 0.252903 1.96862 3.59234 5.25825
176 2 0.130342 -2.39988 5.26024 2.25637
274 1 -0.679977 6.06536 1.42558 0.934564
178 2 0.16489 -1.28734 5.36719 0.627203
277 2 0.167764 5.85872 1.9021 2.0038
205 2 0.18885 4.06962 2.61077 4.40067
171 2 0.183212 1.62086 1.20713 2.68964
249 2 0.184866 4.42177 4.55927 2.98641
180 2 0.204076 1.36125 5.04322 7.7576
250 2 0.217726 3.20611 6.02934 2.32692
247 1 -0.631429 4.30767 5.60346 2.47481
63 1 -0.642553 5.09605 2.71668 3.78273
281 2 0.075352 -3.19659 5.55404 7.92832
172 2 0.183151 3.27783 1.65902 1.74753
78 3 -0.725568 0.801449 0.365788 0.0683643
96 3 -0.827222 3.04655 0.768323 8.12359
3 4 1.2241 -0.121166 2.61357 15.9072
267 1 -0.659387 -0.425567 1.96946 11.5351
265 2 0.169688 -1.43153 2.67298 13.9284
20 4 1.33752 3.63974 2.0741 8.88634
23 4 1.27784 2.70468 2.71858 14.0916
28 4 1.24402 4.39008 4.48029 12.2867
285 2 0.188267 -0.652346 2.51 12.4981
61 1 -0.677351 2.16249 2.9846 9.80986
64 1 -0.656094 2.8279 1.04226 13.175
83 3 -0.822339 -1.30483 3.17564 9.11235
53 1 -0.679054 0.402017 5.24039 8.46468
97 3 -0.772238 3.96221 2.76033 15.075
98 3 -0.752677 1.01299 2.70332 14.6684
99 3 -0.820709 4.41271 1.55266 10.3084
108 3 -0.769849 2.95356 3.91813 12.9088
9 4 1.29229 -3.57036 6.83198 8.98282
19 4 1.22365 5.29619 3.2634 16.0384
148 2 0.0227722 0.451494 6.87201 10.733
206 2 0.193986 1.72721 0.75623 13.4397
269 2 0.177279 0.559346 2.33365 11.0209
181 2 0.175118 0.575168 4.87187 9.53353
295 2 0.186673 -2.6923 5.14219 11.7507
24 4 1.5074 5.75712 1.94135 11.0822
197 2 0.211209 2.30807 2.82212 10.9277
198 2 0.179341 1.25348 2.5056 9.33381
199 2 0.207355 2.39736 3.98828 9.49423
259 2 0.0174194 0.380217 6.46609 14.931
208 2 0.210053 2.95202 1.33711 12.0958
110 3 -0.847405 3.9424 5.44482 11.1478
268 2 0.176702 -0.477382 0.807731 11.6744
257 3 -0.787837 2.79588 6.89435 16.3403
86 3 -0.847358 -2.37277 6.85205 9.93168
109 3 -0.823563 5.40426 3.25621 12.0437
179 2 0.184349 0.0122544 6.2818 8.2957
190 2 0.164551 -3.30146 7.28809 14.2547
1 4 1.23642 -5.65049 13.2536 0.983795
4 4 1.22057 -5.44209 13.0681 7.59766
12 4 0.998913 -2.76737 9.2043 1.46211
15 4 1.47526 -2.8171 9.05211 7.19513
16 4 1.4897 -4.08347 11.2224 5.5241
30 4 1.19892 1.35851 8.51933 2.10389
31 4 1.30978 -1.32047 11.2804 3.88772
80 3 -0.801044 -6.89215 13.4774 7.04975
56 1 -0.675886 -4.30405 8.80456 2.53649
189 2 0.200354 -0.948576 7.76724 0.667923
57 1 -0.670083 -2.05001 7.81659 0.435462
66 1 -0.66405 -1.17107 12.6205 2.53339
280 3 -0.826087 -4.38306 12.7573 0.118788
111 3 -0.831097 1.61288 7.507 3.3409
88 3 -0.806133 -3.28586 10.3944 0.350777
90 3 -0.79431 -1.77528 7.87381 6.32199
91 3 -0.795253 -5.35502 11.2359 4.4
92 3 -0.82064 -3.91911 9.74789 6.18602
93 3 -0.826301 -4.42842 12.3148 6.63472
188 2 0.165091 -5.14232 9.33042 1.99117
112 3 -0.807642 1.21719 7.66364 0.67497
113 3 -0.755827 -1.54709 9.9911 2.8287
114 3 -0.790151 -2.58602 11.6688 4.74778
115 3 -0.839318 -1.83948 10.1588 7.97214
116 3 -0.774418 0.116274 11.1319 4.7316
155 2 0.0928124 -0.126845 9.36833 2.44082
292 2 0.209314 -1.36326 12.7844 7.34088
65 1 -0.638719 2.53909 8.09397 7.18214
157 2 0.0130129 1.71067 9.77199 6.69671
211 2 0.187416 1.73526 7.34667 7.36183
214 2 0.155435 -0.0505283 12.6253 2.3983
213 2 0.201491 -1.8712 12.5307 1.64029
289 2 0.119614 -2.68447 6.97008 1.00374
87 3 -0.774188 -6.47362 11.8686 1.96546
187 2 0.21753 -4.11971 9.29605 3.57274
69 1 -0.667271 0.181782 11.1556 0.006226
222 2 0.189611 -0.42098 11.6088 0.948923
183 2 0.193692 -3.89105 7.43853 4.9599
212 2 0.170449 -1.52331 13.4702 3.23054
89 3 -0.846265 -3.66532 8.19275 8.19073
11 4 0.981575 -1.21103 7.75121 10.6512
224 2 0.201555 0.394014 9.74065 12.0557
17 4 1.08484 -2.45445 9.41439 13.1332
32 4 1.02962 -1.60937 11.19 9.14689
34 4 1.23852 -1.31507 11.8808 14.8808
288 2 0.192899 -2.98251 8.42419 15.7915
55 1 -0.659529 0.575261 8.36938 9.74442
58 1 -0.665608 -3.81508 8.2386 13.9023
59 1 -0.682857 -3.25531 11.0566 12.34
216 2 0.194031 -2.83484 13.0186 8.60385
255 4 1.06165 1.34309 7.46671 15.9978
185 2 0.184377 1.28104 8.26405 8.79328
94 3 -0.803969 -1.58536 8.54287 12.0045
95 3 -0.786618 -5.52483 11.3684 14.7132
117 3 -0.750336 -1.50945 10.0016 14.3019
118 3 -0.822928 -0.298799 12.5986 13.8745
119 3 -0.799383 -2.91134 12.489 15.1274
120 3 -0.793291 -0.103279 11.381 9.89211
147 2 -0.0461512 -5.75698 12.0686 8.90211
290 2 0.215658 -4.57641 8.1457 13.0665
156 2 -0.0192389 -2.76303 10.9108 10.4542
184 2 0.152558 -0.503137 8.8462 9.29268
186 2 0.177255 0.953878 9.07171 10.6029
191 2 0.163306 -4.1862 8.88804 14.7694
192 2 0.229946 -3.90016 11.3673 13.238
193 2 0.144046 -3.88487 10.648 11.499
194 2 0.218389 -2.53726 11.8296 12.0414
258 2 0.148972 1.9344 8.88745 14.2646
260 2 0.151443 0.92771 7.46466 13.5008
207 2 0.243248 -4.09774 13.9524 13.643
256 1 -0.672085 0.937389 8.2399 14.3298
261 2 0.264187 -0.0689275 8.90042 14.348
14 4 1.45547 -4.34451 12.1078 15.8289
215 2 0.220365 -1.00729 13.6143 9.08423
244 2 0.155984 -7.08687 12.2442 11.2488
100 3 -0.789828 -1.53803 13.9834 11.8912
67 1 -0.638534 -1.6696 12.9078 8.44444
154 2 -0.00802658 2.244 7.30375 9.98587
70 1 -0.672708 1.40035 10.3591 12.069
221 2 0.178784 -0.293366 10.5469 16.4553
2 4 1.34914 13.7332 1.34064 3.82905
21 4 1.14909 6.63729 3.40056 4.84121
251 2 0.0979056 5.21779 6.55393 2.64545
36 4 1.19635 9.18724 1.78411 4.71183
101 3 -0.746818 5.3658 4.28884 0.328098
40 4 1.25453 11.7461 2.12401 6.0701
43 4 0.974621 10.6643 2.94933 2.13342
235 2 0.181878 8.74023 3.46267 0.503304
62 1 -0.670097 7.55623 4.9152 3.90228
228 2 0.173491 8.87271 1.03559 8.06942
74 1 -0.653038 9.28239 4.00643 1.33542
105 3 -0.831541 5.8663 4.03383 6.03998
122 3 -0.80347 7.63732 2.11039 5.07811
125 3 -0.86398 12.4506 1.76541 4.68639
126 3 -0.820791 10.1344 2.37567 5.94507
127 3 -0.875769 12.2401 1.1674 7.20797
133 3 -0.824376 9.79186 2.3636 3.38029
134 3 -0.795435 11.0741 1.83288 0.903465
234 2 0.183689 8.5754 4.3204 2.24519
286 2 0.136649 11.273 5.51648 4.65166
162 2 0.0894092 12.2055 3.6943 6.57394
164 2 0.0105966 12.0845 3.783 2.6793
200 2 0.169896 8.61484 4.59767 3.82869
246 4 1.10473 4.7943 5.75795 0.60251
37 4 1.02011 10.4639 0.506958 0.267417
236 2 0.119105 10.0177 4.82487 0.938199
201 2 0.15889 7.26418 5.70138 4.71173
202 2 0.151109 7.03909 5.18438 2.85
151 2 0.00697518 3.97538 6.55299 4.16825
252 2 0.168996 7.14389 6.32225 0.328276
275 2 0.204505 7.08151 0.985067 0.852049
26 4 1.52369 5.10548 4.46934 7.31566
177 2 0.150681 12.6755 3.84143 0.868082
152 2 0.0222717 5.12542 5.36609 13.5773
241 2 0.166665 6.86919 5.95702 13.4599
227 2 0.22184 10.4257 1.71807 9.01052
39 4 1.04074 8.33786 2.92086 9.32645
41 4 1.2404 7.9152 2.31747 14.7699
42 4 0.971616 10.7446 3.58449 11.6173
45 4 1.23129 8.71537 6.60632 10.3879
29 4 0.93644 3.83288 6.88287 10.5121
72 1 -0.656116 9.36954 3.5915 14.8641
73 1 -0.665285 11.3034 5.23526 12.2171
284 2 0.188139 12.9509 1.42168 15.1727
242 2 0.1355 5.44093 7.11401 12.96
264 1 -0.656101 13.4045 2.40427 15.0307
124 3 -0.812259 7.01828 2.27311 10.1476
128 3 -0.796908 8.07988 1.57151 13.2822
129 3 -0.792822 8.41238 1.1127 16.083
130 3 -0.809317 6.63474 3.26356 15.0716
131 3 -0.771454 11.9411 2.64814 11.1587
132 3 -0.779351 9.38554 3.66813 10.2669
71 1 -0.631385 9.31982 1.3528 9.06793
44 4 1.2351 6.31576 6.92801 8.66759
135 3 -0.806968 6.26624 4.98551 8.30127
137 3 -0.824305 10.1093 6.62695 9.67601
163 2 0.0255415 10.1242 3.02774 13.1138
165 2 0.0637071 8.40525 4.96246 10.717
233 2 0.228302 10.7752 6.17834 11.9698
229 2 0.157602 9.23167 4.33187 14.0548
230 2 0.153598 10.3864 3.04044 14.8367
231 2 0.174063 9.14404 4.08878 15.987
232 2 0.127425 11.2895 4.98463 13.4028
5 4 1.25492 13.2989 2.07163 10.2743
76 1 -0.67482 6.3239 6.92125 13.6437
240 2 0.179166 6.11997 7.18112 14.8197
226 2 0.296238 9.22559 0.592029 9.9837
266 2 0.14904 12.7326 3.27803 15.4598
123 3 -0.815762 13.034 0.543993 9.66493
293 2 0.146583 11.4151 0.547706 15.2075
161 2 0.0923293 7.6758 4.12734 8.35101
13 4 1.02219 8.4624 11.2458 3.49825
263 2 0.16038 4.32144 13.5395 2.72985
46 4 0.895941 3.43799 10.5007 3.11525
68 1 -0.654279 1.65945 12.6236 6.38695
75 1 -0.672477 6.57973 8.04532 7.10069
139 3 -0.789586 2.63052 9.54728 2.04216
140 3 -0.825608 2.63815 11.1019 4.28372
238 2 0.191939 7.571 8.52994 7.29496
149 2 0.108465 6.9872 12.2113 4.48827
210 2 0.201738 3.39997 7.9759 7.87816
160 2 0.0922899 6.73893 13.4486 7.62275
166 2 -0.00907162 4.23226 11.8633 2.40931
167 2 -0.0346263 4.85488 9.70989 3.61464
209 2 0.0792774 2.8987 8.30072 5.98346
217 2 0.184745 2.46473 13.297 6.01344
218 2 0.181375 1.98495 12.0813 7.41659
159 2 -0.00491532 3.0044 12.6733 1.26602
141 3 -0.842167 4.44184 12.2194 8.14278
294 2 0.165112 4.96924 12.5908 0.35134
38 4 1.28022 5.13246 13.6191 8.11804
158 2 0.0168673 1.38285 13.7179 4.68433
262 1 -0.683415 5.4342 13.3829 2.71554
219 2 0.179489 0.686617 13.1888 6.55974
270 1 -0.668303 6.66533 10.6584 3.91428
271 2 0.156535 6.25742 9.93955 4.68516
272 2 0.0357362 7.98565 9.4596 3.39349
273 2 0.129545 6.09015 10.6536 2.98251
282 2 0.162303 5.78655 12.3802 3.17134
33 4 1.03727 1.54528 11.0085 5.43801
239 2 0.146152 5.59827 8.7237 7.15402
291 2 0.253603 8.03729 10.8997 0.724028
150 2 0.00205994 9.28782 9.08691 0.347228
168 2 -0.00137491 3.42897 9.70417 7.89386
253 2 0.137929 6.23238 7.71244 1.1672
237 2 0.151362 6.63413 7.35239 6.26906
287 2 0.149033 10.6243 7.72237 2.65484
248 1 -0.674393 6.25066 7.02832 0.297592
283 2 0.197813 5.94617 13.6504 1.77955
195 2 0.168939 7.01887 9.45659 0.0047317
18 4 1.03527 8.53353 10.2496 15.1618
22 4 1.44814 -0.134715 13.7602 12.645
245 2 0.151028 6.6233 11.9827 12.4518
47 4 1.25274 3.9075 10.9621 9.001
48 4 1.26577 7.47138 8.2497 12.8493
49 4 1.11764 6.19096 10.3595 10.8635
138 3 -0.8351 7.56645 7.25928 9.54568
225 2 0.188395 1.49686 11.0694 12.9966
77 1 -0.688316 6.9532 12.1376 11.28
121 3 -0.77625 1.17486 13.2559 11.4192
60 1 -0.681492 7.13909 10.8009 16.2925
35 4 1.3054 1.24236 11.7446 10.6985
142 3 -0.797811 2.52664 11.4247 9.74564
143 3 -0.778404 8.6104 7.36092 11.9637
144 3 -0.792935 8.01783 9.15265 14.083
145 3 -0.860775 5.01808 10.3489 9.87781
146 3 -0.806232 6.52957 9.20856 11.8183
278 1 -0.654569 3.4289 13.4106 16.1187
153 2 -0.0280834 4.1063 8.00964 11.7434
279 2 0.166667 2.85722 12.4699 15.7811
169 2 0.0132113 7.69393 10.8377 10.0696
223 2 0.148952 2.31609 9.74608 11.9412
196 2 0.15113 6.70388 11.5683 15.3727
243 2 0.231591 6.39402 12.9099 10.6545
220 2 0.202712 0.485665 12.3348 16.2986
254 2 0.161656 5.41475 8.20656 15.8405
136 3 -0.80572 4.83413 7.21823 9.31762
ITEM: TIMESTEP
200
ITEM: NUMBER OF ATOMS
295
ITEM: BOX BOUNDS xy xz yz pp pp pp
-8.3339999999999996e+00 1.5144700000000000e+01 -7.6974000000000000e+00
0.0000000000000000e+00 1.4179203533333334e+01 -6.3660000000000005e-01
0.0000000000000000e+00 1.6498000000000001e+01 5.7040353333333371e-01
ITEM: ATOMS id type q x y z
6 4 1.21923 0.627405 1.66058 5.9341
7 4 1.33459 -0.20861 3.94235 2.01875
8 4 1.20553 -0.83732 4.08655 7.84487
10 4 1.22032 -1.9011 6.59995 5.65586
25 4 1.45706 0.882156 5.97957 4.09711
27 4 1.02453 3.2536 6.28639 5.85242
50 1 -0.679388 2.65012 0.9242 2.2853
51 1 -0.675745 2.27519 2.23293 5.21321
52 1 -0.673416 -1.79271 4.88056 1.39518
204 2 0.170312 4.74566 3.03633 2.44944
79 3 -0.807795 -0.112322 0.911184 4.64817
276 2 0.209357 5.56609 0.690138 0.461687
54 1 -0.683757 -3.40678 6.64854 4.58077
82 3 -0.758499 0.326861 3.29757 0.643349
84 3 -0.812725 -0.121738 2.86121 6.82399
85 3 -0.773559 -2.26447 5.14234 6.9353
182 2 0.15646 -3.0792 6.63462 3.50045
102 3 -0.832969 0.761478 4.80998 2.98169
103 3 -0.805219 -0.607417 6.26412 4.67372
104 3 -0.818648 4.45465 3.12882 7.99221
106 3 -0.822173 1.96058 5.6015 5.35603
107 3 -0.844071 4.14429 5.49446 6.82608
172 2 0.191685 3.64465 1.33027 2.0359
203 2 0.154488 5.45862 1.65267 3.41685
81 3 -0.796533 -0.935936 2.67357 2.76794
173 2 0.184528 2.43845 1.72115 4.11173
174 2 0.20362 2.94559 1.85291 6.09738
175 2 0.227611 2.02603 3.38593 5.17513
176 2 0.133813 -2.401 5.3843 2.24078
274 1 -0.654984 6.2213 1.5548 0.811694
178 2 0.173435 -1.25428 5.66571 0.84684
277 2 0.160027 5.8631 1.99587 1.84303
205 2 0.201166 3.93142 2.67423 4.13676
171 2 0.208384 1.80796 1.72346 2.16158
249 2 0.168964 4.71532 4.64571 2.96454
180 2 0.18748 1.301 4.90993 7.89819
250 2 0.188585 3.33204 6.06235 2.79805
78 3 -0.804269 0.915069 0.577509 0.237516
63 1 -0.674742 4.92109 2.70632 3.44631
177 2 0.150304 -2.38066 4.19645 0.736382
170 2 0.183984 2.61198 0.353281 3.26133
3 4 1.21552 -0.091951 2.51831 15.9422
267 1 -0.673817 -0.390272 2.03261 11.4716
265 2 0.149585 -1.93207 3.13574 14.4522
20 4 1.36566 3.63081 2.06749 8.88657
23 4 1.31702 2.69031 2.70821 14.1532
28 4 1.26835 4.37663 4.49275 12.2052
285 2 0.188147 -0.60896 2.5034 12.4559
61 1 -0.683345 2.16772 3.09787 9.70889
64 1 -0.669168 3.02431 0.944326 13.45
83 3 -0.792097 -1.44919 3.29292 9.09735
53 1 -0.68859 0.349679 5.32315 8.47571
97 3 -0.808669 3.8476 2.84583 15.3482
98 3 -0.752836 1.23583 2.95989 14.7693
99 3 -0.826068 4.60083 1.47368 10.1077
108 3 -0.769988 2.97869 3.87194 12.9077
9 4 1.29775 -3.59542 6.69774 9.06403
19 4 1.33942 5.11633 3.40099 16.0121
148 2 0.00863982 0.451186 6.68974 10.9467
207 2 0.276601 3.99789 0.498157 13.819
269 2 0.178215 0.520481 2.4461 10.888
181 2 0.176166 0.41568 5.20874 9.5519
295 2 0.21758 -2.60031 5.14021 11.9027
24 4 1.52569 5.74337 1.91667 11.1264
197 2 0.197685 2.16921 2.79682 10.7621
198 2 0.1869 1.26854 2.85242 9.10187
199 2 0.197569 2.58928 4.15505 9.50225
259 2 0.0291818 0.17406 6.65886 15.1734
208 2 0.188322 3.04771 0.967994 12.3256
110 3 -0.884449 4.19239 5.41546 10.9858
268 2 0.169883 -0.341743 0.90595 11.5806
257 3 -0.749954 2.77472 6.83699 16.3557
86 3 -0.820203 -2.28623 6.5279 9.86319
109 3 -0.839356 5.22229 3.24922 11.9593
100 3 -0.77815 6.06368 0.621715 12.1375
154 2 0.00475241 2.11853 6.75755 10.0611
96 3 -0.845244 2.9171 0.815691 8.26413
179 2 0.185426 0.112427 6.40183 8.25728
1 4 1.28156 -5.6236 13.3318 0.934352
4 4 1.22337 -5.42812 13.1154 7.57694
12 4 1.02367 -2.89635 9.33648 1.63893
15 4 1.49425 -2.86648 9.0353 7.21211
16 4 1.48231 -4.09734 11.1933 5.47842
30 4 1.22675 1.4367 8.53438 2.21394
31 4 1.33345 -1.4205 11.2135 3.79894
80 3 -0.786168 -6.83853 13.6789 7.03008
56 1 -0.683411 -4.47917 8.7098 2.49188
189 2 0.202076 -1.09892 7.95741 0.566729
57 1 -0.67602 -2.20805 7.93629 0.488957
66 1 -0.652901 -1.18617 12.666 2.59252
280 3 -0.807963 -4.31997 12.8645 0.0341708
111 3 -0.842842 1.48879 7.42996 3.43899
88 3 -0.82585 -3.29129 10.5149 0.573731
90 3 -0.793372 -1.74766 8.05825 6.4178
91 3 -0.788334 -5.37538 11.0759 4.3187
92 3 -0.814517 -3.89557 9.60499 6.09481
93 3 -0.852851 -4.50169 12.3615 6.53702
212 2 0.179621 -1.67818 13.5881 3.07435
112 3 -0.843391 1.15546 7.89077 0.773442
113 3 -0.802257 -1.44003 9.96174 2.88665
114 3 -0.818004 -2.79292 11.5046 4.63072
115 3 -0.828098 -2.07606 10.2343 8.19224
116 3 -0.770029 0.0501798 11.2401 4.71061
155 2 0.130056 -0.0416214 9.29837 2.62375
292 2 0.217669 -2.15613 12.7894 7.45938
65 1 -0.63167 2.62037 8.29431 7.16239
157 2 0.0267994 1.56969 9.75748 6.6811
211 2 0.159487 1.51973 7.84371 7.1935
214 2 0.155724 -0.00913333 12.6948 2.64324
213 2 0.179656 -1.52745 12.458 1.52059
289 2 0.131125 -2.75171 7.11434 1.08366
87 3 -0.773038 -6.39168 11.9032 1.84759
187 2 0.21247 -4.205 8.98623 3.58063
221 2 0.196954 0.0885539 9.8331 0.135045
222 2 0.188379 -0.464508 11.5093 0.910081
183 2 0.209073 -4.0227 7.52536 4.87628
69 1 -0.683229 0.0210217 11.0084 0.0256024
89 3 -0.833256 -3.60025 8.11817 8.23135
11 4 0.975251 -1.17307 7.56035 10.5503
224 2 0.212676 0.477678 9.90167 12.2589
17 4 1.12187 -2.44316 9.34517 13.0114
32 4 1.07127 -1.65843 11.2714 9.26394
34 4 1.24939 -1.35354 11.7401 14.8064
288 2 0.194212 -3.17969 8.47791 15.9229
55 1 -0.660128 0.749503 8.15053 9.81753
58 1 -0.652157 -3.62793 8.16442 13.9382
59 1 -0.670657 -3.58074 10.8589 12.3201
216 2 0.201366 -2.79491 13.2215 9.24767
255 4 1.02452 1.31397 7.63723 16.1582
185 2 0.16949 1.52895 8.16106 8.91027
94 3 -0.794704 -1.78691 8.56608 11.7151
95 3 -0.811666 -5.37883 11.4217 14.8301
117 3 -0.779373 -1.47907 9.88937 14.1284
118 3 -0.796452 -0.430141 12.6279 13.7996
119 3 -0.794605 -2.81503 12.43 14.9323
120 3 -0.77939 -0.201041 11.2127 9.92745
147 2 -0.0496326 -5.75349 12.0429 8.74666
290 2 0.216093 -4.20526 7.58671 13.167
156 2 0.00526808 -2.74933 10.9258 10.5617
184 2 0.142287 -0.315168 8.5604 9.23574
186 2 0.184812 1.04369 8.96012 10.5698
191 2 0.173089 -4.29921 8.88137 14.591
192 2 0.247728 -4.28837 10.9609 13.206
193 2 0.162646 -4.08222 10.515 11.3876
194 2 0.198998 -2.94536 11.7841 12.1919
258 2 0.150352 1.9143 8.99477 14.4016
260 2 0.153243 0.946695 7.4824 13.6018
190 2 0.153283 -2.85131 7.48192 14.4696
256 1 -0.6777 0.980691 8.27116 14.4208
261 2 0.254836 -0.00698194 8.87769 14.3568
14 4 1.44063 -4.24548 12.1087 15.876
215 2 0.198193 -0.993809 13.6843 8.61336