ITEM: TIMESTEP
0
ITEM: NUMBER OF ATOMS
295
ITEM: BOX BOUNDS xy xz yz pp pp pp
-8.3339999999999996e+00 1.5144700000000000e+01 -7.6974000000000000e+00
0.0000000000000000e+00 1.4189300000000001e+01 -6.3660000000000005e-01
0.0000000000000000e+00 1.6498000000000001e+01 5.8050000000000002e-01
ITEM: ATOMS id type q x y z element
6 4 1.03442 0.745846 1.23681 6.33603 Si
7 4 1.08148 -0.343725 3.35421 2.39106 Si
8 4 0.804774 -0.435688 3.60237 7.73811 Si
10 4 0.860721 -1.20567 5.53201 5.7016 Si
25 4 1.16443 1.02239 5.8099 3.85053 Si
27 4 0.715293 3.00158 6.35201 6.12375 Si
50 1 -0.124818 3.05746 0.851866 2.92488 C
51 1 -0.0845908 2.12417 2.60458 5.39763 C
52 1 -0.151111 -1.69681 4.21392 1.02995 C
79 3 -0.740298 -0.383602 0.614738 5.24531 O
81 3 -0.774039 -1.09328 2.56005 3.57926 O
3 4 0.980159 0.743076 1.52083 0.0458784 Si
112 3 -0.698995 1.65651 6.63405 0.238898 O
82 3 -0.77142 0.505454 2.30126 1.49497 O
84 3 -0.727058 0.0996026 2.08633 7.65354 O
85 3 -0.683021 -0.346913 4.26541 6.2724 O
96 3 -0.802311 4.17381 0.797563 7.60593 O
102 3 -0.754827 0.668863 4.48505 3.00038 O
103 3 -0.748658 -0.401178 6.36221 4.5306 O
104 3 -0.801497 4.15767 3.6483 7.92154 O
106 3 -0.712317 2.06549 5.57616 5.03674 O
249 2 0.145038 2.52107 4.86888 1.0581 H
111 3 -0.755996 2.70569 6.84442 2.70923 O
171 2 0.0747093 2.51563 1.74323 2.57914 H
176 2 0.0109216 -2.3459 4.762 1.67028 H
173 2 0.101018 1.78301 2.7771 4.38743 H
174 2 0.0274535 3.04316 2.05264 5.38238 H
175 2 0.126003 2.13616 3.46194 6.02592 H
281 2 0.28369 -1.85397 6.54338 7.95828 H
251 2 0.100704 3.45984 3.30241 0.740425 H
90 3 -0.677327 -1.52293 6.98008 7.0817 O
178 2 0.0466353 -1.10193 4.78848 0.300781 H
78 3 -0.710951 1.47353 0.0560849 0.300774 O
161 2 0.0950581 5.48902 1.62823 5.7048 H
247 1 -0.0592978 3.4123 4.24594 1.24476 C
158 2 0.0677271 4.83458 1.38009 5.33523 H
250 2 0.0590056 3.80038 4.22286 2.24147 H
170 2 0.0319358 2.68586 0.335406 3.80527 H
276 2 0.032857 5.55957 1.81588 1.81629 H
172 2 0.0281783 4.10362 0.943568 2.85964 H
189 2 0.0501952 -1.24003 6.79703 1.23055 H
289 2 0.00861536 -2.86292 6.38735 0.388593 H
179 2 0.0517134 1.13971 5.50434 8.12798 H
100 3 -0.8252 6.00822 0.810959 11.8987 O
260 2 0.0184717 1.23418 6.47913 13.0725 H
19 4 0.705545 5.02492 3.17126 15.8133 Si
152 2 0.3437 5.36703 0.86315 14.8205 H
23 4 0.977201 2.33556 2.66733 14.5326 Si
28 4 1.13187 4.41243 4.13063 12.8792 Si
180 2 0.0540268 1.7686 4.00918 8.93943 H
61 1 -0.120881 2.70035 1.75774 9.87811 C
269 2 0.0470058 -1.43102 2.80776 12.4576 H
64 1 -0.0773053 2.47031 0.746269 13.5428 C
53 1 -0.117941 0.948438 4.70006 8.83882 C
97 3 -0.67411 3.44549 2.60308 15.7299 O
98 3 -0.714116 0.841451 2.90214 15.2682 O
99 3 -0.789433 5.61254 2.07064 9.49329 O
108 3 -0.746169 2.89551 3.81913 13.4311 O
109 3 -0.820585 4.65125 3.1234 11.6375 O
24 4 1.3608 5.86702 2.22601 11.1132 Si
20 4 1.07385 4.29954 2.11068 8.55205 Si
148 2 -0.0104582 -1.80349 6.85004 12.9856 H
130 3 -0.645527 5.58528 1.75459 14.3715 O
181 2 0.0186928 0.416935 5.04133 9.71521 H
267 1 -0.122052 -0.997968 3.22765 11.5686 C
86 3 -0.731118 -2.73371 6.76562 10.5196 O
197 2 0.0389665 2.86392 0.81688 10.3938 H
198 2 0.0647923 1.83763 1.78187 9.23688 H
199 2 0.0824452 2.84355 2.58214 10.5867 H
285 2 0.0278073 -0.232806 2.63683 11.1022 H
259 2 0.132884 1.34629 5.07032 14.3007 H
268 2 0.0353861 -0.814191 4.30739 11.5703 H
154 2 0.0183128 3.27291 5.02572 10.1444 H
256 1 -0.0936066 0.911019 6.07669 14.0448 C
208 2 0.0530556 1.49304 0.596454 13.0335 H
185 2 -0.0029814 0.747987 6.91485 11.241 H
83 3 -0.678612 -2.21648 4.18436 8.61031 O
261 2 0.0354604 -0.13824 6.19598 14.257 H
255 4 0.623503 1.89105 7.27338 15.3681 Si
207 2 0.0829896 3.29234 1.15672 12.9111 H
153 2 -0.0111458 2.81342 7.1867 11.718 H
190 2 0.02055 -3.98678 7.28239 13.8556 H
1 4 0.991397 -5.31092 13.0459 1.55795 Si
4 4 1.03398 -4.52699 13.2355 7.06978 Si
12 4 0.736794 -2.98361 8.81096 1.35004 Si
15 4 1.17147 -2.49562 8.81227 7.477 Si
16 4 1.15901 -3.30014 10.9264 5.2621 Si
30 4 0.954068 1.91884 7.63677 1.52523 Si
31 4 1.02554 -1.27017 10.849 2.95939 Si
292 2 0.100381 -1.92172 12.5769 7.19517 H
88 3 -0.800583 -3.30415 9.70203 0.0659924 O
65 1 -0.126931 2.34468 8.20475 7.05897 C
115 3 -0.704415 -1.24705 9.80707 7.80407 O
66 1 -0.0829903 -1.3762 12.74 1.9343 C
280 3 -0.759365 -3.92868 12.2842 0.943142 O
87 3 -0.711199 -6.24791 11.972 2.40016 O
218 2 0.0612862 1.10676 11.009 6.4973 H
215 2 0.0559596 -0.0978633 12.829 7.37624 H
91 3 -0.644276 -4.53608 10.5366 3.92493 O
92 3 -0.712205 -3.24697 9.31427 6.05577 O
93 3 -0.799048 -3.76691 12.3313 5.97321 O
33 4 0.633675 1.35833 10.109 4.18568 Si
149 2 0.0684006 -6.0982 12.2786 5.17359 H
113 3 -0.717892 -1.97536 9.48342 2.43391 O
114 3 -0.725997 -1.77055 11.2595 4.4487 O
67 1 -0.0854118 -1.08426 12.6921 7.84817 C
116 3 -0.693676 0.351999 10.5792 2.95851 O
155 2 0.140706 -1.456 8.14503 4.94005 H
157 2 0.0313553 0.511587 8.80581 4.95699 H
221 2 0.0851949 -0.247287 10.0069 0.436295 H
212 2 0.0598673 -2.2436 13.182 2.46964 H
57 1 -0.121129 -2.02174 7.12143 0.545476 C
151 2 0.294446 2.9494 7.39654 3.48627 H
214 2 0.073213 -0.405634 13.1935 2.12772 H
13 4 0.66914 -5.96966 11.1978 3.79405 Si
213 2 0.121281 -1.59215 12.4296 0.894043 H
168 2 0.134149 -1.86864 8.2462 4.24763 H
211 2 0.077907 1.25833 8.25147 7.09621 H
80 3 -0.761286 -6.1193 13.6101 6.93618 O
11 4 0.633826 -1.63995 7.57059 11.4281 Si
14 4 1.44252 -4.24829 11.795 16.1889 Si
17 4 0.683696 -3.08641 9.63494 12.7128 Si
32 4 0.677698 -0.977726 11.0022 8.87333 Si
34 4 1.14829 -1.726 11.6054 14.5562 Si
184 2 0.0618774 0.130042 7.26032 9.59704 H
55 1 -0.108443 0.253001 7.6081 10.6004 C
89 3 -0.764072 -3.61042 8.59291 8.65444 O
59 1 -0.0753221 -4.45028 10.9489 11.9041 C
69 1 -0.085206 -0.361295 10.9625 16.0686 C
288 2 0.0640346 -2.24712 8.10613 16.0923 H
258 2 0.016443 2.08895 8.92809 14.8914 H
94 3 -0.636973 -1.94763 9.1472 11.6429 O
95 3 -0.75731 -5.45707 11.804 15.0671 O
117 3 -0.726666 -2.29148 10.2274 13.9808 O
118 3 -0.837323 -0.889939 12.4684 13.5256 O
119 3 -0.793588 -2.82875 12.4178 15.4972 O
120 3 -0.681596 0.486219 10.7446 9.57833 O
58 1 -0.0902581 -4.41197 8.29543 13.8607 C
9 4 1.05874 -3.966 7.46677 9.78519 Si
156 2 0.0620795 -2.14386 10.9492 10.1239 H
223 2 0.0235723 1.76581 9.41164 11.8989 H
22 4 1.36644 -0.443102 13.5747 12.4721 Si
220 2 0.0452304 0.0695037 10.2377 15.421 H
192 2 0.116106 -5.16567 10.3511 11.3315 H
193 2 0.0501049 -3.85229 11.559 11.2504 H
194 2 0.0988626 -4.86676 11.5161 12.7216 H
222 2 0.0601797 0.23996 11.8396 16.3231 H
147 2 0.00970885 -4.44953 12.0911 8.40478 H
191 2 0.0958009 -4.46032 8.7971 14.8136 H
186 2 0.0869173 0.546389 8.64489 10.6776 H
216 2 0.080881 -1.23705 13.3971 8.63066 H
224 2 0.0662328 1.01368 10.4432 13.1455 H
206 2 0.136933 -4.93983 13.7177 14.3882 H
2 4 1.0854 13.7279 1.05505 4.09892 Si
21 4 0.65246 7.76202 4.52005 5.49669 Si
234 2 0.0583639 8.87751 4.12636 1.5706 H
36 4 0.987593 8.69848 2.10568 4.3709 Si
283 2 0.0287972 13.48 0.160066 1.57788 H
40 4 1.16801 11.2142 1.4167 5.71312 Si
43 4 0.625251 10.3361 2.18081 1.92312 Si
236 2 0.0429251 10.2066 4.74246 2.58074 H
62 1 -0.0738034 9.24858 5.25078 6.79826 C
63 1 -0.113369 7.20437 6.43332 4.73059 C
127 3 -0.80228 11.8428 1.72583 7.16186 O
105 3 -0.740097 6.46712 3.88533 6.32974 O
122 3 -0.710551 8.47655 3.71367 4.26738 O
125 3 -0.811822 12.1211 1.00419 4.43005 O
126 3 -0.790084 9.64994 1.68159 5.64311 O
277 2 0.036318 6.60496 3.2995 1.63498 H
133 3 -0.694844 9.11534 1.60909 2.8347 O
134 3 -0.656422 10.6576 1.45491 0.515587 O
203 2 0.0305622 7.945 6.59192 3.95866 H
74 1 -0.117618 9.93702 4.27629 1.64445 C
162 2 0.306458 12.3222 3.64461 8.02919 H
164 2 0.0670896 11.717 2.10792 2.93313 H
246 4 0.635051 4.79236 5.3123 0.0842501 Si
205 2 0.0674781 6.19267 6.4542 4.41073 H
200 2 0.105202 9.75781 4.32304 7.14334 H
275 2 0.0999204 7.25182 1.67859 1.14701 H
26 4 1.44998 5.29046 4.61706 7.22323 Si
202 2 0.0245373 9.81003 5.84995 6.14749 H
177 2 0.0241821 13.0054 3.31487 0.604741 H
274 1 -0.10667 6.37312 2.28505 1.30161 C
54 1 -0.113921 12.0984 4.79998 4.96703 C
235 2 0.0191101 10.4465 4.6491 0.758485 H
248 1 -0.114157 6.18744 6.22235 1.3949 C
183 2 0.0493376 11.7933 4.02234 5.67228 H
107 3 -0.770868 4.48441 5.81349 6.41697 O
253 2 0.0475754 6.94395 6.51789 0.698344 H
201 2 0.109737 8.76027 5.79297 7.54873 H
254 2 0.0304531 6.37168 5.33565 2.0147 H
182 2 0.0258224 11.4454 5.64818 4.84974 H
286 2 0.0536093 12.4998 4.46966 4.01643 H
204 2 0.0292725 7.39439 6.97728 5.64266 H
5 4 0.835913 12.5346 2.9299 10.2261 Si
44 4 1.08332 6.16901 6.95074 9.10484 Si
264 1 -0.116678 13.3299 1.62946 15.603 C
39 4 0.702014 8.42333 3.09623 9.87853 Si
41 4 0.623761 7.55712 1.7711 14.8563 Si
42 4 0.643221 10.2554 4.79229 10.6742 Si
71 1 -0.0630286 9.30855 1.39814 9.43873 C
233 2 0.0340607 9.87581 6.21815 12.7712 H
72 1 -0.103309 8.17236 3.70912 15.1643 C
73 1 -0.0897472 9.3583 5.33174 12.4649 C
228 2 0.11637 8.97338 0.634905 10.1869 H
101 3 -0.641558 5.02321 4.78366 15.6222 O
232 2 0.0942407 8.3133 5.50722 12.2407 H
124 3 -0.700309 7.58619 2.98649 11.2813 O
128 3 -0.669252 8.7326 1.16558 13.3402 O
129 3 -0.648761 7.80067 0.937118 16.206 O
29 4 0.722216 4.06751 6.20882 11.0581 Si
131 3 -0.67174 11.2463 3.50834 11.0471 O
132 3 -0.643223 9.28784 4.39002 9.41997 O
244 2 0.0417795 12.2889 0.518708 12.8821 H
123 3 -0.793911 12.4631 1.42148 9.73455 O
135 3 -0.754112 6.12567 5.462 8.33226 O
295 2 0.0544123 9.56126 4.45011 13.0764 H
163 2 0.293519 8.65957 1.95868 12.5757 H
226 2 0.127737 10.3888 1.64865 9.63102 H
266 2 0.0447109 13.2796 2.46482 14.9213 H
229 2 0.0743432 9.18532 3.46319 15.4867 H
230 2 0.0375147 7.6187 4.07291 15.9663 H
231 2 0.0499615 8.02676 4.20936 14.2488 H
110 3 -0.691962 4.87566 5.58761 12.2932 O
150 2 0.0424828 11.0283 4.06755 14.9274 H
257 3 -0.615142 3.48254 6.93414 15.5639 O
227 2 0.0775649 9.02379 1.12775 8.4585 H
265 2 0.0453493 13.5655 0.679632 15.1257 H
284 2 0.0449742 12.6218 1.63069 16.3745 H
38 4 1.10094 12.5921 0.776094 8.25347 Si
136 3 -0.742523 4.89066 7.13649 10.1009 O
138 3 -0.75867 7.59039 7.14589 9.83701 O
252 2 0.0456015 5.62545 6.99423 1.84912 H
219 2 0.0722185 0.595557 12.33 5.24987 H
46 4 0.644674 3.31251 9.89133 2.34657 Si
239 2 0.0506343 5.51157 9.44274 8.08249 H
262 1 -0.11056 6.22406 13.2285 2.35439 C
238 2 0.0432184 6.9933 8.62237 7.31877 H
140 3 -0.696874 2.85749 9.65673 3.88936 O
273 2 0.0446045 7.1681 10.0422 5.08705 H
270 1 -0.119319 7.66909 9.85864 4.16056 C
141 3 -0.735956 4.43909 12.8254 7.91277 O
68 1 -0.0885884 1.31767 11.5567 5.55703 C
166 2 -0.0201826 3.57357 11.6151 2.13767 H
167 2 -0.00424678 4.94981 9.23857 2.35404 H
75 1 -0.11863 5.9392 8.56902 7.59764 C
217 2 0.0653833 2.32751 11.8662 5.55112 H
272 2 0.0336991 7.07393 10.0012 3.30818 H
139 3 -0.707421 2.457 9.17617 1.23743 O
237 2 0.0514917 5.35539 8.1497 6.82596 H
187 2 0.00782226 10.1984 7.26361 1.36605 H
271 2 0.0421279 8.21827 8.92849 4.14438 H
159 2 0.0354795 2.05184 12.7499 1.7451 H
282 2 0.106276 7.3204 13.1242 2.30086 H
263 2 0.0300429 5.63473 12.4289 2.74681 H
209 2 0.0368259 2.75743 8.88702 6.35252 H
291 2 0.0705792 8.55618 10.0916 0.900608 H
60 1 -0.12569 7.75604 9.99772 0.148072 C
196 2 0.0379452 6.92109 10.6739 0.285509 H
56 1 -0.119996 10.4352 7.84888 2.22962 C
287 2 0.0726891 9.85621 8.72966 2.39794 H
188 2 0.0403832 10.7147 7.24608 3.08707 H
210 2 0.0315842 2.8357 8.12077 8.02457 H
37 4 0.621854 2.24128 13.6088 0.239611 Si
18 4 0.735603 8.26835 11.0647 14.9184 Si
195 2 0.0290714 6.7921 9.57044 16.413 H
35 4 1.00681 1.30402 11.6717 10.659 Si
47 4 1.02495 3.91815 11.7636 9.08884 Si
48 4 0.735517 7.10328 10.347 12.3099 Si
49 4 0.667891 5.61883 12.4679 11.2122 Si
243 2 0.108301 3.41451 13.6651 11.6407 H
225 2 0.0218542 2.75561 10.6969 12.7946 H
77 1 -0.0913543 4.14431 13.3249 12.3177 C
294 2 0.0759398 3.03864 13.8986 14.6222 H
241 2 0.0800111 5.71469 8.24782 13.0564 H
165 2 -0.0072524 7.80937 7.99398 12.4277 H
142 3 -0.763952 2.61899 12.3 9.8894 O
143 3 -0.771655 7.9408 9.66964 10.3986 O
144 3 -0.682767 8.10805 10.1199 13.6313 O
145 3 -0.735453 5.06357 11.3724 10.118 O
146 3 -0.681226 6.66293 11.8901 12.2531 O
76 1 -0.101966 5.40128 9.23678 12.7744 C
45 4 1.03937 8.404 8.18495 10.7648 Si
160 2 0.318247 7.14344 9.90334 9.91617 H
169 2 0.0468001 6.65297 13.5708 10.3287 H
137 3 -0.77583 10.0276 7.97446 10.8589 O
278 1 -0.111735 2.81939 13.1653 15.3824 C
240 2 0.0381819 4.89774 9.76773 13.5831 H
121 3 -0.818539 0.302999 12.8099 11.3187 O
245 2 0.0305752 3.8508 12.48 12.939 H
242 2 0.0723353 4.93115 9.19751 11.7975 H
290 2 0.0749142 9.84048 8.35814 13.2792 H
293 2 0.0477126 2.1515 12.3957 15.0107 H
70 1 -0.126731 1.80018 10.3759 12.4021 C
279 2 0.0137191 3.63596 12.8504 15.9913 H
ITEM: TIMESTEP
100
ITEM: NUMBER OF ATOMS
295
ITEM: BOX BOUNDS xy xz yz pp pp pp
-8.5006799999999991e+00 1.5447594000000000e+01 -7.8513479999999998e+00
0.0000000000000000e+00 1.4189300000000001e+01 -6.4933199999999935e-01
0.0000000000000000e+00 1.6498000000000001e+01 5.8050000000000002e-01
ITEM: ATOMS id type q x y z element
6 4 1.07222 0.66487 1.20353 6.51189 Si
7 4 1.0975 -0.202659 3.28295 2.3979 Si
8 4 0.785679 -0.459399 3.66959 7.8025 Si
10 4 0.880021 -1.08588 5.75777 5.69333 Si
25 4 1.16002 1.11361 5.67273 3.72151 Si
27 4 0.72158 3.21323 6.25735 5.88748 Si
50 1 -0.120983 2.98561 1.04233 2.75851 C
51 1 -0.0646947 1.80514 2.70198 5.48577 C
52 1 -0.137656 -1.84473 4.20401 1.41829 C
289 2 0.0128319 -2.61553 6.52473 0.451649 H
81 3 -0.791195 -1.01015 2.58523 3.61851 O
3 4 1.07948 0.686004 1.39027 0.00782023 Si
172 2 0.0295716 3.98937 1.33075 2.43198 H
82 3 -0.811531 0.30189 2.1311 1.36925 O
84 3 -0.73518 0.00796553 2.04466 7.75835 O
85 3 -0.664307 -0.381432 4.41148 6.31855 O
96 3 -0.816774 4.25097 0.659507 7.55491 O
102 3 -0.794015 0.954625 4.36839 2.74311 O
103 3 -0.766876 -0.222608 6.27502 4.35759 O
104 3 -0.780537 4.20953 3.25265 7.62365 O
106 3 -0.710717 2.06355 5.49292 5.04246 O
249 2 0.113297 2.31817 4.74208 0.788649 H
111 3 -0.769051 2.77377 6.81013 2.62367 O
171 2 0.0812743 2.21274 1.74142 2.53876 H
176 2 0.0269213 -2.21599 4.90192 2.20242 H
173 2 0.0982389 1.33548 2.79832 4.53164 H
174 2 0.0610079 2.75142 2.21511 5.42421 H
175 2 0.133512 1.90689 3.5558 6.15311 H
281 2 0.30285 -2.07369 6.36676 7.82352 H
251 2 0.0839912 3.38858 3.37492 1.02556 H
90 3 -0.711067 -1.51633 6.89319 7.21917 O
178 2 0.0295358 -1.20504 4.65387 0.693439 H
276 2 0.03971 5.90365 1.33805 1.53357 H
161 2 0.110048 5.29306 0.83432 5.57026 H
247 1 -0.0548531 3.25432 4.43689 1.14696 C
158 2 0.0748005 5.81167 0.252956 5.46705 H
250 2 0.100665 3.48219 4.7663 2.15099 H
170 2 0.0448274 2.96064 0.723449 3.7737 H
79 3 -0.744572 -0.43454 0.622071 5.45119 O
54 1 -0.115909 -2.93783 5.11968 4.97897 C
182 2 0.0237083 -3.2753 5.98725 4.42238 H
100 3 -0.82085 6.05578 0.818413 11.8232 O
260 2 0.045467 1.2708 5.94653 13.2212 H
19 4 0.696053 5.01867 3.16657 15.8669 Si
152 2 0.360201 5.3583 0.885504 14.8961 H
23 4 0.903739 2.39079 2.6398 14.5639 Si
28 4 1.16198 4.45552 4.08475 12.955 Si
180 2 0.0362553 1.57002 3.772 9.23408 H
61 1 -0.130394 2.674 1.81514 9.91684 C
269 2 0.0507436 -1.06329 2.93434 12.4453 H
64 1 -0.0811481 2.40467 0.805807 13.4208 C
53 1 -0.122331 0.954891 4.63203 9.011 C
97 3 -0.653484 3.53437 2.53436 15.8624 O
98 3 -0.732858 0.942163 2.793 15.4395 O
99 3 -0.765848 5.63543 1.88655 9.50419 O
108 3 -0.726429 2.93834 3.84106 13.4744 O
109 3 -0.848846 4.74477 3.04558 11.8033 O
24 4 1.42423 5.99983 2.2935 11.142 Si
20 4 1.07276 4.30725 1.91688 8.54342 Si
148 2 -0.0108102 -1.41911 6.95195 12.9282 H
130 3 -0.656286 5.64922 1.70564 14.451 O
181 2 0.019988 0.379205 5.05006 9.82356 H
267 1 -0.118619 -0.790223 3.20069 11.4172 C
86 3 -0.722896 -2.68053 6.7355 10.6025 O
197 2 0.0295538 3.10957 0.945963 10.383 H
198 2 0.0587471 1.7279 1.64351 9.38205 H
199 2 0.0698942 2.78604 2.72434 10.4636 H
285 2 0.0346639 0.0263298 2.6064 11.0244 H
259 2 0.116095 1.29776 4.98266 14.7846 H
268 2 0.0258 -0.569612 4.23375 11.2656 H
154 2 -0.00204267 2.97848 5.2719 10.367 H
256 1 -0.0851665 0.948531 5.83274 14.2466 C
208 2 0.0327794 1.45064 1.04254 12.9455 H
185 2 -0.00297952 0.701318 7.07054 10.908 H
83 3 -0.681009 -2.29248 4.13396 8.36885 O
261 2 0.0338097 -0.120399 6.04066 14.4264 H
255 4 0.657303 1.84734 7.33974 15.3893 Si
207 2 0.0882821 3.25994 1.01979 12.8145 H
179 2 0.0495677 1.44211 5.35125 8.39788 H
150 2 0.036479 -2.76061 4.84799 14.1864 H
1 4 1.09896 -5.24995 12.9998 1.49085 Si
4 4 1.12814 -4.48451 13.1027 7.22133 Si
12 4 0.726386 -3.03117 8.83868 1.39368 Si
15 4 1.26484 -2.49254 8.81307 7.50684 Si
16 4 1.14391 -3.42728 10.8989 5.35466 Si
30 4 1.00025 1.88504 7.6533 1.51305 Si
31 4 1.08401 -1.27375 10.8118 2.93336 Si
292 2 0.0702495 -1.63188 12.5722 7.14741 H
88 3 -0.793097 -3.80643 9.65603 0.241928 O
65 1 -0.129294 2.59443 7.84816 7.04597 C
115 3 -0.753412 -1.3197 9.84545 7.77503 O
66 1 -0.102492 -1.46991 12.5459 1.63287 C
280 3 -0.824674 -4.08387 12.1729 0.789831 O
87 3 -0.715978 -6.26683 12.1577 2.40957 O
188 2 0.0502188 -3.89399 7.62318 3.29979 H
215 2 0.0587383 -0.243017 13.1261 8.16084 H
91 3 -0.674046 -4.40145 10.8036 4.04386 O
92 3 -0.762279 -3.35236 9.19996 6.25635 O
93 3 -0.818428 -3.91621 12.2709 6.03821 O
33 4 0.678232 1.38653 10.1421 4.15364 Si
149 2 0.0915349 -6.38491 12.3503 5.02947 H
113 3 -0.741343 -2.08442 9.53165 2.50055 O
114 3 -0.696911 -1.67331 11.09 4.42678 O
67 1 -0.09185 -1.23552 12.7773 8.14219 C
116 3 -0.727871 0.323413 10.4749 3.01708 O
155 2 0.119027 -2.07446 8.42235 4.86161 H
157 2 0.0370011 0.844516 8.60135 4.8044 H
221 2 0.0505409 -0.315423 9.4862 0.121945 H
212 2 0.0773818 -2.44352 12.9813 1.81552 H
57 1 -0.122004 -1.92953 7.33045 0.520611 C
151 2 0.275272 3.03099 7.45596 3.34733 H
214 2 0.0579492 -0.633048 13.265 1.89699 H
13 4 0.635238 -5.9617 11.283 3.79676 Si
213 2 0.0772441 -1.33502 12.106 0.67881 H
168 2 0.121206 -1.5382 8.7826 4.85811 H
211 2 0.0640359 1.52431 7.86734 7.04005 H
80 3 -0.777258 -5.96759 13.5948 6.85608 O
210 2 0.0313336 2.98217 7.5745 8.01497 H
189 2 0.0527958 -1.15805 7.22304 1.30137 H
219 2 0.0738351 0.438806 12.1853 5.36733 H
222 2 0.0608542 0.459097 11.0304 0.3864 H
112 3 -0.740821 1.51651 6.98536 0.100261 O
78 3 -0.74007 -6.33802 13.5354 0.329792 O
11 4 0.648907 -1.69381 7.75066 11.4371 Si
14 4 1.49429 -4.27835 11.7191 16.1199 Si
17 4 0.721809 -3.25203 9.823 12.8234 Si
32 4 0.700811 -1.03983 10.9869 8.86056 Si
34 4 1.1557 -1.66559 11.6593 14.6523 Si
184 2 0.0871721 -0.260209 7.42279 9.43702 H
55 1 -0.107254 0.0752718 7.77381 10.3879 C
89 3 -0.767161 -3.44197 8.59143 8.79322 O
59 1 -0.0789847 -4.46578 11.1541 11.6628 C
69 1 -0.0903017 -0.323966 10.8373 16.1862 C
288 2 0.0572465 -2.23737 8.35565 16.0828 H
258 2 0.0127734 1.82118 8.82573 14.5098 H
94 3 -0.658236 -2.14889 9.24222 11.8496 O
95 3 -0.761893 -5.33283 11.6961 14.8885 O
117 3 -0.730023 -2.29879 10.3548 14.0207 O
118 3 -0.817951 -0.655109 12.4126 13.6605 O
119 3 -0.826125 -2.89922 12.3785 15.378 O
120 3 -0.725724 0.402667 10.8179 9.58479 O
58 1 -0.0941987 -4.36211 8.25969 13.6026 C
9 4 1.03332 -3.95989 7.38058 9.80331 Si
156 2 0.0428243 -2.24195 10.8923 10.0845 H
190 2 0.030136 -3.70652 7.43655 13.4369 H
22 4 1.30264 -0.473866 13.5037 12.455 Si
220 2 0.0801219 0.617682 10.4614 15.7534 H
192 2 0.087217 -4.33714 10.7585 10.6586 H
193 2 0.0550263 -4.0744 12.1618 11.8369 H
194 2 0.093768 -5.43447 10.9935 12.1229 H
153 2 -0.00545613 2.72759 7.49596 11.8398 H
147 2 -0.0266635 -4.68541 12.0548 8.63337 H
191 2 0.0676948 -4.46531 8.51139 14.6569 H
186 2 0.0885734 0.413376 8.80077 10.3229 H
216 2 0.101975 -1.89653 13.3796 8.76413 H
224 2 0.0446523 0.949842 9.59501 12.3104 H
206 2 0.135492 -5.26013 13.597 14.1231 H
2 4 1.09006 13.7446 1.12947 4.23375 Si
21 4 0.670143 7.73838 4.63782 5.46092 Si
234 2 0.0413344 8.7192 4.41105 1.17927 H
36 4 1.04395 8.59648 2.04415 4.41055 Si
283 2 0.046631 13.3221 0.156158 1.7025 H
40 4 1.15389 11.1893 1.5194 5.69859 Si
43 4 0.585799 10.1344 2.15152 1.96523 Si
236 2 0.0348426 10.0802 4.80236 2.30306 H
62 1 -0.096205 9.16892 5.42376 6.83477 C
63 1 -0.122711 7.33079 6.44796 4.3459 C
127 3 -0.856216 12.0052 1.75944 7.05554 O
105 3 -0.717961 6.48863 3.97472 6.24545 O
122 3 -0.732834 8.44103 3.63206 4.36508 O
125 3 -0.785493 12.1369 0.954917 4.49424 O
126 3 -0.804287 9.60401 1.47943 5.58639 O
277 2 0.0374723 6.63083 2.95958 1.71615 H
133 3 -0.70905 8.98838 1.46667 2.94389 O
134 3 -0.651523 10.6054 1.36264 0.568573 O
203 2 0.034001 7.90034 6.22347 3.46159 H
74 1 -0.118257 9.77081 4.24959 1.4332 C
162 2 0.330666 12.2453 3.56617 7.82333 H
164 2 0.048914 11.5621 2.27603 2.85563 H
254 2 0.0301267 6.67112 5.51541 1.73526 H
205 2 0.064934 6.25185 6.30415 4.26748 H
200 2 0.0804991 9.67282 4.60163 7.19432 H
275 2 0.083563 7.59578 1.67657 0.854954 H
26 4 1.36704 5.27886 4.49085 7.22788 Si
202 2 0.0259061 9.71571 6.1792 6.25566 H
177 2 0.0394239 12.6717 3.39725 1.06777 H
274 1 -0.104646 6.62417 2.05193 1.16304 C
252 2 0.0509028 5.48135 6.84086 1.84255 H
235 2 0.0296861 10.5143 4.28027 0.65601 H
248 1 -0.10558 6.148 6.26292 1.20306 C
183 2 0.0351998 11.655 4.93245 5.88269 H
107 3 -0.774147 4.65346 5.69876 6.31258 O
286 2 0.0644679 12.4111 4.23432 4.39986 H
201 2 0.094403 8.5144 5.93252 7.55624 H
5 4 0.748722 12.6737 3.07673 10.1973 Si
44 4 1.05171 6.08685 6.82903 9.20873 Si
264 1 -0.125622 13.4003 1.60037 15.3982 C
39 4 0.733125 8.47649 3.16776 9.71898 Si
41 4 0.628326 7.61989 1.79242 14.8246 Si
42 4 0.665629 10.4372 4.73038 10.7985 Si
71 1 -0.0698755 9.31379 1.36416 9.38236 C
233 2 0.0370537 9.51739 6.33081 12.599 H
72 1 -0.114833 8.11876 3.74392 15.1866 C
73 1 -0.093389 9.28912 5.29332 12.3985 C
228 2 0.118598 8.53586 0.75425 9.81223 H
101 3 -0.670801 4.9979 4.8081 15.6807 O
232 2 0.111598 8.26758 5.19269 12.0175 H
124 3 -0.760035 7.43543 3.15642 11.0055 O
128 3 -0.648075 8.60771 1.27679 13.1829 O
129 3 -0.659505 7.79758 0.704199 16.0226 O
29 4 0.674702 3.97168 6.41398 11.2496 Si
131 3 -0.660592 11.4278 3.47271 11.1648 O
132 3 -0.676267 9.45287 4.39609 9.5773 O
138 3 -0.7449 7.59076 7.08787 9.75973 O
123 3 -0.77226 12.6022 1.41147 9.75279 O
135 3 -0.737447 5.96585 5.31968 8.60378 O
295 2 0.0405841 9.61665 4.61471 13.1626 H
163 2 0.28928 8.38543 2.11876 12.5893 H
226 2 0.117136 10.1876 1.34882 10.0256 H
266 2 0.0418169 13.3561 2.4051 14.6929 H
229 2 0.0466258 9.0475 3.94145 14.7635 H
230 2 0.0325212 8.13923 3.69638 16.2941 H
231 2 0.0545103 7.2924 4.3041 14.7758 H
110 3 -0.690857 4.56438 5.68291 12.5672 O
38 4 1.21409 12.4972 0.846973 8.26187 Si
257 3 -0.616901 3.47389 7.16569 15.6139 O
227 2 0.063057 9.42545 1.37028 8.26873 H
265 2 0.0366548 13.4869 0.642075 14.9489 H
284 2 0.0491752 12.6393 1.70132 16.1852 H
243 2 0.118716 11.7037 0.729319 11.6953 H
246 4 0.657995 4.14131 5.91507 16.4823 Si
287 2 0.0684329 9.86312 8.56838 2.7136 H
204 2 0.0235968 7.67907 7.26508 4.9459 H
46 4 0.592688 3.3021 10.014 2.34562 Si
239 2 0.0406313 5.16028 8.91362 7.91464 H
262 1 -0.0958803 6.10893 13.2596 2.56171 C
238 2 0.0456702 6.81533 8.7203 7.40919 H
140 3 -0.68087 2.9295 9.76918 3.97039 O
273 2 0.0334881 7.29318 10.1007 4.681 H
270 1 -0.11689 7.80534 9.79526 3.78586 C
141 3 -0.773621 4.61155 12.8723 8.10754 O
68 1 -0.0846006 1.32395 11.5824 5.54633 C
166 2 -0.0206329 3.35797 11.6589 1.84479 H
167 2 -0.00183804 4.96299 9.53372 2.10964 H
75 1 -0.116328 5.88703 8.2423 7.5343 C
217 2 0.0800549 2.25186 12.1721 5.45356 H
272 2 0.0437701 7.31458 9.9251 2.81192 H
139 3 -0.699209 2.39646 9.17423 1.31745 O
237 2 0.0684245 5.55197 7.62666 6.69629 H
187 2 0.0150393 10.3062 7.04975 1.861 H
271 2 0.03628 8.32382 8.88878 3.92308 H
159 2 0.0603819 1.62185 13.0093 1.74334 H
282 2 0.118315 7.14771 13.0283 2.40705 H
263 2 0.0447013 5.49092 12.5317 3.08684 H
209 2 0.0387397 3.00938 8.79025 6.71077 H
291 2 0.0620951 8.47273 9.60861 0.620598 H
37 4 0.639572 2.18808 13.5795 0.190354 Si
196 2 0.0976178 8.08088 11.3647 0.203552 H
218 2 0.0511213 1.42551 10.9623 6.41032 H
253 2 0.0560602 6.82102 6.83751 0.575049 H
56 1 -0.105192 10.6403 7.87562 2.46379 C
18 4 0.720721 8.38062 10.9568 14.7266 Si
195 2 0.023524 6.31779 10.6006 16.1578 H
35 4 1.02767 1.23722 11.7017 10.6574 Si
47 4 1.02875 3.91622 11.8653 9.18568 Si
48 4 0.811661 7.0606 10.2996 12.3282 Si
49 4 0.67452 5.71503 12.5748 11.2588 Si
136 3 -0.734317 4.85163 7.29474 10.2226 O
225 2 0.0582769 1.63071 11.0937 13.1914 H
77 1 -0.0879972 4.20176 13.4698 12.2951 C
294 2 0.0735038 2.77023 13.513 14.6004 H
241 2 0.0806167 5.63503 8.2428 12.4593 H
165 2 0.00615833 7.70895 7.77668 12.2586 H
142 3 -0.761619 2.63323 12.3581 10.0213 O
143 3 -0.729997 7.90057 9.73376 10.3499 O
144 3 -0.719438 7.97884 9.88927 13.5392 O
145 3 -0.705177 5.10867 11.4674 10.2212 O
146 3 -0.697917 6.76838 11.8599 12.2131 O
76 1 -0.0942156 5.23765 9.23286 12.495 C
45 4 0.992758 8.36439 8.20572 10.6717 Si
160 2 0.300656 7.18048 9.90793 9.60804 H
169 2 0.060942 6.61355 13.692 10.3605 H
137 3 -0.756287 10.0024 7.95665 10.7374 O
278 1 -0.11557 2.94396 13.0559 15.5676 C
240 2 0.0407132 4.919 9.60504 13.4371 H
121 3 -0.797111 0.421108 12.9718 11.2227 O
245 2 0.0694415 3.38643 12.8017 12.3051 H
242 2 0.0799121 4.70625 9.58449 11.6387 H
290 2 0.0818324 9.8505 8.17487 13.0467 H
293 2 0.0373549 2.66804 12.0078 15.64 H
70 1 -0.126399 1.71736 10.3664 12.3714 C
279 2 0.0255897 3.92236 13.2987 15.9863 H
223 2 0.0183592 2.73943 10.0531 12.189 H
244 2 0.0267378 4.67366 13.6856 13.2142 H
60 1 -0.115801 7.34248 10.882 16.4197 C
ITEM: TIMESTEP
200
ITEM: NUMBER OF ATOMS
295
ITEM: BOX BOUNDS xy xz yz pp pp pp
-8.6673599999999986e+00 1.5750488000000001e+01 -8.0052959999999977e+00
0.0000000000000000e+00 1.4189300000000001e+01 -6.6206400000000087e-01
0.0000000000000000e+00 1.6498000000000001e+01 5.8050000000000002e-01
ITEM: ATOMS id type q x y z element
6 4 0.995971 0.662072 1.26302 6.61866 Si
7 4 1.07191 -0.259682 3.21976 2.37076 Si
8 4 0.748714 -0.605608 3.72232 7.81713 Si
10 4 0.870543 -0.995612 5.68524 5.66336 Si
25 4 1.20117 1.20215 5.60747 3.73146 Si
27 4 0.701727 3.33876 6.21317 5.72664 Si
50 1 -0.115705 3.17599 1.09241 2.24521 C
51 1 -0.0639381 1.92398 2.65027 5.43064 C
52 1 -0.138178 -1.78331 4.36412 1.37818 C
289 2 0.00351561 -2.82953 6.6294 0.356922 H
81 3 -0.767227 -0.953344 2.56701 3.71072 O
182 2 0.0310903 -2.97071 5.48645 3.73976 H
172 2 0.0829712 3.70683 1.53548 1.44679 H
82 3 -0.791289 0.237623 2.00381 1.36877 O
84 3 -0.700281 -0.12607 2.15772 7.80757 O
85 3 -0.702391 -0.482715 4.30179 6.30608 O
96 3 -0.781799 4.16194 0.579364 7.64397 O
102 3 -0.796329 0.809329 4.31916 2.8763 O
103 3 -0.789505 -0.09988 6.29523 4.43994 O
104 3 -0.798658 4.24484 3.27238 7.63731 O
106 3 -0.716416 2.37119 5.28716 4.80171 O
249 2 0.128069 2.61388 4.95497 1.42895 H
111 3 -0.784848 2.61962 6.84101 2.50783 O
171 2 0.0655052 2.3434 1.67942 2.60627 H
176 2 0.0305177 -1.79435 5.28377 1.9329 H
173 2 0.150147 1.09036 3.2036 4.99503 H
174 2 0.0448903 2.60704 2.08543 4.81597 H
175 2 0.10932 2.40019 3.1464 6.25617 H
281 2 0.266298 -1.77068 6.32649 7.77313 H
251 2 0.0930482 3.08903 3.43676 0.595684 H
90 3 -0.694312 -1.31817 7.01088 7.11756 O
178 2 0.0347713 -1.53877 4.50981 0.273868 H
276 2 0.0403762 5.79641 1.50229 1.67872 H
54 1 -0.11893 -2.89066 5.26686 4.82389 C
247 1 -0.0720002 3.40709 4.23113 1.24305 C
158 2 0.0355076 5.87961 0.476044 4.76357 H
250 2 0.0476722 3.98504 3.98926 2.09581 H
170 2 0.0193629 3.79533 0.681263 3.03747 H
179 2 0.0512817 1.30249 5.40141 8.19564 H
78 3 -0.753943 1.2794 0.0350407 0.245819 O
100 3 -0.784706 6.27055 0.94375 11.8733 O
260 2 0.0829784 1.80047 5.76634 13.6826 H
19 4 0.7226 5.11326 3.20877 15.8702 Si
152 2 0.345662 5.39975 1.03674 14.8689 H
23 4 0.92624 2.35728 2.67449 14.6745 Si
28 4 1.12353 4.43586 4.07622 12.975 Si
180 2 0.0386228 1.53762 4.09854 9.4048 H
61 1 -0.125246 2.61473 1.7839 9.83435 C
269 2 0.0432983 -0.765958 2.37224 12.0948 H
64 1 -0.0965895 2.30725 0.872846 13.4232 C
53 1 -0.123059 0.861852 4.80321 8.98795 C
97 3 -0.668054 3.62469 2.53412 15.915 O
98 3 -0.751601 0.873054 2.95408 15.3091 O
99 3 -0.726027 5.70485 1.88991 9.40088 O
108 3 -0.730717 2.91946 3.88302 13.6538 O
109 3 -0.785183 4.70516 3.24597 11.6417 O
24 4 1.25792 6.00079 2.34252 11.0783 Si
20 4 1.08023 4.31624 1.9763 8.55482 Si
148 2 -0.0216433 -1.06569 7.1836 12.7232 H
130 3 -0.654386 5.68534 1.84801 14.3565 O
181 2 0.0138131 0.318094 5.3453 9.7219 H
267 1 -0.117066 -0.707531 3.20748 11.4284 C
86 3 -0.709875 -3.08123 6.95895 10.9197 O
197 2 0.0320432 2.62526 0.759732 10.1994 H
198 2 0.0579587 1.81791 1.96691 9.14669 H
199 2 0.0702105 2.70243 2.61194 10.5415 H
285 2 0.0242309 -0.0190942 3.11065 10.5975 H
259 2 0.119231 0.965119 5.02035 15.1264 H
268 2 0.032865 -0.66865 4.19011 11.9019 H
154 2 -0.00442013 2.84724 5.56202 10.3871 H
256 1 -0.0839936 1.04758 5.8407 14.4371 C
208 2 0.0303274 1.41162 1.2208 12.9889 H
3 4 1.03232 -0.0388945 2.06469 16.4025 Si
83 3 -0.667261 -2.42622 4.49396 8.5378 O
261 2 0.0172573 0.118903 6.14962 14.0875 H
150 2 0.0392289 -1.90304 4.98985 13.718 H
207 2 0.0683954 3.19205 0.875173 12.8148 H
1 4 1.0818 -5.5807 13.0673 1.38719 Si
4 4 1.11635 -4.75018 13.0865 7.18482 Si
12 4 0.738914 -2.99003 8.83414 1.3298 Si
15 4 1.27964 -2.58239 8.72779 7.48569 Si
16 4 1.42457 -3.57465 10.8434 5.38354 Si
30 4 1.06392 1.83769 7.82359 1.52984 Si
31 4 1.03484 -1.24043 10.7205 3.08693 Si
292 2 0.122853 -2.15354 12.6815 7.52744 H
88 3 -0.739345 -3.68831 9.75273 0.185057 O
65 1 -0.133719 2.43286 7.48943 7.03958 C
115 3 -0.747958 -1.39988 9.75289 7.82443 O
66 1 -0.0960601 -1.38302 12.5458 2.01898 C
280 3 -0.778083 -4.27148 12.2581 0.665455 O
87 3 -0.749499 -6.3741 12.1568 2.43268 O
188 2 0.0805683 -4.22893 8.10266 3.72503 H
112 3 -0.722439 1.34482 7.04595 0.195351 O
91 3 -0.753856 -4.75404 10.6404 4.22489 O
92 3 -0.776365 -3.45217 9.33696 6.26695 O
93 3 -0.885498 -3.88337 12.0177 6.29947 O
33 4 0.629634 1.46621 10.1278 4.24914 Si
149 2 0.0496624 -6.61971 12.4113 5.1446 H
113 3 -0.745398 -1.91528 9.52073 2.26948 O
114 3 -0.761669 -2.06304 11.059 4.48764 O
56 1 -0.112707 -4.48915 8.00019 2.57586 C
116 3 -0.716452 0.37849 10.3756 3.08139 O
155 2 0.107413 -1.35201 7.92748 3.85772 H
157 2 0.0313985 1.07104 8.56759 4.86961 H
209 2 0.0250601 2.68586 8.46008 6.60424 H
212 2 0.0387412 -2.06737 13.1125 2.64728 H