ITEM: TIMESTEP
0
ITEM: NUMBER OF ATOMS
295
ITEM: BOX BOUNDS xy xz yz pp pp pp
-8.3339999999999996e+00 1.5144700000000000e+01 -7.6974000000000000e+00
0.0000000000000000e+00 1.4189300000000001e+01 -6.3660000000000005e-01
0.0000000000000000e+00 1.6498000000000001e+01 5.8050000000000002e-01
ITEM: ATOMS id type q x y z element
6 4 1.03442 0.745846 1.23681 6.33603 Si
7 4 1.08148 -0.343725 3.35421 2.39106 Si
8 4 0.804774 -0.435688 3.60237 7.73811 Si
10 4 0.860721 -1.20567 5.53201 5.7016 Si
25 4 1.16443 1.02239 5.8099 3.85053 Si
27 4 0.715293 3.00158 6.35201 6.12375 Si
50 1 -0.124818 3.05746 0.851866 2.92488 C
51 1 -0.0845908 2.12417 2.60458 5.39763 C
52 1 -0.151111 -1.69681 4.21392 1.02995 C
79 3 -0.740298 -0.383602 0.614738 5.24531 O
81 3 -0.774039 -1.09328 2.56005 3.57926 O
3 4 0.980159 0.743076 1.52083 0.0458784 Si
112 3 -0.698995 1.65651 6.63405 0.238898 O
82 3 -0.77142 0.505454 2.30126 1.49497 O
84 3 -0.727058 0.0996026 2.08633 7.65354 O
85 3 -0.683021 -0.346913 4.26541 6.2724 O
96 3 -0.802311 4.17381 0.797563 7.60593 O
102 3 -0.754827 0.668863 4.48505 3.00038 O
103 3 -0.748658 -0.401178 6.36221 4.5306 O
104 3 -0.801497 4.15767 3.6483 7.92154 O
106 3 -0.712317 2.06549 5.57616 5.03674 O
249 2 0.145038 2.52107 4.86888 1.0581 H
111 3 -0.755996 2.70569 6.84442 2.70923 O
171 2 0.0747093 2.51563 1.74323 2.57914 H
176 2 0.0109216 -2.3459 4.762 1.67028 H
173 2 0.101018 1.78301 2.7771 4.38743 H
174 2 0.0274535 3.04316 2.05264 5.38238 H
175 2 0.126003 2.13616 3.46194 6.02592 H
281 2 0.28369 -1.85397 6.54338 7.95828 H
251 2 0.100704 3.45984 3.30241 0.740425 H
90 3 -0.677327 -1.52293 6.98008 7.0817 O
178 2 0.0466353 -1.10193 4.78848 0.300781 H
78 3 -0.710951 1.47353 0.0560849 0.300774 O
161 2 0.0950581 5.48902 1.62823 5.7048 H
247 1 -0.0592978 3.4123 4.24594 1.24476 C
158 2 0.0677271 4.83458 1.38009 5.33523 H
250 2 0.0590056 3.80038 4.22286 2.24147 H
170 2 0.0319358 2.68586 0.335406 3.80527 H
276 2 0.032857 5.55957 1.81588 1.81629 H
172 2 0.0281783 4.10362 0.943568 2.85964 H
189 2 0.0501952 -1.24003 6.79703 1.23055 H
289 2 0.00861536 -2.86292 6.38735 0.388593 H
179 2 0.0517134 1.13971 5.50434 8.12798 H
100 3 -0.8252 6.00822 0.810959 11.8987 O
260 2 0.0184717 1.23418 6.47913 13.0725 H
19 4 0.705545 5.02492 3.17126 15.8133 Si
152 2 0.3437 5.36703 0.86315 14.8205 H
23 4 0.977201 2.33556 2.66733 14.5326 Si
28 4 1.13187 4.41243 4.13063 12.8792 Si
180 2 0.0540268 1.7686 4.00918 8.93943 H
61 1 -0.120881 2.70035 1.75774 9.87811 C
269 2 0.0470058 -1.43102 2.80776 12.4576 H
64 1 -0.0773053 2.47031 0.746269 13.5428 C
53 1 -0.117941 0.948438 4.70006 8.83882 C
97 3 -0.67411 3.44549 2.60308 15.7299 O
98 3 -0.714116 0.841451 2.90214 15.2682 O
99 3 -0.789433 5.61254 2.07064 9.49329 O
108 3 -0.746169 2.89551 3.81913 13.4311 O
109 3 -0.820585 4.65125 3.1234 11.6375 O
24 4 1.3608 5.86702 2.22601 11.1132 Si
20 4 1.07385 4.29954 2.11068 8.55205 Si
148 2 -0.0104582 -1.80349 6.85004 12.9856 H
130 3 -0.645527 5.58528 1.75459 14.3715 O
181 2 0.0186928 0.416935 5.04133 9.71521 H
267 1 -0.122052 -0.997968 3.22765 11.5686 C
86 3 -0.731118 -2.73371 6.76562 10.5196 O
197 2 0.0389665 2.86392 0.81688 10.3938 H
198 2 0.0647923 1.83763 1.78187 9.23688 H
199 2 0.0824452 2.84355 2.58214 10.5867 H
285 2 0.0278073 -0.232806 2.63683 11.1022 H
259 2 0.132884 1.34629 5.07032 14.3007 H
268 2 0.0353861 -0.814191 4.30739 11.5703 H
154 2 0.0183128 3.27291 5.02572 10.1444 H
256 1 -0.0936066 0.911019 6.07669 14.0448 C
208 2 0.0530556 1.49304 0.596454 13.0335 H
185 2 -0.0029814 0.747987 6.91485 11.241 H
83 3 -0.678612 -2.21648 4.18436 8.61031 O
261 2 0.0354604 -0.13824 6.19598 14.257 H
255 4 0.623503 1.89105 7.27338 15.3681 Si
207 2 0.0829896 3.29234 1.15672 12.9111 H
153 2 -0.0111458 2.81342 7.1867 11.718 H
190 2 0.02055 -3.98678 7.28239 13.8556 H
1 4 0.991397 -5.31092 13.0459 1.55795 Si
4 4 1.03398 -4.52699 13.2355 7.06978 Si
12 4 0.736794 -2.98361 8.81096 1.35004 Si
15 4 1.17147 -2.49562 8.81227 7.477 Si
16 4 1.15901 -3.30014 10.9264 5.2621 Si
30 4 0.954068 1.91884 7.63677 1.52523 Si
31 4 1.02554 -1.27017 10.849 2.95939 Si
292 2 0.100381 -1.92172 12.5769 7.19517 H
88 3 -0.800583 -3.30415 9.70203 0.0659924 O
65 1 -0.126931 2.34468 8.20475 7.05897 C
115 3 -0.704415 -1.24705 9.80707 7.80407 O
66 1 -0.0829903 -1.3762 12.74 1.9343 C
280 3 -0.759365 -3.92868 12.2842 0.943142 O
87 3 -0.711199 -6.24791 11.972 2.40016 O
218 2 0.0612862 1.10676 11.009 6.4973 H
215 2 0.0559596 -0.0978633 12.829 7.37624 H
91 3 -0.644276 -4.53608 10.5366 3.92493 O
92 3 -0.712205 -3.24697 9.31427 6.05577 O
93 3 -0.799048 -3.76691 12.3313 5.97321 O
33 4 0.633675 1.35833 10.109 4.18568 Si
149 2 0.0684006 -6.0982 12.2786 5.17359 H
113 3 -0.717892 -1.97536 9.48342 2.43391 O
114 3 -0.725997 -1.77055 11.2595 4.4487 O
67 1 -0.0854118 -1.08426 12.6921 7.84817 C
116 3 -0.693676 0.351999 10.5792 2.95851 O
155 2 0.140706 -1.456 8.14503 4.94005 H
157 2 0.0313553 0.511587 8.80581 4.95699 H
221 2 0.0851949 -0.247287 10.0069 0.436295 H
212 2 0.0598673 -2.2436 13.182 2.46964 H
57 1 -0.121129 -2.02174 7.12143 0.545476 C
151 2 0.294446 2.9494 7.39654 3.48627 H
214 2 0.073213 -0.405634 13.1935 2.12772 H
13 4 0.66914 -5.96966 11.1978 3.79405 Si
213 2 0.121281 -1.59215 12.4296 0.894043 H
168 2 0.134149 -1.86864 8.2462 4.24763 H
211 2 0.077907 1.25833 8.25147 7.09621 H
80 3 -0.761286 -6.1193 13.6101 6.93618 O
11 4 0.633826 -1.63995 7.57059 11.4281 Si
14 4 1.44252 -4.24829 11.795 16.1889 Si
17 4 0.683696 -3.08641 9.63494 12.7128 Si
32 4 0.677698 -0.977726 11.0022 8.87333 Si
34 4 1.14829 -1.726 11.6054 14.5562 Si
184 2 0.0618774 0.130042 7.26032 9.59704 H
55 1 -0.108443 0.253001 7.6081 10.6004 C
89 3 -0.764072 -3.61042 8.59291 8.65444 O
59 1 -0.0753221 -4.45028 10.9489 11.9041 C
69 1 -0.085206 -0.361295 10.9625 16.0686 C
288 2 0.0640346 -2.24712 8.10613 16.0923 H
258 2 0.016443 2.08895 8.92809 14.8914 H
94 3 -0.636973 -1.94763 9.1472 11.6429 O
95 3 -0.75731 -5.45707 11.804 15.0671 O
117 3 -0.726666 -2.29148 10.2274 13.9808 O
118 3 -0.837323 -0.889939 12.4684 13.5256 O
119 3 -0.793588 -2.82875 12.4178 15.4972 O
120 3 -0.681596 0.486219 10.7446 9.57833 O
58 1 -0.0902581 -4.41197 8.29543 13.8607 C
9 4 1.05874 -3.966 7.46677 9.78519 Si
156 2 0.0620795 -2.14386 10.9492 10.1239 H
223 2 0.0235723 1.76581 9.41164 11.8989 H
22 4 1.36644 -0.443102 13.5747 12.4721 Si
220 2 0.0452304 0.0695037 10.2377 15.421 H
192 2 0.116106 -5.16567 10.3511 11.3315 H
193 2 0.0501049 -3.85229 11.559 11.2504 H
194 2 0.0988626 -4.86676 11.5161 12.7216 H
222 2 0.0601797 0.23996 11.8396 16.3231 H
147 2 0.00970885 -4.44953 12.0911 8.40478 H
191 2 0.0958009 -4.46032 8.7971 14.8136 H
186 2 0.0869173 0.546389 8.64489 10.6776 H
216 2 0.080881 -1.23705 13.3971 8.63066 H
224 2 0.0662328 1.01368 10.4432 13.1455 H
206 2 0.136933 -4.93983 13.7177 14.3882 H
2 4 1.0854 13.7279 1.05505 4.09892 Si
21 4 0.65246 7.76202 4.52005 5.49669 Si
234 2 0.0583639 8.87751 4.12636 1.5706 H
36 4 0.987593 8.69848 2.10568 4.3709 Si
283 2 0.0287972 13.48 0.160066 1.57788 H
40 4 1.16801 11.2142 1.4167 5.71312 Si
43 4 0.625251 10.3361 2.18081 1.92312 Si
236 2 0.0429251 10.2066 4.74246 2.58074 H
62 1 -0.0738034 9.24858 5.25078 6.79826 C
63 1 -0.113369 7.20437 6.43332 4.73059 C
127 3 -0.80228 11.8428 1.72583 7.16186 O
105 3 -0.740097 6.46712 3.88533 6.32974 O
122 3 -0.710551 8.47655 3.71367 4.26738 O
125 3 -0.811822 12.1211 1.00419 4.43005 O
126 3 -0.790084 9.64994 1.68159 5.64311 O
277 2 0.036318 6.60496 3.2995 1.63498 H
133 3 -0.694844 9.11534 1.60909 2.8347 O
134 3 -0.656422 10.6576 1.45491 0.515587 O
203 2 0.0305622 7.945 6.59192 3.95866 H
74 1 -0.117618 9.93702 4.27629 1.64445 C
162 2 0.306458 12.3222 3.64461 8.02919 H
164 2 0.0670896 11.717 2.10792 2.93313 H
246 4 0.635051 4.79236 5.3123 0.0842501 Si
205 2 0.0674781 6.19267 6.4542 4.41073 H
200 2 0.105202 9.75781 4.32304 7.14334 H
275 2 0.0999204 7.25182 1.67859 1.14701 H
26 4 1.44998 5.29046 4.61706 7.22323 Si
202 2 0.0245373 9.81003 5.84995 6.14749 H
177 2 0.0241821 13.0054 3.31487 0.604741 H
274 1 -0.10667 6.37312 2.28505 1.30161 C
54 1 -0.113921 12.0984 4.79998 4.96703 C
235 2 0.0191101 10.4465 4.6491 0.758485 H
248 1 -0.114157 6.18744 6.22235 1.3949 C
183 2 0.0493376 11.7933 4.02234 5.67228 H
107 3 -0.770868 4.48441 5.81349 6.41697 O
253 2 0.0475754 6.94395 6.51789 0.698344 H
201 2 0.109737 8.76027 5.79297 7.54873 H
254 2 0.0304531 6.37168 5.33565 2.0147 H
182 2 0.0258224 11.4454 5.64818 4.84974 H
286 2 0.0536093 12.4998 4.46966 4.01643 H
204 2 0.0292725 7.39439 6.97728 5.64266 H
5 4 0.835913 12.5346 2.9299 10.2261 Si
44 4 1.08332 6.16901 6.95074 9.10484 Si
264 1 -0.116678 13.3299 1.62946 15.603 C
39 4 0.702014 8.42333 3.09623 9.87853 Si
41 4 0.623761 7.55712 1.7711 14.8563 Si
42 4 0.643221 10.2554 4.79229 10.6742 Si
71 1 -0.0630286 9.30855 1.39814 9.43873 C
233 2 0.0340607 9.87581 6.21815 12.7712 H
72 1 -0.103309 8.17236 3.70912 15.1643 C
73 1 -0.0897472 9.3583 5.33174 12.4649 C
228 2 0.11637 8.97338 0.634905 10.1869 H
101 3 -0.641558 5.02321 4.78366 15.6222 O
232 2 0.0942407 8.3133 5.50722 12.2407 H
124 3 -0.700309 7.58619 2.98649 11.2813 O
128 3 -0.669252 8.7326 1.16558 13.3402 O
129 3 -0.648761 7.80067 0.937118 16.206 O
29 4 0.722216 4.06751 6.20882 11.0581 Si
131 3 -0.67174 11.2463 3.50834 11.0471 O
132 3 -0.643223 9.28784 4.39002 9.41997 O
244 2 0.0417795 12.2889 0.518708 12.8821 H
123 3 -0.793911 12.4631 1.42148 9.73455 O
135 3 -0.754112 6.12567 5.462 8.33226 O
295 2 0.0544123 9.56126 4.45011 13.0764 H
163 2 0.293519 8.65957 1.95868 12.5757 H
226 2 0.127737 10.3888 1.64865 9.63102 H
266 2 0.0447109 13.2796 2.46482 14.9213 H
229 2 0.0743432 9.18532 3.46319 15.4867 H
230 2 0.0375147 7.6187 4.07291 15.9663 H
231 2 0.0499615 8.02676 4.20936 14.2488 H
110 3 -0.691962 4.87566 5.58761 12.2932 O
150 2 0.0424828 11.0283 4.06755 14.9274 H
257 3 -0.615142 3.48254 6.93414 15.5639 O
227 2 0.0775649 9.02379 1.12775 8.4585 H
265 2 0.0453493 13.5655 0.679632 15.1257 H
284 2 0.0449742 12.6218 1.63069 16.3745 H
38 4 1.10094 12.5921 0.776094 8.25347 Si
136 3 -0.742523 4.89066 7.13649 10.1009 O
138 3 -0.75867 7.59039 7.14589 9.83701 O
252 2 0.0456015 5.62545 6.99423 1.84912 H
219 2 0.0722185 0.595557 12.33 5.24987 H
46 4 0.644674 3.31251 9.89133 2.34657 Si
239 2 0.0506343 5.51157 9.44274 8.08249 H
262 1 -0.11056 6.22406 13.2285 2.35439 C
238 2 0.0432184 6.9933 8.62237 7.31877 H
140 3 -0.696874 2.85749 9.65673 3.88936 O
273 2 0.0446045 7.1681 10.0422 5.08705 H
270 1 -0.119319 7.66909 9.85864 4.16056 C
141 3 -0.735956 4.43909 12.8254 7.91277 O
68 1 -0.0885884 1.31767 11.5567 5.55703 C
166 2 -0.0201826 3.57357 11.6151 2.13767 H
167 2 -0.00424678 4.94981 9.23857 2.35404 H
75 1 -0.11863 5.9392 8.56902 7.59764 C
217 2 0.0653833 2.32751 11.8662 5.55112 H
272 2 0.0336991 7.07393 10.0012 3.30818 H
139 3 -0.707421 2.457 9.17617 1.23743 O
237 2 0.0514917 5.35539 8.1497 6.82596 H
187 2 0.00782226 10.1984 7.26361 1.36605 H
271 2 0.0421279 8.21827 8.92849 4.14438 H
159 2 0.0354795 2.05184 12.7499 1.7451 H
282 2 0.106276 7.3204 13.1242 2.30086 H
263 2 0.0300429 5.63473 12.4289 2.74681 H
209 2 0.0368259 2.75743 8.88702 6.35252 H
291 2 0.0705792 8.55618 10.0916 0.900608 H
60 1 -0.12569 7.75604 9.99772 0.148072 C
196 2 0.0379452 6.92109 10.6739 0.285509 H
56 1 -0.119996 10.4352 7.84888 2.22962 C
287 2 0.0726891 9.85621 8.72966 2.39794 H
188 2 0.0403832 10.7147 7.24608 3.08707 H
210 2 0.0315842 2.8357 8.12077 8.02457 H
37 4 0.621854 2.24128 13.6088 0.239611 Si
18 4 0.735603 8.26835 11.0647 14.9184 Si
195 2 0.0290714 6.7921 9.57044 16.413 H
35 4 1.00681 1.30402 11.6717 10.659 Si
47 4 1.02495 3.91815 11.7636 9.08884 Si
48 4 0.735517 7.10328 10.347 12.3099 Si
49 4 0.667891 5.61883 12.4679 11.2122 Si
243 2 0.108301 3.41451 13.6651 11.6407 H
225 2 0.0218542 2.75561 10.6969 12.7946 H
77 1 -0.0913543 4.14431 13.3249 12.3177 C
294 2 0.0759398 3.03864 13.8986 14.6222 H
241 2 0.0800111 5.71469 8.24782 13.0564 H
165 2 -0.0072524 7.80937 7.99398 12.4277 H
142 3 -0.763952 2.61899 12.3 9.8894 O
143 3 -0.771655 7.9408 9.66964 10.3986 O
144 3 -0.682767 8.10805 10.1199 13.6313 O
145 3 -0.735453 5.06357 11.3724 10.118 O
146 3 -0.681226 6.66293 11.8901 12.2531 O
76 1 -0.101966 5.40128 9.23678 12.7744 C
45 4 1.03937 8.404 8.18495 10.7648 Si
160 2 0.318247 7.14344 9.90334 9.91617 H
169 2 0.0468001 6.65297 13.5708 10.3287 H
137 3 -0.77583 10.0276 7.97446 10.8589 O
278 1 -0.111735 2.81939 13.1653 15.3824 C
240 2 0.0381819 4.89774 9.76773 13.5831 H
121 3 -0.818539 0.302999 12.8099 11.3187 O
245 2 0.0305752 3.8508 12.48 12.939 H
242 2 0.0723353 4.93115 9.19751 11.7975 H
290 2 0.0749142 9.84048 8.35814 13.2792 H
293 2 0.0477126 2.1515 12.3957 15.0107 H
70 1 -0.126731 1.80018 10.3759 12.4021 C
279 2 0.0137191 3.63596 12.8504 15.9913 H
ITEM: TIMESTEP
100
ITEM: NUMBER OF ATOMS
295
ITEM: BOX BOUNDS xy xz yz pp pp pp
-8.3339999999999996e+00 1.5144700000000000e+01 -7.6974000000000000e+00
0.0000000000000000e+00 1.4492194000000001e+01 -6.3660000000000005e-01
0.0000000000000000e+00 1.6498000000000001e+01 8.8339400000000090e-01
ITEM: ATOMS id type q x y z element
6 4 1.08705 0.65061 1.20152 6.50658 Si
7 4 1.09571 -0.201657 3.28468 2.3952 Si
8 4 0.785547 -0.458017 3.66696 7.80083 Si
10 4 0.881029 -1.08555 5.75777 5.69353 Si
25 4 1.16057 1.11387 5.67324 3.72184 Si
27 4 0.721681 3.21324 6.2574 5.88761 Si
50 1 -0.121087 2.9866 1.04545 2.76129 C
51 1 -0.0662386 1.79723 2.69631 5.48353 C
52 1 -0.137686 -1.84527 4.20483 1.41737 C
289 2 0.0130505 -2.61549 6.52505 0.451758 H
81 3 -0.785998 -1.00808 2.58903 3.61756 O
3 4 1.07861 0.687684 1.38878 0.00760593 Si
172 2 0.0296899 3.99051 1.33399 2.43444 H
82 3 -0.811203 0.302149 2.13013 1.36895 O
84 3 -0.737431 0.0126362 2.04351 7.76074 O
85 3 -0.664825 -0.381181 4.41132 6.31817 O
96 3 -0.816622 4.24995 0.659146 7.55463 O
102 3 -0.793611 0.955931 4.36984 2.74313 O
103 3 -0.767067 -0.222726 6.27509 4.35766 O
104 3 -0.780288 4.20959 3.2527 7.62375 O
106 3 -0.710502 2.06362 5.49279 5.04266 O
249 2 0.113356 2.31808 4.74203 0.788753 H
111 3 -0.769082 2.77399 6.81033 2.62352 O
171 2 0.0815885 2.21242 1.74297 2.53972 H
176 2 0.0269978 -2.21649 4.90193 2.2022 H
173 2 0.0973561 1.32777 2.79139 4.52919 H
174 2 0.0604714 2.7412 2.20444 5.42582 H
175 2 0.133449 1.89855 3.54999 6.15141 H
281 2 0.302927 -2.07299 6.36611 7.82368 H
251 2 0.0842794 3.38869 3.37497 1.0254 H
90 3 -0.711195 -1.51639 6.89314 7.21928 O
178 2 0.0294974 -1.20684 4.65554 0.691952 H
276 2 0.0397243 5.90397 1.33795 1.53447 H
161 2 0.110073 5.29235 0.834375 5.57116 H
247 1 -0.0546874 3.25431 4.43691 1.14698 C
158 2 0.0746743 5.81112 0.253303 5.46728 H
250 2 0.100773 3.48204 4.76618 2.15109 H
170 2 0.0441604 2.96089 0.725666 3.77657 H
54 1 -0.116065 -2.91042 5.119 4.98014 C
182 2 0.0233912 -3.24352 5.98718 4.4228 H
79 3 -0.73814 -0.445039 0.615814 5.49804 O
100 3 -0.82071 6.05577 0.818484 11.823 O
260 2 0.045439 1.27073 5.94666 13.2212 H
19 4 0.69532 5.01889 3.16631 15.8672 Si
152 2 0.359789 5.3598 0.885519 14.8989 H
23 4 0.904492 2.3903 2.63979 14.5637 Si
28 4 1.16244 4.45526 4.0848 12.9548 Si
180 2 0.036483 1.57107 3.77233 9.23481 H
61 1 -0.130308 2.67398 1.81509 9.91684 C
269 2 0.0507577 -1.06361 2.93439 12.4452 H
64 1 -0.0807171 2.40467 0.806151 13.4206 C
53 1 -0.122089 0.954907 4.63124 9.01036 C
97 3 -0.652303 3.53377 2.53473 15.8626 O
98 3 -0.731443 0.941455 2.79397 15.4391 O
99 3 -0.765743 5.63538 1.8866 9.50419 O
108 3 -0.726623 2.93824 3.8411 13.4742 O
109 3 -0.848768 4.74464 3.04575 11.8031 O
24 4 1.42445 5.99987 2.29339 11.142 Si
20 4 1.07248 4.30709 1.91672 8.54311 Si
148 2 -0.0108853 -1.41911 6.9519 12.9282 H
130 3 -0.655394 5.64627 1.70696 14.4488 O
181 2 0.0200506 0.377459 5.04881 9.82191 H
267 1 -0.118553 -0.790318 3.2007 11.4171 C
86 3 -0.722882 -2.68051 6.73553 10.6025 O
197 2 0.0295757 3.10958 0.945924 10.3833 H
198 2 0.0591975 1.72789 1.64351 9.38196 H
199 2 0.0699171 2.78605 2.7243 10.4638 H
285 2 0.0347222 0.0261554 2.60624 11.0245 H
259 2 0.116133 1.29777 4.98272 14.7845 H
268 2 0.0258474 -0.569599 4.23374 11.2656 H
154 2 -0.00208984 2.97858 5.27187 10.3669 H
256 1 -0.0851853 0.948486 5.8328 14.2465 C
208 2 0.0326759 1.45052 1.04182 12.9453 H
185 2 -0.00299829 0.70133 7.07045 10.9081 H
83 3 -0.680987 -2.292 4.13305 8.36955 O
261 2 0.0337909 -0.120433 6.04067 14.4264 H
255 4 0.657233 1.84731 7.33973 15.3893 Si
207 2 0.0884768 3.2599 1.01985 12.8143 H
179 2 0.0496506 1.4417 5.35087 8.39735 H
150 2 0.0364752 -2.76088 4.84783 14.1866 H
1 4 1.10318 -5.24552 12.9988 1.49279 Si
4 4 1.12789 -4.48904 13.1056 7.21896 Si
12 4 0.727257 -3.02655 8.8412 1.39083 Si
15 4 1.26488 -2.49256 8.81306 7.50678 Si
16 4 1.14341 -3.42751 10.8996 5.35519 Si
30 4 1.00033 1.88512 7.65336 1.513 Si
31 4 1.08483 -1.27348 10.8125 2.93365 Si
292 2 0.070431 -1.63261 12.5723 7.14739 H
88 3 -0.792989 -3.80834 9.65583 0.242544 O
65 1 -0.129381 2.59439 7.84824 7.04598 C
115 3 -0.753359 -1.31968 9.84541 7.775 O
66 1 -0.102687 -1.46997 12.5461 1.63282 C
280 3 -0.824731 -4.08191 12.1709 0.789052 O
87 3 -0.71737 -6.2675 12.1579 2.40997 O
188 2 0.0498452 -3.84194 7.6001 3.29385 H
215 2 0.0586945 -0.243294 13.1261 8.16036 H
91 3 -0.673962 -4.40124 10.8033 4.04388 O
92 3 -0.762035 -3.3523 9.20016 6.25619 O
93 3 -0.818295 -3.91699 12.2718 6.03906 O
33 4 0.678176 1.38664 10.1421 4.15368 Si
149 2 0.0908984 -6.38495 12.3492 5.03256 H
113 3 -0.742299 -2.08195 9.53324 2.49923 O
114 3 -0.697189 -1.67363 11.0901 4.427 O
67 1 -0.0917246 -1.23593 12.7774 8.142 C
116 3 -0.72797 0.32367 10.475 3.01701 O
155 2 0.119078 -2.07419 8.42318 4.86205 H
157 2 0.0368606 0.844602 8.6013 4.80426 H
221 2 0.0503612 -0.317143 9.47078 0.115897 H
212 2 0.0772416 -2.44473 12.9798 1.81341 H
57 1 -0.12231 -1.92872 7.33023 0.519539 C
151 2 0.275263 3.03119 7.45606 3.34715 H
214 2 0.0579017 -0.635111 13.267 1.89927 H
13 4 0.633514 -5.96236 11.2812 3.79874 Si
213 2 0.0774887 -1.33553 12.1058 0.675866 H
168 2 0.121236 -1.53786 8.78339 4.85863 H
211 2 0.0639647 1.52426 7.86741 7.04003 H
80 3 -0.778058 -5.97284 13.5957 6.85076 O
210 2 0.0313118 2.98213 7.57462 8.01499 H
189 2 0.052681 -1.15655 7.22249 1.29955 H
219 2 0.0737784 0.438886 12.1854 5.3673 H
222 2 0.0601871 0.453651 11.0125 0.380768 H
112 3 -0.740931 1.51653 6.98529 0.10031 O
78 3 -0.743057 -6.30488 13.5452 0.322524 O
56 1 -0.105525 -4.45142 7.8693 2.46974 C
11 4 0.648928 -1.69381 7.75066 11.4371 Si
14 4 1.49352 -4.2734 11.7188 16.1199 Si
17 4 0.722269 -3.25183 9.82329 12.8235 Si
32 4 0.701019 -1.0399 10.9869 8.86056 Si
34 4 1.15535 -1.66612 11.6586 14.6535 Si
184 2 0.0871993 -0.260133 7.42275 9.43706 H
55 1 -0.10723 0.0753072 7.77375 10.3879 C
89 3 -0.767072 -3.44198 8.59143 8.79321 O
59 1 -0.0789617 -4.46573 11.154 11.6628 C
69 1 -0.0906653 -0.326623 10.8261 16.1837 C
288 2 0.0567301 -2.2371 8.35391 16.0809 H
258 2 0.0127014 1.82126 8.82559 14.5095 H
94 3 -0.658355 -2.1489 9.24223 11.8497 O
95 3 -0.759493 -5.32907 11.6973 14.884 O
117 3 -0.730581 -2.29923 10.3559 14.0203 O
118 3 -0.817157 -0.654996 12.412 13.6608 O
119 3 -0.827502 -2.89946 12.3784 15.3788 O
120 3 -0.725823 0.402623 10.8178 9.58466 O
58 1 -0.0942654 -4.36198 8.25981 13.6027 C
9 4 1.03321 -3.95987 7.3806 9.80332 Si
156 2 0.042922 -2.24202 10.8922 10.0845 H
190 2 0.0301277 -3.70638 7.43666 13.437 H
22 4 1.30134 -0.474413 13.5037 12.4551 Si
220 2 0.0802186 0.617125 10.4518 15.7546 H
192 2 0.0872462 -4.33721 10.7583 10.6587 H
193 2 0.0552176 -4.07432 12.1618 11.8367 H
194 2 0.0933853 -5.43434 10.9936 12.1231 H
153 2 -0.00546351 2.72758 7.49586 11.8398 H
147 2 -0.0264632 -4.69184 12.059 8.62985 H
191 2 0.0677568 -4.46532 8.51143 14.657 H
186 2 0.0885513 0.413418 8.80069 10.323 H
216 2 0.102138 -1.89663 13.3797 8.76418 H
224 2 0.0446713 0.949614 9.59576 12.3113 H
206 2 0.135857 -5.25919 13.602 14.1238 H
2 4 1.06005 13.7313 1.13128 4.22701 Si
21 4 0.670044 7.73835 4.63796 5.46099 Si
234 2 0.041205 8.71972 4.41106 1.17777 H
36 4 1.04525 8.5959 2.04451 4.411 Si
283 2 0.0462009 13.3217 0.143455 1.6922 H
40 4 1.15537 11.1879 1.5196 5.69959 Si
43 4 0.59123 10.1327 2.15037 1.9641 Si
236 2 0.0348749 10.0796 4.80246 2.30237 H
62 1 -0.0962862 9.16894 5.42375 6.83473 C
63 1 -0.12267 7.33081 6.44795 4.346 C
127 3 -0.856567 12.0033 1.76015 7.05671 O
105 3 -0.718037 6.48864 3.97469 6.24545 O
122 3 -0.733226 8.44107 3.63235 4.36512 O
125 3 -0.781397 12.1243 0.956822 4.48912 O
126 3 -0.804364 9.60236 1.47967 5.5865 O
277 2 0.0373685 6.63135 2.95935 1.71714 H
133 3 -0.709917 8.98916 1.46768 2.94488 O
134 3 -0.651893 10.5958 1.36317 0.572077 O
203 2 0.0340249 7.90055 6.22369 3.46173 H
74 1 -0.11852 9.77102 4.24954 1.43206 C
162 2 0.330753 12.2453 3.56639 7.82376 H
164 2 0.0477192 11.5677 2.29061 2.83703 H
254 2 0.0301343 6.67118 5.51533 1.73512 H
205 2 0.0649473 6.2519 6.30409 4.26737 H
200 2 0.0804581 9.67283 4.60159 7.19428 H
275 2 0.083958 7.59568 1.67682 0.854406 H
26 4 1.36734 5.27884 4.49081 7.2279 Si
202 2 0.0259241 9.71586 6.17905 6.25554 H
177 2 0.0391724 12.672 3.39728 1.06732 H
274 1 -0.104585 6.6243 2.0519 1.16352 C
252 2 0.0508982 5.48152 6.84086 1.84287 H
235 2 0.0296193 10.515 4.28089 0.655472 H
248 1 -0.105497 6.14805 6.26304 1.20316 C
183 2 0.034804 11.6668 4.93444 5.87351 H
107 3 -0.774101 4.65344 5.6988 6.31262 O
286 2 0.0650971 12.4176 4.23061 4.39607 H
201 2 0.0943494 8.51447 5.93256 7.55619 H
5 4 0.74923 12.6735 3.07676 10.197 Si
44 4 1.05165 6.08685 6.82909 9.20872 Si
264 1 -0.126652 13.4011 1.59934 15.399 C
39 4 0.732866 8.4766 3.16773 9.71897 Si
41 4 0.624565 7.61659 1.79448 14.8199 Si
42 4 0.665553 10.4372 4.73039 10.7985 Si
71 1 -0.0699209 9.31389 1.36405 9.38243 C
233 2 0.0371241 9.51751 6.33076 12.5991 H
72 1 -0.114406 8.11843 3.74643 15.1868 C
73 1 -0.0933051 9.28911 5.29333 12.3985 C
228 2 0.11855 8.53612 0.75363 9.81207 H
101 3 -0.670457 4.99781 4.80866 15.6807 O
232 2 0.111606 8.26757 5.19282 12.0175 H
124 3 -0.760191 7.43544 3.1563 11.0055 O
128 3 -0.648035 8.60821 1.27673 13.1833 O
129 3 -0.659528 7.79429 0.703744 16.0282 O
29 4 0.674559 3.97168 6.41397 11.2495 Si
131 3 -0.66063 11.4278 3.47272 11.1647 O
132 3 -0.676295 9.45282 4.39612 9.57729 O
138 3 -0.744831 7.59076 7.08784 9.75978 O
123 3 -0.77249 12.602 1.41138 9.75241 O
135 3 -0.737384 5.9659 5.31975 8.60371 O
295 2 0.0406104 9.61658 4.6145 13.1624 H
163 2 0.289476 8.39035 2.11634 12.5839 H
226 2 0.117134 10.1875 1.34915 10.0258 H
266 2 0.0419629 13.3573 2.4036 14.693 H
229 2 0.0466847 9.04827 3.94439 14.7663 H
230 2 0.0327438 8.13829 3.69469 16.2964 H
231 2 0.0547493 7.29391 4.31055 14.7776 H
110 3 -0.690962 4.56446 5.68296 12.5671 O
38 4 1.21568 12.4978 0.846929 8.26165 Si
257 3 -0.616872 3.47385 7.16584 15.6138 O
227 2 0.0630718 9.42592 1.37038 8.26892 H
265 2 0.0355374 13.4861 0.64074 14.9502 H
284 2 0.0485994 12.64 1.70173 16.1856 H
243 2 0.118595 11.6989 0.723203 11.6953 H
246 4 0.65815 4.14122 5.91551 16.4824 Si
287 2 0.069633 9.91583 8.56112 2.73871 H
204 2 0.0236248 7.67891 7.26504 4.94616 H
46 4 0.592875 3.30199 10.0143 2.3455 Si
239 2 0.040641 5.16035 8.91377 7.91467 H
262 1 -0.0957808 6.10777 13.2579 2.5588 C
238 2 0.0457193 6.81539 8.72027 7.40914 H
140 3 -0.68074 2.92955 9.76925 3.9702 O
273 2 0.0335779 7.29257 10.0998 4.68125 H
270 1 -0.11679 7.80506 9.79507 3.78595 C
141 3 -0.773561 4.61096 12.8726 8.10799 O
68 1 -0.0845234 1.32401 11.5824 5.54639 C
166 2 -0.0204035 3.35488 11.6599 1.84562 H
167 2 -0.00185439 4.96308 9.53472 2.10942 H
75 1 -0.116298 5.88703 8.24237 7.5343 C
217 2 0.0803714 2.25195 12.1721 5.45361 H
272 2 0.0437874 7.31439 9.9254 2.81212 H
139 3 -0.699434 2.3966 9.17416 1.31753 O
237 2 0.0684694 5.55188 7.62674 6.69632 H
187 2 0.0148571 10.3428 7.04636 1.87115 H
271 2 0.0363615 8.32456 8.88886 3.92151 H
159 2 0.0609932 1.61462 13.009 1.74563 H
282 2 0.11713 7.14978 13.0271 2.40797 H
263 2 0.0449422 5.49111 12.5263 3.08128 H
209 2 0.0387459 3.00936 8.79028 6.71067 H
291 2 0.0630433 8.45091 9.69902 0.640955 H
37 4 0.641102 2.17828 13.5734 0.186418 Si
196 2 0.0998627 8.11043 11.4541 0.146144 H
218 2 0.0510835 1.42543 10.9623 6.4104 H
253 2 0.0562985 6.82104 6.83779 0.575227 H
18 4 0.718981 8.38184 10.9605 14.7248 Si
195 2 0.0227291 6.30205 10.6945 16.1781 H
35 4 1.0275 1.23769 11.7012 10.6571 Si
47 4 1.02915 3.91607 11.8652 9.18541 Si
48 4 0.811232 7.06091 10.2993 12.3288 Si
49 4 0.674739 5.71579 12.5749 11.258 Si
136 3 -0.734301 4.85161 7.29472 10.2226 O
225 2 0.0582805 1.63216 11.094 13.1914 H
77 1 -0.0880635 4.20308 13.4699 12.2979 C
294 2 0.0735627 2.75674 13.5193 14.6106 H
241 2 0.0807599 5.63491 8.24277 12.4593 H
165 2 0.006164 7.70922 7.77656 12.2587 H
142 3 -0.761548 2.6333 12.358 10.021 O
143 3 -0.729981 7.90041 9.73386 10.3505 O
144 3 -0.719053 7.97429 9.88898 13.5446 O
145 3 -0.705148 5.10799 11.4671 10.2216 O
146 3 -0.697964 6.76937 11.8595 12.212 O
76 1 -0.0939482 5.23786 9.23301 12.495 C
45 4 0.992446 8.36437 8.20579 10.6718 Si
160 2 0.300613 7.18038 9.90828 9.60789 H
169 2 0.0609003 6.61525 13.6892 10.3578 H
137 3 -0.756269 10.0024 7.95667 10.7374 O
278 1 -0.116373 2.93168 13.0602 15.5767 C
240 2 0.0409636 4.91901 9.60505 13.4372 H
121 3 -0.79654 0.421095 12.9715 11.2221 O
245 2 0.069052 3.38471 12.8062 12.3194 H
242 2 0.080018 4.70633 9.58456 11.6387 H
290 2 0.0816661 9.85072 8.17505 13.0466 H
293 2 0.0370665 2.65054 12.0138 15.6484 H
70 1 -0.126307 1.71772 10.3665 12.3715 C
279 2 0.0252617 3.91197 13.2978 15.9944 H
223 2 0.0184173 2.73941 10.0523 12.1888 H
244 2 0.026866 4.67831 13.6955 13.2149 H
60 1 -0.114877 7.33912 10.9672 16.4177 C
ITEM: TIMESTEP
200
ITEM: NUMBER OF ATOMS
295
ITEM: BOX BOUNDS xy xz yz pp pp pp
-8.3339999999999996e+00 1.5144700000000000e+01 -7.6974000000000000e+00
0.0000000000000000e+00 1.4795088000000000e+01 -6.3660000000000005e-01
0.0000000000000000e+00 1.6498000000000001e+01 1.1862879999999993e+00
ITEM: ATOMS id type q x y z element
6 4 1.01609 0.672104 1.22757 6.60708 Si
7 4 1.16518 -0.211449 3.19567 2.31771 Si
8 4 0.770319 -0.505975 3.77624 7.81325 Si
10 4 0.870205 -0.96945 5.6831 5.62727 Si
25 4 1.20513 1.20912 5.59353 3.68442 Si
27 4 0.689063 3.33273 6.23974 5.72741 Si
50 1 -0.125591 3.13005 1.02494 2.28677 C
51 1 -0.0643538 1.91449 2.61103 5.52689 C
52 1 -0.143235 -1.71985 4.32543 1.39301 C
289 2 -0.00110928 -2.55939 6.44482 0.334507 H
81 3 -0.797051 -0.797068 2.51352 3.65681 O
54 1 -0.120971 -2.82351 5.20537 4.79988 C
172 2 0.0787417 3.64527 1.42046 1.45016 H
82 3 -0.84588 0.185159 2.0795 1.24095 O
84 3 -0.713319 -0.0790285 2.18213 7.78107 O
85 3 -0.712092 -0.406094 4.36315 6.32076 O
96 3 -0.80703 4.12088 0.612606 7.64952 O
102 3 -0.828935 0.776164 4.35573 2.79122 O
103 3 -0.787705 -0.042758 6.32756 4.44349 O
104 3 -0.780727 4.23691 3.21993 7.59473 O
106 3 -0.707614 2.37614 5.31253 4.78214 O
249 2 0.128322 2.81854 4.77978 1.66586 H
111 3 -0.778105 2.69975 6.80042 2.50425 O
171 2 0.0535406 2.4024 1.69655 2.71158 H
176 2 0.0285484 -1.65136 5.17408 2.02025 H
173 2 0.150544 1.16095 3.24414 5.0519 H
174 2 0.0457456 2.5922 2.03634 4.92014 H
175 2 0.109508 2.3971 3.0521 6.37745 H
281 2 0.27722 -1.68636 6.34538 7.74689 H
251 2 0.0861699 3.08578 3.20684 0.82578 H
90 3 -0.695416 -1.25985 7.02253 7.12166 O
178 2 0.0363551 -1.43722 4.48251 0.332685 H
276 2 0.0330425 5.76137 1.52876 1.80028 H
158 2 0.0424248 5.71421 0.6501 4.83528 H
247 1 -0.0822328 3.54379 4.04499 1.31113 C
182 2 0.0279861 -2.75249 5.42167 3.76127 H
250 2 0.0295304 4.32854 3.84537 1.99295 H
170 2 0.0201753 3.76566 0.570448 3.03776 H
179 2 0.0523977 1.32566 5.49026 8.19192 H
211 2 0.074746 1.41522 7.1459 6.95545 H
100 3 -0.82128 6.14062 0.981322 11.9329 O
260 2 0.0813354 1.72088 5.79375 13.9303 H
19 4 0.70989 5.09909 3.38032 15.9204 Si
152 2 0.350911 5.3421 1.10222 14.8512 H
23 4 0.942151 2.41764 2.7751 14.6524 Si
28 4 1.15694 4.4927 4.06797 12.9318 Si
180 2 0.0379845 1.62792 4.17731 9.37001 H
61 1 -0.127696 2.60129 1.81138 9.8214 C
269 2 0.0378817 -0.579446 2.4757 12.0369 H
64 1 -0.0916043 2.25939 0.992589 13.32 C
53 1 -0.123177 0.915296 4.85563 8.97124 C
97 3 -0.666717 3.6237 2.67241 15.8732 O
98 3 -0.754513 0.808867 3.12613 15.2842 O
99 3 -0.772317 5.70395 1.90873 9.44086 O
108 3 -0.74988 3.00246 3.9067 13.6396 O
109 3 -0.809747 4.72839 3.27665 11.5754 O
24 4 1.35612 5.95054 2.31043 11.0318 Si
20 4 1.09 4.28988 1.93287 8.56257 Si
148 2 -0.0196475 -0.995154 7.20985 12.7838 H
130 3 -0.656143 5.65206 1.97733 14.4121 O
181 2 0.0181953 0.348251 5.35425 9.7198 H
267 1 -0.130332 -0.533668 3.25935 11.3105 C
86 3 -0.7239 -2.8923 6.87576 10.8811 O
197 2 0.0246807 2.64414 0.785619 10.1759 H
198 2 0.0626043 1.85123 1.97399 9.07511 H
199 2 0.0654363 2.6279 2.64585 10.5249 H
285 2 0.0245526 0.168758 3.11954 10.5011 H
259 2 0.107512 0.941419 5.33284 15.4741 H
268 2 0.0319756 -0.447191 4.25276 11.7556 H
154 2 -0.00208605 2.82137 5.51629 10.446 H
256 1 -0.0905185 1.00141 6.05044 14.6789 C
208 2 0.0319642 1.42875 1.37699 12.8102 H
185 2 -0.00523833 0.70857 7.17248 10.5121 H
83 3 -0.689891 -2.31079 4.47457 8.62588 O
261 2 0.0211062 0.0494225 6.29758 14.3104 H
255 4 0.644231 1.7577 7.54583 15.4117 Si
207 2 0.0698111 3.19754 0.930951 12.7881 H
3 4 1.09006 -0.0802796 2.36127 16.3388 Si
150 2 0.0415926 -1.69242 4.85214 13.6817 H
1 4 1.08061 -5.42462 13.0744 1.46082 Si
4 4 1.18111 -4.58251 13.0489 7.2656 Si
12 4 0.806625 -3.00271 8.69174 1.41225 Si
15 4 1.29075 -2.50813 8.73283 7.47799 Si
16 4 1.30367 -3.48124 10.9041 5.29176 Si
30 4 1.06397 1.90247 7.74062 1.4816 Si
31 4 1.0265 -1.23003 10.6537 3.02893 Si
292 2 0.123544 -1.99342 12.7071 7.466 H
88 3 -0.744657 -3.49718 9.78241 0.60711 O
65 1 -0.131355 2.45092 7.50752 7.06566 C
115 3 -0.739605 -1.35604 9.80945 7.74691 O
66 1 -0.0872506 -1.2562 12.5527 2.0184 C
280 3 -0.655004 -4.17557 12.3766 0.657262 O
87 3 -0.749949 -6.17238 12.0894 2.42936 O
112 3 -0.728624 1.41272 6.93628 0.19616 O
78 3 -0.725807 -6.44258 13.6051 0.260553 O
91 3 -0.752472 -4.71026 10.7287 4.24892 O
92 3 -0.722249 -3.41516 9.23838 6.2647 O
93 3 -0.857838 -3.75745 12.0925 6.36968 O
33 4 0.631817 1.48637 10.1172 4.25783 Si
149 2 0.0456362 -6.81189 12.3267 5.06987 H
113 3 -0.743816 -1.84951 9.43053 2.2377 O
114 3 -0.751928 -1.95153 11.1114 4.47799 O
161 2 0.0980547 -2.20627 13.6412 5.23228 H
116 3 -0.7068 0.428405 10.4195 3.07195 O
155 2 0.105594 -1.24607 7.9517 3.88771 H
157 2 0.0349078 1.0512 8.56601 4.85504 H