ITEM: TIMESTEP
0
ITEM: NUMBER OF ATOMS
295
ITEM: BOX BOUNDS xy xz yz pp pp pp
-8.3339999999999996e+00 1.5144700000000000e+01 -7.6974000000000000e+00
0.0000000000000000e+00 1.4189300000000001e+01 -6.3660000000000005e-01
0.0000000000000000e+00 1.6498000000000001e+01 5.8050000000000002e-01
ITEM: ATOMS id type q x y z
6 4 1.20524 0.611145 1.62104 5.93127
7 4 1.28187 -0.130979 3.89188 2.08686
8 4 1.25099 -0.917106 4.00959 7.6255
10 4 1.24537 -2.05605 6.65778 5.41746
25 4 1.42651 0.974725 6.15 4.0423
27 4 0.952587 3.47762 6.43333 5.71994
50 1 -0.662863 2.90719 0.862808 1.9522
51 1 -0.687344 2.28066 2.40823 5.53588
52 1 -0.658023 -1.62232 4.94789 1.55868
204 2 0.178015 4.68263 2.68336 2.56046
79 3 -0.806897 -0.128193 0.980288 4.62263
276 2 0.204302 5.16188 0.551021 0.354197
249 2 0.179326 4.64292 4.30902 3.07204
82 3 -0.791767 0.518048 3.2373 0.612623
84 3 -0.827092 -0.189472 2.82851 6.77388
85 3 -0.784005 -2.22775 5.0682 6.70344
53 1 -0.648233 0.429936 5.25926 7.98694
102 3 -0.806414 0.856246 4.93105 2.92027
103 3 -0.776657 -0.668825 6.50334 4.65054
104 3 -0.81162 4.2819 2.95608 7.70944
106 3 -0.789254 1.95855 5.79543 5.37294
78 3 -0.746413 0.800078 0.532631 0.0301303
172 2 0.177378 4.07481 1.02894 1.50181
203 2 0.175785 5.0742 1.25911 3.68079
81 3 -0.805676 -0.962067 2.69505 2.94503
173 2 0.172916 2.10997 2.38968 4.37924
174 2 0.22092 3.13592 1.71021 5.94745
175 2 0.237261 2.34882 3.4396 5.91298
176 2 0.151922 -2.3718 5.33072 2.34387
274 1 -0.678255 5.94068 1.25542 0.784895
178 2 0.169417 -0.939683 5.81133 1.10932
277 2 0.168572 5.6796 1.58843 1.91143
205 2 0.196234 3.98803 2.55293 4.32757
171 2 0.196609 2.31865 1.83356 1.87212
179 2 0.177893 -0.0994683 6.19485 7.56689
180 2 0.225778 1.39756 5.01904 7.33633
250 2 0.19299 3.53019 5.9467 2.77476
101 3 -0.774491 5.22287 4.01332 0.283193
63 1 -0.681139 4.86857 2.37056 3.62688
54 1 -0.682769 -3.42435 6.37236 4.24003
182 2 0.154947 -2.94928 6.33717 3.17033
281 2 0.0864615 -3.02841 5.71141 7.91093
170 2 0.185001 2.75647 0.350108 2.98166
257 3 -0.78693 3.6978 6.4736 0.231399
177 2 0.145913 -2.10732 4.39945 0.700685
275 2 0.220277 6.95795 0.780992 0.674888
3 4 1.2594 -0.126527 2.74447 15.9257
267 1 -0.662297 -0.189316 1.75955 11.3091
290 2 0.188071 -3.00959 7.22638 13.4296
20 4 1.35582 3.41272 2.13528 8.883
23 4 1.35122 2.44218 2.8401 14.0112
28 4 1.28138 4.38021 4.5132 12.593
285 2 0.186316 -0.409887 2.2765 12.3005
61 1 -0.678022 2.06015 3.35433 9.60379
64 1 -0.66568 2.43496 1.24087 12.9726
83 3 -0.780032 -1.19931 3.39225 9.02067
100 3 -0.817814 5.93392 0.70259 12.0582
97 3 -0.795376 3.75517 2.70426 15.0279
98 3 -0.79278 1.00196 2.9215 14.6537
99 3 -0.824281 4.22886 1.79971 10.245
108 3 -0.787238 2.82316 4.1571 13.1306
19 4 1.2968 5.09466 3.13747 15.8951
9 4 1.25928 -3.42599 6.95555 9.05223
148 2 0.0319888 0.697654 6.77868 10.6885
268 2 0.183022 -0.161382 0.649155 11.3455
269 2 0.173933 0.716446 2.32053 10.6768
181 2 0.181543 0.516819 5.28001 9.13638
207 2 0.214173 2.642 1.43152 11.8605
24 4 1.54081 5.57627 2.0141 11.1354
197 2 0.194086 1.96484 3.2917 10.7338
198 2 0.211317 1.17272 3.07601 9.01386
199 2 0.183241 2.54803 4.33067 9.32162
259 2 0.0362366 0.855878 6.97881 15.0317
295 2 0.216328 -3.11493 5.6389 11.7158
86 3 -0.854412 -2.01104 6.86054 9.8611
109 3 -0.847261 5.18834 3.3248 11.9704
206 2 0.224326 3.26918 0.729811 13.5558
284 2 0.163104 -1.77617 3.29266 14.2217
96 3 -0.846256 2.6114 0.863334 8.35465
208 2 0.18416 1.38502 0.740192 13.1602
1 4 1.22057 -5.65736 13.2944 0.872229
4 4 1.21254 -5.54991 13.1667 7.52413
12 4 1.0556 -3.11862 9.18449 1.58958
15 4 1.47717 -2.88506 9.22684 7.2181
16 4 1.47658 -4.24184 11.4452 5.42479
30 4 1.22978 1.27601 8.61427 2.27165
31 4 1.27862 -1.44214 11.1338 3.81588
80 3 -0.773073 -7.01216 13.4196 6.86948
56 1 -0.678277 -4.85654 8.78788 2.49062
189 2 0.163323 -1.55601 7.44738 1.42007
57 1 -0.681951 -2.5412 7.59537 0.839384
66 1 -0.675041 -0.933197 12.5238 2.64606
212 2 0.201053 -1.23888 13.4167 3.23403
222 2 0.178884 -0.0973786 11.6387 0.974875
88 3 -0.829642 -3.38325 10.2067 0.428581
90 3 -0.832827 -2.32525 8.03633 6.1827
91 3 -0.829066 -5.51973 11.2341 4.40957
92 3 -0.805171 -3.97202 10.1448 6.46314
93 3 -0.819806 -4.49194 12.7694 6.37007
111 3 -0.87022 1.44879 7.56061 3.42702
112 3 -0.826198 1.30137 7.94212 0.808538
113 3 -0.778621 -1.76211 9.85929 2.87434
114 3 -0.782645 -2.82979 11.6793 4.5264
115 3 -0.838685 -1.77363 10.234 7.96332
116 3 -0.776416 0.0561541 10.9196 4.75962
155 2 0.0940493 -0.325054 9.18354 2.48503
292 2 0.229227 -2.60607 13.0633 7.72815
187 2 0.194427 -4.68368 9.11411 3.59828
157 2 0.00672024 1.40186 9.22059 6.53266
211 2 0.163082 1.84767 7.7132 7.19941
214 2 0.17318 0.172134 12.4495 2.63442
213 2 0.184389 -1.52657 12.405 1.67523
87 3 -0.785805 -6.40544 11.9068 1.93757
69 1 -0.660174 0.42763 11.1939 0.0235187
221 2 0.19387 0.413079 10.0287 0.130645
183 2 0.18149 -4.08355 7.24339 4.3942
33 4 1.05627 1.38596 10.7427 5.59356
289 2 0.141217 -3.33974 6.88356 1.14153
11 4 1.02113 -0.94331 7.63873 10.6828
224 2 0.197992 0.671057 9.69087 11.9687
17 4 1.11577 -1.94643 9.39305 13.2058
32 4 1.04013 -1.6605 11.1835 9.22735
34 4 1.27344 -1.20737 11.8961 14.8788
288 2 0.185728 -3.09163 8.18016 16.1706
55 1 -0.653403 0.925527 8.28422 9.80188
58 1 -0.65405 -2.90252 8.03889 14.2072
59 1 -0.67323 -3.25395 10.5925 12.3772
216 2 0.155355 -3.21527 12.809 9.57208
255 4 1.03337 1.6772 7.84314 16.271
185 2 0.171669 1.66432 8.22207 8.95475
94 3 -0.824257 -1.23496 8.57379 11.9075
95 3 -0.812673 -5.21209 11.0753 14.6951
117 3 -0.79937 -1.04789 10.1597 14.2771
118 3 -0.850602 -0.485884 12.9052 13.9032
119 3 -0.777009 -2.79994 12.414 15.1852
120 3 -0.815528 -0.208697 11.5712 9.95453
147 2 -0.0278927 -5.81296 11.8607 8.56928
215 2 0.19848 -1.54872 13.6835 9.10444
156 2 -0.00411328 -2.64827 10.5479 10.4999
184 2 0.123072 -0.243807 8.68826 9.28149
186 2 0.158438 1.19062 9.13476 10.6025
191 2 0.169688 -3.90634 8.59622 14.4602
192 2 0.252068 -4.00748 10.8729 13.243
193 2 0.168988 -3.82625 10.1417 11.4802
194 2 0.175138 -2.60122 11.462 12.0781
67 1 -0.659179 -2.33495 12.8829 8.78451
260 2 0.169723 1.87319 8.45543 13.5782
280 3 -0.811805 -5.09247 13.1334 16.462
256 1 -0.660135 1.59867 8.74565 14.5943
261 2 0.251783 0.541032 9.35162 14.5487
14 4 1.48202 -4.32508 11.9038 15.8176
89 3 -0.805331 -3.71601 8.40186 8.40602
154 2 -0.00428118 2.60624 7.52281 10.4384
190 2 0.159838 -2.25292 7.70801 15.1259
2 4 1.32825 13.6193 1.51652 3.89094
21 4 1.16564 6.56161 2.91512 4.54058
251 2 0.113033 5.4603 6.25712 2.86155
36 4 1.18645 9.23402 1.45657 4.59435
151 2 -0.0174161 4.3883 6.61111 4.19608
40 4 1.27606 11.542 2.18968 6.22331
43 4 1.00063 10.9028 2.59872 1.96178
235 2 0.193391 9.15083 3.18277 0.558985
62 1 -0.662111 7.26658 4.46259 3.61168
253 2 0.140142 7.0594 6.78609 1.36903
74 1 -0.638831 9.60126 3.76896 1.46155
105 3 -0.790597 6.1102 3.53212 5.94799
122 3 -0.817895 7.64645 1.75526 4.49606
125 3 -0.858237 12.4399 1.97239 4.91617
126 3 -0.835615 10.0309 2.27536 5.80071
127 3 -0.878752 11.7784 1.16543 7.35718
133 3 -0.774517 10.0833 1.87182 3.19987
134 3 -0.781199 11.4095 1.63495 0.67084
234 2 0.183511 8.82205 4.11762 2.27293
286 2 0.155178 11.288 5.35972 4.62447
162 2 0.0738637 11.8674 3.81826 6.79783
164 2 0.0385652 12.3175 3.62702 2.36037
200 2 0.159008 8.42121 4.36546 3.73702
246 4 1.10216 4.90845 5.49268 0.771715
237 2 0.167672 6.60073 6.61946 6.20456
236 2 0.100183 10.4904 4.66654 1.19533
201 2 0.159897 6.9092 5.3757 4.2094
202 2 0.170976 6.92837 4.35465 2.53407
228 2 0.187532 9.14804 1.68888 7.77515
248 1 -0.657616 6.73844 6.39119 0.334691
26 4 1.48863 5.23923 4.17886 7.20591
247 1 -0.643724 4.54526 5.46531 2.6323
283 2 0.211917 13.0593 0.234479 1.70973
263 2 0.17667 11.8085 0.173738 3.09595
107 3 -0.806642 4.38016 5.51808 6.64468
152 2 0.036524 5.31033 5.13685 13.9062
241 2 0.141153 6.80263 5.83003 13.2503
227 2 0.248733 10.1141 1.24725 9.31394
39 4 1.02719 8.24405 2.9376 9.50407
41 4 1.28612 7.86257 2.67226 14.6181
42 4 1.03564 10.8517 3.48738 11.6746
45 4 1.26494 8.95117 6.529 10.6106
29 4 0.944536 4.23698 6.9568 10.6737
72 1 -0.68638 9.28573 4.0722 14.6533
73 1 -0.687586 11.3063 5.09041 12.4338
242 2 0.153366 5.406 7.09103 13.0799
266 2 0.171159 13.1124 1.64665 15.0634
265 2 0.184207 12.5431 3.24236 15.9116
124 3 -0.808398 6.95462 2.4413 10.1902
128 3 -0.802343 8.12909 1.92742 13.2997
129 3 -0.780338 8.34625 1.58354 15.9424
130 3 -0.85072 6.42343 3.29898 14.9977
131 3 -0.772102 12.1721 2.65706 11.084
132 3 -0.778545 9.63499 3.65341 10.6377
71 1 -0.662275 9.08388 1.42413 8.92642
44 4 1.19485 6.52336 6.53037 8.66356
37 4 0.9768 9.85024 1.10758 16.2331
137 3 -0.79889 10.443 6.5982 9.88167
163 2 0.0293002 10.2071 3.03008 13.3029
165 2 0.057728 8.71749 4.9578 11.1429
232 2 0.140548 11.9231 4.72126 13.3138
229 2 0.141688 9.27226 4.48978 13.6037
230 2 0.160797 10.3129 3.81379 14.9714
231 2 0.158433 8.79077 4.84275 15.3147
240 2 0.178066 6.27789 6.83845 14.7904
5 4 1.24801 13.4287 1.99832 10.2166
76 1 -0.706845 6.393 6.7902 13.6253
252 2 0.182078 6.67545 6.13655 16.4094
264 1 -0.67736 13.2683 2.75132 15.1824
233 2 0.163561 10.3396 5.64793 12.7224
123 3 -0.862208 13.1682 0.600434 9.54445
226 2 0.210071 8.29817 0.639032 9.22864
136 3 -0.786116 4.84293 7.00587 9.17185
138 3 -0.844611 7.84201 6.77446 9.53814
135 3 -0.784992 6.31303 4.65748 8.33464
110 3 -0.867979 4.2695 5.77173 11.6448
161 2 0.0730544 7.97381 4.12903 8.34302
293 2 0.0205409 10.5981 0.525336 14.7693
150 2 0.0108722 9.24502 8.94241 0.125832
38 4 1.29332 5.05517 13.7181 8.07163
46 4 0.894718 3.35681 10.5365 3.37484
68 1 -0.655212 1.40023 12.3613 6.58856
75 1 -0.665103 6.74126 7.39061 6.99767
139 3 -0.808148 2.37362 9.88747 2.30708
140 3 -0.81523 2.72227 10.9356 4.81053
238 2 0.180398 7.73947 7.8875 6.8871
149 2 0.113124 7.03884 12.3894 4.20986
210 2 0.240242 3.54617 7.75579 7.99766
160 2 0.0968707 6.57358 13.5203 7.25071
166 2 -0.00553633 3.9754 12.0913 2.86416
167 2 -0.0320756 4.86086 9.72568 3.52926
209 2 0.0799203 3.48542 8.25453 6.06566
217 2 0.21393 2.38904 12.895 6.56136
219 2 0.185303 0.549924 13.0292 6.38518
159 2 0.121351 2.97482 12.3085 1.04057
141 3 -0.838648 4.48676 12.2789 8.01328
287 2 0.147883 10.186 7.68362 2.36807
188 2 0.179592 9.51267 9.36945 2.02765
158 2 0.0188893 1.58617 13.4117 4.91604
262 1 -0.676996 5.19616 13.6786 2.79531
218 2 0.158225 1.2497 11.8259 7.62563
270 1 -0.662342 6.51136 10.8874 3.72887
271 2 0.156788 6.01709 10.4849 4.64481
272 2 0.0496119 7.61405 9.65599 3.17222
273 2 0.129335 5.8306 10.9617 2.85184
282 2 0.157122 5.69809 12.6484 3.18079
65 1 -0.641679 2.89911 8.17094 7.17505
239 2 0.153765 5.8328 8.20174 7.14096
291 2 0.244657 8.08349 10.8967 0.555643
13 4 1.07123 8.45527 11.391 3.40239
168 2 0.0114096 3.03814 9.8836 7.98441
18 4 1.05277 8.63552 10.0712 14.9979
225 2 0.19138 1.57962 11.1014 12.9944
245 2 0.140856 6.33855 11.8198 12.4223
47 4 1.26469 3.68471 11.2421 9.01175
48 4 1.19131 7.50425 8.04817 12.7632
49 4 1.08289 6.07618 10.3242 10.7201
143 3 -0.815892 8.71977 7.47126 11.856
22 4 1.49366 -0.268848 13.8996 12.727
77 1 -0.672285 6.82552 11.9932 11.261
121 3 -0.80715 0.80277 13.2473 11.646
60 1 -0.668805 7.26122 10.8186 16.1145
35 4 1.32656 1.15768 11.9461 10.7446
142 3 -0.824465 2.57457 11.8472 9.89684
258 2 0.121786 2.52178 9.55065 15.0597
144 3 -0.793593 8.05347 9.1221 13.9424
145 3 -0.833487 4.73906 10.5722 9.96735
146 3 -0.791901 6.28165 9.04955 11.5899
278 1 -0.666071 2.75895 12.8898 16.2761
153 2 0.0745654 4.87868 8.2657 11.5852
279 2 0.167735 2.4926 11.9014 15.8072
169 2 0.00861124 7.47839 10.8375 9.81001
223 2 0.154305 2.50101 10.065 11.6525
196 2 0.148799 6.8776 11.5381 15.202
243 2 0.236694 6.26999 12.8273 10.6925
195 2 0.145194 6.48774 9.94919 16.243
220 2 0.203905 0.85946 12.1655 16.343
254 2 0.152802 5.78947 7.79716 16.0977
70 1 -0.668434 1.49512 10.515 12.0191
294 2 0.154869 3.8592 13.0078 16.1941
244 2 0.154349 7.95638 12.1144 11.2575
ITEM: TIMESTEP
100
ITEM: NUMBER OF ATOMS
295
ITEM: BOX BOUNDS xy xz yz pp pp pp
-8.3339999999999996e+00 1.5144700000000000e+01 -7.6974000000000000e+00
0.0000000000000000e+00 1.4189300000000001e+01 -6.3660000000000005e-01
0.0000000000000000e+00 1.6827960000000001e+01 5.8050000000000002e-01
ITEM: ATOMS id type q x y z
6 4 1.23536 0.562236 1.62604 6.01747
7 4 1.33867 -0.145817 3.94272 2.06088
8 4 1.23668 -0.937765 4.14307 7.66163
10 4 1.26886 -2.00087 6.60892 5.52149
25 4 1.5056 0.776917 6.16958 4.06947
27 4 0.994102 3.4032 6.3723 5.60224
50 1 -0.649611 2.91224 0.864929 1.84724
51 1 -0.683632 2.27065 2.21399 5.55709
52 1 -0.657192 -1.80355 4.86834 1.6203
204 2 0.163133 4.60528 2.69838 2.548
79 3 -0.804347 -0.0858372 1.10868 4.6546
276 2 0.221893 5.1159 0.568911 0.368311
249 2 0.192682 4.68412 4.20345 2.9916
82 3 -0.812579 0.548109 3.29258 0.796428
84 3 -0.795377 -0.172279 2.9567 6.84699
85 3 -0.789444 -2.36477 5.13806 6.78462
53 1 -0.669968 0.469045 5.30014 8.00386
102 3 -0.806873 0.763027 4.7989 3.05761
103 3 -0.854394 -0.649224 6.34142 4.73623
104 3 -0.816403 4.38441 3.10825 7.89607
106 3 -0.776495 1.90041 5.87559 5.20495
78 3 -0.753986 0.875796 0.543992 0.10561
172 2 0.175832 4.10403 1.04386 1.49849
203 2 0.158834 5.26575 1.23317 3.48023
81 3 -0.781641 -1.0834 2.7287 2.82047
173 2 0.20284 2.12713 2.60864 4.50772
174 2 0.199325 2.92974 1.27326 5.53783
175 2 0.226432 2.60847 2.99199 6.32585
176 2 0.159606 -2.23613 5.33968 2.5888
274 1 -0.670766 5.92396 1.2667 0.769264
178 2 0.14735 -1.22559 5.6784 0.997331
277 2 0.169028 5.73423 1.5893 1.84437
205 2 0.191443 3.94565 2.2814 4.37205
171 2 0.218596 2.25662 1.75422 1.67675
179 2 0.182795 0.144133 6.2773 7.53414
180 2 0.21623 1.45232 4.91111 7.53725
250 2 0.20165 3.50871 5.712 2.67562
107 3 -0.811895 4.30365 5.34998 6.35265
63 1 -0.643662 4.90224 2.3138 3.59111
54 1 -0.677204 -3.30428 6.58829 4.22373
182 2 0.151561 -2.9043 6.41485 3.14218
281 2 0.0960337 -3.33042 5.83169 7.78113
170 2 0.17335 2.8464 0.384316 2.92068
3 4 1.25066 -0.0174157 2.75471 16.0322
267 1 -0.669744 -0.205079 1.99892 11.0982
290 2 0.177874 -2.99228 6.75945 13.518
20 4 1.34181 3.53466 2.10317 8.8635
23 4 1.27408 2.60158 2.81059 14.0046
28 4 1.24896 4.27845 4.64884 12.4164
285 2 0.169291 -0.48396 2.43635 12.1459
61 1 -0.677498 2.15489 3.33813 9.40686
64 1 -0.652778 2.46179 1.31107 12.8366
83 3 -0.808974 -1.51438 3.40857 9.00697
100 3 -0.808104 6.11681 0.655448 11.9665
97 3 -0.811659 3.81651 2.58372 15.0983
98 3 -0.760811 1.16971 3.04616 14.8719
99 3 -0.799036 4.39885 1.66122 10.234
108 3 -0.795017 2.87338 4.02631 12.7751
19 4 1.28907 4.99549 3.23336 15.9499
9 4 1.27821 -3.47842 7.01078 9.09603
148 2 0.0210004 0.661678 6.73544 10.4999
268 2 0.181892 -0.210828 0.816251 11.0707
269 2 0.181496 0.675406 2.49762 10.5458
181 2 0.164024 0.452418 5.26449 9.1543
207 2 0.230499 3.51566 1.18101 12.4283
24 4 1.55191 5.68003 2.1289 11.1816
197 2 0.208472 2.08725 3.27259 10.5176
198 2 0.197251 1.20142 3.13496 8.80997
199 2 0.20384 2.72989 4.32629 9.08013
259 2 0.0218793 0.617231 7.03347 15.0217
295 2 0.219927 -2.91663 5.55577 11.4327
86 3 -0.844623 -2.01835 6.89746 9.81815
109 3 -0.820981 5.30811 3.38785 12.1272
264 1 -0.665837 -1.58728 2.86851 15.0336
284 2 0.183436 -1.48152 3.22415 14.0123
96 3 -0.817323 2.77352 0.755962 8.32279
208 2 0.192254 1.58934 1.62303 12.1118
110 3 -0.837135 4.14312 5.60223 11.2162
232 2 0.148586 -3.00534 4.90153 13.2926
265 2 0.168715 -2.19775 3.53697 15.7471
206 2 0.205517 2.18146 0.554251 13.6827
257 3 -0.762898 2.96056 6.94592 16.4895
1 4 1.2276 -5.68856 13.1841 0.898763
4 4 1.22251 -5.65784 13.1332 7.66221
12 4 1.02664 -2.9779 9.20948 1.61285
15 4 1.46341 -2.96377 9.24926 7.18528
16 4 1.42018 -4.11693 11.4981 5.58234
30 4 1.25471 1.35196 8.60581 2.32467
31 4 1.2909 -1.36505 11.2366 3.88906
80 3 -0.795179 -7.15184 13.649 7.16733
56 1 -0.67676 -4.82965 8.92978 2.45128
189 2 0.154669 -1.55331 7.35424 1.4718
57 1 -0.684642 -2.46515 7.60678 0.870958
66 1 -0.672501 -1.05894 12.5863 2.58573
212 2 0.181484 -1.48796 13.4571 3.26141
222 2 0.185239 -0.305249 11.6462 0.903736
88 3 -0.84867 -3.21926 10.2737 0.459044
90 3 -0.815793 -2.14877 8.02812 6.23842
91 3 -0.814936 -5.34578 11.3943 4.365
92 3 -0.820201 -4.09493 9.9825 6.38983
93 3 -0.839427 -4.60673 12.664 6.58187
111 3 -0.87179 1.49343 7.46955 3.40872
112 3 -0.819227 1.36076 7.90171 0.883563
113 3 -0.772804 -1.64682 9.90285 2.91716
114 3 -0.795824 -2.54332 11.7209 4.87173
115 3 -0.795888 -1.84442 10.3849 8.03927
116 3 -0.769931 0.0345822 10.9381 4.82707
155 2 0.0972843 -0.237994 9.28401 2.54574
292 2 0.223788 -2.29146 12.7931 7.5514
187 2 0.193971 -4.66695 9.3104 3.53824
157 2 0.00748065 1.44223 9.20654 6.58759
211 2 0.169671 1.92167 7.63966 7.08185
214 2 0.170004 -0.0219932 12.7622 2.26644
213 2 0.189098 -1.75249 12.4375 1.69298
87 3 -0.796156 -6.49972 11.8643 2.05426
33 4 1.0506 1.38141 10.7434 5.68327
289 2 0.122207 -3.44803 7.01515 1.24019
183 2 0.184337 -3.76418 7.63006 4.32123
221 2 0.196947 0.223499 10.0545 0.0471547
69 1 -0.657147 0.236495 11.1615 0.00739912
11 4 0.972931 -0.856597 7.68177 10.4951
224 2 0.213426 0.670729 9.84702 12.16
17 4 1.12096 -2.11138 9.16437 13.2524
32 4 1.02996 -1.72512 11.3125 9.33297
34 4 1.26292 -1.31596 11.9186 14.8638
288 2 0.187832 -2.93279 8.12446 16.2604
55 1 -0.647686 0.825454 8.37612 9.68732
58 1 -0.654481 -2.90424 7.7542 14.2265
59 1 -0.664825 -3.33741 10.5219 12.4966
216 2 0.184484 -3.18899 13.0818 9.31506
255 4 1.04367 1.57807 7.73392 16.2626
185 2 0.166355 1.58668 8.33518 8.73515
94 3 -0.768567 -1.30852 8.50321 12.0512
95 3 -0.814868 -5.41003 11.2111 14.5817
117 3 -0.762916 -1.18838 10.1086 14.1916
118 3 -0.815355 -0.397388 12.8998 13.9937
119 3 -0.790581 -2.87788 12.4142 15.1362
120 3 -0.783945 -0.236364 11.4554 9.97561
147 2 -0.0423573 -5.83995 11.9937 8.79903
215 2 0.198644 -1.28642 13.7475 8.98006
156 2 -0.0110449 -2.83373 10.7117 10.6105
184 2 0.138838 -0.376403 9.03303 9.03368
186 2 0.158827 1.24067 9.13578 10.5219
191 2 0.143857 -3.95298 8.36014 14.3491
192 2 0.248141 -4.15181 10.7725 13.3245
193 2 0.165227 -3.80313 10.1854 11.5802
194 2 0.175186 -2.66352 11.4831 12.2763
67 1 -0.631964 -2.14212 13.021 8.68132
260 2 0.141373 2.00773 8.31905 13.7842
190 2 0.156257 -2.27608 7.50899 15.1292
256 1 -0.662562 1.43395 8.79167 14.6775
261 2 0.263025 0.456627 9.25272 14.352
14 4 1.43748 -4.28113 11.8796 15.8427
89 3 -0.834013 -3.58866 8.46722 8.40644
154 2 -0.0169921 2.42446 7.62795 10.5545
280 3 -0.800297 -5.14565 13.1299 16.4698
2 4 1.31985 13.6226 1.54391 3.86784
21 4 1.17173 6.60518 2.91391 4.48743
251 2 0.116445 5.52896 6.04423 2.86749
36 4 1.17354 9.26618 1.39563 4.53764
151 2 0.000871133 4.24002 6.55103 4.14054
40 4 1.25295 11.4893 2.20553 6.24641
43 4 0.988138 10.7704 2.64332 1.96217
235 2 0.187085 9.32935 3.35609 0.329935
62 1 -0.664693 7.31394 4.47896 3.53305
135 3 -0.79921 6.51162 4.81118 7.94151
74 1 -0.688975 9.63099 3.9248 1.28701
105 3 -0.810786 5.95461 3.465 5.78858
122 3 -0.81669 7.65042 1.69934 4.48491
125 3 -0.834766 12.4892 1.95883 4.98001
126 3 -0.836128 9.95711 2.26069 5.7102
127 3 -0.879957 11.7293 1.15645 7.36056
133 3 -0.80195 10.0921 1.71492 3.08061
134 3 -0.777598 11.4191 1.61332 0.660974
234 2 0.175112 8.7227 4.09025 2.07121
286 2 0.148642 11.1785 5.7471 4.61588
162 2 0.07437 11.7458 3.78728 6.84314
164 2 0.0341927 12.0188 3.72181 2.55892
200 2 0.153752 8.40793 4.14731 3.69754
246 4 1.0627 5.02811 5.55919 0.730241
237 2 0.160688 6.86345 6.84248 6.19713
236 2 0.143388 10.2278 4.8219 1.08177
201 2 0.157212 7.09512 5.54333 3.87559
202 2 0.164992 6.88448 4.33682 2.45283
228 2 0.169325 8.74817 1.41753 7.70953
248 1 -0.662439 6.51924 6.76368 0.433975
26 4 1.521 5.31444 4.18474 7.04152
247 1 -0.653139 4.57142 5.33564 2.59317
283 2 0.195156 12.7388 0.309882 2.07721
101 3 -0.802147 5.42828 4.08823 0.184855
177 2 0.149098 12.5472 4.35232 1.01164
161 2 0.0930542 7.78742 3.75668 8.18709
252 2 0.16548 7.54959 6.32397 0.191886
275 2 0.207787 7.05797 1.09111 0.413119
152 2 0.00660145 5.00708 5.52995 13.6841
241 2 0.1595 7.09338 5.96556 13.5177
227 2 0.253715 10.0455 0.895926 9.11884
39 4 0.998416 8.27346 2.77062 9.47495
41 4 1.34878 7.92018 2.5696 14.6775
42 4 1.06274 10.826 3.53209 11.7151
45 4 1.28581 8.90929 6.57409 10.5556
29 4 0.918366 4.07265 7.06331 10.6097
72 1 -0.677609 9.19215 4.05565 14.5309
73 1 -0.685394 11.5743 5.12503 12.3248
242 2 0.109251 5.50252 7.20476 13.0537
266 2 0.166374 13.262 1.71648 15.1179
138 3 -0.830369 7.77291 6.79355 9.51776
124 3 -0.830215 6.92647 2.50967 10.3128
128 3 -0.809098 8.05488 1.82545 13.3018
129 3 -0.820909 8.55004 1.52486 15.8445
130 3 -0.793936 6.60143 3.29533 15.0998
131 3 -0.784486 12.0577 2.68898 11.3403
132 3 -0.768915 9.60342 3.52815 10.5975
71 1 -0.663926 8.99337 1.1965 8.82977
44 4 1.16451 6.45647 6.58143 8.51768
37 4 1.03968 9.95029 1.08401 16.3261
137 3 -0.845857 10.3891 6.67275 9.8776
163 2 0.0288758 10.2968 2.9953 13.2928
165 2 0.0763669 8.80413 4.97107 10.9673
226 2 0.203848 8.20669 0.490321 9.31883
229 2 0.157265 9.06628 4.50295 13.5367
230 2 0.152219 10.2715 3.91321 14.8351
231 2 0.164385 8.69873 4.7718 15.3155
240 2 0.191888 6.28044 7.07798 14.9358
5 4 1.19129 13.3319 2.33157 10.236
76 1 -0.658639 6.46595 6.89792 13.7772
123 3 -0.79594 13.0112 0.499921 9.51398
136 3 -0.775531 4.69327 7.01483 9.17764
233 2 0.180881 10.7504 5.89968 12.5303
195 2 0.163081 7.56149 9.16521 0.193588
38 4 1.30072 4.81459 13.6281 8.13539
46 4 0.918807 3.31976 10.5872 3.36007
68 1 -0.660543 1.52812 12.3578 6.65509
75 1 -0.671256 6.94683 7.57443 7.06369
139 3 -0.816071 2.46325 9.76352 2.29808
140 3 -0.833628 2.63756 10.7261 4.7566
238 2 0.195112 7.94036 8.08835 7.22774
149 2 0.103535 7.29779 12.3352 4.59779
210 2 0.253277 3.57464 7.60816 8.04329
160 2 0.12568 6.42881 13.6276 7.53717
166 2 -0.0159088 3.95874 12.0215 2.68783
167 2 -0.0198823 4.91576 9.98251 3.59071
209 2 0.0896731 3.42995 8.19251 6.12714
217 2 0.218647 2.57821 12.8151 6.62563
219 2 0.178188 0.706441 13.0772 6.29844
159 2 0.12255 2.73866 12.2332 1.04207
141 3 -0.84716 4.37496 12.1149 7.92947
287 2 0.150144 10.2167 7.85682 2.36357
263 2 0.176514 4.09124 13.6095 3.67887
158 2 0.0082347 1.74556 13.3572 4.95233
262 1 -0.682759 5.11144 13.5797 3.18189
218 2 0.185712 1.25587 11.8871 7.70162
270 1 -0.658359 6.62982 10.8876 3.899
271 2 0.152122 5.88915 10.5836 4.70194
272 2 0.0556074 7.68409 9.58529 3.5762
273 2 0.13763 6.134 11.1683 2.88832
282 2 0.169094 5.72621 12.6097 3.39502
65 1 -0.656372 2.88307 8.09381 7.2128
239 2 0.140658 6.03719 8.33245 7.00285
291 2 0.250532 8.37042 10.8496 0.695649
13 4 1.07774 8.52917 11.3334 3.51752
168 2 0.0208724 2.82215 9.74122 8.06045
253 2 0.123249 6.51071 7.07504 1.56632
188 2 0.180873 9.63543 9.5184 1.76819
18 4 1.06475 8.62412 10.187 14.8824
225 2 0.188818 1.7857 10.9278 13.0416
245 2 0.147363 6.34713 11.9878 12.1241
47 4 1.25729 3.63438 11.0881 8.98539
48 4 1.20896 7.57775 8.07339 12.7577
49 4 1.0487 6.03453 10.3146 10.6822
143 3 -0.853934 8.73174 7.22668 11.9433
22 4 1.48879 -0.182836 13.9274 12.7004
77 1 -0.670693 6.83736 12.0239 11.0135
121 3 -0.783522 1.01157 13.2448 11.6185
60 1 -0.666349 7.43245 10.6606 16.3521
35 4 1.28562 1.24986 11.8453 10.8102
142 3 -0.835498 2.47804 11.7893 9.74845
258 2 0.147305 2.20485 9.63034 15.117
144 3 -0.810367 8.06087 9.11872 13.8729
145 3 -0.849272 4.67773 10.3201 9.86896
146 3 -0.781521 6.32473 9.10345 11.6696
278 1 -0.661528 2.64286 12.821 16.3873
153 2 0.0518075 4.90915 8.19824 11.5838
279 2 0.168043 1.94441 12.3385 15.571
169 2 0.00747039 7.52862 10.6521 9.76962
223 2 0.142616 2.52929 9.91352 11.7019
196 2 0.122836 6.80394 11.368 15.3559
243 2 0.243834 6.29905 12.8819 10.3835
293 2 0.0210322 3.25135 14.1323 15.0252
220 2 0.184843 0.814765 12.0706 16.436
254 2 0.163594 5.56539 8.16577 16.2414
70 1 -0.703231 1.59249 10.4412 12.0972
244 2 0.146093 8.03647 12.1633 11.0646
150 2 0.0110763 8.79019 9.28429 16.4176
294 2 0.157282 3.70383 12.3059 16.4347
ITEM: TIMESTEP
200
ITEM: NUMBER OF ATOMS
295
ITEM: BOX BOUNDS xy xz yz pp pp pp
-8.3339999999999996e+00 1.5144700000000000e+01 -7.6974000000000000e+00
0.0000000000000000e+00 1.4189300000000001e+01 -6.3660000000000005e-01
0.0000000000000000e+00 1.7157920000000001e+01 5.8050000000000002e-01
ITEM: ATOMS id type q x y z
6 4 1.27998 0.64509 1.74985 6.09669
7 4 1.31385 -0.393875 3.77149 1.99543
8 4 1.23919 -0.969262 4.09218 7.69879
10 4 1.21261 -2.01143 6.608 5.64921
25 4 1.45504 0.768952 6.08388 4.0383
27 4 0.958674 3.2236 6.3117 5.59715
50 1 -0.661773 3.01946 0.789304 1.83929
51 1 -0.69243 2.35947 2.30078 5.59669
52 1 -0.663025 -1.80226 4.89962 1.38577
204 2 0.162009 4.53796 2.8497 2.43189
79 3 -0.799635 -0.156802 1.1485 4.82356
281 2 0.0778292 -3.37744 5.85965 7.85509
249 2 0.181296 4.75907 4.42767 2.83779
82 3 -0.807839 0.40657 3.24944 0.574614
84 3 -0.812975 -0.0642331 2.94579 6.83849
85 3 -0.775615 -2.47942 5.10795 6.78856
53 1 -0.67809 0.0576449 5.50887 8.23661
102 3 -0.769992 0.49673 4.78197 3.03807
103 3 -0.791639 -0.646148 6.33704 4.82348
104 3 -0.843371 4.57065 3.14136 7.92801
106 3 -0.767221 1.83373 5.5497 5.37729
170 2 0.190146 3.03672 0.404099 2.86889
172 2 0.194713 4.02073 0.956033 1.45773
203 2 0.172865 5.18124 1.25752 3.29007
81 3 -0.828765 -1.0879 2.56007 2.78451
173 2 0.170469 2.22264 2.19443 4.44407
174 2 0.217684 3.14255 1.64075 6.02927
175 2 0.248182 2.49905 3.40665 5.83125
176 2 0.148398 -2.34953 5.28678 2.35318
274 1 -0.667819 6.04662 1.34732 0.495105
178 2 0.182538 -1.31796 5.66951 0.708662
277 2 0.139812 5.53873 1.81095 1.63902
205 2 0.1813 3.93611 2.58238 4.16505
171 2 0.174487 2.32091 1.70088 1.74297
179 2 0.201982 -0.557955 6.40699 7.99197
180 2 0.203012 1.11456 5.50004 7.7106
250 2 0.194709 3.50936 5.86067 2.64853
107 3 -0.787241 4.31036 5.39405 6.35698
63 1 -0.6709 4.871 2.37963 3.39274
54 1 -0.676064 -3.32656 6.54285 4.3061
182 2 0.166736 -2.96443 6.11812 3.33579
96 3 -0.835231 2.93717 0.99998 8.36543
276 2 0.204551 5.55898 0.381797 0.0580633
3 4 1.26739 0.165148 2.76113 16.2994
267 1 -0.644315 -0.275495 2.28338 11.1245
290 2 0.184597 -3.35891 6.85956 13.4633
20 4 1.3766 3.70843 2.28547 8.96498
23 4 1.32165 2.59874 2.83048 14.1158
28 4 1.23337 4.28579 4.60222 12.3287
285 2 0.181744 -0.494898 2.77021 12.1369
61 1 -0.662554 2.33711 3.55991 9.61811
64 1 -0.662773 2.06925 1.27718 13.2194
83 3 -0.831902 -1.59952 3.37514 8.94055
100 3 -0.747035 6.09405 0.552226 12.0139
97 3 -0.775415 3.98563 2.72916 15.0589
98 3 -0.784414 1.3285 3.05485 15.1135
99 3 -0.811825 4.40194 1.82985 10.3669
108 3 -0.818109 2.96463 4.00673 12.9498
19 4 1.30746 5.09104 3.19102 16.1224
9 4 1.23072 -3.56758 6.96425 9.14227
148 2 0.0346964 0.71186 6.80259 10.4182
268 2 0.151745 -0.20648 1.11035 11.2147
269 2 0.166689 0.738362 2.75688 10.5938
181 2 0.16242 0.113037 5.30825 9.39704
207 2 0.199212 3.07737 0.939367 12.7012
24 4 1.47961 5.80648 2.10933 11.1757
197 2 0.220676 2.38812 3.58818 10.7549
198 2 0.17705 1.32464 3.30509 9.16523
199 2 0.190774 2.91671 4.45411 9.04804
259 2 0.0417438 0.36714 7.00798 15.4434
295 2 0.23188 -3.1342 5.72858 11.4056
86 3 -0.837629 -2.14621 6.93769 9.92879
78 3 -0.794165 0.284111 1.04188 16.8086
264 1 -0.644779 -1.48958 2.74534 15.3341
284 2 0.181153 -1.26663 2.69667 14.246
257 3 -0.811026 2.86304 6.91541 16.7711
208 2 0.175924 1.28513 1.59109 12.3802
110 3 -0.864128 4.11648 5.72191 11.1438
232 2 0.151776 -2.86907 5.00446 13.039
265 2 0.16708 -1.94813 3.7659 15.63
206 2 0.207202 1.65169 0.497465 13.8816
1 4 1.27161 -5.72134 13.1863 0.717361
4 4 1.22111 -5.53524 13.3231 7.79157
12 4 1.04647 -2.92322 9.43864 1.43597
15 4 1.42573 -2.8753 9.23227 7.27821
16 4 1.47197 -4.17957 11.3884 5.62503
30 4 1.25931 1.31629 8.51602 2.19958
31 4 1.31504 -1.39023 11.1336 3.98169
80 3 -0.787856 -6.97451 13.7401 7.24001
56 1 -0.674881 -4.58373 9.10389 2.50319
189 2 0.166536 -1.33455 7.78688 1.10138
57 1 -0.64823 -2.34219 7.84183 0.553707
66 1 -0.653149 -0.974926 12.4583 2.73442
212 2 0.204236 -0.724382 13.3711 3.36061
222 2 0.157493 -0.209786 11.9612 0.380832
88 3 -0.845468 -3.29543 10.3071 0.242266
90 3 -0.804169 -1.95193 8.05831 6.55653
91 3 -0.801711 -5.34001 11.4442 4.42264
92 3 -0.820083 -3.99136 9.90298 6.16387
93 3 -0.839824 -4.66037 12.4291 6.7517
111 3 -0.874038 1.38554 7.33549 3.28965
112 3 -0.837792 1.28851 7.81082 0.79531
113 3 -0.78044 -1.60884 9.85646 2.82618
114 3 -0.773609 -2.63062 11.7804 4.82116
115 3 -0.81675 -1.80332 10.3129 8.08716
116 3 -0.804131 -0.0609948 10.9325 4.80146
155 2 0.0972946 -0.171668 9.34667 2.39226
292 2 0.222235 -2.43155 12.789 7.66183
187 2 0.216125 -4.29217 9.52497 3.50994
157 2 0.0189374 1.43626 9.34494 6.62273
211 2 0.149336 1.85255 7.6861 7.09719
214 2 0.146031 -0.0463859 12.1722 2.11246
213 2 0.173535 -1.89764 12.6088 2.04638
87 3 -0.798376 -6.37658 11.909 1.94908
221 2 0.181923 -0.338463 10.0832 0.133956
289 2 0.126331 -3.19814 7.18551 1.08779
183 2 0.185622 -3.56486 7.65113 4.30046
188 2 0.190974 -5.26872 9.81159 1.95924
11 4 0.963224 -0.895041 7.7874 10.4677
224 2 0.204783 0.696238 9.89305 12.2413
17 4 1.10477 -2.1006 9.18851 13.2015
32 4 1.03913 -1.74233 11.2356 9.39077
34 4 1.30137 -1.31667 11.8163 14.9766
288 2 0.185573 -2.92188 8.25597 16.257
55 1 -0.657399 0.876022 8.36255 9.56406
58 1 -0.644679 -2.92505 7.789 14.113
59 1 -0.670614 -3.51364 10.3488 12.4476
216 2 0.172666 -2.93 13.1708 9.61039
255 4 1.05286 1.56143 7.81895 16.4796
185 2 0.169434 1.60186 8.30868 8.59961
94 3 -0.779638 -1.22726 8.54183 11.9999
95 3 -0.805362 -5.23412 11.2316 14.7415
117 3 -0.760631 -1.29945 10.0448 14.4007
118 3 -0.787284 -0.431918 12.6678 14.0007
119 3 -0.812946 -2.8159 12.4441 15.2877
120 3 -0.795238 -0.324256 11.435 10.0876
147 2 -0.0390899 -5.81857 12.3014 9.07391
215 2 0.197917 -1.15156 13.7189 8.83723
156 2 -0.0156322 -2.9478 10.6284 10.5714
184 2 0.142389 -0.271506 8.83333 9.09066
186 2 0.171157 1.22295 9.12806 10.3513
191 2 0.159934 -3.77557 8.35797 14.5645
192 2 0.261824 -4.26986 10.6323 13.2416
193 2 0.167049 -4.03346 9.86907 11.5469
194 2 0.162524 -2.7224 11.1713 12.1835
67 1 -0.630592 -2.07198 12.9917 8.73323
260 2 0.170836 1.54722 8.00455 13.8627
69 1 -0.669996 -0.547648 11.6673 16.5798
256 1 -0.693552 1.24885 8.6022 14.7094
261 2 0.267085 0.24609 9.06684 14.5569
14 4 1.46496 -4.21461 11.9907 15.9277