LAMMPS (2 Aug 2023 - Update 2)
OMP_NUM_THREADS environment is not set. Defaulting to 1 thread. (src/comm.cpp:98)
  using 1 OpenMP thread(s) per MPI task
# Initialization
units           real
dimension       3
boundary        p p p
atom_style      full
timestep        0.5   # fs

# Define MD parameters
variable nevery equal 10                  # sampling interval
variable nrepeat equal 10                 # number of samples
variable nfreq equal ${nevery}*${nrepeat} # length of one average
variable nfreq equal 10*${nrepeat} 
variable nfreq equal 10*10 
variable nthermo equal ${nfreq}           # interval for thermo output
variable nthermo equal 100           
# 1 ps : 1e3 fs / 0.5 fs = 2e3 steps
variable nequil equal 5*${nthermo}       # steps of equilibration run 10
variable nequil equal 5*100       
variable nrun equal 5*${nthermo}          # stpes of equilibrated run 10
variable nrun equal 5*100          
variable temp equal 300.0                # temperature of initial sample
variable tdamp equal 50.0                 # time constant for thermostat
variable seed equal 123456                # seed for thermostat
variable ufac equal 1.01325e-4         # pressure unit conversion, from atm to Gpa
variable up equal 0.01                  # the deformation magnitude 2.0e-2

# Read the initial sctructure
# box tilt large
variable structure string 333-EXP-11-vasp
read_data       ${structure}.data
read_data       333-EXP-11-vasp.data
Reading data file ...
  triclinic box = (0 0 0) to (16.8189 12.842 16.0755) with tilt (-8.3798 1.195 0.4312)
WARNING: Triclinic box skew is large. LAMMPS will run inefficiently. (src/domain.cpp:220)
  2 by 2 by 2 MPI processor grid
  reading atoms ...
  274 atoms
Finding 1-2 1-3 1-4 neighbors ...
  special bond factors lj:    0        0        0       
  special bond factors coul:  0        0        0       
     0 = max # of 1-2 neighbors
     0 = max # of 1-3 neighbors
     0 = max # of 1-4 neighbors
     1 = max # of special neighbors
  special bonds CPU = 0.001 seconds
  read_data CPU = 0.011 seconds

# Energy minimization
print "*****Minimization starts.*****"
*****Minimization starts.*****
minimize 1.0e-6 1.0e-6 100 1000
WARNING: No pairwise cutoff or binsize set. Atom sorting therefore disabled. (src/atom.cpp:2366)
WARNING: Communication cutoff is 0.0. No ghost atoms will be generated. Atoms may get lost. (src/comm_brick.cpp:210)
Per MPI rank memory allocation (min/avg/max) = 6.364 | 6.364 | 6.364 Mbytes
   Step          Temp          E_pair         E_mol          TotEng         Press     
         0   0              0              0              0              0            
         1   0              0              0              0              0            
Loop time of 8.8847e-05 on 8 procs for 1 steps with 274 atoms

52.5% CPU use with 8 MPI tasks x 1 OpenMP threads

Minimization stats:
  Stopping criterion = search direction is not downhill
  Energy initial, next-to-last, final = 
                     0                  0                  0
  Force two-norm initial, final = 0 0
  Force max component initial, final = 0 0
  Final line search alpha, max atom move = 0 0
  Iterations, force evaluations = 1 0

MPI task timing breakdown:
Section |  min time  |  avg time  |  max time  |%varavg| %total
---------------------------------------------------------------
Pair    | 0          | 0          | 0          |   0.0 |  0.00
Bond    | 1.397e-06  | 2.6102e-06 | 3.003e-06  |   0.0 |  2.94
Neigh   | 0          | 0          | 0          |   0.0 |  0.00
Comm    | 4.26e-06   | 6.4954e-06 | 7.474e-06  |   0.0 |  7.31
Output  | 0          | 0          | 0          |   0.0 |  0.00
Modify  | 0          | 0          | 0          |   0.0 |  0.00
Other   |            | 7.974e-05  |            |       | 89.75

Nlocal:          34.25 ave          40 max          23 min
Histogram: 1 0 0 0 0 0 2 3 1 1
Nghost:              0 ave           0 max           0 min
Histogram: 8 0 0 0 0 0 0 0 0 0
Neighs:              0 ave           0 max           0 min
Histogram: 8 0 0 0 0 0 0 0 0 0

Total # of neighbors = 0
Ave neighs/atom = 0
Ave special neighs/atom = 0
Neighbor list builds = 0
Dangerous builds = 0
min_style cg
# Save the optimized structure
write_data ${structure}_opt.data
write_data 333-EXP-11-vasp_opt.data
System init for write_data ...
WARNING: Communication cutoff is 0.0. No ghost atoms will be generated. Atoms may get lost. (src/comm_brick.cpp:210)
velocity        all create ${temp} ${seed} dist gaussian
velocity        all create 300 ${seed} dist gaussian
velocity        all create 300 123456 dist gaussian

# Equilibration
include ff.mod.lmp
# Setup forcefield, system
# undefine any fix ave/* fix before using reset_timestep
if "$(is_defined(fix,avgp))" then "unfix avgp"
if "$(is_defined(fix,avgl))" then "unfix avgl"
reset_timestep 0

# Assign the force field
pair_style reaxff NULL safezone 3.0 mincap 150
# pair_coeff * * CHONSSi.ff O Si
# pair_coeff * * CHOSiNa.ff O Si
# pair_coeff * * SiOCHN_2018.ff O Si
# pair_coeff * * PDMSDecomp.ff Si O
pair_coeff * * CHONSi.ff C H O Si
# pair_coeff * * CHOFe.ff O Si

# charge method for reaxff
fix myqeq all qeq/reaxff 1 0.0 10.0 1.0e-6 reaxff maxiter 400
# Setup neighbor style
neighbor        2 bin
neigh_modify    every 10 delay 0 check no

# Setup output
thermo		${nthermo}
thermo		100
thermo_style custom step temp pe press vol lx ly lz
# thermo_style custom step vol lx ly lz yz xz xy
thermo_modify norm no
# thermo_modify line multi

# Sample pressure (and length vector)
fix avgp all ave/time  ${nevery} ${nrepeat} ${nfreq} c_thermo_press mode vector
fix avgp all ave/time  10 ${nrepeat} ${nfreq} c_thermo_press mode vector
fix avgp all ave/time  10 10 ${nfreq} c_thermo_press mode vector
fix avgp all ave/time  10 10 100 c_thermo_press mode vector
# variable lx equal lx
# variable ly equal ly
# variable lz equal lz
# fix avgl all ave/time  ${nevery} ${nrepeat} ${nfreq} v_lx v_ly v_lz

# nvt
fix fnvt all nvt temp ${temp} ${temp} ${tdamp}
fix fnvt all nvt temp 300 ${temp} ${tdamp}
fix fnvt all nvt temp 300 300 ${tdamp}
fix fnvt all nvt temp 300 300 50

if "$(is_defined(fix,avgp))" then "unfix avgp"
unfix avgp
if "$(is_defined(fix,avgl))" then "unfix avgl"
thermo_style custom step temp pe press density vol
WARNING: New thermo_style command, previous thermo_modify settings will be lost (src/output.cpp:903)
run ${nequil}
run 500

CITE-CITE-CITE-CITE-CITE-CITE-CITE-CITE-CITE-CITE-CITE-CITE-CITE

Your simulation uses code contributions which should be cited:

- pair reaxff command: doi:10.1016/j.parco.2011.08.005

@Article{Aktulga12,
 author = {H. M. Aktulga and J. C. Fogarty and S. A. Pandit and A. Y. Grama},
 title = {Parallel Reactive Molecular Dynamics: {N}umerical Methods and Algorithmic Techniques},
 journal = {Parallel Computing},
 year =    2012,
 volume =  38,
 number =  {4--5},
 pages =   {245--259}
}

- fix qeq/reaxff command: doi:10.1016/j.parco.2011.08.005

@Article{Aktulga12,
 author = {H. M. Aktulga and J. C. Fogarty and S. A. Pandit and A. Y. Grama},
 title = {Parallel Reactive Molecular Dynamics: {N}umerical Methods and Algorithmic Techniques},
 journal = {Parallel Computing},
 year =    2012,
 volume =  38,
 pages =   {245--259}
}

CITE-CITE-CITE-CITE-CITE-CITE-CITE-CITE-CITE-CITE-CITE-CITE-CITE

WARNING: Fix qeq/reaxff group is not charge neutral, net charge = -8.2 (src/REAXFF/fix_qeq_reaxff.cpp:392)
Neighbor list info ...
  update: every = 10 steps, delay = 0 steps, check = no
  max neighbors/atom: 2000, page size: 100000
  master list distance cutoff = 12
  ghost atom cutoff = 12
  binsize = 6, bins = 5 3 3
  2 neighbor lists, perpetual/occasional/extra = 2 0 0
  (1) pair reaxff, perpetual
      attributes: half, newton off, ghost
      pair build: half/bin/newtoff/ghost
      stencil: full/ghost/bin/3d
      bin: standard
  (2) fix qeq/reaxff, perpetual, copy from (1)
      attributes: half, newton off
      pair build: copy
      stencil: none
      bin: none
Per MPI rank memory allocation (min/avg/max) = 109.8 | 110.8 | 111.6 Mbytes
   Step          Temp          PotEng         Press         Density         Volume    
         0   300           -29524.072      53373.102      1.4594291      3472.1201    
       100   940.83325     -30895.433     -22221.566      1.4594291      3472.1201    
       200   655.32859     -31410.555     -8415.0945      1.4594291      3472.1201    
       300   492.44705     -31703.584     -1794.1004      1.4594291      3472.1201    
       400   382.80684     -31863.571     -399.08344      1.4594291      3472.1201    
       500   340.51122     -31988.881     -4396.9622      1.4594291      3472.1201    
Loop time of 9.17013 on 8 procs for 500 steps with 274 atoms

Performance: 2.355 ns/day, 10.189 hours/ns, 54.525 timesteps/s, 14.940 katom-step/s
97.8% CPU use with 8 MPI tasks x 1 OpenMP threads

MPI task timing breakdown:
Section |  min time  |  avg time  |  max time  |%varavg| %total
---------------------------------------------------------------
Pair    | 6.408      | 6.6933     | 6.9293     |   6.6 | 72.99
Bond    | 0.00083522 | 0.00087549 | 0.000921   |   0.0 |  0.01
Neigh   | 0.77517    | 0.78726    | 0.83142    |   2.0 |  8.59
Comm    | 0.19829    | 0.43457    | 0.72035    |  26.1 |  4.74
Output  | 0.00018466 | 0.00020541 | 0.00032853 |   0.0 |  0.00
Modify  | 1.2007     | 1.2449     | 1.2568     |   1.6 | 13.58
Other   |            | 0.008961   |            |       |  0.10

Nlocal:          34.25 ave          40 max          29 min
Histogram: 2 0 0 2 1 0 0 1 1 1
Nghost:        2842.25 ave        2879 max        2810 min
Histogram: 2 2 0 0 0 0 1 1 0 2
Neighs:        18946.6 ave       21932 max       16121 min
Histogram: 1 1 0 2 1 0 0 1 1 1

Total # of neighbors = 151573
Ave neighs/atom = 553.18613
Ave special neighs/atom = 0
Neighbor list builds = 50
Dangerous builds not checked
# Save the equilibrated structure
write_data ${structure}_eq.data
write_data 333-EXP-11-vasp_eq.data
System init for write_data ...

# use tmp to save initial length and tilt
variable tmp equal lx
variable lx0 equal ${tmp}
variable lx0 equal 16.8189
variable tmp equal ly
variable ly0 equal ${tmp}
variable ly0 equal 12.842
variable tmp equal lz
variable lz0 equal ${tmp}
variable lz0 equal 16.0755

variable tmp equal yz
variable yz0 equal ${tmp}
variable yz0 equal 0.4312
variable tmp equal xz
variable xz0 equal ${tmp}
variable xz0 equal 1.195
variable tmp equal xy
variable xy0 equal ${tmp}
variable xy0 equal -8.3798

# Write restart
write_restart equil.res
System init for write_restart ...

# dir: direction
# uxx Perturbation
variable dir equal 1
include displace.mod.lmp
# # Find which reference length to use
# if "${dir} == 1" then #    "variable len0 equal ${lx0}"
# if "${dir} == 2" then #    "variable len0 equal ${ly0}"
# if "${dir} == 3" then #    "variable len0 equal ${lz0}"
# if "${dir} == 4" then #    "variable len0 equal ${lz0}"
# if "${dir} == 5" then #    "variable len0 equal ${lz0}"
# if "${dir} == 6" then #    "variable len0 equal ${ly0}"

# Find which length (epsilon) to calculate
if "${dir} == 1" then    "variable len0 equal ${lx0}"    "variable dlen equal lx-${len0}"
variable len0 equal ${lx0}
variable len0 equal 16.8189
variable dlen equal lx-${len0}
variable dlen equal lx-16.8189
if "${dir} == 2" then    "variable len0 equal ${ly0}"    "variable dlen equal ly-${len0}"
if "${dir} == 3" then    "variable len0 equal ${lz0}"    "variable dlen equal lz-${len0}"
if "${dir} == 4" then    "variable len0 equal ${lx0}"    "variable dlen equal 2*(yz-${yz0})"
if "${dir} == 5" then    "variable len0 equal ${ly0}"    "variable dlen equal 2*(xz-${xz0})"
if "${dir} == 6" then    "variable len0 equal ${lz0}"    "variable dlen equal 2*(xy-${xy0})"

# strain vector (epsilon)
variable eps equal v_dlen/v_len0

# stress vector (sigma)
variable sig1 equal -f_avgp[1]*${ufac}
variable sig1 equal -f_avgp[1]*0.000101325
variable sig2 equal -f_avgp[2]*${ufac}
variable sig2 equal -f_avgp[2]*0.000101325
variable sig3 equal -f_avgp[3]*${ufac}
variable sig3 equal -f_avgp[3]*0.000101325
variable sig4 equal -f_avgp[6]*${ufac}
variable sig4 equal -f_avgp[6]*0.000101325
variable sig5 equal -f_avgp[5]*${ufac}
variable sig5 equal -f_avgp[5]*0.000101325
variable sig6 equal -f_avgp[4]*${ufac}
variable sig6 equal -f_avgp[4]*0.000101325

# Reset box and simulation parameters
clear
OMP_NUM_THREADS environment is not set. Defaulting to 1 thread. (src/comm.cpp:98)
  using 1 OpenMP thread(s) per MPI task
# box tilt large
read_restart equil.res
Reading restart file ...
  restart file = 2 Aug 2023, LAMMPS = 2 Aug 2023
  restoring atom style full from restart
  triclinic box = (0 0 0) to (16.8189 12.842 16.0755) with tilt (-8.3798 1.195 0.4312)
WARNING: Triclinic box skew is large. LAMMPS will run inefficiently. (src/domain.cpp:220)
  2 by 2 by 2 MPI processor grid
  pair style reaxff stores no restart info
  274 atoms
Finding 1-2 1-3 1-4 neighbors ...
  special bond factors lj:    0        0        0       
  special bond factors coul:  0        0        0       
     0 = max # of 1-2 neighbors
     0 = max # of 1-3 neighbors
     0 = max # of 1-4 neighbors
     1 = max # of special neighbors
  special bonds CPU = 0.000 seconds
  read_restart CPU = 0.002 seconds

# Negative deformation
variable delta equal -${up}*${len0}
variable delta equal -0.01*${len0}
variable delta equal -0.01*16.8189
variable deltaxy equal -${up}*xy
variable deltaxy equal -0.01*xy
variable deltaxz equal -${up}*xz
variable deltaxz equal -0.01*xz
variable deltayz equal -${up}*yz
variable deltayz equal -0.01*yz
print "*****debug*****"
*****debug*****
print "xy = $(xy), deltaxy = ${deltaxy}"
xy = -8.3797999999999994714, deltaxy = 0.083798
print "xz = $(xz), deltaxz = ${deltaxz}"
xz = 1.1950000000000000622, deltaxz = -0.01195
print "yz = $(yz), deltayz = ${deltayz}"
yz = 0.43120000000000002771, deltayz = -0.004312
print "*****"
*****

if "${dir} == 1" then    "fix deform_n all deform ${nthermo} x delta 0 ${delta} xy delta ${deltaxy} xz delta ${deltaxz} remap v units box flip no"
fix deform_n all deform ${nthermo} x delta 0 ${delta} xy delta ${deltaxy} xz delta ${deltaxz} remap v units box flip no
fix deform_n all deform 100 x delta 0 ${delta} xy delta ${deltaxy} xz delta ${deltaxz} remap v units box flip no
fix deform_n all deform 100 x delta 0 -0.168189 xy delta ${deltaxy} xz delta ${deltaxz} remap v units box flip no
fix deform_n all deform 100 x delta 0 -0.168189 xy delta 0.083798 xz delta ${deltaxz} remap v units box flip no
fix deform_n all deform 100 x delta 0 -0.168189 xy delta 0.083798 xz delta -0.01195 remap v units box flip no
if "${dir} == 2" then    "fix deform_n all deform ${nthermo} y delta 0 ${delta} yz delta ${deltayz} remap v units box flip no"
if "${dir} == 3" then    "fix deform_n all deform ${nthermo} z delta 0 ${delta} remap v units box flip no"
if "${dir} == 4" then    "fix deform_n all deform ${nthermo} yz delta ${delta} remap v units box flip no"
if "${dir} == 5" then    "fix deform_n all deform ${nthermo} xz delta ${delta} remap v units box flip no"
if "${dir} == 6" then    "fix deform_n all deform ${nthermo} xy delta ${delta} remap v units box flip no"

# Run MD for Negative deformation
print "*****Negative-deform ${dir} starts.*****"
*****Negative-deform 1 starts.*****
include ff.mod.lmp
# Setup forcefield, system
# undefine any fix ave/* fix before using reset_timestep
if "$(is_defined(fix,avgp))" then "unfix avgp"
if "$(is_defined(fix,avgl))" then "unfix avgl"
reset_timestep 0

# Assign the force field
pair_style reaxff NULL safezone 3.0 mincap 150
# pair_coeff * * CHONSSi.ff O Si
# pair_coeff * * CHOSiNa.ff O Si
# pair_coeff * * SiOCHN_2018.ff O Si
# pair_coeff * * PDMSDecomp.ff Si O
pair_coeff * * CHONSi.ff C H O Si
# pair_coeff * * CHOFe.ff O Si

# charge method for reaxff
fix myqeq all qeq/reaxff 1 0.0 10.0 1.0e-6 reaxff maxiter 400
# Setup neighbor style
neighbor        2 bin
neigh_modify    every 10 delay 0 check no

# Setup output
thermo		${nthermo}
thermo		100
thermo_style custom step temp pe press vol lx ly lz
# thermo_style custom step vol lx ly lz yz xz xy
thermo_modify norm no
# thermo_modify line multi

# Sample pressure (and length vector)
fix avgp all ave/time  ${nevery} ${nrepeat} ${nfreq} c_thermo_press mode vector
fix avgp all ave/time  10 ${nrepeat} ${nfreq} c_thermo_press mode vector
fix avgp all ave/time  10 10 ${nfreq} c_thermo_press mode vector
fix avgp all ave/time  10 10 100 c_thermo_press mode vector
# variable lx equal lx
# variable ly equal ly
# variable lz equal lz
# fix avgl all ave/time  ${nevery} ${nrepeat} ${nfreq} v_lx v_ly v_lz

# nvt
fix fnvt all nvt temp ${temp} ${temp} ${tdamp}
fix fnvt all nvt temp 300 ${temp} ${tdamp}
fix fnvt all nvt temp 300 300 ${tdamp}
fix fnvt all nvt temp 300 300 50
Resetting global fix info from restart file:
  fix style: nvt, fix ID: fnvt


# Save stress, strain to "./stress_strain/stress_strain.neg${dir}.out"
print "# Stress and strain vectors, ${structure}, negative deformation ${dir}"       file stress_strain/stress_strain.neg${dir}.out screen no
print "# Stress and strain vectors, ${structure}, negative deformation ${dir}"       file stress_strain/stress_strain.neg1.out screen no
fix data all print ${nfreq} "${eps} ${sig1} ${sig2} ${sig3} ${sig4} ${sig5} ${sig6}"       append stress_strain/stress_strain.neg${dir}.out screen no       title "# eps sig1 sig2 sig3 sig4 sig5 sig6"
fix data all print 100 "${eps} ${sig1} ${sig2} ${sig3} ${sig4} ${sig5} ${sig6}"       append stress_strain/stress_strain.neg${dir}.out screen no       title "# eps sig1 sig2 sig3 sig4 sig5 sig6"
fix data all print 100 "${eps} ${sig1} ${sig2} ${sig3} ${sig4} ${sig5} ${sig6}"       append stress_strain/stress_strain.neg1.out screen no       title "# eps sig1 sig2 sig3 sig4 sig5 sig6"

# save trajectory
# if "$(is_defined(dump,dump_neg${dir1}))" then "undump dump_neg${dir1}"
dump dump_neg${dir} all custom ${nthermo} dump/neg_deform${dir}.lammpstrj id type q x y z
dump dump_neg1 all custom ${nthermo} dump/neg_deform${dir}.lammpstrj id type q x y z
dump dump_neg1 all custom 100 dump/neg_deform${dir}.lammpstrj id type q x y z
dump dump_neg1 all custom 100 dump/neg_deform1.lammpstrj id type q x y z
# variable dir1 equal ${dir}
run ${nrun}
run 500
All restart file global fix info was re-assigned
Neighbor list info ...
  update: every = 10 steps, delay = 0 steps, check = no
  max neighbors/atom: 2000, page size: 100000
  master list distance cutoff = 12
  ghost atom cutoff = 12
  binsize = 6, bins = 5 3 3
  2 neighbor lists, perpetual/occasional/extra = 2 0 0
  (1) pair reaxff, perpetual
      attributes: half, newton off, ghost
      pair build: half/bin/newtoff/ghost
      stencil: full/ghost/bin/3d
      bin: standard
  (2) fix qeq/reaxff, perpetual, copy from (1)
      attributes: half, newton off
      pair build: copy
      stencil: none
      bin: none
Per MPI rank memory allocation (min/avg/max) = 109.8 | 110.7 | 111.8 Mbytes
   Step          Temp          PotEng         Press          Volume           Lx             Ly             Lz      
         0   340.51122     -31988.881     -4396.9532      3472.1201      16.8189        12.842         16.0755      
       100   278.91184     -32029.686     -12113.756      3465.1759      16.785262      12.842         16.0755      
       200   253.06668     -32040.252     -18047.926      3458.2317      16.751624      12.842         16.0755      
       300   296.69669     -32057.421     -7260.507       3451.2874      16.717987      12.842         16.0755      
       400   311.87046     -32032.98       8466.908       3444.3432      16.684349      12.842         16.0755      
       500   324.65788     -32026.467     -1660.6792      3437.3989      16.650711      12.842         16.0755      
Loop time of 8.93321 on 8 procs for 500 steps with 274 atoms

Performance: 2.418 ns/day, 9.926 hours/ns, 55.971 timesteps/s, 15.336 katom-step/s
98.4% CPU use with 8 MPI tasks x 1 OpenMP threads

MPI task timing breakdown:
Section |  min time  |  avg time  |  max time  |%varavg| %total
---------------------------------------------------------------
Pair    | 6.4404     | 6.6947     | 6.8556     |   6.3 | 74.94
Bond    | 0.00084279 | 0.00088255 | 0.00090341 |   0.0 |  0.01
Neigh   | 0.77764    | 0.78602    | 0.79656    |   0.7 |  8.80
Comm    | 0.14796    | 0.31098    | 0.56743    |  29.7 |  3.48
Output  | 0.0010471  | 0.0011774  | 0.0012893  |   0.2 |  0.01
Modify  | 1.1177     | 1.1304     | 1.141      |   0.7 | 12.65
Other   |            | 0.009031   |            |       |  0.10

Nlocal:          34.25 ave          39 max          20 min
Histogram: 1 0 0 1 0 0 0 0 2 4
Nghost:        2833.75 ave        2860 max        2812 min
Histogram: 2 0 1 1 0 1 1 0 1 1
Neighs:        19089.2 ave       21665 max       11366 min
Histogram: 1 0 0 1 0 0 0 0 2 4

Total # of neighbors = 152714
Ave neighs/atom = 557.35036
Ave special neighs/atom = 0
Neighbor list builds = 50
Dangerous builds not checked
unfix deform_n
unfix data
undump dump_neg${dir}
undump dump_neg1

# Compute elastic constant from pressure
# d1 = -[pxx1-pxx0]/[(v_delta/v_len0] defined in input script
# variable C1neg equal ${d1}
# variable C2neg equal ${d2}
# variable C3neg equal ${d3}
# variable C4neg equal ${d4}
# variable C5neg equal ${d5}
# variable C6neg equal ${d6}

# Reset box and simulation parameters
clear
OMP_NUM_THREADS environment is not set. Defaulting to 1 thread. (src/comm.cpp:98)
  using 1 OpenMP thread(s) per MPI task
# box tilt large
read_restart equil.res
Reading restart file ...
  restart file = 2 Aug 2023, LAMMPS = 2 Aug 2023
  restoring atom style full from restart
  triclinic box = (0 0 0) to (16.8189 12.842 16.0755) with tilt (-8.3798 1.195 0.4312)
WARNING: Triclinic box skew is large. LAMMPS will run inefficiently. (src/domain.cpp:220)
  2 by 2 by 2 MPI processor grid
  pair style reaxff stores no restart info
  274 atoms
Finding 1-2 1-3 1-4 neighbors ...
  special bond factors lj:    0        0        0       
  special bond factors coul:  0        0        0       
     0 = max # of 1-2 neighbors
     0 = max # of 1-3 neighbors
     0 = max # of 1-4 neighbors
     1 = max # of special neighbors
  special bonds CPU = 0.000 seconds
  read_restart CPU = 0.002 seconds

# Positive deformation
variable delta equal ${up}*${len0}
variable delta equal 0.01*${len0}
variable delta equal 0.01*16.8189
variable deltaxy equal ${up}*xy
variable deltaxy equal 0.01*xy
variable deltaxz equal ${up}*xz
variable deltaxz equal 0.01*xz
variable deltayz equal ${up}*yz
variable deltayz equal 0.01*yz
if "${dir} == 1" then    "fix deform_p all deform ${nthermo} x delta 0 ${delta} xy delta ${deltaxy} xz delta ${deltaxz} remap v units box"
fix deform_p all deform ${nthermo} x delta 0 ${delta} xy delta ${deltaxy} xz delta ${deltaxz} remap v units box
fix deform_p all deform 100 x delta 0 ${delta} xy delta ${deltaxy} xz delta ${deltaxz} remap v units box
fix deform_p all deform 100 x delta 0 0.168189 xy delta ${deltaxy} xz delta ${deltaxz} remap v units box
fix deform_p all deform 100 x delta 0 0.168189 xy delta -0.083798 xz delta ${deltaxz} remap v units box
fix deform_p all deform 100 x delta 0 0.168189 xy delta -0.083798 xz delta 0.01195 remap v units box
if "${dir} == 2" then    "fix deform_p all deform ${nthermo} y delta 0 ${delta} yz delta ${deltayz} remap v units box"
if "${dir} == 3" then    "fix deform_p all deform ${nthermo} z delta 0 ${delta} remap v units box"
if "${dir} == 4" then    "fix deform_p all deform ${nthermo} yz delta ${delta} remap v units box"
if "${dir} == 5" then    "fix deform_p all deform ${nthermo} xz delta ${delta} remap v units box"
if "${dir} == 6" then    "fix deform_p all deform ${nthermo} xy delta ${delta} remap v units box"

# Run deformation MD
print "*****Positive-deform ${dir} starts.*****"
*****Positive-deform 1 starts.*****
include ff.mod.lmp
# Setup forcefield, system
# undefine any fix ave/* fix before using reset_timestep
if "$(is_defined(fix,avgp))" then "unfix avgp"
if "$(is_defined(fix,avgl))" then "unfix avgl"
reset_timestep 0

# Assign the force field
pair_style reaxff NULL safezone 3.0 mincap 150
# pair_coeff * * CHONSSi.ff O Si
# pair_coeff * * CHOSiNa.ff O Si
# pair_coeff * * SiOCHN_2018.ff O Si
# pair_coeff * * PDMSDecomp.ff Si O
pair_coeff * * CHONSi.ff C H O Si
# pair_coeff * * CHOFe.ff O Si

# charge method for reaxff
fix myqeq all qeq/reaxff 1 0.0 10.0 1.0e-6 reaxff maxiter 400
# Setup neighbor style
neighbor        2 bin
neigh_modify    every 10 delay 0 check no

# Setup output
thermo		${nthermo}
thermo		100
thermo_style custom step temp pe press vol lx ly lz
# thermo_style custom step vol lx ly lz yz xz xy
thermo_modify norm no
# thermo_modify line multi

# Sample pressure (and length vector)
fix avgp all ave/time  ${nevery} ${nrepeat} ${nfreq} c_thermo_press mode vector
fix avgp all ave/time  10 ${nrepeat} ${nfreq} c_thermo_press mode vector
fix avgp all ave/time  10 10 ${nfreq} c_thermo_press mode vector
fix avgp all ave/time  10 10 100 c_thermo_press mode vector
# variable lx equal lx
# variable ly equal ly
# variable lz equal lz
# fix avgl all ave/time  ${nevery} ${nrepeat} ${nfreq} v_lx v_ly v_lz

# nvt
fix fnvt all nvt temp ${temp} ${temp} ${tdamp}
fix fnvt all nvt temp 300 ${temp} ${tdamp}
fix fnvt all nvt temp 300 300 ${tdamp}
fix fnvt all nvt temp 300 300 50
Resetting global fix info from restart file:
  fix style: nvt, fix ID: fnvt


# Save stress, strain to "./stress_strain/stress_strain.pos${dir}.out"
print "# Stress and strain vectors, ${structure}, positive deformation ${dir}"       file stress_strain/stress_strain.pos${dir}.out screen no
print "# Stress and strain vectors, ${structure}, positive deformation ${dir}"       file stress_strain/stress_strain.pos1.out screen no
fix data all print ${nfreq} "${eps} ${sig1} ${sig2} ${sig3} ${sig4} ${sig5} ${sig6}"       append stress_strain/stress_strain.pos${dir}.out screen no       title "# eps sig1 sig2 sig3 sig4 sig5 sig6"
fix data all print 100 "${eps} ${sig1} ${sig2} ${sig3} ${sig4} ${sig5} ${sig6}"       append stress_strain/stress_strain.pos${dir}.out screen no       title "# eps sig1 sig2 sig3 sig4 sig5 sig6"
fix data all print 100 "${eps} ${sig1} ${sig2} ${sig3} ${sig4} ${sig5} ${sig6}"       append stress_strain/stress_strain.pos1.out screen no       title "# eps sig1 sig2 sig3 sig4 sig5 sig6"

# save trajectory
# if "$(is_defined(dump,dump_pos${dir1}))" then "undump dump_pos${dir1}"
dump dump_pos${dir} all custom ${nthermo} dump/pos_deform${dir}.lammpstrj id type q x y z
dump dump_pos1 all custom ${nthermo} dump/pos_deform${dir}.lammpstrj id type q x y z
dump dump_pos1 all custom 100 dump/pos_deform${dir}.lammpstrj id type q x y z
dump dump_pos1 all custom 100 dump/pos_deform1.lammpstrj id type q x y z
run ${nrun}
run 500
All restart file global fix info was re-assigned
Neighbor list info ...
  update: every = 10 steps, delay = 0 steps, check = no
  max neighbors/atom: 2000, page size: 100000
  master list distance cutoff = 12
  ghost atom cutoff = 12
  binsize = 6, bins = 5 3 3
  2 neighbor lists, perpetual/occasional/extra = 2 0 0
  (1) pair reaxff, perpetual
      attributes: half, newton off, ghost
      pair build: half/bin/newtoff/ghost
      stencil: full/ghost/bin/3d
      bin: standard
  (2) fix qeq/reaxff, perpetual, copy from (1)
      attributes: half, newton off
      pair build: copy
      stencil: none
      bin: none
Per MPI rank memory allocation (min/avg/max) = 109.8 | 110.8 | 111.8 Mbytes
   Step          Temp          PotEng         Press          Volume           Lx             Ly             Lz      
         0   340.51122     -31988.881     -4396.9532      3472.1201      16.8189        12.842         16.0755      
       100   278.60108     -32030.423     -11970.026      3479.0644      16.852538      12.842         16.0755      
       200   254.43297     -32035.34      -13877.222      3486.0086      16.886176      12.842         16.0755      
       300   301.53651     -32054.875     -19741.498      3492.9529      16.919813      12.842         16.0755      
       400   314.83907     -32029.991     -0.36818069     3499.8971      16.953451      12.842         16.0755      
       500   316.76576     -32021.115     -35.294889      3506.8413      16.987089      12.842         16.0755      
Loop time of 8.86697 on 8 procs for 500 steps with 274 atoms

Performance: 2.436 ns/day, 9.852 hours/ns, 56.389 timesteps/s, 15.451 katom-step/s
98.4% CPU use with 8 MPI tasks x 1 OpenMP threads

MPI task timing breakdown:
Section |  min time  |  avg time  |  max time  |%varavg| %total
---------------------------------------------------------------
Pair    | 6.4023     | 6.6419     | 6.8062     |   5.9 | 74.91
Bond    | 0.00084618 | 0.00089192 | 0.00092909 |   0.0 |  0.01
Neigh   | 0.76545    | 0.77917    | 0.79493    |   1.1 |  8.79
Comm    | 0.13431    | 0.29966    | 0.54039    |  27.8 |  3.38
Output  | 0.0010737  | 0.0012163  | 0.0013364  |   0.3 |  0.01
Modify  | 1.1178     | 1.1347     | 1.1497     |   0.9 | 12.80
Other   |            | 0.009388   |            |       |  0.11

Nlocal:          34.25 ave          40 max          22 min
Histogram: 1 0 0 0 1 0 0 3 1 2
Nghost:        2813.12 ave        2834 max        2792 min
Histogram: 2 1 1 0 0 0 0 2 0 2
Neighs:        18768.5 ave       21856 max       12304 min
Histogram: 1 0 0 0 1 0 0 3 1 2

Total # of neighbors = 150148
Ave neighs/atom = 547.9854
Ave special neighs/atom = 0
Neighbor list builds = 50
Dangerous builds not checked
unfix deform_p
unfix data
undump dump_pos${dir}
undump dump_pos1

# # Combine positive and negative
# variable C1${dir} equal 0.5*(${C1neg}+${C1pos})
# variable C2${dir} equal 0.5*(${C2neg}+${C2pos})
# variable C3${dir} equal 0.5*(${C3neg}+${C3pos})
# variable C4${dir} equal 0.5*(${C4neg}+${C4pos})
# variable C5${dir} equal 0.5*(${C5neg}+${C5pos})
# variable C6${dir} equal 0.5*(${C6neg}+${C6pos})

# Delete dir to make sure it is not reused
variable dir delete
# uyy Perturbation
variable dir equal 2
include displace.mod.lmp
# # Find which reference length to use
# if "${dir} == 1" then #    "variable len0 equal ${lx0}"
# if "${dir} == 2" then #    "variable len0 equal ${ly0}"
# if "${dir} == 3" then #    "variable len0 equal ${lz0}"
# if "${dir} == 4" then #    "variable len0 equal ${lz0}"
# if "${dir} == 5" then #    "variable len0 equal ${lz0}"
# if "${dir} == 6" then #    "variable len0 equal ${ly0}"

# Find which length (epsilon) to calculate
if "${dir} == 1" then    "variable len0 equal ${lx0}"    "variable dlen equal lx-${len0}"
if "${dir} == 2" then    "variable len0 equal ${ly0}"    "variable dlen equal ly-${len0}"
variable len0 equal ${ly0}
variable len0 equal 12.842
variable dlen equal ly-${len0}
variable dlen equal ly-12.842
if "${dir} == 3" then    "variable len0 equal ${lz0}"    "variable dlen equal lz-${len0}"
if "${dir} == 4" then    "variable len0 equal ${lx0}"    "variable dlen equal 2*(yz-${yz0})"
if "${dir} == 5" then    "variable len0 equal ${ly0}"    "variable dlen equal 2*(xz-${xz0})"
if "${dir} == 6" then    "variable len0 equal ${lz0}"    "variable dlen equal 2*(xy-${xy0})"

# strain vector (epsilon)
variable eps equal v_dlen/v_len0

# stress vector (sigma)
variable sig1 equal -f_avgp[1]*${ufac}
variable sig1 equal -f_avgp[1]*0.000101325
variable sig2 equal -f_avgp[2]*${ufac}
variable sig2 equal -f_avgp[2]*0.000101325
variable sig3 equal -f_avgp[3]*${ufac}
variable sig3 equal -f_avgp[3]*0.000101325
variable sig4 equal -f_avgp[6]*${ufac}
variable sig4 equal -f_avgp[6]*0.000101325
variable sig5 equal -f_avgp[5]*${ufac}
variable sig5 equal -f_avgp[5]*0.000101325
variable sig6 equal -f_avgp[4]*${ufac}
variable sig6 equal -f_avgp[4]*0.000101325

# Reset box and simulation parameters
clear
OMP_NUM_THREADS environment is not set. Defaulting to 1 thread. (src/comm.cpp:98)
  using 1 OpenMP thread(s) per MPI task
# box tilt large
read_restart equil.res
Reading restart file ...
  restart file = 2 Aug 2023, LAMMPS = 2 Aug 2023
  restoring atom style full from restart
  triclinic box = (0 0 0) to (16.8189 12.842 16.0755) with tilt (-8.3798 1.195 0.4312)
WARNING: Triclinic box skew is large. LAMMPS will run inefficiently. (src/domain.cpp:220)
  2 by 2 by 2 MPI processor grid
  pair style reaxff stores no restart info
  274 atoms
Finding 1-2 1-3 1-4 neighbors ...
  special bond factors lj:    0        0        0       
  special bond factors coul:  0        0        0       
     0 = max # of 1-2 neighbors
     0 = max # of 1-3 neighbors
     0 = max # of 1-4 neighbors
     1 = max # of special neighbors
  special bonds CPU = 0.000 seconds
  read_restart CPU = 0.002 seconds

# Negative deformation
variable delta equal -${up}*${len0}
variable delta equal -0.01*${len0}
variable delta equal -0.01*12.842
variable deltaxy equal -${up}*xy
variable deltaxy equal -0.01*xy
variable deltaxz equal -${up}*xz
variable deltaxz equal -0.01*xz
variable deltayz equal -${up}*yz
variable deltayz equal -0.01*yz
print "*****debug*****"
*****debug*****
print "xy = $(xy), deltaxy = ${deltaxy}"
xy = -8.3797999999999994714, deltaxy = 0.083798
print "xz = $(xz), deltaxz = ${deltaxz}"
xz = 1.1950000000000000622, deltaxz = -0.01195
print "yz = $(yz), deltayz = ${deltayz}"
yz = 0.43120000000000002771, deltayz = -0.004312
print "*****"
*****

if "${dir} == 1" then    "fix deform_n all deform ${nthermo} x delta 0 ${delta} xy delta ${deltaxy} xz delta ${deltaxz} remap v units box flip no"
if "${dir} == 2" then    "fix deform_n all deform ${nthermo} y delta 0 ${delta} yz delta ${deltayz} remap v units box flip no"
fix deform_n all deform ${nthermo} y delta 0 ${delta} yz delta ${deltayz} remap v units box flip no
fix deform_n all deform 100 y delta 0 ${delta} yz delta ${deltayz} remap v units box flip no
fix deform_n all deform 100 y delta 0 -0.12842 yz delta ${deltayz} remap v units box flip no
fix deform_n all deform 100 y delta 0 -0.12842 yz delta -0.004312 remap v units box flip no
if "${dir} == 3" then    "fix deform_n all deform ${nthermo} z delta 0 ${delta} remap v units box flip no"
if "${dir} == 4" then    "fix deform_n all deform ${nthermo} yz delta ${delta} remap v units box flip no"
if "${dir} == 5" then    "fix deform_n all deform ${nthermo} xz delta ${delta} remap v units box flip no"
if "${dir} == 6" then    "fix deform_n all deform ${nthermo} xy delta ${delta} remap v units box flip no"

# Run MD for Negative deformation
print "*****Negative-deform ${dir} starts.*****"
*****Negative-deform 2 starts.*****
include ff.mod.lmp
# Setup forcefield, system
# undefine any fix ave/* fix before using reset_timestep
if "$(is_defined(fix,avgp))" then "unfix avgp"
if "$(is_defined(fix,avgl))" then "unfix avgl"
reset_timestep 0

# Assign the force field
pair_style reaxff NULL safezone 3.0 mincap 150
# pair_coeff * * CHONSSi.ff O Si
# pair_coeff * * CHOSiNa.ff O Si
# pair_coeff * * SiOCHN_2018.ff O Si
# pair_coeff * * PDMSDecomp.ff Si O
pair_coeff * * CHONSi.ff C H O Si
# pair_coeff * * CHOFe.ff O Si

# charge method for reaxff
fix myqeq all qeq/reaxff 1 0.0 10.0 1.0e-6 reaxff maxiter 400
# Setup neighbor style
neighbor        2 bin
neigh_modify    every 10 delay 0 check no

# Setup output
thermo		${nthermo}
thermo		100
thermo_style custom step temp pe press vol lx ly lz
# thermo_style custom step vol lx ly lz yz xz xy
thermo_modify norm no
# thermo_modify line multi

# Sample pressure (and length vector)
fix avgp all ave/time  ${nevery} ${nrepeat} ${nfreq} c_thermo_press mode vector
fix avgp all ave/time  10 ${nrepeat} ${nfreq} c_thermo_press mode vector
fix avgp all ave/time  10 10 ${nfreq} c_thermo_press mode vector
fix avgp all ave/time  10 10 100 c_thermo_press mode vector
# variable lx equal lx
# variable ly equal ly
# variable lz equal lz
# fix avgl all ave/time  ${nevery} ${nrepeat} ${nfreq} v_lx v_ly v_lz

# nvt
fix fnvt all nvt temp ${temp} ${temp} ${tdamp}
fix fnvt all nvt temp 300 ${temp} ${tdamp}
fix fnvt all nvt temp 300 300 ${tdamp}
fix fnvt all nvt temp 300 300 50
Resetting global fix info from restart file:
  fix style: nvt, fix ID: fnvt


# Save stress, strain to "./stress_strain/stress_strain.neg${dir}.out"
print "# Stress and strain vectors, ${structure}, negative deformation ${dir}"       file stress_strain/stress_strain.neg${dir}.out screen no
print "# Stress and strain vectors, ${structure}, negative deformation ${dir}"       file stress_strain/stress_strain.neg2.out screen no
fix data all print ${nfreq} "${eps} ${sig1} ${sig2} ${sig3} ${sig4} ${sig5} ${sig6}"       append stress_strain/stress_strain.neg${dir}.out screen no       title "# eps sig1 sig2 sig3 sig4 sig5 sig6"
fix data all print 100 "${eps} ${sig1} ${sig2} ${sig3} ${sig4} ${sig5} ${sig6}"       append stress_strain/stress_strain.neg${dir}.out screen no       title "# eps sig1 sig2 sig3 sig4 sig5 sig6"
fix data all print 100 "${eps} ${sig1} ${sig2} ${sig3} ${sig4} ${sig5} ${sig6}"       append stress_strain/stress_strain.neg2.out screen no       title "# eps sig1 sig2 sig3 sig4 sig5 sig6"

# save trajectory
# if "$(is_defined(dump,dump_neg${dir1}))" then "undump dump_neg${dir1}"
dump dump_neg${dir} all custom ${nthermo} dump/neg_deform${dir}.lammpstrj id type q x y z
dump dump_neg2 all custom ${nthermo} dump/neg_deform${dir}.lammpstrj id type q x y z
dump dump_neg2 all custom 100 dump/neg_deform${dir}.lammpstrj id type q x y z
dump dump_neg2 all custom 100 dump/neg_deform2.lammpstrj id type q x y z
# variable dir1 equal ${dir}
run ${nrun}
run 500
All restart file global fix info was re-assigned
Neighbor list info ...
  update: every = 10 steps, delay = 0 steps, check = no
  max neighbors/atom: 2000, page size: 100000
  master list distance cutoff = 12
  ghost atom cutoff = 12
  binsize = 6, bins = 5 3 3
  2 neighbor lists, perpetual/occasional/extra = 2 0 0
  (1) pair reaxff, perpetual
      attributes: half, newton off, ghost
      pair build: half/bin/newtoff/ghost
      stencil: full/ghost/bin/3d
      bin: standard
  (2) fix qeq/reaxff, perpetual, copy from (1)
      attributes: half, newton off
      pair build: copy
      stencil: none
      bin: none
Per MPI rank memory allocation (min/avg/max) = 109.8 | 110.7 | 111.8 Mbytes
   Step          Temp          PotEng         Press          Volume           Lx             Ly             Lz      
         0   340.51122     -31988.881     -4396.9532      3472.1201      16.8189        12.842         16.0755      
       100   278.74768     -32029.791     -12004.497      3465.1759      16.8189        12.816316      16.0755      
       200   252.76396     -32038.001     -13488.735      3458.2317      16.8189        12.790632      16.0755      
       300   294.01202     -32050.706     -11125.381      3451.2874      16.8189        12.764948      16.0755      
       400   299.10417     -32026.985      15044.677      3444.3432      16.8189        12.739264      16.0755      
       500   312.63441     -32022.859      925.43455      3437.3989      16.8189        12.71358       16.0755      
Loop time of 8.98756 on 8 procs for 500 steps with 274 atoms

Performance: 2.403 ns/day, 9.986 hours/ns, 55.632 timesteps/s, 15.243 katom-step/s
98.4% CPU use with 8 MPI tasks x 1 OpenMP threads

MPI task timing breakdown:
Section |  min time  |  avg time  |  max time  |%varavg| %total
---------------------------------------------------------------
Pair    | 6.4828     | 6.752      | 6.9193     |   5.9 | 75.13
Bond    | 0.00083787 | 0.00088509 | 0.00091996 |   0.0 |  0.01
Neigh   | 0.76782    | 0.78493    | 0.80214    |   1.1 |  8.73
Comm    | 0.13983    | 0.30773    | 0.57761    |  28.0 |  3.42
Output  | 0.0010492  | 0.0011834  | 0.0012932  |   0.2 |  0.01
Modify  | 1.1136     | 1.1315     | 1.1498     |   1.0 | 12.59
Other   |            | 0.00926    |            |       |  0.10

Nlocal:          34.25 ave          40 max          21 min
Histogram: 1 0 0 1 0 0 0 2 2 2
Nghost:        2844.75 ave        2868 max        2819 min
Histogram: 1 1 0 1 0 1 1 2 0 1
Neighs:        19092.5 ave       22241 max       11963 min
Histogram: 1 0 0 1 0 0 0 2 2 2

Total # of neighbors = 152740
Ave neighs/atom = 557.44526
Ave special neighs/atom = 0
Neighbor list builds = 50
Dangerous builds not checked
unfix deform_n
unfix data
undump dump_neg${dir}
undump dump_neg2

# Compute elastic constant from pressure
# d1 = -[pxx1-pxx0]/[(v_delta/v_len0] defined in input script
# variable C1neg equal ${d1}
# variable C2neg equal ${d2}
# variable C3neg equal ${d3}
# variable C4neg equal ${d4}
# variable C5neg equal ${d5}
# variable C6neg equal ${d6}

# Reset box and simulation parameters
clear
OMP_NUM_THREADS environment is not set. Defaulting to 1 thread. (src/comm.cpp:98)
  using 1 OpenMP thread(s) per MPI task
# box tilt large
read_restart equil.res
Reading restart file ...
  restart file = 2 Aug 2023, LAMMPS = 2 Aug 2023
  restoring atom style full from restart
  triclinic box = (0 0 0) to (16.8189 12.842 16.0755) with tilt (-8.3798 1.195 0.4312)
WARNING: Triclinic box skew is large. LAMMPS will run inefficiently. (src/domain.cpp:220)
  2 by 2 by 2 MPI processor grid
  pair style reaxff stores no restart info
  274 atoms
Finding 1-2 1-3 1-4 neighbors ...
  special bond factors lj:    0        0        0       
  special bond factors coul:  0        0        0       
     0 = max # of 1-2 neighbors
     0 = max # of 1-3 neighbors
     0 = max # of 1-4 neighbors
     1 = max # of special neighbors
  special bonds CPU = 0.000 seconds
  read_restart CPU = 0.002 seconds

# Positive deformation
variable delta equal ${up}*${len0}
variable delta equal 0.01*${len0}
variable delta equal 0.01*12.842
variable deltaxy equal ${up}*xy
variable deltaxy equal 0.01*xy
variable deltaxz equal ${up}*xz
variable deltaxz equal 0.01*xz
variable deltayz equal ${up}*yz
variable deltayz equal 0.01*yz
if "${dir} == 1" then    "fix deform_p all deform ${nthermo} x delta 0 ${delta} xy delta ${deltaxy} xz delta ${deltaxz} remap v units box"
if "${dir} == 2" then    "fix deform_p all deform ${nthermo} y delta 0 ${delta} yz delta ${deltayz} remap v units box"
fix deform_p all deform ${nthermo} y delta 0 ${delta} yz delta ${deltayz} remap v units box
fix deform_p all deform 100 y delta 0 ${delta} yz delta ${deltayz} remap v units box
fix deform_p all deform 100 y delta 0 0.12842 yz delta ${deltayz} remap v units box
fix deform_p all deform 100 y delta 0 0.12842 yz delta 0.004312 remap v units box
if "${dir} == 3" then    "fix deform_p all deform ${nthermo} z delta 0 ${delta} remap v units box"
if "${dir} == 4" then    "fix deform_p all deform ${nthermo} yz delta ${delta} remap v units box"
if "${dir} == 5" then    "fix deform_p all deform ${nthermo} xz delta ${delta} remap v units box"
if "${dir} == 6" then    "fix deform_p all deform ${nthermo} xy delta ${delta} remap v units box"

# Run deformation MD
print "*****Positive-deform ${dir} starts.*****"
*****Positive-deform 2 starts.*****
include ff.mod.lmp
# Setup forcefield, system
# undefine any fix ave/* fix before using reset_timestep
if "$(is_defined(fix,avgp))" then "unfix avgp"
if "$(is_defined(fix,avgl))" then "unfix avgl"
reset_timestep 0

# Assign the force field
pair_style reaxff NULL safezone 3.0 mincap 150
# pair_coeff * * CHONSSi.ff O Si
# pair_coeff * * CHOSiNa.ff O Si
# pair_coeff * * SiOCHN_2018.ff O Si
# pair_coeff * * PDMSDecomp.ff Si O
pair_coeff * * CHONSi.ff C H O Si
# pair_coeff * * CHOFe.ff O Si

# charge method for reaxff
fix myqeq all qeq/reaxff 1 0.0 10.0 1.0e-6 reaxff maxiter 400
# Setup neighbor style
neighbor        2 bin
neigh_modify    every 10 delay 0 check no

# Setup output
thermo		${nthermo}
thermo		100
thermo_style custom step temp pe press vol lx ly lz
# thermo_style custom step vol lx ly lz yz xz xy
thermo_modify norm no
# thermo_modify line multi

# Sample pressure (and length vector)
fix avgp all ave/time  ${nevery} ${nrepeat} ${nfreq} c_thermo_press mode vector
fix avgp all ave/time  10 ${nrepeat} ${nfreq} c_thermo_press mode vector
fix avgp all ave/time  10 10 ${nfreq} c_thermo_press mode vector
fix avgp all ave/time  10 10 100 c_thermo_press mode vector
# variable lx equal lx
# variable ly equal ly
# variable lz equal lz
# fix avgl all ave/time  ${nevery} ${nrepeat} ${nfreq} v_lx v_ly v_lz

# nvt
fix fnvt all nvt temp ${temp} ${temp} ${tdamp}
fix fnvt all nvt temp 300 ${temp} ${tdamp}
fix fnvt all nvt temp 300 300 ${tdamp}
fix fnvt all nvt temp 300 300 50
Resetting global fix info from restart file:
  fix style: nvt, fix ID: fnvt


# Save stress, strain to "./stress_strain/stress_strain.pos${dir}.out"
print "# Stress and strain vectors, ${structure}, positive deformation ${dir}"       file stress_strain/stress_strain.pos${dir}.out screen no
print "# Stress and strain vectors, ${structure}, positive deformation ${dir}"       file stress_strain/stress_strain.pos2.out screen no
fix data all print ${nfreq} "${eps} ${sig1} ${sig2} ${sig3} ${sig4} ${sig5} ${sig6}"       append stress_strain/stress_strain.pos${dir}.out screen no       title "# eps sig1 sig2 sig3 sig4 sig5 sig6"
fix data all print 100 "${eps} ${sig1} ${sig2} ${sig3} ${sig4} ${sig5} ${sig6}"       append stress_strain/stress_strain.pos${dir}.out screen no       title "# eps sig1 sig2 sig3 sig4 sig5 sig6"
fix data all print 100 "${eps} ${sig1} ${sig2} ${sig3} ${sig4} ${sig5} ${sig6}"       append stress_strain/stress_strain.pos2.out screen no       title "# eps sig1 sig2 sig3 sig4 sig5 sig6"

# save trajectory
# if "$(is_defined(dump,dump_pos${dir1}))" then "undump dump_pos${dir1}"
dump dump_pos${dir} all custom ${nthermo} dump/pos_deform${dir}.lammpstrj id type q x y z
dump dump_pos2 all custom ${nthermo} dump/pos_deform${dir}.lammpstrj id type q x y z
dump dump_pos2 all custom 100 dump/pos_deform${dir}.lammpstrj id type q x y z
dump dump_pos2 all custom 100 dump/pos_deform2.lammpstrj id type q x y z
run ${nrun}
run 500
All restart file global fix info was re-assigned
Neighbor list info ...
  update: every = 10 steps, delay = 0 steps, check = no
  max neighbors/atom: 2000, page size: 100000
  master list distance cutoff = 12
  ghost atom cutoff = 12
  binsize = 6, bins = 5 3 3
  2 neighbor lists, perpetual/occasional/extra = 2 0 0
  (1) pair reaxff, perpetual
      attributes: half, newton off, ghost
      pair build: half/bin/newtoff/ghost
      stencil: full/ghost/bin/3d
      bin: standard
  (2) fix qeq/reaxff, perpetual, copy from (1)
      attributes: half, newton off
      pair build: copy
      stencil: none
      bin: none
Per MPI rank memory allocation (min/avg/max) = 109.8 | 110.8 | 111.8 Mbytes
   Step          Temp          PotEng         Press          Volume           Lx             Ly             Lz      
         0   340.51122     -31988.881     -4396.9532      3472.1201      16.8189        12.842         16.0755      
       100   278.82468     -32030.371     -12079.165      3479.0644      16.8189        12.867684      16.0755      
       200   247.93235     -32032.898     -18343.368      3486.0086      16.8189        12.893368      16.0755      
       300   297.4537      -32053.994     -13799.441      3492.9529      16.8189        12.919052      16.0755      
       400   316.82156     -32030.622      1372.8219      3499.8971      16.8189        12.944736      16.0755      
       500   303.3393      -32000.849      829.33556      3506.8413      16.8189        12.97042       16.0755      
Loop time of 8.87578 on 8 procs for 500 steps with 274 atoms

Performance: 2.434 ns/day, 9.862 hours/ns, 56.333 timesteps/s, 15.435 katom-step/s
98.2% CPU use with 8 MPI tasks x 1 OpenMP threads

MPI task timing breakdown:
Section |  min time  |  avg time  |  max time  |%varavg| %total
---------------------------------------------------------------
Pair    | 6.3765     | 6.6474     | 6.8397     |   6.6 | 74.89
Bond    | 0.00083459 | 0.00087509 | 0.00090639 |   0.0 |  0.01
Neigh   | 0.76013    | 0.77684    | 0.79217    |   1.1 |  8.75
Comm    | 0.12141    | 0.31453    | 0.58665    |  30.5 |  3.54
Output  | 0.00099594 | 0.0011293  | 0.0012284  |   0.2 |  0.01
Modify  | 1.1089     | 1.1257     | 1.1438     |   1.0 | 12.68
Other   |            | 0.009358   |            |       |  0.11

Nlocal:          34.25 ave          40 max          22 min
Histogram: 1 0 1 0 0 0 0 2 2 2
Nghost:        2808.25 ave        2854 max        2772 min
Histogram: 2 0 1 1 0 1 1 0 1 1
Neighs:        18766.6 ave       21884 max       12292 min
Histogram: 1 0 1 0 0 0 0 2 2 2

Total # of neighbors = 150133
Ave neighs/atom = 547.93066
Ave special neighs/atom = 0
Neighbor list builds = 50
Dangerous builds not checked
unfix deform_p
unfix data
undump dump_pos${dir}
undump dump_pos2

# # Combine positive and negative
# variable C1${dir} equal 0.5*(${C1neg}+${C1pos})
# variable C2${dir} equal 0.5*(${C2neg}+${C2pos})
# variable C3${dir} equal 0.5*(${C3neg}+${C3pos})
# variable C4${dir} equal 0.5*(${C4neg}+${C4pos})
# variable C5${dir} equal 0.5*(${C5neg}+${C5pos})
# variable C6${dir} equal 0.5*(${C6neg}+${C6pos})

# Delete dir to make sure it is not reused
variable dir delete
# uzz Perturbation
variable dir equal 3
include displace.mod.lmp
# # Find which reference length to use
# if "${dir} == 1" then #    "variable len0 equal ${lx0}"
# if "${dir} == 2" then #    "variable len0 equal ${ly0}"
# if "${dir} == 3" then #    "variable len0 equal ${lz0}"
# if "${dir} == 4" then #    "variable len0 equal ${lz0}"
# if "${dir} == 5" then #    "variable len0 equal ${lz0}"
# if "${dir} == 6" then #    "variable len0 equal ${ly0}"

# Find which length (epsilon) to calculate
if "${dir} == 1" then    "variable len0 equal ${lx0}"    "variable dlen equal lx-${len0}"
if "${dir} == 2" then    "variable len0 equal ${ly0}"    "variable dlen equal ly-${len0}"
if "${dir} == 3" then    "variable len0 equal ${lz0}"    "variable dlen equal lz-${len0}"
variable len0 equal ${lz0}
variable len0 equal 16.0755
variable dlen equal lz-${len0}
variable dlen equal lz-16.0755
if "${dir} == 4" then    "variable len0 equal ${lx0}"    "variable dlen equal 2*(yz-${yz0})"
if "${dir} == 5" then    "variable len0 equal ${ly0}"    "variable dlen equal 2*(xz-${xz0})"
if "${dir} == 6" then    "variable len0 equal ${lz0}"    "variable dlen equal 2*(xy-${xy0})"

# strain vector (epsilon)
variable eps equal v_dlen/v_len0

# stress vector (sigma)
variable sig1 equal -f_avgp[1]*${ufac}
variable sig1 equal -f_avgp[1]*0.000101325
variable sig2 equal -f_avgp[2]*${ufac}
variable sig2 equal -f_avgp[2]*0.000101325
variable sig3 equal -f_avgp[3]*${ufac}
variable sig3 equal -f_avgp[3]*0.000101325
variable sig4 equal -f_avgp[6]*${ufac}
variable sig4 equal -f_avgp[6]*0.000101325
variable sig5 equal -f_avgp[5]*${ufac}
variable sig5 equal -f_avgp[5]*0.000101325
variable sig6 equal -f_avgp[4]*${ufac}
variable sig6 equal -f_avgp[4]*0.000101325

# Reset box and simulation parameters
clear
OMP_NUM_THREADS environment is not set. Defaulting to 1 thread. (src/comm.cpp:98)
  using 1 OpenMP thread(s) per MPI task
# box tilt large
read_restart equil.res
Reading restart file ...
  restart file = 2 Aug 2023, LAMMPS = 2 Aug 2023
  restoring atom style full from restart
  triclinic box = (0 0 0) to (16.8189 12.842 16.0755) with tilt (-8.3798 1.195 0.4312)
WARNING: Triclinic box skew is large. LAMMPS will run inefficiently. (src/domain.cpp:220)
  2 by 2 by 2 MPI processor grid
  pair style reaxff stores no restart info
  274 atoms
Finding 1-2 1-3 1-4 neighbors ...
  special bond factors lj:    0        0        0       
  special bond factors coul:  0        0        0       
     0 = max # of 1-2 neighbors
     0 = max # of 1-3 neighbors
     0 = max # of 1-4 neighbors
     1 = max # of special neighbors
  special bonds CPU = 0.000 seconds
  read_restart CPU = 0.001 seconds

# Negative deformation
variable delta equal -${up}*${len0}
variable delta equal -0.01*${len0}
variable delta equal -0.01*16.0755
variable deltaxy equal -${up}*xy
variable deltaxy equal -0.01*xy
variable deltaxz equal -${up}*xz
variable deltaxz equal -0.01*xz
variable deltayz equal -${up}*yz
variable deltayz equal -0.01*yz
print "*****debug*****"
*****debug*****
print "xy = $(xy), deltaxy = ${deltaxy}"
xy = -8.3797999999999994714, deltaxy = 0.083798
print "xz = $(xz), deltaxz = ${deltaxz}"
xz = 1.1950000000000000622, deltaxz = -0.01195
print "yz = $(yz), deltayz = ${deltayz}"
yz = 0.43120000000000002771, deltayz = -0.004312
print "*****"
*****

if "${dir} == 1" then    "fix deform_n all deform ${nthermo} x delta 0 ${delta} xy delta ${deltaxy} xz delta ${deltaxz} remap v units box flip no"
if "${dir} == 2" then    "fix deform_n all deform ${nthermo} y delta 0 ${delta} yz delta ${deltayz} remap v units box flip no"
if "${dir} == 3" then    "fix deform_n all deform ${nthermo} z delta 0 ${delta} remap v units box flip no"
fix deform_n all deform ${nthermo} z delta 0 ${delta} remap v units box flip no
fix deform_n all deform 100 z delta 0 ${delta} remap v units box flip no
fix deform_n all deform 100 z delta 0 -0.160755 remap v units box flip no
if "${dir} == 4" then    "fix deform_n all deform ${nthermo} yz delta ${delta} remap v units box flip no"
if "${dir} == 5" then    "fix deform_n all deform ${nthermo} xz delta ${delta} remap v units box flip no"
if "${dir} == 6" then    "fix deform_n all deform ${nthermo} xy delta ${delta} remap v units box flip no"

# Run MD for Negative deformation
print "*****Negative-deform ${dir} starts.*****"
*****Negative-deform 3 starts.*****
include ff.mod.lmp
# Setup forcefield, system
# undefine any fix ave/* fix before using reset_timestep
if "$(is_defined(fix,avgp))" then "unfix avgp"
if "$(is_defined(fix,avgl))" then "unfix avgl"
reset_timestep 0

# Assign the force field
pair_style reaxff NULL safezone 3.0 mincap 150
# pair_coeff * * CHONSSi.ff O Si
# pair_coeff * * CHOSiNa.ff O Si
# pair_coeff * * SiOCHN_2018.ff O Si
# pair_coeff * * PDMSDecomp.ff Si O
pair_coeff * * CHONSi.ff C H O Si
# pair_coeff * * CHOFe.ff O Si

# charge method for reaxff
fix myqeq all qeq/reaxff 1 0.0 10.0 1.0e-6 reaxff maxiter 400
# Setup neighbor style
neighbor        2 bin
neigh_modify    every 10 delay 0 check no

# Setup output
thermo		${nthermo}
thermo		100
thermo_style custom step temp pe press vol lx ly lz
# thermo_style custom step vol lx ly lz yz xz xy
thermo_modify norm no
# thermo_modify line multi

# Sample pressure (and length vector)
fix avgp all ave/time  ${nevery} ${nrepeat} ${nfreq} c_thermo_press mode vector
fix avgp all ave/time  10 ${nrepeat} ${nfreq} c_thermo_press mode vector
fix avgp all ave/time  10 10 ${nfreq} c_thermo_press mode vector
fix avgp all ave/time  10 10 100 c_thermo_press mode vector
# variable lx equal lx
# variable ly equal ly
# variable lz equal lz
# fix avgl all ave/time  ${nevery} ${nrepeat} ${nfreq} v_lx v_ly v_lz

# nvt
fix fnvt all nvt temp ${temp} ${temp} ${tdamp}
fix fnvt all nvt temp 300 ${temp} ${tdamp}
fix fnvt all nvt temp 300 300 ${tdamp}
fix fnvt all nvt temp 300 300 50
Resetting global fix info from restart file:
  fix style: nvt, fix ID: fnvt


# Save stress, strain to "./stress_strain/stress_strain.neg${dir}.out"
print "# Stress and strain vectors, ${structure}, negative deformation ${dir}"       file stress_strain/stress_strain.neg${dir}.out screen no
print "# Stress and strain vectors, ${structure}, negative deformation ${dir}"       file stress_strain/stress_strain.neg3.out screen no
fix data all print ${nfreq} "${eps} ${sig1} ${sig2} ${sig3} ${sig4} ${sig5} ${sig6}"       append stress_strain/stress_strain.neg${dir}.out screen no       title "# eps sig1 sig2 sig3 sig4 sig5 sig6"
fix data all print 100 "${eps} ${sig1} ${sig2} ${sig3} ${sig4} ${sig5} ${sig6}"       append stress_strain/stress_strain.neg${dir}.out screen no       title "# eps sig1 sig2 sig3 sig4 sig5 sig6"
fix data all print 100 "${eps} ${sig1} ${sig2} ${sig3} ${sig4} ${sig5} ${sig6}"       append stress_strain/stress_strain.neg3.out screen no       title "# eps sig1 sig2 sig3 sig4 sig5 sig6"

# save trajectory
# if "$(is_defined(dump,dump_neg${dir1}))" then "undump dump_neg${dir1}"
dump dump_neg${dir} all custom ${nthermo} dump/neg_deform${dir}.lammpstrj id type q x y z
dump dump_neg3 all custom ${nthermo} dump/neg_deform${dir}.lammpstrj id type q x y z
dump dump_neg3 all custom 100 dump/neg_deform${dir}.lammpstrj id type q x y z
dump dump_neg3 all custom 100 dump/neg_deform3.lammpstrj id type q x y z
# variable dir1 equal ${dir}
run ${nrun}
run 500
All restart file global fix info was re-assigned
Neighbor list info ...
  update: every = 10 steps, delay = 0 steps, check = no
  max neighbors/atom: 2000, page size: 100000
  master list distance cutoff = 12
  ghost atom cutoff = 12
  binsize = 6, bins = 5 3 3
  2 neighbor lists, perpetual/occasional/extra = 2 0 0
  (1) pair reaxff, perpetual
      attributes: half, newton off, ghost
      pair build: half/bin/newtoff/ghost
      stencil: full/ghost/bin/3d
      bin: standard
  (2) fix qeq/reaxff, perpetual, copy from (1)
      attributes: half, newton off
      pair build: copy
      stencil: none
      bin: none
Per MPI rank memory allocation (min/avg/max) = 109.8 | 110.7 | 111.8 Mbytes
   Step          Temp          PotEng         Press          Volume           Lx             Ly             Lz      
         0   340.51122     -31988.881     -4396.9532      3472.1201      16.8189        12.842         16.0755      
       100   279.35811     -32030.339     -11913.515      3465.1759      16.8189        12.842         16.043349    
       200   252.06998     -32034.517     -9255.7672      3458.2317      16.8189        12.842         16.011198    
       300   295.51065     -32050.866     -13624.517      3451.2874      16.8189        12.842         15.979047    
       400   324.27911     -32043.863      2401.0847      3444.3432      16.8189        12.842         15.946896    
       500   328.55814     -32035.376      7191.635       3437.3989      16.8189        12.842         15.914745    
Loop time of 9.0156 on 8 procs for 500 steps with 274 atoms

Performance: 2.396 ns/day, 10.017 hours/ns, 55.459 timesteps/s, 15.196 katom-step/s
98.3% CPU use with 8 MPI tasks x 1 OpenMP threads

MPI task timing breakdown:
Section |  min time  |  avg time  |  max time  |%varavg| %total
---------------------------------------------------------------
Pair    | 6.4564     | 6.7476     | 6.9501     |   6.5 | 74.84
Bond    | 0.00083396 | 0.0008732  | 0.00090744 |   0.0 |  0.01
Neigh   | 0.77102    | 0.78441    | 0.79701    |   1.0 |  8.70
Comm    | 0.1293     | 0.3331     | 0.62575    |  29.7 |  3.69
Output  | 0.0010202  | 0.0011556  | 0.0012662  |   0.2 |  0.01
Modify  | 1.1253     | 1.1394     | 1.1545     |   0.9 | 12.64
Other   |            | 0.009134   |            |       |  0.10

Nlocal:          34.25 ave          40 max          21 min
Histogram: 1 0 0 1 0 0 0 2 2 2
Nghost:        2853.38 ave        2877 max        2824 min
Histogram: 1 0 1 0 2 0 1 0 1 2
Neighs:          19093 ave       22160 max       11921 min
Histogram: 1 0 0 1 0 0 0 2 2 2

Total # of neighbors = 152744
Ave neighs/atom = 557.45985
Ave special neighs/atom = 0
Neighbor list builds = 50
Dangerous builds not checked
unfix deform_n
unfix data
undump dump_neg${dir}
undump dump_neg3

# Compute elastic constant from pressure
# d1 = -[pxx1-pxx0]/[(v_delta/v_len0] defined in input script
# variable C1neg equal ${d1}
# variable C2neg equal ${d2}
# variable C3neg equal ${d3}
# variable C4neg equal ${d4}
# variable C5neg equal ${d5}
# variable C6neg equal ${d6}

# Reset box and simulation parameters
clear
OMP_NUM_THREADS environment is not set. Defaulting to 1 thread. (src/comm.cpp:98)
  using 1 OpenMP thread(s) per MPI task
# box tilt large
read_restart equil.res
Reading restart file ...
  restart file = 2 Aug 2023, LAMMPS = 2 Aug 2023
  restoring atom style full from restart
  triclinic box = (0 0 0) to (16.8189 12.842 16.0755) with tilt (-8.3798 1.195 0.4312)
WARNING: Triclinic box skew is large. LAMMPS will run inefficiently. (src/domain.cpp:220)
  2 by 2 by 2 MPI processor grid
  pair style reaxff stores no restart info
  274 atoms
Finding 1-2 1-3 1-4 neighbors ...
  special bond factors lj:    0        0        0       
  special bond factors coul:  0        0        0       
     0 = max # of 1-2 neighbors
     0 = max # of 1-3 neighbors
     0 = max # of 1-4 neighbors
     1 = max # of special neighbors
  special bonds CPU = 0.000 seconds
  read_restart CPU = 0.002 seconds

# Positive deformation
variable delta equal ${up}*${len0}
variable delta equal 0.01*${len0}
variable delta equal 0.01*16.0755
variable deltaxy equal ${up}*xy
variable deltaxy equal 0.01*xy
variable deltaxz equal ${up}*xz
variable deltaxz equal 0.01*xz
variable deltayz equal ${up}*yz
variable deltayz equal 0.01*yz
if "${dir} == 1" then    "fix deform_p all deform ${nthermo} x delta 0 ${delta} xy delta ${deltaxy} xz delta ${deltaxz} remap v units box"
if "${dir} == 2" then    "fix deform_p all deform ${nthermo} y delta 0 ${delta} yz delta ${deltayz} remap v units box"
if "${dir} == 3" then    "fix deform_p all deform ${nthermo} z delta 0 ${delta} remap v units box"
fix deform_p all deform ${nthermo} z delta 0 ${delta} remap v units box
fix deform_p all deform 100 z delta 0 ${delta} remap v units box
fix deform_p all deform 100 z delta 0 0.160755 remap v units box
if "${dir} == 4" then    "fix deform_p all deform ${nthermo} yz delta ${delta} remap v units box"
if "${dir} == 5" then    "fix deform_p all deform ${nthermo} xz delta ${delta} remap v units box"
if "${dir} == 6" then    "fix deform_p all deform ${nthermo} xy delta ${delta} remap v units box"

# Run deformation MD
print "*****Positive-deform ${dir} starts.*****"
*****Positive-deform 3 starts.*****
include ff.mod.lmp
# Setup forcefield, system
# undefine any fix ave/* fix before using reset_timestep
if "$(is_defined(fix,avgp))" then "unfix avgp"
if "$(is_defined(fix,avgl))" then "unfix avgl"
reset_timestep 0

# Assign the force field
pair_style reaxff NULL safezone 3.0 mincap 150
# pair_coeff * * CHONSSi.ff O Si
# pair_coeff * * CHOSiNa.ff O Si
# pair_coeff * * SiOCHN_2018.ff O Si
# pair_coeff * * PDMSDecomp.ff Si O
pair_coeff * * CHONSi.ff C H O Si
# pair_coeff * * CHOFe.ff O Si

# charge method for reaxff
fix myqeq all qeq/reaxff 1 0.0 10.0 1.0e-6 reaxff maxiter 400
# Setup neighbor style
neighbor        2 bin
neigh_modify    every 10 delay 0 check no

# Setup output
thermo		${nthermo}
thermo		100
thermo_style custom step temp pe press vol lx ly lz
# thermo_style custom step vol lx ly lz yz xz xy
thermo_modify norm no
# thermo_modify line multi

# Sample pressure (and length vector)
fix avgp all ave/time  ${nevery} ${nrepeat} ${nfreq} c_thermo_press mode vector
fix avgp all ave/time  10 ${nrepeat} ${nfreq} c_thermo_press mode vector
fix avgp all ave/time  10 10 ${nfreq} c_thermo_press mode vector
fix avgp all ave/time  10 10 100 c_thermo_press mode vector
# variable lx equal lx
# variable ly equal ly
# variable lz equal lz
# fix avgl all ave/time  ${nevery} ${nrepeat} ${nfreq} v_lx v_ly v_lz

# nvt
fix fnvt all nvt temp ${temp} ${temp} ${tdamp}
fix fnvt all nvt temp 300 ${temp} ${tdamp}
fix fnvt all nvt temp 300 300 ${tdamp}
fix fnvt all nvt temp 300 300 50
Resetting global fix info from restart file:
  fix style: nvt, fix ID: fnvt


# Save stress, strain to "./stress_strain/stress_strain.pos${dir}.out"
print "# Stress and strain vectors, ${structure}, positive deformation ${dir}"       file stress_strain/stress_strain.pos${dir}.out screen no
print "# Stress and strain vectors, ${structure}, positive deformation ${dir}"       file stress_strain/stress_strain.pos3.out screen no
fix data all print ${nfreq} "${eps} ${sig1} ${sig2} ${sig3} ${sig4} ${sig5} ${sig6}"       append stress_strain/stress_strain.pos${dir}.out screen no       title "# eps sig1 sig2 sig3 sig4 sig5 sig6"
fix data all print 100 "${eps} ${sig1} ${sig2} ${sig3} ${sig4} ${sig5} ${sig6}"       append stress_strain/stress_strain.pos${dir}.out screen no       title "# eps sig1 sig2 sig3 sig4 sig5 sig6"
fix data all print 100 "${eps} ${sig1} ${sig2} ${sig3} ${sig4} ${sig5} ${sig6}"       append stress_strain/stress_strain.pos3.out screen no       title "# eps sig1 sig2 sig3 sig4 sig5 sig6"

# save trajectory
# if "$(is_defined(dump,dump_pos${dir1}))" then "undump dump_pos${dir1}"
dump dump_pos${dir} all custom ${nthermo} dump/pos_deform${dir}.lammpstrj id type q x y z
dump dump_pos3 all custom ${nthermo} dump/pos_deform${dir}.lammpstrj id type q x y z
dump dump_pos3 all custom 100 dump/pos_deform${dir}.lammpstrj id type q x y z
dump dump_pos3 all custom 100 dump/pos_deform3.lammpstrj id type q x y z
run ${nrun}
run 500
All restart file global fix info was re-assigned
Neighbor list info ...
  update: every = 10 steps, delay = 0 steps, check = no
  max neighbors/atom: 2000, page size: 100000
  master list distance cutoff = 12
  ghost atom cutoff = 12
  binsize = 6, bins = 5 3 3
  2 neighbor lists, perpetual/occasional/extra = 2 0 0
  (1) pair reaxff, perpetual
      attributes: half, newton off, ghost
      pair build: half/bin/newtoff/ghost
      stencil: full/ghost/bin/3d
      bin: standard
  (2) fix qeq/reaxff, perpetual, copy from (1)
      attributes: half, newton off
      pair build: copy
      stencil: none
      bin: none
Per MPI rank memory allocation (min/avg/max) = 109.8 | 110.7 | 111.8 Mbytes
   Step          Temp          PotEng         Press          Volume           Lx             Ly             Lz      
         0   340.51122     -31988.881     -4396.9532      3472.1201      16.8189        12.842         16.0755      
       100   277.79597     -32029.6       -12148.442      3479.0644      16.8189        12.842         16.107651    
       200   255.51648     -32039.003     -20742.999      3486.0086      16.8189        12.842         16.139802    
       300   310.94052     -32064.779     -10856.072      3492.9529      16.8189        12.842         16.171953    
       400   326.09979     -32045.199      4011.5636      3499.8971      16.8189        12.842         16.204104    
       500   322.98534     -32031.502      225.91268      3506.8413      16.8189        12.842         16.236255    
Loop time of 8.87272 on 8 procs for 500 steps with 274 atoms

Performance: 2.434 ns/day, 9.859 hours/ns, 56.352 timesteps/s, 15.441 katom-step/s
98.3% CPU use with 8 MPI tasks x 1 OpenMP threads

MPI task timing breakdown:
Section |  min time  |  avg time  |  max time  |%varavg| %total
---------------------------------------------------------------
Pair    | 6.3735     | 6.6269     | 6.8527     |   6.8 | 74.69
Bond    | 0.00084263 | 0.0008662  | 0.00090891 |   0.0 |  0.01
Neigh   | 0.76214    | 0.7769     | 0.79344    |   1.2 |  8.76
Comm    | 0.11234    | 0.33842    | 0.59223    |  30.1 |  3.81
Output  | 0.00098308 | 0.0011185  | 0.0012222  |   0.2 |  0.01
Modify  | 1.1023     | 1.1194     | 1.1349     |   1.0 | 12.62
Other   |            | 0.00913    |            |       |  0.10

Nlocal:          34.25 ave          40 max          20 min
Histogram: 1 0 0 0 1 0 0 0 4 2
Nghost:        2810.38 ave        2838 max        2791 min
Histogram: 1 2 0 1 1 1 1 0 0 1
Neighs:        18774.9 ave       21869 max       11212 min
Histogram: 1 0 0 0 1 0 0 2 2 2

Total # of neighbors = 150199
Ave neighs/atom = 548.17153
Ave special neighs/atom = 0
Neighbor list builds = 50
Dangerous builds not checked
unfix deform_p
unfix data
undump dump_pos${dir}
undump dump_pos3

# # Combine positive and negative
# variable C1${dir} equal 0.5*(${C1neg}+${C1pos})
# variable C2${dir} equal 0.5*(${C2neg}+${C2pos})
# variable C3${dir} equal 0.5*(${C3neg}+${C3pos})
# variable C4${dir} equal 0.5*(${C4neg}+${C4pos})
# variable C5${dir} equal 0.5*(${C5neg}+${C5pos})
# variable C6${dir} equal 0.5*(${C6neg}+${C6pos})

# Delete dir to make sure it is not reused
variable dir delete
# uyz Perturbation
variable dir equal 4
include displace.mod.lmp
# # Find which reference length to use
# if "${dir} == 1" then #    "variable len0 equal ${lx0}"
# if "${dir} == 2" then #    "variable len0 equal ${ly0}"
# if "${dir} == 3" then #    "variable len0 equal ${lz0}"
# if "${dir} == 4" then #    "variable len0 equal ${lz0}"
# if "${dir} == 5" then #    "variable len0 equal ${lz0}"
# if "${dir} == 6" then #    "variable len0 equal ${ly0}"

# Find which length (epsilon) to calculate
if "${dir} == 1" then    "variable len0 equal ${lx0}"    "variable dlen equal lx-${len0}"
if "${dir} == 2" then    "variable len0 equal ${ly0}"    "variable dlen equal ly-${len0}"
if "${dir} == 3" then    "variable len0 equal ${lz0}"    "variable dlen equal lz-${len0}"
if "${dir} == 4" then    "variable len0 equal ${lx0}"    "variable dlen equal 2*(yz-${yz0})"
variable len0 equal ${lx0}
variable len0 equal 16.8189
variable dlen equal 2*(yz-${yz0})
variable dlen equal 2*(yz-0.4312)
if "${dir} == 5" then    "variable len0 equal ${ly0}"    "variable dlen equal 2*(xz-${xz0})"
if "${dir} == 6" then    "variable len0 equal ${lz0}"    "variable dlen equal 2*(xy-${xy0})"

# strain vector (epsilon)
variable eps equal v_dlen/v_len0

# stress vector (sigma)
variable sig1 equal -f_avgp[1]*${ufac}
variable sig1 equal -f_avgp[1]*0.000101325
variable sig2 equal -f_avgp[2]*${ufac}
variable sig2 equal -f_avgp[2]*0.000101325
variable sig3 equal -f_avgp[3]*${ufac}
variable sig3 equal -f_avgp[3]*0.000101325
variable sig4 equal -f_avgp[6]*${ufac}
variable sig4 equal -f_avgp[6]*0.000101325
variable sig5 equal -f_avgp[5]*${ufac}
variable sig5 equal -f_avgp[5]*0.000101325
variable sig6 equal -f_avgp[4]*${ufac}
variable sig6 equal -f_avgp[4]*0.000101325

# Reset box and simulation parameters
clear
OMP_NUM_THREADS environment is not set. Defaulting to 1 thread. (src/comm.cpp:98)
  using 1 OpenMP thread(s) per MPI task
# box tilt large
read_restart equil.res
Reading restart file ...
  restart file = 2 Aug 2023, LAMMPS = 2 Aug 2023
  restoring atom style full from restart
  triclinic box = (0 0 0) to (16.8189 12.842 16.0755) with tilt (-8.3798 1.195 0.4312)
WARNING: Triclinic box skew is large. LAMMPS will run inefficiently. (src/domain.cpp:220)
  2 by 2 by 2 MPI processor grid
  pair style reaxff stores no restart info
  274 atoms
Finding 1-2 1-3 1-4 neighbors ...
  special bond factors lj:    0        0        0       
  special bond factors coul:  0        0        0       
     0 = max # of 1-2 neighbors
     0 = max # of 1-3 neighbors
     0 = max # of 1-4 neighbors
     1 = max # of special neighbors
  special bonds CPU = 0.000 seconds
  read_restart CPU = 0.002 seconds

# Negative deformation
variable delta equal -${up}*${len0}
variable delta equal -0.01*${len0}
variable delta equal -0.01*16.8189
variable deltaxy equal -${up}*xy
variable deltaxy equal -0.01*xy
variable deltaxz equal -${up}*xz
variable deltaxz equal -0.01*xz
variable deltayz equal -${up}*yz
variable deltayz equal -0.01*yz
print "*****debug*****"
*****debug*****
print "xy = $(xy), deltaxy = ${deltaxy}"
xy = -8.3797999999999994714, deltaxy = 0.083798
print "xz = $(xz), deltaxz = ${deltaxz}"
xz = 1.1950000000000000622, deltaxz = -0.01195
print "yz = $(yz), deltayz = ${deltayz}"
yz = 0.43120000000000002771, deltayz = -0.004312
print "*****"
*****

if "${dir} == 1" then    "fix deform_n all deform ${nthermo} x delta 0 ${delta} xy delta ${deltaxy} xz delta ${deltaxz} remap v units box flip no"
if "${dir} == 2" then    "fix deform_n all deform ${nthermo} y delta 0 ${delta} yz delta ${deltayz} remap v units box flip no"
if "${dir} == 3" then    "fix deform_n all deform ${nthermo} z delta 0 ${delta} remap v units box flip no"
if "${dir} == 4" then    "fix deform_n all deform ${nthermo} yz delta ${delta} remap v units box flip no"
fix deform_n all deform ${nthermo} yz delta ${delta} remap v units box flip no
fix deform_n all deform 100 yz delta ${delta} remap v units box flip no
fix deform_n all deform 100 yz delta -0.168189 remap v units box flip no
if "${dir} == 5" then    "fix deform_n all deform ${nthermo} xz delta ${delta} remap v units box flip no"
if "${dir} == 6" then    "fix deform_n all deform ${nthermo} xy delta ${delta} remap v units box flip no"

# Run MD for Negative deformation
print "*****Negative-deform ${dir} starts.*****"
*****Negative-deform 4 starts.*****
include ff.mod.lmp
# Setup forcefield, system
# undefine any fix ave/* fix before using reset_timestep
if "$(is_defined(fix,avgp))" then "unfix avgp"
if "$(is_defined(fix,avgl))" then "unfix avgl"
reset_timestep 0

# Assign the force field
pair_style reaxff NULL safezone 3.0 mincap 150
# pair_coeff * * CHONSSi.ff O Si
# pair_coeff * * CHOSiNa.ff O Si
# pair_coeff * * SiOCHN_2018.ff O Si
# pair_coeff * * PDMSDecomp.ff Si O
pair_coeff * * CHONSi.ff C H O Si
# pair_coeff * * CHOFe.ff O Si

# charge method for reaxff
fix myqeq all qeq/reaxff 1 0.0 10.0 1.0e-6 reaxff maxiter 400
# Setup neighbor style
neighbor        2 bin
neigh_modify    every 10 delay 0 check no

# Setup output
thermo		${nthermo}
thermo		100
thermo_style custom step temp pe press vol lx ly lz
# thermo_style custom step vol lx ly lz yz xz xy
thermo_modify norm no
# thermo_modify line multi

# Sample pressure (and length vector)
fix avgp all ave/time  ${nevery} ${nrepeat} ${nfreq} c_thermo_press mode vector
fix avgp all ave/time  10 ${nrepeat} ${nfreq} c_thermo_press mode vector
fix avgp all ave/time  10 10 ${nfreq} c_thermo_press mode vector
fix avgp all ave/time  10 10 100 c_thermo_press mode vector
# variable lx equal lx
# variable ly equal ly
# variable lz equal lz
# fix avgl all ave/time  ${nevery} ${nrepeat} ${nfreq} v_lx v_ly v_lz

# nvt
fix fnvt all nvt temp ${temp} ${temp} ${tdamp}
fix fnvt all nvt temp 300 ${temp} ${tdamp}
fix fnvt all nvt temp 300 300 ${tdamp}
fix fnvt all nvt temp 300 300 50
Resetting global fix info from restart file:
  fix style: nvt, fix ID: fnvt


# Save stress, strain to "./stress_strain/stress_strain.neg${dir}.out"
print "# Stress and strain vectors, ${structure}, negative deformation ${dir}"       file stress_strain/stress_strain.neg${dir}.out screen no
print "# Stress and strain vectors, ${structure}, negative deformation ${dir}"       file stress_strain/stress_strain.neg4.out screen no
fix data all print ${nfreq} "${eps} ${sig1} ${sig2} ${sig3} ${sig4} ${sig5} ${sig6}"       append stress_strain/stress_strain.neg${dir}.out screen no       title "# eps sig1 sig2 sig3 sig4 sig5 sig6"
fix data all print 100 "${eps} ${sig1} ${sig2} ${sig3} ${sig4} ${sig5} ${sig6}"       append stress_strain/stress_strain.neg${dir}.out screen no       title "# eps sig1 sig2 sig3 sig4 sig5 sig6"
fix data all print 100 "${eps} ${sig1} ${sig2} ${sig3} ${sig4} ${sig5} ${sig6}"       append stress_strain/stress_strain.neg4.out screen no       title "# eps sig1 sig2 sig3 sig4 sig5 sig6"

# save trajectory
# if "$(is_defined(dump,dump_neg${dir1}))" then "undump dump_neg${dir1}"
dump dump_neg${dir} all custom ${nthermo} dump/neg_deform${dir}.lammpstrj id type q x y z
dump dump_neg4 all custom ${nthermo} dump/neg_deform${dir}.lammpstrj id type q x y z
dump dump_neg4 all custom 100 dump/neg_deform${dir}.lammpstrj id type q x y z
dump dump_neg4 all custom 100 dump/neg_deform4.lammpstrj id type q x y z
# variable dir1 equal ${dir}
run ${nrun}
run 500
All restart file global fix info was re-assigned
Neighbor list info ...
  update: every = 10 steps, delay = 0 steps, check = no
  max neighbors/atom: 2000, page size: 100000
  master list distance cutoff = 12
  ghost atom cutoff = 12
  binsize = 6, bins = 5 3 3
  2 neighbor lists, perpetual/occasional/extra = 2 0 0
  (1) pair reaxff, perpetual
      attributes: half, newton off, ghost
      pair build: half/bin/newtoff/ghost
      stencil: full/ghost/bin/3d
      bin: standard
  (2) fix qeq/reaxff, perpetual, copy from (1)
      attributes: half, newton off
      pair build: copy
      stencil: none
      bin: none
Per MPI rank memory allocation (min/avg/max) = 109.8 | 110.7 | 111.8 Mbytes
   Step          Temp          PotEng         Press          Volume           Lx             Ly             Lz      
         0   340.51122     -31988.881     -4396.9532      3472.1201      16.8189        12.842         16.0755      
       100   277.69012     -32029.38      -11908.502      3472.1201      16.8189        12.842         16.0755      
       200   248.85538     -32035.461     -19641.725      3472.1201      16.8189        12.842         16.0755      
       300   304.21209     -32059.588     -11157.229      3472.1201      16.8189        12.842         16.0755      
       400   327.06805     -32047.178      6389.8022      3472.1201      16.8189        12.842         16.0755      
       500   316.84713     -32031.583     -4864.1243      3472.1201      16.8189        12.842         16.0755      
Loop time of 8.90586 on 8 procs for 500 steps with 274 atoms

Performance: 2.425 ns/day, 9.895 hours/ns, 56.143 timesteps/s, 15.383 katom-step/s
98.2% CPU use with 8 MPI tasks x 1 OpenMP threads

MPI task timing breakdown:
Section |  min time  |  avg time  |  max time  |%varavg| %total
---------------------------------------------------------------
Pair    | 6.4114     | 6.6674     | 6.8675     |   6.6 | 74.87
Bond    | 0.00083077 | 0.00086988 | 0.00090598 |   0.0 |  0.01
Neigh   | 0.75906    | 0.77941    | 0.79782    |   1.4 |  8.75
Comm    | 0.12729    | 0.32812    | 0.58503    |  29.7 |  3.68
Output  | 0.0010346  | 0.0011652  | 0.0012842  |   0.2 |  0.01
Modify  | 1.1004     | 1.1197     | 1.1411     |   1.2 | 12.57
Other   |            | 0.009119   |            |       |  0.10

Nlocal:          34.25 ave          40 max          22 min
Histogram: 1 0 0 1 0 0 0 3 2 1
Nghost:         2813.5 ave        2840 max        2800 min
Histogram: 2 1 1 1 2 0 0 0 0 1
Neighs:        18931.8 ave       22029 max       12430 min
Histogram: 1 0 0 1 0 0 0 3 2 1

Total # of neighbors = 151454
Ave neighs/atom = 552.75182
Ave special neighs/atom = 0
Neighbor list builds = 50
Dangerous builds not checked
unfix deform_n
unfix data
undump dump_neg${dir}
undump dump_neg4

# Compute elastic constant from pressure
# d1 = -[pxx1-pxx0]/[(v_delta/v_len0] defined in input script
# variable C1neg equal ${d1}
# variable C2neg equal ${d2}
# variable C3neg equal ${d3}
# variable C4neg equal ${d4}
# variable C5neg equal ${d5}
# variable C6neg equal ${d6}

# Reset box and simulation parameters
clear
OMP_NUM_THREADS environment is not set. Defaulting to 1 thread. (src/comm.cpp:98)
  using 1 OpenMP thread(s) per MPI task
# box tilt large
read_restart equil.res
Reading restart file ...
  restart file = 2 Aug 2023, LAMMPS = 2 Aug 2023
  restoring atom style full from restart
  triclinic box = (0 0 0) to (16.8189 12.842 16.0755) with tilt (-8.3798 1.195 0.4312)
WARNING: Triclinic box skew is large. LAMMPS will run inefficiently. (src/domain.cpp:220)
  2 by 2 by 2 MPI processor grid
  pair style reaxff stores no restart info
  274 atoms
Finding 1-2 1-3 1-4 neighbors ...
  special bond factors lj:    0        0        0       
  special bond factors coul:  0        0        0       
     0 = max # of 1-2 neighbors
     0 = max # of 1-3 neighbors
     0 = max # of 1-4 neighbors
     1 = max # of special neighbors
  special bonds CPU = 0.000 seconds
  read_restart CPU = 0.002 seconds

# Positive deformation
variable delta equal ${up}*${len0}
variable delta equal 0.01*${len0}
variable delta equal 0.01*16.8189
variable deltaxy equal ${up}*xy
variable deltaxy equal 0.01*xy
variable deltaxz equal ${up}*xz
variable deltaxz equal 0.01*xz
variable deltayz equal ${up}*yz
variable deltayz equal 0.01*yz
if "${dir} == 1" then    "fix deform_p all deform ${nthermo} x delta 0 ${delta} xy delta ${deltaxy} xz delta ${deltaxz} remap v units box"
if "${dir} == 2" then    "fix deform_p all deform ${nthermo} y delta 0 ${delta} yz delta ${deltayz} remap v units box"
if "${dir} == 3" then    "fix deform_p all deform ${nthermo} z delta 0 ${delta} remap v units box"
if "${dir} == 4" then    "fix deform_p all deform ${nthermo} yz delta ${delta} remap v units box"
fix deform_p all deform ${nthermo} yz delta ${delta} remap v units box
[...]
Comm    | 0.12434    | 0.31543    | 0.59454    |  30.3 |  3.55
Output  | 0.0010308  | 0.0011565  | 0.0012713  |   0.2 |  0.01
Modify  | 1.0995     | 1.1194     | 1.1357     |   1.1 | 12.60
Other   |            | 0.009214   |            |       |  0.10

Nlocal:          34.25 ave          40 max          22 min
Histogram: 1 0 0 1 0 0 0 2 2 2
Nghost:        2830.75 ave        2854 max        2804 min
Histogram: 1 1 1 0 0 2 0 0 0 3
Neighs:          18933 ave       22072 max       12413 min
Histogram: 1 0 0 1 0 0 0 2 2 2

Total # of neighbors = 151464
Ave neighs/atom = 552.78832
Ave special neighs/atom = 0
Neighbor list builds = 50
Dangerous builds not checked
unfix deform_p
unfix data
undump dump_pos${dir}
undump dump_pos5

# # Combine positive and negative
# variable C1${dir} equal 0.5*(${C1neg}+${C1pos})
# variable C2${dir} equal 0.5*(${C2neg}+${C2pos})
# variable C3${dir} equal 0.5*(${C3neg}+${C3pos})
# variable C4${dir} equal 0.5*(${C4neg}+${C4pos})
# variable C5${dir} equal 0.5*(${C5neg}+${C5pos})
# variable C6${dir} equal 0.5*(${C6neg}+${C6pos})

# Delete dir to make sure it is not reused
variable dir delete
# uxy Perturbation
variable dir equal 6
include displace.mod.lmp
# # Find which reference length to use
# if "${dir} == 1" then #    "variable len0 equal ${lx0}"
# if "${dir} == 2" then #    "variable len0 equal ${ly0}"
# if "${dir} == 3" then #    "variable len0 equal ${lz0}"
# if "${dir} == 4" then #    "variable len0 equal ${lz0}"
# if "${dir} == 5" then #    "variable len0 equal ${lz0}"
# if "${dir} == 6" then #    "variable len0 equal ${ly0}"

# Find which length (epsilon) to calculate
if "${dir} == 1" then    "variable len0 equal ${lx0}"    "variable dlen equal lx-${len0}"
if "${dir} == 2" then    "variable len0 equal ${ly0}"    "variable dlen equal ly-${len0}"
if "${dir} == 3" then    "variable len0 equal ${lz0}"    "variable dlen equal lz-${len0}"
if "${dir} == 4" then    "variable len0 equal ${lx0}"    "variable dlen equal 2*(yz-${yz0})"
if "${dir} == 5" then    "variable len0 equal ${ly0}"    "variable dlen equal 2*(xz-${xz0})"
if "${dir} == 6" then    "variable len0 equal ${lz0}"    "variable dlen equal 2*(xy-${xy0})"
variable len0 equal ${lz0}
variable len0 equal 16.0755
variable dlen equal 2*(xy-${xy0})
variable dlen equal 2*(xy--8.3798)

# strain vector (epsilon)
variable eps equal v_dlen/v_len0

# stress vector (sigma)
variable sig1 equal -f_avgp[1]*${ufac}
variable sig1 equal -f_avgp[1]*0.000101325
variable sig2 equal -f_avgp[2]*${ufac}
variable sig2 equal -f_avgp[2]*0.000101325
variable sig3 equal -f_avgp[3]*${ufac}
variable sig3 equal -f_avgp[3]*0.000101325
variable sig4 equal -f_avgp[6]*${ufac}
variable sig4 equal -f_avgp[6]*0.000101325
variable sig5 equal -f_avgp[5]*${ufac}
variable sig5 equal -f_avgp[5]*0.000101325
variable sig6 equal -f_avgp[4]*${ufac}
variable sig6 equal -f_avgp[4]*0.000101325

# Reset box and simulation parameters
clear
OMP_NUM_THREADS environment is not set. Defaulting to 1 thread. (src/comm.cpp:98)
  using 1 OpenMP thread(s) per MPI task
# box tilt large
read_restart equil.res
Reading restart file ...
  restart file = 2 Aug 2023, LAMMPS = 2 Aug 2023
  restoring atom style full from restart
  triclinic box = (0 0 0) to (16.8189 12.842 16.0755) with tilt (-8.3798 1.195 0.4312)
WARNING: Triclinic box skew is large. LAMMPS will run inefficiently. (src/domain.cpp:220)
  2 by 2 by 2 MPI processor grid
  pair style reaxff stores no restart info
  274 atoms
Finding 1-2 1-3 1-4 neighbors ...
  special bond factors lj:    0        0        0       
  special bond factors coul:  0        0        0       
     0 = max # of 1-2 neighbors
     0 = max # of 1-3 neighbors
     0 = max # of 1-4 neighbors
     1 = max # of special neighbors
  special bonds CPU = 0.000 seconds
  read_restart CPU = 0.001 seconds

# Negative deformation
variable delta equal -${up}*${len0}
variable delta equal -0.01*${len0}
variable delta equal -0.01*16.0755
variable deltaxy equal -${up}*xy
variable deltaxy equal -0.01*xy
variable deltaxz equal -${up}*xz
variable deltaxz equal -0.01*xz
variable deltayz equal -${up}*yz
variable deltayz equal -0.01*yz
print "*****debug*****"
*****debug*****
print "xy = $(xy), deltaxy = ${deltaxy}"
xy = -8.3797999999999994714, deltaxy = 0.083798
print "xz = $(xz), deltaxz = ${deltaxz}"
xz = 1.1950000000000000622, deltaxz = -0.01195
print "yz = $(yz), deltayz = ${deltayz}"
yz = 0.43120000000000002771, deltayz = -0.004312
print "*****"
*****

if "${dir} == 1" then    "fix deform_n all deform ${nthermo} x delta 0 ${delta} xy delta ${deltaxy} xz delta ${deltaxz} remap v units box flip no"
if "${dir} == 2" then    "fix deform_n all deform ${nthermo} y delta 0 ${delta} yz delta ${deltayz} remap v units box flip no"
if "${dir} == 3" then    "fix deform_n all deform ${nthermo} z delta 0 ${delta} remap v units box flip no"
if "${dir} == 4" then    "fix deform_n all deform ${nthermo} yz delta ${delta} remap v units box flip no"
if "${dir} == 5" then    "fix deform_n all deform ${nthermo} xz delta ${delta} remap v units box flip no"
if "${dir} == 6" then    "fix deform_n all deform ${nthermo} xy delta ${delta} remap v units box flip no"
fix deform_n all deform ${nthermo} xy delta ${delta} remap v units box flip no
fix deform_n all deform 100 xy delta ${delta} remap v units box flip no
fix deform_n all deform 100 xy delta -0.160755 remap v units box flip no

# Run MD for Negative deformation
print "*****Negative-deform ${dir} starts.*****"
*****Negative-deform 6 starts.*****
include ff.mod.lmp
# Setup forcefield, system
# undefine any fix ave/* fix before using reset_timestep
if "$(is_defined(fix,avgp))" then "unfix avgp"
if "$(is_defined(fix,avgl))" then "unfix avgl"
reset_timestep 0

# Assign the force field
pair_style reaxff NULL safezone 3.0 mincap 150
# pair_coeff * * CHONSSi.ff O Si
# pair_coeff * * CHOSiNa.ff O Si
# pair_coeff * * SiOCHN_2018.ff O Si
# pair_coeff * * PDMSDecomp.ff Si O
pair_coeff * * CHONSi.ff C H O Si
# pair_coeff * * CHOFe.ff O Si

# charge method for reaxff
fix myqeq all qeq/reaxff 1 0.0 10.0 1.0e-6 reaxff maxiter 400
# Setup neighbor style
neighbor        2 bin
neigh_modify    every 10 delay 0 check no

# Setup output
thermo		${nthermo}
thermo		100
thermo_style custom step temp pe press vol lx ly lz
# thermo_style custom step vol lx ly lz yz xz xy
thermo_modify norm no
# thermo_modify line multi

# Sample pressure (and length vector)
fix avgp all ave/time  ${nevery} ${nrepeat} ${nfreq} c_thermo_press mode vector
fix avgp all ave/time  10 ${nrepeat} ${nfreq} c_thermo_press mode vector
fix avgp all ave/time  10 10 ${nfreq} c_thermo_press mode vector
fix avgp all ave/time  10 10 100 c_thermo_press mode vector
# variable lx equal lx
# variable ly equal ly
# variable lz equal lz
# fix avgl all ave/time  ${nevery} ${nrepeat} ${nfreq} v_lx v_ly v_lz

# nvt
fix fnvt all nvt temp ${temp} ${temp} ${tdamp}
fix fnvt all nvt temp 300 ${temp} ${tdamp}
fix fnvt all nvt temp 300 300 ${tdamp}
fix fnvt all nvt temp 300 300 50
Resetting global fix info from restart file:
  fix style: nvt, fix ID: fnvt


# Save stress, strain to "./stress_strain/stress_strain.neg${dir}.out"
print "# Stress and strain vectors, ${structure}, negative deformation ${dir}"       file stress_strain/stress_strain.neg${dir}.out screen no
print "# Stress and strain vectors, ${structure}, negative deformation ${dir}"       file stress_strain/stress_strain.neg6.out screen no
fix data all print ${nfreq} "${eps} ${sig1} ${sig2} ${sig3} ${sig4} ${sig5} ${sig6}"       append stress_strain/stress_strain.neg${dir}.out screen no       title "# eps sig1 sig2 sig3 sig4 sig5 sig6"
fix data all print 100 "${eps} ${sig1} ${sig2} ${sig3} ${sig4} ${sig5} ${sig6}"       append stress_strain/stress_strain.neg${dir}.out screen no       title "# eps sig1 sig2 sig3 sig4 sig5 sig6"
fix data all print 100 "${eps} ${sig1} ${sig2} ${sig3} ${sig4} ${sig5} ${sig6}"       append stress_strain/stress_strain.neg6.out screen no       title "# eps sig1 sig2 sig3 sig4 sig5 sig6"

# save trajectory
# if "$(is_defined(dump,dump_neg${dir1}))" then "undump dump_neg${dir1}"
dump dump_neg${dir} all custom ${nthermo} dump/neg_deform${dir}.lammpstrj id type q x y z
dump dump_neg6 all custom ${nthermo} dump/neg_deform${dir}.lammpstrj id type q x y z
dump dump_neg6 all custom 100 dump/neg_deform${dir}.lammpstrj id type q x y z
dump dump_neg6 all custom 100 dump/neg_deform6.lammpstrj id type q x y z
# variable dir1 equal ${dir}
run ${nrun}
run 500
All restart file global fix info was re-assigned
Neighbor list info ...
  update: every = 10 steps, delay = 0 steps, check = no
  max neighbors/atom: 2000, page size: 100000
  master list distance cutoff = 12
  ghost atom cutoff = 12
  binsize = 6, bins = 5 3 3
  2 neighbor lists, perpetual/occasional/extra = 2 0 0
  (1) pair reaxff, perpetual
      attributes: half, newton off, ghost
      pair build: half/bin/newtoff/ghost
      stencil: full/ghost/bin/3d
      bin: standard
  (2) fix qeq/reaxff, perpetual, copy from (1)
      attributes: half, newton off
      pair build: copy
      stencil: none
      bin: none
Per MPI rank memory allocation (min/avg/max) = 109.8 | 110.7 | 111.8 Mbytes
   Step          Temp          PotEng         Press          Volume           Lx             Ly             Lz      
         0   340.51122     -31988.881     -4396.9532      3472.1201      16.8189        12.842         16.0755      
       100   278.68916     -32030.233     -11993.201      3472.1201      16.8189        12.842         16.0755      
       200   250.14948     -32036.702     -14441.267      3472.1201      16.8189        12.842         16.0755      
       300   304.42699     -32057.46      -9593.8723      3472.1201      16.8189        12.842         16.0755      
       400   310.40313     -32025.268      1262.6217      3472.1201      16.8189        12.842         16.0755      
       500   313.96956     -32014.471     -1659.4023      3472.1201      16.8189        12.842         16.0755      
Loop time of 8.88372 on 8 procs for 500 steps with 274 atoms

Performance: 2.431 ns/day, 9.871 hours/ns, 56.283 timesteps/s, 15.421 katom-step/s
98.5% CPU use with 8 MPI tasks x 1 OpenMP threads

MPI task timing breakdown:
Section |  min time  |  avg time  |  max time  |%varavg| %total
---------------------------------------------------------------
Pair    | 6.3899     | 6.65       | 6.8486     |   6.3 | 74.86
Bond    | 0.00084537 | 0.00088029 | 0.00094277 |   0.0 |  0.01
Neigh   | 0.76266    | 0.78301    | 0.79699    |   1.3 |  8.81
Comm    | 0.11318    | 0.31363    | 0.57582    |  29.4 |  3.53
Output  | 0.0009826  | 0.001122   | 0.0012278  |   0.3 |  0.01
Modify  | 1.11       | 1.1261     | 1.1486     |   1.2 | 12.68
Other   |            | 0.009023   |            |       |  0.10

Nlocal:          34.25 ave          40 max          20 min
Histogram: 1 0 0 0 0 1 0 1 2 3
Nghost:        2823.75 ave        2860 max        2801 min
Histogram: 3 1 0 0 0 2 1 0 0 1
Neighs:        18923.6 ave       22070 max       11290 min
Histogram: 1 0 0 0 0 1 1 1 2 2

Total # of neighbors = 151389
Ave neighs/atom = 552.5146
Ave special neighs/atom = 0
Neighbor list builds = 50
Dangerous builds not checked
unfix deform_n
unfix data
undump dump_neg${dir}
undump dump_neg6

# Compute elastic constant from pressure
# d1 = -[pxx1-pxx0]/[(v_delta/v_len0] defined in input script
# variable C1neg equal ${d1}
# variable C2neg equal ${d2}
# variable C3neg equal ${d3}
# variable C4neg equal ${d4}
# variable C5neg equal ${d5}
# variable C6neg equal ${d6}

# Reset box and simulation parameters
clear
OMP_NUM_THREADS environment is not set. Defaulting to 1 thread. (src/comm.cpp:98)
  using 1 OpenMP thread(s) per MPI task
# box tilt large
read_restart equil.res
Reading restart file ...
  restart file = 2 Aug 2023, LAMMPS = 2 Aug 2023
  restoring atom style full from restart
  triclinic box = (0 0 0) to (16.8189 12.842 16.0755) with tilt (-8.3798 1.195 0.4312)
WARNING: Triclinic box skew is large. LAMMPS will run inefficiently. (src/domain.cpp:220)
  2 by 2 by 2 MPI processor grid
  pair style reaxff stores no restart info
  274 atoms
Finding 1-2 1-3 1-4 neighbors ...
  special bond factors lj:    0        0        0       
  special bond factors coul:  0        0        0       
     0 = max # of 1-2 neighbors
     0 = max # of 1-3 neighbors
     0 = max # of 1-4 neighbors
     1 = max # of special neighbors
  special bonds CPU = 0.000 seconds
  read_restart CPU = 0.002 seconds

# Positive deformation
variable delta equal ${up}*${len0}
variable delta equal 0.01*${len0}
variable delta equal 0.01*16.0755
variable deltaxy equal ${up}*xy
variable deltaxy equal 0.01*xy
variable deltaxz equal ${up}*xz
variable deltaxz equal 0.01*xz
variable deltayz equal ${up}*yz
variable deltayz equal 0.01*yz
if "${dir} == 1" then    "fix deform_p all deform ${nthermo} x delta 0 ${delta} xy delta ${deltaxy} xz delta ${deltaxz} remap v units box"
if "${dir} == 2" then    "fix deform_p all deform ${nthermo} y delta 0 ${delta} yz delta ${deltayz} remap v units box"
if "${dir} == 3" then    "fix deform_p all deform ${nthermo} z delta 0 ${delta} remap v units box"
if "${dir} == 4" then    "fix deform_p all deform ${nthermo} yz delta ${delta} remap v units box"
if "${dir} == 5" then    "fix deform_p all deform ${nthermo} xz delta ${delta} remap v units box"
if "${dir} == 6" then    "fix deform_p all deform ${nthermo} xy delta ${delta} remap v units box"
fix deform_p all deform ${nthermo} xy delta ${delta} remap v units box
fix deform_p all deform 100 xy delta ${delta} remap v units box
fix deform_p all deform 100 xy delta 0.160755 remap v units box

# Run deformation MD
print "*****Positive-deform ${dir} starts.*****"
*****Positive-deform 6 starts.*****
include ff.mod.lmp
# Setup forcefield, system
# undefine any fix ave/* fix before using reset_timestep
if "$(is_defined(fix,avgp))" then "unfix avgp"
if "$(is_defined(fix,avgl))" then "unfix avgl"
reset_timestep 0

# Assign the force field
pair_style reaxff NULL safezone 3.0 mincap 150
# pair_coeff * * CHONSSi.ff O Si
# pair_coeff * * CHOSiNa.ff O Si
# pair_coeff * * SiOCHN_2018.ff O Si
# pair_coeff * * PDMSDecomp.ff Si O
pair_coeff * * CHONSi.ff C H O Si
# pair_coeff * * CHOFe.ff O Si

# charge method for reaxff
fix myqeq all qeq/reaxff 1 0.0 10.0 1.0e-6 reaxff maxiter 400
# Setup neighbor style
neighbor        2 bin
neigh_modify    every 10 delay 0 check no

# Setup output
thermo		${nthermo}
thermo		100
thermo_style custom step temp pe press vol lx ly lz
# thermo_style custom step vol lx ly lz yz xz xy
thermo_modify norm no
# thermo_modify line multi

# Sample pressure (and length vector)
fix avgp all ave/time  ${nevery} ${nrepeat} ${nfreq} c_thermo_press mode vector
fix avgp all ave/time  10 ${nrepeat} ${nfreq} c_thermo_press mode vector
fix avgp all ave/time  10 10 ${nfreq} c_thermo_press mode vector
fix avgp all ave/time  10 10 100 c_thermo_press mode vector
# variable lx equal lx
# variable ly equal ly
# variable lz equal lz
# fix avgl all ave/time  ${nevery} ${nrepeat} ${nfreq} v_lx v_ly v_lz

# nvt
fix fnvt all nvt temp ${temp} ${temp} ${tdamp}
fix fnvt all nvt temp 300 ${temp} ${tdamp}
fix fnvt all nvt temp 300 300 ${tdamp}
fix fnvt all nvt temp 300 300 50
Resetting global fix info from restart file:
  fix style: nvt, fix ID: fnvt


# Save stress, strain to "./stress_strain/stress_strain.pos${dir}.out"
print "# Stress and strain vectors, ${structure}, positive deformation ${dir}"       file stress_strain/stress_strain.pos${dir}.out screen no
print "# Stress and strain vectors, ${structure}, positive deformation ${dir}"       file stress_strain/stress_strain.pos6.out screen no
fix data all print ${nfreq} "${eps} ${sig1} ${sig2} ${sig3} ${sig4} ${sig5} ${sig6}"       append stress_strain/stress_strain.pos${dir}.out screen no       title "# eps sig1 sig2 sig3 sig4 sig5 sig6"
fix data all print 100 "${eps} ${sig1} ${sig2} ${sig3} ${sig4} ${sig5} ${sig6}"       append stress_strain/stress_strain.pos${dir}.out screen no       title "# eps sig1 sig2 sig3 sig4 sig5 sig6"
fix data all print 100 "${eps} ${sig1} ${sig2} ${sig3} ${sig4} ${sig5} ${sig6}"       append stress_strain/stress_strain.pos6.out screen no       title "# eps sig1 sig2 sig3 sig4 sig5 sig6"

# save trajectory
# if "$(is_defined(dump,dump_pos${dir1}))" then "undump dump_pos${dir1}"
dump dump_pos${dir} all custom ${nthermo} dump/pos_deform${dir}.lammpstrj id type q x y z
dump dump_pos6 all custom ${nthermo} dump/pos_deform${dir}.lammpstrj id type q x y z
dump dump_pos6 all custom 100 dump/pos_deform${dir}.lammpstrj id type q x y z
dump dump_pos6 all custom 100 dump/pos_deform6.lammpstrj id type q x y z
run ${nrun}
run 500
All restart file global fix info was re-assigned
Neighbor list info ...
  update: every = 10 steps, delay = 0 steps, check = no
  max neighbors/atom: 2000, page size: 100000
  master list distance cutoff = 12
  ghost atom cutoff = 12
  binsize = 6, bins = 5 3 3
  2 neighbor lists, perpetual/occasional/extra = 2 0 0
  (1) pair reaxff, perpetual
      attributes: half, newton off, ghost
      pair build: half/bin/newtoff/ghost
      stencil: full/ghost/bin/3d
      bin: standard
  (2) fix qeq/reaxff, perpetual, copy from (1)
      attributes: half, newton off
      pair build: copy
      stencil: none
      bin: none
Per MPI rank memory allocation (min/avg/max) = 109.8 | 110.8 | 111.8 Mbytes
   Step          Temp          PotEng         Press          Volume           Lx             Ly             Lz      
         0   340.51122     -31988.881     -4396.9532      3472.1201      16.8189        12.842         16.0755      
       100   278.80434     -32029.872     -12064.365      3472.1201      16.8189        12.842         16.0755      
       200   249.89052     -32034.161     -17415.259      3472.1201      16.8189        12.842         16.0755      
       300   300.18812     -32057.622     -4353.1497      3472.1201      16.8189        12.842         16.0755      
       400   300.61899     -32025.924      10292.825      3472.1201      16.8189        12.842         16.0755      
       500   318.08233     -32019.831      5339.9011      3472.1201      16.8189        12.842         16.0755      
Loop time of 8.87328 on 8 procs for 500 steps with 274 atoms

Performance: 2.434 ns/day, 9.859 hours/ns, 56.349 timesteps/s, 15.440 katom-step/s
98.2% CPU use with 8 MPI tasks x 1 OpenMP threads

MPI task timing breakdown:
Section |  min time  |  avg time  |  max time  |%varavg| %total
---------------------------------------------------------------
Pair    | 6.3675     | 6.6352     | 6.8394     |   6.5 | 74.78
Bond    | 0.00081533 | 0.00087123 | 0.0009282  |   0.0 |  0.01
Neigh   | 0.76363    | 0.77856    | 0.79917    |   1.3 |  8.77
Comm    | 0.11142    | 0.31688    | 0.58545    |  29.7 |  3.57
Output  | 0.0010635  | 0.0011974  | 0.0013171  |   0.2 |  0.01
Modify  | 1.1095     | 1.1312     | 1.1471     |   1.1 | 12.75
Other   |            | 0.00937    |            |       |  0.11

Nlocal:          34.25 ave          40 max          19 min
Histogram: 1 0 0 1 0 0 0 0 3 3
Nghost:        2809.62 ave        2835 max        2787 min
Histogram: 2 1 1 0 0 0 2 0 0 2
Neighs:        18911.6 ave       22031 max       10730 min
Histogram: 1 0 0 1 0 0 0 0 3 3

Total # of neighbors = 151293
Ave neighs/atom = 552.16423
Ave special neighs/atom = 0
Neighbor list builds = 50
Dangerous builds not checked
unfix deform_p
unfix data
undump dump_pos${dir}
undump dump_pos6

# # Combine positive and negative
# variable C1${dir} equal 0.5*(${C1neg}+${C1pos})
# variable C2${dir} equal 0.5*(${C2neg}+${C2pos})
# variable C3${dir} equal 0.5*(${C3neg}+${C3pos})
# variable C4${dir} equal 0.5*(${C4neg}+${C4pos})
# variable C5${dir} equal 0.5*(${C5neg}+${C5pos})
# variable C6${dir} equal 0.5*(${C6neg}+${C6pos})

# Delete dir to make sure it is not reused
variable dir delete

# Calc and output
# include calc.mod.lmp

Total wall time: 0:01:56
