LAMMPS (2 Aug 2023 - Update 2)
OMP_NUM_THREADS environment is not set. Defaulting to 1 thread. (src/comm.cpp:98)
  using 1 OpenMP thread(s) per MPI task
Reading data file ...
  triclinic box = (0 0 0) to (16.8189 12.842 16.0755) with tilt (-8.3798 1.195 0.4312)
WARNING: Triclinic box skew is large. LAMMPS will run inefficiently. (src/domain.cpp:220)
  2 by 2 by 2 MPI processor grid
  reading atoms ...
  274 atoms
Finding 1-2 1-3 1-4 neighbors ...
  special bond factors lj:    0        0        0       
  special bond factors coul:  0        0        0       
     0 = max # of 1-2 neighbors
     0 = max # of 1-3 neighbors
     0 = max # of 1-4 neighbors
     1 = max # of special neighbors
  special bonds CPU = 0.001 seconds
  read_data CPU = 0.011 seconds
*****Minimization starts.*****
Setting up cg style minimization ...
  Unit style    : real
  Current step  : 0
WARNING: No pairwise cutoff or binsize set. Atom sorting therefore disabled. (src/atom.cpp:2366)
WARNING: Communication cutoff is 0.0. No ghost atoms will be generated. Atoms may get lost. (src/comm_brick.cpp:210)
Per MPI rank memory allocation (min/avg/max) = 6.364 | 6.364 | 6.364 Mbytes
   Step          Temp          E_pair         E_mol          TotEng         Press     
         0   0              0              0              0              0            
         1   0              0              0              0              0            
Loop time of 8.8847e-05 on 8 procs for 1 steps with 274 atoms

52.5% CPU use with 8 MPI tasks x 1 OpenMP threads

Minimization stats:
  Stopping criterion = search direction is not downhill
  Energy initial, next-to-last, final = 
                     0                  0                  0
  Force two-norm initial, final = 0 0
  Force max component initial, final = 0 0
  Final line search alpha, max atom move = 0 0
  Iterations, force evaluations = 1 0

MPI task timing breakdown:
Section |  min time  |  avg time  |  max time  |%varavg| %total
---------------------------------------------------------------
Pair    | 0          | 0          | 0          |   0.0 |  0.00
Bond    | 1.397e-06  | 2.6102e-06 | 3.003e-06  |   0.0 |  2.94
Neigh   | 0          | 0          | 0          |   0.0 |  0.00
Comm    | 4.26e-06   | 6.4954e-06 | 7.474e-06  |   0.0 |  7.31
Output  | 0          | 0          | 0          |   0.0 |  0.00
Modify  | 0          | 0          | 0          |   0.0 |  0.00
Other   |            | 7.974e-05  |            |       | 89.75

Nlocal:          34.25 ave          40 max          23 min
Histogram: 1 0 0 0 0 0 2 3 1 1
Nghost:              0 ave           0 max           0 min
Histogram: 8 0 0 0 0 0 0 0 0 0
Neighs:              0 ave           0 max           0 min
Histogram: 8 0 0 0 0 0 0 0 0 0

Total # of neighbors = 0
Ave neighs/atom = 0
Ave special neighs/atom = 0
Neighbor list builds = 0
Dangerous builds = 0
System init for write_data ...
WARNING: Communication cutoff is 0.0. No ghost atoms will be generated. Atoms may get lost. (src/comm_brick.cpp:210)
WARNING: New thermo_style command, previous thermo_modify settings will be lost (src/output.cpp:903)

CITE-CITE-CITE-CITE-CITE-CITE-CITE-CITE-CITE-CITE-CITE-CITE-CITE

Your simulation uses code contributions which should be cited:
- pair reaxff command: doi:10.1016/j.parco.2011.08.005
- fix qeq/reaxff command: doi:10.1016/j.parco.2011.08.005
The log file lists these citations in BibTeX format.

CITE-CITE-CITE-CITE-CITE-CITE-CITE-CITE-CITE-CITE-CITE-CITE-CITE

WARNING: Fix qeq/reaxff group is not charge neutral, net charge = -8.2 (src/REAXFF/fix_qeq_reaxff.cpp:392)
Neighbor list info ...
  update: every = 10 steps, delay = 0 steps, check = no
  max neighbors/atom: 2000, page size: 100000
  master list distance cutoff = 12
  ghost atom cutoff = 12
  binsize = 6, bins = 5 3 3
  2 neighbor lists, perpetual/occasional/extra = 2 0 0
  (1) pair reaxff, perpetual
      attributes: half, newton off, ghost
      pair build: half/bin/newtoff/ghost
      stencil: full/ghost/bin/3d
      bin: standard
  (2) fix qeq/reaxff, perpetual, copy from (1)
      attributes: half, newton off
      pair build: copy
      stencil: none
      bin: none
Setting up Verlet run ...
  Unit style    : real
  Current step  : 0
  Time step     : 0.5
Per MPI rank memory allocation (min/avg/max) = 109.8 | 110.8 | 111.6 Mbytes
   Step          Temp          PotEng         Press         Density         Volume    
         0   300           -29524.072      53373.102      1.4594291      3472.1201    
       100   940.83325     -30895.433     -22221.566      1.4594291      3472.1201    
       200   655.32859     -31410.555     -8415.0945      1.4594291      3472.1201    
       300   492.44705     -31703.584     -1794.1004      1.4594291      3472.1201    
       400   382.80684     -31863.571     -399.08344      1.4594291      3472.1201    
       500   340.51122     -31988.881     -4396.9622      1.4594291      3472.1201    
Loop time of 9.17013 on 8 procs for 500 steps with 274 atoms

Performance: 2.355 ns/day, 10.189 hours/ns, 54.525 timesteps/s, 14.940 katom-step/s
97.8% CPU use with 8 MPI tasks x 1 OpenMP threads

MPI task timing breakdown:
Section |  min time  |  avg time  |  max time  |%varavg| %total
---------------------------------------------------------------
Pair    | 6.408      | 6.6933     | 6.9293     |   6.6 | 72.99
Bond    | 0.00083522 | 0.00087549 | 0.000921   |   0.0 |  0.01
Neigh   | 0.77517    | 0.78726    | 0.83142    |   2.0 |  8.59
Comm    | 0.19829    | 0.43457    | 0.72035    |  26.1 |  4.74
Output  | 0.00018466 | 0.00020541 | 0.00032853 |   0.0 |  0.00
Modify  | 1.2007     | 1.2449     | 1.2568     |   1.6 | 13.58
Other   |            | 0.008961   |            |       |  0.10

Nlocal:          34.25 ave          40 max          29 min
Histogram: 2 0 0 2 1 0 0 1 1 1
Nghost:        2842.25 ave        2879 max        2810 min
Histogram: 2 2 0 0 0 0 1 1 0 2
Neighs:        18946.6 ave       21932 max       16121 min
Histogram: 1 1 0 2 1 0 0 1 1 1

Total # of neighbors = 151573
Ave neighs/atom = 553.18613
Ave special neighs/atom = 0
Neighbor list builds = 50
Dangerous builds not checked
System init for write_data ...
System init for write_restart ...
OMP_NUM_THREADS environment is not set. Defaulting to 1 thread. (src/comm.cpp:98)
  using 1 OpenMP thread(s) per MPI task
Reading restart file ...
  restart file = 2 Aug 2023, LAMMPS = 2 Aug 2023
  restoring atom style full from restart
  triclinic box = (0 0 0) to (16.8189 12.842 16.0755) with tilt (-8.3798 1.195 0.4312)
WARNING: Triclinic box skew is large. LAMMPS will run inefficiently. (src/domain.cpp:220)
  2 by 2 by 2 MPI processor grid
  pair style reaxff stores no restart info
  274 atoms
Finding 1-2 1-3 1-4 neighbors ...
  special bond factors lj:    0        0        0       
  special bond factors coul:  0        0        0       
     0 = max # of 1-2 neighbors
     0 = max # of 1-3 neighbors
     0 = max # of 1-4 neighbors
     1 = max # of special neighbors
  special bonds CPU = 0.000 seconds
  read_restart CPU = 0.002 seconds
*****debug*****
xy = -8.3797999999999994714, deltaxy = 0.083798
xz = 1.1950000000000000622, deltaxz = -0.01195
yz = 0.43120000000000002771, deltayz = -0.004312
*****
*****Negative-deform 1 starts.*****
Resetting global fix info from restart file:
  fix style: nvt, fix ID: fnvt
All restart file global fix info was re-assigned
Neighbor list info ...
  update: every = 10 steps, delay = 0 steps, check = no
  max neighbors/atom: 2000, page size: 100000
  master list distance cutoff = 12
  ghost atom cutoff = 12
  binsize = 6, bins = 5 3 3
  2 neighbor lists, perpetual/occasional/extra = 2 0 0
  (1) pair reaxff, perpetual
      attributes: half, newton off, ghost
      pair build: half/bin/newtoff/ghost
      stencil: full/ghost/bin/3d
      bin: standard
  (2) fix qeq/reaxff, perpetual, copy from (1)
      attributes: half, newton off
      pair build: copy
      stencil: none
      bin: none
Setting up Verlet run ...
  Unit style    : real
  Current step  : 0
  Time step     : 0.5
Per MPI rank memory allocation (min/avg/max) = 109.8 | 110.7 | 111.8 Mbytes
   Step          Temp          PotEng         Press          Volume           Lx             Ly             Lz      
         0   340.51122     -31988.881     -4396.9532      3472.1201      16.8189        12.842         16.0755      
       100   278.91184     -32029.686     -12113.756      3465.1759      16.785262      12.842         16.0755      
       200   253.06668     -32040.252     -18047.926      3458.2317      16.751624      12.842         16.0755      
       300   296.69669     -32057.421     -7260.507       3451.2874      16.717987      12.842         16.0755      
       400   311.87046     -32032.98       8466.908       3444.3432      16.684349      12.842         16.0755      
       500   324.65788     -32026.467     -1660.6792      3437.3989      16.650711      12.842         16.0755      
Loop time of 8.93321 on 8 procs for 500 steps with 274 atoms

Performance: 2.418 ns/day, 9.926 hours/ns, 55.971 timesteps/s, 15.336 katom-step/s
98.4% CPU use with 8 MPI tasks x 1 OpenMP threads

MPI task timing breakdown:
Section |  min time  |  avg time  |  max time  |%varavg| %total
---------------------------------------------------------------
Pair    | 6.4404     | 6.6947     | 6.8556     |   6.3 | 74.94
Bond    | 0.00084279 | 0.00088255 | 0.00090341 |   0.0 |  0.01
Neigh   | 0.77764    | 0.78602    | 0.79656    |   0.7 |  8.80
Comm    | 0.14796    | 0.31098    | 0.56743    |  29.7 |  3.48
Output  | 0.0010471  | 0.0011774  | 0.0012893  |   0.2 |  0.01
Modify  | 1.1177     | 1.1304     | 1.141      |   0.7 | 12.65
Other   |            | 0.009031   |            |       |  0.10

Nlocal:          34.25 ave          39 max          20 min
Histogram: 1 0 0 1 0 0 0 0 2 4
Nghost:        2833.75 ave        2860 max        2812 min
Histogram: 2 0 1 1 0 1 1 0 1 1
Neighs:        19089.2 ave       21665 max       11366 min
Histogram: 1 0 0 1 0 0 0 0 2 4

Total # of neighbors = 152714
Ave neighs/atom = 557.35036
Ave special neighs/atom = 0
Neighbor list builds = 50
Dangerous builds not checked
OMP_NUM_THREADS environment is not set. Defaulting to 1 thread. (src/comm.cpp:98)
  using 1 OpenMP thread(s) per MPI task
Reading restart file ...
  restart file = 2 Aug 2023, LAMMPS = 2 Aug 2023
  restoring atom style full from restart
  triclinic box = (0 0 0) to (16.8189 12.842 16.0755) with tilt (-8.3798 1.195 0.4312)
WARNING: Triclinic box skew is large. LAMMPS will run inefficiently. (src/domain.cpp:220)
  2 by 2 by 2 MPI processor grid
  pair style reaxff stores no restart info
  274 atoms
Finding 1-2 1-3 1-4 neighbors ...
  special bond factors lj:    0        0        0       
  special bond factors coul:  0        0        0       
     0 = max # of 1-2 neighbors
     0 = max # of 1-3 neighbors
     0 = max # of 1-4 neighbors
     1 = max # of special neighbors
  special bonds CPU = 0.000 seconds
  read_restart CPU = 0.002 seconds
*****Positive-deform 1 starts.*****
Resetting global fix info from restart file:
  fix style: nvt, fix ID: fnvt
All restart file global fix info was re-assigned
Neighbor list info ...
  update: every = 10 steps, delay = 0 steps, check = no
  max neighbors/atom: 2000, page size: 100000
  master list distance cutoff = 12
  ghost atom cutoff = 12
  binsize = 6, bins = 5 3 3
  2 neighbor lists, perpetual/occasional/extra = 2 0 0
  (1) pair reaxff, perpetual
      attributes: half, newton off, ghost
      pair build: half/bin/newtoff/ghost
      stencil: full/ghost/bin/3d
      bin: standard
  (2) fix qeq/reaxff, perpetual, copy from (1)
      attributes: half, newton off
      pair build: copy
      stencil: none
      bin: none
Setting up Verlet run ...
  Unit style    : real
  Current step  : 0
  Time step     : 0.5
Per MPI rank memory allocation (min/avg/max) = 109.8 | 110.8 | 111.8 Mbytes
   Step          Temp          PotEng         Press          Volume           Lx             Ly             Lz      
         0   340.51122     -31988.881     -4396.9532      3472.1201      16.8189        12.842         16.0755      
       100   278.60108     -32030.423     -11970.026      3479.0644      16.852538      12.842         16.0755      
       200   254.43297     -32035.34      -13877.222      3486.0086      16.886176      12.842         16.0755      
       300   301.53651     -32054.875     -19741.498      3492.9529      16.919813      12.842         16.0755      
       400   314.83907     -32029.991     -0.36818069     3499.8971      16.953451      12.842         16.0755      
       500   316.76576     -32021.115     -35.294889      3506.8413      16.987089      12.842         16.0755      
Loop time of 8.86697 on 8 procs for 500 steps with 274 atoms

Performance: 2.436 ns/day, 9.852 hours/ns, 56.389 timesteps/s, 15.451 katom-step/s
98.4% CPU use with 8 MPI tasks x 1 OpenMP threads

MPI task timing breakdown:
Section |  min time  |  avg time  |  max time  |%varavg| %total
---------------------------------------------------------------
Pair    | 6.4023     | 6.6419     | 6.8062     |   5.9 | 74.91
Bond    | 0.00084618 | 0.00089192 | 0.00092909 |   0.0 |  0.01
Neigh   | 0.76545    | 0.77917    | 0.79493    |   1.1 |  8.79
Comm    | 0.13431    | 0.29966    | 0.54039    |  27.8 |  3.38
Output  | 0.0010737  | 0.0012163  | 0.0013364  |   0.3 |  0.01
Modify  | 1.1178     | 1.1347     | 1.1497     |   0.9 | 12.80
Other   |            | 0.009388   |            |       |  0.11

Nlocal:          34.25 ave          40 max          22 min
Histogram: 1 0 0 0 1 0 0 3 1 2
Nghost:        2813.12 ave        2834 max        2792 min
Histogram: 2 1 1 0 0 0 0 2 0 2
Neighs:        18768.5 ave       21856 max       12304 min
Histogram: 1 0 0 0 1 0 0 3 1 2

Total # of neighbors = 150148
Ave neighs/atom = 547.9854
Ave special neighs/atom = 0
Neighbor list builds = 50
Dangerous builds not checked
OMP_NUM_THREADS environment is not set. Defaulting to 1 thread. (src/comm.cpp:98)
  using 1 OpenMP thread(s) per MPI task
Reading restart file ...
  restart file = 2 Aug 2023, LAMMPS = 2 Aug 2023
  restoring atom style full from restart
  triclinic box = (0 0 0) to (16.8189 12.842 16.0755) with tilt (-8.3798 1.195 0.4312)
WARNING: Triclinic box skew is large. LAMMPS will run inefficiently. (src/domain.cpp:220)
  2 by 2 by 2 MPI processor grid
  pair style reaxff stores no restart info
  274 atoms
Finding 1-2 1-3 1-4 neighbors ...
  special bond factors lj:    0        0        0       
  special bond factors coul:  0        0        0       
     0 = max # of 1-2 neighbors
     0 = max # of 1-3 neighbors
     0 = max # of 1-4 neighbors
     1 = max # of special neighbors
  special bonds CPU = 0.000 seconds
  read_restart CPU = 0.002 seconds
*****debug*****
xy = -8.3797999999999994714, deltaxy = 0.083798
xz = 1.1950000000000000622, deltaxz = -0.01195
yz = 0.43120000000000002771, deltayz = -0.004312
*****
*****Negative-deform 2 starts.*****
Resetting global fix info from restart file:
  fix style: nvt, fix ID: fnvt
All restart file global fix info was re-assigned
Neighbor list info ...
  update: every = 10 steps, delay = 0 steps, check = no
  max neighbors/atom: 2000, page size: 100000
  master list distance cutoff = 12
  ghost atom cutoff = 12
  binsize = 6, bins = 5 3 3
  2 neighbor lists, perpetual/occasional/extra = 2 0 0
  (1) pair reaxff, perpetual
      attributes: half, newton off, ghost
      pair build: half/bin/newtoff/ghost
      stencil: full/ghost/bin/3d
      bin: standard
  (2) fix qeq/reaxff, perpetual, copy from (1)
      attributes: half, newton off
      pair build: copy
      stencil: none
      bin: none
Setting up Verlet run ...
  Unit style    : real
  Current step  : 0
  Time step     : 0.5
Per MPI rank memory allocation (min/avg/max) = 109.8 | 110.7 | 111.8 Mbytes
   Step          Temp          PotEng         Press          Volume           Lx             Ly             Lz      
         0   340.51122     -31988.881     -4396.9532      3472.1201      16.8189        12.842         16.0755      
       100   278.74768     -32029.791     -12004.497      3465.1759      16.8189        12.816316      16.0755      
       200   252.76396     -32038.001     -13488.735      3458.2317      16.8189        12.790632      16.0755      
       300   294.01202     -32050.706     -11125.381      3451.2874      16.8189        12.764948      16.0755      
       400   299.10417     -32026.985      15044.677      3444.3432      16.8189        12.739264      16.0755      
       500   312.63441     -32022.859      925.43455      3437.3989      16.8189        12.71358       16.0755      
Loop time of 8.98756 on 8 procs for 500 steps with 274 atoms

Performance: 2.403 ns/day, 9.986 hours/ns, 55.632 timesteps/s, 15.243 katom-step/s
98.4% CPU use with 8 MPI tasks x 1 OpenMP threads

MPI task timing breakdown:
Section |  min time  |  avg time  |  max time  |%varavg| %total
---------------------------------------------------------------
Pair    | 6.4828     | 6.752      | 6.9193     |   5.9 | 75.13
Bond    | 0.00083787 | 0.00088509 | 0.00091996 |   0.0 |  0.01
Neigh   | 0.76782    | 0.78493    | 0.80214    |   1.1 |  8.73
Comm    | 0.13983    | 0.30773    | 0.57761    |  28.0 |  3.42
Output  | 0.0010492  | 0.0011834  | 0.0012932  |   0.2 |  0.01
Modify  | 1.1136     | 1.1315     | 1.1498     |   1.0 | 12.59
Other   |            | 0.00926    |            |       |  0.10

Nlocal:          34.25 ave          40 max          21 min
Histogram: 1 0 0 1 0 0 0 2 2 2
Nghost:        2844.75 ave        2868 max        2819 min
Histogram: 1 1 0 1 0 1 1 2 0 1
Neighs:        19092.5 ave       22241 max       11963 min
Histogram: 1 0 0 1 0 0 0 2 2 2

Total # of neighbors = 152740
Ave neighs/atom = 557.44526
Ave special neighs/atom = 0
Neighbor list builds = 50
Dangerous builds not checked
OMP_NUM_THREADS environment is not set. Defaulting to 1 thread. (src/comm.cpp:98)
  using 1 OpenMP thread(s) per MPI task
Reading restart file ...
  restart file = 2 Aug 2023, LAMMPS = 2 Aug 2023
  restoring atom style full from restart
  triclinic box = (0 0 0) to (16.8189 12.842 16.0755) with tilt (-8.3798 1.195 0.4312)
WARNING: Triclinic box skew is large. LAMMPS will run inefficiently. (src/domain.cpp:220)
  2 by 2 by 2 MPI processor grid
  pair style reaxff stores no restart info
  274 atoms
Finding 1-2 1-3 1-4 neighbors ...
  special bond factors lj:    0        0        0       
  special bond factors coul:  0        0        0       
     0 = max # of 1-2 neighbors
     0 = max # of 1-3 neighbors
     0 = max # of 1-4 neighbors
     1 = max # of special neighbors
  special bonds CPU = 0.000 seconds
  read_restart CPU = 0.002 seconds
*****Positive-deform 2 starts.*****
Resetting global fix info from restart file:
  fix style: nvt, fix ID: fnvt
All restart file global fix info was re-assigned
Neighbor list info ...
  update: every = 10 steps, delay = 0 steps, check = no
  max neighbors/atom: 2000, page size: 100000
  master list distance cutoff = 12
  ghost atom cutoff = 12
  binsize = 6, bins = 5 3 3
  2 neighbor lists, perpetual/occasional/extra = 2 0 0
  (1) pair reaxff, perpetual
      attributes: half, newton off, ghost
      pair build: half/bin/newtoff/ghost
      stencil: full/ghost/bin/3d
      bin: standard
  (2) fix qeq/reaxff, perpetual, copy from (1)
      attributes: half, newton off
      pair build: copy
      stencil: none
      bin: none
Setting up Verlet run ...
  Unit style    : real
  Current step  : 0
  Time step     : 0.5
Per MPI rank memory allocation (min/avg/max) = 109.8 | 110.8 | 111.8 Mbytes
   Step          Temp          PotEng         Press          Volume           Lx             Ly             Lz      
         0   340.51122     -31988.881     -4396.9532      3472.1201      16.8189        12.842         16.0755      
       100   278.82468     -32030.371     -12079.165      3479.0644      16.8189        12.867684      16.0755      
       200   247.93235     -32032.898     -18343.368      3486.0086      16.8189        12.893368      16.0755      
       300   297.4537      -32053.994     -13799.441      3492.9529      16.8189        12.919052      16.0755      
       400   316.82156     -32030.622      1372.8219      3499.8971      16.8189        12.944736      16.0755      
       500   303.3393      -32000.849      829.33556      3506.8413      16.8189        12.97042       16.0755      
Loop time of 8.87578 on 8 procs for 500 steps with 274 atoms

Performance: 2.434 ns/day, 9.862 hours/ns, 56.333 timesteps/s, 15.435 katom-step/s
98.2% CPU use with 8 MPI tasks x 1 OpenMP threads

MPI task timing breakdown:
Section |  min time  |  avg time  |  max time  |%varavg| %total
---------------------------------------------------------------
Pair    | 6.3765     | 6.6474     | 6.8397     |   6.6 | 74.89
Bond    | 0.00083459 | 0.00087509 | 0.00090639 |   0.0 |  0.01
Neigh   | 0.76013    | 0.77684    | 0.79217    |   1.1 |  8.75
Comm    | 0.12141    | 0.31453    | 0.58665    |  30.5 |  3.54
Output  | 0.00099594 | 0.0011293  | 0.0012284  |   0.2 |  0.01
Modify  | 1.1089     | 1.1257     | 1.1438     |   1.0 | 12.68
Other   |            | 0.009358   |            |       |  0.11

Nlocal:          34.25 ave          40 max          22 min
Histogram: 1 0 1 0 0 0 0 2 2 2
Nghost:        2808.25 ave        2854 max        2772 min
Histogram: 2 0 1 1 0 1 1 0 1 1
Neighs:        18766.6 ave       21884 max       12292 min
Histogram: 1 0 1 0 0 0 0 2 2 2

Total # of neighbors = 150133
Ave neighs/atom = 547.93066
Ave special neighs/atom = 0
Neighbor list builds = 50
Dangerous builds not checked
OMP_NUM_THREADS environment is not set. Defaulting to 1 thread. (src/comm.cpp:98)
  using 1 OpenMP thread(s) per MPI task
Reading restart file ...
  restart file = 2 Aug 2023, LAMMPS = 2 Aug 2023
  restoring atom style full from restart
  triclinic box = (0 0 0) to (16.8189 12.842 16.0755) with tilt (-8.3798 1.195 0.4312)
WARNING: Triclinic box skew is large. LAMMPS will run inefficiently. (src/domain.cpp:220)
  2 by 2 by 2 MPI processor grid
  pair style reaxff stores no restart info
  274 atoms
Finding 1-2 1-3 1-4 neighbors ...
  special bond factors lj:    0        0        0       
  special bond factors coul:  0        0        0       
     0 = max # of 1-2 neighbors
     0 = max # of 1-3 neighbors
     0 = max # of 1-4 neighbors
     1 = max # of special neighbors
  special bonds CPU = 0.000 seconds
  read_restart CPU = 0.001 seconds
*****debug*****
xy = -8.3797999999999994714, deltaxy = 0.083798
xz = 1.1950000000000000622, deltaxz = -0.01195
yz = 0.43120000000000002771, deltayz = -0.004312
*****
*****Negative-deform 3 starts.*****
Resetting global fix info from restart file:
  fix style: nvt, fix ID: fnvt
All restart file global fix info was re-assigned
Neighbor list info ...
  update: every = 10 steps, delay = 0 steps, check = no
  max neighbors/atom: 2000, page size: 100000
  master list distance cutoff = 12
  ghost atom cutoff = 12
  binsize = 6, bins = 5 3 3
  2 neighbor lists, perpetual/occasional/extra = 2 0 0
  (1) pair reaxff, perpetual
      attributes: half, newton off, ghost
      pair build: half/bin/newtoff/ghost
      stencil: full/ghost/bin/3d
      bin: standard
  (2) fix qeq/reaxff, perpetual, copy from (1)
      attributes: half, newton off
      pair build: copy
      stencil: none
      bin: none
Setting up Verlet run ...
  Unit style    : real
  Current step  : 0
  Time step     : 0.5
Per MPI rank memory allocation (min/avg/max) = 109.8 | 110.7 | 111.8 Mbytes
   Step          Temp          PotEng         Press          Volume           Lx             Ly             Lz      
         0   340.51122     -31988.881     -4396.9532      3472.1201      16.8189        12.842         16.0755      
       100   279.35811     -32030.339     -11913.515      3465.1759      16.8189        12.842         16.043349    
       200   252.06998     -32034.517     -9255.7672      3458.2317      16.8189        12.842         16.011198    
       300   295.51065     -32050.866     -13624.517      3451.2874      16.8189        12.842         15.979047    
       400   324.27911     -32043.863      2401.0847      3444.3432      16.8189        12.842         15.946896    
       500   328.55814     -32035.376      7191.635       3437.3989      16.8189        12.842         15.914745    
Loop time of 9.0156 on 8 procs for 500 steps with 274 atoms

Performance: 2.396 ns/day, 10.017 hours/ns, 55.459 timesteps/s, 15.196 katom-step/s
98.3% CPU use with 8 MPI tasks x 1 OpenMP threads

MPI task timing breakdown:
Section |  min time  |  avg time  |  max time  |%varavg| %total
---------------------------------------------------------------
Pair    | 6.4564     | 6.7476     | 6.9501     |   6.5 | 74.84
Bond    | 0.00083396 | 0.0008732  | 0.00090744 |   0.0 |  0.01
Neigh   | 0.77102    | 0.78441    | 0.79701    |   1.0 |  8.70
Comm    | 0.1293     | 0.3331     | 0.62575    |  29.7 |  3.69
Output  | 0.0010202  | 0.0011556  | 0.0012662  |   0.2 |  0.01
Modify  | 1.1253     | 1.1394     | 1.1545     |   0.9 | 12.64
Other   |            | 0.009134   |            |       |  0.10

Nlocal:          34.25 ave          40 max          21 min
Histogram: 1 0 0 1 0 0 0 2 2 2
Nghost:        2853.38 ave        2877 max        2824 min
Histogram: 1 0 1 0 2 0 1 0 1 2
Neighs:          19093 ave       22160 max       11921 min
Histogram: 1 0 0 1 0 0 0 2 2 2

Total # of neighbors = 152744
Ave neighs/atom = 557.45985
Ave special neighs/atom = 0
Neighbor list builds = 50
Dangerous builds not checked
OMP_NUM_THREADS environment is not set. Defaulting to 1 thread. (src/comm.cpp:98)
  using 1 OpenMP thread(s) per MPI task
Reading restart file ...
  restart file = 2 Aug 2023, LAMMPS = 2 Aug 2023
  restoring atom style full from restart
  triclinic box = (0 0 0) to (16.8189 12.842 16.0755) with tilt (-8.3798 1.195 0.4312)
WARNING: Triclinic box skew is large. LAMMPS will run inefficiently. (src/domain.cpp:220)
  2 by 2 by 2 MPI processor grid
  pair style reaxff stores no restart info
  274 atoms
Finding 1-2 1-3 1-4 neighbors ...
  special bond factors lj:    0        0        0       
  special bond factors coul:  0        0        0       
     0 = max # of 1-2 neighbors
     0 = max # of 1-3 neighbors
     0 = max # of 1-4 neighbors
     1 = max # of special neighbors
  special bonds CPU = 0.000 seconds
  read_restart CPU = 0.002 seconds
*****Positive-deform 3 starts.*****
Resetting global fix info from restart file:
  fix style: nvt, fix ID: fnvt
All restart file global fix info was re-assigned
Neighbor list info ...
  update: every = 10 steps, delay = 0 steps, check = no
  max neighbors/atom: 2000, page size: 100000
  master list distance cutoff = 12
  ghost atom cutoff = 12
  binsize = 6, bins = 5 3 3
  2 neighbor lists, perpetual/occasional/extra = 2 0 0
  (1) pair reaxff, perpetual
      attributes: half, newton off, ghost
      pair build: half/bin/newtoff/ghost
      stencil: full/ghost/bin/3d
      bin: standard
  (2) fix qeq/reaxff, perpetual, copy from (1)
      attributes: half, newton off
      pair build: copy
      stencil: none
      bin: none
Setting up Verlet run ...
  Unit style    : real
  Current step  : 0
  Time step     : 0.5
Per MPI rank memory allocation (min/avg/max) = 109.8 | 110.7 | 111.8 Mbytes
   Step          Temp          PotEng         Press          Volume           Lx             Ly             Lz      
         0   340.51122     -31988.881     -4396.9532      3472.1201      16.8189        12.842         16.0755      
       100   277.79597     -32029.6       -12148.442      3479.0644      16.8189        12.842         16.107651    
       200   255.51648     -32039.003     -20742.999      3486.0086      16.8189        12.842         16.139802    
       300   310.94052     -32064.779     -10856.072      3492.9529      16.8189        12.842         16.171953    
       400   326.09979     -32045.199      4011.5636      3499.8971      16.8189        12.842         16.204104    
       500   322.98534     -32031.502      225.91268      3506.8413      16.8189        12.842         16.236255    
Loop time of 8.87272 on 8 procs for 500 steps with 274 atoms

Performance: 2.434 ns/day, 9.859 hours/ns, 56.352 timesteps/s, 15.441 katom-step/s
98.3% CPU use with 8 MPI tasks x 1 OpenMP threads

MPI task timing breakdown:
Section |  min time  |  avg time  |  max time  |%varavg| %total
---------------------------------------------------------------
Pair    | 6.3735     | 6.6269     | 6.8527     |   6.8 | 74.69
Bond    | 0.00084263 | 0.0008662  | 0.00090891 |   0.0 |  0.01
Neigh   | 0.76214    | 0.7769     | 0.79344    |   1.2 |  8.76
Comm    | 0.11234    | 0.33842    | 0.59223    |  30.1 |  3.81
Output  | 0.00098308 | 0.0011185  | 0.0012222  |   0.2 |  0.01
Modify  | 1.1023     | 1.1194     | 1.1349     |   1.0 | 12.62
Other   |            | 0.00913    |            |       |  0.10

Nlocal:          34.25 ave          40 max          20 min
Histogram: 1 0 0 0 1 0 0 0 4 2
Nghost:        2810.38 ave        2838 max        2791 min
Histogram: 1 2 0 1 1 1 1 0 0 1
Neighs:        18774.9 ave       21869 max       11212 min
Histogram: 1 0 0 0 1 0 0 2 2 2

Total # of neighbors = 150199
Ave neighs/atom = 548.17153
Ave special neighs/atom = 0
Neighbor list builds = 50
Dangerous builds not checked
OMP_NUM_THREADS environment is not set. Defaulting to 1 thread. (src/comm.cpp:98)
  using 1 OpenMP thread(s) per MPI task
Reading restart file ...
  restart file = 2 Aug 2023, LAMMPS = 2 Aug 2023
  restoring atom style full from restart
  triclinic box = (0 0 0) to (16.8189 12.842 16.0755) with tilt (-8.3798 1.195 0.4312)
WARNING: Triclinic box skew is large. LAMMPS will run inefficiently. (src/domain.cpp:220)
  2 by 2 by 2 MPI processor grid
  pair style reaxff stores no restart info
  274 atoms
Finding 1-2 1-3 1-4 neighbors ...
  special bond factors lj:    0        0        0       
  special bond factors coul:  0        0        0       
     0 = max # of 1-2 neighbors
     0 = max # of 1-3 neighbors
     0 = max # of 1-4 neighbors
     1 = max # of special neighbors
  special bonds CPU = 0.000 seconds
  read_restart CPU = 0.002 seconds
*****debug*****
xy = -8.3797999999999994714, deltaxy = 0.083798
xz = 1.1950000000000000622, deltaxz = -0.01195
yz = 0.43120000000000002771, deltayz = -0.004312
*****
*****Negative-deform 4 starts.*****
Resetting global fix info from restart file:
  fix style: nvt, fix ID: fnvt
All restart file global fix info was re-assigned
Neighbor list info ...
  update: every = 10 steps, delay = 0 steps, check = no
  max neighbors/atom: 2000, page size: 100000
  master list distance cutoff = 12
  ghost atom cutoff = 12
  binsize = 6, bins = 5 3 3
  2 neighbor lists, perpetual/occasional/extra = 2 0 0
  (1) pair reaxff, perpetual
      attributes: half, newton off, ghost
      pair build: half/bin/newtoff/ghost
      stencil: full/ghost/bin/3d
      bin: standard
  (2) fix qeq/reaxff, perpetual, copy from (1)
      attributes: half, newton off
      pair build: copy
      stencil: none
      bin: none
Setting up Verlet run ...
  Unit style    : real
  Current step  : 0
  Time step     : 0.5
Per MPI rank memory allocation (min/avg/max) = 109.8 | 110.7 | 111.8 Mbytes
   Step          Temp          PotEng         Press          Volume           Lx             Ly             Lz      
         0   340.51122     -31988.881     -4396.9532      3472.1201      16.8189        12.842         16.0755      
       100   277.69012     -32029.38      -11908.502      3472.1201      16.8189        12.842         16.0755      
       200   248.85538     -32035.461     -19641.725      3472.1201      16.8189        12.842         16.0755      
       300   304.21209     -32059.588     -11157.229      3472.1201      16.8189        12.842         16.0755      
       400   327.06805     -32047.178      6389.8022      3472.1201      16.8189        12.842         16.0755      
       500   316.84713     -32031.583     -4864.1243      3472.1201      16.8189        12.842         16.0755      
Loop time of 8.90586 on 8 procs for 500 steps with 274 atoms

Performance: 2.425 ns/day, 9.895 hours/ns, 56.143 timesteps/s, 15.383 katom-step/s
98.2% CPU use with 8 MPI tasks x 1 OpenMP threads

MPI task timing breakdown:
Section |  min time  |  avg time  |  max time  |%varavg| %total
---------------------------------------------------------------
Pair    | 6.4114     | 6.6674     | 6.8675     |   6.6 | 74.87
Bond    | 0.00083077 | 0.00086988 | 0.00090598 |   0.0 |  0.01
Neigh   | 0.75906    | 0.77941    | 0.79782    |   1.4 |  8.75
Comm    | 0.12729    | 0.32812    | 0.58503    |  29.7 |  3.68
Output  | 0.0010346  | 0.0011652  | 0.0012842  |   0.2 |  0.01
Modify  | 1.1004     | 1.1197     | 1.1411     |   1.2 | 12.57
Other   |            | 0.009119   |            |       |  0.10

Nlocal:          34.25 ave          40 max          22 min
Histogram: 1 0 0 1 0 0 0 3 2 1
Nghost:         2813.5 ave        2840 max        2800 min
Histogram: 2 1 1 1 2 0 0 0 0 1
Neighs:        18931.8 ave       22029 max       12430 min
Histogram: 1 0 0 1 0 0 0 3 2 1

Total # of neighbors = 151454
Ave neighs/atom = 552.75182
Ave special neighs/atom = 0
Neighbor list builds = 50
Dangerous builds not checked
OMP_NUM_THREADS environment is not set. Defaulting to 1 thread. (src/comm.cpp:98)
  using 1 OpenMP thread(s) per MPI task
Reading restart file ...
  restart file = 2 Aug 2023, LAMMPS = 2 Aug 2023
  restoring atom style full from restart
  triclinic box = (0 0 0) to (16.8189 12.842 16.0755) with tilt (-8.3798 1.195 0.4312)
WARNING: Triclinic box skew is large. LAMMPS will run inefficiently. (src/domain.cpp:220)
  2 by 2 by 2 MPI processor grid
  pair style reaxff stores no restart info
  274 atoms
Finding 1-2 1-3 1-4 neighbors ...
  special bond factors lj:    0        0        0       
  special bond factors coul:  0        0        0       
     0 = max # of 1-2 neighbors
     0 = max # of 1-3 neighbors
     0 = max # of 1-4 neighbors
     1 = max # of special neighbors
  special bonds CPU = 0.000 seconds
  read_restart CPU = 0.002 seconds
*****Positive-deform 4 starts.*****
Resetting global fix info from restart file:
  fix style: nvt, fix ID: fnvt
All restart file global fix info was re-assigned
Neighbor list info ...
  update: every = 10 steps, delay = 0 steps, check = no
  max neighbors/atom: 2000, page size: 100000
  master list distance cutoff = 12
  ghost atom cutoff = 12
  binsize = 6, bins = 5 3 3
  2 neighbor lists, perpetual/occasional/extra = 2 0 0
  (1) pair reaxff, perpetual
      attributes: half, newton off, ghost
      pair build: half/bin/newtoff/ghost
      stencil: full/ghost/bin/3d
      bin: standard
  (2) fix qeq/reaxff, perpetual, copy from (1)
      attributes: half, newton off
      pair build: copy
      stencil: none
      bin: none
Setting up Verlet run ...
  Unit style    : real
  Current step  : 0
  Time step     : 0.5
Per MPI rank memory allocation (min/avg/max) = 109.8 | 110.8 | 111.8 Mbytes
   Step          Temp          PotEng         Press          Volume           Lx             Ly             Lz      
         0   340.51122     -31988.881     -4396.9532      3472.1201      16.8189        12.842         16.0755      
       100   279.09594     -32030.197     -12171.15       3472.1201      16.8189        12.842         16.0755      
       200   250.54334     -32034.835     -15308.784      3472.1201      16.8189        12.842         16.0755      
       300   298.85375     -32054.743     -14556.95       3472.1201      16.8189        12.842         16.0755      
       400   316.05388     -32035.624      7540.5083      3472.1201      16.8189        12.842         16.0755      
       500   305.72145     -32010.863      4729.0403      3472.1201      16.8189        12.842         16.0755      
Loop time of 8.89795 on 8 procs for 500 steps with 274 atoms

Performance: 2.428 ns/day, 9.887 hours/ns, 56.193 timesteps/s, 15.397 katom-step/s
98.8% CPU use with 8 MPI tasks x 1 OpenMP threads

MPI task timing breakdown:
Section |  min time  |  avg time  |  max time  |%varavg| %total
---------------------------------------------------------------
Pair    | 6.392      | 6.6592     | 6.8781     |   6.6 | 74.84
Bond    | 0.00082686 | 0.00085892 | 0.00090271 |   0.0 |  0.01
Neigh   | 0.76294    | 0.78171    | 0.7993     |   1.1 |  8.79
Comm    | 0.11121    | 0.33105    | 0.59941    |  29.9 |  3.72
Output  | 0.0010767  | 0.0012091  | 0.0013108  |   0.2 |  0.01
Modify  | 1.0958     | 1.1146     | 1.1345     |   1.0 | 12.53
Other   |            | 0.009252   |            |       |  0.10

Nlocal:          34.25 ave          41 max          21 min
Histogram: 1 0 0 1 0 0 0 2 2 2
Nghost:        2821.25 ave        2853 max        2801 min
Histogram: 3 1 0 0 0 1 1 1 0 1
Neighs:          18924 ave       22581 max       11811 min
Histogram: 1 0 0 1 0 0 1 3 1 1

Total # of neighbors = 151392
Ave neighs/atom = 552.52555
Ave special neighs/atom = 0
Neighbor list builds = 50
Dangerous builds not checked
OMP_NUM_THREADS environment is not set. Defaulting to 1 thread. (src/comm.cpp:98)
  using 1 OpenMP thread(s) per MPI task
Reading restart file ...
  restart file = 2 Aug 2023, LAMMPS = 2 Aug 2023
  restoring atom style full from restart
  triclinic box = (0 0 0) to (16.8189 12.842 16.0755) with tilt (-8.3798 1.195 0.4312)
WARNING: Triclinic box skew is large. LAMMPS will run inefficiently. (src/domain.cpp:220)
  2 by 2 by 2 MPI processor grid
  pair style reaxff stores no restart info
  274 atoms
Finding 1-2 1-3 1-4 neighbors ...
  special bond factors lj:    0        0        0       
  special bond factors coul:  0        0        0       
     0 = max # of 1-2 neighbors
     0 = max # of 1-3 neighbors
     0 = max # of 1-4 neighbors
     1 = max # of special neighbors
  special bonds CPU = 0.000 seconds
  read_restart CPU = 0.002 seconds
*****debug*****
xy = -8.3797999999999994714, deltaxy = 0.083798
xz = 1.1950000000000000622, deltaxz = -0.01195
yz = 0.43120000000000002771, deltayz = -0.004312
*****
*****Negative-deform 5 starts.*****
Resetting global fix info from restart file:
  fix style: nvt, fix ID: fnvt
All restart file global fix info was re-assigned
Neighbor list info ...
  update: every = 10 steps, delay = 0 steps, check = no
  max neighbors/atom: 2000, page size: 100000
  master list distance cutoff = 12
  ghost atom cutoff = 12
  binsize = 6, bins = 5 3 3
  2 neighbor lists, perpetual/occasional/extra = 2 0 0
  (1) pair reaxff, perpetual
      attributes: half, newton off, ghost
      pair build: half/bin/newtoff/ghost
      stencil: full/ghost/bin/3d
      bin: standard
  (2) fix qeq/reaxff, perpetual, copy from (1)
      attributes: half, newton off
      pair build: copy
      stencil: none
      bin: none
Setting up Verlet run ...
  Unit style    : real
  Current step  : 0
  Time step     : 0.5
Per MPI rank memory allocation (min/avg/max) = 109.8 | 110.7 | 111.8 Mbytes
   Step          Temp          PotEng         Press          Volume           Lx             Ly             Lz      
         0   340.51122     -31988.881     -4396.9532      3472.1201      16.8189        12.842         16.0755      
       100   278.51583     -32029.901     -12464.99       3472.1201      16.8189        12.842         16.0755      
       200   249.10091     -32037.168     -18899.4        3472.1201      16.8189        12.842         16.0755      
       300   302.59659     -32057.408     -13142.334      3472.1201      16.8189        12.842         16.0755      
       400   321.5416      -32037.515      10313.11       3472.1201      16.8189        12.842         16.0755      
       500   311.86565     -32016.068     -302.83094      3472.1201      16.8189        12.842         16.0755      
Loop time of 8.87112 on 8 procs for 500 steps with 274 atoms

Performance: 2.435 ns/day, 9.857 hours/ns, 56.363 timesteps/s, 15.443 katom-step/s
98.2% CPU use with 8 MPI tasks x 1 OpenMP threads

MPI task timing breakdown:
Section |  min time  |  avg time  |  max time  |%varavg| %total
---------------------------------------------------------------
Pair    | 6.3542     | 6.6351     | 6.84       |   6.5 | 74.79
Bond    | 0.0008383  | 0.00088065 | 0.00092386 |   0.0 |  0.01
Neigh   | 0.76204    | 0.77926    | 0.79545    |   1.2 |  8.78
Comm    | 0.11942    | 0.32608    | 0.60884    |  29.8 |  3.68
Output  | 0.0010392  | 0.0011693  | 0.0012875  |   0.2 |  0.01
Modify  | 1.1014     | 1.1196     | 1.1386     |   1.1 | 12.62
Other   |            | 0.009086   |            |       |  0.10

Nlocal:          34.25 ave          40 max          19 min
Histogram: 1 0 0 1 0 0 0 1 0 5
Nghost:        2819.12 ave        2851 max        2795 min
Histogram: 1 1 1 1 0 1 2 0 0 1
Neighs:        18911.4 ave       22032 max       10747 min
Histogram: 1 0 0 1 0 0 0 1 1 4

Total # of neighbors = 151291
Ave neighs/atom = 552.15693
Ave special neighs/atom = 0
Neighbor list builds = 50
Dangerous builds not checked
OMP_NUM_THREADS environment is not set. Defaulting to 1 thread. (src/comm.cpp:98)
  using 1 OpenMP thread(s) per MPI task
Reading restart file ...
  restart file = 2 Aug 2023, LAMMPS = 2 Aug 2023
  restoring atom style full from restart
  triclinic box = (0 0 0) to (16.8189 12.842 16.0755) with tilt (-8.3798 1.195 0.4312)
WARNING: Triclinic box skew is large. LAMMPS will run inefficiently. (src/domain.cpp:220)
  2 by 2 by 2 MPI processor grid
  pair style reaxff stores no restart info
  274 atoms
Finding 1-2 1-3 1-4 neighbors ...
  special bond factors lj:    0        0        0       
  special bond factors coul:  0        0        0       
     0 = max # of 1-2 neighbors
     0 = max # of 1-3 neighbors
     0 = max # of 1-4 neighbors
     1 = max # of special neighbors
  special bonds CPU = 0.000 seconds
  read_restart CPU = 0.002 seconds
*****Positive-deform 5 starts.*****
Resetting global fix info from restart file:
  fix style: nvt, fix ID: fnvt
All restart file global fix info was re-assigned
Neighbor list info ...
  update: every = 10 steps, delay = 0 steps, check = no
  max neighbors/atom: 2000, page size: 100000
  master list distance cutoff = 12
  ghost atom cutoff = 12
  binsize = 6, bins = 5 3 3
  2 neighbor lists, perpetual/occasional/extra = 2 0 0
  (1) pair reaxff, perpetual
      attributes: half, newton off, ghost
      pair build: half/bin/newtoff/ghost
      stencil: full/ghost/bin/3d
      bin: standard
  (2) fix qeq/reaxff, perpetual, copy from (1)
      attributes: half, newton off
      pair build: copy
      stencil: none
      bin: none
Setting up Verlet run ...
  Unit style    : real
  Current step  : 0
  Time step     : 0.5
Per MPI rank memory allocation (min/avg/max) = 109.8 | 110.8 | 111.8 Mbytes
   Step          Temp          PotEng         Press          Volume           Lx             Ly             Lz      
         0   340.51122     -31988.881     -4396.9532      3472.1201      16.8189        12.842         16.0755      
       100   278.84525     -32030.229     -11472.732      3472.1201      16.8189        12.842         16.0755      
       200   259.85513     -32042.833     -13188.561      3472.1201      16.8189        12.842         16.0755      
       300   298.39157     -32055.729     -11845.572      3472.1201      16.8189        12.842         16.0755      
       400   314.1984      -32034.924      6258.1425      3472.1201      16.8189        12.842         16.0755      
       500   297.91234     -32006.663     -8582.4266      3472.1201      16.8189        12.842         16.0755      
Loop time of 8.88197 on 8 procs for 500 steps with 274 atoms

Performance: 2.432 ns/day, 9.869 hours/ns, 56.294 timesteps/s, 15.425 katom-step/s
98.3% CPU use with 8 MPI tasks x 1 OpenMP threads

MPI task timing breakdown:
Section |  min time  |  avg time  |  max time  |%varavg| %total
---------------------------------------------------------------
Pair    | 6.3767     | 6.6536     | 6.8429     |   6.5 | 74.91
Bond    | 0.00084158 | 0.00087344 | 0.00092051 |   0.0 |  0.01
Neigh   | 0.768      | 0.78233    | 0.79987    |   1.2 |  8.81
Comm    | 0.12434    | 0.31543    | 0.59454    |  30.3 |  3.55
Output  | 0.0010308  | 0.0011565  | 0.0012713  |   0.2 |  0.01
Modify  | 1.0995     | 1.1194     | 1.1357     |   1.1 | 12.60
Other   |            | 0.009214   |            |       |  0.10

Nlocal:          34.25 ave          40 max          22 min
Histogram: 1 0 0 1 0 0 0 2 2 2
Nghost:        2830.75 ave        2854 max        2804 min
Histogram: 1 1 1 0 0 2 0 0 0 3
Neighs:          18933 ave       22072 max       12413 min
Histogram: 1 0 0 1 0 0 0 2 2 2

Total # of neighbors = 151464
Ave neighs/atom = 552.78832
Ave special neighs/atom = 0
Neighbor list builds = 50
Dangerous builds not checked
OMP_NUM_THREADS environment is not set. Defaulting to 1 thread. (src/comm.cpp:98)
  using 1 OpenMP thread(s) per MPI task
Reading restart file ...
  restart file = 2 Aug 2023, LAMMPS = 2 Aug 2023
  restoring atom style full from restart
  triclinic box = (0 0 0) to (16.8189 12.842 16.0755) with tilt (-8.3798 1.195 0.4312)
WARNING: Triclinic box skew is large. LAMMPS will run inefficiently. (src/domain.cpp:220)
  2 by 2 by 2 MPI processor grid
  pair style reaxff stores no restart info
  274 atoms
Finding 1-2 1-3 1-4 neighbors ...
  special bond factors lj:    0        0        0       
  special bond factors coul:  0        0        0       
     0 = max # of 1-2 neighbors
     0 = max # of 1-3 neighbors
     0 = max # of 1-4 neighbors
     1 = max # of special neighbors
  special bonds CPU = 0.000 seconds
  read_restart CPU = 0.001 seconds
*****debug*****
xy = -8.3797999999999994714, deltaxy = 0.083798
xz = 1.1950000000000000622, deltaxz = -0.01195
yz = 0.43120000000000002771, deltayz = -0.004312
*****
*****Negative-deform 6 starts.*****
Resetting global fix info from restart file:
  fix style: nvt, fix ID: fnvt
All restart file global fix info was re-assigned
Neighbor list info ...
  update: every = 10 steps, delay = 0 steps, check = no
  max neighbors/atom: 2000, page size: 100000
  master list distance cutoff = 12
  ghost atom cutoff = 12
  binsize = 6, bins = 5 3 3
  2 neighbor lists, perpetual/occasional/extra = 2 0 0
  (1) pair reaxff, perpetual
      attributes: half, newton off, ghost
      pair build: half/bin/newtoff/ghost
      stencil: full/ghost/bin/3d
      bin: standard
  (2) fix qeq/reaxff, perpetual, copy from (1)
      attributes: half, newton off
      pair build: copy
      stencil: none
      bin: none
Setting up Verlet run ...
  Unit style    : real
  Current step  : 0
  Time step     : 0.5
Per MPI rank memory allocation (min/avg/max) = 109.8 | 110.7 | 111.8 Mbytes
   Step          Temp          PotEng         Press          Volume           Lx             Ly             Lz      
         0   340.51122     -31988.881     -4396.9532      3472.1201      16.8189        12.842         16.0755      
       100   278.68916     -32030.233     -11993.201      3472.1201      16.8189        12.842         16.0755      
       200   250.14948     -32036.702     -14441.267      3472.1201      16.8189        12.842         16.0755      
       300   304.42699     -32057.46      -9593.8723      3472.1201      16.8189        12.842         16.0755      
       400   310.40313     -32025.268      1262.6217      3472.1201      16.8189        12.842         16.0755      
       500   313.96956     -32014.471     -1659.4023      3472.1201      16.8189        12.842         16.0755      
Loop time of 8.88372 on 8 procs for 500 steps with 274 atoms

Performance: 2.431 ns/day, 9.871 hours/ns, 56.283 timesteps/s, 15.421 katom-step/s
98.5% CPU use with 8 MPI tasks x 1 OpenMP threads

MPI task timing breakdown:
Section |  min time  |  avg time  |  max time  |%varavg| %total
---------------------------------------------------------------
Pair    | 6.3899     | 6.65       | 6.8486     |   6.3 | 74.86
Bond    | 0.00084537 | 0.00088029 | 0.00094277 |   0.0 |  0.01
Neigh   | 0.76266    | 0.78301    | 0.79699    |   1.3 |  8.81
Comm    | 0.11318    | 0.31363    | 0.57582    |  29.4 |  3.53
Output  | 0.0009826  | 0.001122   | 0.0012278  |   0.3 |  0.01
Modify  | 1.11       | 1.1261     | 1.1486     |   1.2 | 12.68
Other   |            | 0.009023   |            |       |  0.10

Nlocal:          34.25 ave          40 max          20 min
Histogram: 1 0 0 0 0 1 0 1 2 3
Nghost:        2823.75 ave        2860 max        2801 min
Histogram: 3 1 0 0 0 2 1 0 0 1
Neighs:        18923.6 ave       22070 max       11290 min
Histogram: 1 0 0 0 0 1 1 1 2 2

Total # of neighbors = 151389
Ave neighs/atom = 552.5146
Ave special neighs/atom = 0
Neighbor list builds = 50
Dangerous builds not checked
OMP_NUM_THREADS environment is not set. Defaulting to 1 thread. (src/comm.cpp:98)
  using 1 OpenMP thread(s) per MPI task
Reading restart file ...
  restart file = 2 Aug 2023, LAMMPS = 2 Aug 2023
  restoring atom style full from restart
  triclinic box = (0 0 0) to (16.8189 12.842 16.0755) with tilt (-8.3798 1.195 0.4312)
WARNING: Triclinic box skew is large. LAMMPS will run inefficiently. (src/domain.cpp:220)
  2 by 2 by 2 MPI processor grid
  pair style reaxff stores no restart info
  274 atoms
Finding 1-2 1-3 1-4 neighbors ...
  special bond factors lj:    0        0        0       
  special bond factors coul:  0        0        0       
     0 = max # of 1-2 neighbors
     0 = max # of 1-3 neighbors
     0 = max # of 1-4 neighbors
     1 = max # of special neighbors
  special bonds CPU = 0.000 seconds
  read_restart CPU = 0.002 seconds
*****Positive-deform 6 starts.*****
Resetting global fix info from restart file:
  fix style: nvt, fix ID: fnvt
All restart file global fix info was re-assigned
Neighbor list info ...
  update: every = 10 steps, delay = 0 steps, check = no
  max neighbors/atom: 2000, page size: 100000
  master list distance cutoff = 12
  ghost atom cutoff = 12
  binsize = 6, bins = 5 3 3
  2 neighbor lists, perpetual/occasional/extra = 2 0 0
  (1) pair reaxff, perpetual
      attributes: half, newton off, ghost
      pair build: half/bin/newtoff/ghost
      stencil: full/ghost/bin/3d
      bin: standard
  (2) fix qeq/reaxff, perpetual, copy from (1)
      attributes: half, newton off
      pair build: copy
      stencil: none
      bin: none
Setting up Verlet run ...
  Unit style    : real
  Current step  : 0
  Time step     : 0.5
Per MPI rank memory allocation (min/avg/max) = 109.8 | 110.8 | 111.8 Mbytes
   Step          Temp          PotEng         Press          Volume           Lx             Ly             Lz      
         0   340.51122     -31988.881     -4396.9532      3472.1201      16.8189        12.842         16.0755      
       100   278.80434     -32029.872     -12064.365      3472.1201      16.8189        12.842         16.0755      
       200   249.89052     -32034.161     -17415.259      3472.1201      16.8189        12.842         16.0755      
       300   300.18812     -32057.622     -4353.1497      3472.1201      16.8189        12.842         16.0755      
       400   300.61899     -32025.924      10292.825      3472.1201      16.8189        12.842         16.0755      
       500   318.08233     -32019.831      5339.9011      3472.1201      16.8189        12.842         16.0755      
Loop time of 8.87328 on 8 procs for 500 steps with 274 atoms

Performance: 2.434 ns/day, 9.859 hours/ns, 56.349 timesteps/s, 15.440 katom-step/s
98.2% CPU use with 8 MPI tasks x 1 OpenMP threads

MPI task timing breakdown:
Section |  min time  |  avg time  |  max time  |%varavg| %total
---------------------------------------------------------------
Pair    | 6.3675     | 6.6352     | 6.8394     |   6.5 | 74.78
Bond    | 0.00081533 | 0.00087123 | 0.0009282  |   0.0 |  0.01
Neigh   | 0.76363    | 0.77856    | 0.79917    |   1.3 |  8.77
Comm    | 0.11142    | 0.31688    | 0.58545    |  29.7 |  3.57
Output  | 0.0010635  | 0.0011974  | 0.0013171  |   0.2 |  0.01
Modify  | 1.1095     | 1.1312     | 1.1471     |   1.1 | 12.75
Other   |            | 0.00937    |            |       |  0.11

Nlocal:          34.25 ave          40 max          19 min
Histogram: 1 0 0 1 0 0 0 0 3 3
Nghost:        2809.62 ave        2835 max        2787 min
Histogram: 2 1 1 0 0 0 2 0 0 2
Neighs:        18911.6 ave       22031 max       10730 min
Histogram: 1 0 0 1 0 0 0 0 3 3

Total # of neighbors = 151293
Ave neighs/atom = 552.16423
Ave special neighs/atom = 0
Neighbor list builds = 50
Dangerous builds not checked
Total wall time: 0:01:56
