LAMMPS (2 Aug 2023 - Update 2)
  using 2 OpenMP thread(s) per MPI task
Reading data file ...
  triclinic box = (0 0 0) to (15.724 13.9031 17.2465) with tilt (-7.584 0.1778 0.4371)
WARNING: Triclinic box skew is large. LAMMPS will run inefficiently. (src/domain.cpp:220)
  2 by 2 by 2 MPI processor grid
  reading atoms ...
  366 atoms
Finding 1-2 1-3 1-4 neighbors ...
  special bond factors lj:    0        0        0       
  special bond factors coul:  0        0        0       
     0 = max # of 1-2 neighbors
     0 = max # of 1-3 neighbors
     0 = max # of 1-4 neighbors
     1 = max # of special neighbors
  special bonds CPU = 0.001 seconds
  read_data CPU = 0.012 seconds
WARNING: Van der Waals parameters for element SI indicate inner wall+shielding, but earlier atoms indicate a different van der Waals method. This may cause division-by-zero errors. Keeping van der Waals setting for earlier atoms. (src/REAXFF/reaxff_ffield.cpp:251)
*****Minimization starts.*****

CITE-CITE-CITE-CITE-CITE-CITE-CITE-CITE-CITE-CITE-CITE-CITE-CITE

Your simulation uses code contributions which should be cited:
- pair reaxff command: doi:10.1016/j.parco.2011.08.005
- fix qeq/reaxff command: doi:10.1016/j.parco.2011.08.005
The log file lists these citations in BibTeX format.

CITE-CITE-CITE-CITE-CITE-CITE-CITE-CITE-CITE-CITE-CITE-CITE-CITE

WARNING: Fix qeq/reaxff group is not charge neutral, net charge = -29.52 (src/REAXFF/fix_qeq_reaxff.cpp:392)
Neighbor list info ...
  update: every = 1 steps, delay = 0 steps, check = yes
  max neighbors/atom: 2000, page size: 100000
  master list distance cutoff = 12
  ghost atom cutoff = 12
  binsize = 6, bins = 4 3 3
  2 neighbor lists, perpetual/occasional/extra = 2 0 0
  (1) pair reaxff, perpetual
      attributes: half, newton off, ghost
      pair build: half/bin/newtoff/ghost
      stencil: full/ghost/bin/3d
      bin: standard
  (2) fix qeq/reaxff, perpetual, copy from (1)
      attributes: half, newton off
      pair build: copy
      stencil: none
      bin: none
Setting up cg style minimization ...
  Unit style    : real
  Current step  : 0
Per MPI rank memory allocation (min/avg/max) = 134 | 136.3 | 139.2 Mbytes
   Step          Temp          E_pair         E_mol          TotEng         Press     
         0   0             -40261.317      0             -40261.317     -891.25124    
        55   0             -41382.513      0             -41382.513     -14873.577    
Loop time of 5.66434 on 16 procs for 55 steps with 366 atoms

96.8% CPU use with 8 MPI tasks x 2 OpenMP threads

Minimization stats:
  Stopping criterion = energy tolerance
  Energy initial, next-to-last, final = 
     -40261.3171075932  -41382.5049795122  -41382.5134018035
  Force two-norm initial, final = 1496.0927 99.630518
  Force max component initial, final = 339.92512 46.341031
  Final line search alpha, max atom move = 0.0019208878 0.089015921
  Iterations, force evaluations = 55 200

MPI task timing breakdown:
Section |  min time  |  avg time  |  max time  |%varavg| %total
---------------------------------------------------------------
Pair    | 4.03       | 4.174      | 4.2845     |   4.8 | 73.69
Bond    | 3.3578e-05 | 4.3763e-05 | 6.1832e-05 |   0.0 |  0.00
Neigh   | 0          | 0          | 0          |   0.0 |  0.00
Comm    | 0.078038   | 0.18905    | 0.3335     |  22.4 |  3.34
Output  | 0          | 0          | 0          |   0.0 |  0.00
Modify  | 1.2941     | 1.2943     | 1.2945     |   0.0 | 22.85
Other   |            | 0.007007   |            |       |  0.12

Nlocal:          45.75 ave          50 max          38 min
Histogram: 1 0 0 0 0 2 1 1 1 2
Nghost:        3435.12 ave        3497 max        3372 min
Histogram: 2 0 0 0 2 2 0 0 0 2
Neighs:        31070.1 ave       33753 max       26028 min
Histogram: 1 0 0 0 1 1 1 1 1 2

Total # of neighbors = 248561
Ave neighs/atom = 679.12842
Ave special neighs/atom = 0
Neighbor list builds = 0
Dangerous builds = 0
System init for write_data ...
WARNING: Van der Waals parameters for element SI indicate inner wall+shielding, but earlier atoms indicate a different van der Waals method. This may cause division-by-zero errors. Keeping van der Waals setting for earlier atoms. (src/REAXFF/reaxff_ffield.cpp:251)
WARNING: New thermo_style command, previous thermo_modify settings will be lost (src/output.cpp:903)
Neighbor list info ...
  update: every = 10 steps, delay = 0 steps, check = yes
  max neighbors/atom: 2000, page size: 100000
  master list distance cutoff = 12
  ghost atom cutoff = 12
  binsize = 6, bins = 4 3 3
  2 neighbor lists, perpetual/occasional/extra = 2 0 0
  (1) pair reaxff, perpetual
      attributes: half, newton off, ghost
      pair build: half/bin/newtoff/ghost
      stencil: full/ghost/bin/3d
      bin: standard
  (2) fix qeq/reaxff, perpetual, copy from (1)
      attributes: half, newton off
      pair build: copy
      stencil: none
      bin: none
Setting up Verlet run ...
  Unit style    : real
  Current step  : 0
  Time step     : 0.5
Per MPI rank memory allocation (min/avg/max) = 132.9 | 135 | 137.3 Mbytes
   Step          Temp          PotEng         Press         Density         Volume    
         0   300           -41382.514     -10916.633      1.8952586      3770.2978    
       100   199.77017     -41235.45      -1689.1141      1.8952586      3770.2978    
       200   224.45025     -41199.482     -4879.6028      1.8952586      3770.2978    
       300   267.19272     -41177.533      621.49059      1.8952586      3770.2978    
       400   295.21629     -41147.427     -6993.957       1.8952586      3770.2978    
       500   309.45873     -41126.607     -8636.6477      1.8952586      3770.2978    
       600   313.09424     -41111.742     -11178.291      1.8952586      3770.2978    
       700   318.66552     -41120.965      6815.8764      1.8952586      3770.2978    
       800   298.43295     -41123.933     -2376.994       1.8952586      3770.2978    
       900   306.23816     -41159.902     -1766.4279      1.8952586      3770.2978    
      1000   276.86026     -41137.652      4940.329       1.8952586      3770.2978    
      1100   284.12265     -41125.105     -8720.6862      1.8952586      3770.2978    
      1200   324.04166     -41139.387     -11637.281      1.8952586      3770.2978    
      1300   311.17108     -41135.835     -2571.1148      1.8952586      3770.2978    
      1400   285.24338     -41128.758     -3350.2255      1.8952586      3770.2978    
      1500   300.26303     -41141.382     -4741.035       1.8952586      3770.2978    
      1600   313.77792     -41136.782     -6230.2283      1.8952586      3770.2978    
      1700   304.25817     -41127.223     -11165.97       1.8952586      3770.2978    
      1800   290.83649     -41126.089     -5882.0085      1.8952586      3770.2978    
      1900   288.87162     -41151.161      3709.1316      1.8952586      3770.2978    
      2000   301.08526     -41165.609     -3520.3799      1.8952586      3770.2978    
      2100   300.32893     -41139.066      5396.3563      1.8952586      3770.2978    
      2200   326.07738     -41144.907     -8987.4022      1.8952586      3770.2978    
      2300   316.62112     -41134.673     -11772.041      1.8952586      3770.2978    
      2400   288.55361     -41115.064     -2880.3283      1.8952586      3770.2978    
      2500   306.71994     -41141.502     -5631.2267      1.8952586      3770.2978    
      2600   292.82751     -41130.516     -5197.1166      1.8952586      3770.2978    
      2700   303.10534     -41142.383     -3976.7154      1.8952586      3770.2978    
      2800   298.06164     -41137.375     -9684.5237      1.8952586      3770.2978    
      2900   304.00715     -41150.121     -1666.015       1.8952586      3770.2978    
      3000   311.23035     -41172.456     -5491.5537      1.8952586      3770.2978    
      3100   301.54072     -41162.66      -11569.979      1.8952586      3770.2978    
      3200   297.90349     -41126.679     -1225.9042      1.8952586      3770.2978    
      3300   313.09681     -41130.386     -11380.327      1.8952586      3770.2978    
      3400   293.44841     -41121.43      -4663.1842      1.8952586      3770.2978    
      3500   294.36993     -41128.598     -7770.2792      1.8952586      3770.2978    
      3600   285.5008      -41139.177      2342.5306      1.8952586      3770.2978    
      3700   277.21864     -41139.223     -12150.783      1.8952586      3770.2978    
      3800   303.91021     -41142.794     -7896.1815      1.8952586      3770.2978    
      3900   323.89986     -41143.741     -1016.704       1.8952586      3770.2978    
      4000   290.22696     -41111.85       3393.5027      1.8952586      3770.2978    
      4100   306.71421     -41132.141     -1510.0571      1.8952586      3770.2978    
      4200   291.50641     -41129.843     -3868.8412      1.8952586      3770.2978    
      4300   290.44096     -41155.691     -1671.2178      1.8952586      3770.2978    
      4400   292.54755     -41160.787     -4753.3817      1.8952586      3770.2978    
      4500   304.56668     -41145.049     -6944.835       1.8952586      3770.2978    
      4600   294.71003     -41126.832     -3923.4404      1.8952586      3770.2978    
      4700   303.66367     -41139.485      1136.5184      1.8952586      3770.2978    
      4800   320.26736     -41152.096     -10691.732      1.8952586      3770.2978    
      4900   296.4264      -41125.668     -4905.5195      1.8952586      3770.2978    
      5000   298.37903     -41131.373      8310.2491      1.8952586      3770.2978    
Loop time of 123.882 on 16 procs for 5000 steps with 366 atoms

Performance: 1.744 ns/day, 13.765 hours/ns, 40.361 timesteps/s, 14.772 katom-step/s
98.9% CPU use with 8 MPI tasks x 2 OpenMP threads

MPI task timing breakdown:
Section |  min time  |  avg time  |  max time  |%varavg| %total
---------------------------------------------------------------
Pair    | 101.9      | 104.12     | 106.65     |  17.7 | 84.05
Bond    | 0.00076575 | 0.0009581  | 0.001267   |   0.0 |  0.00
Neigh   | 1.6114     | 1.6393     | 1.6696     |   1.5 |  1.32
Comm    | 1.6693     | 4.1957     | 6.4208     |  88.1 |  3.39
Output  | 0.0018496  | 0.0019915  | 0.0028766  |   0.7 |  0.00
Modify  | 13.808     | 13.838     | 13.869     |   0.5 | 11.17
Other   |            | 0.08534    |            |       |  0.07

Nlocal:          45.75 ave          54 max          41 min
Histogram: 1 1 2 2 0 1 0 0 0 1
Nghost:        3439.12 ave        3497 max        3381 min
Histogram: 1 1 0 1 2 0 1 0 1 1
Neighs:        31051.5 ave       36268 max       27965 min
Histogram: 1 1 2 1 1 1 0 0 0 1

Total # of neighbors = 248412
Ave neighs/atom = 678.72131
Ave special neighs/atom = 0
Neighbor list builds = 64
Dangerous builds = 0
System init for write_data ...
System init for write_restart ...
  using 2 OpenMP thread(s) per MPI task
Reading restart file ...
  restart file = 2 Aug 2023, LAMMPS = 2 Aug 2023
  restoring atom style full from restart
  triclinic box = (0 0 0) to (15.724 13.9031 17.2465) with tilt (-7.584 0.1778 0.4371)
WARNING: Triclinic box skew is large. LAMMPS will run inefficiently. (src/domain.cpp:220)
  2 by 2 by 2 MPI processor grid
  pair style reaxff stores no restart info
  366 atoms
Finding 1-2 1-3 1-4 neighbors ...
  special bond factors lj:    0        0        0       
  special bond factors coul:  0        0        0       
     0 = max # of 1-2 neighbors
     0 = max # of 1-3 neighbors
     0 = max # of 1-4 neighbors
     1 = max # of special neighbors
  special bonds CPU = 0.000 seconds
  read_restart CPU = 0.002 seconds
*****debug*****
xy = -7.5839999999999996305, deltaxy = 0.7584
xz = 0.17780000000000001359, deltaxz = -0.01778
yz = 0.43709999999999998854, deltayz = -0.04371
*****
*****Negative-deform 1 starts.*****
WARNING: Van der Waals parameters for element SI indicate inner wall+shielding, but earlier atoms indicate a different van der Waals method. This may cause division-by-zero errors. Keeping van der Waals setting for earlier atoms. (src/REAXFF/reaxff_ffield.cpp:251)
Resetting global fix info from restart file:
  fix style: nvt, fix ID: fnvt
All restart file global fix info was re-assigned
Neighbor list info ...
  update: every = 10 steps, delay = 0 steps, check = yes
  max neighbors/atom: 2000, page size: 100000
  master list distance cutoff = 12
  ghost atom cutoff = 12
  binsize = 6, bins = 4 3 3
  2 neighbor lists, perpetual/occasional/extra = 2 0 0
  (1) pair reaxff, perpetual
      attributes: half, newton off, ghost
      pair build: half/bin/newtoff/ghost
      stencil: full/ghost/bin/3d
      bin: standard
  (2) fix qeq/reaxff, perpetual, copy from (1)
      attributes: half, newton off
      pair build: copy
      stencil: none
      bin: none
Setting up Verlet run ...
  Unit style    : real
  Current step  : 0
  Time step     : 0.5
Per MPI rank memory allocation (min/avg/max) = 134.1 | 135.3 | 136.7 Mbytes
   Step          Temp          PotEng         Press          Volume           Lx             Ly             Lz      
         0   298.37903     -41131.373      8311.3099      3770.2978      15.724         13.9031        17.2465      
       100   282.78222     -41121.849      5015.2164      3762.7572      15.692552      13.9031        17.2465      
       200   297.38453     -41136.495     -468.97677      3755.2166      15.661104      13.9031        17.2465      
       300   290.76857     -41140.958     -5536.3681      3747.676       15.629656      13.9031        17.2465      
       400   293.7765      -41153.123     -5511.8529      3740.1354      15.598208      13.9031        17.2465      
       500   279.9473      -41131.443     -2611.7984      3732.5948      15.56676       13.9031        17.2465      
       600   283.31334     -41092.751      7377.7024      3725.0542      15.535312      13.9031        17.2465      
       700   325.39926     -41126.663     -8948.6697      3717.5136      15.503864      13.9031        17.2465      
       800   328.79612     -41149.112      7243.8255      3709.973       15.472416      13.9031        17.2465      
       900   303.16337     -41137.657     -2234.0742      3702.4324      15.440968      13.9031        17.2465      
      1000   301.96118     -41138.988      107.60691      3694.8918      15.40952       13.9031        17.2465      
      1100   304.77499     -41132.153      6163.9378      3687.3512      15.378072      13.9031        17.2465      
      1200   289.3755      -41109.643      2290.3451      3679.8107      15.346624      13.9031        17.2465      
      1300   293.97231     -41136.094      13934.067      3672.2701      15.315176      13.9031        17.2465      
      1400   280.70332     -41133.687     -6436.6173      3664.7295      15.283728      13.9031        17.2465      
      1500   313.49675     -41160.579      6247.6122      3657.1889      15.25228       13.9031        17.2465      
      1600   287.73746     -41118.128      2621.0307      3649.6483      15.220832      13.9031        17.2465      
      1700   306.93902     -41103.159      7460.7266      3642.1077      15.189384      13.9031        17.2465      
      1800   325.75264     -41112.78       12065.79       3634.5671      15.157936      13.9031        17.2465      
      1900   304.35428     -41114.765      17160.165      3627.0265      15.126488      13.9031        17.2465      
      2000   307.12326     -41128.387     -735.52634      3619.4859      15.09504       13.9031        17.2465      
      2100   297.14558     -41133.891      10304.935      3611.9453      15.063592      13.9031        17.2465      
      2200   298.23343     -41142.221      9040.7677      3604.4047      15.032144      13.9031        17.2465      
      2300   301.55587     -41147.905      19099.21       3596.8641      15.000696      13.9031        17.2465      
      2400   295.65345     -41137.563      4430.3156      3589.3235      14.969248      13.9031        17.2465      
      2500   290.86675     -41146.695      15462.15       3581.7829      14.9378        13.9031        17.2465      
      2600   288.05776     -41138.646      20086.909      3574.2423      14.906352      13.9031        17.2465      
      2700   294.63355     -41131.722      16879.804      3566.7017      14.874904      13.9031        17.2465      
      2800   303.54873     -41113.357      12833.956      3559.1611      14.843456      13.9031        17.2465      
      2900   312.47658     -41078.811      19724.084      3551.6205      14.812008      13.9031        17.2465      
      3000   331.1114      -41090.17       14908.945      3544.0799      14.78056       13.9031        17.2465      
      3100   305.87297     -41084.767      14854.145      3536.5393      14.749112      13.9031        17.2465      
      3200   321.49926     -41116.36       26598.316      3528.9987      14.717664      13.9031        17.2465      
      3300   298.40135     -41113.57       16637.217      3521.4581      14.686216      13.9031        17.2465      
      3400   288.64157     -41108.713      27107.357      3513.9175      14.654768      13.9031        17.2465      
      3500   307.44822     -41111.66       24544.719      3506.377       14.62332       13.9031        17.2465      
      3600   304.12973     -41125.035      31046.635      3498.8364      14.591872      13.9031        17.2465      
      3700   285.12571     -41107.979      31812.957      3491.2958      14.560424      13.9031        17.2465      
      3800   294.35103     -41109.458      14304.632      3483.7552      14.528976      13.9031        17.2465      
      3900   283.68049     -41087.793      18053.945      3476.2146      14.497528      13.9031        17.2465      
      4000   311.26533     -41080.916      26022.521      3468.674       14.46608       13.9031        17.2465      
      4100   314.43792     -41064.594      32588.48       3461.1334      14.434632      13.9031        17.2465      
      4200   309.305       -41069.489      29487.183      3453.5928      14.403184      13.9031        17.2465      
      4300   313.60289     -41095.688      18699.122      3446.0522      14.371736      13.9031        17.2465      
      4400   277.14504     -41047.104      32910.774      3438.5116      14.340288      13.9031        17.2465      
      4500   304.53187     -41059.739      39214.683      3430.971       14.30884       13.9031        17.2465      
      4600   320.94095     -41070.101      53958.016      3423.4304      14.277392      13.9031        17.2465      
      4700   306.94661     -41064.667      31224.675      3415.8898      14.245944      13.9031        17.2465      
      4800   297.31981     -41048.206      37980.519      3408.3492      14.214496      13.9031        17.2465      
      4900   284.50326     -41037.764      53556.241      3400.8086      14.183048      13.9031        17.2465      
      5000   293.58683     -41048.999      42663.021      3393.268       14.1516        13.9031        17.2465      
Loop time of 133.57 on 16 procs for 5000 steps with 366 atoms

Performance: 1.617 ns/day, 14.841 hours/ns, 37.434 timesteps/s, 13.701 katom-step/s
98.9% CPU use with 8 MPI tasks x 2 OpenMP threads

MPI task timing breakdown:
Section |  min time  |  avg time  |  max time  |%varavg| %total
---------------------------------------------------------------
Pair    | 110.48     | 112.89     | 115.54     |  15.7 | 84.51
Bond    | 0.0007673  | 0.00096441 | 0.0012078  |   0.0 |  0.00
Neigh   | 1.5757     | 1.6121     | 1.637      |   1.7 |  1.21
Comm    | 1.1806     | 3.8284     | 6.258      |  85.5 |  2.87
Output  | 0.010696   | 0.012266   | 0.013509   |   0.8 |  0.01
Modify  | 15.12      | 15.143     | 15.176     |   0.5 | 11.34
Other   |            | 0.08702    |            |       |  0.07

Nlocal:          45.75 ave          54 max          41 min
Histogram: 1 0 2 3 1 0 0 0 0 1
Nghost:        3654.75 ave        3714 max        3610 min
Histogram: 2 0 0 2 1 1 0 1 0 1
Neighs:          34570 ave       40528 max       31340 min
Histogram: 1 1 2 2 1 0 0 0 0 1

Total # of neighbors = 276560
Ave neighs/atom = 755.62842
Ave special neighs/atom = 0
Neighbor list builds = 60
Dangerous builds = 0
  using 2 OpenMP thread(s) per MPI task
Reading restart file ...
  restart file = 2 Aug 2023, LAMMPS = 2 Aug 2023
  restoring atom style full from restart
  triclinic box = (0 0 0) to (15.724 13.9031 17.2465) with tilt (-7.584 0.1778 0.4371)
WARNING: Triclinic box skew is large. LAMMPS will run inefficiently. (src/domain.cpp:220)
  2 by 2 by 2 MPI processor grid
  pair style reaxff stores no restart info
  366 atoms
Finding 1-2 1-3 1-4 neighbors ...
  special bond factors lj:    0        0        0       
  special bond factors coul:  0        0        0       
     0 = max # of 1-2 neighbors
     0 = max # of 1-3 neighbors
     0 = max # of 1-4 neighbors
     1 = max # of special neighbors
  special bonds CPU = 0.000 seconds
  read_restart CPU = 0.002 seconds
*****Positive-deform 1 starts.*****
WARNING: Van der Waals parameters for element SI indicate inner wall+shielding, but earlier atoms indicate a different van der Waals method. This may cause division-by-zero errors. Keeping van der Waals setting for earlier atoms. (src/REAXFF/reaxff_ffield.cpp:251)
Resetting global fix info from restart file:
  fix style: nvt, fix ID: fnvt
All restart file global fix info was re-assigned
WARNING: Compute rdf cutoff less than neighbor cutoff - forcing a needless neighbor list build (src/compute_rdf.cpp:179)
Neighbor list info ...
  update: every = 10 steps, delay = 0 steps, check = yes
  max neighbors/atom: 2000, page size: 100000
  master list distance cutoff = 12
  ghost atom cutoff = 12
  binsize = 6, bins = 4 3 3
  3 neighbor lists, perpetual/occasional/extra = 2 1 0
  (1) pair reaxff, perpetual
      attributes: half, newton off, ghost
      pair build: half/bin/newtoff/ghost
      stencil: full/ghost/bin/3d
      bin: standard
  (2) compute rdf, occasional
      attributes: half, newton on, cut 7
      pair build: half/bin/newton/tri
      stencil: half/bin/3d/tri
      bin: standard
  (3) fix qeq/reaxff, perpetual, copy from (1)
      attributes: half, newton off
      pair build: copy
      stencil: none
      bin: none
Setting up Verlet run ...
  Unit style    : real
  Current step  : 0
  Time step     : 0.5
Per MPI rank memory allocation (min/avg/max) = 135.2 | 136.4 | 137.8 Mbytes
   Step          Temp          PotEng         Press          Volume           Lx             Ly             Lz      
         0   298.37903     -41131.373      8311.3099      3770.2978      15.724         13.9031        17.2465      
       100   282.81882     -41121.893      5059.4784      3777.8384      15.755448      13.9031        17.2465      
       200   298.86346     -41136.925     -548.63087      3785.379       15.786896      13.9031        17.2465      
       300   298.60592     -41139.189     -11079.164      3792.9196      15.818344      13.9031        17.2465      
       400   307.61499     -41143.803     -13608.345      3800.4602      15.849792      13.9031        17.2465      
       500   296.96636     -41114.733     -4936.8032      3808.0008      15.88124       13.9031        17.2465      
       600   295.81058     -41095.838     -5691.508       3815.5414      15.912688      13.9031        17.2465      
       700   312.78853     -41098.485     -10009.723      3823.082       15.944136      13.9031        17.2465      
       800   321.76069     -41118.688     -5494.3159      3830.6226      15.975584      13.9031        17.2465      
       900   292.80656     -41123.975     -8524.6068      3838.1632      16.007032      13.9031        17.2465      
      1000   301.65267     -41134.136     -10431.722      3845.7038      16.03848       13.9031        17.2465      
      1100   310.75765     -41121.007     -8692.2595      3853.2443      16.069928      13.9031        17.2465      
      1200   311.17849     -41095.568     -10560.449      3860.7849      16.101376      13.9031        17.2465      
      1300   292.20197     -41078.383     -7883.8912      3868.3255      16.132824      13.9031        17.2465      
      1400   295.67716     -41119.728     -10249.403      3875.8661      16.164272      13.9031        17.2465      
      1500   296.88559     -41115.919     -15473.31       3883.4067      16.19572       13.9031        17.2465      
      1600   297.81683     -41094.146     -15869.287      3890.9473      16.227168      13.9031        17.2465      
      1700   309.36611     -41085.264     -16808.566      3898.4879      16.258616      13.9031        17.2465      
      1800   314.93256     -41095.02      -20812.408      3906.0285      16.290064      13.9031        17.2465      
      1900   296.31932     -41084.225     -9290.5112      3913.5691      16.321512      13.9031        17.2465      
      2000   281.08958     -41071.392     -19267.71       3921.1097      16.35296       13.9031        17.2465      
      2100   300.48174     -41085.581     -22308.834      3928.6503      16.384408      13.9031        17.2465      
      2200   285.10302     -41078.111     -12263.675      3936.1909      16.415856      13.9031        17.2465      
      2300   295.66996     -41081.031     -21854.249      3943.7315      16.447304      13.9031        17.2465      
      2400   308.66835     -41065.308     -22597.358      3951.2721      16.478752      13.9031        17.2465      
      2500   301.32642     -41031.847     -15642.164      3958.8127      16.5102        13.9031        17.2465      
      2600   312.84127     -41049.908     -7087.0592      3966.3533      16.541648      13.9031        17.2465      
      2700   295.9892      -41067.77      -11019.303      3973.8939      16.573096      13.9031        17.2465      
      2800   286.39125     -41046.736     -18405.379      3981.4345      16.604544      13.9031        17.2465      
      2900   321.77618     -41067.855     -20525.772      3988.9751      16.635992      13.9031        17.2465      
      3000   302.33312     -41045.129     -21847.461      3996.5157      16.66744       13.9031        17.2465      
      3100   307.87684     -41057.9       -22950.989      4004.0563      16.698888      13.9031        17.2465      
      3200   283.59393     -41046.761     -26613.95       4011.5969      16.730336      13.9031        17.2465      
      3300   285.07991     -41043.087     -18411.353      4019.1375      16.761784      13.9031        17.2465      
      3400   308.91282     -41022.731     -25372.862      4026.678       16.793232      13.9031        17.2465      
      3500   319.03601     -41019.969     -19060.108      4034.2186      16.82468       13.9031        17.2465      
      3600   302.28114     -41011.407     -20868.967      4041.7592      16.856128      13.9031        17.2465      
      3700   294.77599     -41010.392     -29507.264      4049.2998      16.887576      13.9031        17.2465      
      3800   309.27738     -41026.915     -20971.686      4056.8404      16.919024      13.9031        17.2465      
      3900   303.78035     -41005.06      -29476.646      4064.381       16.950472      13.9031        17.2465      
      4000   313.97241     -40968.067     -37745.137      4071.9216      16.98192       13.9031        17.2465      
      4100   297.67479     -40957.577     -30159.084      4079.4622      17.013368      13.9031        17.2465      
      4200   304.84754     -40983.46      -36122.842      4087.0028      17.044816      13.9031        17.2465      
      4300   304.58222     -40994.458     -33709.789      4094.5434      17.076264      13.9031        17.2465      
      4400   288.22518     -40980.881     -25821.455      4102.084       17.107712      13.9031        17.2465      
      4500   306.57015     -40995.062     -34775.986      4109.6246      17.13916       13.9031        17.2465      
      4600   307.47713     -40962.166     -32521.515      4117.1652      17.170608      13.9031        17.2465      
      4700   326.0841      -40946.698     -33563.574      4124.7058      17.202056      13.9031        17.2465      
      4800   306.09414     -40934.582     -32717.663      4132.2464      17.233504      13.9031        17.2465      
      4900   320.01504     -40961.42      -32940.131      4139.787       17.264952      13.9031        17.2465      
      5000   307.01357     -40952.284     -30692.144      4147.3276      17.2964        13.9031        17.2465      
Loop time of 114.207 on 16 procs for 5000 steps with 366 atoms

Performance: 1.891 ns/day, 12.690 hours/ns, 43.780 timesteps/s, 16.024 katom-step/s
98.7% CPU use with 8 MPI tasks x 2 OpenMP threads

MPI task timing breakdown:
Section |  min time  |  avg time  |  max time  |%varavg| %total
---------------------------------------------------------------
Pair    | 94.285     | 96.152     | 97.718     |  12.2 | 84.19
Bond    | 0.00074751 | 0.00093852 | 0.0012038  |   0.0 |  0.00
Neigh   | 1.3075     | 1.3251     | 1.3444     |   1.0 |  1.16
Comm    | 1.2958     | 2.8593     | 4.7294     |  70.9 |  2.50
Output  | 0.011132   | 0.012554   | 0.013903   |   0.8 |  0.01
Modify  | 13.747     | 13.772     | 13.794     |   0.4 | 12.06
Other   |            | 0.08464    |            |       |  0.07

Nlocal:          45.75 ave          53 max          39 min
Histogram: 1 0 2 1 1 1 0 0 0 2
Nghost:        3250.38 ave        3273 max        3218 min
Histogram: 1 1 0 0 1 0 1 1 0 3
Neighs:        28223.2 ave       32359 max       24127 min
Histogram: 1 0 1 2 1 1 0 0 0 2

Total # of neighbors = 225786
Ave neighs/atom = 616.90164
Ave special neighs/atom = 0
Neighbor list builds = 61
Dangerous builds = 0
  using 2 OpenMP thread(s) per MPI task
Reading restart file ...
  restart file = 2 Aug 2023, LAMMPS = 2 Aug 2023
  restoring atom style full from restart
  triclinic box = (0 0 0) to (15.724 13.9031 17.2465) with tilt (-7.584 0.1778 0.4371)
WARNING: Triclinic box skew is large. LAMMPS will run inefficiently. (src/domain.cpp:220)
  2 by 2 by 2 MPI processor grid
  pair style reaxff stores no restart info
  366 atoms
Finding 1-2 1-3 1-4 neighbors ...
  special bond factors lj:    0        0        0       
  special bond factors coul:  0        0        0       
     0 = max # of 1-2 neighbors
     0 = max # of 1-3 neighbors
     0 = max # of 1-4 neighbors
     1 = max # of special neighbors
  special bonds CPU = 0.000 seconds
  read_restart CPU = 0.002 seconds
*****debug*****
xy = -7.5839999999999996305, deltaxy = 0.7584
xz = 0.17780000000000001359, deltaxz = -0.01778
yz = 0.43709999999999998854, deltayz = -0.04371
*****
*****Negative-deform 2 starts.*****
WARNING: Van der Waals parameters for element SI indicate inner wall+shielding, but earlier atoms indicate a different van der Waals method. This may cause division-by-zero errors. Keeping van der Waals setting for earlier atoms. (src/REAXFF/reaxff_ffield.cpp:251)
Resetting global fix info from restart file:
  fix style: nvt, fix ID: fnvt
All restart file global fix info was re-assigned
Neighbor list info ...
  update: every = 10 steps, delay = 0 steps, check = yes
  max neighbors/atom: 2000, page size: 100000
  master list distance cutoff = 12
  ghost atom cutoff = 12
  binsize = 6, bins = 4 3 3
  2 neighbor lists, perpetual/occasional/extra = 2 0 0
  (1) pair reaxff, perpetual
      attributes: half, newton off, ghost
      pair build: half/bin/newtoff/ghost
      stencil: full/ghost/bin/3d
      bin: standard
  (2) fix qeq/reaxff, perpetual, copy from (1)
      attributes: half, newton off
      pair build: copy
      stencil: none
      bin: none
Setting up Verlet run ...
  Unit style    : real
  Current step  : 0
  Time step     : 0.5
Per MPI rank memory allocation (min/avg/max) = 134.1 | 135.3 | 136.7 Mbytes
   Step          Temp          PotEng         Press          Volume           Lx             Ly             Lz      
         0   298.37903     -41131.373      8311.3099      3770.2978      15.724         13.9031        17.2465      
       100   282.7977      -41121.876      5048.3441      3762.7572      15.724         13.875294      17.2465      
       200   297.13002     -41136.302      5408.3462      3755.2166      15.724         13.847488      17.2465      
       300   299.57328     -41147.882     -18530.643      3747.676       15.724         13.819681      17.2465      
       400   295.42029     -41152.893     -5723.6815      3740.1354      15.724         13.791875      17.2465      
       500   292.08766     -41135.637     -6504.9758      3732.5948      15.724         13.764069      17.2465      
       600   286.14623     -41098.048      9811.2525      3725.0542      15.724         13.736263      17.2465      
       700   292.66403     -41094.568      7612.3322      3717.5136      15.724         13.708457      17.2465      
       800   310.90405     -41130.984     -1874.5804      3709.973       15.724         13.68065       17.2465      
       900   293.79536     -41138.865      6102.6496      3702.4324      15.724         13.652844      17.2465      
      1000   302.0761      -41135.164      6901.8513      3694.8918      15.724         13.625038      17.2465      
      1100   296.89157     -41131.031      10463.667      3687.3512      15.724         13.597232      17.2465      
      1200   289.52872     -41141.13      -2103.216       3679.8107      15.724         13.569426      17.2465      
      1300   290.39482     -41147.533      10290.66       3672.2701      15.724         13.541619      17.2465      
      1400   285.98804     -41140.722      6791.7363      3664.7295      15.724         13.513813      17.2465      
      1500   316.88891     -41126.409      9822.0146      3657.1889      15.724         13.486007      17.2465      
      1600   294.106       -41096.934     -3474.0091      3649.6483      15.724         13.458201      17.2465      
      1700   290.96424     -41118.949      3248.4565      3642.1077      15.724         13.430395      17.2465      
      1800   301.33561     -41139.574      10331.33       3634.5671      15.724         13.402588      17.2465      
      1900   290.8086      -41142.766      27997.085      3627.0265      15.724         13.374782      17.2465      
      2000   287.27263     -41134.67       5424.7036      3619.4859      15.724         13.346976      17.2465      
      2100   297.77228     -41143.75       10289.926      3611.9453      15.724         13.31917       17.2465      
      2200   297.03129     -41157.348      9681.2451      3604.4047      15.724         13.291364      17.2465      
      2300   279.86329     -41144.517      8091.8537      3596.8641      15.724         13.263557      17.2465      
      2400   289.05        -41136.051      13347.092      3589.3235      15.724         13.235751      17.2465      
      2500   336.74777     -41166.491      3027.1759      3581.7829      15.724         13.207945      17.2465      
      2600   302.42441     -41147.25       17881.969      3574.2423      15.724         13.180139      17.2465      
      2700   285.30191     -41136.828      31478.343      3566.7017      15.724         13.152333      17.2465      
      2800   294.00656     -41132.565      18616.121      3559.1611      15.724         13.124526      17.2465      
      2900   286.20319     -41139.844      4306.1914      3551.6205      15.724         13.09672       17.2465      
      3000   299.99123     -41149.363      28602.185      3544.0799      15.724         13.068914      17.2465      
      3100   304.36708     -41150.004      18172.975      3536.5393      15.724         13.041108      17.2465      
      3200   306.79665     -41159.364      20796.189      3528.9987      15.724         13.013302      17.2465      
      3300   287.23956     -41146.376      7326.5756      3521.4581      15.724         12.985495      17.2465      
      3400   270.69259     -41123.138      11490.271      3513.9175      15.724         12.957689      17.2465      
      3500   302.68678     -41131.724      21179.706      3506.377       15.724         12.929883      17.2465      
      3600   298.63096     -41122.876      18864.545      3498.8364      15.724         12.902077      17.2465      
      3700   300.56353     -41145.52       15974.127      3491.2958      15.724         12.874271      17.2465      
      3800   298.40047     -41150.105      24384.071      3483.7552      15.724         12.846464      17.2465      
      3900   278.55111     -41121.838      29385.026      3476.2146      15.724         12.818658      17.2465      
      4000   276.28798     -41113.204      26605.979      3468.674       15.724         12.790852      17.2465      
      4100   305.17326     -41143.775      37624.125      3461.1334      15.724         12.763046      17.2465      
      4200   286.51927     -41150.455      41415.414      3453.5928      15.724         12.73524       17.2465      
      4300   279.50296     -41126.451      45488.995      3446.0522      15.724         12.707433      17.2465      
      4400   304.55449     -41125.243      36247.073      3438.5116      15.724         12.679627      17.2465      
      4500   325.39115     -41121.715      39601.769      3430.971       15.724         12.651821      17.2465      
      4600   316.91652     -41091.226      26142.887      3423.4304      15.724         12.624015      17.2465      
      4700   317.7216      -41131.061      23139.968      3415.8898      15.724         12.596209      17.2465      
      4800   298.45771     -41120.245      42921.414      3408.3492      15.724         12.568402      17.2465      
      4900   298.42913     -41109.463      51183.69       3400.8086      15.724         12.540596      17.2465      
      5000   304.71401     -41097.596      22868.201      3393.268       15.724         12.51279       17.2465      
Loop time of 140.09 on 16 procs for 5000 steps with 366 atoms

Performance: 1.542 ns/day, 15.566 hours/ns, 35.691 timesteps/s, 13.063 katom-step/s
98.9% CPU use with 8 MPI tasks x 2 OpenMP threads

MPI task timing breakdown:
Section |  min time  |  avg time  |  max time  |%varavg| %total
---------------------------------------------------------------
Pair    | 115.36     | 118.08     | 121.75     |  19.9 | 84.29
Bond    | 0.00078994 | 0.00095943 | 0.0012028  |   0.0 |  0.00
Neigh   | 1.6015     | 1.6464     | 1.6941     |   2.1 |  1.18
Comm    | 1.3837     | 5.0608     | 7.778      |  95.9 |  3.61
Output  | 0.010862   | 0.012406   | 0.013767   |   0.8 |  0.01
Modify  | 15.148     | 15.201     | 15.244     |   0.7 | 10.85
Other   |            | 0.09145    |            |       |  0.07

Nlocal:          45.75 ave          54 max          36 min
Histogram: 1 0 2 0 0 0 2 2 0 1
Nghost:        3806.25 ave        3884 max        3728 min
Histogram: 2 0 1 1 0 0 1 1 0 2
Neighs:          34538 ave       40353 max       27651 min
Histogram: 1 0 2 0 0 0 2 2 0 1

Total # of neighbors = 276304
Ave neighs/atom = 754.92896
Ave special neighs/atom = 0
Neighbor list builds = 59
Dangerous builds = 0
  using 2 OpenMP thread(s) per MPI task
Reading restart file ...
  restart file = 2 Aug 2023, LAMMPS = 2 Aug 2023
  restoring atom style full from restart
  triclinic box = (0 0 0) to (15.724 13.9031 17.2465) with tilt (-7.584 0.1778 0.4371)
WARNING: Triclinic box skew is large. LAMMPS will run inefficiently. (src/domain.cpp:220)
  2 by 2 by 2 MPI processor grid
  pair style reaxff stores no restart info
  366 atoms
Finding 1-2 1-3 1-4 neighbors ...
  special bond factors lj:    0        0        0       
  special bond factors coul:  0        0        0       
     0 = max # of 1-2 neighbors
     0 = max # of 1-3 neighbors
     0 = max # of 1-4 neighbors
     1 = max # of special neighbors
  special bonds CPU = 0.000 seconds
  read_restart CPU = 0.002 seconds
*****Positive-deform 2 starts.*****
WARNING: Van der Waals parameters for element SI indicate inner wall+shielding, but earlier atoms indicate a different van der Waals method. This may cause division-by-zero errors. Keeping van der Waals setting for earlier atoms. (src/REAXFF/reaxff_ffield.cpp:251)
Resetting global fix info from restart file:
  fix style: nvt, fix ID: fnvt
All restart file global fix info was re-assigned
WARNING: Compute rdf cutoff less than neighbor cutoff - forcing a needless neighbor list build (src/compute_rdf.cpp:179)
Neighbor list info ...
  update: every = 10 steps, delay = 0 steps, check = yes
  max neighbors/atom: 2000, page size: 100000
  master list distance cutoff = 12
  ghost atom cutoff = 12
  binsize = 6, bins = 4 3 3
  3 neighbor lists, perpetual/occasional/extra = 2 1 0
  (1) pair reaxff, perpetual
      attributes: half, newton off, ghost
      pair build: half/bin/newtoff/ghost
      stencil: full/ghost/bin/3d
      bin: standard
  (2) compute rdf, occasional
      attributes: half, newton on, cut 7
      pair build: half/bin/newton/tri
      stencil: half/bin/3d/tri
      bin: standard
  (3) fix qeq/reaxff, perpetual, copy from (1)
      attributes: half, newton off
      pair build: copy
      stencil: none
      bin: none
Setting up Verlet run ...
  Unit style    : real
  Current step  : 0
  Time step     : 0.5
Per MPI rank memory allocation (min/avg/max) = 135.2 | 136.4 | 137.8 Mbytes
   Step          Temp          PotEng         Press          Volume           Lx             Ly             Lz      
         0   298.37903     -41131.373      8311.3099      3770.2978      15.724         13.9031        17.2465      
       100   282.79723     -41121.877      5027.9777      3777.8384      15.724         13.930906      17.2465      
       200   293.42498     -41131.343      761.53511      3785.379       15.724         13.958712      17.2465      
       300   289.41193     -41129.188     -8566.3889      3792.9196      15.724         13.986519      17.2465      
       400   291.96371     -41133.3       -10419.407      3800.4602      15.724         14.014325      17.2465      
       500   293.50553     -41131.532     -7531.6592      3808.0008      15.724         14.042131      17.2465      
       600   284.67276     -41096.459     -4201.2552      3815.5414      15.724         14.069937      17.2465      
       700   311.76604     -41092.767     -6561.4829      3823.082       15.724         14.097743      17.2465      
       800   314.63004     -41092.847     -8075.7669      3830.6226      15.724         14.12555       17.2465      
       900   289.08837     -41087.51      -14849.939      3838.1632      15.724         14.153356      17.2465      
      1000   299.87007     -41108.24      -11855.876      3845.7038      15.724         14.181162      17.2465      
      1100   306.28957     -41117.642     -11868.117      3853.2443      15.724         14.208968      17.2465      
      1200   301.14152     -41103.033     -15914.195      3860.7849      15.724         14.236774      17.2465      
      1300   298.65736     -41078.788     -6051.6681      3868.3255      15.724         14.264581      17.2465      
      1400   286.82591     -41038.433     -9359.8811      3875.8661      15.724         14.292387      17.2465      
      1500   307.06926     -41059.477     -12201.984      3883.4067      15.724         14.320193      17.2465      
      1600   307.06328     -41091.556     -16690.379      3890.9473      15.724         14.347999      17.2465      
      1700   308.2551      -41095.798     -5174.1496      3898.4879      15.724         14.375805      17.2465      
      1800   284.29663     -41070.543     -19252.496      3906.0285      15.724         14.403612      17.2465      
      1900   291.04237     -41082.224     -11597.041      3913.5691      15.724         14.431418      17.2465      
      2000   287.01671     -41076.045     -18482.389      3921.1097      15.724         14.459224      17.2465      
      2100   303.34828     -41064.465     -19043.775      3928.6503      15.724         14.48703       17.2465      
      2200   307.91092     -41045.878     -17991.311      3936.1909      15.724         14.514836      17.2465      
      2300   311.25418     -41060.026     -26969.885      3943.7315      15.724         14.542643      17.2465      
      2400   296.23461     -41070.812     -19487.819      3951.2721      15.724         14.570449      17.2465      
      2500   293.66578     -41064.131     -16436.365      3958.8127      15.724         14.598255      17.2465      
      2600   291.79089     -41039.812     -22222.536      3966.3533      15.724         14.626061      17.2465      
      2700   304.41639     -41026.244     -26480.559      3973.8939      15.724         14.653867      17.2465      
      2800   306.86477     -41021.017     -21906.402      3981.4345      15.724         14.681674      17.2465      
      2900   305.52258     -41036.575     -28917.356      3988.9751      15.724         14.70948       17.2465      
      3000   280.08342     -41039.009     -23007.375      3996.5157      15.724         14.737286      17.2465      
      3100   295.69238     -41036.193     -12340.596      4004.0563      15.724         14.765092      17.2465      
      3200   296.82153     -41006.207     -26623.175      4011.5969      15.724         14.792898      17.2465      
      3300   306.46412     -40990.849     -26878.727      4019.1375      15.724         14.820705      17.2465      
      3400   306.59561     -40997.895     -28957.828      4026.678       15.724         14.848511      17.2465      
      3500   318.64989     -41019.557     -26844.852      4034.2186      15.724         14.876317      17.2465      
      3600   289.1227      -40987.954     -30562.11       4041.7592      15.724         14.904123      17.2465      
      3700   306.75921     -40993.491     -21984.158      4049.2998      15.724         14.931929      17.2465      
      3800   290.87223     -40960.176     -30505.017      4056.8404      15.724         14.959736      17.2465      
      3900   319.19576     -40983.825     -32404.254      4064.381       15.724         14.987542      17.2465      
      4000   292.17469     -40987.302     -30874.569      4071.9216      15.724         15.015348      17.2465      
      4100   293.79674     -40988.366     -26488.943      4079.4622      15.724         15.043154      17.2465      
      4200   300.42932     -40971.28      -20274.175      4087.0028      15.724         15.07096       17.2465      
      4300   310.19561     -40951.728     -39058.053      4094.5434      15.724         15.098767      17.2465      
      4400   298.58557     -40927.076     -35213.152      4102.084       15.724         15.126573      17.2465      
      4500   308.63487     -40940.901     -23242.734      4109.6246      15.724         15.154379      17.2465      
      4600   310.81217     -40943.173     -28169.419      4117.1652      15.724         15.182185      17.2465      
      4700   291.24269     -40932.192     -29802.098      4124.7058      15.724         15.209991      17.2465      
      4800   283.69194     -40912.895     -36449.179      4132.2464      15.724         15.237798      17.2465      
      4900   325.98701     -40934.472     -22219.367      4139.787       15.724         15.265604      17.2465      
      5000   303.29961     -40905.023     -31816.741      4147.3276      15.724         15.29341       17.2465      
Loop time of 123.279 on 16 procs for 5000 steps with 366 atoms

Performance: 1.752 ns/day, 13.698 hours/ns, 40.558 timesteps/s, 14.844 katom-step/s
98.8% CPU use with 8 MPI tasks x 2 OpenMP threads

MPI task timing breakdown:
Section |  min time  |  avg time  |  max time  |%varavg| %total
---------------------------------------------------------------
Pair    | 94.382     | 100.19     | 106        |  39.5 | 81.27
Bond    | 0.00077502 | 0.0009391  | 0.0012415  |   0.0 |  0.00
Neigh   | 1.5736     | 1.6122     | 1.6422     |   1.8 |  1.31
Comm    | 1.4512     | 7.2634     | 13.069     | 146.7 |  5.89
Output  | 0.010376   | 0.011786   | 0.013123   |   0.9 |  0.01
Modify  | 14.076     | 14.113     | 14.151     |   0.7 | 11.45
Other   |            | 0.0875     |            |       |  0.07

Nlocal:          45.75 ave          57 max          32 min
Histogram: 1 0 0 1 1 0 3 0 1 1
Nghost:        3124.25 ave        3153 max        3090 min
Histogram: 1 0 0 0 3 1 2 0 0 1
Neighs:        28215.5 ave       34639 max       19885 min
Histogram: 1 0 0 1 1 0 3 0 1 1

Total # of neighbors = 225724
Ave neighs/atom = 616.73224
Ave special neighs/atom = 0
Neighbor list builds = 66
Dangerous builds = 0
  using 2 OpenMP thread(s) per MPI task
Reading restart file ...
  restart file = 2 Aug 2023, LAMMPS = 2 Aug 2023
  restoring atom style full from restart
  triclinic box = (0 0 0) to (15.724 13.9031 17.2465) with tilt (-7.584 0.1778 0.4371)
WARNING: Triclinic box skew is large. LAMMPS will run inefficiently. (src/domain.cpp:220)
  2 by 2 by 2 MPI processor grid
  pair style reaxff stores no restart info
  366 atoms
Finding 1-2 1-3 1-4 neighbors ...
  special bond factors lj:    0        0        0       
  special bond factors coul:  0        0        0       
     0 = max # of 1-2 neighbors
     0 = max # of 1-3 neighbors
     0 = max # of 1-4 neighbors
     1 = max # of special neighbors
  special bonds CPU = 0.000 seconds
  read_restart CPU = 0.002 seconds
*****debug*****
xy = -7.5839999999999996305, deltaxy = 0.7584
xz = 0.17780000000000001359, deltaxz = -0.01778
yz = 0.43709999999999998854, deltayz = -0.04371
*****
*****Negative-deform 3 starts.*****
WARNING: Van der Waals parameters for element SI indicate inner wall+shielding, but earlier atoms indicate a different van der Waals method. This may cause division-by-zero errors. Keeping van der Waals setting for earlier atoms. (src/REAXFF/reaxff_ffield.cpp:251)
Resetting global fix info from restart file:
  fix style: nvt, fix ID: fnvt
All restart file global fix info was re-assigned
Neighbor list info ...
  update: every = 10 steps, delay = 0 steps, check = yes
  max neighbors/atom: 2000, page size: 100000
  master list distance cutoff = 12
  ghost atom cutoff = 12
  binsize = 6, bins = 4 3 3
  2 neighbor lists, perpetual/occasional/extra = 2 0 0
  (1) pair reaxff, perpetual
      attributes: half, newton off, ghost
      pair build: half/bin/newtoff/ghost
      stencil: full/ghost/bin/3d
      bin: standard
  (2) fix qeq/reaxff, perpetual, copy from (1)
      attributes: half, newton off
      pair build: copy
      stencil: none
      bin: none
Setting up Verlet run ...
  Unit style    : real
  Current step  : 0
  Time step     : 0.5
Per MPI rank memory allocation (min/avg/max) = 134.1 | 135.3 | 136.7 Mbytes
   Step          Temp          PotEng         Press          Volume           Lx             Ly             Lz      
         0   298.37903     -41131.373      8311.3099      3770.2978      15.724         13.9031        17.2465      
       100   282.79086     -41121.863      5048.8149      3762.7572      15.724         13.9031        17.212007    
       200   298.10793     -41136.259      3733.1605      3755.2166      15.724         13.9031        17.177514    
       300   295.6561      -41142.048     -11364.185      3747.676       15.724         13.9031        17.143021    
       400   297.0011      -41153.819     -6270.9853      3740.1354      15.724         13.9031        17.108528    
       500   287.00056     -41140.915     -5249.1897      3732.5948      15.724         13.9031        17.074035    
       600   292.40574     -41108.938      4175.647       3725.0542      15.724         13.9031        17.039542    
       700   296.85123     -41083.18       1679.8908      3717.5136      15.724         13.9031        17.005049    
       800   328.59099     -41114.142      1754.0425      3709.973       15.724         13.9031        16.970556    
       900   302.20151     -41119.187      5717.6496      3702.4324      15.724         13.9031        16.936063    
      1000   298.40486     -41121.124     -1243.6096      3694.8918      15.724         13.9031        16.90157     
      1100   301.56236     -41133.425      1236.0149      3687.3512      15.724         13.9031        16.867077    
      1200   289.06117     -41128.169      4147.7733      3679.8107      15.724         13.9031        16.832584    
      1300   283.30407     -41136.011      7915.7085      3672.2701      15.724         13.9031        16.798091    
      1400   290.51812     -41144.545      53.415985      3664.7295      15.724         13.9031        16.763598    
      1500   309.33352     -41137.091      11891.45       3657.1889      15.724         13.9031        16.729105    
      1600   314.27153     -41134.434     -3601.5848      3649.6483      15.724         13.9031        16.694612    
      1700   296.40942     -41128.142      3910.6461      3642.1077      15.724         13.9031        16.660119    
      1800   271.99148     -41125.53       15009.859      3634.5671      15.724         13.9031        16.625626    
      1900   295.91146     -41136.812      10037.081      3627.0265      15.724         13.9031        16.591133    
      2000   321.97363     -41144.946      3076.0582      3619.4859      15.724         13.9031        16.55664     
      2100   284.87747     -41116.392     -2331.5317      3611.9453      15.724         13.9031        16.522147    
      2200   281.01515     -41117.297      7617.4079      3604.4047      15.724         13.9031        16.487654    
      2300   303.98625     -41136.321      20859.04       3596.8641      15.724         13.9031        16.453161    
      2400   291.83916     -41114.627     -1694.7486      3589.3235      15.724         13.9031        16.418668    
      2500   297.86615     -41124.535      12134.453      3581.7829      15.724         13.9031        16.384175    
      2600   294.68884     -41124.199      10156.933      3574.2423      15.724         13.9031        16.349682    
      2700   299.16831     -41136.213      8904.7053      3566.7017      15.724         13.9031        16.315189    
      2800   296.81881     -41120.436      12393.427      3559.1611      15.724         13.9031        16.280696    
      2900   311.62093     -41095.653      18494.876      3551.6205      15.724         13.9031        16.246203    
      3000   304.44361     -41083.014      22722.335      3544.0799      15.724         13.9031        16.21171     
      3100   291.98671     -41086.153      14725.976      3536.5393      15.724         13.9031        16.177217    
      3200   306.90628     -41116.825      12941.601      3528.9987      15.724         13.9031        16.142724    
      3300   302.60977     -41104.444      19651.062      3521.4581      15.724         13.9031        16.108231    
      3400   294.43822     -41090.258      11554.393      3513.9175      15.724         13.9031        16.073738    
      3500   289.39372     -41093.042      31836.772      3506.377       15.724         13.9031        16.039245    
      3600   292.62084     -41095.441      21934.221      3498.8364      15.724         13.9031        16.004752    
      3700   293.99819     -41100.827      26408.278      3491.2958      15.724         13.9031        15.970259    
      3800   290.65374     -41092.919      17307.813      3483.7552      15.724         13.9031        15.935766    
      3900   337.23492     -41119.736      22445.803      3476.2146      15.724         13.9031        15.901273    
      4000   301.56963     -41056.645      25574.549      3468.674       15.724         13.9031        15.86678     
      4100   297.62855     -41046.989      8776.0774      3461.1334      15.724         13.9031        15.832287    
      4200   299.4051      -41063.164      24490.813      3453.5928      15.724         13.9031        15.797794    
      4300   293.95478     -41064.107      39310.263      3446.0522      15.724         13.9031        15.763301    
      4400   294.26937     -41058.656      24460.326      3438.5116      15.724         13.9031        15.728808    
      4500   300.45601     -41070.057      19909.376      3430.971       15.724         13.9031        15.694315    
      4600   286.14576     -41055.399      17637.34       3423.4304      15.724         13.9031        15.659822    
      4700   297.03335     -41054.835      29402.833      3415.8898      15.724         13.9031        15.625329    
      4800   300.56014     -41009.585      27413.103      3408.3492      15.724         13.9031        15.590836    
      4900   344.87853     -41002.442      35003.228      3400.8086      15.724         13.9031        15.556343    
      5000   347.12399     -41034.973      40613.994      3393.268       15.724         13.9031        15.52185     
Loop time of 145.78 on 16 procs for 5000 steps with 366 atoms

Performance: 1.482 ns/day, 16.198 hours/ns, 34.298 timesteps/s, 12.553 katom-step/s
98.9% CPU use with 8 MPI tasks x 2 OpenMP threads

MPI task timing breakdown:
Section |  min time  |  avg time  |  max time  |%varavg| %total
---------------------------------------------------------------
Pair    | 112.51     | 119.28     | 126.96     |  45.3 | 81.82
Bond    | 0.0007984  | 0.00092943 | 0.0011719  |   0.0 |  0.00
Neigh   | 1.617      | 1.676      | 1.7184     |   2.5 |  1.15
Comm    | 1.1065     | 8.7735     | 15.535     | 166.8 |  6.02
Output  | 0.010434   | 0.011994   | 0.013308   |   0.8 |  0.01
Modify  | 15.891     | 15.946     | 16.016     |   1.0 | 10.94
Other   |            | 0.09138    |            |       |  0.06

Nlocal:          45.75 ave          49 max          39 min
Histogram: 1 0 0 0 0 0 3 1 0 3
Nghost:        3706.88 ave        3753 max        3658 min
Histogram: 1 1 0 1 0 3 0 0 0 2
Neighs:        34540.4 ave       36802 max       29662 min
Histogram: 1 0 0 0 0 1 2 1 0 3

Total # of neighbors = 276323
Ave neighs/atom = 754.98087
Ave special neighs/atom = 0
Neighbor list builds = 61
Dangerous builds = 0
  using 2 OpenMP thread(s) per MPI task
Reading restart file ...
  restart file = 2 Aug 2023, LAMMPS = 2 Aug 2023
  restoring atom style full from restart
  triclinic box = (0 0 0) to (15.724 13.9031 17.2465) with tilt (-7.584 0.1778 0.4371)
WARNING: Triclinic box skew is large. LAMMPS will run inefficiently. (src/domain.cpp:220)
  2 by 2 by 2 MPI processor grid
  pair style reaxff stores no restart info
  366 atoms
Finding 1-2 1-3 1-4 neighbors ...
  special bond factors lj:    0        0        0       
  special bond factors coul:  0        0        0       
     0 = max # of 1-2 neighbors
     0 = max # of 1-3 neighbors
     0 = max # of 1-4 neighbors
     1 = max # of special neighbors
  special bonds CPU = 0.000 seconds
  read_restart CPU = 0.002 seconds
*****Positive-deform 3 starts.*****
WARNING: Van der Waals parameters for element SI indicate inner wall+shielding, but earlier atoms indicate a different van der Waals method. This may cause division-by-zero errors. Keeping van der Waals setting for earlier atoms. (src/REAXFF/reaxff_ffield.cpp:251)
Resetting global fix info from restart file:
  fix style: nvt, fix ID: fnvt
All restart file global fix info was re-assigned
WARNING: Compute rdf cutoff less than neighbor cutoff - forcing a needless neighbor list build (src/compute_rdf.cpp:179)
Neighbor list info ...
  update: every = 10 steps, delay = 0 steps, check = yes
  max neighbors/atom: 2000, page size: 100000
  master list distance cutoff = 12
  ghost atom cutoff = 12
  binsize = 6, bins = 4 3 3
  3 neighbor lists, perpetual/occasional/extra = 2 1 0
  (1) pair reaxff, perpetual
      attributes: half, newton off, ghost
      pair build: half/bin/newtoff/ghost
      stencil: full/ghost/bin/3d
      bin: standard
  (2) compute rdf, occasional
      attributes: half, newton on, cut 7
      pair build: half/bin/newton/tri
      stencil: half/bin/3d/tri
      bin: standard
  (3) fix qeq/reaxff, perpetual, copy from (1)
      attributes: half, newton off
      pair build: copy
      stencil: none
      bin: none
Setting up Verlet run ...
  Unit style    : real
  Current step  : 0
  Time step     : 0.5
Per MPI rank memory allocation (min/avg/max) = 135.2 | 136.4 | 137.8 Mbytes
   Step          Temp          PotEng         Press          Volume           Lx             Ly             Lz      
         0   298.37903     -41131.373      8311.3099      3770.2978      15.724         13.9031        17.2465      
       100   282.80486     -41121.89       5026.6387      3777.8384      15.724         13.9031        17.280993    
       200   296.27169     -41131.465      376.80426      3785.379       15.724         13.9031        17.315486    
       300   287.6002      -41127.3       -15525.935      3792.9196      15.724         13.9031        17.349979    
       400   292.47037     -41145.566     -14416.255      3800.4602      15.724         13.9031        17.384472    
       500   294.60285     -41138.17      -7194.0236      3808.0008      15.724         13.9031        17.418965    
       600   295.13106     -41097.904     -3170.8389      3815.5414      15.724         13.9031        17.453458    
       700   315.23997     -41097.745     -2292.7066      3823.082       15.724         13.9031        17.487951    
       800   320.46424     -41117.231     -6875.564       3830.6226      15.724         13.9031        17.522444    
       900   297.84966     -41116.511     -11438.901      3838.1632      15.724         13.9031        17.556937    
      1000   290.2345      -41105.111     -10469.516      3845.7038      15.724         13.9031        17.59143     
      1100   305.44349     -41121.787     -14118.333      3853.2443      15.724         13.9031        17.625923    
      1200   295.49587     -41107.797     -4868.163       3860.7849      15.724         13.9031        17.660416    
      1300   306.53119     -41111.812     -7016.0111      3868.3255      15.724         13.9031        17.694909    
      1400   294.1237      -41101.176     -21122.086      3875.8661      15.724         13.9031        17.729402    
      1500   282.37521     -41094.593     -17159.864      3883.4067      15.724         13.9031        17.763895    
      1600   295.57088     -41105.503     -28529.942      3890.9473      15.724         13.9031        17.798388    
      1700   297.59724     -41076.911     -17253.687      3898.4879      15.724         13.9031        17.832881    
      1800   334.23678     -41095.304     -22876.912      3906.0285      15.724         13.9031        17.867374    
      1900   301.2633      -41082.651     -12624.572      3913.5691      15.724         13.9031        17.901867    
      2000   304.60032     -41097.78      -14304.557      3921.1097      15.724         13.9031        17.93636     
      2100   297.72012     -41101.005     -7092.0247      3928.6503      15.724         13.9031        17.970853    
      2200   299.50351     -41103.88      -20610.042      3936.1909      15.724         13.9031        18.005346    
      2300   302.3148      -41099.574     -10128.445      3943.7315      15.724         13.9031        18.039839    
      2400   296.62012     -41069.393     -28901.263      3951.2721      15.724         13.9031        18.074332    
      2500   295.66608     -41051.897     -13641.835      3958.8127      15.724         13.9031        18.108825    
      2600   305.93494     -41082.057     -9141.4563      3966.3533      15.724         13.9031        18.143318    
      2700   297.4971      -41088.923     -25685.202      3973.8939      15.724         13.9031        18.177811    
      2800   281.97238     -41063.106     -19091.615      3981.4345      15.724         13.9031        18.212304    
      2900   290.262       -41051.668     -18061.127      3988.9751      15.724         13.9031        18.246797    
      3000   327.42969     -41058.322     -19333.629      3996.5157      15.724         13.9031        18.28129     
      3100   333.10084     -41039.269     -26492.432      4004.0563      15.724         13.9031        18.315783    
      3200   298.95138     -41030.521     -14099.636      4011.5969      15.724         13.9031        18.350276    
      3300   298.43856     -41052.356     -26289.126      4019.1375      15.724         13.9031        18.384769    
      3400   304.56887     -41064.181     -23270.588      4026.678       15.724         13.9031        18.419262    
      3500   290.21692     -41049.189     -27245.677      4034.2186      15.724         13.9031        18.453755    
      3600   296.04707     -41035.37      -22593.38       4041.7592      15.724         13.9031        18.488248    
      3700   337.06034     -41044.429     -23536.025      4049.2998      15.724         13.9031        18.522741    
      3800   298.90306     -41011.592     -31318.29       4056.8404      15.724         13.9031        18.557234    
      3900   296.14724     -41034.964     -22997.142      4064.381       15.724         13.9031        18.591727    
      4000   301.62749     -41033.342     -22280.649      4071.9216      15.724         13.9031        18.62622     
      4100   304.63827     -41020.765     -29523.181      4079.4622      15.724         13.9031        18.660713    
      4200   290.42189     -41004.685     -33916.403      4087.0028      15.724         13.9031        18.695206    
      4300   275.75388     -41007.611     -31607.424      4094.5434      15.724         13.9031        18.729699    
      4400   292.07084     -41021.231     -32836.406      4102.084       15.724         13.9031        18.764192    
      4500   292.14191     -40986.831     -36708.164      4109.6246      15.724         13.9031        18.798685    
      4600   328.81281     -40982.47      -34600.982      4117.1652      15.724         13.9031        18.833178    
      4700   310.73153     -40971.039     -29169.016      4124.7058      15.724         13.9031        18.867671    
      4800   302.56789     -40970.943     -45655.77       4132.2464      15.724         13.9031        18.902164    
      4900   298.7733      -40968.24      -32831.408      4139.787       15.724         13.9031        18.936657    
      5000   302.32156     -40974.734     -42563.511      4147.3276      15.724         13.9031        18.97115     
Loop time of 123.657 on 16 procs for 5000 steps with 366 atoms

Performance: 1.747 ns/day, 13.740 hours/ns, 40.434 timesteps/s, 14.799 katom-step/s
98.9% CPU use with 8 MPI tasks x 2 OpenMP threads

MPI task timing breakdown:
Section |  min time  |  avg time  |  max time  |%varavg| %total
---------------------------------------------------------------
Pair    | 93.806     | 99.87      | 106.99     |  48.7 | 80.76
Bond    | 0.0007667  | 0.00091262 | 0.0010597  |   0.0 |  0.00
Neigh   | 1.3597     | 1.3956     | 1.4274     |   2.0 |  1.13
Comm    | 0.91015    | 8.0215     | 14.076     | 171.5 |  6.49
Output  | 0.0104     | 0.011773   | 0.013187   |   0.9 |  0.01
Modify  | 14.228     | 14.272     | 14.318     |   0.8 | 11.54
Other   |            | 0.08527    |            |       |  0.07

Nlocal:          45.75 ave          53 max          38 min
Histogram: 1 1 0 1 1 0 2 0 1 1
Nghost:        3146.25 ave        3188 max        3090 min
Histogram: 1 0 1 0 1 1 0 2 1 1
Neighs:          28183 ave       32646 max       23525 min
Histogram: 1 1 0 1 1 0 2 0 1 1

Total # of neighbors = 225464
Ave neighs/atom = 616.02186
Ave special neighs/atom = 0
Neighbor list builds = 61
Dangerous builds = 0
  using 2 OpenMP thread(s) per MPI task
Reading restart file ...
  restart file = 2 Aug 2023, LAMMPS = 2 Aug 2023
  restoring atom style full from restart
  triclinic box = (0 0 0) to (15.724 13.9031 17.2465) with tilt (-7.584 0.1778 0.4371)
WARNING: Triclinic box skew is large. LAMMPS will run inefficiently. (src/domain.cpp:220)
  2 by 2 by 2 MPI processor grid
  pair style reaxff stores no restart info
  366 atoms
Finding 1-2 1-3 1-4 neighbors ...
  special bond factors lj:    0        0        0       
  special bond factors coul:  0        0        0       
     0 = max # of 1-2 neighbors
     0 = max # of 1-3 neighbors
     0 = max # of 1-4 neighbors
     1 = max # of special neighbors
  special bonds CPU = 0.000 seconds
  read_restart CPU = 0.002 seconds
*****debug*****
xy = -7.5839999999999996305, deltaxy = 0.7584
xz = 0.17780000000000001359, deltaxz = -0.01778
yz = 0.43709999999999998854, deltayz = -0.04371
*****
*****Negative-deform 4 starts.*****
WARNING: Van der Waals parameters for element SI indicate inner wall+shielding, but earlier atoms indicate a different van der Waals method. This may cause division-by-zero errors. Keeping van der Waals setting for earlier atoms. (src/REAXFF/reaxff_ffield.cpp:251)
Resetting global fix info from restart file:
  fix style: nvt, fix ID: fnvt
All restart file global fix info was re-assigned
Neighbor list info ...
  update: every = 10 steps, delay = 0 steps, check = yes
  max neighbors/atom: 2000, page size: 100000
  master list distance cutoff = 12
  ghost atom cutoff = 12
  binsize = 6, bins = 4 3 3
  2 neighbor lists, perpetual/occasional/extra = 2 0 0
  (1) pair reaxff, perpetual
      attributes: half, newton off, ghost
      pair build: half/bin/newtoff/ghost
      stencil: full/ghost/bin/3d
      bin: standard
  (2) fix qeq/reaxff, perpetual, copy from (1)
      attributes: half, newton off
      pair build: copy
      stencil: none
      bin: none
Setting up Verlet run ...
  Unit style    : real
  Current step  : 0
  Time step     : 0.5
Per MPI rank memory allocation (min/avg/max) = 134.1 | 135.3 | 136.7 Mbytes
   Step          Temp          PotEng         Press          Volume           Lx             Ly             Lz      
         0   298.37903     -41131.373      8311.3099      3770.2978      15.724         13.9031        17.2465      
       100   282.80557     -41121.874      5039.6831      3770.2978      15.724         13.9031        17.2465      
       200   297.14728     -41135.508      607.77601      3770.2978      15.724         13.9031        17.2465      
       300   296.42408     -41140.316     -11821.126      3770.2978      15.724         13.9031        17.2465      
       400   292.63804     -41148.007     -10219.14       3770.2978      15.724         13.9031        17.2465      
       500   283.96438     -41136.837     -171.29977      3770.2978      15.724         13.9031        17.2465      
       600   289.64913     -41114.977      3713.906       3770.2978      15.724         13.9031        17.2465      
       700   305.80489     -41103.042     -5541.4298      3770.2978      15.724         13.9031        17.2465      
       800   318.58281     -41117.875     -1336.1653      3770.2978      15.724         13.9031        17.2465      
       900   295.2924      -41110.601     -6565.5049      3770.2978      15.724         13.9031        17.2465      
      1000   300.3179      -41121.982     -13519.94       3770.2978      15.724         13.9031        17.2465      
      1100   291.3921      -41119.751     -1432.2817      3770.2978      15.724         13.9031        17.2465      
      1200   300.88573     -41138.991     -5700.6719      3770.2978      15.724         13.9031        17.2465      
      1300   293.49987     -41122.47      -4889.4863      3770.2978      15.724         13.9031        17.2465      
      1400   318.34637     -41130.198     -159.35444      3770.2978      15.724         13.9031        17.2465      
      1500   307.35683     -41083.95       6380.4481      3770.2978      15.724         13.9031        17.2465      
      1600   319.76636     -41110.817      1317.8935      3770.2978      15.724         13.9031        17.2465      
      1700   315.58142     -41134.514     -11597.172      3770.2978      15.724         13.9031        17.2465      
      1800   296.33123     -41129.772     -3358.1325      3770.2978      15.724         13.9031        17.2465      
      1900   292.21696     -41134.397     -1386.4079      3770.2978      15.724         13.9031        17.2465      
      2000   292.06098     -41129.286     -3875.1451      3770.2978      15.724         13.9031        17.2465      
      2100   298.44646     -41103.535      1645.5208      3770.2978      15.724         13.9031        17.2465      
      2200   339.23234     -41133.334     -591.53845      3770.2978      15.724         13.9031        17.2465      
      2300   295.82813     -41107.835     -40.083268      3770.2978      15.724         13.9031        17.2465      
      2400   277.95855     -41092.598      3432.8386      3770.2978      15.724         13.9031        17.2465      
      2500   309.29154     -41117.869     -4190.3492      3770.2978      15.724         13.9031        17.2465      
      2600   294.53975     -41124.604      4033.7066      3770.2978      15.724         13.9031        17.2465      
      2700   292.65549     -41138.824     -4396.0977      3770.2978      15.724         13.9031        17.2465      
      2800   306.82578     -41149.745      13192.731      3770.2978      15.724         13.9031        17.2465      
      2900   302.07125     -41135.177      2681.9135      3770.2978      15.724         13.9031        17.2465      
      3000   302.51573     -41125.697     -3499.7011      3770.2978      15.724         13.9031        17.2465      
      3100   298.47058     -41106.736     -7063.1903      3770.2978      15.724         13.9031        17.2465      
      3200   316.28224     -41099.817     -269.03027      3770.2978      15.724         13.9031        17.2465      
      3300   310.9481      -41095.562     -5725.0844      3770.2978      15.724         13.9031        17.2465      
      3400   295.01536     -41110.478      2443.5783      3770.2978      15.724         13.9031        17.2465      
      3500   307.57077     -41128.643     -1489.0743      3770.2978      15.724         13.9031        17.2465      
      3600   303.94964     -41126.71      -9456.3231      3770.2978      15.724         13.9031        17.2465      
      3700   287.20948     -41114.381     -457.62334      3770.2978      15.724         13.9031        17.2465      
      3800   292.71179     -41129.25      -15068.592      3770.2978      15.724         13.9031        17.2465      
      3900   286.94768     -41136.422     -4385.1981      3770.2978      15.724         13.9031        17.2465      
      4000   277.77885     -41115.455      9189.5602      3770.2978      15.724         13.9031        17.2465      
      4100   306.69722     -41104.557      3539.0321      3770.2978      15.724         13.9031        17.2465      
      4200   331.77423     -41124.02      -14848.885      3770.2978      15.724         13.9031        17.2465      
      4300   299.50969     -41106.32      -4193.4451      3770.2978      15.724         13.9031        17.2465      
      4400   283.28285     -41094.821     -2199.8155      3770.2978      15.724         13.9031        17.2465      
      4500   292.12601     -41096.143     -2622.4849      3770.2978      15.724         13.9031        17.2465      
      4600   313.46483     -41086.576      2129.4826      3770.2978      15.724         13.9031        17.2465      
      4700   327.4102      -41058.328      756.13227      3770.2978      15.724         13.9031        17.2465      
      4800   313.29909     -41064.496     -8975.2902      3770.2978      15.724         13.9031        17.2465      
      4900   302.78666     -41075.908     -6451.7343      3770.2978      15.724         13.9031        17.2465      
      5000   301.61586     -41094.603     -11018.661      3770.2978      15.724         13.9031        17.2465      
Loop time of 132.016 on 16 procs for 5000 steps with 366 atoms

Performance: 1.636 ns/day, 14.668 hours/ns, 37.874 timesteps/s, 13.862 katom-step/s
98.8% CPU use with 8 MPI tasks x 2 OpenMP threads

MPI task timing breakdown:
Section |  min time  |  avg time  |  max time  |%varavg| %total
---------------------------------------------------------------
Pair    | 102.3      | 108        | 115.16     |  45.5 | 81.81
Bond    | 0.00079335 | 0.0009293  | 0.0011857  |   0.0 |  0.00
Neigh   | 1.5426     | 1.5817     | 1.636      |   2.3 |  1.20
Comm    | 0.91771    | 8.0576     | 13.755     | 166.2 |  6.10
Output  | 0.010696   | 0.012162   | 0.013547   |   0.9 |  0.01
Modify  | 14.205     | 14.271     | 14.32      |   1.0 | 10.81
Other   |            | 0.08764    |            |       |  0.07

Nlocal:          45.75 ave          52 max          41 min
Histogram: 1 0 3 1 1 0 0 0 1 1
Nghost:        3419.62 ave        3432 max        3404 min
Histogram: 2 0 0 1 0 1 1 0 1 2
Neighs:        31047.1 ave       35045 max       28067 min
Histogram: 1 0 3 1 1 0 0 0 1 1

Total # of neighbors = 248377
Ave neighs/atom = 678.62568
Ave special neighs/atom = 0
Neighbor list builds = 61
Dangerous builds = 0
  using 2 OpenMP thread(s) per MPI task
Reading restart file ...
  restart file = 2 Aug 2023, LAMMPS = 2 Aug 2023
  restoring atom style full from restart
  triclinic box = (0 0 0) to (15.724 13.9031 17.2465) with tilt (-7.584 0.1778 0.4371)
WARNING: Triclinic box skew is large. LAMMPS will run inefficiently. (src/domain.cpp:220)
  2 by 2 by 2 MPI processor grid
  pair style reaxff stores no restart info
  366 atoms
Finding 1-2 1-3 1-4 neighbors ...
  special bond factors lj:    0        0        0       
  special bond factors coul:  0        0        0       
     0 = max # of 1-2 neighbors
     0 = max # of 1-3 neighbors
     0 = max # of 1-4 neighbors
     1 = max # of special neighbors
  special bonds CPU = 0.000 seconds
  read_restart CPU = 0.002 seconds
*****Positive-deform 4 starts.*****
WARNING: Van der Waals parameters for element SI indicate inner wall+shielding, but earlier atoms indicate a different van der Waals method. This may cause division-by-zero errors. Keeping van der Waals setting for earlier atoms. (src/REAXFF/reaxff_ffield.cpp:251)
Resetting global fix info from restart file:
  fix style: nvt, fix ID: fnvt
All restart file global fix info was re-assigned
WARNING: Compute rdf cutoff less than neighbor cutoff - forcing a needless neighbor list build (src/compute_rdf.cpp:179)
Neighbor list info ...
  update: every = 10 steps, delay = 0 steps, check = yes
  max neighbors/atom: 2000, page size: 100000
  master list distance cutoff = 12
  ghost atom cutoff = 12
  binsize = 6, bins = 4 3 3
  3 neighbor lists, perpetual/occasional/extra = 2 1 0
  (1) pair reaxff, perpetual
      attributes: half, newton off, ghost
      pair build: half/bin/newtoff/ghost
      stencil: full/ghost/bin/3d
      bin: standard
  (2) compute rdf, occasional
      attributes: half, newton on, cut 7
      pair build: half/bin/newton/tri
      stencil: half/bin/3d/tri
      bin: standard
  (3) fix qeq/reaxff, perpetual, copy from (1)
      attributes: half, newton off
      pair build: copy
      stencil: none
      bin: none
Setting up Verlet run ...
  Unit style    : real
  Current step  : 0
  Time step     : 0.5
Per MPI rank memory allocation (min/avg/max) = 135.2 | 136.4 | 137.8 Mbytes
   Step          Temp          PotEng         Press          Volume           Lx             Ly             Lz      
         0   298.37903     -41131.373      8311.3099      3770.2978      15.724         13.9031        17.2465      
       100   282.7899      -41121.879      5035.1191      3770.2978      15.724         13.9031        17.2465      
       200   294.99872     -41134.329     -121.53347      3770.2978      15.724         13.9031        17.2465      
       300   290.43188     -41133.838     -7074.0229      3770.2978      15.724         13.9031        17.2465      
       400   296.48286     -41146.062     -10585.197      3770.2978      15.724         13.9031        17.2465      
       500   282.47146     -41136.526     -5945.7693      3770.2978      15.724         13.9031        17.2465      
[...]
98.8% CPU use with 8 MPI tasks x 2 OpenMP threads

MPI task timing breakdown:
Section |  min time  |  avg time  |  max time  |%varavg| %total
---------------------------------------------------------------
Pair    | 100.86     | 108.01     | 115.7      |  46.8 | 81.08
Bond    | 0.00077421 | 0.00093111 | 0.0012103  |   0.0 |  0.00
Neigh   | 1.3458     | 1.3948     | 1.4375     |   2.6 |  1.05
Comm    | 1.0105     | 8.701      | 15.841     | 164.5 |  6.53
Output  | 0.01055    | 0.012037   | 0.013374   |   0.9 |  0.01
Modify  | 14.948     | 15.006     | 15.066     |   1.0 | 11.26
Other   |            | 0.08844    |            |       |  0.07

Nlocal:          45.75 ave          56 max          41 min
Histogram: 1 2 3 0 0 0 1 0 0 1
Nghost:        3437.12 ave        3503 max        3383 min
Histogram: 3 0 1 0 0 0 2 0 0 2
Neighs:        31045.2 ave       37517 max       27864 min
Histogram: 1 2 3 0 0 0 1 0 0 1

Total # of neighbors = 248362
Ave neighs/atom = 678.5847
Ave special neighs/atom = 0
Neighbor list builds = 58
Dangerous builds = 0
  using 2 OpenMP thread(s) per MPI task
Reading restart file ...
  restart file = 2 Aug 2023, LAMMPS = 2 Aug 2023
  restoring atom style full from restart
  triclinic box = (0 0 0) to (15.724 13.9031 17.2465) with tilt (-7.584 0.1778 0.4371)
WARNING: Triclinic box skew is large. LAMMPS will run inefficiently. (src/domain.cpp:220)
  2 by 2 by 2 MPI processor grid
  pair style reaxff stores no restart info
  366 atoms
Finding 1-2 1-3 1-4 neighbors ...
  special bond factors lj:    0        0        0       
  special bond factors coul:  0        0        0       
     0 = max # of 1-2 neighbors
     0 = max # of 1-3 neighbors
     0 = max # of 1-4 neighbors
     1 = max # of special neighbors
  special bonds CPU = 0.000 seconds
  read_restart CPU = 0.002 seconds
*****debug*****
xy = -7.5839999999999996305, deltaxy = 0.7584
xz = 0.17780000000000001359, deltaxz = -0.01778
yz = 0.43709999999999998854, deltayz = -0.04371
*****
*****Negative-deform 6 starts.*****
WARNING: Van der Waals parameters for element SI indicate inner wall+shielding, but earlier atoms indicate a different van der Waals method. This may cause division-by-zero errors. Keeping van der Waals setting for earlier atoms. (src/REAXFF/reaxff_ffield.cpp:251)
Resetting global fix info from restart file:
  fix style: nvt, fix ID: fnvt
All restart file global fix info was re-assigned
Neighbor list info ...
  update: every = 10 steps, delay = 0 steps, check = yes
  max neighbors/atom: 2000, page size: 100000
  master list distance cutoff = 12
  ghost atom cutoff = 12
  binsize = 6, bins = 4 3 3
  2 neighbor lists, perpetual/occasional/extra = 2 0 0
  (1) pair reaxff, perpetual
      attributes: half, newton off, ghost
      pair build: half/bin/newtoff/ghost
      stencil: full/ghost/bin/3d
      bin: standard
  (2) fix qeq/reaxff, perpetual, copy from (1)
      attributes: half, newton off
      pair build: copy
      stencil: none
      bin: none
Setting up Verlet run ...
  Unit style    : real
  Current step  : 0
  Time step     : 0.5
Per MPI rank memory allocation (min/avg/max) = 134.1 | 135.3 | 136.7 Mbytes
   Step          Temp          PotEng         Press          Volume           Lx             Ly             Lz      
         0   298.37903     -41131.373      8311.3099      3770.2978      15.724         13.9031        17.2465      
       100   282.79746     -41121.876      5038.2961      3770.2978      15.724         13.9031        17.2465      
       200   296.62983     -41135.293      2227.3192      3770.2978      15.724         13.9031        17.2465      
       300   293.37852     -41134.982     -9736.2595      3770.2978      15.724         13.9031        17.2465      
       400   293.33852     -41134.472     -6990.6833      3770.2978      15.724         13.9031        17.2465      
       500   287.05404     -41116.523     -8529.2161      3770.2978      15.724         13.9031        17.2465      
       600   284.12612     -41099.804      4015.3339      3770.2978      15.724         13.9031        17.2465      
       700   308.8516      -41102.192     -8847.6692      3770.2978      15.724         13.9031        17.2465      
       800   320.71343     -41110.507     -11782.601      3770.2978      15.724         13.9031        17.2465      
       900   279.53872     -41102.853     -2627.6214      3770.2978      15.724         13.9031        17.2465      
      1000   300.36475     -41130.191     -9287.284       3770.2978      15.724         13.9031        17.2465      
      1100   300.92631     -41134.604     -6868.938       3770.2978      15.724         13.9031        17.2465      
      1200   294.96602     -41127.779     -1251.6016      3770.2978      15.724         13.9031        17.2465      
      1300   284.2059      -41126.485      802.2636       3770.2978      15.724         13.9031        17.2465      
      1400   278.17256     -41135.568     -5110.6061      3770.2978      15.724         13.9031        17.2465      
      1500   298.28457     -41144.775      3028.768       3770.2978      15.724         13.9031        17.2465      
      1600   302.51479     -41111.634     -3237.6342      3770.2978      15.724         13.9031        17.2465      
      1700   296.95709     -41087.488      8507.7914      3770.2978      15.724         13.9031        17.2465      
      1800   316.59115     -41109.584     -3911.4895      3770.2978      15.724         13.9031        17.2465      
      1900   296.16272     -41103.258     -11883.173      3770.2978      15.724         13.9031        17.2465      
      2000   301.6274      -41121.323     -7.657797       3770.2978      15.724         13.9031        17.2465      
      2100   312.2335      -41131.074      2797.7801      3770.2978      15.724         13.9031        17.2465      
      2200   307.50593     -41121.011     -6937.4798      3770.2978      15.724         13.9031        17.2465      
      2300   291.70791     -41092.425     -13012.933      3770.2978      15.724         13.9031        17.2465      
      2400   312.50603     -41094.514     -6707.1262      3770.2978      15.724         13.9031        17.2465      
      2500   317.14701     -41099.94      -1539.9858      3770.2978      15.724         13.9031        17.2465      
      2600   286.96289     -41099.72      -1928.2777      3770.2978      15.724         13.9031        17.2465      
      2700   301.68932     -41113.525     -7424.1606      3770.2978      15.724         13.9031        17.2465      
      2800   299.42908     -41095.717     -6251.7889      3770.2978      15.724         13.9031        17.2465      
      2900   281.9914      -41083.102     -3941.8187      3770.2978      15.724         13.9031        17.2465      
      3000   282.60013     -41099.48      -3865.9789      3770.2978      15.724         13.9031        17.2465      
      3100   293.33507     -41107.029     -1215.5773      3770.2978      15.724         13.9031        17.2465      
      3200   319.88405     -41103.257      4293.2674      3770.2978      15.724         13.9031        17.2465      
      3300   330.62078     -41083.309     -6992.0166      3770.2978      15.724         13.9031        17.2465      
      3400   314.26756     -41081.63      -6061.8071      3770.2978      15.724         13.9031        17.2465      
      3500   290.29269     -41080.386     -756.91132      3770.2978      15.724         13.9031        17.2465      
      3600   321.08765     -41108.281     -9007.2183      3770.2978      15.724         13.9031        17.2465      
      3700   308.13469     -41097.066     -4601.5808      3770.2978      15.724         13.9031        17.2465      
      3800   275.36386     -41078.691     -11766.952      3770.2978      15.724         13.9031        17.2465      
      3900   281.86273     -41087.53       2122.7969      3770.2978      15.724         13.9031        17.2465      
      4000   294.91298     -41058.021     -1550.7127      3770.2978      15.724         13.9031        17.2465      
      4100   299.63591     -41048.509     -11878.603      3770.2978      15.724         13.9031        17.2465      
      4200   302.79529     -41061.182     -3813.6353      3770.2978      15.724         13.9031        17.2465      
      4300   292.74356     -41068.353     -3980.0144      3770.2978      15.724         13.9031        17.2465      
      4400   298.768       -41083.295     -4095.3947      3770.2978      15.724         13.9031        17.2465      
      4500   301.01705     -41075.291     -10487.866      3770.2978      15.724         13.9031        17.2465      
      4600   297.37344     -41047.029     -3967.762       3770.2978      15.724         13.9031        17.2465      
      4700   321.73509     -41042.34      -3710.4644      3770.2978      15.724         13.9031        17.2465      
      4800   343.5826      -41020.92      -15539.242      3770.2978      15.724         13.9031        17.2465      
      4900   314.61386     -41011.549     -12544.133      3770.2978      15.724         13.9031        17.2465      
      5000   306.7006      -41022.158     -2651.0109      3770.2978      15.724         13.9031        17.2465      
Loop time of 134.205 on 16 procs for 5000 steps with 366 atoms

Performance: 1.609 ns/day, 14.912 hours/ns, 37.256 timesteps/s, 13.636 katom-step/s
98.8% CPU use with 8 MPI tasks x 2 OpenMP threads

MPI task timing breakdown:
Section |  min time  |  avg time  |  max time  |%varavg| %total
---------------------------------------------------------------
Pair    | 103.95     | 110.58     | 117.3      |  46.4 | 82.39
Bond    | 0.00076662 | 0.00092692 | 0.0012136  |   0.0 |  0.00
Neigh   | 1.4072     | 1.4562     | 1.5107     |   2.8 |  1.09
Comm    | 1.0362     | 7.7466     | 14.361     | 174.9 |  5.77
Output  | 0.010499   | 0.012103   | 0.013396   |   0.8 |  0.01
Modify  | 14.257     | 14.323     | 14.383     |   1.2 | 10.67
Other   |            | 0.08971    |            |       |  0.07

Nlocal:          45.75 ave          50 max          39 min
Histogram: 1 0 0 0 1 1 3 0 0 2
Nghost:        3552.25 ave        3599 max        3515 min
Histogram: 2 1 1 0 0 1 1 0 1 1
Neighs:        31077.5 ave       33850 max       26683 min
Histogram: 1 0 0 0 1 1 3 0 0 2

Total # of neighbors = 248620
Ave neighs/atom = 679.28962
Ave special neighs/atom = 0
Neighbor list builds = 60
Dangerous builds = 0
  using 2 OpenMP thread(s) per MPI task
Reading restart file ...
  restart file = 2 Aug 2023, LAMMPS = 2 Aug 2023
  restoring atom style full from restart
  triclinic box = (0 0 0) to (15.724 13.9031 17.2465) with tilt (-7.584 0.1778 0.4371)
WARNING: Triclinic box skew is large. LAMMPS will run inefficiently. (src/domain.cpp:220)
  2 by 2 by 2 MPI processor grid
  pair style reaxff stores no restart info
  366 atoms
Finding 1-2 1-3 1-4 neighbors ...
  special bond factors lj:    0        0        0       
  special bond factors coul:  0        0        0       
     0 = max # of 1-2 neighbors
     0 = max # of 1-3 neighbors
     0 = max # of 1-4 neighbors
     1 = max # of special neighbors
  special bonds CPU = 0.000 seconds
  read_restart CPU = 0.002 seconds
*****Positive-deform 6 starts.*****
WARNING: Van der Waals parameters for element SI indicate inner wall+shielding, but earlier atoms indicate a different van der Waals method. This may cause division-by-zero errors. Keeping van der Waals setting for earlier atoms. (src/REAXFF/reaxff_ffield.cpp:251)
Resetting global fix info from restart file:
  fix style: nvt, fix ID: fnvt
All restart file global fix info was re-assigned
WARNING: Compute rdf cutoff less than neighbor cutoff - forcing a needless neighbor list build (src/compute_rdf.cpp:179)
Neighbor list info ...
  update: every = 10 steps, delay = 0 steps, check = yes
  max neighbors/atom: 2000, page size: 100000
  master list distance cutoff = 12
  ghost atom cutoff = 12
  binsize = 6, bins = 4 3 3
  3 neighbor lists, perpetual/occasional/extra = 2 1 0
  (1) pair reaxff, perpetual
      attributes: half, newton off, ghost
      pair build: half/bin/newtoff/ghost
      stencil: full/ghost/bin/3d
      bin: standard
  (2) compute rdf, occasional
      attributes: half, newton on, cut 7
      pair build: half/bin/newton/tri
      stencil: half/bin/3d/tri
      bin: standard
  (3) fix qeq/reaxff, perpetual, copy from (1)
      attributes: half, newton off
      pair build: copy
      stencil: none
      bin: none
Setting up Verlet run ...
  Unit style    : real
  Current step  : 0
  Time step     : 0.5
Per MPI rank memory allocation (min/avg/max) = 135.2 | 136.4 | 137.8 Mbytes
   Step          Temp          PotEng         Press          Volume           Lx             Ly             Lz      
         0   298.37903     -41131.373      8311.3099      3770.2978      15.724         13.9031        17.2465      
       100   282.79746     -41121.876      5038.2961      3770.2978      15.724         13.9031        17.2465      
       200   293.98715     -41134.895      1659.3082      3770.2978      15.724         13.9031        17.2465      
       300   290.98832     -41136.419     -12539.642      3770.2978      15.724         13.9031        17.2465      
       400   294.96289     -41142.779     -13198.016      3770.2978      15.724         13.9031        17.2465      
       500   301.85745     -41137.946     -6286.1693      3770.2978      15.724         13.9031        17.2465      
       600   304.35599     -41118.214     -2661.3767      3770.2978      15.724         13.9031        17.2465      
       700   321.44697     -41113.025      3271.1584      3770.2978      15.724         13.9031        17.2465      
       800   331.91402     -41118.064     -6721.666       3770.2978      15.724         13.9031        17.2465      
       900   289.46283     -41113.068     -3883.7007      3770.2978      15.724         13.9031        17.2465      
      1000   291.05166     -41125.735     -12302.468      3770.2978      15.724         13.9031        17.2465      
      1100   286.67825     -41121.689     -1052.4988      3770.2978      15.724         13.9031        17.2465      
      1200   300.49711     -41133.008     -10942.399      3770.2978      15.724         13.9031        17.2465      
      1300   295.40186     -41111.228     -6881.3158      3770.2978      15.724         13.9031        17.2465      
      1400   323.2544      -41110.19      -814.16184      3770.2978      15.724         13.9031        17.2465      
      1500   314.05356     -41103.587     -2948.0225      3770.2978      15.724         13.9031        17.2465      
      1600   287.66315     -41113.636     -3564.2601      3770.2978      15.724         13.9031        17.2465      
      1700   294.07209     -41123.284     -14759.907      3770.2978      15.724         13.9031        17.2465      
      1800   292.24494     -41119.328     -3700.677       3770.2978      15.724         13.9031        17.2465      
      1900   311.60645     -41122.79      -971.44648      3770.2978      15.724         13.9031        17.2465      
      2000   314.93435     -41107.973     -4314.6333      3770.2978      15.724         13.9031        17.2465      
      2100   311.52758     -41120.228     -4066.8318      3770.2978      15.724         13.9031        17.2465      
      2200   287.31719     -41123.846     -8401.3377      3770.2978      15.724         13.9031        17.2465      
      2300   291.39034     -41131.229     -1142.3805      3770.2978      15.724         13.9031        17.2465      
      2400   305.83745     -41119.446     -4007.0027      3770.2978      15.724         13.9031        17.2465      
      2500   305.81818     -41103.21      -2635.643       3770.2978      15.724         13.9031        17.2465      
      2600   287.9402      -41106.709     -13397.218      3770.2978      15.724         13.9031        17.2465      
      2700   277.01489     -41114.169     -13535.813      3770.2978      15.724         13.9031        17.2465      
      2800   291.98741     -41125.884     -3310.0219      3770.2978      15.724         13.9031        17.2465      
      2900   300.35812     -41114.939     -5707.8944      3770.2978      15.724         13.9031        17.2465      
      3000   339.43353     -41129.818     -1723.799       3770.2978      15.724         13.9031        17.2465      
      3100   304.39999     -41095.293     -3062.6993      3770.2978      15.724         13.9031        17.2465      
      3200   298.44335     -41123.962     -8247.9269      3770.2978      15.724         13.9031        17.2465      
      3300   291.81824     -41119.187      922.06157      3770.2978      15.724         13.9031        17.2465      
      3400   295.63421     -41101.917     -3659.5981      3770.2978      15.724         13.9031        17.2465      
      3500   313.09706     -41094.33      -13559.13       3770.2978      15.724         13.9031        17.2465      
      3600   309.1088      -41100.929      2808.2734      3770.2978      15.724         13.9031        17.2465      
      3700   307.39309     -41116.5       -4313.2896      3770.2978      15.724         13.9031        17.2465      
      3800   308.3519      -41116.424     -5214.767       3770.2978      15.724         13.9031        17.2465      
      3900   301.42469     -41110.204      4644.9724      3770.2978      15.724         13.9031        17.2465      
      4000   300.65659     -41103.113      4879.056       3770.2978      15.724         13.9031        17.2465      
      4100   324.72598     -41107.433     -10103.151      3770.2978      15.724         13.9031        17.2465      
      4200   300.4855      -41060.944     -6206.1215      3770.2978      15.724         13.9031        17.2465      
      4300   306.31342     -41063.267      5539.826       3770.2978      15.724         13.9031        17.2465      
      4400   300.62293     -41079.661      211.24248      3770.2978      15.724         13.9031        17.2465      
      4500   305.99733     -41098.685     -6394.9233      3770.2978      15.724         13.9031        17.2465      
      4600   307.53938     -41099.754      2699.6075      3770.2978      15.724         13.9031        17.2465      
      4700   298.86267     -41076.534     -6730.6393      3770.2978      15.724         13.9031        17.2465      
      4800   296.1555      -41043.425     -7367.9696      3770.2978      15.724         13.9031        17.2465      
      4900   314.19945     -41034.018     -4684.7807      3770.2978      15.724         13.9031        17.2465      
      5000   320.07199     -41067.958     -9759.2055      3770.2978      15.724         13.9031        17.2465      
Loop time of 130.565 on 16 procs for 5000 steps with 366 atoms

Performance: 1.654 ns/day, 14.507 hours/ns, 38.295 timesteps/s, 14.016 katom-step/s
98.8% CPU use with 8 MPI tasks x 2 OpenMP threads

MPI task timing breakdown:
Section |  min time  |  avg time  |  max time  |%varavg| %total
---------------------------------------------------------------
Pair    | 100.11     | 105.98     | 112.83     |  43.9 | 81.17
Bond    | 0.00078462 | 0.00092789 | 0.0011779  |   0.0 |  0.00
Neigh   | 1.5398     | 1.5813     | 1.6096     |   2.0 |  1.21
Comm    | 1.2071     | 8.0515     | 13.923     | 159.1 |  6.17
Output  | 0.010433   | 0.011914   | 0.013311   |   0.9 |  0.01
Modify  | 14.814     | 14.852     | 14.898     |   0.8 | 11.38
Other   |            | 0.08753    |            |       |  0.07

Nlocal:          45.75 ave          55 max          40 min
Histogram: 2 0 1 0 4 0 0 0 0 1
Nghost:        3287.25 ave        3333 max        3232 min
Histogram: 1 0 1 1 1 0 2 0 0 2
Neighs:        31107.8 ave       37130 max       27204 min
Histogram: 2 0 1 0 4 0 0 0 0 1

Total # of neighbors = 248862
Ave neighs/atom = 679.95082
Ave special neighs/atom = 0
Neighbor list builds = 63
Dangerous builds = 0
Total wall time: 0:28:26
