LAMMPS (2 Aug 2023 - Update 2)
  using 1 OpenMP thread(s) per MPI task
Reading data file ...
  triclinic box = (0 0 0) to (16.7222 13.589 17.3161) with tilt (-7.3464 -0.3071 -0.018)
WARNING: Triclinic box skew is large. LAMMPS will run inefficiently. (src/domain.cpp:220)
  2 by 1 by 2 MPI processor grid
  reading atoms ...
  386 atoms
Finding 1-2 1-3 1-4 neighbors ...
  special bond factors lj:    0        0        0       
  special bond factors coul:  0        0        0       
     0 = max # of 1-2 neighbors
     0 = max # of 1-3 neighbors
     0 = max # of 1-4 neighbors
     1 = max # of special neighbors
  special bonds CPU = 0.001 seconds
  read_data CPU = 0.007 seconds
WARNING: Van der Waals parameters for element SI indicate inner wall+shielding, but earlier atoms indicate a different van der Waals method. This may cause division-by-zero errors. Keeping van der Waals setting for earlier atoms. (src/REAXFF/reaxff_ffield.cpp:251)
*****Minimization starts.*****

CITE-CITE-CITE-CITE-CITE-CITE-CITE-CITE-CITE-CITE-CITE-CITE-CITE

Your simulation uses code contributions which should be cited:
- pair reaxff command: doi:10.1016/j.parco.2011.08.005
- fix qeq/reaxff command: doi:10.1016/j.parco.2011.08.005
The log file lists these citations in BibTeX format.

CITE-CITE-CITE-CITE-CITE-CITE-CITE-CITE-CITE-CITE-CITE-CITE-CITE

Switching to 'neigh_modify every 1 delay 0 check yes' setting during minimization
WARNING: Fix qeq/reaxff group is not charge neutral, net charge = -0.82 (src/REAXFF/fix_qeq_reaxff.cpp:392)
Neighbor list info ...
  update: every = 1 steps, delay = 0 steps, check = yes
  max neighbors/atom: 2000, page size: 100000
  master list distance cutoff = 12
  ghost atom cutoff = 12
  binsize = 6, bins = 5 3 3
  2 neighbor lists, perpetual/occasional/extra = 2 0 0
  (1) pair reaxff, perpetual
      attributes: half, newton off, ghost
      pair build: half/bin/newtoff/ghost
      stencil: full/ghost/bin/3d
      bin: standard
  (2) fix qeq/reaxff, perpetual, copy from (1)
      attributes: half, newton off
      pair build: copy
      stencil: none
      bin: none
Setting up cg style minimization ...
  Unit style    : real
  Current step  : 0
Per MPI rank memory allocation (min/avg/max) = 163.3 | 165.2 | 167.3 Mbytes
   Step          Temp          Press         Density         Volume         PotEng    
         0   0              191465.71      1.7215889      3934.8755     -35522.347    
        21   0              29399.619      1.7215889      3934.8755     -38002.156    
Loop time of 2.16852 on 4 procs for 21 steps with 386 atoms

96.2% CPU use with 4 MPI tasks x 1 OpenMP threads

Minimization stats:
  Stopping criterion = energy tolerance
  Energy initial, next-to-last, final = 
     -35522.3470973834  -38002.1510517603  -38002.1563268602
  Force two-norm initial, final = 4367.2495 510.79514
  Force max component initial, final = 823.44362 214.80031
  Final line search alpha, max atom move = 0.0003507811 0.075347889
  Iterations, force evaluations = 21 48

MPI task timing breakdown:
Section |  min time  |  avg time  |  max time  |%varavg| %total
---------------------------------------------------------------
Pair    | 1.518      | 1.5542     | 1.5933     |   2.3 | 71.67
Bond    | 9.4705e-05 | 0.00010315 | 0.00011279 |   0.0 |  0.00
Neigh   | 0          | 0          | 0          |   0.0 |  0.00
Comm    | 0.055081   | 0.094179   | 0.13042    |   9.5 |  4.34
Output  | 0.0052422  | 0.0055915  | 0.0061757  |   0.5 |  0.26
Modify  | 0.50984    | 0.50991    | 0.50994    |   0.0 | 23.51
Other   |            | 0.004558   |            |       |  0.21

Nlocal:           96.5 ave         107 max          90 min
Histogram: 1 1 0 1 0 0 0 0 0 1
Nghost:           4182 ave        4231 max        4146 min
Histogram: 2 0 0 0 0 0 1 0 0 1
Neighs:        64325.2 ave       70744 max       60487 min
Histogram: 1 1 0 1 0 0 0 0 0 1

Total # of neighbors = 257301
Ave neighs/atom = 666.5829
Ave special neighs/atom = 0
Neighbor list builds = 0
Dangerous builds = 0
System init for write_data ...
##### Equilibration starts.##### 
WARNING: Compute rdf cutoff less than neighbor cutoff - forcing a needless neighbor list build (src/compute_rdf.cpp:179)
Neighbor list info ...
  update: every = 10 steps, delay = 0 steps, check = yes
  max neighbors/atom: 2000, page size: 100000
  master list distance cutoff = 12
  ghost atom cutoff = 12
  binsize = 6, bins = 5 3 3
  3 neighbor lists, perpetual/occasional/extra = 2 1 0
  (1) pair reaxff, perpetual
      attributes: half, newton off, ghost
      pair build: half/bin/newtoff/ghost
      stencil: full/ghost/bin/3d
      bin: standard
  (2) compute rdf, occasional
      attributes: half, newton on, cut 7
      pair build: half/bin/newton/tri
      stencil: half/bin/3d/tri
      bin: standard
  (3) fix qeq/reaxff, perpetual, copy from (1)
      attributes: half, newton off
      pair build: copy
      stencil: none
      bin: none
Setting up Verlet run ...
  Unit style    : real
  Current step  : 0
  Time step     : 0.5
Per MPI rank memory allocation (min/avg/max) = 168.2 | 170.1 | 172.1 Mbytes
   Step          Temp          Press          PotEng         TotEng    
         0   300            33398.564     -38002.157     -37657.873    
       100   246.10882     -463.43721     -37903.334     -37620.897    
       200   305.62591      1955.8615     -37919.514     -37568.775    
       300   333.06911      7526.4524     -37958.769     -37576.535    
       400   317.04387     -9089.7465     -37999.264     -37635.421    
       500   281.98176      3406.2745     -37992.665     -37669.06     
       600   325.65634     -3346.3562     -38054.077     -37680.35     
       700   313.63233     -10385.08      -38081.32      -37721.392    
       800   317.41006     -3174.5632     -38134.93      -37770.667    
       900   292.04186      8709.1894     -38145.089     -37809.939    
      1000   299.86446      5153.469      -38186.289     -37842.161    
      1100   307.61967      4464.8611     -38223.798     -37870.77     
      1200   299.64414      5119.6211     -38255.123     -37911.248    
      1300   307.52865      698.60294     -38310.987     -37958.063    
      1400   321.12463      384.61307     -38365.533     -37997.007    
      1500   313.80987     -5504.8004     -38398.8       -38038.668    
      1600   295.68644     -3241.6247     -38413.911     -38074.578    
      1700   305.75921      12384.903     -38453.446     -38102.553    
      1800   312.78558      2067.1393     -38497.847     -38138.891    
      1900   346.6064      -3673.6951     -38594.91      -38197.141    
      2000   320.93358     -10046.341     -38619.645     -38251.338    
      2100   304.86418      1076.2045     -38648.807     -38298.941    
      2200   285.64263     -5755.9463     -38651.063     -38323.257    
      2300   293.87819     -6466.6236     -38672.482     -38335.223    
      2400   295.59209     -3769.1291     -38691.634     -38352.409    
      2500   295.87657     -2050.7466     -38720.451     -38380.9      
      2600   310.54723     -7044.1987     -38760.929     -38404.541    
      2700   297.9587      -5612.2327     -38769.014     -38427.073    
      2800   298.44602     -6222.744      -38778.927     -38436.427    
      2900   318.25348     -12474.892     -38790.427     -38425.196    
      3000   306.60844     -19697.871     -38759.107     -38407.24     
      3100   321.08484     -8727.786      -38755.041     -38386.56     
      3200   322.71673     -5508.6835     -38799.947     -38429.593    
      3300   304.77323     -3214.0447     -38824.156     -38474.394    
      3400   309.51233      8156.9227     -38869.077     -38513.877    
      3500   288.92512     -5163.5236     -38869.461     -38537.887    
      3600   299.94189      3002.2925     -38884.197     -38539.981    
      3700   305.46696      853.63577     -38867.616     -38517.059    
      3800   289.20983      8037.6921     -38824.593     -38492.692    
      3900   313.69486      16560.874     -38852.806     -38492.806    
      4000   342.5019      -8623.2196     -38909.736     -38516.677    
      4100   290.17742     -104.93638     -38868.378     -38535.367    
      4200   305.19536      2540.0591     -38886.784     -38536.538    
      4300   297.04316     -7746.8176     -38885.154     -38544.263    
      4400   280.68805      7415.7228     -38887.034     -38564.913    
      4500   296.23336      9033.9929     -38926.925     -38586.964    
      4600   293.62437      3862.0225     -38926.809     -38589.842    
      4700   305.94575      781.09301     -38906.306     -38555.199    
      4800   310.02999      8427.721      -38891.676     -38535.882    
      4900   301.75678     -4761.5098     -38909.054     -38562.754    
      5000   291.29907     -2115.4682     -38911.164     -38576.866    
      5100   291.96296     -4561.8942     -38913.514     -38578.454    
      5200   317.85817     -2049.793      -38937.718     -38572.94     
      5300   288.82757     -10494.831     -38901.608     -38570.146    
      5400   321.43577      127.13264     -38939.565     -38570.682    
      5500   297.14873      7938.0159     -38933.585     -38592.574    
      5600   286.51697      4559.2429     -38940.578     -38611.768    
      5700   297.57798     -2181.5812     -38947.902     -38606.398    
      5800   323.73735      15263.963     -38944.926     -38573.401    
      5900   317.05301      19850.107     -38940.181     -38576.327    
      6000   294.13375      1020.5899     -38959.946     -38622.394    
      6100   295.80292     -6503.5675     -38981.627     -38642.16     
      6200   282.14942      4362.8115     -38985.034     -38661.236    
      6300   305.91513     -1886.4338     -38994.348     -38643.276    
      6400   320.32953     -3543.6364     -38998.324     -38630.71     
      6500   318.76616     -8458.4354     -39001.452     -38635.632    
      6600   315.00768      5995.8439     -39036.229     -38674.723    
      6700   296.30121      9546.1293     -39025.334     -38685.296    
      6800   317.5827      -5449.0189     -39023.23      -38658.768    
      6900   299.99754     -14.464249     -38994.651     -38650.37     
      7000   312.66608     -11406.926     -39000.263     -38641.444    
      7100   339.36678     -5665.7777     -39002.798     -38613.337    
      7200   294.84868     -3955.3722     -38961.137     -38622.765    
      7300   287.28186     -9397.5655     -38986.759     -38657.071    
      7400   306.91522     -6143.5306     -39020.143     -38667.924    
      7500   287.49297     -7207.3911     -39006.496     -38676.565    
      7600   291.55522      252.9597      -39024.054     -38689.462    
      7700   285.00253     -7824.419      -39036.857     -38709.785    
      7800   295.9926      -1137.7665     -39031.183     -38691.499    
      7900   307.01844     -7940.0217     -39014.749     -38662.411    
      8000   306.4216       1431.7845     -39014.027     -38662.374    
      8100   282.45175      1033.3968     -39002.346     -38678.201    
      8200   303.65447      5611.0221     -39035.28      -38686.803    
      8300   300.43704     -3666.526      -39033.545     -38688.76     
      8400   296.57889     -2338.4583     -39030.208     -38689.851    
      8500   306.22979      6281.8331     -39036.221     -38684.788    
      8600   328.24007     -2969.4411     -39075.249     -38698.557    
      8700   298.11224      10713.763     -39077.81      -38735.693    
      8800   296.2036      -4036.1931     -39081.899     -38741.972    
      8900   288.66234      5349.5503     -39065.94      -38734.667    
      9000   308.81067      8853.0351     -39059.625     -38705.23     
      9100   319.54918     -9052.1883     -39051.635     -38684.917    
      9200   325.56044      3389.4907     -39077.823     -38704.206    
      9300   321.29372      13098.033     -39089.876     -38721.156    
      9400   288.93419     -3420.9317     -39073.95      -38742.365    
      9500   301.47188      1145.0606     -39091.257     -38745.285    
      9600   303.04009     -9683.7113     -39078.331     -38730.559    
      9700   320.05712      6923.5427     -39071.044     -38703.742    
      9800   329.34427     -7725.5753     -39087.3       -38709.341    
      9900   299.23349     -1747.0989     -39097.833     -38754.429    
     10000   296.8086       8086.6088     -39109.849     -38769.228    
     10100   305.46281     -1937.3239     -39137.928     -38787.375    
     10200   291.66487     -15783.375     -39140.997     -38806.279    
     10300   291.16224     -7200.0091     -39127.564     -38793.423    
     10400   299.18684      13720.225     -39102.825     -38759.474    
     10500   290.1631      -8166.8556     -39092.625     -38759.631    
     10600   282.88754      5320.3135     -39099.876     -38775.231    
     10700   301.62215     -863.81693     -39128.28      -38782.134    
     10800   295.14852      5569.1108     -39124.887     -38786.171    
     10900   311.17226     -7590.0954     -39119.751     -38762.646    
     11000   317.27899      11238.189     -39112.243     -38748.13     
     11100   313.22987     -5273.3945     -39117.785     -38758.319    
     11200   309.12052      2344.3323     -39160.64      -38805.89     
     11300   305.63244      5170.766      -39181.659     -38830.911    
     11400   296.1753      -8786.6883     -39194.721     -38854.826    
     11500   301.87622     -1206.3153     -39219.694     -38873.257    
     11600   283.14386     -6015.4916     -39191.961     -38867.022    
     11700   282.52112     -7472.9093     -39151.621     -38827.396    
     11800   311.58281     -13932.65      -39173.429     -38815.853    
     11900   314.20027      3043.5113     -39186.821     -38826.241    
     12000   294.83513     -2490.2436     -39193.333     -38854.977    
     12100   295.01462      9488.8263     -39197.852     -38859.29     
     12200   301.8704      -11103.597     -39206.276     -38859.846    
     12300   268.38257      5956.4554     -39209.425     -38901.426    
     12400   370.44051      391.58487     -39363.193     -38938.071    
     12500   335.72441      4260.8797     -39360.818     -38975.536    
     12600   261.38034      3128.1847     -39294.659     -38994.696    
     12700   323.60699      4793.4484     -39375.872     -39004.497    
     12800   345.05459      11749.897     -39390.405     -38994.416    
     12900   272.55377     -6998.9833     -39286.651     -38973.866    
     13000   292.17171      9454.5247     -39308.311     -38973.011    
     13100   296.40141     -4453.1779     -39329.821     -38989.667    
     13200   249.12176     -9628.727      -39301.519     -39015.624    
     13300   287.683       -9029.0437     -39350.55      -39020.402    
     13400   257.23295      7232.6106     -39303.948     -39008.745    
     13500   342.77277     -114.58385     -39368.119     -38974.749    
     13600   340.20398      821.36398     -39364.062     -38973.64     
     13700   268.57504      2003.7079     -39295.33      -38987.11     
     13800   312.76741     -4923.9429     -39367.775     -39008.839    
     13900   268.04112     -10596.249     -39324.699     -39017.092    
     14000   347.56263     -2728.187      -39383.437     -38984.57     
     14100   269.99178      1846.5611     -39291.945     -38982.099    
     14200   314.39256      3144.1632     -39376.473     -39015.672    
     14300   256.28088     -16934.675     -39327.025     -39032.914    
     14400   294.47285     -4189.9266     -39368.384     -39030.443    
     14500   247.2352       6443.132      -39294.294     -39010.564    
     14600   321.90413      5123.7238     -39350.44      -38981.019    
     14700   318.26521     -5479.6816     -39347.477     -38982.232    
     14800   287.22926      6225.0772     -39331.652     -39002.024    
     14900   325.47584      4352.3392     -39397.32      -39023.8      
     15000   270.01921     -8874.5165     -39336.835     -39026.957    
     15100   289.8165      -5126.1141     -39358.269     -39025.672    
     15200   280.53138      2246.1662     -39315.389     -38993.448    
     15300   307.16142      7591.4365     -39321.313     -38968.811    
     15400   280.70352     -8704.0409     -39309.303     -38987.165    
     15500   315.617       -6208.2815     -39373.728     -39011.523    
     15600   267.64262     -711.77867     -39327.895     -39020.745    
     15700   310.82228      359.76738     -39386.298     -39029.594    
     15800   294.45506     -754.50555     -39391.983     -39054.063    
     15900   308.16053      60.706698     -39421.576     -39067.927    
     16000   313.57165     -3773.0941     -39443.919     -39084.06     
     16100   269.80247      7720.9191     -39406.967     -39097.339    
     16200   293.92996     -4035.181      -39428.889     -39091.571    
     16300   290.94562      1102.9906     -39389.901     -39056.009    
     16400   285.36208     -6791.6151     -39372.044     -39044.559    
     16500   343.44295      1656.335      -39459.144     -39065.005    
     16600   293.49061     -4436.3725     -39421.758     -39084.945    
     16700   298.75071      8072.8869     -39425.262     -39082.412    
     16800   273.04151      12167.557     -39391.78      -39078.434    
     16900   342.68322      11016.573     -39470.718     -39077.451    
     17000   283.00361      3342.7596     -39400.104     -39075.326    
     17100   313.31961      8686.7105     -39443.764     -39084.195    
     17200   293.39198      6213.5517     -39422.403     -39085.703    
     17300   266.19102     -4495.1712     -39389.666     -39084.182    
     17400   299.50102      3380.1907     -39423.12      -39079.409    
     17500   328.22293     -10035.626     -39451.775     -39075.102    
     17600   323.55218     -7900.7773     -39439.171     -39067.859    
     17700   278.1938       1134.1036     -39377.993     -39058.734    
     17800   297.26556      4857.7132     -39409.911     -39068.766    
     17900   282.29082     -2037.0783     -39412.778     -39088.817    
     18000   330.9593      -20338.162     -39491.143     -39111.331    
     18100   260.1935       6254.9        -39417.109     -39118.508    
     18200   295.75404     -2164.3904     -39412.253     -39072.842    
     18300   284.90936     -1050.6232     -39388.653     -39061.687    
     18400   324.58286     -6775.8604     -39430.75      -39058.255    
     18500   271.92929      7013.7666     -39388.577     -39076.508    
     18600   287.80478     -15810.683     -39429.544     -39099.256    
     18700   305.86741      11143.793     -39449.102     -39098.085    
     18800   317.33466      1487.3582     -39422.624     -39058.447    
     18900   292.74863      4378.2554     -39383.291     -39047.329    
     19000   300.92602     -1489.5209     -39406.318     -39060.972    
     19100   311.28955     -1885.6176     -39436.779     -39079.539    
     19200   299.36286      1885.0589     -39446.521     -39102.969    
     19300   287.51362     -5424.6282     -39467.487     -39137.533    
     19400   253.859        6209.4762     -39420.91      -39129.579    
     19500   290.22341     -4163.5502     -39432.672     -39099.608    
     19600   311.2026      -865.02632     -39440.648     -39083.508    
     19700   317.91952      7648.362      -39431.738     -39066.89     
     19800   289.85236     -6505.2753     -39390.765     -39058.127    
     19900   284.94516     -2444.7782     -39396.074     -39069.067    
     20000   311.49203      2107.593      -39452.306     -39094.834    
Loop time of 706.771 on 4 procs for 20000 steps with 386 atoms

Performance: 1.222 ns/day, 19.633 hours/ns, 28.298 timesteps/s, 10.923 katom-step/s
98.9% CPU use with 4 MPI tasks x 1 OpenMP threads

MPI task timing breakdown:
Section |  min time  |  avg time  |  max time  |%varavg| %total
---------------------------------------------------------------
Pair    | 586.77     | 593.61     | 601.92     |  24.8 | 83.99
Bond    | 0.043478   | 0.0445     | 0.046204   |   0.5 |  0.01
Neigh   | 14.268     | 14.627     | 15.381     |  11.5 |  2.07
Comm    | 5.7078     | 14.008     | 20.856     | 161.3 |  1.98
Output  | 0.068931   | 0.18294    | 0.34335    |  24.9 |  0.03
Modify  | 83.033     | 83.811     | 84.13      |   4.9 | 11.86
Other   |            | 0.4846     |            |       |  0.07

Nlocal:           96.5 ave         106 max          87 min
Histogram: 1 0 1 0 0 0 0 1 0 1
Nghost:        3966.25 ave        4032 max        3928 min
Histogram: 1 1 0 1 0 0 0 0 0 1
Neighs:          60294 ave       65574 max       54869 min
Histogram: 1 0 1 0 0 0 0 1 0 1

Total # of neighbors = 241176
Ave neighs/atom = 624.80829
Ave special neighs/atom = 0
Neighbor list builds = 541
Dangerous builds = 0
System init for write_data ...
WARNING: Compute rdf cutoff less than neighbor cutoff - forcing a needless neighbor list build (src/compute_rdf.cpp:179)
Total wall time: 0:11:49
