LAMMPS (2 Aug 2023 - Update 2)
  using 6 OpenMP thread(s) per MPI task

The 'box' command has been removed and will be ignored

Reading data file ...
  triclinic box = (0 0 0) to (19.0492 14.0575 17.55) with tilt (-10.7944 1.3894 -3.3406)
WARNING: Triclinic box skew is large. LAMMPS will run inefficiently. (src/domain.cpp:220)
  1 by 1 by 2 MPI processor grid
  reading atoms ...
  373 atoms
Finding 1-2 1-3 1-4 neighbors ...
  special bond factors lj:    0        0        0       
  special bond factors coul:  0        0        0       
     0 = max # of 1-2 neighbors
     0 = max # of 1-3 neighbors
     0 = max # of 1-4 neighbors
     1 = max # of special neighbors
  special bonds CPU = 0.000 seconds
  read_data CPU = 0.006 seconds
*****Minimization starts.*****

CITE-CITE-CITE-CITE-CITE-CITE-CITE-CITE-CITE-CITE-CITE-CITE-CITE

Your simulation uses code contributions which should be cited:
- pair reaxff command: doi:10.1016/j.parco.2011.08.005
- fix qeq/reaxff command: doi:10.1016/j.parco.2011.08.005
The log file lists these citations in BibTeX format.

CITE-CITE-CITE-CITE-CITE-CITE-CITE-CITE-CITE-CITE-CITE-CITE-CITE

Switching to 'neigh_modify every 1 delay 0 check yes' setting during minimization
WARNING: Fix qeq/reaxff group is not charge neutral, net charge = 39.36 (src/REAXFF/fix_qeq_reaxff.cpp:392)
Neighbor list info ...
  update: every = 1 steps, delay = 0 steps, check = yes
  max neighbors/atom: 2000, page size: 100000
  master list distance cutoff = 12
  ghost atom cutoff = 12
  binsize = 6, bins = 6 3 3
  2 neighbor lists, perpetual/occasional/extra = 2 0 0
  (1) pair reaxff, perpetual
      attributes: half, newton off, ghost
      pair build: half/bin/newtoff/ghost
      stencil: full/ghost/bin/3d
      bin: standard
  (2) fix qeq/reaxff, perpetual, copy from (1)
      attributes: half, newton off
      pair build: copy
      stencil: none
      bin: none
Setting up cg style minimization ...
  Unit style    : real
  Current step  : 0
Per MPI rank memory allocation (min/avg/max) = 202 | 202.2 | 202.5 Mbytes
   Step          Temp          Press         Density         Volume    
         0   0              117174.54      1.1428982      4699.6115    
        10   0             -12042.926      1.1428982      4699.6115    
        20   0              9824.4104      1.1428982      4699.6115    
        30   0             -6895.0264      1.1428982      4699.6115    
        40   0              248.67612      1.1428982      4699.6115    
        50   0             -1177.3192      1.1428982      4699.6115    
Loop time of 11.5895 on 12 procs for 50 steps with 373 atoms

65.9% CPU use with 2 MPI tasks x 6 OpenMP threads

Minimization stats:
  Stopping criterion = energy tolerance
  Energy initial, next-to-last, final = 
     -37805.7262335722  -40104.2219257374  -40104.2440322482
  Force two-norm initial, final = 2431.5363 219.26482
  Force max component initial, final = 745.91392 124.78768
  Final line search alpha, max atom move = 0.00034093049 0.042543925
  Iterations, force evaluations = 50 107

MPI task timing breakdown:
Section |  min time  |  avg time  |  max time  |%varavg| %total
---------------------------------------------------------------
Pair    | 6.8278     | 7.0466     | 7.2654     |   8.2 | 60.80
Bond    | 4.0344e-05 | 4.7603e-05 | 5.4863e-05 |   0.0 |  0.00
Neigh   | 0.050846   | 0.06234    | 0.073834   |   4.6 |  0.54
Comm    | 1.4559     | 1.6679     | 1.8798     |  16.4 | 14.39
Output  | 0.018739   | 0.018824   | 0.018909   |   0.1 |  0.16
Modify  | 2.7707     | 2.7822     | 2.7937     |   0.7 | 24.01
Other   |            | 0.01162    |            |       |  0.10

Nlocal:          186.5 ave         187 max         186 min
Histogram: 1 0 0 0 0 0 0 0 0 1
Nghost:         4818.5 ave        4819 max        4818 min
Histogram: 1 0 0 0 0 0 0 0 0 1
Neighs:        94851.5 ave       95299 max       94404 min
Histogram: 1 0 0 0 0 0 0 0 0 1

Total # of neighbors = 189703
Ave neighs/atom = 508.58713
Ave special neighs/atom = 0
Neighbor list builds = 1
Dangerous builds not checked
System init for write_data ...
*****Equilibration starts.*****
Setting up Verlet run ...
  Unit style    : real
  Current step  : 50
  Time step     : 0.5
Per MPI rank memory allocation (min/avg/max) = 201.7 | 201.9 | 202.1 Mbytes
   Step          Temp          Press         Density         Volume    
        50   300            2058.2014      1.1428982      4699.6115    
        60   225.6893       1582.119       1.1408492      4708.0523    
        70   202.48108      905.04031      1.1384137      4718.1246    
        80   209.45927     -2563.8387      1.1330846      4740.3149    
        90   214.95638     -995.20178      1.1359658      4728.2916    
       100   214.37609     -6846.8141      1.1389661      4715.8362    
       110   220.07227     -8049.3179      1.1431147      4698.7214    
       120   240.38428     -11326.981      1.1446884      4692.2617    
       130   255.01868     -7385.3553      1.1515684      4664.2281    
       140   260.61715     -670.87581      1.156827       4643.0257    
       150   294.41863      4586.1007      1.1594684      4632.4486    
       160   290.51165      4681.9846      1.1681994      4597.8259    
       170   283.78838      709.18371      1.175209       4570.4021    
       180   319.05386     -3785.37        1.1809416      4548.2161    
       190   310.62075     -4525.9581      1.1875786      4522.7975    
       200   303.32599      1753.6312      1.1885967      4518.9234    
       210   308.61788      3772.7082      1.1846788      4533.8681    
       220   343.09502      1530.3152      1.1868775      4525.4693    
       230   332.58366     -5926.8948      1.1878421      4521.7944    
       240   340.33965     -12252.858      1.1840289      4536.3568    
       250   364.48641     -9712.6732      1.1904317      4511.9577    
       260   359.61019     -9017.6752      1.1900066      4513.5694    
       270   358.94715     -5532.181       1.1884264      4519.5709    
       280   359.32451     -2734.2181      1.1861231      4528.3476    
       290   363.82273     -9655.7007      1.1800835      4551.5231    
       300   357.97341     -8833.6143      1.1843476      4535.1361    
       310   344.23178     -8196.7452      1.1876281      4522.6091    
       320   358.43458     -11789.536      1.1846101      4534.131     
       330   356.30703     -8644.3294      1.1841818      4535.7712    
       340   347.28055     -9870.7691      1.1847771      4533.4921    
       350   355.29741     -10483.169      1.190232       4512.7147    
       360   356.48314     -10815.316      1.1855554      4530.5157    
       370   365.81157     -9033.659       1.189356       4516.0386    
       380   344.6045       44.386265      1.2006639      4473.5065    
       390   331.2421       2048.186       1.2002959      4474.8779    
       400   351.40382      6592.3783      1.2004787      4474.1963    
       410   352.44154      5989.4118      1.1988902      4480.1245    
       420   344.52199      524.32575      1.1945191      4496.5187    
       430   335.6702       7401.8055      1.194709       4495.804     
       440   345.77129     -5510.2171      1.1884826      4519.3575    
       450   343.93616     -9759.3324      1.1877391      4522.1863    
       460   335.58371     -5925.9366      1.196511       4489.0332    
       470   352.59969     -6789.8831      1.1923805      4504.5837    
       480   339.21897     -1847.4997      1.1906145      4511.2651    
       490   322.41965     -985.16975      1.190686       4510.9943    
       500   325.14021      2190.0944      1.1936633      4499.7427    
       510   335.15398      1217.471       1.2002526      4475.0394    
       520   333.77297      402.57379      1.2026502      4466.118     
       530   333.8667       3563.153       1.2116969      4432.7731    
       540   336.8762       3273.8672      1.2139627      4424.4996    
       550   326.05159     -2115.8751      1.2092777      4441.6413    
Loop time of 32.0531 on 12 procs for 500 steps with 373 atoms

Performance: 0.674 ns/day, 35.615 hours/ns, 15.599 timesteps/s, 5.818 katom-step/s
92.0% CPU use with 2 MPI tasks x 6 OpenMP threads

MPI task timing breakdown:
Section |  min time  |  avg time  |  max time  |%varavg| %total
---------------------------------------------------------------
Pair    | 23.878     | 23.996     | 24.114     |   2.4 | 74.86
Bond    | 0.00016566 | 0.00016751 | 0.00016937 |   0.0 |  0.00
Neigh   | 2.281      | 2.2936     | 2.3063     |   0.8 |  7.16
Comm    | 1.7423     | 1.8303     | 1.9183     |   6.5 |  5.71
Output  | 0.04286    | 0.050294   | 0.057728   |   3.3 |  0.16
Modify  | 3.8348     | 3.8699     | 3.9051     |   1.8 | 12.07
Other   |            | 0.01256    |            |       |  0.04

Nlocal:          186.5 ave         195 max         178 min
Histogram: 1 0 0 0 0 0 0 0 0 1
Nghost:         4617.5 ave        4637 max        4598 min
Histogram: 1 0 0 0 0 0 0 0 0 1
Neighs:         100130 ave      104116 max       96143 min
Histogram: 1 0 0 0 0 0 0 0 0 1

Total # of neighbors = 200259
Ave neighs/atom = 536.8874
Ave special neighs/atom = 0
Neighbor list builds = 50
Dangerous builds not checked
*****Heating starts.*****
Setting up Verlet run ...
  Unit style    : real
  Current step  : 550
  Time step     : 0.5
Per MPI rank memory allocation (min/avg/max) = 201.8 | 202.5 | 203.2 Mbytes
   Step          Temp          Press         Density         Volume    
       550   326.05159     -2115.9774      1.2092777      4441.6413    
       560   340.72701     -1026.7028      1.2160551      4416.8865    
       570   313.47947      2339.7437      1.2161299      4416.615     
       580   323.40058     -9098.2137      1.2068471      4450.5865    
       590   326.50121     -1638.7316      1.2106344      4436.6636    
       600   332.7004      -6266.8764      1.2047178      4458.4527    
       610   337.12581     -4702.7415      1.2125012      4429.8327    
       620   346.58541      2469.4335      1.2234687      4390.1227    
       630   332.75101      15121.365      1.2269765      4377.5716    
       640   347.14545      26540.413      1.2388971      4335.4508    
       650   364.4628       13171.789      1.2362215      4344.8342    
       660   374.89666      9744.8384      1.2377238      4339.5608    
       670   369.19968      14355.066      1.2436639      4318.8336    
       680   388.72948      9187.4292      1.2363084      4344.529     
       690   386.54767      10031.632      1.2481851      4303.1899    
       700   417.64408      5711.8821      1.2444957      4315.9472    
       710   407.22077      7447.124       1.2435575      4319.2034    
       720   407.64581      2537.4404      1.2514093      4292.103     
       730   434.83363     -9716.4207      1.2426463      4322.3705    
       740   432.14836     -8595.2145      1.2431612      4320.5801    
       750   479.40646     -10897.616      1.2359564      4345.7662    
       760   467.82277     -5799.6427      1.236895       4342.4686    
       770   468.13999      2201.7357      1.2394204      4333.6206    
       780   480.66302      1483.1058      1.2322228      4358.9339    
       790   510.14186      11198.104      1.2412209      4327.334     
       800   547.71487      9903.4303      1.2431203      4320.7222    
       810   539.95077      14440.889      1.2521367      4289.6094    
       820   553.85981      11096.486      1.2570035      4273.0011    
       830   556.58443      4139.2463      1.2526713      4287.779     
       840   591.01303      8803.3319      1.2585214      4267.8475    
       850   596.21312      3292.0879      1.2570671      4272.7849    
       860   608.27212     -6393.0666      1.2593243      4265.1267    
       870   624.05546     -6396.3865      1.2588636      4266.6875    
       880   629.09914     -16722.394      1.2446416      4315.4413    
       890   627.42712     -8255.6442      1.2533743      4285.3738    
       900   651.36592     -11377.07       1.250109       4296.5676    
       910   663.3318      -14346.096      1.2423414      4323.431     
       920   681.96978     -10919.609      1.247587       4305.2529    
       930   743.95444     -17592.488      1.2496866      4298.0198    
       940   743.04594     -11924.633      1.2564265      4274.9636    
       950   809.68514     -4087.7098      1.2541776      4282.6291    
       960   780.71479      1260.402       1.2558925      4276.7813    
       970   834.7902       4365.8685      1.2599232      4263.0993    
       980   816.04064      19162.741      1.2688039      4233.2607    
       990   846.70442      27370.709      1.2665549      4240.7776    
      1000   901.10528      38976.793      1.2610131      4259.4147    
      1010   898.81593      19371.032      1.2540636      4283.0186    
      1020   932.17576      7013.8778      1.2455528      4312.2842    
      1030   953.55748      1411.8966      1.244786       4314.9407    
      1040   951.09895     -10175.398      1.2360992      4345.2643    
      1050   968.65535     -13667.581      1.2301291      4366.3526    
Loop time of 23.7717 on 12 procs for 500 steps with 373 atoms

Performance: 0.909 ns/day, 26.413 hours/ns, 21.033 timesteps/s, 7.845 katom-step/s
99.0% CPU use with 2 MPI tasks x 6 OpenMP threads

MPI task timing breakdown:
Section |  min time  |  avg time  |  max time  |%varavg| %total
---------------------------------------------------------------
Pair    | 18.483     | 18.487     | 18.492     |   0.1 | 77.77
Bond    | 0.00011852 | 0.00012267 | 0.00012682 |   0.0 |  0.00
Neigh   | 1.8287     | 1.8301     | 1.8314     |   0.1 |  7.70
Comm    | 0.15565    | 0.16088    | 0.16611    |   1.3 |  0.68
Output  | 0.026651   | 0.034724   | 0.042798   |   4.3 |  0.15
Modify  | 3.2384     | 3.2485     | 3.2586     |   0.6 | 13.67
Other   |            | 0.01037    |            |       |  0.04

Nlocal:          186.5 ave         188 max         185 min
Histogram: 1 0 0 0 0 0 0 0 0 1
Nghost:           4563 ave        4574 max        4552 min
Histogram: 1 0 0 0 0 0 0 0 0 1
Neighs:         102058 ave      102688 max      101427 min
Histogram: 1 0 0 0 0 0 0 0 0 1

Total # of neighbors = 204115
Ave neighs/atom = 547.2252
Ave special neighs/atom = 0
Neighbor list builds = 50
Dangerous builds not checked
Total wall time: 0:01:07
