LAMMPS (2 Aug 2023 - Update 2)
  using 1 OpenMP thread(s) per MPI task
# Initialization
units           real
dimension       3
boundary        p p p
atom_style      full
timestep        0.5   # fs

variable       nevery equal 1000
variable       nrepeat equal 1
variable       nfreq equal ${nevery}*${nrepeat}
variable       nfreq equal 1000*${nrepeat}
variable       nfreq equal 1000*1
variable       nthermo equal ${nfreq}/10
variable       nthermo equal 1000/10
variable       nrun equal 1200*${nthermo}          # stpes of equilibrated run 1000 (30 min)
variable       nrun equal 1200*100          

variable temp equal 300.0                # temperature of initial sample
variable tdamp equal 50.0                 # time constant for thermostat
variable seed equal 123456                # seed for thermostat
variable ufac equal 1.01325e-4         # pressure unit conversion, from atm to Gpa
variable up equal .6                  # the deformation magnitude 0.01

variable FF string "SiOCHN_2018.ff C H O Si"   # force field args for pair_coeff
# pair_coeff * * CHONSSi.ff O Si
# pair_coeff * * CHOSiNa.ff O Si
# 2019: pair_coeff * * SiOCHN_2018.ff C H O Si
# pair_coeff * * PDMSDecomp.ff Si O
# 2020: pair_coeff * * CHONSi.ff C H O Si
# pair_coeff * * CHOFe.ff O Si
variable structure string 333U-50C-9-vasp

# Read the initial sctructure
# box tilt large
read_data       ${structure}.data
read_data       333U-50C-9-vasp.data
Reading data file ...
  triclinic box = (0 0 0) to (16.6078 13.4502 17.3502) with tilt (-9.4505 -1.0717 0.0034)
WARNING: Triclinic box skew is large. LAMMPS will run inefficiently. (src/domain.cpp:220)
  2 by 2 by 2 MPI processor grid
  reading atoms ...
  386 atoms
Finding 1-2 1-3 1-4 neighbors ...
  special bond factors lj:    0        0        0       
  special bond factors coul:  0        0        0       
     0 = max # of 1-2 neighbors
     0 = max # of 1-3 neighbors
     0 = max # of 1-4 neighbors
     1 = max # of special neighbors
  special bonds CPU = 0.001 seconds
  read_data CPU = 0.006 seconds

# Assign the force field
pair_style reaxff NULL safezone 3.0 mincap 150
pair_coeff * * ${FF}
pair_coeff * * SiOCHN_2018.ff C H O Si
WARNING: Van der Waals parameters for element SI indicate inner wall+shielding, but earlier atoms indicate a different van der Waals method. This may cause division-by-zero errors. Keeping van der Waals setting for earlier atoms. (src/REAXFF/reaxff_ffield.cpp:251)
# charge method for reaxff
fix myqeq all qeq/reaxff 1 0.0 10.0 1.0e-6 reaxff maxiter 400

# # Energy minimization
# print "*****Minimization starts.*****"
# dump dump_opt all custom 1 dump/dump_opt.lammpstrj id type q x y z
# minimize 1.0e-6 1.0e-6 100 1000
# min_style cg
# # Save the optimized structure
# write_data ${structure}_opt.data
# undump dump_opt
# unfix bondinfo

velocity        all create ${temp} ${seed} dist gaussian
velocity        all create 300 ${seed} dist gaussian
velocity        all create 300 123456 dist gaussian

# # Equilibration
# variable       nequil equal 10*${nthermo}  # 2000: 100 ps
# include ff.mod.lmp
# if "$(is_defined(fix,avgp))" then "unfix avgp"
# if "$(is_defined(fix,avgl))" then "unfix avgl"
# thermo_style custom step temp pe press density vol
# dump dump_eq all custom ${nthermo} dump/dump_eq.lammpstrj id type q x y z

# run ${nequil}
# # Save the equilibrated structure
# write_data ${structure}_eq.data
# undump dump_eq

# use tmp to save initial length and tilt
variable tmp equal lx
variable lx0 equal ${tmp}
variable lx0 equal 16.6078
variable tmp equal ly
variable ly0 equal ${tmp}
variable ly0 equal 13.4502
variable tmp equal lz
variable lz0 equal ${tmp}
variable lz0 equal 17.3502

variable tmp equal yz
variable yz0 equal ${tmp}
variable yz0 equal 0.0034
variable tmp equal xz
variable xz0 equal ${tmp}
variable xz0 equal -1.0717
variable tmp equal xy
variable xy0 equal ${tmp}
variable xy0 equal -9.4505

# velocity all create ${temp} ${seed} dist gaussian
# Write restart
write_restart equil.res
System init for write_restart ...
WARNING: Fix qeq/reaxff group is not charge neutral, net charge = -0.82 (src/REAXFF/fix_qeq_reaxff.cpp:392)
Neighbor list info ...
  update: every = 1 steps, delay = 0 steps, check = yes
  max neighbors/atom: 2000, page size: 100000
  master list distance cutoff = 12
  ghost atom cutoff = 12
  binsize = 6, bins = 5 3 3
  2 neighbor lists, perpetual/occasional/extra = 2 0 0
  (1) pair reaxff, perpetual
      attributes: half, newton off, ghost
      pair build: half/bin/newtoff/ghost
      stencil: full/ghost/bin/3d
      bin: standard
  (2) fix qeq/reaxff, perpetual, copy from (1)
      attributes: half, newton off
      pair build: copy
      stencil: none
      bin: none

# uzz Perturbation
variable dir equal 3
include displace.mod.lmp
# Find which length (epsilon) to calculate
if "${dir} == 1" then    "variable len0 equal ${lx0}"    "variable dlen equal lx-${len0}"
if "${dir} == 2" then    "variable len0 equal ${ly0}"    "variable dlen equal ly-${len0}"
if "${dir} == 3" then    "variable len0 equal ${lz0}"    "variable dlen equal lz-${len0}"
variable len0 equal ${lz0}
variable len0 equal 17.3502
variable dlen equal lz-${len0}
variable dlen equal lz-17.3502
if "${dir} == 4" then    "variable len0 equal ${lx0}"    "variable dlen equal 2*(yz-${yz0})"
if "${dir} == 5" then    "variable len0 equal ${ly0}"    "variable dlen equal 2*(xz-${xz0})"
if "${dir} == 6" then    "variable len0 equal ${lz0}"    "variable dlen equal 2*(xy-${xy0})"

# strain vector (epsilon)
variable eps equal v_dlen/v_len0

# stress vector (sigma)
variable sig1 equal -f_avgp[1]*${ufac}
variable sig1 equal -f_avgp[1]*0.000101325
variable sig2 equal -f_avgp[2]*${ufac}
variable sig2 equal -f_avgp[2]*0.000101325
variable sig3 equal -f_avgp[3]*${ufac}
variable sig3 equal -f_avgp[3]*0.000101325
variable sig4 equal -f_avgp[6]*${ufac}
variable sig4 equal -f_avgp[6]*0.000101325
variable sig5 equal -f_avgp[5]*${ufac}
variable sig5 equal -f_avgp[5]*0.000101325
variable sig6 equal -f_avgp[4]*${ufac}
variable sig6 equal -f_avgp[4]*0.000101325

# Reset box and simulation parameters
clear
  using 1 OpenMP thread(s) per MPI task
# box tilt large
read_restart equil.res
Reading restart file ...
  restart file = 2 Aug 2023, LAMMPS = 2 Aug 2023
  restoring atom style full from restart
  triclinic box = (0 0 0) to (16.6078 13.4502 17.3502) with tilt (-9.4505 -1.0717 0.0034)
WARNING: Triclinic box skew is large. LAMMPS will run inefficiently. (src/domain.cpp:220)
  2 by 2 by 2 MPI processor grid
  pair style reaxff stores no restart info
  386 atoms
Finding 1-2 1-3 1-4 neighbors ...
  special bond factors lj:    0        0        0       
  special bond factors coul:  0        0        0       
     0 = max # of 1-2 neighbors
     0 = max # of 1-3 neighbors
     0 = max # of 1-4 neighbors
     1 = max # of special neighbors
  special bonds CPU = 0.000 seconds
  read_restart CPU = 0.003 seconds

# Positive deformation
variable delta equal ${up}*${len0}
variable delta equal 0.6*${len0}
variable delta equal 0.6*17.3502
variable deltaxy equal ${up}*xy
variable deltaxy equal 0.6*xy
variable deltaxz equal ${up}*xz
variable deltaxz equal 0.6*xz
variable deltayz equal ${up}*yz
variable deltayz equal 0.6*yz
if "${dir} == 1" then    "fix deform_p all deform ${nthermo} x delta 0 ${delta} xy delta ${deltaxy} xz delta ${deltaxz} remap v units box flip no"
if "${dir} == 2" then    "fix deform_p all deform ${nthermo} y delta 0 ${delta} yz delta ${deltayz} remap v units box flip no"
if "${dir} == 3" then    "fix deform_p all deform ${nthermo} z delta 0 ${delta} remap v units box"
fix deform_p all deform ${nthermo} z delta 0 ${delta} remap v units box
fix deform_p all deform 100 z delta 0 ${delta} remap v units box
fix deform_p all deform 100 z delta 0 10.41012 remap v units box
if "${dir} == 4" then    "fix deform_p all deform ${nthermo} yz delta ${delta} remap v units box flip no"
if "${dir} == 5" then    "fix deform_p all deform ${nthermo} xz delta ${delta} remap v units box flip no"
if "${dir} == 6" then    "fix deform_p all deform ${nthermo} xy delta ${delta} remap v units box flip no"

# Run deformation MD
print "*****Positive-deform ${dir} starts.*****"
*****Positive-deform 3 starts.*****
# Save bond information
fix bondinfo all reaxff/bonds ${nthermo} bonds/bonds.pos${dir}.reaxff
fix bondinfo all reaxff/bonds 100 bonds/bonds.pos${dir}.reaxff
fix bondinfo all reaxff/bonds 100 bonds/bonds.pos3.reaxff
# Reset neighbor style
neighbor        2 bin
neigh_modify    every 10 delay 0 check no

include ff.mod.lmp
# Setup forcefield, system
# undefine any fix ave/* fix before using reset_timestep
if "$(is_defined(fix,avgp))" then "unfix avgp"
if "$(is_defined(fix,avgl))" then "unfix avgl"
reset_timestep 0

# Assign the force field
pair_style reaxff NULL safezone 3.0 mincap 150
pair_coeff * * ${FF}
pair_coeff * * SiOCHN_2018.ff C H O Si
WARNING: Van der Waals parameters for element SI indicate inner wall+shielding, but earlier atoms indicate a different van der Waals method. This may cause division-by-zero errors. Keeping van der Waals setting for earlier atoms. (src/REAXFF/reaxff_ffield.cpp:251)

# charge method for reaxff
fix myqeq all qeq/reaxff 1 0.0 10.0 1.0e-6 reaxff maxiter 400
# fix bondinfo all reaxff/bonds ${nthermo} bonds.reaxff
# Setup neighbor style
neighbor        2 bin
neigh_modify    every 10 delay 0 check no

# Setup output
thermo		${nthermo}
thermo		100
thermo_style custom step temp press vol lz density
# thermo_style custom step vol lx ly lz yz xz xy
thermo_modify norm no
# thermo_modify line multi

# Sample pressure (and length vector)
fix avgp all ave/time  ${nevery} ${nrepeat} ${nfreq} c_thermo_press mode vector
fix avgp all ave/time  1000 ${nrepeat} ${nfreq} c_thermo_press mode vector
fix avgp all ave/time  1000 1 ${nfreq} c_thermo_press mode vector
fix avgp all ave/time  1000 1 1000 c_thermo_press mode vector
# fix avgp all ave/time  10 10 ${nthermo} c_thermo_press mode vector
# variable lx equal lx
# variable ly equal ly
# variable lz equal lz
# fix avgl all ave/time  ${nevery} ${nrepeat} ${nfreq} v_lx v_ly v_lz

# nvt
fix fnvt all nvt temp ${temp} ${temp} ${tdamp}
fix fnvt all nvt temp 300 ${temp} ${tdamp}
fix fnvt all nvt temp 300 300 ${tdamp}
fix fnvt all nvt temp 300 300 50


# Save stress, strain to "./stress_strain/stress_strain.pos${dir}.out"
print "# Stress and strain vectors, ${structure}, positive deformation ${dir}"       file stress_strain/stress_strain.pos${dir}.out screen no
print "# Stress and strain vectors, ${structure}, positive deformation ${dir}"       file stress_strain/stress_strain.pos3.out screen no
fix data all print ${nfreq} "${eps} ${sig1} ${sig2} ${sig3} ${sig4} ${sig5} ${sig6}"       append stress_strain/stress_strain.pos${dir}.out screen no       title "# eps sig1 sig2 sig3 sig4 sig5 sig6"
fix data all print 1000 "${eps} ${sig1} ${sig2} ${sig3} ${sig4} ${sig5} ${sig6}"       append stress_strain/stress_strain.pos${dir}.out screen no       title "# eps sig1 sig2 sig3 sig4 sig5 sig6"
fix data all print 1000 "${eps} ${sig1} ${sig2} ${sig3} ${sig4} ${sig5} ${sig6}"       append stress_strain/stress_strain.pos3.out screen no       title "# eps sig1 sig2 sig3 sig4 sig5 sig6"

# compute MSD and RDF
compute msd1 all msd
fix myMSD all ave/time 10 10 ${nthermo} c_msd1[1] c_msd1[2] c_msd1[3] c_msd1[4] c_thermo_temp     file msd.out     title2 "# TimeStep MSD_X MSD_Y MSD_Z MSD_Total Temperture"
fix myMSD all ave/time 10 10 100 c_msd1[1] c_msd1[2] c_msd1[3] c_msd1[4] c_thermo_temp     file msd.out     title2 "# TimeStep MSD_X MSD_Y MSD_Z MSD_Total Temperture"
# C-C C-Si Si-O C-H Si-Si
compute rdf1 all rdf 100  1 1  1 4  3 4  1 2 cutoff 5.0
fix myRDF all ave/time ${nevery} ${nrepeat} ${nfreq} c_rdf1[*]     file rdf.out mode vector     title3 "# Row r g1(r) coor1(r) ..."
fix myRDF all ave/time 1000 ${nrepeat} ${nfreq} c_rdf1[*]     file rdf.out mode vector     title3 "# Row r g1(r) coor1(r) ..."
fix myRDF all ave/time 1000 1 ${nfreq} c_rdf1[*]     file rdf.out mode vector     title3 "# Row r g1(r) coor1(r) ..."
fix myRDF all ave/time 1000 1 1000 c_rdf1[*]     file rdf.out mode vector     title3 "# Row r g1(r) coor1(r) ..."

# save trajectory
# if "$(is_defined(dump,dump_pos${dir1}))" then "undump dump_pos${dir1}"
dump dump_pos${dir} all custom ${nthermo} dump/pos${dir}_deform.lammpstrj id type q x y z element
dump dump_pos3 all custom ${nthermo} dump/pos${dir}_deform.lammpstrj id type q x y z element
dump dump_pos3 all custom 100 dump/pos${dir}_deform.lammpstrj id type q x y z element
dump dump_pos3 all custom 100 dump/pos3_deform.lammpstrj id type q x y z element
dump_modify dump_pos${dir} element C H O Si
dump_modify dump_pos3 element C H O Si
run ${nrun}
run 120000

CITE-CITE-CITE-CITE-CITE-CITE-CITE-CITE-CITE-CITE-CITE-CITE-CITE

Your simulation uses code contributions which should be cited:

- pair reaxff command: doi:10.1016/j.parco.2011.08.005

@Article{Aktulga12,
 author = {H. M. Aktulga and J. C. Fogarty and S. A. Pandit and A. Y. Grama},
 title = {Parallel Reactive Molecular Dynamics: {N}umerical Methods and Algorithmic Techniques},
 journal = {Parallel Computing},
 year =    2012,
 volume =  38,
 number =  {4--5},
 pages =   {245--259}
}

- fix qeq/reaxff command: doi:10.1016/j.parco.2011.08.005

@Article{Aktulga12,
 author = {H. M. Aktulga and J. C. Fogarty and S. A. Pandit and A. Y. Grama},
 title = {Parallel Reactive Molecular Dynamics: {N}umerical Methods and Algorithmic Techniques},
 journal = {Parallel Computing},
 year =    2012,
 volume =  38,
 pages =   {245--259}
}

CITE-CITE-CITE-CITE-CITE-CITE-CITE-CITE-CITE-CITE-CITE-CITE-CITE

WARNING: Compute rdf cutoff less than neighbor cutoff - forcing a needless neighbor list build (src/compute_rdf.cpp:179)
WARNING: Fix qeq/reaxff group is not charge neutral, net charge = -0.82 (src/REAXFF/fix_qeq_reaxff.cpp:392)
Neighbor list info ...
  update: every = 10 steps, delay = 0 steps, check = no
  max neighbors/atom: 2000, page size: 100000
  master list distance cutoff = 12
  ghost atom cutoff = 12
  binsize = 6, bins = 5 3 3
  3 neighbor lists, perpetual/occasional/extra = 2 1 0
  (1) pair reaxff, perpetual
      attributes: half, newton off, ghost
      pair build: half/bin/newtoff/ghost
      stencil: full/ghost/bin/3d
      bin: standard
  (2) compute rdf, occasional
      attributes: half, newton on, cut 7
      pair build: half/bin/newton/tri
      stencil: half/bin/3d/tri
      bin: standard
  (3) fix qeq/reaxff, perpetual, copy from (1)
      attributes: half, newton off
      pair build: copy
      stencil: none
      bin: none
Per MPI rank memory allocation (min/avg/max) = 148.4 | 150.4 | 152.3 Mbytes
   Step          Temp          Press          Volume           Lz          Density    
         0   300            177700.61      3875.657       17.3502        1.7478941    
       100   1200.0539      28446.366      3877.5948      17.358875      1.7470206    
       200   839.82954      27215.954      3879.5327      17.36755       1.746148     
       300   548.55909      33445.515      3881.4705      17.376225      1.7452762    
       400   375.48231      14037.068      3883.4083      17.3849        1.7444053    
       500   304.35928      5509.7339      3885.3461      17.393576      1.7435353    
       600   281.42105      8300.6173      3887.284       17.402251      1.7426661    
       700   259.04701      5829.2145      3889.2218      17.410926      1.7417978    
       800   304.14318      13931.139      3891.1596      17.419601      1.7409304    
       900   302.95029     -545.26889      3893.0974      17.428276      1.7400638    
      1000   341.29155      4591.2806      3895.0353      17.436951      1.7391981    
      1100   312.61209      6026.8101      3896.9731      17.445626      1.7383333    
      1200   279.12483      377.52265      3898.9109      17.454301      1.7374693    
      1300   281.15927      1056.5556      3900.8488      17.462976      1.7366062    
      1400   309.92628      6423.0002      3902.7866      17.471651      1.7357439    
      1500   287.26879      10218.943      3904.7244      17.480327      1.7348825    
      1600   311.86755      896.11701      3906.6622      17.489002      1.734022     
      1700   289.38897     -356.59244      3908.6001      17.497677      1.7331622    
      1800   299.75363      15854.815      3910.5379      17.506352      1.7323034    
      1900   318.86046      11954.192      3912.4757      17.515027      1.7314454    
      2000   312.12938     -2847.9293      3914.4136      17.523702      1.7305882    
      2100   291.23367     -8079.9956      3916.3514      17.532377      1.7297319    
      2200   282.22777      5753.9056      3918.2892      17.541052      1.7288765    
      2300   285.14647      2262.579       3920.227       17.549727      1.7280219    
      2400   300.1165       9057.1939      3922.1649      17.558402      1.7271681    
      2500   325.84376      894.43594      3924.1027      17.567077      1.7263152    
      2600   306.24478     -7367.3613      3926.0405      17.575753      1.7254631    
      2700   298.01204      3422.9195      3927.9784      17.584428      1.7246119    
      2800   306.45527      5003.2739      3929.9162      17.593103      1.7237615    
      2900   289.73164      1608.1524      3931.854       17.601778      1.7229119    
      3000   287.32803      11946.134      3933.7918      17.610453      1.7220632    
      3100   325.05353      2980.7367      3935.7297      17.619128      1.7212153    
      3200   309.15473     -6873.8972      3937.6675      17.627803      1.7203682    
      3300   303.51648     -7028.5245      3939.6053      17.636478      1.719522     
      3400   267.1591      -200.41826      3941.5432      17.645153      1.7186766    
      3500   299.77808     -3580.0042      3943.481       17.653828      1.7178321    
      3600   317.74758     -6400.1955      3945.4188      17.662504      1.7169883    
      3700   308.37207     -11341.91       3947.3566      17.671179      1.7161454    
      3800   297.36678     -3160.6183      3949.2945      17.679854      1.7153034    
      3900   311.52931     -8529.4716      3951.2323      17.688529      1.7144621    
      4000   292.84464      954.48879      3953.1701      17.697204      1.7136217    
      4100   298.7102      -3200.8077      3955.108       17.705879      1.7127821    
      4200   294.54103     -5034.267       3957.0458      17.714554      1.7119433    
      4300   318.04722      4785.0777      3958.9836      17.723229      1.7111054    
      4400   307.80094     -2032.9624      3960.9214      17.731904      1.7102682    
      4500   295.97059     -5992.0752      3962.8593      17.74058       1.7094319    
      4600   307.35695     -3815.7652      3964.7971      17.749255      1.7085964    
      4700   290.59834     -12547.267      3966.7349      17.75793       1.7077617    
      4800   304.26874      8693.2109      3968.6728      17.766605      1.7069279    
      4900   292.17571      4896.5695      3970.6106      17.77528       1.7060948    
      5000   308.37275     -3994.6915      3972.5484      17.783955      1.7052626    
      5100   310.08961     -4354.929       3974.4862      17.79263       1.7044311    
      5200   280.62452      2485.2823      3976.4241      17.801305      1.7036005    
      5300   310.71225     -4888.9867      3978.3619      17.80998       1.7027707    
      5400   312.02944     -9171.3859      3980.2997      17.818655      1.7019417    
      5500   296.93743     -3275.7721      3982.2376      17.827331      1.7011135    
      5600   273.89902      17592.118      3984.1754      17.836006      1.7002861    
      5700   287.35257     -5047.0837      3986.1132      17.844681      1.6994595    
      5800   298.35752     -6003.1045      3988.051       17.853356      1.6986338    
      5900   294.85306     -4492.4009      3989.9889      17.862031      1.6978088    
      6000   304.70359      3888.7196      3991.9267      17.870706      1.6969846    
      6100   295.53787     -10804.718      3993.8645      17.879381      1.6961612    
      6200   293.28335     -3000.9         3995.8024      17.888056      1.6953386    
      6300   286.82256     -12318.381      3997.7402      17.896731      1.6945168    
      6400   290.70396     -1141.3422      3999.678       17.905406      1.6936959    
      6500   312.03547     -17572.283      4001.6158      17.914082      1.6928757    
      6600   296.57705     -7912.9982      4003.5537      17.922757      1.6920563    
      6700   313.061       -5099.6616      4005.4915      17.931432      1.6912377    
      6800   312.25985      762.22616      4007.4293      17.940107      1.6904199    
      6900   287.79004     -10840.764      4009.3672      17.948782      1.6896028    
      7000   280.1027      -12312.136      4011.305       17.957457      1.6887866    
      7100   305.30303     -10679.562      4013.2428      17.966132      1.6879712    
      7200   319.56346     -13494.519      4015.1806      17.974807      1.6871565    
      7300   309.55994      112.99309      4017.1185      17.983482      1.6863426    
      7400   289.24113     -1553.8483      4019.0563      17.992157      1.6855295    
      7500   297.55043      1806.9335      4020.9941      18.000833      1.6847172    
      7600   270.70719     -17734.198      4022.932       18.009508      1.6839057    
      7700   313.26153     -10479.781      4024.8698      18.018183      1.683095     
      7800   318.13136     -5136.354       4026.8076      18.026858      1.682285     
      7900   305.71416     -3336.2725      4028.7454      18.035533      1.6814758    
      8000   302.10931     -9763.1991      4030.6833      18.044208      1.6806674    
      8100   312.25276     -1287.3088      4032.6211      18.052883      1.6798598    
      8200   285.74337      4426.9311      4034.5589      18.061558      1.679053     
      8300   281.61538     -2765.6071      4036.4968      18.070233      1.6782469    
      8400   326.46619     -3867.2836      4038.4346      18.078908      1.6774416    
      8500   319.78566     -7207.7345      4040.3724      18.087584      1.6766371    
      8600   304.69956     -17345.756      4042.3102      18.096259      1.6758333    
      8700   294.93705     -12802.109      4044.2481      18.104934      1.6750303    
      8800   287.96922     -11045.419      4046.1859      18.113609      1.6742281    
      8900   289.45437     -19355.085      4048.1237      18.122284      1.6734266    
      9000   295.0026      -11383.266      4050.0616      18.130959      1.672626     
      9100   313.47908     -14296.745      4051.9994      18.139634      1.671826     
      9200   315.95672      1433.5912      4053.9372      18.148309      1.6710269    
      9300   298.72378     -16167.053      4055.875       18.156984      1.6702285    
      9400   296.90378     -10015.642      4057.8129      18.165659      1.6694309    
      9500   277.32432     -1248.0936      4059.7507      18.174335      1.668634     
      9600   300.39888     -14877.99       4061.6885      18.18301       1.6678379    
      9700   309.12216     -11059.142      4063.6264      18.191685      1.6670426    
      9800   301.95057     -11765.672      4065.5642      18.20036       1.666248     
      9900   286.19906     -13134.563      4067.502       18.209035      1.6654541    
     10000   301.31201     -16871.418      4069.4398      18.21771       1.6646611    
     10100   293.96854     -7297.1622      4071.3777      18.226385      1.6638688    
     10200   299.15573     -15848.202      4073.3155      18.23506       1.6630772    
     10300   282.88842     -12988.146      4075.2533      18.243735      1.6622864    
     10400   289.7215      -6501.6765      4077.1912      18.25241       1.6614963    
     10500   292.11443     -24390.874      4079.129       18.261086      1.660707     
     10600   300.96913     -12768.328      4081.0668      18.269761      1.6599185    
     10700   283.84691     -15452.516      4083.0046      18.278436      1.6591306    
     10800   279.44724     -8305.2238      4084.9425      18.287111      1.6583436    
     10900   304.38077     -20084.128      4086.8803      18.295786      1.6575573    
     11000   301.36526     -11762.071      4088.8181      18.304461      1.6567717    
     11100   317.602       -18008.111      4090.756       18.313136      1.6559869    
     11200   297.36907     -12807.28       4092.6938      18.321811      1.6552028    
     11300   290.19999     -7572.9459      4094.6316      18.330486      1.6544194    
     11400   287.80787     -4531.0636      4096.5694      18.339161      1.6536368    
     11500   305.9747      -17676.694      4098.5073      18.347836      1.652855     
     11600   333.27069     -6372.3444      4100.4451      18.356512      1.6520738    
     11700   315.53407     -14405.813      4102.3829      18.365187      1.6512935    
     11800   302.13807     -8024.4547      4104.3208      18.373862      1.6505138    
     11900   293.43454     -12323.441      4106.2586      18.382537      1.6497349    
     12000   302.45548     -8496.8414      4108.1964      18.391212      1.6489567    
     12100   281.30782     -6701.2936      4110.1342      18.399887      1.6481793    
     12200   273.71564     -8808.6447      4112.0721      18.408562      1.6474026    
     12300   277.38559     -15634.763      4114.0099      18.417237      1.6466266    
     12400   302.23821     -18730.902      4115.9477      18.425912      1.6458513    
     12500   308.57348     -8127.3623      4117.8856      18.434587      1.6450768    
     12600   292.52888     -5490.487       4119.8234      18.443263      1.644303     
     12700   305.01951     -16071.907      4121.7612      18.451938      1.64353      
     12800   291.57704     -15468.281      4123.699       18.460613      1.6427576    
     12900   263.45041     -16722.998      4125.6369      18.469288      1.641986     
     13000   293.71893     -11607.936      4127.5747      18.477963      1.6412151    
     13100   294.36842     -14610.148      4129.5125      18.486638      1.640445     
     13200   300.80066     -11932.549      4131.4504      18.495313      1.6396755    
     13300   296.48852     -14550.346      4133.3882      18.503988      1.6389068    
     13400   302.2892      -16613.917      4135.326       18.512663      1.6381388    
     13500   312.77246     -6312.5304      4137.2638      18.521339      1.6373715    
     13600   319.45876     -12446.003      4139.2017      18.530014      1.636605     
     13700   295.74456     -8561.4971      4141.1395      18.538689      1.6358391    
     13800   306.88577      2225.4815      4143.0773      18.547364      1.635074     
     13900   280.60045     -12358.677      4145.0152      18.556039      1.6343096    
     14000   285.22344     -16024.243      4146.953       18.564714      1.6335459    
     14100   322.04201     -10977.407      4148.8908      18.573389      1.6327829    
     14200   294.0125      -19798.472      4150.8286      18.582064      1.6320207    
     14300   295.91456     -5346.0378      4152.7665      18.590739      1.6312591    
     14400   296.61102     -19928.041      4154.7043      18.599414      1.6304983    
     14500   292.9827      -19470.748      4156.6421      18.60809       1.6297381    
     14600   295.06322     -18157.26       4158.58        18.616765      1.6289787    
     14700   321.93591     -11526.945      4160.5178      18.62544       1.62822      
     14800   309.65823     -15554.452      4162.4556      18.634115      1.6274619    
     14900   332.85345     -11248.243      4164.3934      18.64279       1.6267046    
     15000   307.59432     -6790.1474      4166.3313      18.651465      1.625948     
     15100   311.31605     -20792.688      4168.2691      18.66014       1.6251921    
     15200   300.81331     -22163.839      4170.2069      18.668815      1.6244369    
     15300   289.61372     -13326.55       4172.1448      18.67749       1.6236824    
     15400   307.7141      -15683.237      4174.0826      18.686165      1.6229286    
     15500   330.02718     -22759.589      4176.0204      18.694841      1.6221755    
     15600   309.19119     -22897.922      4177.9582      18.703516      1.6214231    
     15700   296.59603     -19880.703      4179.8961      18.712191      1.6206714    
     15800   295.14009     -9394.3019      4181.8339      18.720866      1.6199204    
     15900   293.44125     -19550.007      4183.7717      18.729541      1.6191701    
     16000   310.13291     -19550.894      4185.7096      18.738216      1.6184205    
     16100   298.39871     -14133.922      4187.6474      18.746891      1.6176716    
     16200   308.89615     -31473.962      4189.5852      18.755566      1.6169233    
     16300   310.8366      -7355.217       4191.523       18.764241      1.6161758    
     16400   280.34427     -19343.832      4193.4609      18.772916      1.615429     
     16500   280.56095     -21740.046      4195.3987      18.781592      1.6146828    
     16600   301.00447     -15081.054      4197.3365      18.790267      1.6139373    
     16700   317.7106      -19172.484      4199.2744      18.798942      1.6131926    
     16800   317.24018     -19121.275      4201.2122      18.807617      1.6124485    
     16900   308.81656     -25575.03       4203.15        18.816292      1.6117051    
     17000   304.21519     -18251.078      4205.0878      18.824967      1.6109623    
     17100   285.38532     -17106.429      4207.0257      18.833642      1.6102203    
     17200   295.02759     -10414.889      4208.9635      18.842317      1.6094789    
     17300   319.16423     -20702.747      4210.9013      18.850992      1.6087383    
     17400   286.84482     -18969.821      4212.8392      18.859667      1.6079983    
     17500   279.46994     -15053.649      4214.777       18.868343      1.607259     
     17600   270.84276     -13511.258      4216.7148      18.877018      1.6065203    
     17700   297.98726     -23869.592      4218.6526      18.885693      1.6057824    
     17800   278.31243     -8290.1763      4220.5905      18.894368      1.6050451    
     17900   307.16254     -15034.622      4222.5283      18.903043      1.6043085    
     18000   297.2637      -18420.387      4224.4661      18.911718      1.6035726    
     18100   307.98283     -21504.34       4226.404       18.920393      1.6028373    
     18200   281.23573     -11709.407      4228.3418      18.929068      1.6021028    
     18300   285.4529      -31178.859      4230.2796      18.937743      1.6013689    
     18400   305.49323     -26206.615      4232.2174      18.946418      1.6006356    
     18500   302.08863     -25020.167      4234.1553      18.955094      1.5999031    
     18600   325.02895     -20137.08       4236.0931      18.963769      1.5991712    
     18700   303.60896     -22738.92       4238.0309      18.972444      1.59844      
     18800   300.18986     -29226.507      4239.9688      18.981119      1.5977094    
     18900   283.86511     -30082.623      4241.9066      18.989794      1.5969796    
     19000   294.36833     -26762.604      4243.8444      18.998469      1.5962503    
     19100   293.65107     -25808.243      4245.7822      19.007144      1.5955218    
     19200   269.56044     -21346.299      4247.7201      19.015819      1.5947939    
     19300   284.60415     -27296.049      4249.6579      19.024494      1.5940667    
     19400   304.82232     -33149.772      4251.5957      19.033169      1.5933401    
     19500   318.10218     -18765.854      4253.5336      19.041844      1.5926142    
     19600   310.1551      -22459.063      4255.4714      19.05052       1.591889     
     19700   314.67773     -26992.385      4257.4092      19.059195      1.5911644    
     19800   294.41993     -27918.906      4259.347       19.06787       1.5904405    
     19900   285.54248     -23387.394      4261.2849      19.076545      1.5897173    
     20000   306.30041     -30071.213      4263.2227      19.08522       1.5889947    
     20100   286.89988     -28286.274      4265.1605      19.093895      1.5882727    
     20200   286.10255     -19060.19       4267.0983      19.10257       1.5875514    
     20300   285.78577     -25920.854      4269.0362      19.111245      1.5868308    
     20400   304.69862     -27006.664      4270.974       19.11992       1.5861108    
     20500   308.82028     -18688.286      4272.9118      19.128595      1.5853915    
     20600   299.40052     -22008.89       4274.8497      19.137271      1.5846728    
     20700   293.13338     -29816.453      4276.7875      19.145946      1.5839548    
     20800   288.74587     -32649.267      4278.7253      19.154621      1.5832374    
     20900   322.00666     -26150.241      4280.6631      19.163296      1.5825207    
     21000   316.59861     -18438.897      4282.601       19.171971      1.5818046    
     21100   303.3844      -29666.322      4284.5388      19.180646      1.5810892    
     21200   306.19602     -28490.474      4286.4766      19.189321      1.5803744    
     21300   306.86551     -35256.846      4288.4145      19.197996      1.5796603    
     21400   314.06908     -25895.579      4290.3523      19.206671      1.5789468    
     21500   325.82077     -9182.3245      4292.2901      19.215347      1.578234     
     21600   308.35685     -18949.66       4294.2279      19.224022      1.5775218    
     21700   307.72        -23973.626      4296.1658      19.232697      1.5768102    
     21800   297.918       -22179.942      4298.1036      19.241372      1.5760993    
     21900   304.98697     -22372.456      4300.0414      19.250047      1.575389     
     22000   312.19413     -31615.204      4301.9793      19.258722      1.5746794    
     22100   292.47524     -23231.126      4303.9171      19.267397      1.5739704    
     22200   289.24365     -31736.216      4305.8549      19.276072      1.573262     
     22300   283.34129     -27339.671      4307.7927      19.284747      1.5725543    
     22400   298.27091     -23816.062      4309.7306      19.293422      1.5718472    
     22500   310.84716     -22435.816      4311.6684      19.302098      1.5711408    
     22600   296.51162     -25067.897      4313.6062      19.310773      1.570435     
     22700   301.59962     -30967.633      4315.5441      19.319448      1.5697298    
     22800   309.33732     -29655.779      4317.4819      19.328123      1.5690253    
     22900   286.77732     -31705.21       4319.4197      19.336798      1.5683213    
     23000   300.78423     -29675.74       4321.3575      19.345473      1.5676181    
     23100   317.16948     -30288.313      4323.2954      19.354148      1.5669154    
     23200   332.60651     -27779.986      4325.2332      19.362823      1.5662134    
     23300   308.03213     -30196.752      4327.171       19.371498      1.565512     
     23400   295.65291     -29007.777      4329.1089      19.380173      1.5648112    
     23500   286.8699      -22985.596      4331.0467      19.388849      1.5641111    
     23600   297.19966     -27554.846      4332.9845      19.397524      1.5634116    
     23700   303.89948     -31337.639      4334.9223      19.406199      1.5627127    
     23800   319.56989     -15466.178      4336.8602      19.414874      1.5620144    
     23900   291.71791     -26215.554      4338.798       19.423549      1.5613168    
     24000   299.51293     -24739.84       4340.7358      19.432224      1.5606198    
     24100   281.50262     -22480.897      4342.6737      19.440899      1.5599234    
     24200   276.78172     -18831.78       4344.6115      19.449574      1.5592276    
     24300   295.68697     -16869.308      4346.5493      19.458249      1.5585324    
     24400   296.60398     -23381.93       4348.4871      19.466924      1.5578379    
     24500   302.58226     -21015.879      4350.425       19.4756        1.557144     
     24600   307.60645     -35144.405      4352.3628      19.484275      1.5564507    
     24700   294.26613     -25813.486      4354.3006      19.49295       1.555758     
     24800   274.99061     -22099.493      4356.2385      19.501625      1.555066     
     24900   297.96085     -29199.397      4358.1763      19.5103        1.5543745    
     25000   301.74248     -27080.022      4360.1141      19.518975      1.5536837    
     25100   293.92732     -19915.627      4362.0519      19.52765       1.5529935    
     25200   320.03493     -25662.821      4363.9898      19.536325      1.5523038    
     25300   292.73167     -16305.322      4365.9276      19.545         1.5516149    
     25400   299.02348     -20319.758      4367.8654      19.553675      1.5509265    
     25500   287.91766     -27148.694      4369.8033      19.562351      1.5502387    
     25600   296.35842     -28584.21       4371.7411      19.571026      1.5495515    
     25700   313.70081     -26086.6        4373.6789      19.579701      1.548865     
     25800   311.3104      -33497.063      4375.6167      19.588376      1.548179     
     25900   292.10179     -32399.865      4377.5546      19.597051      1.5474937    
     26000   295.31076     -24061.579      4379.4924      19.605726      1.546809     
     26100   298.67747     -35695.563      4381.4302      19.614401      1.5461248    
     26200   301.54701     -29444.11       4383.3681      19.623076      1.5454413    
     26300   313.27826     -27733.547      4385.3059      19.631751      1.5447584    
     26400   309.94272     -23233.297      4387.2437      19.640426      1.5440761    
     26500   292.68167     -12377.623      4389.1815      19.649102      1.5433944    
     26600   284.6308      -32509.732      4391.1194      19.657777      1.5427133    
     26700   310.1982      -33115.411      4393.0572      19.666452      1.5420328    
     26800   299.16868     -25733.228      4394.995       19.675127      1.5413528    
     26900   316.09992     -24682.098      4396.9329      19.683802      1.5406735    
     27000   295.93689     -19270.528      4398.8707      19.692477      1.5399948    
     27100   266.38355     -32811.809      4400.8085      19.701152      1.5393167    
     27200   293.01991     -34678.277      4402.7463      19.709827      1.5386392    
     27300   303.89605     -22969.618      4404.6842      19.718502      1.5379623    
     27400   304.4276      -31572.119      4406.622       19.727177      1.537286     
     27500   306.57209     -31337.984      4408.5598      19.735853      1.5366102    
     27600   321.40717     -26365.697      4410.4977      19.744528      1.5359351    
     27700   293.41427     -24805.75       4412.4355      19.753203      1.5352605    
     27800   295.57491     -20444.854      4414.3733      19.761878      1.5345866    
     27900   299.61624     -30284.783      4416.3111      19.770553      1.5339132    
     28000   293.32698     -32904.008      4418.249       19.779228      1.5332405    
     28100   293.59149     -26678.955      4420.1868      19.787903      1.5325683    
     28200   305.19105     -29360.831      4422.1246      19.796578      1.5318967    
     28300   303.91683     -14547.081      4424.0625      19.805253      1.5312257    
     28400   298.60549     -31070.269      4426.0003      19.813928      1.5305553    
     28500   302.2826      -37176.645      4427.9381      19.822603      1.5298855    
     28600   284.92745     -28865.236      4429.8759      19.831279      1.5292162    
     28700   288.49432     -32039.64       4431.8138      19.839954      1.5285476    
     28800   320.94672     -30437.776      4433.7516      19.848629      1.5278795    
     28900   299.59817     -32546.107      4435.6894      19.857304      1.527212     
     29000   308.05959     -37283.933      4437.6273      19.865979      1.5265451    
     29100   298.40108     -33680.703      4439.5651      19.874654      1.5258788    
     29200   292.37869     -32917.255      4441.5029      19.883329      1.525213     
     29300   298.5074      -29404.111      4443.4407      19.892004      1.5245479    
     29400   299.57374     -34262.141      4445.3786      19.900679      1.5238833    
     29500   304.72598     -36870.007      4447.3164      19.909354      1.5232193    
     29600   313.74673     -32769.098      4449.2542      19.91803       1.5225559    
     29700   307.77704     -32849.528      4451.1921      19.926705      1.521893     
     29800   291.77476     -33895.582      4453.1299      19.93538       1.5212307    
     29900   286.31901     -37141.214      4455.0677      19.944055      1.5205691    
     30000   315.9892      -32630.408      4457.0055      19.95273       1.5199079    
     30100   297.81878     -32313.523      4458.9434      19.961405      1.5192474    
     30200   293.03921     -34675.967      4460.8812      19.97008       1.5185874    
     30300   302.28421     -38326.958      4462.819       19.978755      1.517928     
     30400   284.02894     -38598.552      4464.7569      19.98743       1.5172692    
     30500   296.84643     -31967.488      4466.6947      19.996105      1.516611     
     30600   313.30689     -39889.659      4468.6325      20.004781      1.5159533    
     30700   298.78433     -26926.462      4470.5703      20.013456      1.5152962    
     30800   294.03464     -33785.312      4472.5082      20.022131      1.5146396    
     30900   293.95482     -37505.914      4474.446       20.030806      1.5139837    
     31000   293.46704     -32948.851      4476.3838      20.039481      1.5133283    
     31100   320.7358      -41572.513      4478.3217      20.048156      1.5126734    
     31200   315.98524     -37516.031      4480.2595      20.056831      1.5120191    
     31300   291.93483     -43301.01       4482.1973      20.065506      1.5113654    
     31400   298.25503     -31977.236      4484.1351      20.074181      1.5107123    
     31500   301.53053     -42441.476      4486.073       20.082857      1.5100597    
     31600   314.04998     -32592.009      4488.0108      20.091532      1.5094077    
     31700   294.56527     -35971.58       4489.9486      20.100207      1.5087563    
     31800   295.55168     -39432.635      4491.8865      20.108882      1.5081054    
     31900   300.44347     -37133.475      4493.8243      20.117557      1.507455     
     32000   306.88557     -39959.225      4495.7621      20.126232      1.5068053    
     32100   288.51809     -38016.283      4497.6999      20.134907      1.5061561    
     32200   294.63632     -36049.309      4499.6378      20.143582      1.5055074    
     32300   323.9032      -50588.767      4501.5756      20.152257      1.5048593    
     32400   290.8492      -43055.339      4503.5134      20.160932      1.5042118    
     32500   314.01152     -37378.9        4505.4513      20.169608      1.5035648    
     32600   299.12045     -33297.736      4507.3891      20.178283      1.5029184    
     32700   292.93464     -37128.266      4509.3269      20.186958      1.5022726    
     32800   300.94452     -38147.028      4511.2647      20.195633      1.5016273    
     32900   307.93252     -41722.346      4513.2026      20.204308      1.5009825    
     33000   287.04679     -44116.085      4515.1404      20.212983      1.5003383    
     33100   318.80354     -32005.432      4517.0782      20.221658      1.4996947    
     33200   311.33465     -26343.003      4519.0161      20.230333      1.4990516    
     33300   310.16294     -41658.65       4520.9539      20.239008      1.498409     
     33400   296.7227      -43346.213      4522.8917      20.247683      1.497767     
     33500   299.88853     -45263.691      4524.8295      20.256359      1.4971256    
     33600   279.09978     -46959.792      4526.7674      20.265034      1.4964847    
     33700   308.78433     -37126.265      4528.7052      20.273709      1.4958444    
     33800   313.71441     -40360.233      4530.643       20.282384      1.4952046    
     33900   299.36282     -38786.257      4532.5809      20.291059      1.4945653    
     34000   283.26499     -47912.276      4534.5187      20.299734      1.4939266    
     34100   295.3263      -35793.709      4536.4565      20.308409      1.4932884    
     34200   303.6242      -36103.118      4538.3943      20.317084      1.4926508    
     34300   304.3849      -47554.712      4540.3322      20.325759      1.4920138    
     34400   310.65421     -35980.934      4542.27        20.334434      1.4913772    
     34500   301.14597     -38328.161      4544.2078      20.34311       1.4907413    
     34600   287.8442      -34744.731      4546.1457      20.351785      1.4901058    
     34700   288.66207     -35184.507      4548.0835      20.36046       1.4894709    
     34800   300.68707     -33801.29       4550.0213      20.369135      1.4888366    
     34900   295.11066     -43336.967      4551.9591      20.37781       1.4882027    
     35000   300.86537     -46143.228      4553.897       20.386485      1.4875695    
     35100   287.70897     -35858.515      4555.8348      20.39516       1.4869367    
     35200   281.64369     -36421.275      4557.7726      20.403835      1.4863045    
     35300   298.71722     -35098.408      4559.7105      20.41251       1.4856729    
     35400   317.78588     -34046.801      4561.6483      20.421185      1.4850417    
     35500   320.12594     -40876.601      4563.5861      20.429861      1.4844111    
     35600   274.33868     -37530.249      4565.5239      20.438536      1.4837811    
     35700   310.85625     -29095.194      4567.4618      20.447211      1.4831516    
     35800   310.08671     -34426.709      4569.3996      20.455886      1.4825226    
     35900   297.4259      -32554.67       4571.3374      20.464561      1.4818941    
     36000   306.24836     -46143.475      4573.2753      20.473236      1.4812662    
     36100   320.46029     -31813.385      4575.2131      20.481911      1.4806388    
     36200   281.13561     -41280.552      4577.1509      20.490586      1.480012     
     36300   299.34371     -23746.02       4579.0887      20.499261      1.4793856    
     36400   290.27429     -32671.644      4581.0266      20.507936      1.4787598    
     36500   305.02997     -46898.247      4582.9644      20.516611      1.4781346    
     36600   312.01007     -37745.314      4584.9022      20.525287      1.4775098    
     36700   295.7111      -34624.586      4586.8401      20.533962      1.4768856    
     36800   297.31063     -41346.727      4588.7779      20.542637      1.4762619    
     36900   303.46244     -26911.966      4590.7157      20.551312      1.4756388    
     37000   284.90611     -43068.123      4592.6535      20.559987      1.4750161    
     37100   311.85367     -35021.477      4594.5914      20.568662      1.474394     
     37200   313.27903     -42189.311      4596.5292      20.577337      1.4737725    
     37300   311.10283     -32733.489      4598.467       20.586012      1.4731514    
     37400   296.78792     -24314.876      4600.4049      20.594687      1.4725309    
     37500   286.00115     -37398.072      4602.3427      20.603362      1.4719108    
     37600   311.30842     -30976.598      4604.2805      20.612038      1.4712914    
     37700   281.97812     -33907.628      4606.2183      20.620713      1.4706724    
     37800   306.43098     -32666.292      4608.1562      20.629388      1.4700539    
     37900   331.23006     -35831.097      4610.094       20.638063      1.469436     
     38000   309.05846     -34496.651      4612.0318      20.646738      1.4688186    
     38100   302.25708     -32528.594      4613.9697      20.655413      1.4682017    
     38200   294.94607     -39692.671      4615.9075      20.664088      1.4675853    
     38300   294.70078     -22831.825      4617.8453      20.672763      1.4669695    
     38400   325.21227     -26188.636      4619.7831      20.681438      1.4663541    
     38500   327.58656     -33944.66       4621.721       20.690114      1.4657393    
     38600   301.90165     -31312.953      4623.6588      20.698789      1.465125     
     38700   295.4244      -31428.645      4625.5966      20.707464      1.4645112    
     38800   283.92566     -32511.357      4627.5344      20.716139      1.4638979    
     38900   296.61676     -42467.1        4629.4723      20.724814      1.4632852    
     39000   306.22742     -34352.903      4631.4101      20.733489      1.4626729    
     39100   298.35366     -33394.803      4633.3479      20.742164      1.4620612    
     39200   285.1006      -41624.804      4635.2858      20.750839      1.4614499    
     39300   283.02161     -48166.159      4637.2236      20.759514      1.4608392    
     39400   300.65005     -35011.428      4639.1614      20.768189      1.460229     
     39500   308.34784     -37019.661      4641.0992      20.776865      1.4596193    
     39600   303.18041     -38729.056      4643.0371      20.78554       1.4590101    
     39700   295.84295     -38064.519      4644.9749      20.794215      1.4584014    
     39800   299.43422     -37328.43       4646.9127      20.80289       1.4577933    
     39900   311.85674     -36576.942      4648.8506      20.811565      1.4571856    
     40000   300.53198     -40591.825      4650.7884      20.82024       1.4565784    
     40100   330.60858     -39423.052      4652.7262      20.828915      1.4559718    
     40200   282.93658     -31465.497      4654.664       20.83759       1.4553656    
     40300   292.60825     -34601.962      4656.6019      20.846265      1.45476      
     40400   302.31825     -29773.346      4658.5397      20.85494       1.4541548    
     40500   286.73484     -35019.32       4660.4775      20.863616      1.4535502    
     40600   294.19583     -32152.861      4662.4154      20.872291      1.4529461    
     40700   293.51574     -33317.757      4664.3532      20.880966      1.4523424    
     40800   266.95217     -31360.776      4666.291       20.889641      1.4517393    
     40900   307.52543     -31950.304      4668.2288      20.898316      1.4511367    
     41000   303.70566     -31887.737      4670.1667      20.906991      1.4505345    
     41100   299.26461     -31816.105      4672.1045      20.915666      1.4499329    
     41200   322.20617     -37690.856      4674.0423      20.924341      1.4493318    
     41300   291.04342     -35205.544      4675.9802      20.933016      1.4487311    
     41400   295.60805     -39668.027      4677.918       20.941691      1.448131     
     41500   310.56139     -40073.4        4679.8558      20.950367      1.4475314    
     41600   311.62891     -36401.212      4681.7936      20.959042      1.4469322    
     41700   311.22919     -36241.596      4683.7315      20.967717      1.4463336    
     41800   307.04019     -45840.556      4685.6693      20.976392      1.4457354    
     41900   311.77485     -31961.918      4687.6071      20.985067      1.4451378    
     42000   295.88312     -37493.797      4689.545       20.993742      1.4445406    
     42100   295.36022     -37109.351      4691.4828      21.002417      1.4439439    
     42200   301.60451     -35630.236      4693.4206      21.011092      1.4433478    
     42300   313.08846     -35022.671      4695.3584      21.019767      1.4427521    
     42400   303.71554     -51235.595      4697.2963      21.028442      1.4421569    
     42500   312.61716     -39259.226      4699.2341      21.037118      1.4415622    
     42600   288.88602     -22694.491      4701.1719      21.045793      1.440968     
     42700   297.26232     -49644.286      4703.1098      21.054468      1.4403742    
     42800   286.87329     -34339.036      4705.0476      21.063143      1.439781     
     42900   299.05029     -36717.287      4706.9854      21.071818      1.4391882    
     43000   301.24458     -39642.382      4708.9232      21.080493      1.438596     
     43100   321.58709     -37141.614      4710.8611      21.089168      1.4380042    
     43200   293.08367     -33314.325      4712.7989      21.097843      1.4374129    
     43300   304.67832     -42474.176      4714.7367      21.106518      1.4368221    
     43400   296.36578     -43528.243      4716.6746      21.115193      1.4362318    
     43500   284.13414     -43750.033      4718.6124      21.123869      1.435642     
     43600   301.80362     -39766.398      4720.5502      21.132544      1.4350527    
     43700   324.554       -40382.39       4722.488       21.141219      1.4344638    
     43800   302.74269     -35491.351      4724.4259      21.149894      1.4338754    
     43900   295.42702     -40655.141      4726.3637      21.158569      1.4332875    
     44000   304.76454     -43592.501      4728.3015      21.167244      1.4327001    
     44100   302.32053     -37765.767      4730.2394      21.175919      1.4321132    
     44200   298.32021     -41214.885      4732.1772      21.184594      1.4315267    
     44300   289.35851     -46124.51       4734.115       21.193269      1.4309408    
     44400   303.68013     -39952.874      4736.0528      21.201944      1.4303553    
     44500   312.3864      -31416.196      4737.9907      21.210619      1.4297702    
     44600   302.05539     -35892.943      4739.9285      21.219295      1.4291857    
     44700   310.45557     -40537.127      4741.8663      21.22797       1.4286017    
     44800   310.49563     -40244.424      4743.8042      21.236645      1.4280181    
     44900   276.00284     -36147.102      4745.742       21.24532       1.427435     
     45000   284.3396      -32483.522      4747.6798      21.253995      1.4268524    
     45100   296.40653     -42178.443      4749.6176      21.26267       1.4262702    
     45200   323.45637     -49901.238      4751.5555      21.271345      1.4256885    
     45300   306.09131     -42663.048      4753.4933      21.28002       1.4251073    
     45400   304.61182     -36201.243      4755.4311      21.288695      1.4245266    
     45500   287.62648     -41425.639      4757.369       21.29737       1.4239463    
     45600   317.54183     -36603.952      4759.3068      21.306046      1.4233666    
     45700   311.85345     -33449.89       4761.2446      21.314721      1.4227872    
     45800   302.51251     -44140.227      4763.1824      21.323396      1.4222084    
     45900   289.37554     -38415.825      4765.1203      21.332071      1.42163      
     46000   291.98314     -39381.232      4767.0581      21.340746      1.4210521    
     46100   288.49029     -40657.894      4768.9959      21.349421      1.4204747    
     46200   303.02887     -33221.876      4770.9338      21.358096      1.4198977    
     46300   316.88683     -45657.886      4772.8716      21.366771      1.4193213    
     46400   302.54304     -39642.638      4774.8094      21.375446      1.4187452    
     46500   289.08087     -43595.607      4776.7472      21.384121      1.4181697    
     46600   312.34554     -47916.141      4778.6851      21.392797      1.4175946    
     46700   299.10318     -45181.8        4780.6229      21.401472      1.41702      
     46800   325.63221     -34330.315      4782.5607      21.410147      1.4164458    
     46900   296.12199     -37742.066      4784.4986      21.418822      1.4158721    
     47000   297.11363     -34321.401      4786.4364      21.427497      1.4152989    
     47100   297.14554     -39378.691      4788.3742      21.436172      1.4147261    
     47200   312.70739     -41222.493      4790.312       21.444847      1.4141538    
     47300   313.18865     -39528.649      4792.2499      21.453522      1.413582     
     47400   303.71682     -41607.628      4794.1877      21.462197      1.4130106    
     47500   294.10291     -42344.459      4796.1255      21.470872      1.4124397    
     47600   296.63097     -40507.174      4798.0634      21.479548      1.4118692    
     47700   299.455       -42477.418      4800.0012      21.488223      1.4112993    
     47800   285.03229     -41942.679      4801.939       21.496898      1.4107297    
     47900   316.96883     -47818.619      4803.8768      21.505573      1.4101607    
     48000   303.57697     -40935.146      4805.8147      21.514248      1.409592     
     48100   285.19163     -41242.264      4807.7525      21.522923      1.4090239    
     48200   276.29736     -42080.253      4809.6903      21.531598      1.4084562    
     48300   286.83282     -38951.177      4811.6282      21.540273      1.4078889    
     48400   308.70647     -32640.795      4813.566       21.548948      1.4073222    
     48500   306.50313     -41792.782      4815.5038      21.557624      1.4067558    
     48600   292.1564      -39582.915      4817.4416      21.566299      1.40619      
     48700   293.90903     -30744.165      4819.3795      21.574974      1.4056246    
     48800   305.43723     -26568.732      4821.3173      21.583649      1.4050596    
     48900   313.32183     -39482.718      4823.2551      21.592324      1.4044951    
     49000   288.4595      -40772.072      4825.193       21.600999      1.403931     
     49100   333.18529     -34662.699      4827.1308      21.609674      1.4033674    
     49200   305.34971     -42173.982      4829.0686      21.618349      1.4028043    
     49300   293.2772      -48566.478      4831.0064      21.627024      1.4022416    
     49400   289.55198     -42517.645      4832.9443      21.635699      1.4016793    
     49500   291.44535     -36657.961      4834.8821      21.644375      1.4011175    
     49600   299.9245      -22664.193      4836.8199      21.65305       1.4005562    
     49700   323.97767     -38754.068      4838.7578      21.661725      1.3999953    
     49800   310.67561     -37319.777      4840.6956      21.6704        1.3994349    
     49900   309.94198     -38239.615      4842.6334      21.679075      1.3988749    
     50000   309.83276     -37887.931      4844.5712      21.68775       1.3983153    
     50100   300.66869     -40030.316      4846.5091      21.696425      1.3977562    
     50200   311.88034     -32727.343      4848.4469      21.7051        1.3971975    
     50300   316.8242      -42791.947      4850.3847      21.713775      1.3966393    
     50400   291.1622      -40069.576      4852.3226      21.72245       1.3960816    
     50500   304.37898     -47606.113      4854.2604      21.731126      1.3955243    
     50600   301.55542     -34865.162      4856.1982      21.739801      1.3949674    
     50700   307.47399     -34197.601      4858.136       21.748476      1.394411     
     50800   285.8652      -30143.173      4860.0739      21.757151      1.393855     
     50900   298.67057     -31527.99       4862.0117      21.765826      1.3932994    
     51000   300.0059      -47637.881      4863.9495      21.774501      1.3927443    
     51100   304.09182     -38510.479      4865.8874      21.783176      1.3921897    
     51200   328.35064     -36996.48       4867.8252      21.791851      1.3916355    
     51300   308.32841     -42434.012      4869.763       21.800526      1.3910817    
     51400   299.42696     -41696.875      4871.7008      21.809201      1.3905283    
     51500   291.91096     -46975.733      4873.6387      21.817877      1.3899755    
     51600   294.97538     -41440.132      4875.5765      21.826552      1.389423     
     51700   288.82553     -42417.845      4877.5143      21.835227      1.388871     
     51800   322.3521      -38875.44       4879.4522      21.843902      1.3883194    
     51900   308.58492     -38502.945      4881.39        21.852577      1.3877683    
     52000   290.35683     -44656.768      4883.3278      21.861252      1.3872176    
     52100   284.72797     -35704.497      4885.2656      21.869927      1.3866673    
     52200   309.60468     -39550.49       4887.2035      21.878602      1.3861175    
     52300   315.15699     -39697.685      4889.1413      21.887277      1.3855681    
     52400   297.45878     -41753.299      4891.0791      21.895952      1.3850191    
     52500   259.15389     -53042.334      4893.017       21.904628      1.3844706    
     52600   270.43187     -48101.4        4894.9548      21.913303      1.3839225    
     52700   295.71886     -36303.368      4896.8926      21.921978      1.3833749    
     52800   291.77473     -40598.642      4898.8304      21.930653      1.3828276    
     52900   305.70706     -40062.476      4900.7683      21.939328      1.3822808    
     53000   292.43712     -29702.184      4902.7061      21.948003      1.3817345    
     53100   290.3334      -45897.919      4904.6439      21.956678      1.3811886    
     53200   264.78505     -49655.624      4906.5818      21.965353      1.3806431    
     53300   300.39004     -46226.51       4908.5196      21.974028      1.380098     
     53400   308.43539     -34301.202      4910.4574      21.982703      1.3795534    
     53500   301.35177     -37117.955      4912.3952      21.991378      1.3790092    
     53600   303.07293     -40814.822      4914.3331      22.000054      1.3784654    
     53700   280.74778     -40670.729      4916.2709      22.008729      1.3779221    
     53800   302.36486     -48316.478      4918.2087      22.017404      1.3773791    
     53900   296.59568     -42591.585      4920.1466      22.026079      1.3768367    
     54000   291.99516     -39807.795      4922.0844      22.034754      1.3762946    
     54100   303.50474     -37216.137      4924.0222      22.043429      1.375753     
     54200   286.33334     -44607.842      4925.96        22.052104      1.3752117    
     54300   294.6959      -37330.537      4927.8979      22.060779      1.374671     
     54400   293.23526     -41688.151      4929.8357      22.069454      1.3741306    
     54500   269.76691     -48062.587      4931.7735      22.078129      1.3735907    
     54600   297.66967     -47070.339      4933.7114      22.086805      1.3730512    
     54700   311.73955     -43867.305      4935.6492      22.09548       1.3725121    
     54800   302.74486     -50176.875      4937.587       22.104155      1.3719734    
     54900   307.94916     -47720.35       4939.5248      22.11283       1.3714352    
     55000   296.77819     -38466.671      4941.4627      22.121505      1.3708974    
     55100   291.37449     -42575.124      4943.4005      22.13018       1.37036      
     55200   305.87066     -50135.899      4945.3383      22.138855      1.369823     
     55300   305.95421     -46331.015      4947.2762      22.14753       1.3692864    
     55400   318.96757     -40571.191      4949.214       22.156205      1.3687503    
     55500   291.29123     -47665.831      4951.1518      22.164881      1.3682146    
     55600   287.69549     -49138.867      4953.0896      22.173556      1.3676793    
     55700   316.29757     -47112.735      4955.0275      22.182231      1.3671444    
     55800   305.78223     -36533.608      4956.9653      22.190906      1.36661      
     55900   285.14665     -41139.678      4958.9031      22.199581      1.3660759    
     56000   282.88321     -40247.735      4960.841       22.208256      1.3655423    
     56100   309.42981     -43462.683      4962.7788      22.216931      1.3650091    
     56200   312.30416     -52656.25       4964.7166      22.225606      1.3644763    
     56300   298.28507     -48800.53       4966.6544      22.234281      1.3639439    
     56400   298.61675     -44111.49       4968.5923      22.242956      1.363412     
     56500   320.80273     -41978.226      4970.5301      22.251632      1.3628804    
     56600   315.81295     -48750.915      4972.4679      22.260307      1.3623493    
     56700   295.17987     -55393.751      4974.4058      22.268982      1.3618186    
     56800   292.66282     -36779.158      4976.3436      22.277657      1.3612883    
     56900   294.65718     -37552.47       4978.2814      22.286332      1.3607584    
     57000   313.12907     -46456.633      4980.2192      22.295007      1.3602289    
     57100   315.98032     -44878.17       4982.1571      22.303682      1.3596998    
     57200   311.18659     -50433.343      4984.0949      22.312357      1.3591712    
     57300   304.62786     -53654.918      4986.0327      22.321032      1.3586429    
     57400   281.88474     -39842.485      4987.9706      22.329707      1.3581151    
     57500   300.35395     -45221.772      4989.9084      22.338383      1.3575877    
     57600   306.36801     -49519.207      4991.8462      22.347058      1.3570607    
     57700   291.7654      -46079.622      4993.784       22.355733      1.3565341    
     57800   295.47477     -50608.478      4995.7219      22.364408      1.3560079    
     57900   303.44577     -44921.377      4997.6597      22.373083      1.3554821    
     58000   306.91535     -41607.081      4999.5975      22.381758      1.3549567    
     58100   312.22943     -45648.647      5001.5353      22.390433      1.3544317    
     58200   303.3595      -42268.965      5003.4732      22.399108      1.3539071    
     58300   305.82499     -46717.553      5005.411       22.407783      1.353383     
     58400   281.10153     -57916.133      5007.3488      22.416458      1.3528592    
     58500   307.97423     -46386.062      5009.2867      22.425134      1.3523359    
     58600   324.00333     -40222.787      5011.2245      22.433809      1.3518129    
     58700   304.02884     -42989.796      5013.1623      22.442484      1.3512904    
     58800   302.05458     -38637.188      5015.1001      22.451159      1.3507683    
     58900   288.23232     -49423.251      5017.038       22.459834      1.3502465    
     59000   301.57169     -41992.639      5018.9758      22.468509      1.3497252    
     59100   303.77517     -36628.892      5020.9136      22.477184      1.3492043    
     59200   298.38291     -53940.141      5022.8515      22.485859      1.3486837    
     59300   305.65529     -42114.146      5024.7893      22.494534      1.3481636    
     59400   281.61058     -41110.961      5026.7271      22.503209      1.3476439    
     59500   300.38406     -48417.916      5028.6649      22.511885      1.3471246    
     59600   299.06698     -51321.808      5030.6028      22.52056       1.3466056    
     59700   298.35633     -45722.671      5032.5406      22.529235      1.3460871    
     59800   312.78772     -53337.221      5034.4784      22.53791       1.345569     
     59900   295.96475     -39855.527      5036.4163      22.546585      1.3450513    
     60000   301.94186     -50692.622      5038.3541      22.55526       1.3445339    
     60100   301.07051     -51220.998      5040.2919      22.563935      1.344017     
     60200   286.08819     -58035.258      5042.2297      22.57261       1.3435005    
     60300   286.24467     -43547.616      5044.1676      22.581285      1.3429843    
     60400   303.31192     -52895.09       5046.1054      22.58996       1.3424686    
     60500   293.511       -49365.804      5048.0432      22.598636      1.3419533    
     60600   310.84607     -44392.256      5049.9811      22.607311      1.3414383    
     60700   287.7485      -45989.813      5051.9189      22.615986      1.3409238    
     60800   282.78097     -47165.534      5053.8567      22.624661      1.3404096    
     60900   280.81242     -56377.369      5055.7945      22.633336      1.3398958    
     61000   291.65435     -54222.93       5057.7324      22.642011      1.3393825    
     61100   294.66769     -52910.181      5059.6702      22.650686      1.3388695    
     61200   288.90613     -50754.836      5061.608       22.659361      1.3383569    
     61300   318.29739     -50618.562      5063.5459      22.668036      1.3378447    
     61400   316.78072     -53775.573      5065.4837      22.676711      1.3373329    
     61500   276.20712     -48002.121      5067.4215      22.685386      1.3368215    
     61600   302.14762     -56553.062      5069.3593      22.694062      1.3363105    
     61700   294.12442     -54754.451      5071.2972      22.702737      1.3357999    
     61800   310.85567     -45540.455      5073.235       22.711412      1.3352896    
     61900   299.97449     -51496.082      5075.1728      22.720087      1.3347798    
     62000   302.71418     -43600.153      5077.1107      22.728762      1.3342703    
     62100   290.52954     -48684.592      5079.0485      22.737437      1.3337613    
     62200   298.91017     -50165.302      5080.9863      22.746112      1.3332526    
     62300   310.73372     -59929.279      5082.9241      22.754787      1.3327443    
     62400   295.7916      -56720.718      5084.862       22.763462      1.3322364    
     62500   280.13903     -50145.892      5086.7998      22.772137      1.3317289    
     62600   300.11472     -53626.586      5088.7376      22.780813      1.3312217    
     62700   291.34031     -48864.078      5090.6755      22.789488      1.330715     
     62800   303.47969     -42534.075      5092.6133      22.798163      1.3302086    
     62900   305.89377     -56935.937      5094.5511      22.806838      1.3297026    
     63000   304.2589      -50530.252      5096.4889      22.815513      1.3291971    
     63100   279.71553     -52654.051      5098.4268      22.824188      1.3286919    
     63200   280.68722     -50824.411      5100.3646      22.832863      1.328187     
     63300   303.58343     -42484.126      5102.3024      22.841538      1.3276826    
     63400   303.0654      -42637.592      5104.2403      22.850213      1.3271785    
     63500   289.20547     -50052.983      5106.1781      22.858888      1.3266749    
     63600   324.45777     -47276.615      5108.1159      22.867564      1.3261716    
     63700   301.52777     -51336.706      5110.0537      22.876239      1.3256687    
     63800   269.4675      -51139.47       5111.9916      22.884914      1.3251661    
     63900   288.54605     -47983.733      5113.9294      22.893589      1.324664     
     64000   298.99338     -54664.486      5115.8672      22.902264      1.3241622    
     64100   290.73507     -49712.218      5117.8051      22.910939      1.3236608    
     64200   318.50387     -36719.08       5119.7429      22.919614      1.3231598    
     64300   298.46023     -50887.793      5121.6807      22.928289      1.3226592    
     64400   289.54784     -50103.718      5123.6185      22.936964      1.3221589    
     64500   304.1895      -48179.351      5125.5564      22.945639      1.3216591    
     64600   284.02265     -52110.167      5127.4942      22.954315      1.3211596    
     64700   303.9609      -52215.15       5129.432       22.96299       1.3206605    
     64800   313.59506     -44445.453      5131.3699      22.971665      1.3201617    
     64900   297.79995     -52823.903      5133.3077      22.98034       1.3196634    
     65000   281.18706     -45909.346      5135.2455      22.989015      1.3191654    
     65100   303.33421     -45362.053      5137.1833      22.99769       1.3186678    
     65200   281.84397     -58064.365      5139.1212      23.006365      1.3181705    
     65300   315.08128     -53762.2        5141.059       23.01504       1.3176737    
     65400   316.8246      -43872.586      5142.9968      23.023715      1.3171772    
     65500   293.22785     -41947.314      5144.9347      23.03239       1.3166811    
     65600   294.28621     -41942.896      5146.8725      23.041066      1.3161853    
     65700   299.51251     -41482.657      5148.8103      23.049741      1.31569      
     65800   289.33724     -50795.439      5150.7481      23.058416      1.315195     
     65900   321.26366     -52397.435      5152.686       23.067091      1.3147004    
     66000   320.20206     -53039.734      5154.6238      23.075766      1.3142061    
     66100   289.4004      -44753.685      5156.5616      23.084441      1.3137122    
     66200   284.9958      -53776.207      5158.4995      23.093116      1.3132187    
     66300   299.91386     -49634.282      5160.4373      23.101791      1.3127256    
     66400   290.9371      -52388.098      5162.3751      23.110466      1.3122328    
     66500   300.6955      -46514.645      5164.3129      23.119142      1.3117404    
     66600   324.35336     -48851.199      5166.2508      23.127817      1.3112484    
     66700   304.81339     -44767.834      5168.1886      23.136492      1.3107568    
     66800   292.97327     -45980.424      5170.1264      23.145167      1.3102655    
     66900   279.34333     -56219.827      5172.0643      23.153842      1.3097745    
     67000   294.29261     -44146.992      5174.0021      23.162517      1.309284     
     67100   278.57286     -50478.74       5175.9399      23.171192      1.3087938    
     67200   300.56624     -46460.123      5177.8777      23.179867      1.308304     
     67300   307.90439     -49595.124      5179.8156      23.188542      1.3078145    
     67400   305.32898     -44284.925      5181.7534      23.197217      1.3073255    
     67500   294.9552      -45495.453      5183.6912      23.205893      1.3068367    
     67600   284.1637      -55525.042      5185.6291      23.214568      1.3063484    
     67700   287.51609     -44205.654      5187.5669      23.223243      1.3058604    
     67800   304.40108     -47336.909      5189.5047      23.231918      1.3053728    
     67900   298.98211     -56960.304      5191.4425      23.240593      1.3048855    
     68000   307.20032     -45080.814      5193.3804      23.249268      1.3043986    
     68100   288.77301     -52448.637      5195.3182      23.257943      1.3039121    
     68200   281.19737     -46314.622      5197.256       23.266618      1.3034259    
     68300   289.43107     -46097.249      5199.1939      23.275293      1.3029401    
     68400   283.44367     -53664.068      5201.1317      23.283968      1.3024546    
     68500   290.04582     -49870.357      5203.0695      23.292644      1.3019696    
     68600   314.91339     -55359.986      5205.0073      23.301319      1.3014848    
     68700   286.9393      -57356.307      5206.9452      23.309994      1.3010005    
     68800   300.42907     -56432.707      5208.883       23.318669      1.3005165    
     68900   288.33288     -52512.688      5210.8208      23.327344      1.3000328    
     69000   303.01718     -48783.427      5212.7587      23.336019      1.2995495    
     69100   304.70724     -53274.338      5214.6965      23.344694      1.2990666    
     69200   304.78884     -43980.21       5216.6343      23.353369      1.298584     
     69300   297.21216     -46114.33       5218.5721      23.362044      1.2981018    
     69400   286.72488     -54023.646      5220.51        23.370719      1.29762      
     69500   291.55706     -41794.604      5222.4478      23.379395      1.2971385    
     69600   311.92159     -37227.392      5224.3856      23.38807       1.2966574    
     69700   311.95495     -46669.14       5226.3235      23.396745      1.2961766    
     69800   295.13209     -60410.571      5228.2613      23.40542       1.2956962    
     69900   305.45384     -47665.329      5230.1991      23.414095      1.2952161    
     70000   295.41258     -55185.881      5232.1369      23.42277       1.2947364    
     70100   299.27133     -48982.672      5234.0748      23.431445      1.294257     
     70200   312.02217     -57901.576      5236.0126      23.44012       1.293778     
     70300   309.00513     -49991.861      5237.9504      23.448795      1.2932994    
     70400   334.7349      -53471.279      5239.8883      23.45747       1.2928211    
     70500   312.14741     -52824.737      5241.8261      23.466145      1.2923432    
     70600   300.89732     -64545.566      5243.7639      23.474821      1.2918656    
     70700   308.19055     -53067.07       5245.7017      23.483496      1.2913883    
     70800   297.12981     -55210.06       5247.6396      23.492171      1.2909115    
     70900   295.84827     -52283.358      5249.5774      23.500846      1.2904349    
     71000   277.02222     -49243.61       5251.5152      23.509521      1.2899588    
     71100   298.95255     -42681.249      5253.4531      23.518196      1.2894829    
     71200   308.11836     -53416.142      5255.3909      23.526871      1.2890075    
     71300   300.58633     -60223.261      5257.3287      23.535546      1.2885323    
     71400   302.7223      -50770.89       5259.2665      23.544221      1.2880576    
     71500   294.83863     -55377.663      5261.2044      23.552896      1.2875832    
     71600   287.41626     -45512.878      5263.1422      23.561572      1.2871091    
     71700   292.63498     -59146.435      5265.08        23.570247      1.2866354    
     71800   294.77036     -45411.369      5267.0179      23.578922      1.286162     
     71900   300.36302     -53918.32       5268.9557      23.587597      1.285689     
     72000   292.49623     -57240.335      5270.8935      23.596272      1.2852163    
     72100   295.65403     -46925.402      5272.8313      23.604947      1.2847439    
     72200   310.60072     -47534.844      5274.7692      23.613622      1.284272     
     72300   311.85777     -50317.233      5276.707       23.622297      1.2838003    
     72400   293.74229     -57921.62       5278.6448      23.630972      1.283329     
     72500   301.29793     -51019.046      5280.5827      23.639647      1.2828581    
     72600   312.77655     -56688.835      5282.5205      23.648323      1.2823875    
     72700   318.67768     -59874.751      5284.4583      23.656998      1.2819172    
     72800   293.47385     -49363.461      5286.3961      23.665673      1.2814473    
     72900   279.40694     -49210.656      5288.334       23.674348      1.2809777    
     73000   285.75215     -60003.409      5290.2718      23.683023      1.2805085    
     73100   306.81022     -48861.469      5292.2096      23.691698      1.2800396    
     73200   305.87346     -54624.095      5294.1475      23.700373      1.2795711    
     73300   306.49813     -52519.047      5296.0853      23.709048      1.2791029    
     73400   276.70548     -57238.868      5298.0231      23.717723      1.2786351    
     73500   269.26139     -47391.274      5299.9609      23.726399      1.2781676    
     73600   295.78906     -51832.983      5301.8988      23.735074      1.2777004    
     73700   306.84036     -54489.604      5303.8366      23.743749      1.2772336    
     73800   307.18627     -49432.023      5305.7744      23.752424      1.2767671    
     73900   309.6497      -57858.396      5307.7123      23.761099      1.2763009    
     74000   302.26914     -48354.166      5309.6501      23.769774      1.2758351    
     74100   293.75172     -52869.109      5311.5879      23.778449      1.2753697    
     74200   286.75235     -52722.773      5313.5257      23.787124      1.2749045    
     74300   295.61843     -48257.737      5315.4636      23.795799      1.2744398    
     74400   309.18096     -49057.47       5317.4014      23.804474      1.2739753    
     74500   308.11283     -56871.227      5319.3392      23.81315       1.2735112    
     74600   311.5361      -51578.697      5321.2771      23.821825      1.2730474    
     74700   293.75676     -55525.89       5323.2149      23.8305        1.272584     
     74800   315.95787     -51440.729      5325.1527      23.839175      1.2721209    
[...]
     98700   314.08683     -40581.773      5788.2937      25.912524      1.1703342    
     98800   299.0499      -39018.666      5790.2315      25.921199      1.1699425    
     98900   307.46309     -41930.71       5792.1694      25.929874      1.1695511    
     99000   302.07867     -42468.057      5794.1072      25.938549      1.16916      
     99100   288.03654     -35663.013      5796.045       25.947224      1.1687691    
     99200   298.02589     -43004.029      5797.9829      25.955899      1.1683784    
     99300   281.41849     -43158.827      5799.9207      25.964574      1.1679881    
     99400   307.75537     -47414.542      5801.8585      25.973249      1.1675979    
     99500   323.00804     -35782.74       5803.7963      25.981925      1.1672081    
     99600   331.74999     -41008.104      5805.7342      25.9906        1.1668185    
     99700   315.75493     -30236.592      5807.672       25.999275      1.1664292    
     99800   311.08707     -31869.905      5809.6098      26.00795       1.1660401    
     99900   297.513       -30748.154      5811.5477      26.016625      1.1656513    
    100000   284.18101     -32835.408      5813.4855      26.0253        1.1652628    
    100100   287.57612     -27119.032      5815.4233      26.033975      1.1648745    
    100200   316.24487     -30000.105      5817.3611      26.04265       1.1644864    
    100300   301.15458     -38408.617      5819.299       26.051325      1.1640987    
    100400   309.11319     -24879.907      5821.2368      26.06          1.1637111    
    100500   289.79919     -34473.681      5823.1746      26.068676      1.1633239    
    100600   295.25127     -27122.567      5825.1125      26.077351      1.1629369    
    100700   276.66096     -34157.08       5827.0503      26.086026      1.1625501    
    100800   323.16559     -29546.952      5828.9881      26.094701      1.1621636    
    100900   307.79785     -32876.732      5830.9259      26.103376      1.1617774    
    101000   284.32557     -37251.223      5832.8638      26.112051      1.1613914    
    101100   290.48422     -37173.33       5834.8016      26.120726      1.1610057    
    101200   296.51298     -26966.123      5836.7394      26.129401      1.1606203    
    101300   327.32171     -34248.106      5838.6773      26.138076      1.1602351    
    101400   312.40485     -37652.695      5840.6151      26.146751      1.1598501    
    101500   321.46103     -39755.362      5842.5529      26.155427      1.1594654    
    101600   302.76354     -40551.762      5844.4907      26.164102      1.159081     
    101700   309.82718     -38551.704      5846.4286      26.172777      1.1586968    
    101800   300.34204     -48512.842      5848.3664      26.181452      1.1583129    
    101900   291.0856      -39076.104      5850.3042      26.190127      1.1579292    
    102000   291.85632     -29034.575      5852.2421      26.198802      1.1575458    
    102100   304.60913     -40647.649      5854.1799      26.207477      1.1571626    
    102200   319.65589     -35363.202      5856.1177      26.216152      1.1567797    
    102300   313.41067     -41647.206      5858.0555      26.224827      1.156397     
    102400   286.58905     -35745.803      5859.9934      26.233502      1.1560146    
    102500   307.73988     -26474.347      5861.9312      26.242178      1.1556325    
    102600   282.6204      -30509.255      5863.869       26.250853      1.1552506    
    102700   299.36942     -40441.821      5865.8069      26.259528      1.1548689    
    102800   283.98        -32178.646      5867.7447      26.268203      1.1544875    
    102900   318.4104      -34759.864      5869.6825      26.276878      1.1541064    
    103000   306.58507     -34923.439      5871.6203      26.285553      1.1537255    
    103100   289.34892     -27633.109      5873.5582      26.294228      1.1533449    
    103200   299.38711     -33879.767      5875.496       26.302903      1.1529645    
    103300   301.82978     -40264.353      5877.4338      26.311578      1.1525843    
    103400   315.73214     -25983.751      5879.3717      26.320253      1.1522044    
    103500   285.56775     -33005.861      5881.3095      26.328928      1.1518248    
    103600   292.6901      -37583.262      5883.2473      26.337604      1.1514454    
    103700   292.72569     -41444.131      5885.1851      26.346279      1.1510663    
    103800   297.74258     -35729.757      5887.123       26.354954      1.1506874    
    103900   301.57014     -36516.943      5889.0608      26.363629      1.1503087    
    104000   314.03863     -32349.793      5890.9986      26.372304      1.1499303    
    104100   299.23156     -33587.845      5892.9365      26.380979      1.1495522    
    104200   293.02321     -31009.273      5894.8743      26.389654      1.1491743    
    104300   318.92569     -36553.978      5896.8121      26.398329      1.1487967    
    104400   287.73886     -43094.809      5898.7499      26.407004      1.1484193    
    104500   296.17162     -30202.829      5900.6878      26.415679      1.1480421    
    104600   355.93491     -34190.678      5902.6256      26.424355      1.1476652    
    104700   360.93621     -18303.009      5904.5634      26.43303       1.1472886    
    104800   343.78238     -25500.042      5906.5013      26.441705      1.1469122    
    104900   305.84118     -11805.116      5908.4391      26.45038       1.146536     
    105000   287.53182     -26741.785      5910.3769      26.459055      1.1461601    
    105100   272.20349     -24901.95       5912.3147      26.46773       1.1457844    
    105200   310.81568     -22590.829      5914.2526      26.476405      1.145409     
    105300   305.21039     -15184.173      5916.1904      26.48508       1.1450338    
    105400   311.7765      -20945.066      5918.1282      26.493755      1.1446589    
    105500   297.58579     -13929.905      5920.0661      26.502431      1.1442842    
    105600   294.6392      -26781.137      5922.0039      26.511106      1.1439098    
    105700   308.60632     -19783.373      5923.9417      26.519781      1.1435356    
    105800   306.76036     -14976.991      5925.8795      26.528456      1.1431616    
    105900   295.61598     -23974.835      5927.8174      26.537131      1.1427879    
    106000   338.38697     -18097.68       5929.7552      26.545806      1.1424145    
    106100   317.55888     -20866.646      5931.693       26.554481      1.1420412    
    106200   305.09706     -20656.915      5933.6309      26.563156      1.1416683    
    106300   298.67949     -27682.754      5935.5687      26.571831      1.1412955    
    106400   314.4822      -12864.574      5937.5065      26.580506      1.1409231    
    106500   306.34625     -25024.969      5939.4443      26.589182      1.1405508    
    106600   318.12654     -17832.473      5941.3822      26.597857      1.1401788    
    106700   300.1015      -20182.599      5943.32        26.606532      1.1398071    
    106800   305.35595     -23785.148      5945.2578      26.615207      1.1394355    
    106900   318.07573     -16524.732      5947.1957      26.623882      1.1390643    
    107000   295.12075     -21052.976      5949.1335      26.632557      1.1386932    
    107100   292.11066     -17274.816      5951.0713      26.641232      1.1383225    
    107200   292.48682     -12153.617      5953.0091      26.649907      1.1379519    
    107300   292.08897     -11466.912      5954.947       26.658582      1.1375816    
    107400   297.17411     -15292.475      5956.8848      26.667257      1.1372115    
    107500   322.97204     -26312.937      5958.8226      26.675933      1.1368417    
    107600   294.74449     -17969.616      5960.7605      26.684608      1.1364721    
    107700   311.44684     -13274.614      5962.6983      26.693283      1.1361028    
    107800   300.42578     -8263.4818      5964.6361      26.701958      1.1357337    
    107900   293.87312     -20062.581      5966.5739      26.710633      1.1353648    
    108000   282.21763     -15764.354      5968.5118      26.719308      1.1349962    
    108100   288.514       -12346.611      5970.4496      26.727983      1.1346278    
    108200   290.2977      -12301.573      5972.3874      26.736658      1.1342597    
    108300   280.44218     -21907.137      5974.3253      26.745333      1.1338917    
    108400   323.19821     -28613.403      5976.2631      26.754008      1.1335241    
    108500   292.62241     -14836.891      5978.2009      26.762684      1.1331566    
    108600   307.52962     -23350.241      5980.1387      26.771359      1.1327895    
    108700   275.9119      -22480.646      5982.0766      26.780034      1.1324225    
    108800   303.0459      -29676.822      5984.0144      26.788709      1.1320558    
    108900   308.91793     -12958.157      5985.9522      26.797384      1.1316893    
    109000   294.59184     -19346.914      5987.8901      26.806059      1.1313231    
    109100   305.81839     -27430.566      5989.8279      26.814734      1.1309571    
    109200   284.82759     -23239.258      5991.7657      26.823409      1.1305913    
    109300   285.7224      -18532.895      5993.7035      26.832084      1.1302258    
    109400   291.16901     -23957.994      5995.6414      26.840759      1.1298605    
    109500   294.69589     -9371.7772      5997.5792      26.849435      1.1294954    
    109600   307.0079      -22191.457      5999.517       26.85811       1.1291306    
    109700   309.14464     -29051.119      6001.4549      26.866785      1.128766     
    109800   298.84453     -19172.355      6003.3927      26.87546       1.1284016    
    109900   304.4759      -16778.365      6005.3305      26.884135      1.1280375    
    110000   298.21105     -23493.746      6007.2683      26.89281       1.1276736    
    110100   306.47908     -26799.128      6009.2062      26.901485      1.12731      
    110200   292.96771     -24955.133      6011.144       26.91016       1.1269466    
    110300   282.7036      -19207.741      6013.0818      26.918835      1.1265834    
    110400   287.69542     -17487.509      6015.0197      26.92751       1.1262204    
    110500   304.79188     -22680.777      6016.9575      26.936186      1.1258577    
    110600   297.4254      -25865.743      6018.8953      26.944861      1.1254953    
    110700   308.41966     -13308.809      6020.8331      26.953536      1.125133     
    110800   285.16153     -18033.104      6022.771       26.962211      1.124771     
    110900   298.10326     -22790.213      6024.7088      26.970886      1.1244092    
    111000   307.89863     -19904.17       6026.6466      26.979561      1.1240477    
    111100   338.469       -25064.474      6028.5845      26.988236      1.1236864    
    111200   304.72059     -10045.135      6030.5223      26.996911      1.1233253    
    111300   277.15659     -20858.742      6032.4601      27.005586      1.1229644    
    111400   299.33523     -12646.253      6034.3979      27.014261      1.1226038    
    111500   301.08627     -11611.265      6036.3358      27.022937      1.1222434    
    111600   285.3297      -25616.166      6038.2736      27.031612      1.1218833    
    111700   298.88917     -21485.809      6040.2114      27.040287      1.1215233    
    111800   320.19487     -16907.053      6042.1493      27.048962      1.1211636    
    111900   321.36601     -25581.316      6044.0871      27.057637      1.1208042    
    112000   300.66267     -10669.689      6046.0249      27.066312      1.120445     
    112100   292.13551     -21603.196      6047.9627      27.074987      1.120086     
    112200   306.48672     -28178.056      6049.9006      27.083662      1.1197272    
    112300   306.7772      -20336.301      6051.8384      27.092337      1.1193686    
    112400   297.67477     -20058.316      6053.7762      27.101012      1.1190103    
    112500   317.11543     -21442.445      6055.7141      27.109687      1.1186522    
    112600   284.95859     -20783.784      6057.6519      27.118363      1.1182944    
    112700   295.9337      -22403.597      6059.5897      27.127038      1.1179368    
    112800   272.9188      -18577.292      6061.5275      27.135713      1.1175794    
    112900   283.70402     -19995.268      6063.4654      27.144388      1.1172222    
    113000   299.78179     -19464.273      6065.4032      27.153063      1.1168653    
    113100   307.43106     -21405.993      6067.341       27.161738      1.1165085    
    113200   316.2524      -28253.958      6069.2789      27.170413      1.1161521    
    113300   308.60483     -24031.024      6071.2167      27.179088      1.1157958    
    113400   286.67057     -23695.082      6073.1545      27.187763      1.1154398    
    113500   277.53208     -20764.74       6075.0923      27.196438      1.115084     
    113600   311.43898     -21280.562      6077.0302      27.205114      1.1147284    
    113700   303.41398     -17291.886      6078.968       27.213789      1.1143731    
    113800   295.1849      -24781.073      6080.9058      27.222464      1.1140179    
    113900   316.71875     -25822.122      6082.8437      27.231139      1.113663     
    114000   327.1868      -20435.511      6084.7815      27.239814      1.1133084    
    114100   322.17114     -18445.449      6086.7193      27.248489      1.1129539    
    114200   301.62708     -22742.143      6088.6571      27.257164      1.1125997    
    114300   307.72698     -16792.244      6090.595       27.265839      1.1122457    
    114400   308.93246     -26819.222      6092.5328      27.274514      1.1118919    
    114500   284.75744     -16512.632      6094.4706      27.283189      1.1115384    
    114600   287.4641      -20910.829      6096.4085      27.291865      1.1111851    
    114700   289.32433     -21968.887      6098.3463      27.30054       1.110832     
    114800   291.02401     -24065.037      6100.2841      27.309215      1.1104791    
    114900   313.49576     -21799.742      6102.2219      27.31789       1.1101265    
    115000   331.32701     -21372.95       6104.1598      27.326565      1.1097741    
    115100   326.19926     -20943.857      6106.0976      27.33524       1.1094219    
    115200   297.84667     -13623.133      6108.0354      27.343915      1.1090699    
    115300   323.75246     -17198.527      6109.9732      27.35259       1.1087181    
    115400   287.89531     -28959.848      6111.9111      27.361265      1.1083666    
    115500   274.09118     -18038.031      6113.8489      27.36994       1.1080153    
    115600   319.64412     -20814.448      6115.7867      27.378616      1.1076642    
    115700   294.37286     -14907.62       6117.7246      27.387291      1.1073134    
    115800   295.55762     -20142.059      6119.6624      27.395966      1.1069627    
    115900   276.93907     -19196.659      6121.6002      27.404641      1.1066123    
    116000   316.45277     -23944.287      6123.538       27.413316      1.1062621    
    116100   324.25063     -11384.167      6125.4759      27.421991      1.1059121    
    116200   301.36845     -16256.485      6127.4137      27.430666      1.1055624    
    116300   298.31313     -18972.035      6129.3515      27.439341      1.1052129    
    116400   293.63072     -14501.484      6131.2894      27.448016      1.1048635    
    116500   297.45525     -27026.531      6133.2272      27.456691      1.1045145    
    116600   312.68028     -17539.715      6135.165       27.465367      1.1041656    
    116700   312.79464     -22879.25       6137.1028      27.474042      1.1038169    
    116800   293.8296      -25226.636      6139.0407      27.482717      1.1034685    
    116900   294.31522     -22042.946      6140.9785      27.491392      1.1031203    
    117000   293.15996     -16968.131      6142.9163      27.500067      1.1027723    
    117100   316.52315     -21425.962      6144.8542      27.508742      1.1024246    
    117200   324.19865     -27223.965      6146.792       27.517417      1.102077     
    117300   314.1933      -17470.542      6148.7298      27.526092      1.1017297    
    117400   309.94419     -18491.705      6150.6676      27.534767      1.1013826    
    117500   299.33963     -23598.684      6152.6055      27.543442      1.1010357    
    117600   289.21811     -23332.324      6154.5433      27.552118      1.100689     
    117700   286.3329      -32164.885      6156.4811      27.560793      1.1003425    
    117800   304.83343     -26269.77       6158.419       27.569468      1.0999963    
    117900   319.1395      -14525.747      6160.3568      27.578143      1.0996503    
    118000   307.29961     -23672.285      6162.2946      27.586818      1.0993045    
    118100   297.23152     -19110.843      6164.2324      27.595493      1.0989589    
    118200   302.11639     -13652.688      6166.1703      27.604168      1.0986135    
    118300   265.80104     -19975.297      6168.1081      27.612843      1.0982684    
    118400   307.79752     -8937.5527      6170.0459      27.621518      1.0979234    
    118500   293.64112     -26512.675      6171.9838      27.630194      1.0975787    
    118600   300.59515     -15426.421      6173.9216      27.638869      1.0972342    
    118700   286.41182     -25116          6175.8594      27.647544      1.0968899    
    118800   288.98062     -20980.44       6177.7972      27.656219      1.0965459    
    118900   290.56084     -22619.515      6179.7351      27.664894      1.096202     
    119000   286.14693     -18182.038      6181.6729      27.673569      1.0958584    
    119100   298.50357     -16680.005      6183.6107      27.682244      1.095515     
    119200   317.16811     -18793.646      6185.5486      27.690919      1.0951718    
    119300   304.64759     -17419.356      6187.4864      27.699594      1.0948288    
    119400   300.38752     -17293.211      6189.4242      27.708269      1.094486     
    119500   301.09657     -23886.307      6191.362       27.716945      1.0941434    
    119600   296.59495     -24671.507      6193.2999      27.72562       1.0938011    
    119700   301.75113     -25429.929      6195.2377      27.734295      1.0934589    
    119800   321.73053     -16053.86       6197.1755      27.74297       1.093117     
    119900   307.66682     -31032.458      6199.1134      27.751645      1.0927753    
    120000   293.84163     -24064.483      6201.0512      27.76032       1.0924338    
Loop time of 4280.57 on 8 procs for 120000 steps with 386 atoms

Performance: 1.211 ns/day, 19.817 hours/ns, 28.034 timesteps/s, 10.821 katom-step/s
98.7% CPU use with 8 MPI tasks x 1 OpenMP threads

MPI task timing breakdown:
Section |  min time  |  avg time  |  max time  |%varavg| %total
---------------------------------------------------------------
Pair    | 2891       | 3257.6     | 3419.5     | 274.4 | 76.10
Bond    | 0.29752    | 0.3088     | 0.32262    |   1.6 |  0.01
Neigh   | 237.64     | 269.97     | 288.28     |  85.0 |  6.31
Comm    | 166.55     | 328.35     | 694.31     | 863.6 |  7.67
Output  | 0.41118    | 0.44937    | 0.48332    |   3.6 |  0.01
Modify  | 402.6      | 421.05     | 454.18     |  69.2 |  9.84
Other   |            | 2.822      |            |       |  0.07

Nlocal:          48.25 ave          59 max          37 min
Histogram: 1 0 2 0 0 1 2 1 0 1
Nghost:        2642.38 ave        2734 max        2575 min
Histogram: 4 0 0 0 0 0 1 1 1 1
Neighs:        21077.6 ave       26050 max       15936 min
Histogram: 1 0 2 0 0 2 0 2 0 1

Total # of neighbors = 168621
Ave neighs/atom = 436.84197
Ave special neighs/atom = 0
Neighbor list builds = 12000
Dangerous builds not checked
unfix deform_p
unfix data
undump dump_pos${dir}
undump dump_pos3

# Delete dir to make sure it is not reused
variable dir delete



Total wall time: 1:11:20
