ITEM: TIMESTEP
0
ITEM: NUMBER OF ATOMS
386
ITEM: BOX BOUNDS xy xz yz pp pp pp
-7.6535000000000002e+00 1.6722200000000001e+01 -7.3464000000000000e+00
-1.7999999999999999e-02 1.3589000000000000e+01 -3.0709999999999998e-01
0.0000000000000000e+00 1.7316099999999999e+01 -1.7999999999999999e-02
ITEM: ATOMS id type q x y z
2 2 0.0223383 -0.0409232 2.89379 3.12271
21 3 -0.776121 0.308956 0.527206 4.74438
4 2 0.135118 -1.92215 4.0656 3.74613
5 2 0.146968 -0.569677 4.23651 5.13736
6 1 -0.65245 -1.1674 3.50329 4.49885
10 4 0.704658 -0.909908 2.86761 8.00882
11 2 -0.0155859 0.259953 1.51834 7.86223
12 2 -0.0199185 -0.803617 3.63655 6.38915
130 2 0.161324 0.694924 4.08061 4.17363
134 2 0.163858 1.38065 4.65639 7.64959
200 1 -0.668698 1.92304 4.41669 3.97239
321 2 0.136625 1.57054 1.91727 1.68011
323 1 -0.668695 1.00591 1.63897 0.763296
325 2 0.220236 1.02383 5.58706 0.839347
326 2 0.15687 0.343063 4.21947 1.9406
327 1 -0.678544 0.250703 4.79255 0.994039
379 1 -0.658203 -2.86736 5.88841 0.808322
378 2 0.140386 -2.22518 5.52869 1.71083
320 2 0.229978 0.058807 0.993596 0.948544
324 2 0.157032 -0.954303 5.23463 0.929541
110 2 0.0582021 -2.39194 6.01851 4.67611
41 4 1.29267 2.08337 6.2157 4.55557
201 1 -0.669351 2.22409 4.88467 8.29226
1 4 0.986768 -0.833923 1.52047 4.07654
129 2 0.157345 2.13615 4.63451 2.86769
14 2 0.185302 -0.648237 5.09717 8.3671
234 3 -0.79957 0.636843 6.53753 5.27616
235 3 -0.859081 4.50332 4.95167 0.237924
118 2 0.113625 4.03939 0.729932 1.28349
126 2 0.209918 5.03677 4.56921 3.99533
231 3 -0.756739 5.76304 1.19976 4.21243
90 2 -0.00483336 3.84402 2.54586 2.93822
196 1 -0.686431 4.84565 0.110763 8.47192
133 2 0.219882 3.20551 5.16059 7.64612
362 2 0.144428 5.50869 1.2255 0.620405
128 2 0.148764 3.88984 4.22771 2.59842
127 2 0.161111 5.52165 3.17463 2.77021
246 3 -0.849814 2.58643 6.75533 0.625948
360 2 0.152705 7.02444 0.373589 0.484971
197 1 -0.662269 7.58837 0.509241 6.41741
131 2 0.161691 2.73372 3.80321 4.48549
121 2 0.18702 7.4308 0.85941 7.44342
87 2 0.0157313 2.47221 0.803504 6.83796
199 1 -0.686861 4.96109 4.14195 2.9682
34 4 1.01581 4.30926 0.933854 3.53529
36 4 0.808532 3.62528 1.53629 7.956
37 4 1.01101 7.09951 1.82267 5.23292
236 3 -0.763138 4.51362 2.74977 7.32126
43 4 1.44882 5.93305 3.79173 7.17998
238 3 -0.804146 3.62789 6.40481 5.52911
22 3 -0.804775 3.04543 0.17787 4.1779
8 2 0.0804553 1.43699 3.92499 16.1748
9 3 -0.770547 -1.12909 2.7591 16.3403
375 2 0.152031 -1.34129 3.31078 11.0649
15 2 0.128129 0.270707 3.85363 9.65904
26 4 0.976524 -1.74051 4.97429 13.7785
92 2 -0.00258385 -0.321413 6.00348 16.7966
84 2 -0.0100041 -2.72638 6.37344 13.572
85 2 -0.013815 -1.84996 4.37746 12.1712
241 3 -0.843895 -0.342683 5.46914 14.2347
334 2 0.177294 0.453741 1.17555 12.2783
335 2 0.176103 -0.109276 1.90382 13.8488
336 1 -0.654273 0.0574888 0.948795 13.2798
346 2 0.133943 1.33092 0.692227 9.09202
124 2 0.11597 1.80542 2.31051 9.19232
47 4 1.1661 0.587619 6.13113 15.3027
16 1 -0.657326 -0.725801 4.23461 9.16054
91 2 0.0341209 0.937536 5.96344 9.38201
242 3 -0.763394 1.97702 5.2194 15.427
13 2 0.158359 -1.5623 4.43879 9.92906
339 2 0.164795 1.86626 2.59393 14.6726
156 2 0.205123 1.93819 6.55909 12.8423
23 4 1.16856 1.4551 0.152621 14.3624
7 4 0.827948 0.220735 3.18618 17.1477
322 2 0.166124 1.35442 1.12759 17.2105
377 2 0.195079 -2.93941 5.26836 17.1977
137 2 0.183042 5.54863 2.60359 15.1891
89 2 0.0987718 6.55843 2.87238 9.99728
160 2 0.167782 4.70294 0.0596792 15.0584
198 1 -0.683301 2.7808 2.05206 9.64233
363 2 0.16232 5.83429 1.40391 16.033
202 1 -0.660414 5.37578 2.96289 14.0771
338 2 0.155042 2.70325 1.51469 15.9532
337 2 0.182076 3.55672 1.84531 14.3199
365 1 -0.679866 5.65087 1.94405 17.0617
340 1 -0.667951 2.59031 1.71383 14.8581
364 2 0.195895 5.02983 2.96636 16.8645
42 4 1.18005 3.17549 5.97167 16.8622
44 4 1.09656 2.62966 6.33639 9.50244
368 2 0.162616 3.91796 0.62953 12.2639
243 3 -0.766709 3.39952 5.77756 10.7767
232 3 -0.819028 7.16721 0.758808 11.5486
123 2 0.177421 2.68498 1.08585 10.257
125 2 0.191805 3.2151 2.87556 10.2408
135 2 0.170776 5.18197 2.12846 13.335
136 2 0.177905 4.44219 3.71034 14.0987
119 2 0.169047 5.48941 0.585407 9.26419
132 2 0.17418 2.43385 3.89212 8.87432
17 4 1.02403 -5.50485 12.9523 4.68755
28 4 1.25272 -2.37571 8.24225 8.10204
108 2 0.164534 -1.41019 7.4532 3.34169
112 2 0.149994 -3.08176 8.60077 5.64555
113 2 0.172399 -2.96122 10.1255 6.77003
142 2 0.143238 -2.16397 10.6883 5.10138
143 2 0.198268 -1.74733 12.528 5.14287
193 1 -0.672583 -3.40873 9.06198 6.68881
331 1 -0.656949 -4.98919 12.4603 6.521
332 2 0.139047 -5.19775 11.3278 6.22346
342 2 0.142747 -3.05124 8.77862 1.09211
225 3 -0.776755 -1.42141 7.02007 7.29347
350 2 0.13477 -4.56775 11.0453 1.18241
351 2 0.175231 -5.05494 12.954 1.33916
352 1 -0.692224 -4.79073 12.0618 0.652119
357 2 0.174474 -3.17713 12.5595 2.27423
111 2 0.175714 -4.55382 8.99741 6.98579
330 2 0.167812 -5.63318 12.7427 7.50339
120 2 0.157862 -1.97634 13.3894 7.4987
192 1 -0.66464 -2.06995 7.50625 4.2541
376 2 0.141306 -2.78762 7.08188 0.644343
329 2 0.169926 -3.93799 12.6909 6.72466
328 2 0.103072 -5.39763 10.7225 4.37131
204 1 -0.676905 -1.4192 11.4828 5.43833
109 2 0.142518 -2.98143 8.06041 4.03557
18 2 0.16156 -5.5801 11.6468 2.47708
195 1 -0.647021 -2.64819 13.5738 2.00891
344 1 -0.684566 -2.73249 9.02853 0.0523046
117 2 0.185602 -1.54332 13.4314 1.66115
20 1 -0.658256 -6.05138 11.4604 3.61245
345 2 0.185481 -7.09641 13.1974 7.80283
141 2 0.166113 -1.16895 11.429 6.54949
146 2 0.172612 -0.769133 12.6348 8.30665
248 3 -0.810992 3.04021 9.19457 1.68707
210 1 -0.670404 1.22339 10.3939 0.043252
25 4 1.00117 -0.847387 6.95278 5.73942
358 2 0.150277 -0.236477 12.1897 1.03519
205 1 -0.663718 0.191108 12.0117 8.26997
122 2 0.180794 -0.451319 13.0781 6.08761
361 1 -0.680568 0.342393 13.1586 0.925035
203 1 -0.660463 0.152147 9.66848 3.093
245 3 -0.827962 2.25623 7.07995 3.24581
158 2 0.146659 0.333458 10.9476 0.464764
253 3 -0.798363 1.41553 10.6664 5.44878
247 3 -0.776144 0.712891 12.3888 3.64327
49 4 1.21664 3.09634 7.58693 1.99176
50 4 1.14393 0.306204 11.0253 4.38799
83 2 0.0480286 -1.16866 8.71121 5.258
138 2 0.223024 0.590205 8.76818 3.68827
139 2 0.205379 0.587191 9.75827 2.03137
140 2 0.13498 -0.978629 9.53343 3.07725
144 2 0.166408 0.475657 11.663 7.20423
369 2 0.206476 1.09832 9.26016 0.0924993
359 2 0.140458 1.18434 13.0727 0.0988946
252 3 -0.784073 -1.32494 9.34416 8.64919
27 4 1.04213 -4.42989 8.34763 16.1876
30 4 1.24305 -3.02832 9.32854 13.5084
32 4 1.24523 -4.42989 12.0798 12.1981
148 2 0.217203 -2.53549 10.6595 10.3751
151 2 0.218947 -2.19286 12.7634 12.1501
159 2 0.193915 -3.56039 12.0076 15.3538
194 1 -0.685429 -1.86142 7.96469 12.6494
207 1 -0.648515 -3.07634 13.2475 11.6587
224 3 -0.825907 -3.41747 7.85648 9.33391
226 3 -0.825839 -3.9271 8.56731 14.6831
227 3 -0.794178 -6.55969 12.9987 15.6353
228 3 -0.817531 -5.43892 12.195 10.9043
229 3 -0.804688 -3.83973 10.2255 12.382
230 3 -0.831995 -5.08746 12.8152 13.4469
256 3 -0.778541 -2.00416 10.3681 14.2529
150 2 0.182893 -2.85758 13.5002 10.5504
211 1 -0.691215 -2.71087 12.6792 15.7259
82 2 0.0735617 -4.63229 9.23668 11.3038
161 2 0.15662 -2.39572 12.7296 16.7592
366 2 0.161593 -3.07675 12.8728 8.85949
343 2 0.167001 -3.20612 10.123 17.1267
317 2 -0.0226405 -3.52394 7.25463 11.8809
31 4 1.05118 -6.66781 12.059 16.9566
349 2 0.174097 -4.19753 12.3982 17.2448
114 2 0.1234 -1.81527 6.91432 12.2185
341 2 0.171684 -2.01663 8.67566 17.191
348 1 -0.67155 -6.92113 13.4624 8.87969
116 2 0.18006 -1.53247 8.62998 11.7802
250 3 -0.822051 3.06189 7.57105 8.74375
56 4 1.01413 -1.30508 11.7697 14.7669
149 2 0.172231 -1.29949 12.0794 10.3938
145 2 0.147261 0.975707 12.6861 8.91379
115 2 0.214008 -1.05208 8.08156 13.5467
255 3 -0.829956 0.826044 7.76788 14.9513
38 4 1.19415 0.590271 13.3312 12.6376
209 1 -0.672867 2.71026 7.41477 12.8436
57 4 1.42065 1.77564 10.5855 11.7405
94 2 0.00103075 -0.28128 11.3796 16.15
206 1 -0.663721 -1.51998 10.9681 10.6358
155 2 0.226222 2.91813 7.80173 11.8336
259 3 -0.801958 1.15352 9.65927 13.0004
258 3 -0.828364 1.05226 10.1359 10.2611
257 3 -0.821642 -0.469604 12.6386 13.6904
370 2 0.180894 1.31274 10.7489 16.3041
147 2 0.210425 -1.14738 10.6551 11.6237
53 4 1.13653 -0.231173 10.3495 9.40088
55 4 1.28136 1.7725 8.60207 14.016
157 2 0.17692 3.59187 7.13919 13.4377
88 2 0.00251408 8.48004 1.90805 4.1994
170 2 0.174384 9.77005 5.85474 3.80926
171 2 0.164708 8.0853 4.93577 3.36572
172 2 0.190038 8.36829 5.6172 5.13029
215 1 -0.663311 8.60089 5.79592 4.02688
233 3 -0.778073 7.08789 4.19507 0.773912
267 3 -0.780795 6.09212 6.51491 2.0264
354 2 0.147097 9.1996 2.13443 2.69866
356 1 -0.682175 9.82957 1.19869 2.89854
353 2 0.151376 9.89029 0.833921 4.07051
180 2 0.204892 8.27889 5.64049 6.95775
218 1 -0.687514 8.05617 6.38908 7.77535
237 3 -0.798172 6.90396 3.24293 5.90568
35 4 1.0344 7.60246 2.79211 0.103691
270 3 -0.829585 10.4925 3.6955 8.46059
45 4 1.56238 5.08032 6.6528 6.12492
40 4 1.21463 5.66277 5.03292 1.33131
272 3 -0.801093 6.78215 3.64886 8.59683
367 2 0.145996 8.72863 0.358289 6.08993
86 2 -0.00280702 7.71865 1.54335 1.29817
239 3 -0.858657 5.52576 5.27247 6.81746
67 4 1.32918 11.1209 4.53015 7.26044
59 4 1.26967 13.4056 0.832882 7.35652
274 3 -0.795489 10.6566 6.1136 6.93248
167 2 0.160145 13.5708 5.14627 6.93496
309 4 1.16719 11.8892 5.50581 1.58682
261 3 -0.78284 14.3862 2.20021 8.19274
214 1 -0.683852 12.9568 4.77729 7.84925
96 2 0.0412783 11.2804 2.11526 3.85937
316 3 -0.846466 10.9643 6.42097 0.794877
3 2 0.0338455 14.8855 2.29648 5.56708
61 4 0.956654 12.1445 2.57762 5.26898
263 3 -0.855269 12.437 1.40548 6.24605
97 2 -0.0153917 13.629 3.3214 4.74384
271 3 -0.824681 11.1864 3.73785 5.84023
168 2 0.217564 13.3823 3.72863 8.13297
308 4 1.55992 12.2449 2.65089 0.564162
58 4 1.61956 13.4239 0.329545 2.38405
314 3 -0.878219 12.6684 1.4988 1.62869
311 2 0.168325 11.4001 5.32989 3.82656
355 2 0.256741 10.8053 1.18417 2.38893
313 1 -0.690162 11.7902 6.29219 3.30021
315 3 -0.818401 11.7736 3.91223 1.55304
386 3 -0.84603 14.7474 0.849372 3.18888
95 2 -0.00510331 10.758 1.03353 8.49159
310 2 0.14983 12.8931 6.71356 3.71472
169 2 0.209469 12.8255 5.56387 8.65519
39 4 1.26728 7.67943 2.22245 11.0967
46 4 1.37395 6.56208 4.21534 13.285
63 4 1.34519 9.73412 2.23622 15.6982
68 4 1.27332 7.51575 5.35718 9.27689
71 4 1.33689 7.70211 6.60686 15.1723
72 4 1.49819 9.81205 6.35617 11.2024
212 1 -0.67397 10.0046 0.359893 15.2588
240 3 -0.796725 7.52983 3.16555 12.4106
262 3 -0.820732 9.06369 2.09358 10.3247
265 3 -0.795726 8.18036 2.48036 16.0608
273 3 -0.831105 6.1321 6.08396 9.93919
277 3 -0.793608 7.2263 5.39357 14.3149
280 3 -0.818333 8.76929 5.44565 10.2696
98 2 0.0187801 8.89442 0.73086 13.6216
278 3 -0.825525 9.01329 6.26946 16.0213
244 3 -0.830056 5.59391 5.06571 12.3383
281 3 -0.840297 10.047 5.57851 12.5957
48 4 1.30738 5.20206 6.12892 11.1736
275 3 -0.787847 10.2275 3.13993 14.3725
60 4 1.24961 10.4111 2.38152 9.45085
381 2 0.146837 4.89976 6.64559 15.2245
175 2 0.195419 11.0324 6.47462 14.7233
102 2 0.0216812 12.5959 6.66898 16.6011
162 2 0.192932 10.656 0.310234 14.2911
223 3 -0.814344 14.3001 3.86268 14.6222
333 2 0.283928 15.8369 0.293383 13.2811
305 4 1.53543 14.0991 2.63072 15.6456
347 2 0.177654 16.2312 0.322028 9.37179
306 3 -0.859656 13.0271 3.01952 16.735
173 2 0.17478 12.7104 5.48002 14.9125
264 3 -0.841857 10.6549 2.19928 17.0232
307 3 -0.781438 13.7739 1.24552 14.7844
64 4 1.06892 12.6256 3.39434 11.0725
70 4 1.32492 10.8282 4.49578 13.4806
99 2 0.0108176 12.695 4.58955 9.76537
165 2 0.19157 14.4355 1.78909 10.5703
166 2 0.198046 14.3165 2.37184 12.3456
371 2 0.21415 11.5866 1.42892 12.9499
174 2 0.23258 11.153 4.92864 15.7917
373 1 -0.661411 11.908 0.319166 12.6758
185 2 0.172244 12.1501 0.52104 9.67182
213 1 -0.683495 14.4046 2.69904 11.2385
216 1 -0.679578 11.5638 5.48791 14.9015
266 3 -0.829368 11.5524 2.35094 10.5574
276 3 -0.795423 12.2511 4.05728 12.4881
372 2 0.186672 12.6985 0.288331 11.7748
164 2 0.230412 10.586 0.0607927 16.1778
33 4 1.12992 1.64273 13.0111 2.44404
51 4 1.31956 2.9126 10.6884 0.933719
52 4 1.47963 4.08374 8.7318 7.99315
74 4 1.31764 4.99621 11.7859 4.50792
177 2 0.227669 5.18051 10.3421 2.52778
178 2 0.238285 3.78075 9.79944 3.67974
217 1 -0.667248 4.83323 10.1006 3.58093
249 3 -0.802135 2.71477 11.9439 1.94523
251 3 -0.820434 5.30996 7.84263 7.10516
284 3 -0.814343 5.17316 13.1718 3.45803
285 3 -0.803648 3.70156 11.9408 5.73039
288 3 -0.836257 6.54069 12.8801 1.33607
293 3 -0.837466 6.36258 11.4524 5.28483
176 2 0.243772 5.55868 9.44896 4.19785
105 2 0.0961818 4.73517 7.22941 2.26329
93 2 -0.0169926 2.0906 11.6922 7.87627
254 3 -0.847339 3.23892 9.55704 6.99093
54 4 1.24622 2.69817 10.9688 6.44082
385 2 0.145982 4.11914 12.9816 8.15626
268 3 -0.804956 6.18617 7.03058 4.79088
78 4 1.32469 7.51399 12.0938 6.12819
76 4 1.2946 9.04835 9.90792 7.98403
75 4 1.27615 7.50481 11.7375 0.768866
179 2 0.241232 7.32229 7.13463 7.44228
182 2 0.22677 7.09541 8.6035 8.51608
294 3 -0.82532 8.34135 11.0276 6.90846
104 2 0.00172581 10.0084 9.88871 2.60362
19 2 0.159075 9.50885 11.4118 3.71236
283 3 -0.843543 8.98043 8.26253 0.747362
101 2 -0.0272283 11.9978 8.00164 5.58136
282 3 -0.806213 8.04688 8.38527 3.30083
107 2 0.0825025 8.67081 12.9021 5.10665
100 2 0.0203863 9.65859 7.30243 4.80029
286 3 -0.838148 9.03021 12.2435 0.388465
289 3 -0.795188 9.84818 8.68987 7.14157
287 3 -0.856725 7.58283 10.4063 1.61204
69 4 0.954832 10.5239 7.52052 6.23816
73 4 1.24683 8.56697 9.19392 1.98059
295 3 -0.87972 7.1189 13.3483 6.97888
65 4 1.25419 7.20844 7.01874 3.63323
181 2 0.249966 8.97897 6.90695 8.22219
312 2 0.15491 10.9686 7.07522 3.18851
77 4 1.23381 4.45535 10.7848 10.4255
80 4 1.2679 4.21887 10.7418 15.49
106 2 -0.0181825 3.88819 12.3202 9.91497
152 2 0.24394 6.03467 8.49973 10.9512
153 2 0.223666 6.22774 7.60401 12.673
154 2 0.240041 4.64087 8.46433 12.197
380 2 0.238373 3.90554 8.19148 15.6432
189 2 0.199326 5.69229 8.83337 14.8934
190 2 0.161261 6.01242 9.63707 16.6288
208 1 -0.670466 5.53732 7.89663 11.8374
222 1 -0.668393 5.86301 9.78722 15.534
291 3 -0.829948 4.81881 9.72601 9.23948
292 3 -0.786376 3.45001 10.1358 11.5779
298 3 -0.775236 3.15661 9.60384 14.9172
299 3 -0.789817 4.85971 12.1478 14.7533
382 1 -0.700021 4.38363 7.21688 16.0949
302 3 -0.852879 5.74873 11.2742 11.1959
319 2 0.0129246 6.65138 11.2763 16.573
300 3 -0.808263 3.63196 11.0239 17.042
62 4 1.28077 5.77774 13.343 13.9661
191 2 0.203403 6.56873 10.5572 15.0357
374 2 0.203596 3.59031 13.305 12.4763
383 2 0.166026 5.12206 7.48429 16.8923
384 2 0.189542 5.73694 12.6256 8.88088
260 3 -0.84798 1.63853 12.2067 12.0043
220 1 -0.693863 5.01865 13.4483 8.69333
163 2 0.148467 1.68587 13.3704 15.2102
103 2 0.0035586 6.31821 6.97761 16.1387
66 4 1.38497 9.66627 7.28197 17.1584
290 3 -0.800457 9.97302 10.5838 9.19447
24 4 1.01624 12.3114 7.72926 10.5028
183 2 0.237193 7.08141 10.0952 9.51997
219 1 -0.682955 7.71158 9.24558 9.14995
221 1 -0.695275 9.93707 9.84775 13.6457
188 2 0.200952 9.60331 10.9251 13.5658
296 3 -0.845738 7.85812 7.85458 14.2835
303 3 -0.784832 7.36325 9.8872 12.5691
301 3 -0.777929 8.50941 11.9045 11.0022
269 3 -0.819854 10.8354 8.73524 16.5567
29 4 1.32822 9.9812 11.9186 10.081
297 3 -0.829952 9.07146 7.91056 11.7785
79 4 1.33498 8.50075 8.76835 12.9806
81 4 1.45502 7.10761 11.4598 11.9394
304 3 -0.816617 7.01872 12.7203 13.1477
279 3 -0.862502 11.0915 6.79619 10.3456
184 2 0.241205 8.21133 8.79637 10.0651
186 2 0.201654 10.7633 9.6484 12.913
187 2 0.215863 10.2651 9.52348 14.7228
318 2 0.0872156 10.4775 10.3543 16.7912
ITEM: TIMESTEP
100
ITEM: NUMBER OF ATOMS
386
ITEM: BOX BOUNDS xy xz yz pp pp pp
-7.6535000000000002e+00 1.6722200000000001e+01 -7.3464000000000000e+00
-5.1444399999999391e-02 1.3589000000000000e+01 -3.0709999999999998e-01
0.0000000000000000e+00 1.7316099999999999e+01 -5.1444399999999391e-02
ITEM: ATOMS id type q x y z
2 2 0.0381854 -0.0456258 2.86878 3.25162
21 3 -0.740278 0.269141 0.368665 4.80082
4 2 0.153782 -1.87523 4.09407 3.98704
5 2 0.154067 -0.592664 4.25613 5.22177
6 1 -0.670241 -1.13523 3.52528 4.54333
10 4 0.722223 -0.973147 2.69977 8.0449
11 2 -0.0235356 0.160438 1.46513 7.69089
12 2 -0.014416 -0.885594 3.53401 6.46848
130 2 0.178319 0.798635 4.08591 4.29436
134 2 0.182798 1.18264 5.0242 7.58226
200 1 -0.667783 1.90334 4.45928 4.0671
321 2 0.143371 1.65133 2.51096 1.88046
323 1 -0.671437 1.3499 1.90806 1.00014
325 2 0.216986 1.05323 5.5781 0.681268
326 2 0.15364 0.301787 4.12113 1.77257
327 1 -0.664611 0.198201 4.73718 0.795364
379 1 -0.687562 -2.78746 6.06623 1.08378
378 2 0.158212 -2.29086 5.84048 2.06031
320 2 0.220839 0.652627 1.09566 1.22344
324 2 0.169244 -0.888701 5.26036 0.789106
110 2 0.0941926 -2.42859 5.98996 4.86354
41 4 1.26206 2.15677 6.2338 4.63935
201 1 -0.677257 2.14813 4.94123 8.17927
22 3 -0.792728 3.25218 0.0860795 4.30108
129 2 0.13793 2.09069 4.74498 2.87571
238 3 -0.832027 3.55472 6.22156 5.44867
234 3 -0.778878 0.660663 6.51244 5.60393
235 3 -0.829809 4.32106 4.9813 0.353602
118 2 0.145282 4.02118 0.198677 1.41806
126 2 0.214655 5.28432 4.67204 4.08188
231 3 -0.769403 5.77619 1.20063 4.39318
90 2 -0.00036012 4.02181 2.54129 3.15415
236 3 -0.789793 4.609 2.85081 7.43651
133 2 0.220907 3.10534 5.1287 7.48348
362 2 0.135081 5.39631 1.15312 0.61143
128 2 0.148063 4.01121 4.22704 2.63302
127 2 0.151076 5.72135 3.1967 2.93764
322 2 0.135721 2.27753 1.643 0.25734
360 2 0.145586 7.00865 0.296167 0.305347
197 1 -0.65428 7.84237 0.553889 6.29405
131 2 0.16986 2.794 3.94687 4.56554
43 4 1.47092 5.93256 3.71896 7.14805
87 2 0.0235118 2.5894 0.758442 6.79295
199 1 -0.674371 5.14601 4.16768 3.06065
34 4 1.02662 4.45659 0.876229 3.59448
36 4 0.80025 3.68599 1.53346 7.98825
377 2 0.17168 -2.51222 5.3239 0.234044
37 4 1.02927 7.27808 1.79442 5.05506
121 2 0.184583 7.71203 0.887535 7.32989
8 2 0.07156 1.4285 4.0672 16.113
9 3 -0.773489 -1.10077 2.51394 16.2687
375 2 0.136532 -1.45205 2.9892 11.3244
15 2 0.131348 0.403755 3.7308 9.53029
26 4 0.973562 -1.73618 4.92885 13.8196
92 2 0.00397207 -0.295909 6.11147 16.75
84 2 -0.00416225 -2.61329 6.4 13.5143
85 2 -0.0247874 -1.65432 4.26483 12.2519
241 3 -0.865286 -0.335804 5.33829 14.2556
334 2 0.16744 0.0964474 1.31714 12.2728
335 2 0.184937 -0.565188 1.80638 13.9272
336 1 -0.67822 -0.243014 0.985761 13.2801
346 2 0.155761 1.1587 0.593835 9.10754
124 2 0.0904693 1.65761 2.22924 8.8056
47 4 1.18061 0.578 6.17153 15.2152
16 1 -0.664682 -0.735728 4.01545 9.29694
91 2 0.0298358 0.97043 6.07918 9.35963
242 3 -0.750802 2.06781 5.34616 15.3446
13 2 0.139875 -1.49164 3.9572 10.1736
339 2 0.147055 1.97025 2.44855 14.607
156 2 0.236043 2.11668 6.46359 13.1688
23 4 1.08778 1.30752 0.274272 14.2928
7 4 0.812441 0.328443 3.0867 17.0446
119 2 0.156715 5.6095 0.396944 9.0512
132 2 0.162733 2.23538 3.85215 8.72139
137 2 0.181197 5.31671 2.66881 15.0756
89 2 0.099429 6.64542 2.56036 9.72266
160 2 0.181098 4.67115 0.277487 15.168
198 1 -0.662158 2.62083 1.99915 9.52258
363 2 0.17405 5.4728 1.25275 16.011
202 1 -0.660573 5.19712 3.07202 13.9792
338 2 0.175071 2.78354 1.45227 15.9848
337 2 0.177273 3.55157 1.55148 14.3497
365 1 -0.703342 5.37851 1.84347 16.9466
340 1 -0.666541 2.57464 1.52458 14.892
364 2 0.182086 4.76597 2.76735 16.8621
42 4 1.11837 3.18727 5.95162 16.8064
44 4 1.10277 2.64826 6.34821 9.36797
368 2 0.165715 3.89033 0.731641 12.096
243 3 -0.772546 3.33319 5.82187 10.718
232 3 -0.814795 7.08309 0.539239 11.3739
123 2 0.180151 2.45555 1.2083 10.3174
125 2 0.175636 3.07439 2.97877 10.0116
135 2 0.158834 5.20629 2.2345 13.1542
136 2 0.196003 4.24648 3.73807 13.9435
14 2 0.189241 -0.781218 5.00213 8.77427
17 4 0.985774 -5.41309 12.8815 4.69274
28 4 1.18357 -2.41946 8.36331 8.13745
108 2 0.163398 -1.23435 7.13778 3.62053
112 2 0.140506 -3.04476 8.3782 5.76349
113 2 0.154841 -3.13857 10.1057 6.81667
142 2 0.139316 -2.00448 10.5696 5.31851
143 2 0.205568 -1.77339 12.4415 5.06868
193 1 -0.653815 -3.55847 8.99476 6.75122
331 1 -0.637552 -5.12365 12.3885 6.55078
332 2 0.138722 -5.38225 11.2507 6.23841
342 2 0.143945 -3.33088 8.78542 1.15879
225 3 -0.776779 -1.5983 6.9093 7.34739
350 2 0.143166 -4.44059 10.982 1.04103
351 2 0.169877 -5.00538 12.8083 1.27995
352 1 -0.666723 -4.66729 11.9646 0.535608
357 2 0.164962 -2.68024 12.3799 2.58927
111 2 0.19959 -4.71196 8.93631 7.01154
330 2 0.19 -5.76673 12.7853 7.4527
120 2 0.142768 -2.40271 13.3635 7.30139
192 1 -0.661853 -2.04752 7.22353 4.41683
376 2 0.16269 -2.60386 7.13223 0.773159
329 2 0.162826 -3.94622 12.4178 6.66547
328 2 0.0943755 -5.33405 10.6463 4.2807
204 1 -0.657684 -1.30463 11.4971 5.45465
109 2 0.133681 -2.95604 7.85934 4.06877
18 2 0.167106 -5.41831 11.5263 2.43508
195 1 -0.661098 -2.46567 13.4471 2.10804
344 1 -0.686452 -2.82542 9.07741 0.165581
117 2 0.178101 -1.4052 13.4827 1.6225
20 1 -0.670985 -5.90351 11.4527 3.51173
369 2 0.211954 0.986515 9.11643 0.105446
141 2 0.169139 -0.922027 11.5705 6.62195
146 2 0.171977 -0.863712 12.6662 8.33594
248 3 -0.80575 3.10596 9.21725 1.74616
210 1 -0.681984 1.19828 10.2413 0.0649787
25 4 1.03077 -0.81404 6.99798 5.98149
358 2 0.12537 -0.097638 12.1468 0.990721
205 1 -0.673439 0.157031 12.0436 8.32412
122 2 0.186365 -0.339157 13.1792 6.047
361 1 -0.677605 0.466216 13.2589 0.81494
203 1 -0.67273 -0.029852 9.61643 3.15089
245 3 -0.796172 2.30732 7.27195 3.26964
158 2 0.142426 0.439171 10.9145 0.56331
253 3 -0.794131 1.32988 10.5449 5.49267
247 3 -0.757769 0.662218 12.6468 3.63501
49 4 1.21016 3.04466 7.62659 1.89441
50 4 1.08647 0.299621 11 4.40115
83 2 0.036817 -1.12581 8.58048 5.42819
138 2 0.245645 0.705343 8.72186 3.41209
139 2 0.184453 0.237821 10.0191 2.16635
140 2 0.140655 -1.16432 9.38708 3.27946
144 2 0.169014 0.411013 11.7432 7.27127
252 3 -0.769112 -1.03818 9.39767 8.50499
246 3 -0.802157 2.31322 6.88672 0.595112
345 2 0.182559 -7.21873 13.3643 7.78244
196 1 -0.670695 -2.64708 13.541 8.48249
341 2 0.157547 -1.70971 8.82402 0.116151
27 4 1.00157 -4.23479 8.36449 16.1045
30 4 1.278 -3.10321 9.39926 13.5544
32 4 1.26037 -4.46269 12.1479 12.0259
148 2 0.205596 -2.66109 10.6733 10.4434
151 2 0.224948 -2.22278 12.8972 12.2787
159 2 0.206024 -3.61751 12.151 15.3039
194 1 -0.676043 -1.89144 7.99555 12.6526
207 1 -0.651466 -3.10189 13.339 11.6683
224 3 -0.819219 -3.45825 8.18962 9.3936
226 3 -0.865122 -3.80673 8.46907 14.6195
227 3 -0.767302 -6.38361 12.9576 15.6509
228 3 -0.838788 -5.45415 12.2277 10.7531
229 3 -0.808978 -3.85635 10.3015 12.4029
230 3 -0.773153 -5.15562 12.7336 13.2943
256 3 -0.819074 -2.16538 10.4498 14.3625
150 2 0.174953 -2.85626 13.4653 10.4496
211 1 -0.654942 -2.71964 12.816 15.6352
82 2 0.0804137 -4.68921 9.35439 11.3611
161 2 0.121449 -2.32036 12.5858 16.752
366 2 0.169824 -3.34739 12.7542 9.05071
343 2 0.161435 -3.27203 10.1846 17.2632
317 2 -0.0349847 -3.441 7.03759 11.7741
31 4 1.02424 -6.58609 11.9664 16.8883
260 3 -0.86359 1.45831 12.122 11.912
114 2 0.137434 -1.54179 6.98186 12.3808
24 4 0.994119 -4.39557 7.85908 10.6085
348 1 -0.668717 -7.06019 13.4296 8.87715
116 2 0.148893 -2.03194 8.65104 11.644
250 3 -0.843084 3.06831 7.72558 8.7737
56 4 1.04136 -1.37902 11.6996 14.8237
149 2 0.196922 -1.63278 12.2913 10.4427
145 2 0.160875 0.994514 12.4794 8.84029
115 2 0.220159 -0.995472 8.42546 13.2534
255 3 -0.822626 0.906457 7.72067 14.9119
38 4 1.18132 0.447912 13.2471 12.6344
209 1 -0.660353 2.76524 7.3544 13.0021
57 4 1.43417 1.7561 10.6502 11.6289
94 2 -0.000589585 -0.296124 11.1714 16.0888
206 1 -0.682392 -1.66571 11.1412 10.6385
155 2 0.214455 2.74788 7.71242 11.9811
259 3 -0.796678 1.10431 9.61107 12.9381
258 3 -0.80484 0.978778 9.99711 10.2995
257 3 -0.834666 -0.564907 12.6602 13.7571
370 2 0.16865 1.29526 10.5102 16.2962
147 2 0.194943 -1.23052 10.8638 11.7028
53 4 1.15272 -0.348438 10.4219 9.49916
55 4 1.29017 1.8373 8.73124 13.972
157 2 0.1748 3.84204 7.18208 13.417
349 2 0.172786 -4.07987 12.327 17.0009
102 2 0.0224372 -3.95398 6.79313 16.7598
88 2 -0.0121622 8.45567 2.11436 3.79661
170 2 0.185081 9.78011 5.8306 3.61519
171 2 0.175084 8.14454 5.02446 2.85006
172 2 0.184052 8.33039 5.32076 4.74687
215 1 -0.675014 8.63033 5.75551 3.72203
233 3 -0.831788 7.0832 4.16364 0.912375
267 3 -0.787424 6.10757 6.47848 1.92636
354 2 0.13947 9.29783 2.26901 2.69104
356 1 -0.677709 9.90962 1.23762 2.84386
353 2 0.162832 10.0494 0.899574 3.94094
180 2 0.205099 8.17852 5.57578 7.03873
218 1 -0.665106 7.96288 6.29646 7.90121
237 3 -0.776079 7.04322 3.11881 5.84053
35 4 1.02126 7.35528 2.76213 0.0627569
268 3 -0.822619 6.14093 6.77001 4.84372
45 4 1.55262 5.08495 6.49404 6.0643
40 4 1.22085 5.83505 4.97964 1.40543
272 3 -0.794361 6.84775 3.56035 8.51212
367 2 0.16325 8.90444 0.401779 5.99709
86 2 -0.00159699 7.74857 1.53452 1.31481
239 3 -0.866045 5.53994 5.21259 6.82218
67 4 1.29929 11.1885 4.55991 7.33291
59 4 1.29173 13.3534 0.826261 7.2765
274 3 -0.830439 10.7566 6.00726 6.91005
167 2 0.181531 13.4856 5.19843 6.99226
309 4 1.15589 12.0639 5.54272 1.55067
261 3 -0.77595 14.297 2.16587 8.2081
214 1 -0.686196 12.9683 4.85577 7.91366
96 2 0.0363186 11.4019 1.98921 3.86198
316 3 -0.834624 11.1048 6.4951 0.798413
3 2 0.0377124 14.8094 2.32874 5.61356
61 4 0.967579 12.1574 2.6591 5.24993
263 3 -0.835975 12.495 1.37889 6.12784
97 2 -0.026734 13.6366 3.30014 4.58901
271 3 -0.832091 11.2481 3.61183 6.03091
168 2 0.219813 13.4318 3.87129 8.2676
308 4 1.56832 12.2292 2.69453 0.495973
58 4 1.54663 13.505 0.304445 2.33591
314 3 -0.837595 12.6485 1.37894 1.41447
311 2 0.176574 11.5666 5.15204 4.01667
355 2 0.251793 10.9021 1.20851 2.18614
313 1 -0.684084 11.8418 6.02367 3.39831
315 3 -0.809642 11.9579 3.92018 1.61298
386 3 -0.879217 14.68 0.889783 3.16621
1 4 0.989968 15.6853 1.5124 4.11113
310 2 0.149831 12.8827 6.41094 3.81309
95 2 -0.00894298 10.5541 0.880722 8.61997
181 2 0.257062 8.94245 6.75343 8.25842
39 4 1.22799 7.64861 2.09248 11.0429
46 4 1.31722 6.46709 4.21155 13.2449
63 4 1.36833 9.61318 2.43587 15.7167
68 4 1.28682 7.47982 5.25748 9.38571
71 4 1.32188 7.67862 6.64811 15.1384
72 4 1.55859 9.71935 6.50312 11.2613
212 1 -0.661393 9.7529 0.575066 15.1506
240 3 -0.789348 7.47235 3.11603 12.1943
262 3 -0.825899 9.18249 2.14011 10.499
265 3 -0.791463 8.05978 2.61312 16.1044
273 3 -0.83145 6.07614 6.01912 9.83813
277 3 -0.769244 7.05931 5.24846 14.4883
280 3 -0.81514 8.69999 5.60413 10.3691
98 2 0.0190648 8.79176 0.809096 13.417
278 3 -0.853799 8.92387 6.57061 16.0366
244 3 -0.836435 5.50472 5.0639 12.2676
281 3 -0.815368 10.0589 5.7187 12.6115
48 4 1.32646 5.12131 6.05146 11.1075
275 3 -0.805827 10.1119 3.3361 14.4173
60 4 1.29547 10.4764 2.29689 9.61718
381 2 0.146699 4.93648 6.64931 15.297
175 2 0.194472 11.0722 6.58497 14.6906
169 2 0.20023 12.9237 5.65151 8.69848
162 2 0.195322 10.5261 0.527528 14.2149
223 3 -0.840259 14.1742 3.89261 14.6271
333 2 0.282221 15.6466 0.177394 13.2407
305 4 1.50322 14.1236 2.63973 15.6702
347 2 0.174204 16.0703 0.253619 9.38007
306 3 -0.855804 13.1102 2.9811 16.7934
173 2 0.180479 12.6679 5.559 15.0505
264 3 -0.856289 10.5876 2.45961 17.0089
307 3 -0.760012 13.5597 1.10298 14.8544
64 4 1.04924 12.7841 3.37271 11.1432
70 4 1.33081 10.8848 4.49868 13.5959
99 2 -0.0192181 13.0102 4.5231 9.92522
165 2 0.178322 14.1799 1.47673 11.2643
166 2 0.216615 14.512 2.33203 12.9176
371 2 0.229792 11.5785 1.49116 13.085
174 2 0.232621 11.0198 5.09948 15.9183
373 1 -0.670689 11.9366 0.457348 12.6818
185 2 0.165073 11.9953 0.26172 9.39874
213 1 -0.669559 14.3599 2.48508 11.7936
216 1 -0.679728 11.553 5.52411 15.0263
266 3 -0.809283 11.8851 2.27351 10.4943
276 3 -0.784345 12.0977 3.92356 12.5765
372 2 0.206757 12.656 0.578993 11.7952
164 2 0.211222 10.2802 0.229243 16.0815
163 2 0.152286 8.73162 0.0513401 14.9941
270 3 -0.789778 10.4863 3.49249 8.71265
33 4 1.12406 1.63954 13.1161 2.48108
51 4 1.27417 2.91085 10.5888 0.900288
52 4 1.55843 4.09896 8.72434 8.06638
74 4 1.39417 5.13474 11.8946 4.54314
177 2 0.247025 5.39383 10.6194 2.48797
178 2 0.241122 4.19125 9.74005 3.69212
217 1 -0.654889 5.15994 10.2467 3.5708
249 3 -0.758221 2.59709 11.9386 1.99495
251 3 -0.798318 5.20859 7.76602 7.15266
284 3 -0.79923 5.05596 13.0546 3.48984
285 3 -0.778575 3.74594 11.8295 5.73611
288 3 -0.814011 6.76471 12.7997 1.30537
293 3 -0.85203 6.49797 11.7815 5.30184
176 2 0.238569 6.02954 9.64322 3.99985
105 2 0.0968185 4.72069 7.24518 2.12125
93 2 -0.0226363 2.03887 11.7719 7.80023
254 3 -0.840441 3.3915 9.64703 6.94324
54 4 1.27585 2.68232 10.8793 6.43973
385 2 0.147963 3.74748 13.1145 7.9211
182 2 0.233062 6.97326 8.39452 8.57777
78 4 1.32497 7.70094 12.2062 6.22276
76 4 1.27586 9.03053 9.89439 8.11182
75 4 1.32973 7.61183 11.6693 0.715023
179 2 0.247386 7.12613 7.0642 7.70829
312 2 0.133888 11.124 6.8877 3.39821
294 3 -0.847197 8.35569 11.0918 7.16695
104 2 -0.0202018 10.1098 9.9328 2.48667
19 2 0.162393 9.70994 11.3628 3.52059
283 3 -0.867541 8.88698 8.28254 0.743369
101 2 -0.0304626 11.8719 8.01819 5.47772
282 3 -0.810027 7.92917 8.3596 3.20412
107 2 0.100902 8.80746 12.6866 5.06446
100 2 0.00752799 9.57177 7.14786 4.83088
286 3 -0.827141 9.0914 12.1459 0.464814
289 3 -0.758812 9.79345 8.49846 7.14812
287 3 -0.834078 7.63499 10.4002 1.62196
69 4 0.965369 10.4872 7.39095 6.23717
73 4 1.24983 8.63259 9.16189 1.98944
295 3 -0.878919 7.22612 13.5603 6.75807
65 4 1.21696 7.1719 6.9443 3.5504
359 2 0.157907 1.33096 13.1845 0.155362
220 1 -0.691927 4.80657 13.3637 8.41507
384 2 0.178854 5.48579 12.4328 8.49653
77 4 1.25998 4.55889 10.854 10.3358
80 4 1.27969 4.16896 10.8287 15.5554
106 2 -0.0199073 3.70732 11.9812 9.37431
152 2 0.218784 6.31031 8.28478 11.5782
153 2 0.167576 5.31337 7.5566 13.0812
154 2 0.223866 4.34936 8.3583 11.6909
380 2 0.208767 3.82329 8.18006 15.6664
189 2 0.181517 5.47496 8.94482 14.6844
190 2 0.16305 6.01643 9.5534 16.3326
208 1 -0.654136 5.2802 7.76974 11.9502
222 1 -0.675511 5.79725 9.86441 15.282
291 3 -0.850606 4.74976 9.71092 9.15316
292 3 -0.816155 3.50232 10.4341 11.4664
298 3 -0.784123 3.01973 9.82271 14.7643
299 3 -0.768291 4.56074 12.2771 14.8841
382 1 -0.694131 4.39673 7.28748 16.1207
302 3 -0.862571 5.9434 11.4137 10.8357
319 2 0.00420525 6.79405 11.0814 16.5274
300 3 -0.814351 3.86372 10.8499 17.1608
62 4 1.26511 5.71013 13.3498 13.9802