ITEM: TIMESTEP
0
ITEM: NUMBER OF ATOMS
386
ITEM: BOX BOUNDS xy xz yz pp pp pp
-7.6535000000000002e+00 1.6722200000000001e+01 -7.3464000000000000e+00
-1.7999999999999999e-02 1.3589000000000000e+01 -3.0709999999999998e-01
0.0000000000000000e+00 1.7316099999999999e+01 -1.7999999999999999e-02
ITEM: ATOMS id type q x y z
132 2 0.107317 1.96863 4.09053 8.39902
2 2 -0.0533288 -0.0533652 2.30884 1.98116
234 3 -0.795012 0.618226 6.01473 5.61833
4 2 0.0971914 -0.362318 3.4011 4.58558
5 2 0.141346 -0.231292 1.65638 5.73595
6 1 -0.652462 -0.980606 2.42901 5.17032
10 4 0.702051 -0.650624 3.04141 8.3848
1 4 0.992478 -0.753474 1.47578 3.46308
12 2 -0.00608823 -0.143169 3.32236 6.81268
34 4 1.02305 4.28654 0.998943 3.40807
376 2 0.143222 -3.30599 6.18951 2.0712
326 2 0.154573 -0.629168 5.17047 1.94029
109 2 0.165449 -2.80235 5.75027 4.43378
41 4 1.18664 2.12649 6.18752 4.4731
246 3 -0.873238 2.55842 6.52523 0.863582
327 1 -0.709487 0.0317829 4.90625 1.01776
87 2 0.00882155 2.67704 1.08962 7.86447
7 4 0.835364 0.530309 3.14368 0.426937
90 2 0.0217879 3.578 2.6472 3.07041
118 2 0.136817 4.25429 1.06554 1.12703
197 1 -0.679272 7.27275 0.504351 6.2824
238 3 -0.868911 3.63779 6.19776 5.12049
133 2 0.232634 3.3718 5.09491 7.55353
322 2 0.141973 3.26167 2.60183 0.938552
21 3 -0.758783 0.158692 0.146136 3.85543
126 2 0.156312 5.97806 3.27564 2.76192
127 2 0.153907 4.18259 3.26379 1.73673
128 2 0.176587 4.5823 4.43374 3.31896
129 2 0.174896 1.27744 4.79672 2.58348
130 2 0.128287 1.68486 3.89728 4.32632
131 2 0.166833 3.21582 4.34907 3.05111
360 2 0.15318 7.82248 0.181347 0.455976
134 2 0.261156 1.55556 5.45262 6.92844
37 4 1.03348 6.96132 1.88835 5.06494
167 2 0.259496 -2.87447 5.79281 7.64572
362 2 0.14993 5.92177 1.54679 0.45893
377 2 0.177123 -3.61279 6.70645 0.215182
199 1 -0.678437 4.98351 3.81879 2.47525
200 1 -0.660549 2.07754 4.65489 3.45307
201 1 -0.68788 2.25622 5.07846 7.86962
231 3 -0.771487 5.57926 1.42189 4.2092
325 2 0.228559 1.0335 5.51609 0.975959
236 3 -0.775501 4.89316 2.8855 7.87254
117 2 0.194071 6.04659 0.47457 1.70877
192 1 -0.688018 -1.75819 5.95665 4.19
320 2 0.172611 2.30984 0.925153 1.00688
321 2 0.127407 1.91398 2.3456 2.25365
323 1 -0.679231 2.2436 2.11359 1.16522
195 1 -0.661232 4.90434 0.343448 1.77805
110 2 0.152008 -1.18649 5.06015 3.81601
324 2 0.159332 -0.5836 4.99243 0.0112185
121 2 0.180732 7.07079 0.765267 7.33697
235 3 -0.80397 4.58342 4.96831 0.157282
25 4 1.02726 -0.781552 6.72527 5.53224
120 2 0.178006 4.79771 0.0927396 7.40485
108 2 0.128038 -1.59353 6.7728 3.35194
160 2 0.17528 5.50268 0.822725 14.7234
91 2 0.0183063 0.720473 5.97864 9.7753
9 3 -0.770988 -0.540601 2.46361 16.5304
13 2 0.136042 -1.36134 4.57446 10.43
156 2 0.214464 2.37767 6.30492 13.2438
15 2 0.0949254 0.522006 4.1133 10.0024
16 1 -0.657243 -0.561654 4.49087 9.61776
26 4 0.978007 -1.68972 4.5479 14.0763
84 2 0.0259767 -2.89406 5.6036 13.4002
47 4 1.19677 0.587249 6.2749 15.4677
42 4 1.22047 3.10101 6.01388 16.8485
85 2 -0.0277959 -1.20905 3.6937 12.6504
119 2 0.117621 4.85716 0.046803 9.36621
375 2 0.136463 -1.29186 2.67651 11.2349
123 2 0.152063 3.85458 1.34592 11.1372
124 2 0.124594 2.81886 3.01722 10.4886
125 2 0.196772 4.77228 3.00845 10.9733
14 2 0.170797 -0.619909 5.28901 8.76031
135 2 0.177628 5.87869 1.89169 13.106
136 2 0.174595 4.67241 3.13951 13.8156
137 2 0.176049 6.0399 2.38227 14.9615
44 4 1.07195 2.36014 6.25745 9.26171
368 2 0.161761 3.94318 0.553603 12.5858
198 1 -0.664269 3.88867 2.40251 10.593
202 1 -0.677704 5.71445 2.70657 13.9073
346 2 0.142064 1.31194 0.467976 9.87317
241 3 -0.842532 -0.5431 5.43772 14.7866
242 3 -0.789062 2.01414 5.48337 15.629
243 3 -0.77378 3.4457 5.91837 10.3495
364 2 0.190206 5.65201 3.1581 16.6907
8 2 0.0696761 1.92079 3.4792 17.2056
335 2 0.129864 0.507594 1.76321 13.3536
336 1 -0.646316 -0.146622 0.820116 13.4586
337 2 0.150916 2.32366 1.98214 14.6578
338 2 0.187073 3.53227 0.695653 15.3441
339 2 0.199463 2.24601 1.65423 16.5192
340 1 -0.652352 2.47391 1.21546 15.4644
363 2 0.156994 6.71598 1.56072 16.1681
92 2 0.0173376 0.0657187 6.43782 17.1496
334 2 0.217612 -0.292448 0.148794 12.5029
23 4 1.11301 1.21089 0.0507889 14.5766
36 4 0.787587 3.92321 1.97246 8.79053
365 1 -0.677014 6.30016 2.17084 16.9938
11 2 -0.0288472 0.465381 1.77808 8.66646
17 4 1.00387 -5.57929 12.7109 4.41975
342 2 0.147921 -2.02267 9.657 2.02486
20 1 -0.688117 -5.75202 10.9503 3.58889
254 3 -0.8504 2.89856 9.61184 6.69612
366 2 0.150113 -3.9615 12.6851 8.3187
250 3 -0.765441 2.55399 7.708 8.59423
225 3 -0.76825 -1.75853 6.92089 6.8663
28 4 1.19019 -2.63024 8.433 7.56622
49 4 1.23885 2.83166 7.64105 2.00334
50 4 1.05244 -0.0737023 11.1967 4.14711
83 2 0.0109719 -0.608446 8.30759 4.79959
19 2 0.140916 -4.78204 10.5865 3.08411
111 2 0.154025 -4.77823 9.43247 6.26261
112 2 0.110904 -3.14871 8.84777 5.33671
113 2 0.181688 -3.16641 10.471 6.504
138 2 0.151543 -0.372514 9.99598 2.11713
139 2 0.113051 -1.46412 9.11087 3.44436
140 2 0.263196 0.436356 8.5522 3.16149
141 2 0.177139 -1.46364 11.4019 6.29684
142 2 0.144174 -2.25552 10.6555 4.61699
143 2 0.20124 -1.94756 12.5843 4.86844
144 2 0.163656 0.0380695 11.7 7.14605
102 2 0.112261 -3.39402 8.79728 0.722144
146 2 0.157104 -1.36318 12.5973 8.28947
248 3 -0.858257 3.05221 9.15041 1.49383
193 1 -0.678734 -3.62857 9.42527 6.28014
203 1 -0.661143 -0.374624 9.40711 3.1205
204 1 -0.662694 -1.64464 11.5037 5.16097
205 1 -0.671281 -0.27756 12.0047 8.21068
252 3 -0.776031 -1.54664 9.33406 8.20394
329 2 0.158612 -6.57603 13.3689 6.47221
245 3 -0.821383 1.84212 7.4447 3.24478
158 2 0.152405 0.701444 11.2991 0.251307
247 3 -0.743359 0.211635 12.7581 3.03056
122 2 0.201468 -0.759159 13.3229 5.89212
253 3 -0.830993 1.05148 11.0171 5.1937
345 2 0.176804 -6.3041 13.1343 8.1522
330 2 0.17791 -5.69624 11.5467 6.38808
331 1 -0.639736 -5.59008 12.703 6.30609
332 2 0.173545 -4.68296 13.1219 6.95247
369 2 0.191108 0.810387 9.39694 0.191456
343 2 0.115282 -3.94488 10.2514 1.99986
344 1 -0.659993 -3.05538 9.83296 1.24467
349 2 0.174109 -4.34625 13.1818 0.150024
350 2 0.146512 -4.2405 11.4599 0.942476
351 2 0.178384 -5.42808 12.8002 1.75945
352 1 -0.708243 -4.86728 12.4271 0.800224
357 2 0.193998 -2.81962 12.8745 1.85984
341 2 0.142552 -2.70908 10.5663 0.435019
93 2 -0.00377309 1.58117 11.4198 7.91329
54 4 1.24227 2.20528 10.9705 6.32894
22 3 -0.760105 -4.28948 13.5745 4.0222
196 1 -0.661393 -3.18312 13.5662 8.33848
155 2 0.192469 2.65547 7.63493 11.8739
27 4 1.01588 -4.72225 9.13776 16.6044
30 4 1.202 -2.93303 9.62707 13.9441
31 4 1.0757 -6.82365 12.048 17.2325
32 4 1.2442 -4.71848 11.9509 12.3825
348 1 -0.658427 -6.78043 13.4619 9.22728
53 4 1.11117 -0.655627 10.3605 9.24894
55 4 1.24769 1.85179 8.61124 13.7973
56 4 1.01881 -0.809218 12.0161 14.4994
57 4 1.45337 1.61095 10.3738 11.2954
260 3 -0.853156 1.3734 12.0007 11.2794
370 2 0.193258 1.48239 10.3653 16.1641
94 2 -0.0109869 0.235053 11.5799 15.8075
318 2 -0.0479637 -5.73286 10.6214 16.8467
114 2 0.138275 -2.8851 7.69678 12.5365
115 2 0.167993 -2.12764 7.41861 14.3694
116 2 0.223031 -1.08406 8.22439 13.0344
147 2 0.19179 -2.4342 9.87878 10.6465
148 2 0.157339 -2.36264 11.8327 10.2669
149 2 0.226989 -1.25521 11.2025 11.6179
150 2 0.127058 -3.48777 13.1468 10.8606
151 2 0.214051 -2.30472 12.5864 12.3167
159 2 0.197452 -3.03296 12.736 14.6815
210 1 -0.676642 0.915397 10.3455 17.2056
161 2 0.137107 -1.84295 13.2011 16.2532
194 1 -0.684945 -2.12516 8.0264 13.4226
206 1 -0.640428 -1.82758 10.9143 10.6857
207 1 -0.66575 -3.30681 13.1239 12.052
209 1 -0.686086 2.87935 7.24974 12.9389
211 1 -0.65937 -2.06636 13.317 15.1399
157 2 0.182137 3.94491 7.41906 13.2519
224 3 -0.783189 -3.69692 8.17079 8.92684
226 3 -0.828085 -3.93159 9.29655 15.2843
227 3 -0.755319 -6.99154 12.799 15.8953
228 3 -0.80829 -6.02922 11.8509 11.2114
229 3 -0.748937 -3.95194 10.3246 12.4778
230 3 -0.817478 -5.39202 12.6119 13.6248
259 3 -0.784393 1.04225 9.58775 12.8545
317 2 0.0813809 -4.37448 9.21231 11.4007
255 3 -0.809833 0.943556 7.78019 14.8699
256 3 -0.787595 -1.86142 10.794 14.1606
257 3 -0.845389 -0.0518931 12.7459 13.2454
258 3 -0.782049 0.687392 9.84718 10.0123
38 4 1.30026 0.848314 13.2182 12.1205
175 2 0.177799 -3.73505 6.95769 14.2597
145 2 0.179084 0.478764 12.6209 8.74562
35 4 1.11305 8.03637 3.43356 0.190407
59 4 1.27869 13.6901 0.929015 7.61181
61 4 1.01547 12.5174 2.61838 5.45977
354 2 0.142081 9.6576 1.84589 4.38431
67 4 1.32482 11.4589 4.74383 7.26934
168 2 0.208235 13.7042 4.03161 8.27412
65 4 1.31564 7.04898 6.66266 3.6375
96 2 0.0234193 11.6329 1.94074 4.12163
97 2 0.0149618 13.9178 2.86022 4.51292
58 4 1.5263 13.3547 0.0867232 2.54401
359 2 0.176934 9.41819 1.17889 0.800536
379 1 -0.674033 13.2146 5.88112 0.962348
170 2 0.18735 9.22947 5.30458 3.42632
171 2 0.162958 7.68251 4.34494 2.99963
172 2 0.203144 7.9966 4.72103 4.81077
356 1 -0.684907 9.88969 1.06466 3.68408
214 1 -0.677249 13.17 5.11939 8.19984
215 1 -0.674764 8.11463 5.07941 3.72202
88 2 -0.00201633 8.21554 2.01073 3.77193
233 3 -0.831692 7.30743 4.68955 0.798896
270 3 -0.792957 10.9176 3.53743 8.29248
312 2 0.125246 11.9698 6.40148 3.74036
263 3 -0.863395 12.7309 1.61321 6.5577
267 3 -0.836851 5.81642 6.54594 2.11502
378 2 0.196062 13.9711 5.0313 0.643936
271 3 -0.847152 11.84 3.99879 5.84689
45 4 1.55821 4.98683 6.46421 5.94068
274 3 -0.829158 10.6984 6.14962 7.12903
237 3 -0.820956 6.74215 3.22735 5.87247
308 4 1.50297 12.4025 2.12648 0.513833
309 4 1.17487 11.5247 5.09207 1.36335
310 2 0.185742 10.932 4.91138 3.91814
272 3 -0.804852 7.32136 3.88023 8.36149
180 2 0.225383 8.09325 6.22618 6.95806
313 1 -0.693135 11.1393 5.83125 3.27637
314 3 -0.849932 12.4082 0.92671 1.50981
315 3 -0.798183 11.6187 3.49113 1.37458
316 3 -0.813731 10.4504 5.89078 0.567615
261 3 -0.775414 14.6862 2.32768 8.47765
386 3 -0.851692 14.4703 1.07305 3.13003
355 2 0.211789 10.7414 1.38226 3.01141
218 1 -0.659057 7.88252 6.73138 7.93803
239 3 -0.847346 5.48049 5.20869 6.91353
86 2 0.00449229 7.57627 2.07578 1.28475
367 2 0.147816 8.37465 0.334797 6.07783
311 2 0.180698 10.2364 6.46024 3.10207
40 4 1.2643 5.75711 5.20881 1.30125
353 2 0.209863 10.2561 0.0985321 4.3394
43 4 1.53732 6.15535 3.86518 7.26572
361 1 -0.668871 8.89917 0.150162 0.700169
268 3 -0.848143 6.21707 6.75665 4.94306
3 2 0.152563 14.8921 2.80073 5.84915
306 3 -0.836744 13.8963 2.63585 0.0879013
95 2 -0.00010614 10.931 0.838351 8.54124
39 4 1.28346 7.96886 2.33976 10.8123
46 4 1.32922 6.62296 4.17586 13.1054
371 2 0.231926 12.5456 1.94815 13.6447
60 4 1.32333 10.7505 2.38849 9.38945
63 4 1.34462 10.0129 2.60693 15.5195
64 4 1.09647 13.0686 3.28549 11.1099
68 4 1.35412 7.77253 5.50334 9.35424
70 4 1.35323 11.3433 4.82253 13.4333
305 4 1.44192 14.5194 2.30826 16.0567
72 4 1.43133 9.97556 6.54521 11.3411
99 2 0.01329 13.6608 4.42762 9.99072
166 2 0.181479 14.5584 2.25915 12.9816
162 2 0.178925 9.68649 0.164012 14.817
163 2 0.156741 9.22108 1.7499 13.495
164 2 0.171215 8.06099 1.15378 14.9767
165 2 0.202589 14.2608 1.24223 11.3705
232 3 -0.858469 7.72632 0.800729 11.1341
374 2 0.186687 10.9249 0.863949 13.8191
169 2 0.24207 12.7483 5.66683 9.12617
307 3 -0.771118 14.196 0.824481 15.2571
98 2 0.00899234 9.61869 0.114539 12.9397
185 2 0.174172 12.1718 0.222428 9.88996
212 1 -0.685365 9.09756 1.1368 14.5339
213 1 -0.677316 14.5037 2.21802 11.8077
216 1 -0.687007 12.26 6.10479 14.5233
223 3 -0.840253 14.3568 3.51984 14.9932
240 3 -0.83035 7.50811 3.34203 12.018
372 2 0.196565 12.1524 0.799596 12.2087
262 3 -0.843696 9.4515 2.39483 10.1669
264 3 -0.774912 11.2117 1.74293 16.4234
265 3 -0.830304 8.89811 3.12589 16.5145
266 3 -0.830154 11.9814 2.38736 10.4305
273 3 -0.837981 6.35284 5.78489 10.0539
275 3 -0.799805 10.7185 3.6477 14.4677
276 3 -0.809949 12.5626 4.09003 12.4009
277 3 -0.798173 7.23308 5.14665 14.3173
373 1 -0.664846 12.0351 0.982773 13.3253
71 4 1.33516 7.52805 6.5531 14.992
280 3 -0.835476 9.01847 5.688 10.2069
281 3 -0.81894 10.2851 5.69941 12.6831
173 2 0.186381 12.6599 5.33549 15.2712
89 2 0.0973573 6.92312 2.66446 9.44101
279 3 -0.804903 11.5202 6.77257 10.5306
48 4 1.32923 5.16597 6.13148 11.0411
333 2 0.265113 15.6311 0.89993 14.1123
347 2 0.188739 16.1561 0.280305 9.18879
174 2 0.224112 11.3087 6.57495 15.0113
381 2 0.155824 4.85687 6.6702 15.2735
244 3 -0.787144 5.46407 5.17616 12.2633
278 3 -0.852025 8.83531 6.69732 15.7773
33 4 1.0868 1.69736 13.0804 2.50044
181 2 0.213152 8.82863 7.31253 8.34762
184 2 0.23651 6.56914 10.5421 8.20054
18 2 0.149973 10.5928 10.2801 4.41038
219 1 -0.658988 7.15692 9.61712 8.05118
385 2 0.162985 4.64489 12.9849 8.15193
69 4 0.997822 10.6349 7.35721 6.1706
73 4 1.25406 8.75565 8.76439 2.33224
74 4 1.30069 4.81105 11.8124 4.89676
75 4 1.2929 7.48923 11.2288 1.23488
76 4 1.26259 8.95193 9.93564 7.53395
78 4 1.31601 7.63435 12.2662 6.08074
289 3 -0.79814 9.80721 8.43561 6.77567
183 2 0.247803 6.59754 8.98547 7.34003
328 2 0.174204 10.1324 11.1249 2.81236
104 2 -0.0276459 10.3864 9.26452 2.74802
51 4 1.30639 2.90888 10.5409 0.82391
107 2 0.100707 8.4449 12.8933 4.69357
176 2 0.216665 5.00398 9.40905 4.83046
177 2 0.214393 5.05086 10.1654 3.09169
178 2 0.239103 3.42939 9.90992 3.93652
179 2 0.214729 6.91135 7.40552 7.99476
52 4 1.49442 3.70915 8.69414 7.76107
288 3 -0.844211 6.65635 12.336 1.94246
217 1 -0.671075 4.49188 10.1291 4.05385
293 3 -0.819172 6.29239 11.554 5.71231
294 3 -0.834276 8.75434 11.2389 6.59824
249 3 -0.747778 2.61888 11.7575 2.0666
251 3 -0.82547 4.82723 7.79203 6.95649
101 2 -0.0377336 12.2025 7.78509 5.62257
282 3 -0.831758 8.26362 7.65951 3.47355
283 3 -0.826683 8.83703 8.0455 0.902365
284 3 -0.800885 4.97632 13.0729 3.91912
285 3 -0.804258 3.38271 12.0059 5.99544
286 3 -0.847938 8.90735 11.782 0.691861
287 3 -0.847439 7.84681 9.98003 2.17319
295 3 -0.878716 7.32552 13.43 7.05112
105 2 0.108937 4.47146 7.39076 2.44138
100 2 0.00852475 10.2021 6.93431 4.57494
358 2 0.198788 2.16828 13.0751 0.00482537
220 1 -0.688919 5.32197 13.4831 8.93989
29 4 1.28481 9.53897 11.8871 10.1748
290 3 -0.798068 9.62763 10.3701 8.89792
103 2 0.00940152 6.22337 6.83027 16.1185
77 4 1.2755 4.3532 10.6256 10.1004
79 4 1.31231 8.51793 8.96489 12.975
80 4 1.26934 4.2264 10.6971 15.3897
81 4 1.51436 6.98526 11.4094 11.6678
66 4 1.49772 9.58882 7.18257 17.1414
291 3 -0.833216 4.5863 9.57256 8.89422
106 2 -0.0217448 3.92108 12.1317 9.45285
152 2 0.211587 5.9808 8.34232 10.7134
153 2 0.263238 6.25288 7.77472 12.5625
154 2 0.209113 4.50187 8.48614 11.8826
24 4 0.967063 11.9014 8.2232 10.0189
382 1 -0.680103 4.323 7.34406 16.0667
298 3 -0.794418 3.16251 9.72112 14.6065
186 2 0.199693 9.58516 10.6385 14.4921
187 2 0.228397 10.7996 9.4048 13.8321
188 2 0.196509 9.59845 8.85702 15.0498
189 2 0.191307 5.61085 9.04671 14.5607
190 2 0.161678 6.02613 8.97793 16.4939
191 2 0.171778 6.53049 10.5187 15.491
208 1 -0.680681 5.50729 7.87958 11.6075
221 1 -0.711483 9.82948 9.54309 14.2103
222 1 -0.669993 5.8111 9.64626 15.6115
269 3 -0.885496 10.9003 8.1393 16.8793
182 2 0.172939 7.38248 9.11477 9.05589
383 2 0.154985 4.98889 7.77151 17.0089
292 3 -0.857968 3.13686 10.1221 11.0727
296 3 -0.812296 7.39314 7.71835 13.8908
297 3 -0.833815 9.31982 8.11543 11.8559
82 2 0.0843639 10.5815 9.21198 9.56755
299 3 -0.751195 4.59862 12.2459 14.868
300 3 -0.787239 3.69087 10.9132 16.9853
301 3 -0.85889 8.04946 12.1166 10.6885
302 3 -0.862292 5.6607 10.9983 10.8711
303 3 -0.837574 7.6882 10.1655 12.4496
304 3 -0.778439 6.49531 12.4986 13.0803
319 2 0.0262501 6.2265 10.7062 17.2012
62 4 1.27628 5.76914 13.3447 14.1569
384 2 0.201645 6.2869 12.8011 9.16629
380 2 0.229112 3.79724 8.225 15.6248
ITEM: TIMESTEP
100
ITEM: NUMBER OF ATOMS
386
ITEM: BOX BOUNDS xy xz yz pp pp pp
-7.6881322000000001e+00 1.6722200000000001e+01 -7.3810321999999999e+00
-1.7999999999999999e-02 1.3589000000000000e+01 -3.0709999999999998e-01
0.0000000000000000e+00 1.7316099999999999e+01 -1.7999999999999999e-02
ITEM: ATOMS id type q x y z
132 2 0.123944 2.00902 4.04159 8.62207
2 2 -0.0584388 -0.122368 2.12387 2.01247
234 3 -0.749544 0.739862 6.04979 5.63417
4 2 0.0989411 -0.281536 3.385 4.40634
5 2 0.142774 -0.0982162 1.77097 5.69637
6 1 -0.651449 -0.892735 2.5242 5.08265
10 4 0.717284 -0.575485 2.88371 8.48384
1 4 1.02195 -0.725582 1.33326 3.53391
12 2 -0.0165414 -0.0954276 3.0349 6.89173
34 4 1.0343 4.20002 0.921576 3.29769
376 2 0.120425 -3.11217 6.17089 1.76765
326 2 0.157982 -0.364794 5.12034 2.03937
109 2 0.196183 -2.80206 5.55478 5.00175
41 4 1.2003 2.04547 6.02219 4.47048
246 3 -0.852791 2.67833 6.6239 0.871071
327 1 -0.705598 0.0442078 4.97943 1.02195
87 2 0.0166007 2.71093 0.948811 7.82249
7 4 0.818519 0.328645 3.0582 0.483803
90 2 0.0107934 3.55116 2.42651 3.24429
118 2 0.109606 4.45049 0.810882 1.10225
197 1 -0.639472 7.16937 0.57071 6.28403
238 3 -0.802172 3.56895 6.17772 5.21176
133 2 0.243517 3.40571 5.05115 7.70863
322 2 0.139843 3.13313 2.53981 0.887456
21 3 -0.789953 0.189168 0.121688 3.96007
126 2 0.138157 5.7571 2.81179 2.18777
127 2 0.156047 3.99917 3.36756 1.67807
128 2 0.162879 4.69825 3.89951 3.42436
129 2 0.158033 1.26754 4.55735 2.571
130 2 0.128487 1.67683 3.76705 4.41346
131 2 0.167448 3.07395 4.07566 3.1011
360 2 0.135776 7.55675 0.365153 0.767427
134 2 0.236122 1.61323 5.37361 7.2648
37 4 1.04667 6.70362 1.7494 4.95672
167 2 0.261513 -2.71165 5.81516 7.64977
362 2 0.133883 5.95029 1.46644 0.604059
8 2 0.0630234 2.00882 3.60049 0.0728258
199 1 -0.713728 4.95191 3.57035 2.34938
200 1 -0.686851 2.04511 4.42436 3.46502
201 1 -0.687618 2.34417 4.9984 8.10736
231 3 -0.818577 5.38615 1.2467 4.27842
325 2 0.227257 1.05722 5.46853 0.895382
236 3 -0.7817 4.80316 2.86856 7.75961
117 2 0.18282 6.15804 0.316262 2.07952
192 1 -0.669795 -1.87312 5.98776 4.44406
320 2 0.180267 2.17339 0.9314 0.971344
321 2 0.143655 1.94519 2.24101 2.3033
323 1 -0.688243 2.17257 2.04992 1.2384
195 1 -0.633967 5.09699 0.0579331 1.86701
110 2 0.149301 -1.14993 5.12041 4.11296
43 4 1.51119 6.04336 3.87822 7.11034
121 2 0.192365 6.64815 1.05771 7.21583
324 2 0.147348 -0.716394 4.99477 0.0931571
3 2 0.160723 -1.60831 3.05984 5.79369
196 1 -0.654637 4.23071 0.0117144 8.31994
14 2 0.136754 -0.366604 5.1248 8.4867
108 2 0.123338 -2.23408 6.76088 3.65177
160 2 0.163181 5.37931 1.01207 14.728
91 2 0.0259839 0.786576 5.99858 9.92817
9 3 -0.778958 -0.560432 2.32371 16.533
13 2 0.141592 -0.942058 4.894 10.4017
156 2 0.195083 2.01459 6.60295 12.9091
15 2 0.106304 0.775032 4.02184 10.026
16 1 -0.641871 -0.277391 4.43148 9.61515
26 4 0.981679 -1.6695 4.6169 14.181
84 2 -0.0134417 -2.7612 5.83305 13.7127
47 4 1.24611 0.634859 6.22043 15.3869
42 4 1.27015 3.23472 6.04642 16.844
85 2 -0.0301751 -1.28887 4.01997 12.6548
119 2 0.0888672 5.21766 0.539591 9.46
375 2 0.14348 -1.08906 3.10513 11.3538
123 2 0.156668 3.74255 1.39023 11.1408
124 2 0.122191 2.67938 2.89092 10.4268
125 2 0.212191 4.51946 3.13618 10.9811
334 2 0.2025 -0.11935 0.199515 12.7681
135 2 0.175253 5.84992 1.77424 13.3418
136 2 0.181914 4.452 3.09343 13.5346
137 2 0.160611 5.71221 2.84333 14.8751
44 4 1.11517 2.41778 6.39689 9.37718
368 2 0.160111 3.66568 0.563914 12.431
198 1 -0.67166 3.76121 2.42512 10.5425
202 1 -0.676528 5.55264 2.81928 13.7594
346 2 0.146621 1.39197 0.195995 9.88962
241 3 -0.864197 -0.380376 5.29148 14.6557
242 3 -0.79898 1.97104 5.53557 15.7471
243 3 -0.796506 3.37313 6.14657 10.5312
364 2 0.187326 5.19497 2.89939 16.7065
11 2 -0.0297644 0.60702 1.68625 9.0553
335 2 0.165252 -0.0456744 1.92303 13.2242
336 1 -0.686193 -0.189504 0.929253 13.5768
337 2 0.165702 2.10134 2.22675 14.739
338 2 0.187208 3.50306 0.961457 15.2481
339 2 0.186716 2.13213 1.68413 16.5978
340 1 -0.633833 2.40234 1.34523 15.4042
363 2 0.160891 6.49447 1.67036 16.1491
92 2 0.0273519 -0.0144566 6.37562 16.9888
232 3 -0.820272 7.47955 0.596753 11.1207
23 4 1.11648 1.18848 0.106152 14.6624
36 4 0.808412 3.91261 1.96926 8.69972
365 1 -0.689468 6.08181 2.22378 17.0507
235 3 -0.806021 4.28613 5.01779 17.3021
244 3 -0.855219 5.43279 4.9807 12.2115
17 4 1.0107 -5.57144 12.6332 4.40951
342 2 0.171481 -2.0785 9.85076 1.96053
20 1 -0.658417 -5.54913 10.8204 3.66286
254 3 -0.83047 2.95603 9.62318 6.60165
120 2 0.174143 -2.55658 13.4121 7.36981
250 3 -0.778522 2.54518 7.7475 8.59769
225 3 -0.754343 -1.81098 7.1551 6.84463
28 4 1.27967 -2.63164 8.53868 7.82162
49 4 1.25811 2.88265 7.59856 2.10497
50 4 1.06658 -0.240739 11.1572 4.22161
83 2 0.00425744 -0.448112 8.43165 4.82483
19 2 0.151065 -5.07542 10.8699 2.5968
111 2 0.168474 -4.83148 9.31129 6.5047
112 2 0.125128 -3.17273 8.90454 5.56051
113 2 0.175383 -3.29021 10.5386 6.62695
138 2 0.178268 -0.519233 9.86988 2.01865
139 2 0.118236 -1.351 8.96953 3.48111
140 2 0.244683 0.467082 8.86511 3.29143
141 2 0.175261 -1.7353 11.3603 6.11768
142 2 0.13198 -2.45657 10.8592 4.30386
143 2 0.237394 -2.28294 12.7564 4.95588
144 2 0.196615 0.227424 11.9285 7.20636
102 2 0.0480914 -3.26327 8.45723 0.683575
146 2 0.153971 -1.30581 12.8732 8.31466
248 3 -0.823695 2.78098 9.11094 1.65615
193 1 -0.665006 -3.68733 9.44924 6.49749
203 1 -0.673935 -0.443654 9.50601 3.08786
204 1 -0.660473 -1.83975 11.7002 5.06918
205 1 -0.652104 -0.116332 12.2426 8.24987
252 3 -0.809713 -1.57836 9.59063 8.20349
329 2 0.181401 -6.50076 12.9302 6.4355
245 3 -0.797662 1.88229 7.33668 3.33494
158 2 0.16069 0.692453 11.5291 0.201469
247 3 -0.731762 0.213715 12.2557 3.11106
122 2 0.190942 -0.712344 13.1147 5.8773
253 3 -0.784851 0.971388 11.0517 5.55198
345 2 0.175102 -6.21888 13.0563 8.05462
330 2 0.166411 -5.45057 11.3079 6.17666
331 1 -0.657722 -5.44803 12.5016 6.22431
332 2 0.168924 -4.5223 12.942 6.89502
369 2 0.190952 0.619863 9.65151 0.0828788
343 2 0.137739 -3.92271 10.2659 1.92444
344 1 -0.661301 -3.03851 9.98671 1.28207
25 4 0.964809 -0.808322 6.93779 5.51875
350 2 0.138441 -4.22165 11.5768 0.972834
351 2 0.177211 -5.66178 12.9115 1.64088
352 1 -0.677751 -4.97501 12.5124 0.715591
357 2 0.188899 -2.3694 12.5874 1.517
341 2 0.143158 -2.83193 10.758 0.454257
93 2 -0.004255 1.74924 11.6516 7.98471
349 2 0.174574 -4.4565 13.3726 0.192865
22 3 -0.753112 -4.32671 13.4373 3.80028
105 2 0.0957487 4.39201 7.14281 2.68704
18 2 0.146379 -5.18048 9.99632 4.34999
366 2 0.158922 -3.76258 12.8074 8.62216
155 2 0.24967 2.54961 7.85982 11.6688
27 4 1.00016 -4.49337 9.11695 16.6901
30 4 1.19187 -2.97666 9.68845 13.9191
38 4 1.26161 0.972045 13.2058 12.1138
32 4 1.27759 -4.80813 11.8022 12.3213
348 1 -0.659122 -6.71783 13.3383 9.13683
53 4 1.12483 -0.655361 10.5498 9.23007
55 4 1.19921 1.71 8.80653 13.7958
56 4 1.00223 -0.94353 12.1798 14.5396
57 4 1.42873 1.67396 10.3658 11.2293
258 3 -0.780461 0.693292 9.95244 9.86636
370 2 0.180601 1.16269 10.5505 15.9211
94 2 -0.00354664 0.0660072 11.9909 15.9628
318 2 -0.0264454 -5.67883 10.4859 16.9794
114 2 0.139051 -2.67466 7.93542 12.394
115 2 0.145799 -2.33122 7.50333 14.2552
116 2 0.235715 -0.955907 8.27301 13.1694
147 2 0.17058 -2.90134 10.8265 10.2692
148 2 0.185912 -1.6894 12.1513 10.693
149 2 0.207721 -1.58341 10.3558 11.4976
150 2 0.15443 -3.60211 13.2436 10.7706
151 2 0.197939 -2.56008 12.6574 12.2171
159 2 0.196854 -3.08713 12.8805 14.8467
210 1 -0.676145 0.811271 10.5738 17.1094
161 2 0.14649 -1.91184 13.4018 16.3181
194 1 -0.681811 -2.07678 8.19728 13.3199
206 1 -0.674184 -1.85964 11.0274 10.6173
207 1 -0.665136 -3.52109 13.1269 11.8804
209 1 -0.66798 2.56201 7.53692 12.7296
211 1 -0.678885 -2.09221 13.4841 15.1918
157 2 0.150028 3.58913 7.57224 13.2907
224 3 -0.861086 -3.64129 8.06518 8.88036
226 3 -0.808248 -3.75735 9.40848 15.389
227 3 -0.779115 -6.8506 12.8765 15.8933
228 3 -0.844756 -5.94203 11.8027 11.1633
229 3 -0.792719 -4.19089 10.2533 12.4535
230 3 -0.775661 -5.23025 12.5413 13.7349
259 3 -0.803774 0.999537 9.60749 12.5759
317 2 0.0849263 -4.39977 9.1953 11.3056
255 3 -0.798745 0.801044 7.78418 14.8632
256 3 -0.758654 -1.84077 10.7458 14.3253
257 3 -0.803899 0.00517704 12.7095 13.3105
145 2 0.186542 0.608079 12.6855 8.99596
35 4 1.09698 7.79154 3.4268 0.148392
59 4 1.30555 13.8736 0.960947 7.74406
61 4 0.997531 12.6723 2.54637 5.4801
354 2 0.128011 9.55537 1.81337 4.54733
67 4 1.32283 11.617 4.65907 7.36869
168 2 0.226807 13.8437 4.10273 8.38814
65 4 1.29096 7.13817 6.58606 3.66224
96 2 0.0147783 11.4457 1.8458 4.48086
97 2 0.0355525 13.9707 2.73212 4.41938
58 4 1.50233 13.2498 0.0221598 2.58074
359 2 0.154881 9.19821 1.41301 1.1826
379 1 -0.680081 13.2978 5.57564 0.741303
170 2 0.173167 9.3448 5.2768 3.64379
171 2 0.146692 7.76478 4.13609 3.21835
172 2 0.194482 7.95809 4.78026 5.02179
356 1 -0.678835 9.79661 0.894502 3.88994
214 1 -0.679222 13.3452 5.06292 8.21389
215 1 -0.660956 8.12296 4.99659 3.87115
88 2 -0.00984306 8.14897 1.79939 3.82889
233 3 -0.807833 7.24046 4.79587 0.717521
270 3 -0.835898 10.8831 3.62524 8.33474
312 2 0.133133 12.0501 6.36517 3.86045
263 3 -0.862252 13.0161 1.5446 6.61911
267 3 -0.827448 5.79419 6.41111 2.25156
378 2 0.223169 13.8791 4.62108 0.483112
271 3 -0.825044 12.2629 4.01963 5.88096
45 4 1.53423 5.06951 6.5511 6.01421
274 3 -0.822431 10.8175 6.04465 7.096
237 3 -0.823741 6.62554 3.1734 5.80155
308 4 1.47547 12.4285 2.10503 0.538566
309 4 1.11878 11.6551 5.05481 1.45223
310 2 0.177213 10.8296 4.96718 3.80239
272 3 -0.803746 7.18402 3.80329 8.32236
180 2 0.20839 8.02722 6.10357 6.95903
313 1 -0.690235 11.2036 5.86621 3.3054
314 3 -0.826172 12.3178 0.821212 1.48282
315 3 -0.795111 11.6715 3.42548 1.4076
316 3 -0.776153 10.5041 5.87637 0.578678
261 3 -0.788341 14.7104 2.31006 8.60237
386 3 -0.845027 14.4792 0.943391 3.28631
355 2 0.204927 10.6033 1.12068 3.14114
218 1 -0.663133 7.90875 6.66326 7.92226
239 3 -0.88975 5.45516 5.27812 6.80412
86 2 -0.0175709 7.38883 2.18732 1.40386
367 2 0.152375 8.34482 0.49774 6.22307
311 2 0.184361 10.4181 6.636 3.04844
40 4 1.21819 5.72688 5.11123 1.4198
353 2 0.245035 10.2301 0.153639 4.66243
95 2 0.00563031 11.0275 1.0543 8.45889
361 1 -0.674528 8.75093 0.361276 0.80178
306 3 -0.843157 14.0168 2.52443 0.0846585
39 4 1.25741 8.00522 2.13341 10.6898
46 4 1.30182 6.5979 4.16862 12.9763
371 2 0.230053 12.8511 1.92264 13.5945
60 4 1.26961 10.8705 2.47376 9.41683
63 4 1.4124 10.0611 2.71134 15.664
64 4 1.0823 13.17 3.46973 11.1983
68 4 1.29992 7.51292 5.45671 9.31812
70 4 1.39065 11.2493 4.78578 13.5104
305 4 1.44454 14.5388 2.25749 16.0485
72 4 1.48435 9.9785 6.43503 11.3214
99 2 -0.000111682 13.9068 4.62047 10.089
166 2 0.169942 14.623 2.32924 12.779
162 2 0.164845 9.86447 0.435638 14.4487
163 2 0.182508 9.32129 1.97387 13.3816
164 2 0.164173 8.13623 1.39467 14.8578
165 2 0.217587 14.614 1.48725 11.1169
278 3 -0.844756 8.73884 6.72161 15.7662
374 2 0.187975 11.1009 1.18611 13.5671
169 2 0.213427 12.8645 5.55228 9.15283
307 3 -0.751213 14.0722 0.699272 15.2107
98 2 -0.00803819 9.65606 0.497594 12.6995
185 2 0.16457 12.1258 0.369947 9.73243
212 1 -0.664388 9.24898 1.40265 14.4164
213 1 -0.686298 14.7177 2.48334 11.6628
216 1 -0.70134 12.1603 6.14589 14.5608
223 3 -0.838735 14.3292 3.54616 15.0987
240 3 -0.781311 7.6151 3.16743 11.8523
372 2 0.190628 12.379 0.686908 12.0902
262 3 -0.860038 9.45257 2.19105 10.2123
264 3 -0.793664 11.2482 1.9363 16.3859
265 3 -0.819504 8.76423 3.10057 16.5857
266 3 -0.816907 12.1938 2.51661 10.3826
273 3 -0.819166 6.13676 6.04813 9.85921
275 3 -0.815115 10.7015 3.67038 14.5643
276 3 -0.816 12.481 4.08126 12.5153
277 3 -0.79875 7.45311 5.13059 14.0582
373 1 -0.635726 12.235 0.966631 13.2228
71 4 1.33394 7.48015 6.49641 14.8677
280 3 -0.797752 8.75614 5.69401 10.3442
281 3 -0.839664 10.2633 5.62054 12.6381
173 2 0.179178 12.8297 5.47824 15.1411
89 2 0.115585 6.99596 2.64535 9.34088
279 3 -0.822782 11.4962 6.7767 10.5293
48 4 1.2986 5.08676 6.11772 11.1724
333 2 0.267218 15.582 0.817339 14.216
347 2 0.194628 16.3222 0.306222 9.10128
174 2 0.229585 11.3955 6.68289 15.1417
103 2 0.00669657 6.05558 6.4811 15.7735
377 2 0.170592 12.8802 6.24596 17.2127
175 2 0.158659 12.7001 6.7761 13.8574
33 4 1.05201 1.72738 13.0616 2.4195
181 2 0.215389 8.84405 7.23575 8.30396
184 2 0.252267 6.5106 10.3811 7.9365
268 3 -0.826508 6.35468 6.9426 5.00948
219 1 -0.656589 7.14306 9.46422 7.90247
385 2 0.187457 4.4879 13.18 8.06747
69 4 0.985817 10.6641 7.34757 6.25556
73 4 1.18103 8.7278 8.77047 2.20189
74 4 1.2991 4.80748 11.8944 4.86426
75 4 1.25198 7.48415 11.1684 1.29608
76 4 1.26947 8.91036 9.99438 7.62372
78 4 1.3048 7.60403 12.2896 6.14691
289 3 -0.784616 9.87862 8.57843 6.70838
183 2 0.2504 6.85554 8.7546 7.08369
328 2 0.13564 9.92659 10.9632 3.68007
104 2 -0.013793 10.2856 9.36676 2.71483
51 4 1.26335 2.74365 10.5012 0.837301
107 2 0.0964989 8.45975 12.783 4.70261
176 2 0.205624 4.97199 9.49182 4.29569
177 2 0.230795 4.90431 10.6989 2.84354
178 2 0.245898 3.29632 10.1269 3.68722
179 2 0.235408 6.89037 7.22317 7.95056
52 4 1.5165 3.68324 8.74083 7.69471
288 3 -0.822928 6.63295 12.4194 1.72361
217 1 -0.665562 4.40935 10.3604 3.79863
293 3 -0.832491 6.205 11.6705 5.80125
294 3 -0.842983 8.65454 11.1778 6.59606
249 3 -0.743491 2.65882 11.8508 2.00915
251 3 -0.829602 4.87111 7.79158 7.05288
101 2 -0.0187152 12.2186 7.8354 5.74787
282 3 -0.80968 8.31535 7.56514 3.27416
283 3 -0.82081 8.92739 8.14795 0.668425
284 3 -0.85026 4.94352 13.0794 3.8696
285 3 -0.799262 3.35785 12.2508 6.01839
286 3 -0.840565 8.92933 11.6063 0.66237
287 3 -0.810701 7.535 9.93553 2.35683
295 3 -0.861489 7.6199 13.5162 7.13852
54 4 1.22774 2.3011 11.1044 6.44468
100 2 0.0158029 10.183 6.9393 4.6768
319 2 0.0552194 6.49144 10.6008 0.0511796
220 1 -0.706551 5.22777 13.4578 8.85349
29 4 1.26847 9.4938 11.8802 10.2001
290 3 -0.803673 9.52674 10.285 9.05243
31 4 1.0739 9.93601 11.9288 17.1187
77 4 1.26786 4.33384 10.7034 10.0908
79 4 1.29358 8.62396 8.87418 12.7974
80 4 1.28548 4.23078 10.6766 15.4965
81 4 1.52351 6.98935 11.4944 11.6842
66 4 1.49629 9.49782 7.11504 17.0427
291 3 -0.830813 4.42488 9.90384 8.69605
106 2 -0.0131645 3.81026 12.2676 9.59079
152 2 0.216584 6.09098 8.30088 10.894
153 2 0.245375 6.32398 7.75538 12.6881
154 2 0.208038 4.59774 8.39858 12.1539
24 4 0.986886 11.9782 8.18563 9.99235
382 1 -0.696849 4.30186 7.37963 15.9148
298 3 -0.796576 3.10002 9.83839 14.6618
186 2 0.219371 9.75649 10.772 13.5229
187 2 0.209223 10.8411 9.22647 13.7267
188 2 0.187313 9.47737 9.61948 14.9666
189 2 0.185792 5.73253 9.10721 14.5963