ITEM: TIMESTEP
0
ITEM: NUMBER OF ATOMS
386
ITEM: BOX BOUNDS xy xz yz pp pp pp
-7.6535000000000002e+00 1.6722200000000001e+01 -7.3464000000000000e+00
-1.7999999999999999e-02 1.3589000000000000e+01 -3.0709999999999998e-01
0.0000000000000000e+00 1.7316099999999999e+01 -1.7999999999999999e-02
ITEM: ATOMS id type q x y z
2 2 0.0223383 -0.0409232 2.89379 3.12271
21 3 -0.776121 0.308956 0.527206 4.74438
4 2 0.135118 -1.92215 4.0656 3.74613
5 2 0.146968 -0.569677 4.23651 5.13736
6 1 -0.65245 -1.1674 3.50329 4.49885
10 4 0.704658 -0.909908 2.86761 8.00882
11 2 -0.0155859 0.259953 1.51834 7.86223
12 2 -0.0199185 -0.803617 3.63655 6.38915
130 2 0.161324 0.694924 4.08061 4.17363
134 2 0.163858 1.38065 4.65639 7.64959
200 1 -0.668698 1.92304 4.41669 3.97239
321 2 0.136625 1.57054 1.91727 1.68011
323 1 -0.668695 1.00591 1.63897 0.763296
325 2 0.220236 1.02383 5.58706 0.839347
326 2 0.15687 0.343063 4.21947 1.9406
327 1 -0.678544 0.250703 4.79255 0.994039
379 1 -0.658203 -2.86736 5.88841 0.808322
378 2 0.140386 -2.22518 5.52869 1.71083
320 2 0.229978 0.058807 0.993596 0.948544
324 2 0.157032 -0.954303 5.23463 0.929541
110 2 0.0582021 -2.39194 6.01851 4.67611
41 4 1.29267 2.08337 6.2157 4.55557
201 1 -0.669351 2.22409 4.88467 8.29226
1 4 0.986768 -0.833923 1.52047 4.07654
129 2 0.157345 2.13615 4.63451 2.86769
14 2 0.185302 -0.648237 5.09717 8.3671
234 3 -0.79957 0.636843 6.53753 5.27616
235 3 -0.859081 4.50332 4.95167 0.237924
118 2 0.113625 4.03939 0.729932 1.28349
126 2 0.209918 5.03677 4.56921 3.99533
231 3 -0.756739 5.76304 1.19976 4.21243
90 2 -0.00483336 3.84402 2.54586 2.93822
196 1 -0.686431 4.84565 0.110763 8.47192
133 2 0.219882 3.20551 5.16059 7.64612
362 2 0.144428 5.50869 1.2255 0.620405
128 2 0.148764 3.88984 4.22771 2.59842
127 2 0.161111 5.52165 3.17463 2.77021
246 3 -0.849814 2.58643 6.75533 0.625948
360 2 0.152705 7.02444 0.373589 0.484971
197 1 -0.662269 7.58837 0.509241 6.41741
131 2 0.161691 2.73372 3.80321 4.48549
121 2 0.18702 7.4308 0.85941 7.44342
87 2 0.0157313 2.47221 0.803504 6.83796
199 1 -0.686861 4.96109 4.14195 2.9682
34 4 1.01581 4.30926 0.933854 3.53529
36 4 0.808532 3.62528 1.53629 7.956
37 4 1.01101 7.09951 1.82267 5.23292
236 3 -0.763138 4.51362 2.74977 7.32126
43 4 1.44882 5.93305 3.79173 7.17998
238 3 -0.804146 3.62789 6.40481 5.52911
22 3 -0.804775 3.04543 0.17787 4.1779
8 2 0.0804553 1.43699 3.92499 16.1748
9 3 -0.770547 -1.12909 2.7591 16.3403
375 2 0.152031 -1.34129 3.31078 11.0649
15 2 0.128129 0.270707 3.85363 9.65904
26 4 0.976524 -1.74051 4.97429 13.7785
92 2 -0.00258385 -0.321413 6.00348 16.7966
84 2 -0.0100041 -2.72638 6.37344 13.572
85 2 -0.013815 -1.84996 4.37746 12.1712
241 3 -0.843895 -0.342683 5.46914 14.2347
334 2 0.177294 0.453741 1.17555 12.2783
335 2 0.176103 -0.109276 1.90382 13.8488
336 1 -0.654273 0.0574888 0.948795 13.2798
346 2 0.133943 1.33092 0.692227 9.09202
124 2 0.11597 1.80542 2.31051 9.19232
47 4 1.1661 0.587619 6.13113 15.3027
16 1 -0.657326 -0.725801 4.23461 9.16054
91 2 0.0341209 0.937536 5.96344 9.38201
242 3 -0.763394 1.97702 5.2194 15.427
13 2 0.158359 -1.5623 4.43879 9.92906
339 2 0.164795 1.86626 2.59393 14.6726
156 2 0.205123 1.93819 6.55909 12.8423
23 4 1.16856 1.4551 0.152621 14.3624
7 4 0.827948 0.220735 3.18618 17.1477
322 2 0.166124 1.35442 1.12759 17.2105
377 2 0.195079 -2.93941 5.26836 17.1977
137 2 0.183042 5.54863 2.60359 15.1891
89 2 0.0987718 6.55843 2.87238 9.99728
160 2 0.167782 4.70294 0.0596792 15.0584
198 1 -0.683301 2.7808 2.05206 9.64233
363 2 0.16232 5.83429 1.40391 16.033
202 1 -0.660414 5.37578 2.96289 14.0771
338 2 0.155042 2.70325 1.51469 15.9532
337 2 0.182076 3.55672 1.84531 14.3199
365 1 -0.679866 5.65087 1.94405 17.0617
340 1 -0.667951 2.59031 1.71383 14.8581
364 2 0.195895 5.02983 2.96636 16.8645
42 4 1.18005 3.17549 5.97167 16.8622
44 4 1.09656 2.62966 6.33639 9.50244
368 2 0.162616 3.91796 0.62953 12.2639
243 3 -0.766709 3.39952 5.77756 10.7767
232 3 -0.819028 7.16721 0.758808 11.5486
123 2 0.177421 2.68498 1.08585 10.257
125 2 0.191805 3.2151 2.87556 10.2408
135 2 0.170776 5.18197 2.12846 13.335
136 2 0.177905 4.44219 3.71034 14.0987
119 2 0.169047 5.48941 0.585407 9.26419
132 2 0.17418 2.43385 3.89212 8.87432
17 4 1.02403 -5.50485 12.9523 4.68755
28 4 1.25272 -2.37571 8.24225 8.10204
108 2 0.164534 -1.41019 7.4532 3.34169
112 2 0.149994 -3.08176 8.60077 5.64555
113 2 0.172399 -2.96122 10.1255 6.77003
142 2 0.143238 -2.16397 10.6883 5.10138
143 2 0.198268 -1.74733 12.528 5.14287
193 1 -0.672583 -3.40873 9.06198 6.68881
331 1 -0.656949 -4.98919 12.4603 6.521
332 2 0.139047 -5.19775 11.3278 6.22346
342 2 0.142747 -3.05124 8.77862 1.09211
225 3 -0.776755 -1.42141 7.02007 7.29347
350 2 0.13477 -4.56775 11.0453 1.18241
351 2 0.175231 -5.05494 12.954 1.33916
352 1 -0.692224 -4.79073 12.0618 0.652119
357 2 0.174474 -3.17713 12.5595 2.27423
111 2 0.175714 -4.55382 8.99741 6.98579
330 2 0.167812 -5.63318 12.7427 7.50339
120 2 0.157862 -1.97634 13.3894 7.4987
192 1 -0.66464 -2.06995 7.50625 4.2541
376 2 0.141306 -2.78762 7.08188 0.644343
329 2 0.169926 -3.93799 12.6909 6.72466
328 2 0.103072 -5.39763 10.7225 4.37131
204 1 -0.676905 -1.4192 11.4828 5.43833
109 2 0.142518 -2.98143 8.06041 4.03557
18 2 0.16156 -5.5801 11.6468 2.47708
195 1 -0.647021 -2.64819 13.5738 2.00891
344 1 -0.684566 -2.73249 9.02853 0.0523046
117 2 0.185602 -1.54332 13.4314 1.66115
20 1 -0.658256 -6.05138 11.4604 3.61245
345 2 0.185481 -7.09641 13.1974 7.80283
141 2 0.166113 -1.16895 11.429 6.54949
146 2 0.172612 -0.769133 12.6348 8.30665
248 3 -0.810992 3.04021 9.19457 1.68707
210 1 -0.670404 1.22339 10.3939 0.043252
25 4 1.00117 -0.847387 6.95278 5.73942
358 2 0.150277 -0.236477 12.1897 1.03519
205 1 -0.663718 0.191108 12.0117 8.26997
122 2 0.180794 -0.451319 13.0781 6.08761
361 1 -0.680568 0.342393 13.1586 0.925035
203 1 -0.660463 0.152147 9.66848 3.093
245 3 -0.827962 2.25623 7.07995 3.24581
158 2 0.146659 0.333458 10.9476 0.464764
253 3 -0.798363 1.41553 10.6664 5.44878
247 3 -0.776144 0.712891 12.3888 3.64327
49 4 1.21664 3.09634 7.58693 1.99176
50 4 1.14393 0.306204 11.0253 4.38799
83 2 0.0480286 -1.16866 8.71121 5.258
138 2 0.223024 0.590205 8.76818 3.68827
139 2 0.205379 0.587191 9.75827 2.03137
140 2 0.13498 -0.978629 9.53343 3.07725
144 2 0.166408 0.475657 11.663 7.20423
369 2 0.206476 1.09832 9.26016 0.0924993
359 2 0.140458 1.18434 13.0727 0.0988946
252 3 -0.784073 -1.32494 9.34416 8.64919
27 4 1.04213 -4.42989 8.34763 16.1876
30 4 1.24305 -3.02832 9.32854 13.5084
32 4 1.24523 -4.42989 12.0798 12.1981
148 2 0.217203 -2.53549 10.6595 10.3751
151 2 0.218947 -2.19286 12.7634 12.1501
159 2 0.193915 -3.56039 12.0076 15.3538
194 1 -0.685429 -1.86142 7.96469 12.6494
207 1 -0.648515 -3.07634 13.2475 11.6587
224 3 -0.825907 -3.41747 7.85648 9.33391
226 3 -0.825839 -3.9271 8.56731 14.6831
227 3 -0.794178 -6.55969 12.9987 15.6353
228 3 -0.817531 -5.43892 12.195 10.9043
229 3 -0.804688 -3.83973 10.2255 12.382
230 3 -0.831995 -5.08746 12.8152 13.4469
256 3 -0.778541 -2.00416 10.3681 14.2529
150 2 0.182893 -2.85758 13.5002 10.5504
211 1 -0.691215 -2.71087 12.6792 15.7259
82 2 0.0735617 -4.63229 9.23668 11.3038
161 2 0.15662 -2.39572 12.7296 16.7592
366 2 0.161593 -3.07675 12.8728 8.85949
343 2 0.167001 -3.20612 10.123 17.1267
317 2 -0.0226405 -3.52394 7.25463 11.8809
31 4 1.05118 -6.66781 12.059 16.9566
349 2 0.174097 -4.19753 12.3982 17.2448
114 2 0.1234 -1.81527 6.91432 12.2185
341 2 0.171684 -2.01663 8.67566 17.191
348 1 -0.67155 -6.92113 13.4624 8.87969
116 2 0.18006 -1.53247 8.62998 11.7802
250 3 -0.822051 3.06189 7.57105 8.74375
56 4 1.01413 -1.30508 11.7697 14.7669
149 2 0.172231 -1.29949 12.0794 10.3938
145 2 0.147261 0.975707 12.6861 8.91379
115 2 0.214008 -1.05208 8.08156 13.5467
255 3 -0.829956 0.826044 7.76788 14.9513
38 4 1.19415 0.590271 13.3312 12.6376
209 1 -0.672867 2.71026 7.41477 12.8436
57 4 1.42065 1.77564 10.5855 11.7405
94 2 0.00103075 -0.28128 11.3796 16.15
206 1 -0.663721 -1.51998 10.9681 10.6358
155 2 0.226222 2.91813 7.80173 11.8336
259 3 -0.801958 1.15352 9.65927 13.0004
258 3 -0.828364 1.05226 10.1359 10.2611
257 3 -0.821642 -0.469604 12.6386 13.6904
370 2 0.180894 1.31274 10.7489 16.3041
147 2 0.210425 -1.14738 10.6551 11.6237
53 4 1.13653 -0.231173 10.3495 9.40088
55 4 1.28136 1.7725 8.60207 14.016
157 2 0.17692 3.59187 7.13919 13.4377
88 2 0.00251408 8.48004 1.90805 4.1994
170 2 0.174384 9.77005 5.85474 3.80926
171 2 0.164708 8.0853 4.93577 3.36572
172 2 0.190038 8.36829 5.6172 5.13029
215 1 -0.663311 8.60089 5.79592 4.02688
233 3 -0.778073 7.08789 4.19507 0.773912
267 3 -0.780795 6.09212 6.51491 2.0264
354 2 0.147097 9.1996 2.13443 2.69866
356 1 -0.682175 9.82957 1.19869 2.89854
353 2 0.151376 9.89029 0.833921 4.07051
180 2 0.204892 8.27889 5.64049 6.95775
218 1 -0.687514 8.05617 6.38908 7.77535
237 3 -0.798172 6.90396 3.24293 5.90568
35 4 1.0344 7.60246 2.79211 0.103691
270 3 -0.829585 10.4925 3.6955 8.46059
45 4 1.56238 5.08032 6.6528 6.12492
40 4 1.21463 5.66277 5.03292 1.33131
272 3 -0.801093 6.78215 3.64886 8.59683
367 2 0.145996 8.72863 0.358289 6.08993
86 2 -0.00280702 7.71865 1.54335 1.29817
239 3 -0.858657 5.52576 5.27247 6.81746
67 4 1.32918 11.1209 4.53015 7.26044
59 4 1.26967 13.4056 0.832882 7.35652
274 3 -0.795489 10.6566 6.1136 6.93248
167 2 0.160145 13.5708 5.14627 6.93496
309 4 1.16719 11.8892 5.50581 1.58682
261 3 -0.78284 14.3862 2.20021 8.19274
214 1 -0.683852 12.9568 4.77729 7.84925
96 2 0.0412783 11.2804 2.11526 3.85937
316 3 -0.846466 10.9643 6.42097 0.794877
3 2 0.0338455 14.8855 2.29648 5.56708
61 4 0.956654 12.1445 2.57762 5.26898
263 3 -0.855269 12.437 1.40548 6.24605
97 2 -0.0153917 13.629 3.3214 4.74384
271 3 -0.824681 11.1864 3.73785 5.84023
168 2 0.217564 13.3823 3.72863 8.13297
308 4 1.55992 12.2449 2.65089 0.564162
58 4 1.61956 13.4239 0.329545 2.38405
314 3 -0.878219 12.6684 1.4988 1.62869
311 2 0.168325 11.4001 5.32989 3.82656
355 2 0.256741 10.8053 1.18417 2.38893
313 1 -0.690162 11.7902 6.29219 3.30021
315 3 -0.818401 11.7736 3.91223 1.55304
386 3 -0.84603 14.7474 0.849372 3.18888
95 2 -0.00510331 10.758 1.03353 8.49159
310 2 0.14983 12.8931 6.71356 3.71472
169 2 0.209469 12.8255 5.56387 8.65519
39 4 1.26728 7.67943 2.22245 11.0967
46 4 1.37395 6.56208 4.21534 13.285
63 4 1.34519 9.73412 2.23622 15.6982
68 4 1.27332 7.51575 5.35718 9.27689
71 4 1.33689 7.70211 6.60686 15.1723
72 4 1.49819 9.81205 6.35617 11.2024
212 1 -0.67397 10.0046 0.359893 15.2588
240 3 -0.796725 7.52983 3.16555 12.4106
262 3 -0.820732 9.06369 2.09358 10.3247
265 3 -0.795726 8.18036 2.48036 16.0608
273 3 -0.831105 6.1321 6.08396 9.93919
277 3 -0.793608 7.2263 5.39357 14.3149
280 3 -0.818333 8.76929 5.44565 10.2696
98 2 0.0187801 8.89442 0.73086 13.6216
278 3 -0.825525 9.01329 6.26946 16.0213
244 3 -0.830056 5.59391 5.06571 12.3383
281 3 -0.840297 10.047 5.57851 12.5957
48 4 1.30738 5.20206 6.12892 11.1736
275 3 -0.787847 10.2275 3.13993 14.3725
60 4 1.24961 10.4111 2.38152 9.45085
381 2 0.146837 4.89976 6.64559 15.2245
175 2 0.195419 11.0324 6.47462 14.7233
102 2 0.0216812 12.5959 6.66898 16.6011
162 2 0.192932 10.656 0.310234 14.2911
223 3 -0.814344 14.3001 3.86268 14.6222
333 2 0.283928 15.8369 0.293383 13.2811
305 4 1.53543 14.0991 2.63072 15.6456
347 2 0.177654 16.2312 0.322028 9.37179
306 3 -0.859656 13.0271 3.01952 16.735
173 2 0.17478 12.7104 5.48002 14.9125
264 3 -0.841857 10.6549 2.19928 17.0232
307 3 -0.781438 13.7739 1.24552 14.7844
64 4 1.06892 12.6256 3.39434 11.0725
70 4 1.32492 10.8282 4.49578 13.4806
99 2 0.0108176 12.695 4.58955 9.76537
165 2 0.19157 14.4355 1.78909 10.5703
166 2 0.198046 14.3165 2.37184 12.3456
371 2 0.21415 11.5866 1.42892 12.9499
174 2 0.23258 11.153 4.92864 15.7917
373 1 -0.661411 11.908 0.319166 12.6758
185 2 0.172244 12.1501 0.52104 9.67182
213 1 -0.683495 14.4046 2.69904 11.2385
216 1 -0.679578 11.5638 5.48791 14.9015
266 3 -0.829368 11.5524 2.35094 10.5574
276 3 -0.795423 12.2511 4.05728 12.4881
372 2 0.186672 12.6985 0.288331 11.7748
164 2 0.230412 10.586 0.0607927 16.1778
33 4 1.12992 1.64273 13.0111 2.44404
51 4 1.31956 2.9126 10.6884 0.933719
52 4 1.47963 4.08374 8.7318 7.99315
74 4 1.31764 4.99621 11.7859 4.50792
177 2 0.227669 5.18051 10.3421 2.52778
178 2 0.238285 3.78075 9.79944 3.67974
217 1 -0.667248 4.83323 10.1006 3.58093
249 3 -0.802135 2.71477 11.9439 1.94523
251 3 -0.820434 5.30996 7.84263 7.10516
284 3 -0.814343 5.17316 13.1718 3.45803
285 3 -0.803648 3.70156 11.9408 5.73039
288 3 -0.836257 6.54069 12.8801 1.33607
293 3 -0.837466 6.36258 11.4524 5.28483
176 2 0.243772 5.55868 9.44896 4.19785
105 2 0.0961818 4.73517 7.22941 2.26329
93 2 -0.0169926 2.0906 11.6922 7.87627
254 3 -0.847339 3.23892 9.55704 6.99093
54 4 1.24622 2.69817 10.9688 6.44082
385 2 0.145982 4.11914 12.9816 8.15626
268 3 -0.804956 6.18617 7.03058 4.79088
78 4 1.32469 7.51399 12.0938 6.12819
76 4 1.2946 9.04835 9.90792 7.98403
75 4 1.27615 7.50481 11.7375 0.768866
179 2 0.241232 7.32229 7.13463 7.44228
182 2 0.22677 7.09541 8.6035 8.51608
294 3 -0.82532 8.34135 11.0276 6.90846
104 2 0.00172581 10.0084 9.88871 2.60362
19 2 0.159075 9.50885 11.4118 3.71236
283 3 -0.843543 8.98043 8.26253 0.747362
101 2 -0.0272283 11.9978 8.00164 5.58136
282 3 -0.806213 8.04688 8.38527 3.30083
107 2 0.0825025 8.67081 12.9021 5.10665
100 2 0.0203863 9.65859 7.30243 4.80029
286 3 -0.838148 9.03021 12.2435 0.388465
289 3 -0.795188 9.84818 8.68987 7.14157
287 3 -0.856725 7.58283 10.4063 1.61204
69 4 0.954832 10.5239 7.52052 6.23816
73 4 1.24683 8.56697 9.19392 1.98059
295 3 -0.87972 7.1189 13.3483 6.97888
65 4 1.25419 7.20844 7.01874 3.63323
181 2 0.249966 8.97897 6.90695 8.22219
312 2 0.15491 10.9686 7.07522 3.18851
77 4 1.23381 4.45535 10.7848 10.4255
80 4 1.2679 4.21887 10.7418 15.49
106 2 -0.0181825 3.88819 12.3202 9.91497
152 2 0.24394 6.03467 8.49973 10.9512
153 2 0.223666 6.22774 7.60401 12.673
154 2 0.240041 4.64087 8.46433 12.197
380 2 0.238373 3.90554 8.19148 15.6432
189 2 0.199326 5.69229 8.83337 14.8934
190 2 0.161261 6.01242 9.63707 16.6288
208 1 -0.670466 5.53732 7.89663 11.8374
222 1 -0.668393 5.86301 9.78722 15.534
291 3 -0.829948 4.81881 9.72601 9.23948
292 3 -0.786376 3.45001 10.1358 11.5779
298 3 -0.775236 3.15661 9.60384 14.9172
299 3 -0.789817 4.85971 12.1478 14.7533
382 1 -0.700021 4.38363 7.21688 16.0949
302 3 -0.852879 5.74873 11.2742 11.1959
319 2 0.0129246 6.65138 11.2763 16.573
300 3 -0.808263 3.63196 11.0239 17.042
62 4 1.28077 5.77774 13.343 13.9661
191 2 0.203403 6.56873 10.5572 15.0357
374 2 0.203596 3.59031 13.305 12.4763
383 2 0.166026 5.12206 7.48429 16.8923
384 2 0.189542 5.73694 12.6256 8.88088
260 3 -0.84798 1.63853 12.2067 12.0043
220 1 -0.693863 5.01865 13.4483 8.69333
163 2 0.148467 1.68587 13.3704 15.2102
103 2 0.0035586 6.31821 6.97761 16.1387
66 4 1.38497 9.66627 7.28197 17.1584
290 3 -0.800457 9.97302 10.5838 9.19447
24 4 1.01624 12.3114 7.72926 10.5028
183 2 0.237193 7.08141 10.0952 9.51997
219 1 -0.682955 7.71158 9.24558 9.14995
221 1 -0.695275 9.93707 9.84775 13.6457
188 2 0.200952 9.60331 10.9251 13.5658
296 3 -0.845738 7.85812 7.85458 14.2835
303 3 -0.784832 7.36325 9.8872 12.5691
301 3 -0.777929 8.50941 11.9045 11.0022
269 3 -0.819854 10.8354 8.73524 16.5567
29 4 1.32822 9.9812 11.9186 10.081
297 3 -0.829952 9.07146 7.91056 11.7785
79 4 1.33498 8.50075 8.76835 12.9806
81 4 1.45502 7.10761 11.4598 11.9394
304 3 -0.816617 7.01872 12.7203 13.1477
279 3 -0.862502 11.0915 6.79619 10.3456
184 2 0.241205 8.21133 8.79637 10.0651
186 2 0.201654 10.7633 9.6484 12.913
187 2 0.215863 10.2651 9.52348 14.7228
318 2 0.0872156 10.4775 10.3543 16.7912
ITEM: TIMESTEP
100
ITEM: NUMBER OF ATOMS
386
ITEM: BOX BOUNDS xy xz yz pp pp pp
-7.6535000000000002e+00 1.6722200000000001e+01 -7.3464000000000000e+00
-1.7963999999999203e-02 1.3561822000000001e+01 -3.0709999999999998e-01
0.0000000000000000e+00 1.7316099999999999e+01 -1.7963999999999203e-02
ITEM: ATOMS id type q x y z
2 2 0.0382235 -0.0454536 2.86886 3.25154
21 3 -0.740266 0.269216 0.368604 4.80079
4 2 0.153769 -1.87541 4.09389 3.98698
5 2 0.154066 -0.592825 4.25628 5.22192
6 1 -0.670191 -1.13523 3.52531 4.5433
10 4 0.722226 -0.973155 2.69976 8.04489
11 2 -0.023529 0.160437 1.46513 7.69087
12 2 -0.0144238 -0.885507 3.53405 6.46851
130 2 0.178354 0.798652 4.08599 4.29439
134 2 0.1828 1.18263 5.0241 7.58231
200 1 -0.667799 1.90327 4.45933 4.06714
321 2 0.143325 1.65433 2.51027 1.87941
323 1 -0.671123 1.34931 1.90761 1.00032
325 2 0.216997 1.05352 5.578 0.681205
326 2 0.153856 0.302093 4.1212 1.77142
327 1 -0.664738 0.198523 4.73701 0.795546
379 1 -0.687668 -2.78767 6.06625 1.08349
378 2 0.158164 -2.29277 5.83882 2.06048
320 2 0.220786 0.651858 1.096 1.22592
324 2 0.169195 -0.888472 5.26019 0.789039
110 2 0.0942413 -2.42916 5.98961 4.86288
41 4 1.26201 2.1567 6.23378 4.63938
201 1 -0.677263 2.14815 4.94121 8.17929
22 3 -0.792934 3.25234 0.0864054 4.30218
129 2 0.137932 2.09068 4.74499 2.87576
238 3 -0.832017 3.55471 6.22156 5.44866
234 3 -0.778884 0.660657 6.51249 5.60404
235 3 -0.829766 4.32093 4.98139 0.353546
118 2 0.146034 4.02169 0.195223 1.42102
126 2 0.214718 5.28417 4.67294 4.08217
231 3 -0.769351 5.77631 1.2012 4.3935
90 2 -0.000269867 4.01994 2.54155 3.15992
236 3 -0.78978 4.60897 2.85076 7.43651
133 2 0.220912 3.10529 5.12871 7.48349
362 2 0.135358 5.3971 1.15429 0.611071
128 2 0.147976 4.01047 4.22665 2.63442
127 2 0.150863 5.72287 3.19629 2.93793
322 2 0.135494 2.27737 1.63956 0.254983
360 2 0.145592 7.0079 0.298161 0.30781
197 1 -0.654318 7.84245 0.553862 6.29405
131 2 0.169835 2.794 3.94696 4.56576
43 4 1.47089 5.93258 3.71897 7.14806
87 2 0.0235531 2.58988 0.758513 6.79294
199 1 -0.674015 5.14605 4.16842 3.06111
34 4 1.02648 4.45603 0.876168 3.59519
36 4 0.799997 3.68598 1.53337 7.98835
377 2 0.17157 -2.51086 5.32499 0.233128
37 4 1.0293 7.27821 1.79445 5.05518
121 2 0.184561 7.71199 0.887781 7.32992
8 2 0.0715856 1.42854 4.06726 16.1129
9 3 -0.773494 -1.10079 2.51402 16.2686
375 2 0.136532 -1.45204 2.9892 11.3244
15 2 0.131358 0.403749 3.73078 9.53028
26 4 0.973549 -1.73618 4.92886 13.8196
92 2 0.0039485 -0.295806 6.11123 16.7501
84 2 -0.00417549 -2.61328 6.4 13.5143
85 2 -0.0247851 -1.65432 4.26484 12.2519
241 3 -0.86529 -0.335804 5.33829 14.2556
334 2 0.167445 0.0964787 1.31703 12.2729
335 2 0.184962 -0.565361 1.80629 13.9271
336 1 -0.678267 -0.24304 0.985791 13.2801
346 2 0.155752 1.15893 0.593933 9.10767
124 2 0.0902981 1.65725 2.22927 8.80446
47 4 1.1806 0.578009 6.17148 15.2152
16 1 -0.664675 -0.735727 4.01545 9.29694
91 2 0.0298358 0.970427 6.07916 9.3596
242 3 -0.750832 2.06781 5.34615 15.3446
13 2 0.139874 -1.49163 3.95723 10.1737
339 2 0.14706 1.97031 2.44846 14.6069
156 2 0.236038 2.11668 6.46361 13.1688
23 4 1.0878 1.30754 0.274262 14.2928
7 4 0.812453 0.328572 3.08643 17.0445
119 2 0.156662 5.60837 0.396642 9.0509
132 2 0.162753 2.23546 3.85215 8.72145
137 2 0.180935 5.31499 2.66782 15.0747
89 2 0.0993995 6.64535 2.56036 9.72265
160 2 0.180987 4.67185 0.278716 15.1675
198 1 -0.662113 2.62103 1.99906 9.52246
363 2 0.174095 5.47477 1.25143 16.0118
202 1 -0.660315 5.19599 3.0717 13.9776
338 2 0.175061 2.78374 1.45252 15.9847
337 2 0.177286 3.55159 1.55133 14.3497
365 1 -0.70341 5.37947 1.84279 16.947
340 1 -0.666547 2.57458 1.52458 14.892
364 2 0.181921 4.76751 2.76805 16.8609
42 4 1.11839 3.18721 5.95166 16.8063
44 4 1.10275 2.64823 6.34821 9.36796
368 2 0.165711 3.89017 0.731603 12.0959
243 3 -0.772548 3.33318 5.82187 10.718
232 3 -0.81479 7.08309 0.539245 11.3739
123 2 0.180133 2.45526 1.20848 10.3174
125 2 0.175638 3.07429 2.97872 10.0114
135 2 0.15897 5.20481 2.23548 13.1525
136 2 0.196006 4.24543 3.73861 13.9418
14 2 0.189249 -0.781222 5.00213 8.77425
17 4 0.985914 -5.4131 12.8815 4.69281
28 4 1.18353 -2.41936 8.36325 8.13741
108 2 0.163326 -1.23301 7.13792 3.62105
112 2 0.140562 -3.04522 8.37845 5.76378
113 2 0.154877 -3.1386 10.1054 6.81652
142 2 0.139257 -2.00404 10.5693 5.31819
143 2 0.205487 -1.77334 12.4412 5.06875
193 1 -0.653896 -3.55841 8.99464 6.7511
331 1 -0.637503 -5.12378 12.3884 6.55051
332 2 0.138696 -5.38233 11.2505 6.23808
342 2 0.143975 -3.33049 8.78561 1.15917
225 3 -0.776762 -1.5983 6.90916 7.34737
350 2 0.143194 -4.44115 10.9813 1.04114
351 2 0.169819 -5.00555 12.808 1.27977
352 1 -0.66679 -4.66741 11.9642 0.535686
357 2 0.16572 -2.67454 12.3863 2.59073
111 2 0.199596 -4.71193 8.93645 7.01159
330 2 0.189995 -5.76676 12.7853 7.45255
120 2 0.142777 -2.40309 13.3626 7.30095
192 1 -0.661763 -2.04738 7.22325 4.41705
376 2 0.162863 -2.60226 7.13103 0.774541
329 2 0.162878 -3.94626 12.4181 6.66503
328 2 0.0943422 -5.334 10.6463 4.28097
204 1 -0.657724 -1.30456 11.4971 5.45465
109 2 0.133644 -2.95534 7.86 4.06885
18 2 0.167064 -5.41784 11.5257 2.43555
195 1 -0.662522 -2.46638 13.4478 2.1078
344 1 -0.68638 -2.82526 9.07698 0.165641
117 2 0.178136 -1.40573 13.4841 1.62217
20 1 -0.671005 -5.90353 11.4529 3.51203
369 2 0.212021 0.984914 9.119 0.105495
141 2 0.169153 -0.921975 11.5706 6.62206
146 2 0.172117 -0.863445 12.6658 8.33602
248 3 -0.805618 3.10577 9.21742 1.74592
210 1 -0.682068 1.19825 10.2419 0.0660552
25 4 1.03082 -0.814016 6.9982 5.98148
358 2 0.125012 -0.098953 12.1431 0.990211
205 1 -0.67349 0.15708 12.0435 8.32413
122 2 0.186359 -0.339198 13.1792 6.04704
361 1 -0.677045 0.465276 13.2586 0.815699
203 1 -0.672833 -0.029706 9.61659 3.15071
245 3 -0.796154 2.30734 7.27203 3.26958
158 2 0.14222 0.439516 10.9166 0.56852
253 3 -0.794131 1.32988 10.545 5.4927
247 3 -0.757682 0.662097 12.6468 3.63483
49 4 1.21016 3.04466 7.62655 1.89439
50 4 1.0864 0.299536 10.9999 4.40115
83 2 0.0367348 -1.12539 8.58266 5.42799
138 2 0.24562 0.705538 8.72213 3.41249
139 2 0.184613 0.238153 10.0187 2.16685
140 2 0.140575 -1.1644 9.3872 3.27955
144 2 0.169021 0.411029 11.7432 7.27127
252 3 -0.769128 -1.03816 9.39769 8.505
246 3 -0.802089 2.31321 6.88677 0.5951
345 2 0.182559 -7.21868 13.3643 7.78243
196 1 -0.670647 -2.64719 13.5388 8.48242
341 2 0.157449 -1.70974 8.82152 0.115908
27 4 1.00151 -4.23474 8.36424 16.1045
30 4 1.27796 -3.10322 9.39921 13.5544
32 4 1.26036 -4.46269 12.1479 12.0259
148 2 0.205605 -2.66108 10.6732 10.4433
151 2 0.224956 -2.22278 12.8973 12.2787
159 2 0.206016 -3.61758 12.1515 15.3031
194 1 -0.676012 -1.89146 7.99554 12.6526
207 1 -0.651454 -3.1019 13.339 11.6683
224 3 -0.819179 -3.45828 8.18963 9.3936
226 3 -0.865114 -3.80673 8.46898 14.6195
227 3 -0.767327 -6.38354 12.9576 15.6509
228 3 -0.838797 -5.45415 12.2277 10.7531
229 3 -0.808982 -3.85634 10.3015 12.403
230 3 -0.773179 -5.15562 12.7336 13.2943
256 3 -0.819093 -2.16533 10.4497 14.3625
150 2 0.174917 -2.85623 13.465 10.4494
211 1 -0.654705 -2.71933 12.8164 15.6348
82 2 0.0804035 -4.68922 9.35436 11.3611
161 2 0.121442 -2.31996 12.5859 16.752
366 2 0.169981 -3.34813 12.7533 9.0508
343 2 0.16151 -3.2713 10.1839 17.2627
317 2 -0.0349895 -3.441 7.03755 11.7741
31 4 1.02427 -6.58625 11.9665 16.8883
260 3 -0.863608 1.45829 12.122 11.912
114 2 0.137422 -1.5419 6.98174 12.3809
24 4 0.994125 -4.39558 7.85908 10.6085
348 1 -0.66869 -7.06016 13.4295 8.87713
116 2 0.148894 -2.03181 8.65102 11.6439
250 3 -0.843091 3.0683 7.72558 8.7737
56 4 1.04146 -1.37919 11.6998 14.8234
149 2 0.196963 -1.63279 12.2913 10.4428
145 2 0.160884 0.994532 12.4794 8.8403
115 2 0.220135 -0.99528 8.42555 13.2535
255 3 -0.82262 0.906444 7.72066 14.9119
38 4 1.18135 0.448 13.2471 12.6343
209 1 -0.660359 2.76524 7.35443 13.0021
57 4 1.4342 1.75608 10.6502 11.6289
94 2 -0.000551217 -0.295459 11.1724 16.0883
206 1 -0.682378 -1.66569 11.1412 10.6385
155 2 0.214458 2.74787 7.71239 11.9811
259 3 -0.796691 1.10431 9.61107 12.9381
258 3 -0.804843 0.978764 9.99711 10.2995
257 3 -0.834674 -0.564941 12.6602 13.757
370 2 0.168692 1.29205 10.5101 16.2973
147 2 0.194932 -1.23045 10.8637 11.7027
53 4 1.15275 -0.348447 10.4219 9.49917
55 4 1.29013 1.83731 8.73124 13.972
157 2 0.174799 3.84205 7.18211 13.417
349 2 0.172838 -4.08036 12.3272 17.0021
102 2 0.0225203 -3.95414 6.79248 16.7593
88 2 -0.0121811 8.45559 2.11443 3.79655
170 2 0.185059 9.78028 5.83059 3.61517
171 2 0.175086 8.14453 5.0245 2.85014
172 2 0.18407 8.33033 5.32074 4.74685
215 1 -0.675009 8.63024 5.7555 3.72205
233 3 -0.831898 7.08325 4.16425 0.912256
267 3 -0.78739 6.10754 6.47862 1.92635
354 2 0.13945 9.29783 2.26901 2.69109
356 1 -0.677754 9.90961 1.23763 2.84387
353 2 0.162887 10.0489 0.899361 3.94066
180 2 0.205104 8.17853 5.57579 7.03874
218 1 -0.665112 7.96289 6.29647 7.90121
237 3 -0.776043 7.04336 3.11893 5.84057
35 4 1.02118 7.35564 2.76269 0.0626414
268 3 -0.822625 6.14094 6.77004 4.84374
45 4 1.55262 5.08494 6.49404 6.06429
40 4 1.22092 5.83524 4.97991 1.40528
272 3 -0.794376 6.84775 3.56035 8.51213
367 2 0.163277 8.90437 0.401668 5.99725
86 2 -0.00172059 7.74996 1.53483 1.31397
239 3 -0.86604 5.53993 5.21259 6.82217
67 4 1.29931 11.1885 4.55991 7.33291
59 4 1.29174 13.3534 0.826262 7.2765
274 3 -0.830439 10.7566 6.00727 6.91005
167 2 0.18155 13.4856 5.19843 6.99224
309 4 1.15587 12.0639 5.54256 1.55071
261 3 -0.775952 14.297 2.16586 8.20811
214 1 -0.686193 12.9683 4.85576 7.91365
96 2 0.0363475 11.4017 1.9892 3.86219
316 3 -0.834572 11.1049 6.49517 0.798359
3 2 0.0377018 14.8108 2.32861 5.61427
61 4 0.967592 12.1574 2.65912 5.2499
263 3 -0.835958 12.495 1.37888 6.12784
97 2 -0.026743 13.6365 3.30004 4.58911
271 3 -0.832111 11.2481 3.61184 6.03093
168 2 0.219817 13.4318 3.87129 8.26758
308 4 1.56836 12.2292 2.69448 0.496017
58 4 1.54666 13.505 0.304434 2.3359
314 3 -0.837617 12.6485 1.37894 1.4145
311 2 0.176591 11.5665 5.15224 4.01692
355 2 0.251786 10.902 1.20821 2.18581
313 1 -0.684136 11.8415 6.02369 3.39847
315 3 -0.809686 11.9577 3.92012 1.61295
386 3 -0.879225 14.68 0.889765 3.16619
1 4 0.989946 15.6853 1.51232 4.11112
310 2 0.149796 12.8826 6.41117 3.81307
95 2 -0.00894083 10.5541 0.880721 8.61995
181 2 0.257057 8.94245 6.75344 8.25843
39 4 1.22803 7.64862 2.09248 11.0429
46 4 1.31707 6.46752 4.212 13.2445
63 4 1.36845 9.6135 2.4361 15.7166
68 4 1.28681 7.47984 5.25748 9.38571
71 4 1.32189 7.67861 6.64813 15.1384
72 4 1.55859 9.71935 6.50313 11.2613
212 1 -0.661402 9.75287 0.575108 15.1506
240 3 -0.789402 7.4726 3.116 12.1942
262 3 -0.825896 9.1825 2.1401 10.4989
265 3 -0.791524 8.06034 2.61322 16.1044
273 3 -0.831466 6.07615 6.01912 9.83811
277 3 -0.769315 7.0593 5.24851 14.4884
280 3 -0.815163 8.69999 5.60413 10.3691
98 2 0.0190488 8.79236 0.808938 13.4167
278 3 -0.853811 8.92388 6.57059 16.0366
244 3 -0.836533 5.50479 5.0642 12.2674
281 3 -0.815397 10.0589 5.7187 12.6115
48 4 1.32652 5.12129 6.05154 11.1074
275 3 -0.805915 10.112 3.33618 14.4171
60 4 1.29548 10.4764 2.29689 9.61717
381 2 0.146723 4.93633 6.64913 15.2973
175 2 0.19446 11.0722 6.58507 14.6907
169 2 0.200231 12.9238 5.6515 8.69848
162 2 0.195324 10.5257 0.527741 14.215
223 3 -0.840258 14.1742 3.89261 14.6271
333 2 0.28222 15.6467 0.177303 13.2408
305 4 1.50324 14.1237 2.6397 15.6702
347 2 0.174202 16.0703 0.25362 9.37993
306 3 -0.855774 13.1102 2.98096 16.7933
173 2 0.180472 12.6679 5.559 15.0506
264 3 -0.85633 10.5876 2.45948 17.009
307 3 -0.760018 13.5597 1.10296 14.8544
64 4 1.04925 12.7841 3.37271 11.1432
70 4 1.33088 10.8848 4.49869 13.5958
99 2 -0.0192181 13.0102 4.52312 9.92521
165 2 0.178323 14.1799 1.47673 11.2643
166 2 0.216616 14.512 2.33204 12.9176
371 2 0.229782 11.5785 1.491 13.085
174 2 0.232603 11.0198 5.09957 15.9184
373 1 -0.670696 11.9367 0.457257 12.6818
185 2 0.165075 11.9953 0.261663 9.39875
213 1 -0.669559 14.3599 2.48509 11.7936
216 1 -0.679713 11.553 5.52411 15.0263
266 3 -0.809285 11.8851 2.27351 10.4943
276 3 -0.784362 12.0978 3.92357 12.5765
372 2 0.206767 12.656 0.578969 11.7952
164 2 0.211253 10.2798 0.228374 16.081
163 2 0.152266 8.73074 0.0524344 14.9939
270 3 -0.789783 10.4863 3.49249 8.71265
33 4 1.12399 1.63923 13.1163 2.48071
51 4 1.27426 2.91066 10.5889 0.899948
52 4 1.55843 4.09896 8.72433 8.06637
74 4 1.39418 5.13477 11.8947 4.54318
177 2 0.247053 5.39453 10.6192 2.48865
178 2 0.241111 4.19162 9.73994 3.69195
217 1 -0.654937 5.16026 10.2465 3.5711
249 3 -0.758094 2.59698 11.9388 1.99509
251 3 -0.798329 5.20859 7.76602 7.15266
284 3 -0.799215 5.05598 13.0546 3.48982
285 3 -0.778561 3.74594 11.8296 5.73612
288 3 -0.81401 6.7647 12.7997 1.30536
293 3 -0.852037 6.49798 11.7815 5.30185
176 2 0.238577 6.02963 9.64297 4.00051
105 2 0.0967254 4.7202 7.24565 2.12141
93 2 -0.0226282 2.03889 11.7719 7.80023
254 3 -0.840438 3.3915 9.64703 6.94324
54 4 1.27586 2.6823 10.8793 6.43972
385 2 0.147971 3.74751 13.1145 7.92109
182 2 0.23306 6.97326 8.39452 8.57777
78 4 1.32499 7.70094 12.2062 6.22275
76 4 1.27587 9.03053 9.89439 8.11182
75 4 1.32975 7.61183 11.6693 0.715017
179 2 0.247385 7.12613 7.0642 7.70829
312 2 0.133936 11.1239 6.88757 3.39817
294 3 -0.847191 8.35571 11.0918 7.16693
104 2 -0.0203059 10.1087 9.93306 2.48703
19 2 0.162399 9.71023 11.3601 3.51894
283 3 -0.867543 8.88697 8.28254 0.743383
101 2 -0.0304535 11.8719 8.01823 5.47772
282 3 -0.810057 7.92916 8.35961 3.20412
107 2 0.100942 8.80764 12.6864 5.06455
100 2 0.00753494 9.57168 7.1478 4.83089
286 3 -0.827156 9.09135 12.1458 0.464803
289 3 -0.758814 9.79344 8.49847 7.14813
287 3 -0.834107 7.635 10.4003 1.62199
69 4 0.96539 10.4872 7.39095 6.23718
73 4 1.24985 8.63253 9.16188 1.98944
295 3 -0.878937 7.2261 13.5603 6.75809
65 4 1.21699 7.17191 6.94434 3.55042
359 2 0.157658 1.3322 13.188 0.156218
220 1 -0.691929 4.80657 13.3637 8.41508
384 2 0.178855 5.48579 12.4328 8.49653
77 4 1.26 4.55897 10.8538 10.3358
80 4 1.27971 4.16904 10.8286 15.5555
106 2 -0.0198827 3.70757 11.9811 9.37444
152 2 0.218776 6.31017 8.2851 11.578
153 2 0.16758 5.3133 7.55697 13.081
154 2 0.223881 4.34923 8.35871 11.6908
380 2 0.208776 3.82337 8.18009 15.6662
189 2 0.18158 5.47546 8.9449 14.6844
190 2 0.163034 6.01549 9.55402 16.3332
208 1 -0.654125 5.2801 7.77005 11.9501
222 1 -0.675582 5.79703 9.86442 15.282
291 3 -0.850625 4.74977 9.71088 9.15316
292 3 -0.816175 3.5023 10.4341 11.4664
298 3 -0.784053 3.01976 9.82274 14.7644
299 3 -0.768269 4.56071 12.2771 14.8841
382 1 -0.694158 4.39674 7.2875 16.1207
302 3 -0.862597 5.94343 11.4137 10.8358
319 2 0.00417757 6.79389 11.0816 16.5273
300 3 -0.814382 3.86378 10.8499 17.1608
62 4 1.26509 5.71012 13.3498 13.9801