ITEM: TIMESTEP
0
ITEM: NUMBER OF ATOMS
386
ITEM: BOX BOUNDS xy xz yz pp pp pp
-7.6535000000000002e+00 1.6722200000000001e+01 -7.3464000000000000e+00
-1.7999999999999999e-02 1.3589000000000000e+01 -3.0709999999999998e-01
0.0000000000000000e+00 1.7316099999999999e+01 -1.7999999999999999e-02
ITEM: ATOMS id type x y z
1 4 -0.32686 1.05238 3.48444
2 2 0.54592 1.78542 2.20834
3 2 0.547518 1.89331 5.5978
239 3 5.17143 5.54176 6.64134
5 2 -0.209808 3.49426 4.57954
6 1 -0.330466 2.3446 4.8645
10 4 -0.761218 3.01745 8.22776
326 2 -0.320203 4.02936 1.66768
12 2 -0.255169 3.26937 6.61999
34 4 4.60379 0.4096 3.96788
36 4 3.85249 1.9249 8.4349
37 4 6.95311 1.70199 5.43443
40 4 5.38379 4.79357 1.45941
324 2 -1.0151 5.10564 0.04846
327 1 -0.096314 4.81382 0.67709
43 4 5.74334 4.03057 6.88349
87 2 2.79035 0.688188 7.58085
379 1 -3.09977 6.13931 1.4988
90 2 3.9383 1.99344 3.82587
108 2 -2.03633 4.98461 4.98824
120 2 5.07162 0.148608 6.81163
109 2 -0.919549 5.84189 3.63544
118 2 5.33757 1.02335 1.87577
378 2 -2.66629 5.99062 2.59869
110 2 -2.57414 6.71777 4.23061
126 2 5.44901 3.07418 3.14896
127 2 4.15439 2.75947 1.70062
128 2 3.63224 3.83861 3.21672
129 2 2.10068 4.92428 3.09466
130 2 0.970662 4.33521 4.58458
131 2 2.99523 4.45736 4.82503
133 2 3.5229 5.37963 7.45187
134 2 1.60011 5.82549 7.17076
192 1 -1.68602 6.00606 4.50379
377 2 -2.56719 5.45155 0.772485
322 2 2.81574 1.72508 0.210506
367 2 7.77032 0.0820279 7.28947
199 1 4.53869 3.43562 2.54112
200 1 2.01838 4.79065 4.27604
201 1 2.42008 5.29554 7.82332
231 3 5.85564 0.547251 5.36466
235 3 3.93022 4.76891 0.209603
236 3 4.52071 3.09327 7.5225
237 3 6.26855 3.1281 5.48652
41 4 2.06507 6.74315 4.58365
320 2 0.952426 1.12087 0.585434
321 2 2.00597 2.49334 1.813
323 1 1.7801 2.02526 0.717041
360 2 8.02598 0.538622 1.16289
325 2 0.824112 5.51275 0.822897
14 2 -0.916206 5.48534 8.41396
132 2 2.15386 4.27598 8.18275
47 4 0.516167 6.42056 15.244
8 2 1.97387 3.29657 16.7032
9 3 -0.870567 2.38879 16.274
13 2 -1.88356 4.43862 9.78867
92 2 -0.180777 6.36622 16.8295
15 2 0.0464126 4.38116 9.89289
16 1 -0.936194 4.57597 9.19102
26 4 -1.6172 4.61618 13.7942
333 2 -0.092621 0.360096 12.923
23 4 1.59477 0.0144624 14.8026
84 2 -2.6695 5.63758 12.9395
85 2 -1.35867 3.60232 12.3887
89 2 5.95726 2.75922 10.2733
44 4 2.44495 6.50841 9.26265
123 2 4.53598 1.68377 10.8432
124 2 2.64787 2.12795 10.2214
125 2 4.10987 3.50359 10.6133
346 2 1.37969 0.559321 9.3103
135 2 4.83333 2.56187 14.0905
136 2 3.85793 4.2195 13.9205
137 2 4.92501 3.79162 15.4252
337 2 3.95548 0.884539 14.7508
363 2 6.52219 2.21181 15.4386
198 1 3.97776 2.45281 10.2445
202 1 4.8256 3.65902 14.3282
42 4 3.01191 5.96207 16.7495
241 3 -0.367177 5.47083 14.2343
242 3 2.01314 5.61928 15.2723
243 3 3.58256 5.94245 10.2437
368 2 4.14184 0.436508 12.6757
334 2 0.168701 1.93117 13.879
348 1 0.371381 0.141255 8.95441
336 1 0.0325265 0.838176 13.9292
365 1 6.04247 2.03791 16.488
338 2 3.26826 1.05793 16.5764
339 2 2.55322 2.04851 15.064
340 1 3.09222 1.09224 15.4162
119 2 5.20726 0.305414 8.84915
232 3 7.27529 0.836598 11.4143
91 2 0.904281 6.51861 10.0485
155 2 2.63088 6.60063 13.1861
7 4 0.20373 3.20003 17.0922
11 2 0.620969 2.09408 8.80834
364 2 5.01954 2.37859 16.6089
362 2 6.14855 0.993973 16.9146
375 2 -1.61109 3.00504 10.9671
17 4 -5.36955 12.2764 4.8037
351 2 -5.2209 12.6468 1.77996
330 2 -6.45081 12.2962 7.08174
357 2 -2.55367 12.708 1.78328
350 2 -4.55663 10.8765 1.94211
22 3 -3.96523 12.9465 4.45328
25 4 -0.867184 7.14535 5.71152
28 4 -2.50406 8.269 8.26239
49 4 2.88111 7.78471 1.83991
50 4 0.147105 10.8906 3.95122
83 2 -0.987523 8.85726 5.22253
366 2 -3.17323 12.4118 7.93137
111 2 -4.62524 9.13265 6.99252
112 2 -3.01051 8.88035 5.95188
113 2 -3.10014 10.2739 7.31535
138 2 0.371315 10.1744 1.56232
139 2 -1.09485 9.46538 2.65461
140 2 0.648984 8.74252 2.79171
141 2 -1.33047 10.3007 6.03732
142 2 -2.4981 10.4079 4.67411
143 2 -1.43774 11.89 5.13435
144 2 0.0216425 11.3316 6.85722
145 2 0.664742 12.4783 8.26618
146 2 -1.10961 12.5208 7.75307
158 2 0.380568 11.337 0.707751
193 1 -3.48227 9.18217 6.95796
203 1 0.031189 9.64288 2.57302
204 1 -1.52536 10.7178 5.01228
205 1 -0.13624 11.8354 7.85116
93 2 1.53582 12.1399 6.84744
329 2 -4.42715 12.4471 7.15049
245 3 1.90669 7.41898 3.15708
20 1 -5.52719 10.5972 3.80893
247 3 0.721032 12.5291 3.11107
248 3 2.94507 9.23904 1.38096
253 3 1.31914 10.3937 4.9517
352 1 -4.71114 11.7758 1.20095
349 2 -3.78521 12.1903 0.641158
331 1 -5.44917 11.9485 6.61984
332 2 -5.34958 10.7859 6.48061
376 2 -3.17677 7.22791 1.23579
343 2 -3.61929 10.2991 0.407941
19 2 -4.5028 10.3402 3.40681
195 1 -1.9507 13.5186 2.39661
21 3 -6.877 13.3831 4.12198
342 2 -2.42563 8.55205 0.635479
117 2 -0.858572 13.1098 2.70488
225 3 -1.60601 6.96962 7.17915
238 3 3.43957 6.94453 5.28991
234 3 0.657971 6.88415 5.5464
345 2 -6.98163 13.3506 7.80476
196 1 -2.88699 13.5222 7.79654
246 3 2.4934 6.82814 0.62636
160 2 -2.7638 13.3464 15.767
27 4 -4.17495 8.27837 16.1349
30 4 -2.97572 9.6053 13.2164
161 2 -1.24148 12.688 16.8277
32 4 -4.54412 12.1463 12.2231
38 4 0.593223 13.5098 12.4905
53 4 -0.439053 10.5584 9.39402
55 4 2.01589 8.86759 13.8758
56 4 -0.895668 11.8777 14.6405
57 4 1.82783 10.789 11.4876
156 2 3.71729 7.30947 14.4958
344 1 -3.17218 9.34346 17.2465
94 2 0.49215 11.1253 15.3335
370 2 1.41243 11.8819 16.637
114 2 -2.39029 7.76845 11.4135
115 2 -1.89006 7.5702 13.2258
116 2 -0.914382 8.85589 12.2158
147 2 -2.6947 10.7526 10.3689
148 2 -1.63957 12.3231 10.1539
149 2 -1.49607 11.1184 11.695
260 3 1.395 12.262 12.0681
151 2 -2.07198 12.5391 12.4484
159 2 -2.61599 11.5288 16.3106
369 2 0.73878 9.99791 16.6929
317 2 -4.70508 9.25988 11.126
194 1 -1.95625 8.33471 12.3719
206 1 -1.72537 11.186 10.6159
207 1 -2.99683 13.1155 12.0827
209 1 3.21682 7.48333 13.3903
252 3 -1.35522 9.18859 8.82977
211 1 -2.01531 12.4436 16.0292
224 3 -3.4445 7.60473 9.45823
226 3 -3.67694 8.55917 14.635
227 3 -6.10663 12.6241 16.0851
228 3 -5.5455 12.3678 10.8963
229 3 -4.07544 10.1803 12.2562
230 3 -5.28754 12.6802 13.6161
250 3 2.75042 7.97386 8.73539
341 2 -2.38609 9.77959 16.5765
255 3 0.786893 7.91406 14.7873
256 3 -1.83751 10.812 13.8369
257 3 -0.43828 13.2107 13.7281
258 3 0.97134 10.5866 10.1164
259 3 1.36357 9.58981 12.5672
31 4 -6.49288 11.6145 17.2626
210 1 0.840351 11.0005 17.2904
150 2 -2.9961 13.3155 10.9543
102 2 -3.50344 6.85015 16.9809
35 4 7.59125 3.12407 0.24141
59 4 13.7346 0.898569 7.05041
61 4 12.293 2.65742 4.88144
185 2 11.5019 0.257307 7.17887
67 4 10.9879 4.28254 7.07541
86 2 7.81481 2.09507 1.60905
95 2 9.35107 0.982733 8.39323
96 2 11.6204 1.81526 3.54819
97 2 13.4484 3.59118 4.09217
121 2 9.28751 1.16746 6.55936
167 2 13.2886 5.21984 6.84039
168 2 13.4092 3.58602 7.93337
170 2 8.713 5.71214 4.69363
171 2 8.11843 4.90705 3.17796
172 2 7.18519 4.55332 4.78556
180 2 7.67477 6.20226 6.11539
214 1 12.8084 4.58544 7.72902
215 1 7.80583 5.35514 4.20715
361 1 9.14771 0.661515 1.19707
233 3 6.71663 4.31157 0.705252
122 2 7.90598 2.03416 7.58123
261 3 14.5475 2.18437 8.20249
263 3 13.0246 1.64907 5.85268
267 3 5.57348 6.05713 2.39758
270 3 10.5068 3.27209 8.1976
271 3 11.1874 3.52009 5.57378
272 3 7.16742 4.11533 7.89937
274 3 10.5118 5.89143 6.9622
312 2 10.1484 6.65306 3.17416
308 4 12.3622 2.65622 0.583771
309 4 11.6939 5.48133 1.6169
220 1 12.2512 0.241638 8.10522
311 2 10.9461 5.08637 3.89099
88 2 8.12187 1.69785 4.099
313 1 11.1088 6.10473 3.35589
314 3 12.9033 1.47292 1.46833
315 3 11.722 3.92666 1.64125
316 3 10.697 6.36845 0.74455
353 2 10.9692 0.334495 4.08178
354 2 9.51231 0.700842 5.28489
355 2 10.051 2.10903 4.05317
356 1 9.97564 0.949658 4.22819
359 2 9.61367 1.6435 1.87914
386 3 14.9506 0.839524 2.97954
58 4 13.6666 0.194774 2.30892
358 2 9.74907 0.390445 0.21766
197 1 8.09615 1.21189 6.85524
218 1 7.7074 6.7545 7.20932
169 2 12.6834 5.23605 8.59416
310 2 11.9571 6.65677 3.81424
4 2 15.3432 2.12697 5.30075
39 4 7.43114 2.4354 11.1196
46 4 6.24068 4.50255 13.4123
48 4 5.27681 6.11477 10.8206
60 4 9.91289 2.29943 9.34442
63 4 9.79735 2.71359 15.7446
64 4 12.3965 3.00217 10.8504
306 3 13.2777 3.2207 16.9876
70 4 10.6489 4.59346 13.2413
307 3 13.5901 1.18533 14.899
72 4 9.55701 6.45278 11.0713
99 2 12.7187 4.09389 9.62793
373 1 11.7688 0.210467 12.8587
244 3 5.40613 5.20697 12.0909
163 2 8.37542 0.970353 14.8305
335 2 15.9288 0.543594 14.6153
165 2 14.0775 1.4066 10.7567
166 2 13.9312 2.32945 12.4492
371 2 11.5303 1.33102 13.0858
173 2 12.4345 5.87742 14.1159
174 2 10.9919 5.59957 15.3166
372 2 12.2176 0.0329419 11.8063
162 2 10.4058 0.592753 14.2674
212 1 9.4808 0.90988 15.1393
213 1 14.1949 2.44232 11.2742
216 1 11.3383 5.97201 14.2445
98 2 9.16433 1.01238 13.1663
240 3 7.24268 3.29599 12.4623
384 2 11.8498 0.755389 9.08524
262 3 8.68337 2.7483 10.178
264 3 10.9099 2.23387 16.8302
265 3 8.5456 3.25495 16.6625
266 3 11.1064 1.72545 10.3344
273 3 6.3276 5.94904 9.61383
275 3 10.165 3.6416 14.4838
276 3 11.9152 3.71749 12.1019
277 3 6.81699 5.56546 14.4058
278 3 8.95699 6.52943 15.8234
223 3 14.1562 3.90015 14.7408
280 3 8.90294 5.78553 9.47932
281 3 9.4312 5.36351 12.2276
305 4 14.1291 2.64338 15.689
381 2 4.9139 6.61098 15.4341
347 2 16.1546 0.671694 9.3994
279 3 11.1898 6.73099 10.878
164 2 9.59317 0.193988 16.1131
68 4 7.54588 5.55352 8.6731
33 4 2.08583 13.156 2.66916
45 4 4.86546 7.08083 5.98957
51 4 2.95972 10.726 0.797361
52 4 3.74268 9.10554 8.07493
54 4 2.40474 10.9686 6.03275
65 4 6.7961 6.84067 3.65703
69 4 10.8105 7.29773 6.32618
73 4 8.47752 8.81981 2.00386
74 4 5.09292 11.612 4.46116
75 4 7.57323 11.4312 0.827241
76 4 9.03365 9.97991 8.08818
78 4 7.65781 11.8631 5.9501
101 2 12.4898 7.49298 6.19901
100 2 10.4915 7.48465 4.65713
254 3 2.98147 9.96562 7.06765
104 2 9.86111 9.4609 2.79925
328 2 10.4655 11.2034 3.02714
107 2 8.78871 12.3203 4.75356
176 2 5.30594 10.0606 2.51995
177 2 3.71228 9.99984 3.51325
178 2 5.31381 9.1612 4.09957
179 2 6.7489 7.33383 7.45672
385 2 5.41015 12.8422 8.34003
183 2 6.74015 9.4078 8.30855
217 1 4.85637 9.91841 3.49478
181 2 8.61574 7.4244 7.32227
18 2 10.6972 9.86321 4.52584
249 3 3.05595 11.9421 1.95316
251 3 4.8809 8.1872 7.13683
268 3 6.05796 7.52791 4.89494
282 3 7.94922 7.74855 3.0295
283 3 8.90602 8.22731 0.644381
284 3 5.4289 12.9022 3.58946
285 3 3.66523 11.7018 5.36602
286 3 9.13986 11.7371 0.650012
287 3 7.3312 10.1259 1.75067
288 3 6.6457 12.6697 1.21702
289 3 10.1095 8.53804 7.30264
293 3 6.34656 11.1674 5.27696
294 3 8.40597 10.9372 6.91736
295 3 7.21995 13.2467 6.64875
105 2 4.46843 7.26939 2.265
24 4 11.8602 7.88662 10.1031
29 4 9.82515 12.1672 10.1718
62 4 5.80645 13.3043 14.0898
66 4 9.5769 7.3751 17.1647
77 4 4.57374 11.2104 10.2668
79 4 8.52089 8.81688 12.6814
80 4 4.22883 10.8306 15.4595
81 4 7.37289 11.7207 11.9802
157 2 4.05724 7.69808 12.5866
374 2 3.58554 13.1131 13.0743
106 2 4.08175 12.676 9.49728
152 2 6.26951 8.42821 10.4096
153 2 5.83581 7.84141 12.2731
154 2 4.48823 8.53295 10.9379
380 2 4.11271 8.19713 16.1086
182 2 7.97 8.16765 9.22442
184 2 7.49036 9.81689 10.0685
186 2 10.6402 10.24 13.098
187 2 10.8488 8.37392 12.8896
188 2 10.1488 9.03488 14.5335
189 2 5.26371 8.95647 14.5486
190 2 5.92431 9.2231 16.3664
191 2 6.62292 10.2466 14.7771
208 1 5.46125 7.9808 11.1445
221 1 10.2437 9.19529 13.4121
222 1 5.79082 9.70795 15.2988
269 3 11.0554 8.47303 16.5032
318 2 10.6023 10.0052 16.9716
291 3 4.46574 10.0615 9.22858
292 3 3.58689 10.8085 11.4006
296 3 7.59872 7.99781 13.9998
297 3 8.81484 7.90557 11.434
298 3 2.9909 9.84301 14.6075
299 3 4.92602 12.1706 14.9139
300 3 3.7482 10.8757 16.9783
301 3 8.48591 12.4394 10.9902
302 3 5.94506 11.5075 11.0616
303 3 7.80511 10.2789 12.4396
304 3 6.98545 12.7364 13.2421
290 3 9.81587 10.8367 9.23496
319 2 6.74686 10.9475 16.5307
175 2 11.0226 7.07245 14.06
219 1 7.6404 9.23828 9.11888
382 1 4.54309 7.16565 16.353
103 2 6.51951 7.26085 16.2505
82 2 10.9661 8.29062 8.69045
71 4 7.65159 6.7933 15.0668
383 2 5.19094 7.28567 17.2426
ITEM: TIMESTEP
100
ITEM: NUMBER OF ATOMS
386
ITEM: BOX BOUNDS xy xz yz pp pp pp
-7.6573267499999984e+00 1.6730561099999999e+01 -7.3500731999999998e+00
-1.7999999999999999e-02 1.3589000000000000e+01 -3.0725354999999865e-01
0.0000000000000000e+00 1.7316099999999999e+01 -1.7999999999999999e-02
ITEM: ATOMS id type x y z
1 4 -0.178817 1.05556 3.63056
2 2 0.89653 2.02706 2.58175
3 2 0.529852 2.22459 5.47477
239 3 5.16447 5.40672 6.53404
5 2 -0.180029 3.58279 4.31671
6 1 -0.336422 2.54176 4.72117
10 4 -0.848762 3.07313 8.15165
326 2 -0.474748 4.13181 1.81167
12 2 -0.222136 3.27239 6.5577
34 4 4.44405 0.494023 3.97792
36 4 3.98815 1.90394 8.49435
37 4 6.93212 1.62679 5.41647
40 4 5.21679 4.81922 1.43712
324 2 -1.2512 5.21866 0.354347
327 1 -0.272944 4.8675 0.781683
43 4 5.85065 3.94838 6.89961
87 2 2.76795 0.778725 7.63615
379 1 -3.13929 6.39867 1.52917
90 2 3.78225 2.05498 3.73334
108 2 -2.36332 5.13084 4.59527
120 2 5.02354 0.238057 6.85815
109 2 -1.04707 6.1257 3.6423
118 2 5.129 0.884932 1.8645
378 2 -2.69131 6.35033 2.68074
132 2 1.96342 4.43123 8.25574
126 2 5.55968 3.34512 3.31379
127 2 4.44214 2.54004 2.16055
128 2 3.70278 3.99873 3.36144
129 2 2.13477 4.84385 3.06801
130 2 1.19135 4.06936 4.55518
131 2 3.08534 4.52024 4.75786
133 2 3.4269 5.29019 7.26785
134 2 1.61614 5.94174 7.1003
192 1 -1.86557 6.16573 4.4952
377 2 -2.61936 5.62473 0.846308
322 2 2.74455 1.86188 0.489123
367 2 7.80592 0.108296 7.28118
199 1 4.63308 3.53713 2.70147
200 1 2.06749 4.69573 4.24809
201 1 2.37249 5.39967 7.79064
231 3 5.77373 0.572316 5.31238
235 3 4.03237 4.76949 0.289814
236 3 4.77978 2.90166 7.59101
237 3 6.41865 3.13172 5.43367
41 4 2.12545 6.63918 4.56142
320 2 0.82901 1.37463 0.851292
321 2 1.84477 2.84832 1.80543
323 1 1.7853 2.25911 0.869723
360 2 7.8808 0.313258 0.897102
325 2 0.508707 5.70261 0.848286
14 2 -1.02626 5.38172 8.18763
196 1 4.43676 0.0784247 7.83353
362 2 6.22427 1.04866 0.0288222
11 2 0.565476 2.06507 8.34757
47 4 0.570862 6.23984 15.0893
8 2 1.64632 3.08572 16.4416
9 3 -1.02498 2.58195 16.2094
13 2 -2.15533 4.87693 9.61412
92 2 -0.355155 6.18292 16.5797
15 2 -0.100573 4.3659 9.76547
16 1 -1.2405 4.63274 9.05817
26 4 -1.66722 4.68419 13.6214
333 2 -0.146881 0.564237 13.0076
38 4 7.87145 0.0252493 12.5692
84 2 -2.52692 5.81823 12.7706
85 2 -1.39368 3.71081 12.2412
89 2 6.04139 2.91151 10.0905
44 4 2.42641 6.45513 9.32472
123 2 4.81592 2.05389 11.223
124 2 3.01992 2.09804 10.5783
125 2 4.28937 3.5543 10.1532
346 2 1.20396 0.766666 9.24011
135 2 5.03638 2.55432 13.9605
136 2 3.92848 4.01998 13.6707
137 2 4.9774 3.9308 15.2444
337 2 4.03525 0.956892 14.6346
363 2 6.51888 1.61897 15.6906
198 1 4.14916 2.42563 10.3957
202 1 4.87856 3.60372 14.1568
42 4 2.98507 6.01528 16.7913
241 3 -0.342672 5.32389 14.1165
242 3 2.10391 5.67979 15.3696
243 3 3.48224 5.90321 10.4537
368 2 3.92869 0.492915 12.5655
334 2 0.535567 1.94978 14.1723
348 1 0.295859 0.175882 8.9483
336 1 0.0430831 0.926152 14.0599
365 1 5.93569 1.925 16.5899
338 2 3.25609 1.038 16.2901
339 2 2.71917 2.21463 14.9544
340 1 3.11872 1.15279 15.2033
119 2 5.26229 0.402444 9.17091
232 3 7.08669 0.853868 11.3005
91 2 0.789118 6.26868 9.61833
155 2 2.403 6.62967 12.8251
7 4 0.0447298 3.29529 17.1527
102 2 -3.53184 6.72184 16.8879
364 2 4.87487 2.3642 16.3495
17 4 -5.29124 12.1945 4.73877
351 2 -5.17003 12.5893 1.90797
330 2 -6.47067 12.4538 6.97607
357 2 -2.87141 12.605 2.18897
350 2 -4.57368 10.7749 1.86413
22 3 -4.02892 13.0194 4.26066
25 4 -0.861361 7.18749 5.71052
28 4 -2.21617 8.09834 8.2617
49 4 2.89947 7.76747 1.78924
50 4 0.182622 10.8288 3.87542
83 2 -1.27517 8.79153 4.94035
366 2 -3.20382 12.6007 7.94437
111 2 -4.42939 9.01435 7.2487
112 2 -3.07577 8.79732 5.98506
113 2 -2.96629 10.1832 7.26117
138 2 0.505821 10.1832 1.42165
139 2 -1.06481 9.44902 2.43451
140 2 0.742772 8.64099 2.65275
141 2 -1.14385 10.273 5.93081
142 2 -2.48356 10.3042 4.64101
143 2 -1.52314 11.9391 5.06379
144 2 -0.0208909 11.3716 6.89094
145 2 0.663289 12.6965 8.26131
146 2 -1.22423 12.5874 7.8443
158 2 0.535632 11.4442 0.55061
193 1 -3.34805 9.13702 7.01095
203 1 0.0722457 9.60606 2.39219
204 1 -1.46899 10.7494 4.95719
205 1 -0.207471 11.9721 7.88682
93 2 1.48163 12.1535 6.94148
329 2 -4.45273 12.6751 7.09734
245 3 2.01133 7.26456 3.12291
20 1 -5.52278 10.5145 3.78018
247 3 0.566896 12.5527 3.13738
248 3 2.98225 9.33383 1.47314
253 3 1.41356 10.4614 4.78887
352 1 -4.75615 11.7152 1.31284
349 2 -3.85332 12.0322 0.639444
331 1 -5.46233 12.0831 6.5896
332 2 -5.44248 10.9275 6.61845
376 2 -3.06796 7.43562 1.1497
343 2 -3.58371 10.3029 0.534194
19 2 -4.58366 10.2611 3.15695
195 1 -2.12163 13.4777 2.47559
21 3 -6.7926 13.4184 4.29724
342 2 -2.2551 8.85716 0.898915
117 2 -0.962101 13.0814 2.74851
225 3 -1.62597 7.06991 7.14353
238 3 3.48267 6.95307 5.32755
234 3 0.613188 6.86224 5.6593
345 2 -7.07038 13.4265 7.86151
110 2 -2.69211 6.91972 4.27251
246 3 2.3775 6.86042 0.491555
344 1 -2.83762 9.38246 0.0604362
254 3 2.82436 9.95451 6.98749
31 4 -6.17245 11.6712 0.0236745
160 2 -2.90024 13.3344 15.7056
27 4 -4.10537 8.2356 16.2385
30 4 -3.06014 9.57778 13.3548
161 2 -1.18222 12.9053 16.7145
32 4 -4.62159 12.0486 12.1739
23 4 -5.70508 13.5281 14.7522
53 4 -0.464455 10.4961 9.30129
55 4 1.98359 8.79715 13.8259
56 4 -1.05149 11.913 14.6178
57 4 1.85657 10.8907 11.5774
156 2 3.74422 6.97138 14.1519
150 2 -3.34653 13.5679 10.7785
94 2 0.083812 10.8278 15.4419
370 2 1.3261 11.8782 16.3467
114 2 -2.63292 8.19709 11.0589
115 2 -2.02799 7.59236 12.7836
116 2 -1.21408 9.0624 11.9601
147 2 -2.62914 10.37 10.4352
148 2 -1.85414 12.1764 9.81502
149 2 -1.29064 11.2667 11.5288
210 1 1.02185 11.0689 17.175
151 2 -2.21193 12.7317 12.037
159 2 -2.54151 11.5841 16.4662
369 2 0.911109 9.96283 16.8438
317 2 -4.51402 9.28151 10.9865
194 1 -2.16798 8.47207 12.062
206 1 -1.75633 11.1252 10.4786
207 1 -3.20126 13.2226 11.7988
209 1 3.15162 7.43816 13.2428
252 3 -1.1892 9.16891 8.7531
211 1 -2.06904 12.4907 16.0731
224 3 -3.34043 7.49269 9.336
226 3 -3.48504 8.50533 14.6764
227 3 -6.21989 12.6922 16.0539
228 3 -5.54791 12.2853 10.8638
229 3 -4.15703 10.132 12.3468
230 3 -5.12548 12.6315 13.6158
250 3 2.77099 7.9307 8.72956
341 2 -2.4672 9.79455 16.5357
255 3 0.749252 7.84662 14.6642
256 3 -2.03769 10.7402 13.9888
257 3 -0.293458 12.9949 13.7762
258 3 0.934404 10.391 10.0918
259 3 1.42451 9.59548 12.6061
35 4 7.41326 3.00312 0.244689
59 4 13.8075 0.853306 6.97392
61 4 12.2135 2.57414 4.87064
169 2 13.0318 5.40472 8.32022
67 4 11.0433 4.3619 7.11989
86 2 7.88162 1.99371 1.60213
95 2 9.35397 1.05196 8.42026
96 2 11.6752 1.70743 3.51002
97 2 13.2126 3.54062 3.93814
121 2 9.25177 1.11255 6.32168
167 2 13.3674 4.95953 6.58411
168 2 13.5185 3.51799 7.87299
170 2 8.77797 5.93055 4.85379
171 2 8.2286 5.02915 3.24792
172 2 7.32474 4.67959 4.86085
180 2 7.71844 6.21712 6.1721
214 1 12.9186 4.52723 7.54691
215 1 7.90619 5.4424 4.26405
361 1 9.08832 0.537895 1.01607
233 3 6.56064 4.1661 0.78125
122 2 7.9296 2.04971 7.53747
261 3 14.4846 2.17632 8.17928
263 3 13.0306 1.7708 5.89873
267 3 5.56719 6.11602 2.32956
270 3 10.4558 3.50954 8.28275
271 3 11.102 3.47853 5.52153
272 3 7.15445 4.08054 7.88267
274 3 10.4989 5.86079 6.79738
312 2 10.1448 6.58086 3.13812
308 4 12.3317 2.52938 0.586216
309 4 11.8582 5.58876 1.74259
4 2 15.3012 2.37886 5.12286
311 2 10.9125 5.27553 4.22252
88 2 8.16406 1.51144 4.18873
313 1 11.0845 6.08072 3.49959
314 3 12.6502 1.2752 1.55774
315 3 12.1619 4.0262 1.63102
316 3 10.8403 6.1899 0.630985
353 2 11.0496 0.311144 4.36399
354 2 9.29785 0.502293 5.05915
355 2 10.0132 1.88122 3.93692
356 1 10.0153 0.79403 4.20395
359 2 9.54089 1.54684 1.64703
386 3 15.0398 0.878972 2.98105
58 4 13.6078 0.226494 2.23013
358 2 9.79172 0.176106 0.161593
197 1 8.17967 1.18842 6.83581
218 1 7.7163 6.67965 7.24633
39 4 7.38708 2.43117 11.1268
46 4 6.39602 4.47464 13.3325
48 4 5.22529 6.21159 10.7653
60 4 9.99143 2.37686 9.35171
63 4 9.8072 2.71651 15.8748
64 4 12.499 3.07231 10.7718
306 3 13.2877 2.84278 16.9556
70 4 10.6985 4.62091 13.2303
307 3 13.61 1.15169 14.8901
72 4 9.55817 6.42809 11.0942
99 2 12.7198 4.2036 9.49357
373 1 11.7344 0.35872 12.829
244 3 5.68326 5.53498 12.1852
163 2 8.48263 0.909138 15.1054
335 2 15.9405 0.74755 14.777
165 2 13.872 1.23222 11.1597
166 2 14.3706 2.36203 12.5359
371 2 11.2386 1.40782 12.992
173 2 12.5497 5.9269 13.7878
174 2 11.2728 5.91329 15.1486
164 2 9.83604 0.125842 16.1484
162 2 10.4144 0.674265 14.3575
212 1 9.65418 0.861584 15.2967
213 1 14.0317 2.29463 11.4788
216 1 11.4575 6.10237 14.0534
98 2 8.93192 1.08465 13.4742
240 3 7.1089 3.08726 12.5335
384 2 12.0342 0.685177 8.83581
262 3 8.74555 2.57841 10.3107
264 3 10.7874 2.38243 17.0261
265 3 8.34231 3.21473 16.5904
266 3 11.3886 1.81589 10.0248
273 3 6.30215 5.88398 9.52886
275 3 10.2716 3.58029 14.5705
276 3 11.9287 3.7575 12.0748
277 3 7.1438 5.24032 14.4988
278 3 9.02098 6.63625 15.7358
223 3 14.1114 3.92768 14.5645
280 3 8.90915 5.84456 9.6376
281 3 9.59346 5.24661 12.2662
305 4 14.1279 2.67158 15.6414
381 2 5.23924 6.15385 15.6889
372 2 12.505 0.37405 11.9218
71 4 7.65243 6.69556 14.9823
375 2 14.7666 2.8953 10.7297
347 2 15.9903 0.629534 9.29563
68 4 7.6461 5.49826 8.67865
33 4 1.9619 13.0948 2.60138
45 4 4.91685 7.0993 5.97916
51 4 3.03179 10.7511 0.831109
52 4 3.7545 9.0891 7.98848
54 4 2.40309 10.9934 5.95968
65 4 6.83791 6.87646 3.66624
69 4 10.8252 7.28934 6.40191
73 4 8.47799 8.80252 1.96217
74 4 5.19584 11.6068 4.36508
75 4 7.57233 11.3239 0.751469
76 4 8.92908 9.93317 7.94533
78 4 7.78664 11.865 5.81228
101 2 12.532 7.47049 6.31812
100 2 10.4489 7.52677 4.77864
185 2 4.39016 13.1995 7.12767
104 2 9.85306 9.51373 2.75079
328 2 10.4094 11.0741 3.07137
107 2 8.92275 12.131 4.57498
176 2 5.09352 10.1364 2.59462
177 2 3.56669 9.89518 3.58424
178 2 5.11837 9.05172 4.20834
179 2 6.78805 7.28757 7.47235
385 2 5.73592 12.577 8.32655
183 2 6.54994 9.4241 8.2521
217 1 4.66762 9.98144 3.61192
181 2 8.67306 7.33279 7.4431
18 2 10.7136 9.66436 4.33374
249 3 3.00271 11.8878 2.05606
251 3 4.9739 8.21647 7.15205
268 3 6.04396 7.45538 4.93232
282 3 7.94945 7.94974 3.15477
283 3 8.8778 8.05221 0.659634
284 3 5.4335 12.9654 3.25573
285 3 3.68406 11.8751 5.33334
286 3 9.14645 11.4601 0.678059
287 3 7.28412 9.97127 1.78245
288 3 6.87977 12.7331 1.22634
289 3 10.1533 8.51312 7.2523
293 3 6.48558 11.2901 5.22346
294 3 8.46517 10.845 6.75632
295 3 7.42689 13.3554 6.60856
105 2 4.50274 7.25585 2.09751
220 1 5.11776 13.5294 7.99965
310 2 12.0557 6.8005 3.64214
82 2 11.0395 8.40909 8.61563
24 4 11.9836 7.91204 9.96664
29 4 9.82064 12.2689 10.1193
62 4 5.72889 13.3931 14.0919
66 4 9.62615 7.28873 17.0792
77 4 4.55787 11.1066 10.175
79 4 8.47306 8.67924 12.79
80 4 4.29967 10.7348 15.3797
81 4 7.25036 11.7447 11.9617
157 2 4.00477 7.74212 12.4819
374 2 3.68258 13.1014 12.7187
106 2 4.11649 12.551 9.45992
152 2 6.23079 8.52867 10.3275
153 2 5.78753 7.99263 12.1662
154 2 4.41345 8.40586 10.9266
380 2 4.25739 7.75169 15.4257
182 2 7.78843 8.24476 9.1438
184 2 7.35813 9.96525 9.85984
186 2 10.3179 10.1341 13.4933
187 2 10.8396 8.50542 12.6266
188 2 10.5516 8.58027 14.5047
189 2 5.48755 8.81758 14.6215
190 2 5.94728 9.20579 16.4531
191 2 6.74746 10.2028 14.997
208 1 5.45556 8.04625 11.0779
221 1 10.2596 8.98717 13.478
222 1 5.87252 9.58882 15.3581
269 3 11.0165 8.5045 16.5824
318 2 10.7599 10.09 16.8724
291 3 4.52721 10.147 8.96372
292 3 3.40301 10.9013 11.2574
296 3 7.60038 7.8841 13.8934
297 3 8.68105 7.8567 11.4744
298 3 3.18909 9.86205 14.6207
299 3 4.92918 12.2562 14.8907
300 3 3.8824 10.9157 17.039
301 3 8.49457 12.4124 11.1549
302 3 5.97521 11.4229 11.0115
303 3 7.9043 10.2813 12.4785
304 3 6.9487 12.6607 13.2906
290 3 9.74181 10.8009 9.11373
319 2 6.739 11.0127 16.4393
175 2 11.0457 7.14124 13.7819
219 1 7.47471 9.31601 8.88616
382 1 4.60232 6.9921 16.1324
103 2 6.51705 7.22611 16.2338
279 3 11.189 6.88754 10.7781
383 2 5.05732 7.39672 17.0756
260 3 1.435 12.449 11.9645
ITEM: TIMESTEP
200
ITEM: NUMBER OF ATOMS
386
ITEM: BOX BOUNDS xy xz yz pp pp pp
-7.6611534999999993e+00 1.6738922200000001e+01 -7.3537464000000003e+00
-1.7999999999999999e-02 1.3589000000000000e+01 -3.0740709999999893e-01
0.0000000000000000e+00 1.7316099999999999e+01 -1.7999999999999999e-02
ITEM: ATOMS id type x y z
1 4 -0.320563 1.2894 3.56324
2 2 0.882276 1.77277 2.38812
3 2 0.549035 2.47232 5.48282
239 3 5.23092 5.43144 6.59643
5 2 -0.290797 3.56486 3.89044
6 1 -0.42631 2.76647 4.83345
10 4 -0.927124 3.16229 8.15727
326 2 -0.656251 4.332 1.68217
12 2 -0.429437 3.65818 6.5798
34 4 4.42722 0.527941 3.95975
36 4 4.18778 1.94391 8.58214
37 4 6.99394 1.66818 5.45108
40 4 5.22957 4.84165 1.47324
324 2 -1.3055 5.6062 0.275677
327 1 -0.379876 4.97086 0.754421
43 4 5.82849 4.00651 6.90192
87 2 2.93037 0.874297 7.72892
379 1 -3.14831 6.31868 1.61823
90 2 3.81062 2.12947 3.75035
108 2 -1.85968 4.80857 4.99643
120 2 5.05638 0.198684 6.6815
109 2 -1.11534 5.8346 3.6702
118 2 5.35215 0.844647 1.80614
378 2 -2.66807 6.11537 2.67743
132 2 2.26238 4.37299 8.40022
126 2 5.70377 3.52684 3.42556
127 2 4.57231 2.48185 2.16789
128 2 3.7951 3.81329 3.28537
129 2 2.40658 4.80827 3.0991
130 2 1.32651 3.8993 4.39736
131 2 3.08913 4.28484 4.88913
133 2 3.59458 5.46132 7.3583
134 2 1.81866 5.89465 7.09313
192 1 -1.75067 5.87443 4.59367
377 2 -2.54607 5.7948 0.802434
322 2 2.88438 1.79423 0.692384
4 2 -1.47457 2.61425 5.23318
199 1 4.80839 3.46929 2.70754
200 1 2.21076 4.57595 4.25595
201 1 2.57481 5.45373 7.81761
231 3 5.82484 0.56013 5.26564
235 3 3.94517 4.9398 0.396202
236 3 4.69075 3.12222 7.62049
345 2 0.218689 0.09594 7.72665
41 4 2.03897 6.57032 4.54567
320 2 1.04062 1.46722 0.574631
321 2 1.7845 2.94832 1.67408
323 1 1.86163 2.3226 0.728555
360 2 8.02324 0.183885 0.705134
325 2 0.494743 5.59212 0.917164
11 2 0.471216 2.17438 8.32902
196 1 4.50109 0.0477963 7.73898
362 2 5.81186 1.11638 0.1157
110 2 -2.70853 6.39857 4.42267
47 4 0.611678 6.10767 15.0052
8 2 1.66913 3.52202 16.6352
9 3 -1.05849 2.71592 16.078
13 2 -2.30044 4.69838 9.63192
92 2 -0.221296 6.15256 16.5393
15 2 -0.541349 4.1434 10.2089
16 1 -1.20525 4.56426 9.34016
26 4 -1.70114 4.68013 13.5841
333 2 -0.348848 0.355144 13.2721
156 2 3.45963 6.66769 13.8199
84 2 -2.51919 5.83385 12.6479
85 2 -1.41333 3.45984 12.3355
89 2 5.93293 2.97423 10.2759
44 4 2.44851 6.49238 9.35336
123 2 4.58641 2.03318 11.2545
124 2 2.87472 2.09164 10.4595
125 2 4.04307 3.60809 10.4302
346 2 1.21101 0.745564 9.3226
135 2 5.18829 2.49555 14.3115
136 2 4.19858 3.75577 13.2086
137 2 4.71096 4.15808 15.0297
337 2 3.95597 1.12152 14.4572
363 2 6.07995 1.42755 15.6093
198 1 4.01268 2.48683 10.4229
202 1 4.93789 3.57388 14.0984
42 4 2.98791 5.97526 16.7255
241 3 -0.372545 5.28846 14.0229
242 3 2.0316 5.38284 15.4327
243 3 3.60147 5.95441 10.4189
368 2 3.62081 0.681495 12.3826
334 2 0.537699 1.90566 14.2048
348 1 0.227343 0.262843 8.90806
336 1 -0.0663713 0.87965 14.2512
365 1 5.75477 1.85154 16.5957
338 2 3.40486 1.11861 16.275
339 2 2.44226 2.05438 14.9519
340 1 3.07438 1.12573 15.1621
119 2 5.56136 0.344311 8.80791
232 3 6.96936 0.667822 11.4093
91 2 0.903052 6.58574 10.1376
364 2 4.96527 2.7434 16.445
7 4 -0.0485473 3.34774 17.1736
155 2 2.2617 6.72257 12.3327
14 2 -0.813106 5.44068 8.70303
17 4 -5.52041 12.3173 4.61781
351 2 -5.31858 12.4653 1.96741
330 2 -6.38553 12.7739 6.93693
357 2 -2.63465 12.6825 2.09734
350 2 -4.22025 10.8396 1.9106
22 3 -4.13158 13.0641 4.1973
25 4 -0.801063 7.12933 5.65247
28 4 -2.22469 8.13028 8.2143
49 4 2.76951 7.74233 1.76574
50 4 0.283196 10.7379 3.84779
83 2 -1.1389 8.70487 5.00993
366 2 -3.17241 12.5419 7.82193
111 2 -4.51923 9.14954 7.09398
112 2 -2.95505 8.79501 6.03753
113 2 -3.01315 10.1619 7.34403
138 2 0.433791 10.0982 1.39073
139 2 -1.17096 9.48481 2.19735
140 2 0.451565 8.70225 2.5518
141 2 -0.990644 10.3535 6.05634
142 2 -2.2348 10.1634 4.57791
143 2 -1.56355 11.7817 4.98373
144 2 -0.0860125 11.1428 6.86775
145 2 0.7776 12.2614 8.19546
146 2 -1.18255 12.5443 7.77627
158 2 0.577813 11.5985 0.370307
193 1 -3.42526 9.11606 7.08085
203 1 -0.0690879 9.61852 2.32972
204 1 -1.3329 10.6624 4.95649
205 1 -0.199512 11.7734 7.83961
93 2 1.45349 11.9301 6.79483
329 2 -4.47586 12.7522 6.91565
245 3 1.90205 7.34061 3.0374
246 3 2.37788 6.89725 0.474669
247 3 0.637438 12.4643 3.20985
248 3 2.89426 9.2798 1.31875
253 3 1.55377 10.236 4.79559
352 1 -4.64528 11.7463 1.2694
349 2 -3.90723 12.4234 0.678191
331 1 -5.4704 12.2595 6.44364
332 2 -5.49461 11.0259 6.46305
376 2 -3.38224 7.38447 1.41938
343 2 -3.44013 10.4039 0.38952
19 2 -4.7776 10.373 3.07506
195 1 -1.98665 13.5804 2.50094
21 3 -7.05855 13.543 4.26848
342 2 -2.1873 8.89449 0.57472
117 2 -0.87688 13.12 2.79086
225 3 -1.52011 7.01879 7.2075
238 3 3.41818 6.95838 5.18931
234 3 0.730442 6.81515 5.52053
105 2 4.37462 7.22377 2.16498
367 2 0.452571 13.5793 7.30257
160 2 -2.85422 13.3574 15.7964
27 4 -4.08025 8.32216 16.2407
30 4 -3.06757 9.6198 13.3133
161 2 -1.0208 13.1709 16.5376
32 4 -4.68262 12.1491 12.0628
31 4 -6.37968 11.6302 17.3029
53 4 -0.415273 10.4835 9.3955
55 4 2.00004 8.64202 13.831
56 4 -1.15345 11.7777 14.6865
57 4 1.84736 10.8927 11.5831
260 3 1.44606 12.3293 12.0822
259 3 1.32783 9.66671 12.7901
94 2 0.167026 10.8329 15.2938
370 2 1.5414 11.3607 16.1429
114 2 -2.20682 8.79535 11.3455
115 2 -1.60361 7.72846 12.933
116 2 -0.656368 9.33226 12.4394
147 2 -2.64767 10.6185 10.4185
148 2 -1.62213 12.2909 10.2243
149 2 -1.45689 11.147 11.7504
210 1 1.01702 10.9601 17.0633
151 2 -2.32986 13.1236 12.577
159 2 -2.39928 11.778 16.711
369 2 0.701342 9.84043 16.8681
317 2 -4.50121 9.24103 10.988
194 1 -1.67756 8.78464 12.4381
206 1 -1.65899 11.1757 10.6581
207 1 -3.24922 13.1996 12.0359
209 1 2.96013 7.32017 12.9454
252 3 -1.0922 9.21601 8.76293
211 1 -2.00299 12.6346 16.0863
224 3 -3.2839 7.48346 9.58263
226 3 -3.64633 8.4472 14.6706
227 3 -6.09744 12.6516 16.1018
228 3 -5.64937 12.349 10.7852
229 3 -4.16206 10.228 12.2949
230 3 -5.32466 12.7121 13.4132
250 3 2.89348 7.89913 8.73692
341 2 -2.34268 9.99637 16.4156
255 3 0.890744 7.70311 14.6711
256 3 -2.18167 10.7543 14.0722
257 3 -0.683605 12.8186 13.6567
258 3 1.04488 10.5782 10.1282
38 4 0.422932 13.5328 12.5527
344 1 -3.07156 9.54513 17.1594
150 2 -3.03288 13.2318 10.8837
102 2 -3.49587 6.80095 17.0452