ITEM: TIMESTEP
0
ITEM: NUMBER OF ATOMS
386
ITEM: BOX BOUNDS xy xz yz pp pp pp
-7.6535000000000002e+00 1.6722200000000001e+01 -7.3464000000000000e+00
-1.7999999999999999e-02 1.3589000000000000e+01 -3.0709999999999998e-01
0.0000000000000000e+00 1.7316099999999999e+01 -1.7999999999999999e-02
ITEM: ATOMS id type q x y z
108 2 0.153178 -3.18231 5.94735 5.18468
2 2 -0.0603347 -0.156253 2.04241 1.9455
234 3 -0.787881 0.571721 6.02156 5.74231
4 2 0.105146 -0.191578 3.25435 4.16128
5 2 0.142521 0.0068152 1.64181 5.47077
6 1 -0.649036 -0.812503 2.50101 4.86796
10 4 0.695354 -0.294549 2.95024 8.11072
246 3 -0.836236 2.32164 6.49171 1.0686
12 2 -0.00660806 0.179808 3.17942 6.45518
34 4 0.992914 4.3572 0.956569 3.47078
36 4 0.80956 4.02452 1.98463 8.25154
326 2 0.131493 -0.558407 4.61781 2.12396
109 2 0.147278 -1.7857 5.18177 3.99688
41 4 1.21204 1.96871 6.09338 4.67041
21 3 -0.790113 0.17744 0.0122665 3.91941
327 1 -0.68838 -0.161972 4.87918 1.0772
87 2 0.016894 2.70927 0.972224 7.57537
7 4 0.815147 0.387413 2.96308 0.512024
90 2 0.00634342 3.68702 2.55795 3.31088
118 2 0.129368 4.49102 0.988697 1.21955
197 1 -0.652774 7.61792 0.375789 6.29653
238 3 -0.862203 3.51236 6.17235 5.32775
133 2 0.236996 3.31524 4.84086 7.20035
322 2 0.143763 3.15229 2.78484 1.12974
235 3 -0.809792 4.5164 5.03798 0.0723624
126 2 0.154242 5.78312 3.03301 2.74767
127 2 0.149596 4.06305 3.38494 1.98362
128 2 0.165231 4.82342 4.29973 3.53788
129 2 0.163118 1.1655 4.75084 2.55702
130 2 0.123881 1.57351 3.86343 4.36517
131 2 0.161785 3.19076 4.40351 3.15269
132 2 0.108319 1.95751 3.9654 8.19656
134 2 0.248343 1.51908 5.36633 7.03334
37 4 1.05619 7.09093 1.72265 5.08231
324 2 0.166967 -0.951963 5.18148 0.410962
362 2 0.15481 6.0124 1.43764 0.36883
120 2 0.180485 4.84072 0.00431271 6.96253
199 1 -0.706727 5.00317 3.79867 2.5539
200 1 -0.652075 2.006 4.63632 3.53021
201 1 -0.716498 2.2986 4.90288 7.70527
231 3 -0.779714 5.7703 1.18667 4.45166
325 2 0.238967 0.835468 5.55034 1.08821
236 3 -0.838887 4.78922 2.99675 7.3069
376 2 0.118333 -3.07079 6.53198 1.61753
192 1 -0.66106 -2.19979 6.1103 4.57006
320 2 0.186427 2.18353 1.15633 1.33181
321 2 0.143758 1.7948 2.42969 2.54742
323 1 -0.687189 2.13911 2.24766 1.49343
11 2 -0.0272202 0.912806 1.79392 8.59608
195 1 -0.664134 5.10321 0.301458 1.89124
14 2 0.172023 -0.450284 5.24702 8.22181
360 2 0.144753 7.38671 0.33975 1.02365
122 2 0.163076 7.42692 0.659277 7.4087
117 2 0.153408 6.2687 0.419795 1.7963
3 2 0.158755 -1.40262 3.01186 5.70272
43 4 1.46752 6.08237 3.84777 6.89548
378 2 0.184191 -2.54334 5.18974 0.266979
160 2 0.174146 5.09505 0.916055 14.9017
91 2 0.0138665 0.752151 5.88693 9.32822
9 3 -0.749463 -0.554941 2.26235 16.538
13 2 0.158208 -1.54538 4.63145 9.82588
156 2 0.237025 2.53094 6.31045 13.7941
15 2 0.103907 0.428756 4.29191 9.78248
16 1 -0.625902 -0.58321 4.47725 9.13227
26 4 0.966628 -1.7944 4.67352 14.2463
23 4 1.1495 1.3423 0.265611 14.3571
47 4 1.22631 0.586826 6.40379 15.4515
42 4 1.16048 3.06492 6.05275 17.0128
85 2 -0.00996554 -2.01735 4.74824 12.556
119 2 0.0941938 5.25242 0.325665 8.99016
375 2 0.147833 -1.49741 3.84749 11.051
123 2 0.161106 4.07252 1.4089 10.7308
124 2 0.131682 2.85941 2.85489 10.0076
125 2 0.193985 4.71732 3.1576 10.4446
232 3 -0.860414 7.30965 0.723813 11.3477
135 2 0.18919 5.88426 1.69499 13.2409
136 2 0.181536 4.53457 2.96852 13.5484
137 2 0.181041 5.75236 2.36009 15.003
44 4 1.087 2.41339 6.18806 9.08601
368 2 0.171487 3.73508 0.5149 12.3827
198 1 -0.677422 3.96235 2.38361 10.1023
202 1 -0.670502 5.54328 2.58818 13.8752
346 2 0.140496 1.55926 0.436872 9.44274
241 3 -0.836522 -0.609304 5.6468 14.7275
242 3 -0.782464 1.92047 5.61203 15.5643
243 3 -0.775509 3.35183 5.72886 10.2672
364 2 0.196859 5.46718 2.99946 16.696
334 2 0.167426 0.489684 1.14177 12.1394
335 2 0.223253 -0.358443 1.93866 13.6251
336 1 -0.65411 -0.110806 1.04557 13.0576
337 2 0.166601 2.42613 2.49936 13.8935
338 2 0.171068 3.29951 1.37751 15.1711
339 2 0.211773 1.77025 2.39604 15.6361
340 1 -0.661678 2.28042 1.83712 14.8154
363 2 0.16382 6.68192 1.60565 16.0915
92 2 0.0188954 -0.151112 6.30305 17.0238
365 1 -0.691453 6.19518 2.13076 16.995
244 3 -0.812174 5.40478 4.82905 12.1528
347 2 0.192683 -0.354777 0.442142 9.512
223 3 -0.852234 -1.9187 3.20999 14.7125
8 2 0.0554267 1.71378 3.3848 17.2863
17 4 0.984088 -5.46569 12.678 4.4166
342 2 0.145668 -2.09037 9.59701 2.0282
20 1 -0.672478 -5.57137 10.9489 3.44398
349 2 0.16379 -4.53699 13.4969 0.401223
105 2 0.091465 4.33086 7.06037 2.79569
367 2 0.192988 -0.325608 12.9739 5.9861
366 2 0.14983 -3.43414 12.4968 8.07595
28 4 1.19664 -2.46431 8.37212 8.05146
49 4 1.20488 2.81797 7.56366 2.22532
50 4 1.1327 0.0620473 11.0194 4.30002
83 2 0.0158124 -0.553462 8.42626 4.82776
19 2 0.152355 -4.65563 10.7763 2.79242
111 2 0.168285 -4.83616 9.04809 7.16815
112 2 0.142555 -3.1866 9.11029 5.92581
113 2 0.165196 -3.49142 10.4787 7.17609
138 2 0.176808 -0.360597 9.9652 2.20128
139 2 0.128339 -1.42163 8.96951 3.27037
140 2 0.25176 0.477994 8.70244 3.32585
141 2 0.177825 -1.6828 11.2706 6.23885
142 2 0.136802 -2.15871 10.6665 4.51759
143 2 0.23005 -1.81813 12.5519 4.92093
144 2 0.165169 0.0493728 11.5685 7.28628
102 2 0.0967198 -3.18875 8.71261 0.407914
146 2 0.171159 -1.2813 12.598 8.15225
158 2 0.158009 0.846922 11.1838 0.498006
193 1 -0.669606 -3.62119 9.36911 6.9517
203 1 -0.6905 -0.422363 9.43896 3.14492
204 1 -0.676042 -1.55508 11.4804 5.17103
205 1 -0.676807 -0.275234 12.0431 8.29877
225 3 -0.777401 -1.81456 7.21144 7.01518
329 2 0.171099 -6.58964 12.8471 6.65214
245 3 -0.791602 1.86748 7.47403 3.61084
110 2 0.105348 -2.28714 7.07062 3.81115
247 3 -0.785173 0.581571 12.1616 3.35298
248 3 -0.840541 3.03817 8.98024 1.55027
253 3 -0.805479 1.186 10.7064 5.48196
93 2 -0.0122301 1.64358 11.6053 7.98438
330 2 0.160276 -5.47933 11.184 6.13143
331 1 -0.629367 -5.53525 12.4584 6.21714
332 2 0.180965 -4.53321 12.8543 6.82429
25 4 0.96845 -0.933681 6.89156 5.62247
343 2 0.129683 -4.07381 9.75555 1.89678
344 1 -0.664937 -3.14942 9.7107 1.25046
22 3 -0.759407 -4.08683 13.502 4.0133
350 2 0.147045 -4.60829 11.8828 1.29206
351 2 0.181031 -6.01527 13.0948 1.68341
352 1 -0.688029 -5.21351 12.7256 0.931211
357 2 0.174106 -2.55926 12.8003 1.85543
341 2 0.129646 -3.00515 10.6595 0.695164
196 1 -0.651443 -3.06828 13.574 7.96542
345 2 0.177371 -6.91367 13.2775 7.91546
155 2 0.196483 2.6117 7.21306 12.1182
27 4 0.976573 -4.72344 9.16158 16.5227
30 4 1.22505 -2.93967 9.62055 13.9657
31 4 1.03183 -6.73487 12.052 16.9767
32 4 1.25782 -4.65257 11.9475 12.3316
38 4 1.28706 0.627621 13.3545 12.4409
53 4 1.16754 -0.553098 10.5722 9.5187
55 4 1.3151 1.95216 8.78323 13.8645
56 4 1.05007 -0.971355 12.1958 14.8743
57 4 1.46147 1.68654 10.569 11.4852
175 2 0.151356 -3.69818 7.06071 13.9924
370 2 0.200763 1.46713 10.6657 16.1975
94 2 -0.0130784 0.156521 11.7295 16.103
318 2 -0.0744965 -5.70423 10.6084 16.7279
114 2 0.138784 -2.53039 7.77207 12.4649
115 2 0.163865 -2.13436 7.24942 14.3709
116 2 0.235125 -0.928981 8.43314 13.5019
147 2 0.196694 -1.37005 10.1245 11.6312
148 2 0.200255 -2.77846 11.0108 10.8188
149 2 0.183274 -1.362 12.0264 11.4386
150 2 0.146009 -3.54073 13.1576 10.6751
151 2 0.197584 -2.16784 12.9335 12.1138
159 2 0.20452 -3.3556 12.8396 15.1083
252 3 -0.788483 -1.47529 9.51976 8.72607
161 2 0.129765 -2.13345 13.3653 16.5406
194 1 -0.679215 -2.01142 8.03719 13.5135
206 1 -0.663617 -1.72176 11.0135 11.001
207 1 -0.655225 -3.2705 13.1527 11.8163
209 1 -0.695354 2.89562 7.26829 13.2339
211 1 -0.651357 -2.37255 13.3749 15.3933
380 2 0.217699 3.25802 8.39469 16.6866
224 3 -0.817495 -3.55274 7.68836 9.31461
226 3 -0.812581 -3.98335 9.2401 15.1249
227 3 -0.752023 -6.63674 13.0426 15.7021
228 3 -0.865839 -5.75218 11.9244 11.193
229 3 -0.775557 -3.80983 10.2382 12.6919
230 3 -0.821691 -5.17131 12.8035 13.5571
259 3 -0.822786 1.27425 9.48716 12.6661
317 2 0.055945 -4.27479 9.09256 11.552
255 3 -0.787112 0.845398 7.95893 15.043
256 3 -0.763312 -1.71994 10.8862 14.4611
257 3 -0.833126 -0.175999 12.991 13.743
258 3 -0.805608 0.860454 10.1621 10.0019
250 3 -0.792699 2.76001 7.66121 8.71846
348 1 -0.674098 -6.77708 13.5696 9.10658
260 3 -0.866572 1.37412 12.0661 11.929
145 2 0.152736 0.532079 12.7046 8.69186
210 1 -0.665554 1.0395 10.3527 17.2299
157 2 0.160783 3.99339 7.39409 13.3303
369 2 0.19506 0.368973 9.42973 17.1629
35 4 1.08254 7.85011 3.22848 0.459384
59 4 1.27834 13.8957 0.845824 7.40784
61 4 1.03156 12.62 2.59359 5.2981
354 2 0.143794 9.89533 1.71093 4.37997
67 4 1.29138 11.5145 4.52774 7.24147
86 2 -0.0270221 7.95367 1.90895 1.63246
40 4 1.30092 5.72052 5.16668 1.37872
96 2 0.0447702 11.7213 1.79205 4.06455
97 2 0.0116952 14.0663 3.10048 4.5319
379 1 -0.674517 13.3838 5.94364 0.577376
359 2 0.152858 9.27633 1.01477 1.00786
121 2 0.131963 8.78317 0.45758 5.98203
170 2 0.184012 9.23499 5.56075 3.74489
171 2 0.179354 7.44467 4.68868 3.44051
172 2 0.206809 7.88624 5.26939 5.24569
356 1 -0.698731 10.0181 0.830151 3.69277
214 1 -0.683726 13.2855 4.88528 8.02627
215 1 -0.650459 8.06281 5.44957 4.08732
88 2 -0.00579854 8.31765 1.73081 3.77682
233 3 -0.813987 7.12712 4.60762 1.02229
270 3 -0.80345 10.9188 3.46879 8.37667
167 2 0.180457 13.8379 4.96115 7.01471
263 3 -0.850523 13.015 1.46044 6.2611
267 3 -0.828182 5.78128 6.4461 2.23662
272 3 -0.803912 7.31028 3.82093 8.39876
271 3 -0.850331 11.7931 3.77446 5.78425
361 1 -0.689498 8.48367 0.121841 0.910406
274 3 -0.817588 10.656 5.96393 7.00646
237 3 -0.824866 6.98368 3.18558 5.72573
308 4 1.47423 12.4979 2.31667 0.583017
309 4 1.16797 11.7679 5.30802 1.40461
310 2 0.203432 10.82 4.89367 3.66362
239 3 -0.879142 5.73844 5.32682 6.5521
180 2 0.216002 8.28993 6.07077 6.74986
313 1 -0.681147 11.2276 5.8524 3.34329
314 3 -0.825095 12.2953 1.06464 1.57619
315 3 -0.795619 11.9881 3.80375 1.52328
316 3 -0.782815 10.5719 5.88796 0.507638
311 2 0.16149 10.4601 6.71256 3.1063
386 3 -0.851247 14.3597 0.768592 3.24985
355 2 0.232458 10.7736 0.980818 2.91064
261 3 -0.736876 15.0102 2.13107 8.16673
218 1 -0.665893 7.97595 6.54288 7.70004
168 2 0.197391 13.6375 4.04144 8.6381
45 4 1.51065 4.94766 6.5837 5.97539
312 2 0.143892 12.1345 6.12337 3.95381
1 4 1.02438 15.8821 1.19202 3.42869
169 2 0.24272 13.3235 5.86952 8.57621
306 3 -0.8345 13.9927 2.61219 0.106509
39 4 1.23419 7.81983 2.23573 10.8345
46 4 1.31184 6.5072 4.03815 12.9979
371 2 0.204958 12.2948 1.82555 13.701
60 4 1.27268 10.6179 2.3138 9.45532
63 4 1.33736 10.0469 2.82982 15.8458
64 4 1.0718 12.5885 3.67591 11.1521
68 4 1.38334 7.61761 5.27276 9.07961
70 4 1.3824 10.9716 5.057 13.6075
305 4 1.4349 14.5654 2.16499 15.9259
72 4 1.50579 9.62372 6.52631 11.257
99 2 0.0360028 12.5688 4.95437 9.88105
166 2 0.199944 14.5577 2.90595 12.5418
162 2 0.182288 10.065 0.868971 14.5323
163 2 0.220331 8.90275 2.19392 13.7694
164 2 0.187966 8.34812 1.11573 15.2598
165 2 0.187604 14.3028 2.14325 10.8456
377 2 0.172366 12.8073 6.6397 17.1157
374 2 0.180163 11.1816 0.430392 12.8453
333 2 0.277862 15.7501 0.271609 13.0146
307 3 -0.758326 14.0271 0.758657 15.3238
98 2 0.0213295 9.41771 0.609226 12.8916
185 2 0.167388 12.3005 0.339562 9.57122
212 1 -0.686365 9.12945 1.53666 14.6196
213 1 -0.690591 14.3999 3.1361 11.4535
48 4 1.26426 5.07226 5.98969 10.8636
89 2 0.0753873 6.76349 2.81145 9.58648
240 3 -0.804628 7.67068 3.23057 12.161
372 2 0.195831 12.9401 0.830564 12.0749
262 3 -0.851537 9.29047 2.15312 10.2115
264 3 -0.823125 11.1579 1.97494 16.5832
265 3 -0.779891 8.73178 3.21995 16.7623
266 3 -0.815893 11.8358 2.46708 10.5603
273 3 -0.826017 6.24866 5.84169 9.76264
275 3 -0.797248 10.5942 4.1656 14.8479
276 3 -0.820682 12.0213 4.30786 12.5948
277 3 -0.731303 7.08327 5.06347 14.3523
373 1 -0.640825 12.1977 0.86952 13.0487
71 4 1.32388 7.189 6.55083 14.9655
280 3 -0.782079 8.86326 5.43629 10.1457
281 3 -0.79714 9.79351 5.77952 12.7635
173 2 0.195269 11.8966 6.27053 15.4516
278 3 -0.797053 8.51178 6.65152 15.867
216 1 -0.63425 11.8629 6.61952 14.3158
103 2 -0.000718047 5.76774 6.73233 15.9364
84 2 -0.0144687 13.4711 5.50612 14.6664
95 2 -0.017665 11.0082 0.829999 8.68658
33 4 1.08268 1.81291 12.9612 2.50213
295 3 -0.842068 7.54527 13.3056 6.86394
65 4 1.30757 6.96919 6.96402 3.72664
100 2 0.00456518 10.2804 6.96704 4.71185
182 2 0.231043 6.92012 8.58862 8.22953
385 2 0.182701 4.6282 13.2175 7.76095
69 4 0.972837 10.7686 7.27018 6.29949
73 4 1.28834 8.4935 8.84251 1.94737
74 4 1.33347 4.93521 11.6587 4.79582
75 4 1.31072 7.40132 11.3077 0.79533
76 4 1.25761 9.06195 9.8149 7.67515
78 4 1.27188 7.72909 11.9963 5.94707
289 3 -0.803769 9.98308 8.47739 6.95162
58 4 1.56528 5.90786 13.5222 2.46858
18 2 0.145768 10.9 10.0819 4.08022
104 2 -0.00873304 9.83529 9.73198 2.67702
268 3 -0.835596 6.0148 7.3541 4.8824
107 2 0.0964258 8.72113 12.4065 4.5536
176 2 0.239983 4.82722 9.15755 4.47102
177 2 0.225308 5.04169 10.1481 2.90638
178 2 0.236449 3.35895 10.0662 3.63253
179 2 0.252941 7.02004 7.11312 7.61408
52 4 1.48796 3.92626 8.68475 7.98686
288 3 -0.853522 6.64363 12.4738 1.49452
217 1 -0.667467 4.48571 10.0905 3.86698
293 3 -0.841622 6.2849 11.422 5.49522
294 3 -0.842001 8.69433 10.8391 6.55379
249 3 -0.772004 2.78284 11.7193 1.90344
251 3 -0.811479 4.98311 7.6976 7.27496
51 4 1.32557 2.99162 10.4914 0.862289
282 3 -0.848698 8.08657 7.93612 3.14569
283 3 -0.85232 9.09751 8.04761 0.752412
284 3 -0.832867 5.04154 12.802 3.61994
285 3 -0.785439 3.5081 11.9337 6.09775
286 3 -0.860373 8.87418 11.6902 0.306049
287 3 -0.856118 7.32567 9.89428 1.4741
220 1 -0.68617 5.37922 13.4087 8.6432
353 2 0.201367 2.86942 13.4572 4.4112
54 4 1.25833 2.34796 10.9591 6.54473
181 2 0.234172 8.83935 7.20298 8.12029
254 3 -0.815831 3.16272 9.6721 6.83892
328 2 0.138921 10.2051 11.4593 2.79968
101 2 -0.0304357 12.358 7.75809 5.90449
24 4 0.999616 12 8.1454 10.1992
29 4 1.32026 9.8735 11.9517 10.1217
62 4 1.25594 5.79207 13.2516 14.1059
184 2 0.242452 8.03681 8.67993 9.771
77 4 1.2913 4.56754 10.7572 10.1602
79 4 1.32401 8.10647 8.60011 12.8785
80 4 1.29118 4.09982 10.822 15.2332
81 4 1.55719 7.16514 11.49 11.7214
82 2 0.0803384 11.1762 9.41979 9.41866
279 3 -0.866607 11.0328 7.04731 10.6402
106 2 -0.0140629 3.95458 12.1051 9.25817
152 2 0.236178 6.02334 8.26082 10.7838
153 2 0.208456 5.68608 7.60547 12.5443
154 2 0.214243 4.24888 8.2106 11.4141
290 3 -0.770871 10.0637 10.5571 8.94674
382 1 -0.699081 4.07115 7.63074 16.4576
183 2 0.210441 7.20458 10.2627 9.02861
186 2 0.187124 9.62577 10.2193 13.8925
187 2 0.171366 10.6027 8.77005 13.0896
188 2 0.214143 9.8356 8.61131 14.7806
189 2 0.186634 5.4541 9.0792 14.3497
190 2 0.158373 5.84319 9.35507 16.1413
191 2 0.201175 6.65907 10.4763 14.8787
208 1 -0.686795 5.2878 7.70386 11.4784
221 1 -0.697968 9.779 9.11636 13.8203
222 1 -0.670223 5.74571 9.89171 15.1468
269 3 -0.858569 10.9199 8.03841 16.6093
291 3 -0.852615 4.76318 9.58728 9.14179
383 2 0.172667 4.98114 7.76733 17.1226
292 3 -0.807615 3.40701 10.4484 11.2151
296 3 -0.879624 7.26727 7.65053 13.8907
297 3 -0.847898 8.67802 7.81673 11.4528
384 2 0.199282 6.0463 12.4817 8.81745
299 3 -0.811149 4.67927 12.2952 14.6651
300 3 -0.786534 3.69789 10.8368 16.945
301 3 -0.833179 8.40219 11.8478 10.7275
302 3 -0.861055 5.85253 11.396 10.8707
303 3 -0.820875 7.40648 10.0584 12.5037
304 3 -0.796672 7.04328 12.6511 12.9067
319 2 0.0392719 6.41991 11.1013 16.5922
381 2 0.158168 4.30245 7.55765 15.3996
66 4 1.54059 9.60624 7.1247 17.0068
174 2 0.205815 11.0162 7.51662 14.1599
219 1 -0.68523 7.67172 9.19812 8.79812
298 3 -0.825812 2.94325 9.9212 14.5142
358 2 0.165276 1.05088 13.129 17.2996
ITEM: TIMESTEP
100
ITEM: NUMBER OF ATOMS
386
ITEM: BOX BOUNDS xy xz yz pp pp pp
-7.6535000000000002e+00 1.6722200000000001e+01 -7.3464000000000000e+00
-1.8005999999999998e-02 1.3593529666666667e+01 -3.0709999999999998e-01
0.0000000000000000e+00 1.7316099999999999e+01 -1.8005999999999998e-02
ITEM: ATOMS id type q x y z
108 2 0.180364 -2.97118 5.42411 4.73678
2 2 -0.049175 -0.13902 2.03754 2.00154
234 3 -0.790898 0.569318 5.95395 5.57694
4 2 0.122866 -0.322142 3.33414 4.10252
5 2 0.136408 -0.0191896 2.08043 5.44144
6 1 -0.690332 -0.813737 2.54616 4.83154
10 4 0.676008 -0.547726 2.95353 8.05106
246 3 -0.816078 2.4234 6.55602 1.12703
12 2 -0.0119979 -0.131054 3.46684 6.50043
34 4 1.01032 4.33936 0.881258 3.53565
36 4 0.803567 4.03434 1.9879 8.27291
326 2 0.153937 -0.602691 5.13593 2.20392
109 2 0.159033 -1.46717 5.44217 3.7433
41 4 1.21637 1.94571 6.07488 4.70547
378 2 0.185988 -2.18333 5.58353 1.20812
327 1 -0.698858 -0.194716 5.03392 1.20185
87 2 0.0268349 2.78855 0.804788 7.5226
7 4 0.770613 0.41801 3.03349 0.586764
90 2 0.00888227 3.69236 2.43161 3.39696
118 2 0.129128 4.36408 1.22566 1.26774
197 1 -0.663453 7.79713 0.426669 6.32418
238 3 -0.786591 3.35303 6.31836 5.47589
133 2 0.23035 3.34821 4.86973 7.46807
322 2 0.147834 3.01031 2.59697 1.2865
235 3 -0.808943 4.5526 5.07559 0.120258
126 2 0.144921 5.76478 3.09052 2.85461
127 2 0.146788 3.96569 3.3151 2.06751
128 2 0.153293 4.63318 4.65827 3.34513
129 2 0.16616 1.05284 4.67795 2.71611
130 2 0.147706 1.6487 3.75473 4.38121
131 2 0.161943 2.97082 4.32046 3.22017
132 2 0.114568 2.01109 4.0374 8.49537
134 2 0.225629 1.47796 5.06758 7.08634
37 4 1.03342 7.15318 1.64361 5.03894
324 2 0.145325 -0.939545 5.19309 0.374876
362 2 0.149516 5.88507 1.59698 0.524684
8 2 0.0610557 2.07844 3.68308 0.28794
199 1 -0.687636 4.89197 3.80086 2.58061
200 1 -0.678214 1.88476 4.53422 3.62444
201 1 -0.690352 2.272 4.91127 7.89524
231 3 -0.764934 5.7552 0.951332 4.48367
325 2 0.228921 0.861063 5.60815 1.11931
236 3 -0.82778 4.82627 2.9342 7.32848
22 3 -0.757827 3.07904 0.0177819 4.01235
192 1 -0.680256 -2.09611 6.05393 4.42678
320 2 0.179985 1.93994 1.06666 1.13564
321 2 0.141884 1.72494 2.36575 2.6054
323 1 -0.684415 1.97522 2.20767 1.49054
11 2 -0.037644 0.744213 1.75905 8.2899
195 1 -0.663423 4.89494 0.338229 1.85725
14 2 0.181978 -0.330906 5.28804 8.44896
360 2 0.136784 7.25212 0.632873 1.30068
122 2 0.164635 7.66531 0.756524 7.41803
117 2 0.172812 6.0353 0.188334 1.69452
3 2 0.148494 -1.48333 3.1016 5.49918
43 4 1.45901 6.08746 3.80021 6.90885
379 1 -0.67825 -3.20128 6.04903 1.04555
120 2 0.209381 4.96256 0.191869 6.76421
160 2 0.174199 5.13408 0.948774 14.8555
91 2 0.0140013 0.818377 5.83699 9.60374
9 3 -0.765569 -0.430402 2.19453 16.5001
13 2 0.156061 -1.40753 4.59743 9.8888
156 2 0.237483 2.60031 6.45903 13.9175
15 2 0.100456 0.537224 4.01497 9.72465
16 1 -0.646151 -0.498948 4.4306 9.18061
26 4 0.96481 -1.76214 4.83016 14.2389
23 4 1.09892 1.25865 0.327995 14.504
47 4 1.15811 0.519096 6.36282 15.5439
42 4 1.1967 3.08632 6.14836 16.8859
85 2 -0.00445923 -1.77625 4.71093 12.5337
119 2 0.0802809 5.24469 0.351984 8.81711
375 2 0.135327 -1.48474 3.87781 11.0611
123 2 0.164683 4.25308 1.45541 10.775
124 2 0.128619 3.04788 2.85044 10.0782
125 2 0.198027 4.99315 3.17833 10.2433
232 3 -0.85628 7.36504 0.72094 11.3959
135 2 0.185373 5.72184 1.71099 13.3075
136 2 0.177286 4.35154 3.01908 13.6569
137 2 0.176178 5.68689 2.5573 14.9717
44 4 1.08985 2.40714 6.25886 9.21969
368 2 0.162744 3.92719 0.538879 12.4808
198 1 -0.675606 4.15399 2.40818 10.0957
202 1 -0.669171 5.44355 2.68956 13.8506
346 2 0.140399 1.39079 0.461038 9.85612
241 3 -0.838822 -0.405464 5.56873 14.5696
242 3 -0.770899 2.15565 5.54046 15.7451
243 3 -0.823885 3.50488 5.82719 10.2849
364 2 0.200457 5.2445 2.92697 16.5674
334 2 0.165306 0.161213 0.860671 12.3166
335 2 0.17494 -0.388492 1.72006 13.8254
336 1 -0.660935 -0.190712 0.708117 13.3598
337 2 0.164088 2.3492 2.56609 14.0607
338 2 0.180825 3.20835 1.39384 15.2596
339 2 0.22766 1.80627 2.4581 15.7928
340 1 -0.669552 2.24017 1.89559 14.9743
363 2 0.144097 6.63256 1.58029 16.2088
92 2 -0.00570137 -0.247334 6.36331 17.1174
365 1 -0.683475 6.05857 2.23894 17.0198
244 3 -0.823532 5.34415 5.01703 12.1869
89 2 0.0861215 6.72639 2.4457 9.49281
223 3 -0.845512 -2.13574 3.48774 14.957
84 2 -0.0106986 -3.13411 5.84638 14.5651
377 2 0.144824 -3.58142 6.31447 17.2806
17 4 0.977704 -5.61919 12.6571 4.39802
342 2 0.154024 -2.22136 9.44758 2.07464
20 1 -0.68295 -5.53867 10.9064 3.48614
345 2 0.165162 -6.33108 13.4916 8.01872
376 2 0.129019 -3.36053 6.94615 1.74399
367 2 0.193743 -0.202229 13.0454 6.08965
366 2 0.161745 -3.19185 12.4699 7.76581
28 4 1.20227 -2.46435 8.3786 8.04416
49 4 1.23648 2.80244 7.67382 2.25271
50 4 1.05588 -0.0405907 10.932 4.30445
83 2 0.0231799 -0.604207 8.39304 4.90391
19 2 0.149173 -4.50508 10.4897 3.20074
111 2 0.168948 -4.72582 9.14411 6.9693
112 2 0.134489 -3.24421 8.8174 5.79354
113 2 0.163183 -3.25617 10.3881 7.02629
138 2 0.163621 -0.354396 9.92372 2.18429
139 2 0.118918 -1.56062 8.80419 3.25829
140 2 0.257443 0.405932 8.56194 3.23012
141 2 0.174766 -1.2517 11.5988 6.50721
142 2 0.133814 -2.13698 10.5351 5.0381
143 2 0.245049 -1.78946 12.4954 4.90319
144 2 0.155172 0.187061 11.5178 7.29593
102 2 0.110628 -3.48422 8.60985 0.831593
146 2 0.156354 -1.27633 12.5973 8.05227
158 2 0.15218 0.422615 10.8661 0.27373
193 1 -0.682825 -3.59366 9.27127 6.80042
203 1 -0.673679 -0.525023 9.39212 3.17683
204 1 -0.661923 -1.48217 11.5455 5.35714
205 1 -0.663664 -0.221108 11.9623 8.27433
225 3 -0.757102 -1.67304 7.22885 7.12151
329 2 0.175661 -6.55109 12.904 6.75608
245 3 -0.788817 1.80337 7.5598 3.48932
110 2 0.116244 -2.4221 7.07097 3.94461
247 3 -0.765859 0.380133 12.3164 3.2603
248 3 -0.85839 2.93271 9.07519 1.54749
253 3 -0.790799 1.1897 10.6221 5.43695
93 2 -0.00666442 1.67082 11.7596 7.89087
330 2 0.158132 -5.52512 11.2292 6.17009
331 1 -0.651165 -5.61351 12.473 6.20978
332 2 0.190916 -4.61039 12.8574 6.74045
25 4 0.97555 -0.894099 6.83883 5.6419
343 2 0.127599 -4.18111 10.086 1.87053
344 1 -0.679005 -3.23955 9.63956 1.30418
21 3 -0.797509 -7.27175 13.5413 3.78204
350 2 0.170757 -4.55323 11.9248 1.6339
351 2 0.186203 -5.95478 13.1758 1.71818
352 1 -0.695951 -5.17332 12.607 1.03743
357 2 0.182431 -3.04047 12.9381 1.82673
341 2 0.147976 -2.90814 10.3803 0.509455
349 2 0.16991 -4.58403 13.3346 0.368359
252 3 -0.811856 -1.37124 9.4117 8.65744
250 3 -0.776331 2.57368 7.67668 8.59439
196 1 -0.640161 -2.99099 13.5447 7.67947
155 2 0.18287 2.4667 7.2468 12.1799
27 4 0.975029 -4.73379 9.04636 16.6187
30 4 1.29477 -3.01725 9.79216 13.9465
31 4 1.05107 -6.74572 12.0527 17.0504
32 4 1.21246 -4.44045 12.0412 12.3336
38 4 1.2289 0.79316 13.2669 12.4023
53 4 1.2086 -0.454864 10.4238 9.42307
55 4 1.28479 1.86321 8.74664 13.8809
56 4 1.02513 -1.14979 12.1861 14.8672
57 4 1.43505 1.74119 10.5336 11.5059
175 2 0.149567 -3.75335 7.11005 13.7867
370 2 0.166859 1.34848 11.0393 16.1112
94 2 -0.00971352 -0.262521 11.7556 16.3415
318 2 -0.0600189 -5.68877 10.5599 16.8722
114 2 0.149124 -2.48831 7.69195 12.5434
115 2 0.155285 -1.98529 7.47138 14.3946
116 2 0.22916 -1.05033 8.66671 13.1928
147 2 0.200783 -1.12222 10.3451 11.6819
148 2 0.182776 -2.59597 10.8369 10.5974
149 2 0.177669 -1.15532 12.1624 10.9945
150 2 0.13746 -3.48079 13.3048 10.6582
151 2 0.210031 -1.93073 13.0097 11.7811
159 2 0.211463 -3.37858 12.9407 15.2645
348 1 -0.669117 -6.70207 13.5141 9.12103
161 2 0.14166 -2.04737 13.5243 16.595
194 1 -0.67551 -2.04934 8.18114 13.4651
206 1 -0.664462 -1.47597 11.008 10.8451
207 1 -0.659651 -3.06168 13.2404 11.7889
209 1 -0.664603 2.90293 7.31839 13.2602
211 1 -0.658961 -2.39061 13.5004 15.4718
157 2 0.167759 4.08043 7.45278 13.2698
224 3 -0.825685 -3.58616 7.64595 9.30492
226 3 -0.794339 -3.90614 9.36468 15.3462
227 3 -0.766636 -6.56922 13.0746 15.831
228 3 -0.788951 -5.58539 11.9108 11.0689
229 3 -0.799013 -3.78028 10.2474 12.6197
230 3 -0.766817 -5.03883 12.7053 13.61
259 3 -0.832132 1.08066 9.36567 12.7158
317 2 0.0712459 -4.27898 9.12827 11.4996
255 3 -0.802396 0.862134 7.82461 15.1403
256 3 -0.801453 -2.00357 10.8841 14.5275
257 3 -0.803636 -0.148341 12.8679 13.7542
258 3 -0.789651 0.97063 10.1661 9.9746
210 1 -0.676121 1.01695 10.443 17.0449
145 2 0.152669 0.585397 12.6544 8.74451
260 3 -0.884619 1.48037 12.0829 11.703
369 2 0.209638 0.916101 9.31991 16.8289
35 4 1.09168 7.81075 3.21761 0.338563
59 4 1.31884 13.9407 0.942112 7.45894
61 4 0.998772 12.6141 2.51336 5.27874
354 2 0.128517 9.79171 1.88778 4.04652
67 4 1.30085 11.4169 4.35813 7.30354
86 2 -0.0175859 7.82129 2.04952 1.69074
40 4 1.31053 5.6254 5.14506 1.28884
96 2 0.0407979 11.6124 1.77149 4.07269
97 2 0.0272598 13.9851 2.90272 4.27952
58 4 1.56304 13.2892 0.0172478 2.4196
359 2 0.153463 9.25898 1.08866 1.32505
121 2 0.148098 8.89954 0.467254 6.01412
170 2 0.168314 9.22194 5.52937 3.53464
171 2 0.175567 7.66356 4.47021 3.11748
172 2 0.199083 7.97069 5.02418 4.95725
356 1 -0.693478 9.95733 0.848288 3.55745
214 1 -0.656652 13.1352 4.92131 7.9645
215 1 -0.67953 8.04478 5.26663 3.81912
88 2 -0.0049178 8.21121 1.68839 3.64317
233 3 -0.820468 7.07812 4.56784 0.882889
270 3 -0.837723 10.847 3.27309 8.34415
1 4 1.06279 15.9328 1.20057 3.39829
263 3 -0.864088 12.9659 1.46886 6.38631
267 3 -0.822355 5.79813 6.54958 2.02915
272 3 -0.801151 7.08156 3.73593 8.50134
271 3 -0.829121 11.9528 3.86772 5.65653
361 1 -0.637077 8.38686 0.260942 1.12432
274 3 -0.800474 10.7065 5.8104 7.21741
237 3 -0.82464 6.98044 3.05693 5.72722
308 4 1.55036 12.5242 2.27831 0.510587
309 4 1.15196 11.8232 5.19457 1.36989
310 2 0.186942 10.865 4.91128 3.77765
239 3 -0.86539 5.69273 5.3028 6.54259
180 2 0.197471 8.32752 5.82091 6.7499
313 1 -0.676792 11.1659 5.90243 3.2194
314 3 -0.847583 12.3281 1.00356 1.61143
315 3 -0.828922 12.1825 3.64753 1.32599
316 3 -0.806545 10.6223 5.77731 0.487663
311 2 0.171987 10.353 6.60836 2.90467
386 3 -0.861976 14.4344 0.936871 3.10712
355 2 0.246639 10.7281 0.889912 2.74156
261 3 -0.792679 14.7029 2.12597 8.27713
218 1 -0.655796 8.05221 6.40545 7.69097
312 2 0.137942 12.1856 6.36712 3.35409
45 4 1.51817 5.09382 6.70912 6.06229
100 2 0.0115511 10.2684 6.696 4.75984
167 2 0.185192 13.7727 4.90049 7.01161
65 4 1.27025 6.97831 6.78157 3.51902
169 2 0.255848 13.0703 6.03068 8.4277
39 4 1.29022 7.77264 2.18227 10.8503
46 4 1.35609 6.41144 4.14322 13.0168
371 2 0.195608 11.8395 1.68534 13.5646
60 4 1.24053 10.6359 2.25477 9.53686
63 4 1.41864 10.1035 2.95396 15.798
64 4 1.09376 12.7024 3.73174 11.1621
68 4 1.34524 7.5351 5.28468 9.12778
70 4 1.39447 11.0759 5.015 13.4444
305 4 1.46834 14.7154 2.20661 15.8986
72 4 1.53633 9.5945 6.49465 11.1936
99 2 0.0168717 12.8325 4.82125 9.92104
166 2 0.182165 14.5612 2.90716 12.6422
162 2 0.207212 10.1256 0.546168 14.8023
163 2 0.17303 9.25159 2.02563 13.8815
164 2 0.176953 8.46084 1.09026 15.4549
165 2 0.18308 14.5551 2.0545 10.8248
95 2 -0.0187993 10.8628 0.665934 8.84526
374 2 0.181853 11.2582 0.0375204 12.6481
333 2 0.284591 15.6007 -0.00889091 13.3323
307 3 -0.801893 13.997 0.822811 15.0297
98 2 0.00934227 9.49743 0.606313 13.0152
185 2 0.178839 12.5783 0.722866 9.63803
212 1 -0.652526 9.38034 1.36842 14.8653
213 1 -0.66358 14.48 3.07037 11.5019
48 4 1.3504 5.04532 6.00778 10.8975
103 2 0.0284596 5.89066 6.51194 16.0316
240 3 -0.805778 7.41435 3.29068 11.9844
372 2 0.22965 12.7904 0.969474 12.0293
262 3 -0.842911 9.22945 2.215 10.3393
264 3 -0.833684 11.2638 2.21176 16.5066
265 3 -0.815664 8.8248 3.10345 16.796
266 3 -0.809473 11.9083 2.49783 10.6582
273 3 -0.842557 6.18882 5.92854 9.77453
275 3 -0.82494 10.5078 4.00364 14.5922
276 3 -0.84731 12.2274 4.48117 12.5334
277 3 -0.813566 6.98542 5.11571 14.2809
373 1 -0.658446 12.1203 0.761918 12.8509
71 4 1.39613 7.31909 6.42193 15.0205
280 3 -0.805402 8.91265 5.59522 10.0618
281 3 -0.790259 9.81329 5.58674 12.5201
173 2 0.184411 11.9012 6.32242 15.2718
278 3 -0.855877 8.53232 6.48301 15.9176
216 1 -0.646034 11.8437 6.6476 14.1565
306 3 -0.820466 13.7191 2.38818 17.1656
347 2 0.181421 16.2924 0.260152 9.28078
168 2 0.185996 13.6138 4.1983 8.66355
33 4 1.13682 1.74628 12.816 2.59322
295 3 -0.852221 7.55029 13.2819 6.992
254 3 -0.840661 3.2033 9.80784 7.02266
358 2 0.15416 1.17708 13.408 0.0638928
182 2 0.22651 7.04802 8.70423 8.34859
385 2 0.17221 4.56262 13.3203 7.90708
69 4 0.935855 10.7118 7.19635 6.37426
73 4 1.27133 8.51068 8.89273 2.01579
74 4 1.35396 4.81929 11.8037 4.82595
75 4 1.3516 7.42742 11.3584 0.715255
76 4 1.2821 9.25543 9.88225 7.72248
78 4 1.32297 7.67665 12.0309 6.04558
289 3 -0.808763 9.88327 8.41216 6.89832
328 2 0.16164 10.502 11.1876 2.62697
18 2 0.139924 10.6424 10.2207 4.22007
104 2 -0.00881972 9.98554 9.53821 2.73745
268 3 -0.828022 5.99468 7.06028 4.81336
107 2 0.0853933 8.42444 12.6068 4.65041
176 2 0.224399 5.45776 9.50155 4.23581
177 2 0.229493 4.57005 10.3604 2.81748
178 2 0.222464 3.57779 9.58424 4.2668
179 2 0.223221 7.17149 7.0685 7.47772
52 4 1.52066 3.87685 8.7263 7.98861
288 3 -0.836531 6.65171 12.492 1.46128
217 1 -0.666491 4.51839 10.1141 3.92305
293 3 -0.838727 6.23972 11.6326 5.56429
294 3 -0.835219 8.48912 10.8946 6.77349
249 3 -0.791686 2.71242 11.7808 1.84615
251 3 -0.850944 4.99033 7.87347 7.17426
51 4 1.30646 2.9074 10.4715 0.808619
282 3 -0.821232 7.98554 8.02265 3.24148
283 3 -0.86993 9.00639 7.94683 0.810888
284 3 -0.823386 5.01477 12.931 3.68852
285 3 -0.83022 3.36898 12.0531 5.79
286 3 -0.867024 8.86139 11.7773 0.326747
287 3 -0.857795 7.57787 10.1052 1.59015
101 2 -0.0208792 12.2784 7.6552 6.05693
353 2 0.208198 2.85236 13.5692 4.36447
54 4 1.26047 2.37482 11.0084 6.47155
181 2 0.249237 8.95901 7.00197 8.13558
105 2 0.0856514 4.40665 7.33293 2.70967
24 4 0.99009 11.9876 8.1478 10.1676
29 4 1.22449 9.90558 11.8502 9.99925
62 4 1.25031 5.80749 13.4828 14.1005
184 2 0.223623 8.21557 8.89174 9.76356
77 4 1.32612 4.49841 10.8705 10.2223
79 4 1.31518 8.18821 8.68614 12.9676
80 4 1.21903 4.19601 10.6467 15.3235
81 4 1.58116 7.09894 11.4121 11.7751
82 2 0.0746098 11.3044 9.39302 9.26672
279 3 -0.858718 11.0178 7.05522 10.7155
106 2 -0.00834494 3.9138 12.2984 9.31576
152 2 0.245718 6.0407 8.21788 10.6138
153 2 0.197945 5.61065 7.98815 12.4013
154 2 0.223214 4.19278 8.2811 11.1909
384 2 0.19812 6.21665 12.7207 8.91579
382 1 -0.68994 4.27702 7.61804 16.3008
183 2 0.224483 7.35843 10.3942 9.10159
186 2 0.179814 9.6361 10.3165 13.8718
187 2 0.17674 10.596 9.01314 12.9292
188 2 0.226473 10.1538 8.7233 14.8247
189 2 0.203828 5.52741 9.10604 14.0723
190 2 0.159958 6.28476 9.29932 15.9453
191 2 0.193201 6.35014 10.7948 14.6293
208 1 -0.669599 5.26632 7.8426 11.3663