ITEM: TIMESTEP
0
ITEM: NUMBER OF ATOMS
386
ITEM: BOX BOUNDS xy xz yz pp pp pp
-9.7223933726366791e+00 1.6328835544439535e+01 -8.5084605348439784e+00
-1.0598672932473274e-01 1.3719649956819472e+01 -1.3291230985686828e+00
4.2510623655953594e-03 1.7345948937634574e+01 1.6346322749467529e-01
ITEM: ATOMS id type x y z
13 4 -3.95191 6.56715 3.8112
206 2 -2.46287 4.8322 7.97938
12 4 0.0167923 3.72931 2.2015
34 4 1.2768 6.23642 3.39968
70 1 -0.038833 3.39964 6.67623
134 2 1.35286 4.4408 5.83334
233 3 -0.927713 3.32949 3.44885
235 3 -0.915606 4.50421 1.03562
254 3 1.14435 4.79973 2.6527
111 2 2.19202 2.28086 4.24774
258 3 1.86629 6.38878 4.91495
320 2 0.888694 2.87069 6.36691
15 4 0.365732 5.0963 7.13325
107 2 -0.824424 3.4851 5.80973
237 3 -0.832125 6.00486 6.69608
177 2 2.6763 3.71656 1.19228
8 4 0.330219 1.11958 0.626214
234 3 0.665314 2.31057 1.61768
104 2 -0.356326 0.8172 4.54409
132 2 -0.773144 2.33116 7.96951
170 2 -1.03342 5.92226 3.22163
176 2 3.08204 5.498 1.46748
38 4 3.25292 6.57267 5.79812
247 3 4.37014 0.920282 4.68979
245 3 7.0784 1.1046 0.524697
256 3 5.82481 2.99499 6.00124
248 3 6.2408 0.366728 6.34926
255 3 3.25632 2.91222 7.20256
252 3 4.51441 2.74601 2.87646
244 3 3.14212 0.4402 2.34778
85 1 3.4618 4.45134 1.03307
25 4 3.55621 1.58206 3.50698
259 3 4.08784 5.3364 6.15257
24 4 7.62887 0.244446 1.72712
29 4 5.80376 1.45018 5.3443
33 4 4.95538 3.99181 2.03865
36 4 4.60653 3.78547 6.8005
246 3 1.61694 1.13502 8.57996
318 4 0.134634 0.840733 8.55064
257 3 1.217 5.41175 8.46822
236 3 -3.07949 6.64415 5.23037
28 4 2.74576 2.24856 8.64343
378 2 2.95878 0.00742186 6.45188
148 2 4.34755 0.0945866 7.51712
138 2 -4.04376 5.0017 15.7431
158 2 3.7233 5.40262 13.7565
250 3 4.42832 2.51999 15.973
357 2 1.47562 1.80763 16.2993
183 2 0.868029 6.48164 11.2925
356 2 0.368497 3.22808 16.6297
125 2 4.60887 4.52608 9.11172
105 2 1.77288 3.43736 15.3868
108 2 -3.00515 5.51745 14.0705
140 2 -2.69578 3.61565 16.0335
340 2 -0.406171 0.894031 10.2238
112 2 1.9737 3.32425 9.75258
72 1 -2.9054 4.73645 15.8277
10 4 1.88397 1.35226 12.6299
11 4 -0.100104 3.50625 11.6348
17 4 -1.28314 5.19855 14.0743
78 1 1.52246 4.41093 11.3502
79 1 3.03301 4.78209 14.5565
155 2 1.40402 5.11437 12.2785
157 2 2.44268 3.79973 11.388
231 3 -1.09073 3.28231 10.1961
232 3 0.464882 1.94267 12.1778
238 3 -0.875661 4.28978 12.7695
249 3 2.89373 2.19025 13.5066
139 2 -1.07642 4.2172 15.5345
106 2 2.92372 1.0514 11.1676
37 4 1.99793 5.81228 9.95356
137 2 -0.856572 1.9654 16.2354
354 1 0.951103 2.68645 15.8158
355 2 0.291036 2.34985 14.9527
160 2 1.96671 4.93997 14.2987
161 2 4.79968 0.896599 15.4376
159 2 3.32347 5.10499 15.5884
145 2 -1.78614 5.9681 9.725
205 2 -3.49537 5.19718 10.0017
262 3 -0.486333 6.62393 14.1819
251 3 4.1134 1.70955 9.31623
178 2 2.46175 4.66248 17.3225
30 4 6.60619 0.343077 13.8437
117 2 6.8061 0.394025 12.0998
265 3 3.49873 5.92989 10.2953
5 2 2.95735 0.762691 17.1405
31 4 3.99356 3.17446 14.2866
32 4 5.59316 2.50136 9.53507
14 4 -2.52503 5.80619 17.2656
270 3 -1.77014 12.4821 8.66857
147 2 -4.15523 12.5381 6.17446
185 2 -5.95465 10.1678 8.26692
175 2 -6.65462 11.8365 8.50981
311 3 -7.67816 12.7468 5.71975
1 4 -5.77786 13.081 1.27827
189 2 1.02399 10.5269 3.23995
19 4 -3.32436 7.8477 1.15711
341 1 -5.67278 10.5153 4.49833
343 2 -4.55442 9.57447 3.89522
75 1 -4.80045 13.063 6.95173
239 3 -3.7381 7.67309 2.71163
6 3 -5.40623 11.5891 1.82464
20 4 -5.99809 10.3863 2.7811
377 2 -5.40254 11.5876 4.73284
141 2 -4.17231 9.14576 0.264194
272 3 -0.109868 12.3544 6.42425
230 3 -7.59562 13.2886 0.7398
188 2 0.16917 8.88434 2.75744
201 2 -4.60707 7.81892 7.61333
240 3 -2.6731 6.79881 0.199559
144 2 -5.29436 12.2979 7.66435
114 2 1.31065 9.82135 1.44614
171 2 -0.505508 7.36908 2.09533
16 4 -2.02401 7.0159 6.39063
191 2 -2.17626 9.64293 2.11367
172 2 -0.762245 7.66238 4.10324
83 1 -0.417864 6.9058 3.19363
345 2 -2.51952 11.924 1.584
90 1 -2.45394 9.45453 0.985065
200 2 2.21561 7.31301 7.65204
241 3 -2.90022 7.48889 8.00434
174 2 -1.56174 9.11269 4.90581
347 2 -2.03862 12.3133 3.28061
27 4 -1.11058 13.2582 7.24231
84 1 -1.24155 8.62624 5.82722
173 2 -1.48886 9.20821 6.81442
187 2 -0.1517 8.20872 5.88297
267 3 2.38448 7.49534 2.53024
89 1 0.479351 9.9344 2.35328
344 1 -2.30018 12.7482 2.324
381 2 -0.390553 10.573 1.93304
223 2 1.14087 9.78202 7.31446
342 2 -6.50377 10.0354 5.08758
382 2 -3.25905 10.7606 0.207315
109 2 -0.99807 8.66911 0.290545
190 2 0.617355 11.784 1.60732
202 2 -6.06073 9.02615 7.42731
346 2 -3.10443 13.5657 2.25344
186 2 -5.01758 11.2897 9.32927
322 2 -7.6735 11.952 9.42372
372 2 -6.62201 10.696 9.99873
88 1 -6.02699 11.0041 9.04349
152 2 -6.92144 13.3357 13.4866
271 3 -4.75303 12.9215 14.6485
133 2 -1.98378 6.85046 11.4488
371 2 -4.61886 13.2782 11.1816
77 1 -6.24924 13.1173 11.9227
22 4 -4.22392 9.26178 13.6633
23 4 -4.823 12.2247 12.6866
153 2 -7.07835 12.9718 11.0731
243 3 -4.93509 10.6637 12.7266
274 3 -3.75634 9.64472 15.2053
103 1 -4.69201 9.17032 10.1263
227 2 -5.07664 8.7634 9.0891
228 2 -3.86768 8.10931 10.866
229 2 -4.15907 10.1196 10.0283
337 2 -7.89695 11.3218 15.5356
224 2 -5.61128 9.45268 10.785
332 2 -6.99842 11.2641 11.7962
242 3 -5.24106 8.06705 13.7813
80 1 -3.56713 13.4277 14.9382
263 3 1.36853 7.01921 16.0591
364 2 -1.36754 12.3858 14.2808
46 4 -3.08305 10.1387 16.5322
110 2 -3.22293 12.3638 12.1031
156 2 0.756662 8.18445 9.42657
163 2 -2.73515 12.5916 15.6542
151 2 -2.90879 7.56131 12.2661
277 3 0.0073458 10.3299 12.8682
146 2 -0.44871 7.33706 10.2933
76 1 -2.71019 8.56057 12.8366
150 2 -2.50447 9.45063 12.0415
21 4 -2.55654 8.18966 9.39775
350 2 -1.05216 10.8163 16.1544
275 3 -1.82491 11.5709 16.3978
184 2 1.17309 8.76368 11.137
149 2 -1.94021 8.48136 13.671
74 1 -1.61949 6.94085 10.3145
87 1 1.41236 7.98568 10.2949
40 4 -0.148906 7.40731 15.6448
43 4 -1.33662 11.246 9.57732
45 4 0.769855 9.81803 14.2005
47 4 -0.38537 11.5179 11.8923
269 3 -1.73425 9.70579 9.35595
273 3 -0.257366 9.14551 15.2464
276 3 -1.95922 11.6423 11.3858
2 1 -6.20727 13.5392 16.9568
4 2 -5.59176 12.531 16.892
370 2 -4.96625 6.8948 16.1733
264 3 -1.45104 6.93595 16.7128
3 2 -7.05148 13.574 16.0894
92 1 7.84527 5.5138 3.41208
118 2 8.84969 2.37179 6.21045
73 1 10.0971 5.86567 1.17186
195 2 8.59781 5.66118 2.50491
358 1 5.28848 6.55323 0.0562731
278 3 8.33217 1.44069 3.21567
291 3 5.29292 5.45875 3.14278
196 2 8.2975 5.93118 4.51577
351 1 8.48046 1.14712 7.7854
352 2 9.29318 0.880029 7.00246
193 2 7.90778 3.60492 5.18301
198 2 7.42049 4.43607 3.5349
165 2 7.95995 2.10313 7.4003
82 1 5.50538 4.06452 8.46209
91 1 8.93312 3.18397 5.34842
192 2 9.69044 3.97817 5.55984
48 4 9.42465 2.4781 3.74821
168 2 7.03674 6.22327 6.96
359 2 5.11304 6.52304 1.17982
56 4 6.33972 6.48695 3.54794
143 2 9.01793 5.42174 0.894332
288 3 9.94786 3.62885 2.77546
135 2 14.3566 0.662303 0.410216
142 2 10.764 5.96081 0.300252
369 2 11.2851 6.08697 7.17482
7 4 14.551 1.85338 3.98006
280 3 13.6713 1.96189 5.24029
51 4 12.1386 2.04391 5.70471
55 4 11.1047 4.40344 2.00314
58 4 11.911 4.5275 7.49357
281 3 11.1517 1.49203 4.0816
289 3 11.7641 3.62042 0.50049
290 3 12.3304 5.08745 3.02929
293 3 11.8153 3.50367 6.28816
325 3 13.8478 0.852058 3.0549
326 3 11.827 0.926389 1.37468
324 4 12.3343 0.409684 2.82727
49 4 11.6705 2.04355 0.306399
282 3 11.7582 0.974404 6.81409
50 4 12.674 0.329985 8.03473
59 4 6.748 5.38366 8.56845
194 2 7.06195 1.41518 4.13519
253 3 6.12853 3.6918 0.923745
376 2 10.191 6.29063 4.94954
379 2 10.0571 -0.062483 1.56058
361 2 3.89501 5.69084 16.9212
52 4 13.3587 0.59771 15.033
380 2 8.91745 1.19114 8.82721
353 2 6.95052 1.65538 8.90795
368 2 6.15798 5.47342 16.6771
383 2 7.11366 5.18537 14.9966
366 1 6.28581 5.75558 15.537
367 2 5.32654 5.51939 14.996
26 4 5.48004 2.73483 17.125
39 4 6.10465 4.0796 12.278
53 4 8.04198 2.62854 15.6084
127 2 7.74197 4.17657 12.602
18 4 10.3299 6.81744 14.7802
261 3 5.90431 3.0961 10.9449
266 3 5.68471 5.5839 11.9911
283 3 7.28832 1.42353 14.7188
285 3 6.87332 3.32068 16.6412
295 3 8.69362 3.65617 14.5531
301 3 9.1478 4.42763 11.8497
41 4 5.10184 6.41229 10.8341
300 3 8.17266 4.81003 9.08763
284 3 9.0429 1.86647 16.6396
62 4 9.10618 5.02868 10.4072
136 2 13.365 2.53163 16.9552
294 3 6.06393 6.52279 9.57069
81 1 9.6582 1.35934 10.7698
169 2 9.91597 1.5438 11.8426
162 2 10.4784 0.837519 10.1868
166 2 9.49951 2.35855 10.3099
60 4 9.88451 4.14542 13.6376
164 2 8.70011 0.711951 10.6699
71 1 13.6394 1.44093 16.9578
95 1 12.763 4.35683 9.19726
204 2 11.1148 3.76575 9.03526
119 2 11.7914 2.04809 16.732
121 2 11.6924 0.557241 12.4492
9 4 13.5633 2.88588 9.96372
54 4 12.1453 2.20217 12.8403
279 3 13.4015 1.48645 9.10012
286 3 12.8517 2.62322 11.4439
287 3 13.1906 1.83152 14.11
296 3 10.9283 2.97274 13.3394
297 3 10.6154 5.46631 14.0433
128 2 10.6784 5.8084 10.1575
260 3 5.33895 3.54876 13.517
365 2 8.92478 0.225262 12.2161
120 2 14.9127 0.114334 15.602
333 2 13.2385 0.087933 11.8276
213 2 8.82166 6.81237 11.819
308 3 7.12063 7.01574 6.16337
203 2 10.3846 7.57264 6.14597
44 4 1.14716 11.2847 6.14867
101 1 2.34201 11.0047 7.37873
307 3 1.80722 11.2424 4.6657
348 1 0.656154 12.946 1.19189
42 4 2.80209 8.93834 2.06657
384 2 2.50765 12.1316 0.698356
199 2 2.9841 9.05251 7.20102
375 2 10.3127 8.12101 4.55183
94 1 10.5034 7.92258 7.38006
69 1 10.426 7.0752 4.15048
93 1 3.18841 7.91237 7.19446
64 4 3.49623 11.3053 3.96078
124 2 9.90262 7.26367 8.05488
374 2 7.53979 12.9297 7.81709
268 3 3.45121 8.79318 0.629511
113 2 4.0865 7.67212 7.78986
122 2 4.16053 8.05696 5.50698
306 3 3.50651 12.5408 2.97034
339 2 6.7609 12.7231 4.2636
338 1 7.37072 12.7287 5.37404
222 2 3.34881 10.9665 6.8916
305 3 3.61985 9.96763 3.11395
63 4 7.69524 8.6607 1.54011
65 4 6.57128 9.40588 7.74989
67 4 5.71592 12.0235 6.19637
99 1 6.56195 10.0552 1.10186
217 2 6.89715 11.0409 1.42092
302 3 6.94744 7.75257 2.52987
304 3 9.0391 9.43512 2.22506
312 3 4.59222 11.6142 5.04092
313 3 6.1809 10.6812 6.95385
314 3 5.25332 13.1448 7.29055
126 2 7.054 7.91033 6.74013
218 2 5.64033 9.71771 1.62077
225 2 4.41464 12.2886 0.509988
123 2 9.95788 6.8724 1.75448
102 1 3.47202 11.7543 0.177009
131 2 9.78275 6.93231 3.17356
197 2 6.08057 7.14597 5.33464
226 2 3.54408 10.5788 0.362337
216 2 6.47665 9.93556 0.0142932
66 4 2.35153 11.5999 9.11425
373 2 0.926763 13.0444 16.4413
362 1 -0.190831 13.1598 12.9713
35 4 2.63404 7.88047 16.7091
68 4 2.21683 12.2198 15.6607
319 1 7.52201 12.6792 9.73006
310 3 0.624941 11.6416 10.0953
315 3 1.63637 11.0019 14.8101
363 2 0.404503 12.9558 13.8736
181 2 2.93799 10.4266 10.948
209 2 2.74 8.21683 11.8437
309 3 3.01078 13.0719 8.99233
321 2 7.39901 12.8391 10.8468
336 2 7.39479 11.9984 17.0474
116 2 1.88972 8.64968 13.6422
179 2 3.41421 9.55542 9.30588
86 1 3.60425 10.4676 9.99729
219 2 8.03091 9.64921 8.98263
303 3 6.89247 7.87951 17.3024
386 2 7.64827 10.2037 16.7425
360 2 4.93922 7.24447 17.1708
154 2 7.87783 9.96621 10.9637
323 2 6.58862 12.3213 9.24946
130 2 6.4844 11.0276 15.5128
330 1 7.47886 11.1561 16.1867
215 2 10.1442 7.78554 10.4418
334 2 3.82513 12.6918 13.1961
316 3 3.42691 13.1846 15.322
129 2 6.50663 8.60072 10.3949
100 1 6.44182 9.43325 9.6336
220 2 6.11725 10.4019 10.0786
317 3 6.44047 13.3001 14.1009
214 2 8.38925 7.1911 9.9413
208 2 4.1421 9.36073 12.3153
335 2 4.10904 11.9147 11.3726
329 1 4.41716 12.7588 12.2411
331 2 7.33292 11.5287 12.2923
167 2 8.17404 10.0002 12.8902
328 1 8.71591 10.1316 11.8171
207 2 4.11921 7.45004 12.8853
180 2 4.71225 10.7458 10.0897
96 1 3.51193 8.4615 12.6519
115 2 5.03724 8.05484 11.5104
57 4 7.01761 7.41453 15.6648
61 4 4.54903 8.94088 14.4617
97 1 4.794 10.8535 14.4713
210 2 6.38898 10.4429 13.8062
211 2 4.65111 11.2613 15.5321
212 2 3.84489 10.9142 13.7289
292 3 8.75097 7.07718 15.2456
298 3 6.03234 8.27006 14.5731
299 3 3.56462 8.56577 15.5711
327 4 5.99656 12.1285 13.1817
98 1 9.25762 6.95639 10.6554
385 2 9.52376 9.34682 11.7096
182 2 2.50123 8.05784 9.97716
221 2 5.11379 8.67887 8.70411
349 2 -0.890887 13.2849 17.3352
ITEM: TIMESTEP
100
ITEM: NUMBER OF ATOMS
386
ITEM: BOX BOUNDS xy xz yz pp pp pp
-9.7223933726366791e+00 1.6328835544439535e+01 -8.5084605348439784e+00
-1.0598672932473274e-01 1.3719649956819472e+01 -1.3291230985686828e+00
4.2510623655953594e-03 1.7345948937634574e+01 1.6346322749467529e-01
ITEM: ATOMS id type x y z
13 4 -3.94511 6.58534 3.80759
206 2 -2.56154 4.6646 8.15292
12 4 0.0984966 3.66835 2.15204
34 4 1.31136 6.20284 3.38159
70 1 0.304169 3.24382 6.80012
134 2 1.57161 4.30551 5.80876
233 3 -0.990923 3.07708 3.29333
235 3 -0.682093 4.62488 1.01759
254 3 1.29915 4.67314 2.93758
111 2 2.07972 2.07608 3.99514
258 3 1.84169 6.35025 4.91019
320 2 1.26025 2.70918 6.48804
15 4 0.502572 4.93584 7.12508
107 2 -0.601735 3.1397 6.06015
237 3 -0.688726 5.98208 6.58724
177 2 2.47852 3.76247 1.2094
8 4 0.279462 1.17867 0.636493
234 3 0.673022 2.4174 1.5059
104 2 -0.383166 0.90102 4.96897
132 2 -0.727574 2.28252 8.03771
170 2 -1.13781 5.98708 3.29796
176 2 3.02183 5.5783 1.21742
38 4 3.19781 6.53835 5.76231
247 3 4.45894 0.980868 4.64398
245 3 6.86053 1.25978 0.684567
256 3 5.54226 3.00199 5.92793
248 3 6.47678 0.432457 6.36711
255 3 3.14254 3.09574 7.38857
252 3 4.32179 2.7545 2.72463
244 3 3.15269 0.397039 2.34354
85 1 3.32531 4.48111 1.00646
25 4 3.60234 1.54012 3.4294
259 3 4.17948 5.38606 6.22285
24 4 7.45625 0.318057 1.90665
29 4 5.72478 1.46056 5.44513
33 4 4.86196 3.9872 1.92453
36 4 4.48188 3.85573 6.7906
246 3 1.77741 1.13147 8.57068
148 2 4.15107 0.367479 7.58925
5 2 4.09425 1.03661 0.0293966
138 2 -3.89659 5.18572 15.3996
3 2 1.58631 0.139602 16.2988
250 3 4.35918 2.59029 15.9894
357 2 1.35781 1.77491 16.2039
183 2 0.849596 6.79024 11.3047
356 2 0.219283 3.24538 16.6196
133 2 -2.10327 6.7914 11.1885
105 2 1.71905 3.58842 15.4885
108 2 -3.10632 5.49462 13.8893
140 2 -2.6733 3.65049 15.824
340 2 -0.34557 1.00784 10.3927
112 2 2.28987 3.41655 9.83778
72 1 -2.75424 4.78877 15.6626
10 4 1.85587 1.4093 12.5571
11 4 -0.0837742 3.5235 11.5162
17 4 -1.35706 5.23202 13.9732
78 1 1.59131 4.48565 11.319
79 1 3.10776 4.85365 14.772
155 2 1.36266 5.13266 12.2422
157 2 2.53166 3.88236 11.5381
231 3 -0.975477 3.4201 10.1181
232 3 0.441634 1.96739 12.1489
238 3 -0.922844 4.35762 12.646
249 3 2.85221 2.28537 13.4172
139 2 -0.882596 4.23032 15.4324
106 2 2.92042 0.858538 11.1312
37 4 1.95263 5.98854 10.0555
137 2 -0.854187 1.87141 16.3171
354 1 0.865049 2.77366 15.8276
355 2 0.212711 2.56498 14.9251
160 2 2.03556 4.98812 14.5221
161 2 4.77994 1.10198 15.372
159 2 3.35807 5.23443 15.8431
145 2 -1.51646 5.89432 9.69188
205 2 -3.75187 4.96488 10.2554
262 3 -0.60476 6.57407 14.2923
251 3 4.38313 1.67798 9.40169
178 2 2.29453 4.60147 17.2277
30 4 6.63254 0.429819 13.7806
28 4 2.87856 2.21534 8.73132
2 1 2.36236 0.134311 17.0675
136 2 -2.83711 2.73429 16.8964
31 4 3.9186 3.20391 14.2798
32 4 5.74213 2.55413 9.55053
14 4 -2.42867 5.84268 17.1032
265 3 3.53143 6.21391 10.2999
264 3 -1.1961 6.7811 16.7972
318 4 0.24537 0.859374 8.69174
257 3 1.28794 5.5045 8.67622
202 2 -5.9526 9.10331 7.56038
147 2 -3.97837 12.645 6.40423
185 2 -5.93267 10.3062 8.29786
175 2 -6.59828 12.0844 8.66431
311 3 -7.76034 12.6934 5.49777
1 4 -5.82806 13.0259 1.21702
189 2 0.982825 10.3561 3.25267
19 4 -3.26261 7.87266 1.15134
341 1 -5.69288 10.259 4.37963
343 2 -4.35446 9.57819 3.65927
75 1 -4.79894 13.1728 7.03962
239 3 -3.58122 7.64082 2.68724
6 3 -5.52381 11.4958 1.61808
20 4 -5.88907 10.2313 2.6223
377 2 -5.67279 11.3226 4.70757
141 2 -4.13555 9.18435 0.313861
272 3 -0.0966013 12.1903 6.57689
230 3 -7.66699 13.4101 0.723609
188 2 0.171396 8.69186 2.60031
201 2 -4.5829 7.76989 7.68247
236 3 -2.873 6.83038 5.07635
144 2 -5.21092 12.4025 7.79885
114 2 1.53454 9.98661 0.98388
171 2 -0.712444 7.36355 2.22753
16 4 -1.82842 7.19415 6.24151
191 2 -2.04631 9.66722 2.03304
172 2 -0.612515 7.60693 4.03065
83 1 -0.463609 6.86236 3.13103
345 2 -2.13561 11.8033 1.94584
90 1 -2.33821 9.42808 0.93676
200 2 1.91553 7.22651 7.47244
241 3 -2.80367 7.53924 7.86227
174 2 -1.36459 9.38283 4.91171
347 2 -2.1239 12.5759 3.79768
27 4 -1.03713 13.2082 7.31039
84 1 -0.989016 8.75134 5.7194
173 2 -0.97893 9.33124 6.71201
187 2 0.0388169 8.24474 5.48662
267 3 2.17946 7.40868 2.46249
89 1 0.504632 9.80101 2.27122
344 1 -2.26827 12.7689 2.62999
381 2 -0.391112 10.425 1.9872
223 2 1.06068 9.70921 7.03071
346 2 -3.27356 13.2074 2.54519
382 2 -3.2167 10.771 0.215079
109 2 -0.962249 8.70241 0.205557
190 2 0.547717 11.8428 1.72065
270 3 -1.86307 12.4461 8.54245
378 2 -5.64638 13.4802 6.41928
240 3 -2.65916 6.74876 0.142297
186 2 -4.99182 11.4653 9.44091
322 2 -7.76777 12.1047 9.56237
372 2 -6.63216 10.7838 10.0313
88 1 -6.07166 11.1217 9.09741
152 2 -6.89006 13.4173 13.5475
271 3 -4.68469 13.0438 14.5166
370 2 -5.06859 6.93677 16.193
371 2 -4.74295 12.9743 10.922
77 1 -6.23535 13.0304 11.9631
22 4 -4.2576 9.15357 13.7225
23 4 -4.74303 12.1247 12.5987
153 2 -7.15517 12.8939 11.2089
243 3 -4.97449 10.5488 12.6665
274 3 -3.73294 9.75708 15.2106
103 1 -4.39495 8.87813 10.2779
227 2 -4.96614 8.58363 9.2176
228 2 -3.61464 7.71937 10.8208
229 2 -3.70105 9.8606 10.2314
337 2 -7.82027 11.1679 15.7205
224 2 -5.25824 9.15525 11.0306
332 2 -7.0478 11.2032 11.7774
242 3 -5.358 7.94578 13.6092
80 1 -3.53988 13.5527 14.9205
263 3 1.41033 6.9858 16.1223
364 2 -1.55636 12.3346 14.135
46 4 -3.10543 10.392 16.5436
110 2 -3.13806 12.3422 11.9202
156 2 0.696287 8.16296 9.31576
163 2 -2.77465 12.8381 15.6719
151 2 -2.78599 7.45406 12.8962
277 3 -0.0505181 10.1814 12.7681
146 2 -0.513203 7.3561 10.299
76 1 -2.67835 8.58181 12.9607
150 2 -2.61421 9.11866 11.8968
21 4 -2.40318 8.24745 9.19799
350 2 -1.19809 11.263 15.8798
275 3 -1.77274 11.8377 16.5862
184 2 0.9464 9.06011 10.8562
149 2 -1.78869 8.86148 13.5751
74 1 -1.5643 6.9088 10.1852
87 1 1.31003 8.19255 10.2638
40 4 -0.0706523 7.50187 15.5866
43 4 -1.20209 11.2156 9.50586
45 4 0.797845 9.91253 14.162
47 4 -0.501068 11.4176 11.9031
269 3 -1.52118 9.68656 9.17491
273 3 -0.163208 9.08935 15.2376
276 3 -2.00533 11.4107 11.2928
4 2 -5.29503 12.9968 16.943
385 2 -6.58869 9.36009 11.4689
92 1 7.84675 5.20392 3.58486
118 2 8.85481 2.20609 6.15779
73 1 9.99377 5.87521 1.22528
195 2 8.58299 5.53794 2.73338
358 1 5.27253 6.70249 0.0878169
278 3 8.20003 1.54133 3.27436
291 3 5.336 5.51416 2.96575
196 2 8.2863 5.37163 4.62484
351 1 8.57783 1.04302 7.95004
352 2 9.49355 0.932358 7.24012
193 2 7.69339 3.2337 5.0594
198 2 7.40499 4.16469 3.40558
165 2 7.90095 1.87542 7.67753
82 1 5.44761 4.08235 8.47104
91 1 8.79151 2.97431 5.33981
192 2 9.38228 3.90294 5.62193
48 4 9.45019 2.40522 3.74235
168 2 7.02296 6.19993 6.83426
376 2 10.1473 6.41707 5.19012
56 4 6.41662 6.33979 3.61695
143 2 9.03877 5.50143 0.958506
288 3 9.92981 3.50593 2.7691
135 2 14.3307 0.845568 0.720338
142 2 10.6194 5.98941 0.273588
369 2 11.1571 6.10166 7.30319
7 4 14.523 1.76342 4.11353
280 3 13.68 2.1575 5.37797
51 4 12.0888 2.09575 5.78538
55 4 11.0332 4.43127 1.97666
58 4 11.8367 4.51936 7.57055
281 3 11.0984 1.2201 4.22351
289 3 11.877 3.46572 0.820627
290 3 12.0479 5.10648 3.20965
293 3 11.5579 3.54371 6.23239
325 3 13.8066 0.740299 3.13735
326 3 11.9847 1.04492 1.3744
324 4 12.288 0.456421 2.82509
49 4 11.8153 2.09274 0.138009
282 3 11.663 1.0016 6.93358
50 4 12.7446 0.363465 8.05758
59 4 6.75129 5.43115 8.53672
194 2 6.97932 1.5412 4.29957
253 3 6.06908 3.79009 0.867293
379 2 9.78618 -0.0450662 1.96592
361 2 3.85234 5.76641 17.0599
52 4 13.2993 0.462533 15.2495
380 2 8.99506 1.19448 9.06565
353 2 7.1536 1.53436 9.2464
368 2 6.13203 5.36601 16.653
383 2 7.26501 5.01097 15.0623
366 1 6.35243 5.60525 15.5212
367 2 5.362 5.6643 14.8682
26 4 5.40975 2.80789 17.2572
39 4 5.99453 4.02132 12.2014
53 4 8.05963 2.60101 15.6912
127 2 7.64686 4.05259 12.6342
333 2 13.3478 0.0831908 11.8666
261 3 5.83833 3.0946 10.9958
266 3 5.51574 5.57012 12.0146
283 3 7.33882 1.42079 14.723
285 3 6.9142 3.27071 16.6771
295 3 8.75449 3.61463 14.5692
301 3 9.12251 4.36073 11.8439
41 4 5.11918 6.45746 10.7822
300 3 8.10861 4.82468 9.10472
284 3 9.1292 1.8333 16.5588
62 4 9.10176 5.22984 10.4243
365 2 8.77726 0.357928 12.1046
294 3 6.08185 6.53671 9.51042
81 1 9.72464 1.59926 10.8834
169 2 9.46479 1.73312 12.0034
162 2 10.8489 1.61253 10.8373
166 2 9.32673 2.49662 10.2763
60 4 9.89647 4.07543 13.5599
164 2 9.33144 0.662386 10.4899
71 1 13.5357 1.5804 16.9898
95 1 12.49 4.21809 9.35234
204 2 11.0041 3.596 9.03878
119 2 11.8707 2.25774 16.4303
121 2 11.6196 0.402774 12.6804
9 4 13.5351 2.83025 10.0371
54 4 12.1811 2.03274 12.9436
279 3 13.3568 1.6249 8.87439
286 3 12.8745 2.39911 11.4613
287 3 13.2499 1.88882 14.0992
296 3 10.9725 3.0004 13.319
297 3 10.5033 5.42774 14.1631
128 2 10.6196 5.94888 9.96623
260 3 5.18971 3.43908 13.4206
158 2 3.79845 5.44127 13.891
18 4 10.2311 6.84426 14.7219
125 2 4.65518 4.62629 9.09374
117 2 6.87997 0.708453 12.0771
308 3 7.12626 6.97567 6.10012
203 2 10.4811 7.67237 6.14963
44 4 1.13164 11.274 6.1286
101 1 2.33987 10.9827 7.36266
307 3 1.7962 11.1108 4.66388
348 1 0.539904 12.9799 1.37929
42 4 2.65674 8.9393 2.15414
384 2 2.26055 12.2176 0.62455
199 2 2.74819 8.98164 7.17733
375 2 10.5384 8.19937 4.48185
94 1 10.5266 7.98884 7.36718
69 1 10.4561 7.02991 4.23076
93 1 2.98426 7.85779 7.14605
64 4 3.27904 11.352 3.85421
124 2 9.82028 7.3027 7.92829
131 2 9.66814 6.88393 3.35317
268 3 3.49981 8.68546 0.535295
113 2 3.79793 7.55525 7.82977
122 2 3.98085 8.14182 5.55505
306 3 3.29141 12.5612 2.73234
339 2 6.85637 12.0707 4.09237
338 1 7.29288 12.6355 5.06459
222 2 3.36179 10.8067 6.95619
305 3 3.54686 9.84889 3.10774
63 4 7.63589 8.58985 1.58337
65 4 6.57885 9.4854 7.72813
67 4 5.64602 11.9772 6.08428
99 1 6.4521 10.0083 1.23233
217 2 7.18369 10.8695 1.42106
302 3 6.92511 7.65164 2.67862
304 3 9.0313 9.27074 2.18446
312 3 4.53058 11.6854 4.98462
313 3 6.11081 10.7001 6.92088
314 3 5.34926 13.138 7.14866
126 2 6.9675 7.93757 6.65368
218 2 5.7076 9.8531 2.04961
225 2 4.23531 12.1768 0.708129
123 2 9.95405 6.79224 1.97216
102 1 3.28956 11.8344 0.159208
216 2 6.06011 9.99013 0.250639
197 2 5.94854 6.78103 5.40864
226 2 3.19394 10.6818 0.112724
349 2 0.590832 13.1153 0.246577
342 2 9.70941 9.63628 4.84463
359 2 4.87615 6.8099 1.15495
374 2 7.48952 13.0248 7.9716
66 4 2.41253 11.6709 9.11773
373 2 1.01435 13.392 16.4349
362 1 -0.3481 13.1311 12.8976
35 4 2.62762 7.96686 16.6895
68 4 2.17297 12.3499 15.6679
319 1 7.43349 12.7979 9.9573
310 3 0.626085 11.5375 10.0975
315 3 1.48625 11.1955 14.8368
363 2 0.176827 13.0454 13.8672
181 2 2.75779 10.4076 11.0181
209 2 2.73209 8.26879 11.6588
309 3 3.34977 13.0244 9.09467
321 2 7.42983 12.8433 11.0501
336 2 7.40059 11.9692 17.0367
213 2 8.98344 7.01472 11.8688
179 2 3.51086 9.66509 9.34536
86 1 3.50436 10.5128 10.0941
219 2 7.99011 9.89393 8.92388
303 3 6.73494 7.95592 17.3323
386 2 7.63581 10.11 17.0242
116 2 2.17379 8.90191 13.7289
154 2 7.77812 9.91503 10.9234
323 2 6.46692 12.3954 9.55852
130 2 6.60727 10.8246 15.5984
330 1 7.49379 11.0039 16.3439
215 2 10.189 7.7532 10.6627
334 2 3.88556 12.7054 13.1577
316 3 3.53669 13.1694 15.4477
129 2 6.39595 9.14498 10.5882
100 1 6.31932 9.65182 9.59462
220 2 5.87879 10.7297 9.79674
317 3 6.30398 12.9689 14.3635
214 2 8.30315 7.37099 10.0637
208 2 4.31208 9.34344 12.2611
335 2 4.13284 11.9658 11.3906
329 1 4.4288 12.7596 12.1638
331 2 7.54096 11.5834 12.4122
167 2 8.36704 9.75403 12.7789
328 1 8.70657 10.0727 11.7935
207 2 4.15691 7.41295 12.7643
180 2 4.53107 10.7931 10.4051
96 1 3.56233 8.42364 12.5765
115 2 5.18191 8.04051 11.5343
57 4 7.05414 7.3138 15.7851
61 4 4.64122 8.8282 14.3958
97 1 4.95031 10.7098 14.3573
210 2 6.5425 10.278 13.524
211 2 5.0006 11.2303 15.3732
212 2 3.89546 10.8397 13.8082
292 3 8.71664 7.22613 15.3651
298 3 6.18714 8.2297 14.6519
299 3 3.54595 8.66739 15.4706
327 4 6.08287 12.0451 13.1469
98 1 9.20957 7.08972 10.7477
182 2 2.4285 8.34779 9.94425
360 2 5.00259 7.27451 17.3405
221 2 5.26907 8.61917 8.76829
120 2 6.32236 13.5956 15.8668
ITEM: TIMESTEP
200
ITEM: NUMBER OF ATOMS
386
ITEM: BOX BOUNDS xy xz yz pp pp pp
-9.7223933726366791e+00 1.6328835544439535e+01 -8.5084605348439784e+00
-1.0598672932473274e-01 1.3719649956819472e+01 -1.3291230985686828e+00
4.2510623655953594e-03 1.7345948937634574e+01 1.6346322749467529e-01
ITEM: ATOMS id type x y z
13 4 -3.96338 6.55595 3.82564
206 2 -2.80826 5.02404 8.09993
12 4 -0.0581786 3.62231 2.20571
34 4 1.38831 6.24819 3.34403
70 1 0.143149 3.31436 6.85863
134 2 1.60362 4.39064 6.24654
233 3 -1.22806 3.09715 3.25125
235 3 -0.610558 4.66903 1.1529
254 3 1.08313 4.60936 3.01693
111 2 2.18151 2.11197 4.37371
258 3 1.91712 6.5085 4.89526
320 2 1.07475 2.75018 6.58622
15 4 0.401664 4.96226 7.41865
107 2 -0.672417 3.29272 6.15678
237 3 -0.671187 6.01436 6.78851
177 2 2.55257 3.68104 0.789318
8 4 0.328338 1.07285 0.607703
234 3 0.630876 2.34407 1.5445
104 2 -0.35841 0.826222 4.79038
132 2 -0.729975 2.2216 8.12978
170 2 -0.959901 6.00165 3.31257
176 2 3.04721 5.48057 1.09325
38 4 3.18676 6.63967 5.86374
247 3 4.36013 0.748872 4.6572
245 3 6.63739 1.13734 0.756465
256 3 5.32182 2.84601 5.91155
248 3 6.37776 0.483177 6.46352
255 3 3.01502 3.10468 7.47073
252 3 4.23578 2.74719 2.62466
244 3 3.14942 0.500041 2.39912
85 1 3.36816 4.51592 0.621864
25 4 3.48706 1.49968 3.49841
259 3 4.12255 5.41672 6.2521
24 4 7.34091 0.314995 1.99786
29 4 5.69619 1.44435 5.34608
33 4 4.74783 3.96438 1.77751
36 4 4.54268 3.81433 6.8746
148 2 4.05603 0.370409 7.9063
378 2 2.76073 0.0954124 6.54151
138 2 -3.73251 5.00526 15.6247
3 2 1.77839 0.292866 15.9521
250 3 4.42409 2.55697 15.985
357 2 1.43763 1.91098 16.3402
205 2 -3.73743 4.96172 10.269
356 2 0.436965 3.50405 16.825
158 2 3.59114 5.55089 13.8937
105 2 1.61824 3.5885 15.4403
108 2 -2.99953 5.55761 13.9917
140 2 -2.33381 3.54911 15.888
340 2 -0.549963 0.86101 10.3205
112 2 2.32393 3.42386 10.1008
72 1 -2.57227 4.72659 15.7057
10 4 1.90625 1.26839 12.6777
11 4 -0.0740698 3.56341 11.5134
17 4 -1.25779 5.26214 13.9021
78 1 1.48331 4.57566 11.4514
79 1 2.96247 4.86669 14.5816
155 2 1.32355 5.39611 12.2968
157 2 2.36727 3.88269 11.7397
231 3 -1.10665 3.3624 10.0457
232 3 0.648634 2.18246 11.9953
238 3 -0.851595 4.34436 12.6039
249 3 2.94378 2.14738 13.5773
139 2 -0.77466 4.17919 15.2662
106 2 3.08576 0.768243 11.2319
37 4 1.98925 5.92956 10.0321
137 2 -0.789083 1.77104 16.2607
354 1 0.877361 2.85707 15.9621
355 2 0.0976002 2.59314 15.2089
160 2 1.97555 4.51358 14.1167
161 2 4.70657 0.948155 15.3102
159 2 2.89765 5.24809 15.6647
145 2 -1.56733 5.97491 9.47964
257 3 1.20426 5.40428 8.71658
262 3 -0.493519 6.62861 13.9898
251 3 4.41328 1.72564 9.22836
178 2 2.36991 4.68899 16.8399
30 4 6.58865 0.431117 13.772
28 4 2.84843 2.28843 8.83449
2 1 2.41833 0.198444 16.9638
318 4 0.243247 0.812877 8.71793
31 4 3.9853 3.27038 14.3027
32 4 5.76003 2.55975 9.52737
14 4 -2.26581 5.86821 17.1209
265 3 3.58762 6.14565 10.1391
117 2 6.823 0.617579 11.9925
246 3 1.75383 1.13651 8.77741
136 2 -2.66414 2.52907 16.7255
5 2 2.99597 1.12542 17.2854
202 2 -5.79398 9.18065 7.33415
147 2 -4.12606 12.9308 6.45272
185 2 -6.12602 10.1027 8.33625
109 2 -0.962589 8.77048 0.194159
311 3 -7.86448 12.1974 5.34807
1 4 -5.67154 13.1078 1.16221
189 2 0.999458 10.5115 3.05132
19 4 -3.1704 7.87143 1.02875
341 1 -5.8725 10.372 4.11176
343 2 -4.57352 9.43688 3.65273
75 1 -4.88957 13.2778 7.13686
239 3 -3.68685 7.34055 2.40203
6 3 -5.3843 11.4496 1.58672
20 4 -5.8775 10.1635 2.3642
377 2 -5.71593 11.4822 4.23487
141 2 -4.14154 9.19293 0.383712
175 2 -6.83437 11.8364 8.60913
230 3 -7.50017 13.3804 0.69709
188 2 0.198057 8.87479 2.55449
201 2 -4.42723 7.82168 7.51175
236 3 -2.81686 6.81625 4.9839
144 2 -5.34499 12.4108 7.74378
114 2 1.39657 9.88981 0.838441
171 2 -0.470233 7.31268 1.98893
16 4 -1.73306 7.10739 6.23318
191 2 -2.07779 9.68787 2.07535
172 2 -0.623475 7.76327 3.97143
83 1 -0.3859 6.98856 3.14811
345 2 -1.99292 11.9342 2.50754
90 1 -2.3064 9.43719 0.982775
200 2 1.80478 7.28998 7.53617
241 3 -2.73074 7.55474 7.83778
174 2 -1.11319 9.28911 4.83729
347 2 -2.08849 12.8389 4.14941
27 4 -1.03806 13.248 7.31631
84 1 -0.882931 8.68792 5.83164
173 2 -1.26027 9.25978 6.81024
187 2 0.257409 8.38121 5.93799
267 3 2.14411 7.31324 2.54732
89 1 0.517916 9.94016 2.19037
344 1 -2.32026 12.9439 3.03489
381 2 -0.406395 10.5496 1.8118
223 2 1.14529 9.78354 7.178
346 2 -3.43414 13.1334 2.76588
382 2 -3.22361 10.8132 0.24932
270 3 -1.62116 12.4434 8.55004
190 2 0.507907 11.9161 1.72057
240 3 -2.56322 6.78035 0.034899
374 2 -8.5575 12.9731 7.93881
186 2 -5.06836 11.3435 9.19341
322 2 -7.77295 12.0242 9.58259
372 2 -6.62897 10.6944 10.0323
88 1 -6.16959 11.0017 9.02804
152 2 -7.01324 13.307 13.5438
271 3 -4.74636 13.0371 14.3656
133 2 -2.07684 6.91442 11.083
371 2 -4.85407 12.7822 10.7352
77 1 -6.28208 13.1345 11.9031
22 4 -4.42032 9.27808 13.7064
23 4 -4.66992 12.1707 12.474
153 2 -7.18403 12.9815 11.0939
243 3 -4.90089 10.6351 12.6574
274 3 -3.75892 9.7947 15.1589
103 1 -4.61676 9.05574 10.1025
227 2 -4.96326 8.69226 9.09578
228 2 -3.91715 8.07525 10.7171
229 2 -3.97657 10.0142 10.1299
337 2 -7.83893 11.1988 15.765
224 2 -5.6091 9.26083 10.7593
332 2 -7.07337 11.2462 11.8188
242 3 -5.45504 8.13211 13.9221
80 1 -3.58866 13.5054 14.8522
263 3 1.40109 7.01799 16.0547
364 2 -1.59827 12.3652 14.1101
46 4 -3.12766 10.3567 16.4899
110 2 -3.00742 12.345 11.9619
156 2 0.863849 7.9936 9.34616
163 2 -2.82348 12.7096 15.5791
151 2 -3.07169 7.5869 12.6925
277 3 0.0551226 10.3081 12.8531
146 2 -0.389349 7.33759 10.2482
76 1 -2.76875 8.62129 13.1085
150 2 -2.34385 9.28844 12.298
21 4 -2.37114 8.25677 9.13165
350 2 -1.21824 11.222 15.8574
275 3 -1.86727 11.7988 16.4518
184 2 1.1778 9.09764 10.8383
149 2 -2.07994 8.54873 14.0444
74 1 -1.50601 6.92707 10.1015
87 1 1.45354 8.10254 10.345
40 4 -0.105616 7.48548 15.63
43 4 -1.18278 11.1135 9.45513
45 4 0.788925 9.88604 14.2227
47 4 -0.468402 11.4266 11.859
269 3 -1.46183 9.57336 8.96649
273 3 -0.184484 9.21071 15.3664
276 3 -1.90059 11.2548 11.2676
4 2 -5.35674 12.9386 16.8509
264 3 -1.18817 7.01488 16.7451
385 2 -6.62861 9.43286 11.6841
183 2 0.897253 6.86686 11.3539
370 2 -5.06721 6.87798 16.2158
92 1 7.77045 5.04713 3.53212
118 2 8.78109 2.12372 6.38984
73 1 10.0037 5.78442 1.23011
195 2 8.57828 5.37895 2.70302
358 1 5.24222 6.63476 0.120929