ITEM: TIMESTEP
0
ITEM: NUMBER OF ATOMS
386
ITEM: BOX BOUNDS xy xz yz pp pp pp
-9.9951798830400023e+00 1.6492609739224015e+01 -8.5944045806504832e+00
-1.0598672932473274e-01 1.3719649956819472e+01 -1.5159655631655009e+00
4.2510623655953594e-03 1.7345948937634574e+01 1.6346322749467529e-01
ITEM: ATOMS id type x y z
13 4 -4.03106 6.56715 3.8112
206 2 -2.56866 4.8322 7.97938
12 4 -0.00617412 3.72931 2.2015
34 4 1.25458 6.23642 3.39968
70 1 -0.107109 3.39964 6.67623
134 2 1.30707 4.4408 5.83334
233 3 -0.972694 3.32949 3.44885
235 3 -0.936331 4.50421 1.03562
254 3 1.12826 4.79973 2.6527
111 2 2.17056 2.28086 4.24774
258 3 1.83488 6.38878 4.91495
320 2 0.83288 2.87069 6.36691
15 4 0.296972 5.0963 7.13325
107 2 -0.89197 3.4851 5.80973
237 3 -0.908612 6.00486 6.69608
177 2 2.69029 3.71656 1.19228
8 4 0.326172 1.11958 0.626214
234 3 0.654736 2.31057 1.61768
104 2 -0.406488 0.8172 4.54409
132 2 -0.86177 2.33116 7.96951
170 2 -1.07719 5.92226 3.22163
176 2 3.09737 5.498 1.46748
38 4 3.22668 6.57267 5.79812
247 3 4.36626 0.920282 4.68979
245 3 7.14353 1.1046 0.524697
256 3 5.82251 2.99499 6.00124
248 3 6.23922 0.366728 6.34926
255 3 3.21607 2.91222 7.20256
252 3 4.53012 2.74601 2.87646
244 3 3.14926 0.4402 2.34778
85 1 3.48532 4.45134 1.03307
25 4 3.55594 1.58206 3.50698
259 3 4.06648 5.3364 6.15257
24 4 7.68753 0.244446 1.72712
29 4 5.80782 1.45018 5.3443
33 4 4.98392 3.99181 2.03865
36 4 4.58394 3.78547 6.8005
246 3 1.54636 1.13502 8.57996
318 4 0.0493667 0.840733 8.55064
257 3 1.14348 5.41175 8.46822
236 3 -3.16402 6.64415 5.23037
28 4 2.68594 2.24856 8.64343
378 2 2.92302 0.00742186 6.45188
148 2 4.31517 0.0945866 7.51712
138 2 -4.24316 5.0017 15.7431
158 2 3.62222 5.40262 13.7565
250 3 4.3122 2.51999 15.973
357 2 1.32641 1.80763 16.2993
183 2 0.76275 6.48164 11.2925
356 2 0.204801 3.22808 16.6297
125 2 4.56319 4.52608 9.11172
105 2 1.6358 3.43736 15.3868
108 2 -3.17734 5.51745 14.0705
140 2 -2.88446 3.61565 16.0335
340 2 -0.513633 0.894031 10.2238
112 2 1.89499 3.32425 9.75258
72 1 -3.09415 4.73645 15.8277
10 4 1.77558 1.35226 12.6299
11 4 -0.218584 3.50625 11.6348
17 4 -1.43797 5.19855 14.0743
78 1 1.42322 4.41093 11.3502
79 1 2.91696 4.78209 14.5565
155 2 1.2943 5.11437 12.2785
157 2 2.35236 3.79973 11.388
231 3 -1.20483 3.28231 10.1961
232 3 0.346678 1.94267 12.1778
238 3 -1.01332 4.28978 12.7695
249 3 2.78677 2.19025 13.5066
139 2 -1.24376 4.2172 15.5345
106 2 2.84046 1.0514 11.1676
37 4 1.91745 5.81228 9.95356
137 2 -1.0287 1.9654 16.2354
354 1 0.801431 2.68645 15.8158
355 2 0.143328 2.34985 14.9527
160 2 1.84247 4.93997 14.2987
161 2 4.69266 0.896599 15.4376
159 2 3.20003 5.10499 15.5884
145 2 -1.90255 5.9681 9.725
205 2 -3.63182 5.19718 10.0017
262 3 -0.634186 6.62393 14.1819
251 3 4.06067 1.70955 9.31623
178 2 2.31227 4.66248 17.3225
30 4 6.53336 0.343077 13.8437
117 2 6.75273 0.394025 12.0998
265 3 3.43 5.92989 10.2953
5 2 2.8147 0.762691 17.1405
31 4 3.88992 3.17446 14.2866
32 4 5.55319 2.50136 9.53507
14 4 -2.72431 5.80619 17.2656
270 3 -1.87583 12.4821 8.66857
147 2 -4.26007 12.5381 6.17446
185 2 -6.09859 10.1678 8.26692
175 2 -6.80805 11.8365 8.50981
311 3 -7.81403 12.7468 5.71975
1 4 -5.85013 13.081 1.27827
189 2 1.00082 10.5269 3.23995
19 4 -3.37063 7.8477 1.15711
341 1 -5.77619 10.5153 4.49833
343 2 -4.6405 9.57447 3.89522
75 1 -4.91957 13.063 6.95173
239 3 -3.8041 7.67309 2.71163
6 3 -5.48021 11.5891 1.82464
20 4 -6.08761 10.3863 2.7811
377 2 -5.50556 11.5876 4.73284
141 2 -4.21822 9.14576 0.264194
272 3 -0.176342 12.3544 6.42425
230 3 -7.68086 13.2886 0.7398
188 2 0.142183 8.88434 2.75744
201 2 -4.73086 7.81892 7.61333
240 3 -2.70321 6.79881 0.199559
144 2 -5.4256 12.2979 7.66435
114 2 1.3083 9.82135 1.44614
171 2 -0.532688 7.36908 2.09533
16 4 -2.10948 7.0159 6.39063
191 2 -2.2205 9.64293 2.11367
172 2 -0.812098 7.66238 4.10324
83 1 -0.455142 6.9058 3.19363
345 2 -2.56193 11.924 1.584
90 1 -2.4897 9.45453 0.985065
200 2 2.16035 7.31301 7.65204
241 3 -3.01068 7.48889 8.00434
174 2 -1.62769 9.11269 4.90581
347 2 -2.09314 12.3133 3.28061
27 4 -1.19534 13.2582 7.24231
84 1 -1.31349 8.62624 5.82722
173 2 -1.57317 9.20821 6.81442
187 2 -0.213183 8.20872 5.88297
267 3 2.38214 7.49534 2.53024
89 1 0.459539 9.9344 2.35328
344 1 -2.34778 12.7482 2.324
381 2 -0.414949 10.573 1.93304
223 2 1.07812 9.78202 7.31446
342 2 -6.62147 10.0354 5.08758
382 2 -3.29516 10.7606 0.207315
109 2 -1.01218 8.66911 0.290545
190 2 0.606396 11.784 1.60732
202 2 -6.19735 9.02615 7.42731
346 2 -3.15944 13.5657 2.25344
186 2 -5.16267 11.2897 9.32927
322 2 -7.84637 11.952 9.42372
372 2 -6.79001 10.696 9.99873
88 1 -6.17942 11.0041 9.04349
152 2 -7.12734 13.3357 13.4866
271 3 -4.94865 12.9215 14.6485
133 2 -2.11942 6.85046 11.4488
371 2 -4.77845 13.2782 11.1816
77 1 -6.43271 13.1173 11.9227
22 4 -4.40434 9.26178 13.6633
23 4 -4.9997 12.2247 12.6866
153 2 -7.2617 12.9718 11.0731
243 3 -5.11332 10.6637 12.7266
274 3 -3.94746 9.64472 15.2053
103 1 -4.84178 9.17032 10.1263
227 2 -5.21993 8.7634 9.0891
228 2 -4.01653 8.10931 10.866
229 2 -4.30248 10.1196 10.0283
337 2 -8.1332 11.3218 15.5356
224 2 -5.77693 9.45268 10.785
332 2 -7.18819 11.2641 11.7962
242 3 -5.43294 8.06705 13.7813
80 1 -3.75367 13.4277 14.9382
263 3 1.22064 7.01921 16.0591
364 2 -1.52529 12.3858 14.2808
46 4 -3.28063 10.1387 16.5322
110 2 -3.37764 12.3638 12.1031
156 2 0.668918 8.18445 9.42657
163 2 -2.92044 12.5916 15.6542
151 2 -3.06195 7.56131 12.2661
277 3 -0.122383 10.3299 12.8682
146 2 -0.557297 7.33706 10.2933
76 1 -2.86706 8.56057 12.8366
150 2 -2.6513 9.45063 12.0415
21 4 -2.67747 8.18966 9.39775
350 2 -1.22545 10.8163 16.1544
275 3 -2.00845 11.5709 16.3978
184 2 1.07244 8.76368 11.137
149 2 -2.09764 8.48136 13.671
74 1 -1.74012 6.94085 10.3145
87 1 1.32256 7.98568 10.2949
40 4 -0.307979 7.40731 15.6448
43 4 -1.44702 11.246 9.57732
45 4 0.634505 9.81803 14.2005
47 4 -0.509306 11.5179 11.8923
269 3 -1.84644 9.70579 9.35595
273 3 -0.41355 9.14551 15.2464
276 3 -2.09399 11.6423 11.3858
2 1 -6.44066 13.5392 16.9568
4 2 -5.81829 12.531 16.892
370 2 -5.17927 6.8948 16.1733
264 3 -1.63395 6.93595 16.7128
3 2 -7.28472 13.574 16.0894
92 1 7.88927 5.5138 3.41208
118 2 8.87586 2.37179 6.21045
73 1 10.1863 5.86567 1.17186
195 2 8.65848 5.66118 2.50491
358 1 5.34022 6.55323 0.0562731
278 3 8.38305 1.44069 3.21567
291 3 5.31384 5.45875 3.14278
196 2 8.33503 5.93118 4.51577
351 1 8.48715 1.14712 7.7854
352 2 9.3159 0.880029 7.00246
193 2 7.93471 3.60492 5.18301
198 2 7.45898 4.43607 3.5349
165 2 7.96523 2.10313 7.4003
82 1 5.47524 4.06452 8.46209
91 1 8.96874 3.18397 5.34842
192 2 9.7316 3.97817 5.55984
48 4 9.48124 2.4781 3.74821
168 2 7.0371 6.22327 6.96
359 2 5.15177 6.52304 1.17982
56 4 6.36716 6.48695 3.54794
143 2 9.09895 5.42174 0.894332
288 3 10.0195 3.62885 2.77546
135 2 14.4964 0.662303 0.410216
142 2 10.8686 5.96081 0.300252
369 2 11.3262 6.08697 7.17482
7 4 14.6571 1.85338 3.98006
280 3 13.7559 1.96189 5.24029
51 4 12.203 2.04391 5.70471
55 4 11.1957 4.40344 2.00314
58 4 11.9553 4.5275 7.49357
281 3 11.2224 1.49203 4.0816
289 3 11.8768 3.62042 0.50049
290 3 12.4235 5.08745 3.02929
293 3 11.8706 3.50367 6.28816
325 3 13.956 0.852058 3.0549
326 3 11.9316 0.926389 1.37468
324 4 12.4295 0.409684 2.82727
49 4 11.7842 2.04355 0.306399
282 3 11.8078 0.974404 6.81409
50 4 12.7205 0.329985 8.03473
59 4 6.72935 5.38366 8.56845
194 2 7.09081 1.41518 4.13519
253 3 6.18007 3.6918 0.923745
376 2 10.2433 6.29063 4.94954
379 2 10.142 -0.062483 1.56058
361 2 3.76402 5.69084 16.9212
52 4 13.3422 0.59771 15.033
380 2 8.91813 1.19114 8.82721
353 2 6.93052 1.65538 8.90795
368 2 6.05229 5.47342 16.6771
383 2 7.03443 5.18537 14.9966
366 1 6.19281 5.75558 15.537
367 2 5.22927 5.51939 14.996
26 4 5.36303 2.73483 17.125
39 4 6.04241 4.0796 12.278
53 4 7.96601 2.62854 15.6084
127 2 7.69303 4.17657 12.602
18 4 10.2853 6.81744 14.7802
261 3 5.85338 3.0961 10.9449
266 3 5.6211 5.5839 11.9911
283 3 7.21363 1.42353 14.7188
285 3 6.77522 3.32068 16.6412
295 3 8.63478 3.65617 14.5531
301 3 9.12059 4.42763 11.8497
41 4 5.04391 6.41229 10.8341
300 3 8.16322 4.81003 9.08763
284 3 8.96673 1.86647 16.6396
62 4 9.09297 5.02868 10.4072
136 2 13.3293 2.53163 16.9552
294 3 6.02836 6.52279 9.57069
81 1 9.64693 1.35934 10.7698
169 2 9.89658 1.5438 11.8426
162 2 10.4812 0.837519 10.1868
166 2 9.49124 2.35855 10.3099
60 4 9.84686 4.14542 13.6376
164 2 8.68017 0.711951 10.6699
71 1 13.6065 1.44093 16.9578
95 1 12.7988 4.35683 9.19726
204 2 11.1356 3.76575 9.03526
119 2 11.7421 2.04809 16.732
121 2 11.6849 0.557241 12.4492
9 4 13.5995 2.88588 9.96372
54 4 12.1384 2.20217 12.8403
279 3 13.4448 1.48645 9.10012
286 3 12.866 2.62322 11.4439
287 3 13.1816 1.83152 14.11
296 3 10.9042 2.97274 13.3394
297 3 10.5811 5.46631 14.0433
128 2 10.6835 5.8084 10.1575
260 3 5.25659 3.54876 13.517
365 2 8.89165 0.225262 12.2161
120 2 14.9062 0.114334 15.602
333 2 13.2528 0.087933 11.8276
213 2 8.79146 6.81237 11.819
308 3 7.1298 7.01574 6.16337
203 2 10.4269 7.57264 6.14597
44 4 1.09614 11.2847 6.14867
101 1 2.29076 11.0047 7.37873
307 3 1.7777 11.2424 4.6657
348 1 0.649742 12.946 1.19189
42 4 2.80861 8.93834 2.06657
384 2 2.52488 12.1316 0.698356
199 2 2.94111 9.05251 7.20102
375 2 10.3702 8.12101 4.55183
94 1 10.5345 7.92258 7.38006
69 1 10.4887 7.0752 4.15048
93 1 3.14755 7.91237 7.19446
64 4 3.49081 11.3053 3.96078
124 2 9.92098 7.26367 8.05488
374 2 7.53666 12.9297 7.81709
268 3 3.47865 8.79318 0.629511
113 2 4.04876 7.67212 7.78986
122 2 4.14636 8.05696 5.50698
306 3 3.5111 12.5408 2.97034
339 2 6.78543 12.7231 4.2636
338 1 7.39031 12.7287 5.37404
222 2 3.3126 10.9665 6.8916
305 3 3.62415 9.96763 3.11395
63 4 7.75644 8.6607 1.54011
65 4 6.55903 9.40588 7.74989
67 4 5.71057 12.0235 6.19637
99 1 6.6161 10.0552 1.10186
217 2 6.95149 11.0409 1.42092
302 3 6.9912 7.75257 2.52987
304 3 9.10703 9.43512 2.22506
312 3 4.58707 11.6142 5.04092
313 3 6.17267 10.6812 6.95385
314 3 5.23236 13.1448 7.29055
126 2 7.05673 7.91033 6.74013
218 2 5.67998 9.71771 1.62077
225 2 4.45301 12.2886 0.509988
123 2 10.0398 6.8724 1.75448
102 1 3.5042 11.7543 0.177009
131 2 9.84871 6.93231 3.17356
197 2 6.08752 7.14597 5.33464
226 2 3.57514 10.5788 0.362337
216 2 6.54081 9.93556 0.0142932
66 4 2.28302 11.5999 9.11425
373 2 0.770591 13.0444 16.4413
362 1 -0.323592 13.1598 12.9713
35 4 2.49244 7.88047 16.7091
68 4 2.08149 12.2198 15.6607
319 1 7.49957 12.6792 9.73006
310 3 0.529179 11.6416 10.0953
315 3 1.50367 11.0019 14.8101
363 2 0.268732 12.9558 13.8736
181 2 2.85707 10.4266 10.948
209 2 2.64811 8.21683 11.8437
309 3 2.95014 13.0719 8.99233
321 2 7.36416 12.8391 10.8468
336 2 7.29789 11.9984 17.0474
116 2 1.77126 8.64968 13.6422
179 2 3.35452 9.55542 9.30588
86 1 3.53956 10.4676 9.99729
219 2 8.02108 9.64921 8.98263
303 3 6.78795 7.87951 17.3024
386 2 7.55698 10.2037 16.7425
360 2 4.81628 7.24447 17.1708
154 2 7.84664 9.96621 10.9637
323 2 6.56156 12.3213 9.24946
130 2 6.39365 11.0276 15.5128
330 1 7.39141 11.1561 16.1867
215 2 10.1411 7.78554 10.4418
334 2 3.73068 12.6918 13.1961
316 3 3.30719 13.1846 15.322
129 2 6.46729 8.60072 10.3949
100 1 6.40943 9.43325 9.6336
220 2 6.07713 10.4019 10.0786
317 3 6.3634 13.3001 14.1009
214 2 8.37346 7.1911 9.9413
208 2 4.05966 9.36073 12.3153
335 2 4.0357 11.9147 11.3726
329 1 4.33824 12.7588 12.2411
331 2 7.28295 11.5287 12.2923
167 2 8.12658 10.0002 12.8902
328 1 8.68466 10.1316 11.8171
207 2 4.03084 7.45004 12.8853
180 2 4.65783 10.7458 10.0897
96 1 3.41976 8.4615 12.6519
115 2 4.9719 8.05484 11.5104
57 4 6.93072 7.41453 15.6648
61 4 4.44924 8.94088 14.4617
97 1 4.69659 10.8535 14.4713
210 2 6.31433 10.4429 13.8062
211 2 4.54165 11.2613 15.5321
212 2 3.74532 10.9142 13.7289
292 3 8.68578 7.07718 15.2456
298 3 5.94642 8.27006 14.5731
299 3 3.4438 8.56577 15.5711
327 4 5.92419 12.1285 13.1817
98 1 9.24345 6.95639 10.6554
385 2 9.50174 9.34682 11.7096
182 2 2.42561 8.05784 9.97716
221 2 5.07728 8.67887 8.70411
349 2 -1.07436 13.2849 17.3352
ITEM: TIMESTEP
100
ITEM: NUMBER OF ATOMS
386
ITEM: BOX BOUNDS xy xz yz pp pp pp
-9.9951798830400023e+00 1.6492609739224015e+01 -8.5944045806504832e+00
-1.0598672932473274e-01 1.3719649956819472e+01 -1.5159655631655009e+00
4.2510623655953594e-03 1.7345948937634574e+01 1.6346322749467529e-01
ITEM: ATOMS id type x y z
13 4 -4.01267 6.59048 3.79952
206 2 -2.67984 4.67469 8.15303
12 4 0.0642262 3.65866 2.16319
34 4 1.30245 6.20235 3.36501
70 1 0.220777 3.25519 6.80584
134 2 1.48987 4.2825 5.8143
233 3 -1.03472 3.07142 3.2851
235 3 -0.717474 4.61569 1.01252
254 3 1.25679 4.66845 2.95452
111 2 2.1049 2.09519 3.98387
258 3 1.8127 6.34633 4.91925
320 2 1.19421 2.69796 6.56439
15 4 0.42787 4.9416 7.12133
107 2 -0.63532 3.15746 5.98777
237 3 -0.780432 5.9914 6.59407
177 2 2.49534 3.82905 1.28157
8 4 0.293674 1.19298 0.616455
234 3 0.646536 2.40222 1.52975
104 2 -0.47586 0.899021 4.99726
132 2 -0.765694 2.32889 8.08006
170 2 -1.15483 5.98303 3.27416
176 2 3.11478 5.60875 1.25418
38 4 3.16845 6.53152 5.77281
247 3 4.48806 0.975118 4.62337
245 3 6.97993 1.26447 0.663978
256 3 5.53496 3.01785 5.93625
248 3 6.48265 0.42456 6.35759
255 3 3.09478 3.09843 7.38686
252 3 4.35604 2.76399 2.70698
244 3 3.16827 0.411331 2.34344
85 1 3.35605 4.51324 1.03387
25 4 3.62639 1.54106 3.41332
259 3 4.15925 5.37341 6.22177
24 4 7.53743 0.321154 1.90487
29 4 5.73975 1.4597 5.44865
33 4 4.91666 3.98746 1.91359
36 4 4.47062 3.87976 6.80666
246 3 1.70982 1.12255 8.55964
148 2 4.10053 0.348744 7.55355
257 3 1.21682 5.50617 8.67213
138 2 -4.02481 5.24668 15.3762
2 1 2.1905 0.0969641 17.0687
250 3 4.2979 2.58757 15.9734
357 2 1.16366 1.77446 16.2073
183 2 0.769937 6.79726 11.2952
356 2 0.0392613 3.26913 16.5866
28 4 2.82202 2.23688 8.72722
105 2 1.57009 3.54028 15.486
108 2 -3.24349 5.48573 13.843
140 2 -2.87054 3.68296 15.79
340 2 -0.413755 0.988143 10.3976
112 2 2.25452 3.40094 9.83488
72 1 -2.9343 4.81569 15.6349
10 4 1.76096 1.411 12.5664
11 4 -0.198569 3.52523 11.5241
17 4 -1.49292 5.23904 13.9734
78 1 1.48495 4.48186 11.3079
79 1 3.00684 4.86345 14.7592
155 2 1.258 5.17065 12.2053
157 2 2.41694 3.88903 11.5721
231 3 -1.11656 3.41707 10.1377
232 3 0.345984 1.97587 12.1575
238 3 -1.01048 4.35098 12.6452
249 3 2.75838 2.28306 13.4181
139 2 -1.08686 4.22631 15.4262
106 2 2.85556 0.854677 11.1682
37 4 1.87452 5.98898 10.0462
137 2 -1.04834 1.98204 16.3248
354 1 0.694326 2.76933 15.8158
355 2 0.0685346 2.54937 14.8934
160 2 1.95518 4.9631 14.4774
161 2 4.72474 1.11298 15.3764
159 2 3.20347 5.19752 15.8692
145 2 -1.67033 5.91536 9.89958
205 2 -3.89789 4.98694 10.1863
262 3 -0.739178 6.58816 14.2917
251 3 4.34969 1.68242 9.40902
136 2 -2.99675 2.69161 16.8461
30 4 6.56417 0.423583 13.7905
318 4 0.181341 0.884193 8.6995
265 3 3.46292 6.19416 10.3038
5 2 2.58238 1.17671 17.338
31 4 3.82964 3.20284 14.269
32 4 5.69039 2.56048 9.55152
14 4 -2.61677 5.84539 17.0893
264 3 -1.38025 6.7849 16.8042
178 2 2.06264 4.61088 17.2333
3 2 1.4136 0.104587 16.3068
202 2 -6.0641 9.10951 7.50827
147 2 -4.03794 12.6365 6.4083
185 2 -6.08404 10.2754 8.27531
175 2 -6.73373 12.0793 8.6174
311 3 -7.95367 12.7012 5.51443
1 4 -5.90771 13.029 1.22855
189 2 0.978757 10.3783 3.2501
19 4 -3.27939 7.87434 1.13759
341 1 -5.78189 10.2541 4.37652
343 2 -4.45736 9.53897 3.64055
75 1 -4.89621 13.1384 7.0065
239 3 -3.66035 7.63991 2.66318
6 3 -5.618 11.4974 1.61725
20 4 -5.99101 10.2219 2.61616
377 2 -5.74747 11.3036 4.71383
141 2 -4.14095 9.20104 0.310036
272 3 -0.141029 12.1906 6.56447
230 3 -7.7416 13.4326 0.71516
188 2 0.178443 8.72686 2.6222
201 2 -4.67827 7.76326 7.69885
270 3 -1.92367 12.4491 8.53041
144 2 -5.32811 12.3782 7.74914
114 2 1.52877 9.95757 1.04352
171 2 -0.699264 7.38152 2.22664
16 4 -1.91928 7.18829 6.23693
191 2 -2.0311 9.65635 2.0319
172 2 -0.653415 7.58664 4.02221
83 1 -0.479124 6.87031 3.13678
345 2 -2.19782 11.7536 2.00245
90 1 -2.33448 9.42328 0.935928
200 2 1.88277 7.22129 7.51146
241 3 -2.878 7.55158 7.86585
174 2 -1.42922 9.38103 4.89368
347 2 -2.2309 12.6549 3.76227
27 4 -1.10508 13.2131 7.3021
84 1 -1.06131 8.752 5.72814
173 2 -1.08249 9.34797 6.72748
187 2 -0.0310001 8.23802 5.51564
267 3 2.17327 7.39828 2.46494
89 1 0.494746 9.81948 2.27878
344 1 -2.29859 12.7522 2.59168
381 2 -0.415335 10.4241 2.02562
223 2 0.99435 9.69935 7.02703
346 2 -3.25815 13.2219 2.43088
382 2 -3.23827 10.8305 0.193299
109 2 -1.0577 8.70667 0.193104
190 2 0.573008 11.839 1.70951
378 2 -5.72021 13.4125 6.35335
236 3 -2.95871 6.82965 5.05601
240 3 -2.68173 6.74359 0.135147
186 2 -5.14205 11.4523 9.4388
322 2 -7.9111 12.0691 9.53165
372 2 -6.7852 10.7959 9.98511
88 1 -6.22126 11.1224 9.07115
152 2 -7.05358 13.4457 13.512
271 3 -4.82939 13.0473 14.4969
133 2 -2.19288 6.959 11.3082
371 2 -4.92493 12.9966 10.9287
77 1 -6.40995 13.0506 11.9608
22 4 -4.45225 9.12899 13.718
23 4 -4.92554 12.1109 12.6029
153 2 -7.30505 12.9142 11.2265
243 3 -5.17959 10.5342 12.6733
274 3 -3.94249 9.74256 15.2175
103 1 -4.54812 8.86335 10.2898
227 2 -5.07725 8.53748 9.19305
228 2 -3.84358 7.77019 10.8521
229 2 -3.7333 9.86286 10.1776
337 2 -8.104 11.1357 15.7233
224 2 -5.43855 9.15595 11.0234
332 2 -7.27107 11.2371 11.734
242 3 -5.53854 7.92285 13.6152
80 1 -3.67657 13.549 14.914
263 3 1.26236 6.9991 16.1106
364 2 -1.6806 12.3195 14.1161
46 4 -3.30851 10.3808 16.5462
110 2 -3.33034 12.2044 11.9346
156 2 0.602342 8.15172 9.30917
163 2 -2.94933 12.8472 15.6469
151 2 -2.66605 7.45029 12.6276
277 3 -0.167951 10.1955 12.7642
146 2 -0.586001 7.39258 10.3397
76 1 -2.86774 8.53655 12.9506
150 2 -2.86681 9.22029 11.9458
21 4 -2.53313 8.26291 9.20222
350 2 -1.37643 11.2834 15.9025
275 3 -1.94906 11.8059 16.6132
184 2 0.910068 9.06399 10.8615
149 2 -2.06248 8.91782 13.6156
74 1 -1.71017 6.97685 10.2768
87 1 1.22904 8.16391 10.2641
40 4 -0.194602 7.5099 15.5773
43 4 -1.29009 11.2216 9.48309
45 4 0.689893 9.90603 14.1506
47 4 -0.608715 11.4297 11.9011
269 3 -1.6553 9.69625 9.17453
273 3 -0.281312 9.08139 15.2195
276 3 -2.11116 11.4352 11.2756
370 2 -5.28847 6.93411 16.1856
4 2 -5.55799 12.968 16.9402
92 1 7.89846 5.18424 3.58657
118 2 8.87578 2.19619 6.2449
73 1 10.0519 5.85091 1.23202
195 2 8.64258 5.51012 2.7349
358 1 5.33124 6.71693 0.0530589
278 3 8.23361 1.53944 3.27721
291 3 5.40604 5.50743 2.94362
196 2 8.33507 5.37443 4.62814
351 1 8.55895 1.05429 7.96036
352 2 9.47303 0.925613 7.27284
193 2 7.73675 3.25583 5.08549
198 2 7.44178 4.14226 3.41182
165 2 7.88752 1.93332 7.69273
82 1 5.43619 4.06393 8.48144
91 1 8.82399 2.94807 5.36797
192 2 9.43031 3.83291 5.60982
48 4 9.49315 2.39309 3.76569
168 2 6.95817 6.18815 6.8444
376 2 10.2328 6.39576 5.16219
56 4 6.47865 6.33216 3.60615
143 2 9.0998 5.45648 0.921176
288 3 10.013 3.49998 2.77078
135 2 14.5015 0.917152 0.683396
142 2 10.6634 5.97166 0.278291
369 2 11.2178 6.06693 7.29614
7 4 14.6046 1.76328 4.1203
280 3 13.7525 2.1973 5.35321
51 4 12.1498 2.08998 5.7685
55 4 11.1 4.41459 1.9887
58 4 11.8874 4.50843 7.56796
281 3 11.1417 1.22375 4.21673
289 3 11.9772 3.47136 0.825151
290 3 12.1156 5.1097 3.20309
293 3 11.6345 3.53801 6.22202
325 3 13.8895 0.748766 3.13866
326 3 12.055 1.05856 1.39387
324 4 12.3596 0.467795 2.83427
49 4 11.9333 2.08935 0.152266
282 3 11.7197 0.98475 6.905
50 4 12.8027 0.359811 8.04241
59 4 6.70709 5.43238 8.55849
194 2 6.97857 1.5446 4.26097
253 3 6.12068 3.76541 0.856225
379 2 9.9078 -0.0264124 1.97161
361 2 3.72228 5.76348 17.0383
52 4 13.2825 0.457118 15.2669
380 2 8.97596 1.21626 9.06464
353 2 7.1005 1.53435 9.21016
368 2 6.04627 5.32395 16.6336
383 2 7.24032 5.0741 15.0784
366 1 6.27493 5.60139 15.5238
367 2 5.32294 5.52183 14.8635
26 4 5.307 2.81318 17.2488
39 4 5.92427 4.01078 12.209
53 4 7.99291 2.58495 15.6996
127 2 7.59931 4.07687 12.7018
333 2 13.2738 0.104272 11.894
261 3 5.78943 3.0938 10.9994
266 3 5.45285 5.56631 12.0163
283 3 7.25593 1.42543 14.7332
285 3 6.83083 3.28145 16.6911
295 3 8.70178 3.59708 14.5762
301 3 9.01158 4.35313 11.8752
41 4 5.03108 6.44142 10.7822
300 3 8.07421 4.83781 9.13555
284 3 9.06129 1.84437 16.5576
62 4 9.05661 5.21489 10.4512
125 2 4.61843 4.65263 9.15262
294 3 6.00595 6.52638 9.53132
81 1 9.71193 1.58394 10.9008
169 2 9.52296 1.63778 12.0521
162 2 10.8269 1.60076 10.7913
166 2 9.24027 2.50528 10.3712
60 4 9.85479 4.07226 13.5698
164 2 9.28733 0.648827 10.4773
71 1 13.5116 1.56344 16.9707
95 1 12.5362 4.21854 9.3368
204 2 11.0354 3.56924 9.02212
119 2 11.7908 2.18983 16.4684
121 2 11.6232 0.413013 12.7215
9 4 13.5702 2.82767 10.0406
54 4 12.1596 2.05587 12.9316
279 3 13.3976 1.62618 8.87214
286 3 12.8726 2.41561 11.4555
287 3 13.204 1.88897 14.0958
296 3 10.942 3.00706 13.2942
297 3 10.4249 5.41971 14.1817
128 2 10.5937 5.90317 10.0154
260 3 5.0832 3.46637 13.4049
365 2 8.72192 0.350192 12.1309
158 2 3.70365 5.46644 13.9542
18 4 10.167 6.84556 14.7215
117 2 6.851 0.674506 12.0725
308 3 7.11878 6.96945 6.12282
203 2 10.5685 7.64599 6.15656
44 4 1.07611 11.2724 6.12141
101 1 2.25938 10.987 7.38094
307 3 1.79531 11.1474 4.67262
348 1 0.535634 13 1.38928
42 4 2.6658 8.94102 2.15067
384 2 2.3033 12.2085 0.625871
199 2 2.69332 8.98227 7.1936
375 2 10.6128 8.18338 4.51323
94 1 10.5845 7.9826 7.34939
69 1 10.5424 7.02559 4.23051
93 1 2.93735 7.87276 7.14814
64 4 3.26816 11.3576 3.86555
124 2 9.86502 7.30931 7.90742
131 2 9.75003 6.9041 3.35509
268 3 3.53024 8.71347 0.515427
113 2 3.79621 7.58195 7.81696
122 2 3.96362 8.12289 5.53925
306 3 3.28241 12.5673 2.74121
339 2 6.81525 12.0923 4.10908
338 1 7.26495 12.6486 5.10441
222 2 3.29202 10.8041 7.01264
305 3 3.51288 9.85486 3.11697
63 4 7.71263 8.57604 1.56778
65 4 6.58086 9.49476 7.72146
67 4 5.62759 11.9883 6.09195
99 1 6.51599 10.0044 1.22345
217 2 7.25441 10.8528 1.40704
302 3 6.98432 7.64219 2.67447
304 3 9.09449 9.27773 2.18306
312 3 4.51564 11.6901 4.99666
313 3 6.0879 10.7056 6.92558
314 3 5.32442 13.1307 7.1542
126 2 6.96681 7.91411 6.69048
218 2 5.71131 9.94102 2.00894
225 2 4.23967 12.1751 0.638519
349 2 0.572142 13.1577 0.274939
102 1 3.26917 11.814 0.146313
216 2 6.15119 9.97824 0.230906
197 2 5.96171 6.78518 5.34008
226 2 3.21022 10.6523 0.190855
342 2 9.76049 9.63672 4.84119
123 2 10.0012 6.75679 1.96701
374 2 7.45024 13.0882 7.9439
359 2 4.94913 6.83489 1.15247
66 4 2.3206 11.6753 9.11743
373 2 0.85452 13.3965 16.4028
362 1 -0.479219 13.1237 12.8922
35 4 2.49245 7.98308 16.6823
68 4 2.02497 12.3443 15.6743
319 1 7.43764 12.7919 9.91981
310 3 0.538224 11.5314 10.1096
315 3 1.37099 11.1829 14.8417
363 2 0.00260407 13.0709 13.9441
181 2 2.75234 10.4094 11.0257
209 2 2.65125 8.28572 11.6714
309 3 3.27707 13.0146 9.07726
120 2 6.21842 13.5759 15.8697
336 2 7.29593 11.9797 17.0137
182 2 2.35827 8.29939 9.93914
179 2 3.42599 9.6889 9.3793
86 1 3.42412 10.5265 10.1032
219 2 7.90541 9.929 8.8758
303 3 6.61495 7.9414 17.3436
386 2 7.51838 10.1199 17.0404
321 2 7.40603 12.8007 11.0312
154 2 7.73029 9.9588 10.9243
323 2 6.48819 12.382 9.49958
130 2 6.48998 10.8184 15.5945
330 1 7.38055 10.9989 16.3421
215 2 10.1636 7.71267 10.6712
334 2 3.75498 12.6967 13.1378
316 3 3.43798 13.1467 15.4677
129 2 6.362 9.18722 10.6445
100 1 6.22653 9.65546 9.63818
220 2 5.71286 10.7357 9.80833
317 3 6.18467 12.9555 14.3817
214 2 8.28323 7.38323 10.0437
208 2 4.30226 9.35399 12.2727
335 2 4.06312 11.9554 11.4077
329 1 4.35032 12.751 12.1897
331 2 7.48762 11.5444 12.4511
167 2 8.37348 9.74135 12.7365
328 1 8.66278 10.0956 11.7455
207 2 4.03348 7.38344 12.7789
180 2 4.48385 10.8489 10.3781
96 1 3.49044 8.41771 12.5713
115 2 5.09888 8.02827 11.5306
57 4 6.96996 7.31771 15.789
61 4 4.52251 8.82699 14.4007
97 1 4.85691 10.7119 14.3476
210 2 6.43663 10.2624 13.5145
211 2 4.89387 11.2357 15.3554
212 2 3.80784 10.8338 13.7866
292 3 8.63824 7.24431 15.3556
298 3 6.07224 8.24728 14.6669
299 3 3.42455 8.66072 15.4693
327 4 5.99076 12.0221 13.1616
98 1 9.18609 7.06308 10.7477
213 2 8.9371 7.07276 11.8531
116 2 2.04311 8.92063 13.6705
221 2 5.38675 8.80175 8.8956
360 2 4.86793 7.27597 17.2927
385 2 9.54618 9.37872 11.3583
ITEM: TIMESTEP
200
ITEM: NUMBER OF ATOMS
386
ITEM: BOX BOUNDS xy xz yz pp pp pp
-9.9951798830400023e+00 1.6492609739224015e+01 -8.5944045806504832e+00
-1.0598672932473274e-01 1.3719649956819472e+01 -1.5159655631655009e+00
4.2510623655953594e-03 1.7345948937634574e+01 1.6346322749467529e-01
ITEM: ATOMS id type x y z
13 4 -4.05109 6.55216 3.77765
206 2 -2.87082 4.8991 8.11167
12 4 -0.115811 3.62124 2.17539
34 4 1.34359 6.23988 3.35569
70 1 -0.0245866 3.34645 6.79221
134 2 1.51965 4.43075 6.27737
233 3 -1.31977 3.09476 3.25936
235 3 -0.601364 4.68661 1.10721
254 3 1.03215 4.62243 3.02406
111 2 2.26453 2.12989 4.34834
258 3 1.92548 6.5103 4.89076
320 2 0.954632 2.8153 6.58505
15 4 0.309146 4.95633 7.43403
107 2 -0.696634 3.48039 5.93218
237 3 -0.737018 6.03024 6.76475
177 2 2.67506 3.70852 0.911215
8 4 0.31997 1.11081 0.593892
234 3 0.587992 2.35269 1.54667
104 2 -0.47755 0.798496 4.77897
132 2 -0.775256 2.33664 8.03529
170 2 -1.04892 6.06125 3.44664
176 2 3.05954 5.54511 1.06546
38 4 3.17509 6.63317 5.88
247 3 4.42088 0.738657 4.60409
245 3 6.77297 1.14454 0.755341
256 3 5.29466 2.82349 5.91891
248 3 6.42471 0.521817 6.44146
255 3 3.00271 3.10371 7.454
252 3 4.30579 2.74697 2.59759
244 3 3.15206 0.52438 2.36545
85 1 3.4258 4.55433 0.640316
25 4 3.5363 1.50735 3.45546
259 3 4.1068 5.402 6.24528
24 4 7.45948 0.322885 1.97595
29 4 5.73899 1.44591 5.32264
33 4 4.81687 3.98119 1.75059
36 4 4.49201 3.81909 6.85305
148 2 3.96076 0.329548 7.87739
138 2 -3.86148 5.09496 15.535
2 1 2.24114 0.137908 16.9489
250 3 4.38627 2.51909 15.9552
357 2 1.24754 1.84649 16.3435
183 2 0.774528 6.78757 11.343
356 2 0.272558 3.49647 16.8083
28 4 2.82782 2.29093 8.83227
105 2 1.55561 3.53489 15.4827
108 2 -3.12764 5.60568 13.9624
140 2 -2.56131 3.60592 15.7821
340 2 -0.548695 0.877692 10.3521
112 2 2.263 3.39551 10.0948
72 1 -2.73824 4.7703 15.6672
10 4 1.82962 1.26285 12.6803
11 4 -0.169621 3.54826 11.53
17 4 -1.37765 5.27392 13.9093
78 1 1.4053 4.58736 11.4202
79 1 2.89613 4.85788 14.6451
155 2 1.21886 5.37541 12.2658
157 2 2.25908 3.85525 11.7317
231 3 -1.23204 3.35769 10.1208
232 3 0.562022 2.17287 12.0013
238 3 -0.929667 4.32783 12.622
249 3 2.83982 2.11429 13.6002
139 2 -0.934474 4.21073 15.2685
106 2 2.99922 0.7006 11.2113
37 4 1.85838 5.89629 10.0315
137 2 -0.906823 1.8162 16.3052
354 1 0.71669 2.84429 15.9562
355 2 -0.0420167 2.59678 15.1552
160 2 1.77934 4.6565 14.3343
161 2 4.7147 0.893295 15.2507
159 2 3.01562 5.34643 15.7094
145 2 -1.7637 6.12383 9.84241
205 2 -3.77476 4.9682 10.2515
262 3 -0.5839 6.64772 14.0072
251 3 4.3759 1.70668 9.24691
3 2 1.62873 0.189285 15.9637
30 4 6.53339 0.403431 13.7635
318 4 0.194626 0.895069 8.72638
257 3 1.08566 5.36904 8.71896
5 2 2.84802 1.0097 17.1866
31 4 3.88548 3.25773 14.3269
32 4 5.74676 2.54768 9.5331
14 4 -2.43339 5.88745 17.101
117 2 6.79792 0.598472 12.0105
178 2 2.16749 4.67231 16.8678
158 2 3.47407 5.51885 13.8892
265 3 3.5132 6.16622 10.1499
246 3 1.72422 1.12106 8.7827
136 2 -2.93838 2.58352 16.7275
202 2 -5.75546 9.24605 7.3086
147 2 -4.16367 12.8988 6.45539
185 2 -6.2405 10.0432 8.36377
175 2 -6.9613 11.785 8.58116
374 2 -8.74735 13.0851 7.83537
1 4 -5.78098 13.1274 1.14657
189 2 0.915895 10.5448 3.12768
19 4 -3.17555 7.86189 1.01058
341 1 -5.95287 10.3505 4.10181
343 2 -4.60618 9.40144 3.56863
75 1 -4.9764 13.1925 7.10136
239 3 -3.71662 7.32124 2.3566
6 3 -5.52249 11.4676 1.61285
20 4 -5.97762 10.1584 2.35662
377 2 -5.79776 11.5191 4.2037
141 2 -4.16731 9.16299 0.327713
109 2 -0.892242 8.79628 0.23052
230 3 -7.61464 13.4023 0.677672
188 2 0.115158 8.85441 2.61736
201 2 -4.48762 7.79196 7.51141
270 3 -1.6748 12.4395 8.4976
144 2 -5.40916 12.3292 7.70966
114 2 1.59495 9.91504 0.890367
171 2 -0.542311 7.24831 2.03382
16 4 -1.81646 7.12223 6.24353
191 2 -2.06944 9.69725 2.00828
172 2 -0.650236 7.85917 3.94392
83 1 -0.422447 7.00052 3.20158
345 2 -2.15556 11.9196 2.60378
90 1 -2.30045 9.42277 0.959885
200 2 1.8315 7.23315 7.58007
241 3 -2.80456 7.50446 7.91739
174 2 -1.19445 9.22396 4.82731
347 2 -2.09632 12.9309 4.08334
27 4 -1.08819 13.2473 7.30769
84 1 -0.962623 8.69707 5.86115
173 2 -1.39377 9.30614 6.81099
187 2 0.182384 8.48007 5.9893
267 3 2.14044 7.30154 2.50248
89 1 0.508989 9.93639 2.20162
344 1 -2.31545 12.9101 2.97889
381 2 -0.383888 10.5454 1.77667
223 2 1.03634 9.72038 7.13935
346 2 -3.37087 13.2784 2.65675
382 2 -3.20932 10.7793 0.173868
378 2 -5.86005 13.592 6.46796
236 3 -2.8707 6.84575 5.00311
190 2 0.520814 11.9066 1.7143
94 1 -5.63304 8.09993 7.20275
240 3 -2.54739 6.77611 0.00620385
186 2 -5.2545 11.3215 9.20675
322 2 -7.89891 12.0567 9.60662
372 2 -6.76441 10.6755 9.98958
88 1 -6.3042 10.9691 9.00825
152 2 -7.19243 13.3454 13.5672
271 3 -4.88751 13.0161 14.3545
133 2 -2.17785 7.07884 11.4756
371 2 -4.99544 12.7076 10.7786
77 1 -6.49595 13.1286 11.9127
22 4 -4.65462 9.26293 13.7166
23 4 -4.88935 12.1232 12.5007
153 2 -7.35631 13.0073 11.0685
243 3 -5.18085 10.606 12.6822
274 3 -3.93955 9.72365 15.1304
103 1 -4.7658 9.10519 10.0855
227 2 -5.15 8.71085 9.03667
228 2 -4.04402 8.0328 10.7137
229 2 -4.03848 9.9633 9.99476
337 2 -8.09986 11.1846 15.7897
224 2 -5.62772 9.37818 10.7137
332 2 -7.29955 11.2447 11.8286
242 3 -5.61372 8.06871 13.8762
80 1 -3.70878 13.4938 14.7816
263 3 1.27967 7.04514 16.0901
364 2 -1.68449 12.3707 14.1813
46 4 -3.29749 10.316 16.4811
110 2 -3.26219 12.1664 11.9371
156 2 0.857641 7.97117 9.2951
163 2 -3.00523 12.6673 15.4988
151 2 -3.12221 7.79674 12.1919
277 3 -0.0838889 10.294 12.8559
146 2 -0.537712 7.46675 10.3956
76 1 -2.98847 8.72365 12.9347
150 2 -2.55018 9.67902 12.4028
21 4 -2.53561 8.30872 9.18255
350 2 -1.37786 11.2134 15.8763
275 3 -2.04365 11.7643 16.4256
184 2 0.932358 9.0601 10.7458
149 2 -2.41535 8.4142 13.8806
74 1 -1.69262 7.1237 10.3725
87 1 1.33744 8.12224 10.3155
40 4 -0.241962 7.50926 15.6321
43 4 -1.25964 11.1553 9.45798
45 4 0.664468 9.87625 14.2322
47 4 -0.573434 11.4268 11.8561
269 3 -1.58111 9.58685 9.01699
273 3 -0.278713 9.19965 15.3915
276 3 -1.99895 11.2748 11.2873
4 2 -5.64031 12.85 16.8689
264 3 -1.34271 7.00558 16.7077
370 2 -5.31008 6.90489 16.2044
385 2 -6.79093 9.45781 11.5213
92 1 7.84605 5.079 3.56579
118 2 8.88301 2.18036 6.41506
73 1 10.0487 5.73449 1.18129
195 2 8.66352 5.41085 2.71368
358 1 5.28993 6.6437 0.0463618