ITEM: TIMESTEP
0
ITEM: NUMBER OF ATOMS
386
ITEM: BOX BOUNDS xy xz yz pp pp pp
-9.8217629042873114e+00 1.6492609739224015e+01 -8.5944045806504832e+00
-1.0598672932473274e-01 1.3857906323680913e+01 -1.3425485844128109e+00
4.2510623655953594e-03 1.7345948937634574e+01 1.6509785976962205e-01
ITEM: ATOMS id type x y z
13 4 -3.99299 6.63388 3.8112
206 2 -2.48891 4.88158 7.97938
12 4 0.0157983 3.76766 2.2015
34 4 1.28853 6.29985 3.39968
70 1 -0.0403888 3.43469 6.67623
134 2 1.36536 4.48627 5.83334
233 3 -0.938248 3.36385 3.44885
235 3 -0.926018 4.55032 1.03562
254 3 1.15474 4.84878 2.6527
111 2 2.213 2.30473 4.24774
258 3 1.88398 6.45372 4.91495
320 2 0.896507 2.90046 6.36691
15 4 0.368262 5.14832 7.13325
107 2 -0.833915 3.52102 5.80973
237 3 -0.841694 6.06596 6.69608
177 2 2.70217 3.75479 1.19228
8 4 0.332391 1.13183 0.626214
234 3 0.670871 2.33473 1.61768
104 2 -0.361089 0.826432 4.54409
132 2 -0.782117 2.35553 7.96951
170 2 -1.04502 5.98255 3.22163
176 2 3.112 5.55404 1.46748
38 4 3.28462 6.63946 5.79812
247 3 4.41312 0.930544 4.68979
245 3 7.14874 1.11671 0.524697
256 3 5.88248 3.026 6.00124
248 3 6.30268 0.371455 6.34926
255 3 3.28805 2.94241 7.20256
252 3 4.55884 2.77453 2.87646
244 3 3.1727 0.445662 2.34778
85 1 3.4956 4.49691 1.03307
25 4 3.59097 1.59894 3.50698
259 3 4.12797 5.39082 6.15257
24 4 7.70476 0.24795 1.72712
29 4 5.86122 1.46574 5.3443
33 4 5.00427 4.03279 2.03865
36 4 4.6519 3.82438 6.8005
246 3 1.63211 1.14743 8.57996
318 4 0.134831 0.8502 8.55064
257 3 1.22812 5.46693 8.46822
236 3 -3.11176 6.71166 5.23037
28 4 2.77233 2.2721 8.64343
378 2 2.9875 0.00855594 6.45188
148 2 4.3903 0.0965924 7.51712
138 2 -4.08577 5.05278 15.7431
158 2 3.75974 5.4577 13.7565
250 3 4.47188 2.54625 15.973
357 2 1.48936 1.82676 16.2993
183 2 0.875633 6.54751 11.2925
356 2 0.371056 3.26142 16.6297
125 2 4.65426 4.5724 9.11172
105 2 1.78963 3.47279 15.3868
108 2 -3.03667 5.57368 14.0705
140 2 -2.72417 3.65287 16.0335
340 2 -0.411437 0.904031 10.2238
112 2 1.99248 3.35855 9.75258
72 1 -2.93591 4.78487 15.8277
10 4 1.90184 1.36684 12.6299
11 4 -0.102278 3.54237 11.6348
17 4 -1.29727 5.2516 14.0743
78 1 1.53667 4.45609 11.3502
79 1 3.06248 4.83097 14.5565
155 2 1.41704 5.16657 12.2785
157 2 2.46619 3.83878 11.388
231 3 -1.10291 3.31619 10.1961
232 3 0.468414 1.96316 12.1778
238 3 -0.88567 4.33373 12.7695
249 3 2.9218 2.21322 13.5066
139 2 -1.08846 4.26043 15.5345
106 2 2.95209 1.06297 11.1676
37 4 2.01695 5.87146 9.95356
137 2 -0.866388 1.98612 16.2354
354 1 0.959547 2.71437 15.8158
355 2 0.292813 2.37441 14.9527
160 2 1.98542 4.99042 14.2987
161 2 4.847 0.906625 15.4376
159 2 3.35588 5.1571 15.5884
145 2 -1.80535 6.02884 9.725
205 2 -3.53185 5.25021 10.0017
262 3 -0.492409 6.69123 14.1819
251 3 4.15379 1.72771 9.31623
178 2 2.48545 4.71016 17.3225
30 4 6.67176 0.347568 13.8437
117 2 6.87369 0.399025 12.0998
265 3 3.53291 5.99025 10.2953
5 2 2.98606 0.771378 17.1405
31 4 4.03274 3.20726 14.2866
32 4 5.64849 2.52743 9.53507
14 4 -2.5517 5.86531 17.2656
270 3 -1.78918 12.6079 8.66857
147 2 -4.19837 12.6645 6.17446
185 2 -6.01597 10.2705 8.26692
175 2 -6.723 11.956 8.50981
311 3 -7.75688 12.8753 5.71975
1 4 -5.83739 13.2128 1.27827
189 2 1.03317 10.6332 3.23995
19 4 -3.3591 7.92724 1.15711
341 1 -5.73125 10.6215 4.49833
343 2 -4.60159 9.67127 3.89522
75 1 -4.8501 13.1946 6.95173
239 3 -3.77703 7.75088 2.71163
6 3 -5.462 11.7061 1.82464
20 4 -6.05984 10.4912 2.7811
377 2 -5.45827 11.7046 4.73284
141 2 -4.21562 9.23827 0.264194
272 3 -0.112142 12.479 6.42425
230 3 -7.6735 13.4226 0.7398
188 2 0.169715 8.97424 2.75744
201 2 -4.65477 7.89817 7.61333
240 3 -2.70126 6.86786 0.199559
144 2 -5.349 12.422 7.66435
114 2 1.32272 9.92063 1.44614
171 2 -0.511777 7.44383 2.09533
16 4 -2.04562 7.08712 6.39063
191 2 -2.1994 9.74042 2.11367
172 2 -0.771108 7.74006 4.10324
83 1 -0.423248 6.97592 3.19363
345 2 -2.54614 12.0443 1.584
90 1 -2.47989 9.55014 0.985065
200 2 2.23683 7.3872 7.65204
241 3 -2.93068 7.56484 8.00434
174 2 -1.57867 9.20488 4.90581
347 2 -2.06038 12.4375 3.28061
27 4 -1.12296 13.3918 7.24231
84 1 -1.25526 8.71356 5.82722
173 2 -1.50506 9.30135 6.81442
187 2 -0.154396 8.29187 5.88297
267 3 2.4074 7.57135 2.53024
89 1 0.48303 10.0348 2.35328
344 1 -2.32458 12.8768 2.324
381 2 -0.395661 10.6798 1.93304
223 2 1.15123 9.8809 7.31446
342 2 -6.57063 10.1368 5.08758
382 2 -3.29313 10.8693 0.207315
109 2 -1.00932 8.75686 0.290545
190 2 0.622427 11.9029 1.60732
202 2 -6.12312 9.11747 7.42731
346 2 -3.13695 13.7024 2.25344
186 2 -5.06942 11.4037 9.32927
322 2 -7.75218 12.0725 9.42372
372 2 -6.69007 10.804 9.99873
88 1 -6.08903 11.1152 9.04349
152 2 -6.99252 13.4701 13.4866
271 3 -4.80221 13.0518 14.6485
133 2 -2.00498 6.92002 11.4488
371 2 -4.66668 13.412 11.1816
77 1 -6.31353 13.2496 11.9227
22 4 -4.26775 9.35546 13.6633
23 4 -4.87288 12.348 12.6866
153 2 -7.15101 13.1026 11.0731
243 3 -4.9861 10.7714 12.7266
274 3 -3.79544 9.74223 15.2053
103 1 -4.74056 9.26308 10.1263
227 2 -5.12908 8.85209 9.0891
228 2 -3.90792 8.19146 10.866
229 2 -4.20224 10.2218 10.0283
337 2 -7.97788 11.4361 15.5356
224 2 -5.66912 9.54827 10.785
332 2 -7.07028 11.3778 11.7962
242 3 -5.29517 8.14878 13.7813
80 1 -3.60433 13.563 14.9382
263 3 1.38119 7.09047 16.0591
364 2 -1.38252 12.5107 14.2808
46 4 -3.11535 10.2411 16.5322
110 2 -3.25665 12.4885 12.1031
156 2 0.763141 8.26735 9.42657
163 2 -2.76394 12.7185 15.6542
151 2 -2.93933 7.63799 12.2661
277 3 0.00625646 10.4342 12.8682
146 2 -0.454406 7.41149 10.2933
76 1 -2.73873 8.64723 12.8366
150 2 -2.53093 9.5462 12.0415
21 4 -2.58353 8.27261 9.39775
350 2 -1.06395 10.9256 16.1544
275 3 -1.84451 11.6877 16.3978
184 2 1.18377 8.85237 11.137
149 2 -1.96097 8.56723 13.671
74 1 -1.63701 7.01132 10.3145
87 1 1.42546 8.06659 10.2949
40 4 -0.151574 7.48244 15.6448
43 4 -1.35129 11.3595 9.57732
45 4 0.776467 9.91727 14.2005
47 4 -0.390426 11.6341 11.8923
269 3 -1.75293 9.80391 9.35595
273 3 -0.261129 9.23802 15.2464
276 3 -1.98017 11.7598 11.3858
2 1 -6.27114 13.6757 16.9568
4 2 -5.64941 12.6574 16.892
370 2 -5.01758 6.9648 16.1733
264 3 -1.46687 7.00637 16.7128
3 2 -7.12387 13.7108 16.0894
92 1 7.92335 5.57 3.41208
118 2 8.93792 2.39657 6.21045
73 1 10.198 5.92539 1.17186
195 2 8.68349 5.71885 2.50491
358 1 5.34074 6.61982 0.0562731
278 3 8.41517 1.45616 3.21567
291 3 5.34522 5.5144 3.14278
196 2 8.38015 5.99155 4.51577
351 1 8.56496 1.15966 7.7854
352 2 9.38588 0.88989 7.00246
193 2 7.9865 3.64203 5.18301
198 2 7.49428 4.48149 3.5349
165 2 8.03919 2.12523 7.4003
82 1 5.55982 4.10622 8.46209
91 1 9.02219 3.21687 5.34842
192 2 9.78716 4.01902 5.55984
48 4 9.51868 2.50394 3.74821
168 2 7.10666 6.28656 6.96
359 2 5.16353 6.58933 1.17982
56 4 6.40259 6.55288 3.54794
143 2 9.10785 5.47702 0.894332
288 3 10.0472 3.6662 2.77546
135 2 14.5005 0.669986 0.410216
142 2 10.8716 6.02148 0.300252
369 2 11.3979 6.1489 7.17482
7 4 14.6968 1.87297 3.98006
280 3 13.8082 1.98257 5.24029
51 4 12.26 2.06541 5.70471
55 4 11.2157 4.44853 2.00314
58 4 12.0301 4.57383 7.49357
281 3 11.2632 1.50801 4.0816
289 3 11.8818 3.65768 0.50049
290 3 12.4538 5.13938 3.02929
293 3 11.9334 3.53977 6.28816
325 3 13.9865 0.861639 3.0549
326 3 11.9453 0.936713 1.37468
324 4 12.4577 0.414841 2.82727
49 4 11.7872 2.06505 0.306399
282 3 11.8759 0.985208 6.81409
50 4 12.8008 0.334345 8.03473
59 4 6.81499 5.43856 8.56845
194 2 7.13212 1.4304 4.13519
253 3 6.18927 3.72978 0.923745
376 2 10.2928 6.3546 4.94954
379 2 10.1575 -0.062048 1.56058
361 2 3.93319 5.74881 16.9212
52 4 13.4924 0.604747 15.033
380 2 9.00636 1.20411 8.82721
353 2 7.01956 1.673 8.90795
368 2 6.21902 5.52922 16.6771
383 2 7.18435 5.23828 14.9966
366 1 6.34814 5.8142 15.537
367 2 5.37918 5.57564 14.996
26 4 5.53423 2.76323 17.125
39 4 6.16515 4.12146 12.278
53 4 8.12205 2.65588 15.6084
127 2 7.81901 4.21939 12.602
18 4 10.4331 6.88667 14.7802
261 3 5.96278 3.12812 10.9449
266 3 5.74097 5.6408 11.9911
283 3 7.36078 1.43883 14.7188
285 3 6.94159 3.35495 16.6412
295 3 8.78027 3.69379 14.5531
301 3 9.23904 4.47297 11.8497
41 4 5.15221 6.47747 10.8341
300 3 8.25405 4.85919 9.08763
284 3 9.13308 1.88619 16.6396
62 4 9.197 5.08002 10.4072
136 2 13.4988 2.55801 16.9552
294 3 6.12402 6.58907 9.57069
81 1 9.75459 1.37399 10.7698
169 2 10.015 1.5603 11.8426
162 2 10.5831 0.846954 10.1868
166 2 9.5943 2.38319 10.3099
60 4 9.98319 4.18794 13.6376
164 2 8.78683 0.720131 10.6699
71 1 13.776 1.4564 16.9578
95 1 12.8907 4.40145 9.19726
204 2 11.2259 3.80447 9.03526
119 2 11.9094 2.06963 16.732
121 2 11.8094 0.563874 12.4492
9 4 13.6991 2.9158 9.96372
54 4 12.2668 2.22525 12.8403
279 3 13.5357 1.50237 9.10012
286 3 12.9804 2.65051 11.4439
287 3 13.3227 1.85089 14.11
296 3 11.0375 3.00352 13.3394
297 3 10.7215 5.52203 14.0433
128 2 10.7851 5.86754 10.1575
260 3 5.39172 3.5853 13.517
365 2 9.01377 0.228574 12.2161
120 2 15.0622 0.116537 15.602
333 2 13.3711 0.0898721 11.8276
213 2 8.90961 6.88156 11.819
308 3 7.19139 7.08696 6.16337
203 2 10.4883 7.64942 6.14597
44 4 1.15758 11.3986 6.14867
101 1 2.3645 11.1158 7.37873
307 3 1.82431 11.3558 4.6657
348 1 0.661618 13.0765 1.19189
42 4 2.82923 9.02878 2.06657
384 2 2.53182 12.2539 0.698356
199 2 3.01308 9.1441 7.20102
375 2 10.4157 8.20328 4.55183
94 1 10.6083 8.00287 7.38006
69 1 10.5301 7.14702 4.15048
93 1 3.21945 7.99255 7.19446
64 4 3.53038 11.4194 3.96078
124 2 10.0015 7.33736 8.05488
374 2 7.61479 13.06 7.81709
268 3 3.48491 8.88217 0.629511
113 2 4.12661 7.7499 7.78986
122 2 4.20139 8.13859 5.50698
306 3 3.54076 12.6672 2.97034
339 2 6.82803 12.8513 4.2636
338 1 7.44401 12.857 5.37404
222 2 3.38147 11.0772 6.8916
305 3 3.65525 10.0684 3.11395
63 4 7.7718 8.74836 1.54011
65 4 6.63649 9.501 7.74989
67 4 5.77249 12.1448 6.19637
99 1 6.62707 10.1568 1.10186
217 2 6.96566 11.1524 1.42092
302 3 7.01645 7.83115 2.52987
304 3 9.12924 9.53053 2.22506
312 3 4.63744 11.7314 5.04092
313 3 6.24217 10.7891 6.95385
314 3 5.30522 13.2773 7.29055
126 2 7.12409 7.99049 6.74013
218 2 5.69614 9.81594 1.62077
225 2 4.45807 12.4125 0.509988
123 2 10.0573 6.94218 1.75448
102 1 3.50593 11.8729 0.177009
131 2 9.88041 7.00269 3.17356
197 2 6.14083 7.21849 5.33464
226 2 3.57872 10.6856 0.362337
216 2 6.54091 10.036 0.0142932
66 4 2.37412 11.7169 9.11425
373 2 0.934961 13.1759 16.4413
362 1 -0.193922 13.2924 12.9713
35 4 2.65949 7.96033 16.7091
68 4 2.23805 12.343 15.6607
319 1 7.59683 12.807 9.73006
310 3 0.63009 11.7591 10.0953
315 3 1.65173 11.1129 14.8101
363 2 0.407426 13.0864 13.8736
181 2 2.9665 10.5319 10.948
209 2 2.76651 8.30006 11.8437
309 3 3.04002 13.2037 8.99233
321 2 7.47259 12.9685 10.8468
336 2 7.46832 12.1195 17.0474
116 2 1.90764 8.73723 13.6422
179 2 3.44754 9.65203 9.30588
86 1 3.63949 10.5733 9.99729
219 2 8.11087 9.74676 8.98263
303 3 6.96093 7.95936 17.3024
386 2 7.72437 10.3068 16.7425
360 2 4.98795 7.31798 17.1708
154 2 7.95624 10.0669 10.9637
323 2 6.65401 12.4456 9.24946
130 2 6.54874 11.1389 15.5128
330 1 7.55324 11.2687 16.1867
215 2 10.2455 7.86446 10.4418
334 2 3.8626 12.8198 13.1961
316 3 3.46037 13.3175 15.322
129 2 6.57119 8.68779 10.3949
100 1 6.50573 9.52865 9.6336
220 2 6.17787 10.5069 10.0786
317 3 6.50436 13.4342 14.1009
214 2 8.47283 7.26407 9.9413
208 2 4.18277 9.45539 12.3153
335 2 4.14938 12.0349 11.3726
329 1 4.46061 12.8874 12.2411
331 2 7.40583 11.6451 12.2923
167 2 8.25544 10.1012 12.8902
328 1 8.80279 10.234 11.8171
207 2 4.15966 7.5256 12.8853
180 2 4.75868 10.8544 10.0897
96 1 3.54624 8.54718 12.6519
115 2 5.08696 8.13644 11.5104
57 4 7.08733 7.48973 15.6648
61 4 4.59381 9.03135 14.4617
97 1 4.84126 10.963 14.4713
210 2 6.45235 10.5484 13.8062
211 2 4.69693 11.3749 15.5321
212 2 3.88257 11.0244 13.7289
292 3 8.8382 7.14902 15.2456
298 3 6.09211 8.35382 14.5731
299 3 3.59947 8.65249 15.5711
327 4 6.05596 12.2508 13.1817
98 1 9.34997 7.02702 10.6554
385 2 9.61879 9.44135 11.7096
182 2 2.52534 8.13948 9.97716
221 2 5.16428 8.76671 8.70411
349 2 -0.90105 13.4188 17.3352
ITEM: TIMESTEP
100
ITEM: NUMBER OF ATOMS
386
ITEM: BOX BOUNDS xy xz yz pp pp pp
-9.8217629042873114e+00 1.6492609739224015e+01 -8.5944045806504832e+00
-1.0598672932473274e-01 1.3857906323680913e+01 -1.3425485844128109e+00
4.2510623655953594e-03 1.7345948937634574e+01 1.6509785976962205e-01
ITEM: ATOMS id type x y z
13 4 -3.96828 6.65151 3.80323
206 2 -2.56815 4.66247 8.12249
12 4 0.0745322 3.70248 2.16
34 4 1.36664 6.27195 3.34785
70 1 0.328776 3.29853 6.85549
134 2 1.52721 4.37526 5.80219
233 3 -1.00781 3.08489 3.2681
235 3 -0.713232 4.6805 1.02229
254 3 1.26159 4.74649 2.94398
111 2 2.16827 2.08773 4.02264
258 3 1.87553 6.38485 4.90491
320 2 1.27737 2.73777 6.5046
15 4 0.506728 5.00472 7.1184
107 2 -0.631095 3.10444 6.27018
237 3 -0.740858 6.06823 6.57877
177 2 2.52091 3.89025 1.32872
8 4 0.294737 1.22726 0.604161
234 3 0.642574 2.44732 1.50265
104 2 -0.461427 0.894062 4.96375
132 2 -0.699334 2.25795 8.06707
170 2 -1.11531 6.0749 3.23864
176 2 3.16038 5.62735 1.25976
38 4 3.21673 6.58426 5.77314
247 3 4.55669 0.983475 4.61794
245 3 7.02121 1.28869 0.679821
256 3 5.59113 3.03356 5.92374
248 3 6.53377 0.440861 6.3753
255 3 3.19061 3.13617 7.39064
252 3 4.36979 2.80372 2.70626
244 3 3.19244 0.398446 2.33504
85 1 3.3796 4.54816 1.0457
25 4 3.67872 1.55454 3.41808
259 3 4.19481 5.45433 6.22043
24 4 7.56387 0.326505 1.90345
29 4 5.80927 1.47174 5.45023
33 4 4.94557 4.01967 1.91936
36 4 4.53931 3.88498 6.80585
246 3 1.81408 1.15451 8.56399
148 2 4.14037 0.342638 7.59873
257 3 1.30621 5.5702 8.67334
5 2 4.04656 1.00123 0.0207987
138 2 -3.87446 5.312 15.4077
264 3 -1.22136 6.84665 16.8031
250 3 4.46644 2.5876 15.9652
357 2 1.35211 1.77946 16.247
183 2 0.855941 6.80692 11.3303
356 2 0.188149 3.28497 16.5684
28 4 2.92398 2.2731 8.74131
105 2 1.74593 3.56465 15.5224
108 2 -3.087 5.54622 13.868
140 2 -2.70372 3.72977 15.8155
340 2 -0.316421 1.01805 10.39
112 2 2.3029 3.44235 9.83145
72 1 -2.77048 4.87891 15.6575
10 4 1.90297 1.42697 12.5519
11 4 -0.0929069 3.5603 11.5292
17 4 -1.34064 5.3068 13.9823
78 1 1.58778 4.52077 11.3145
79 1 3.17645 4.86144 14.7617
155 2 1.37941 5.22726 12.2226
157 2 2.51176 3.93944 11.5737
231 3 -1.0178 3.43771 10.1513
232 3 0.487132 2.00168 12.153
238 3 -0.874882 4.38544 12.6518
249 3 2.90697 2.30058 13.4045
139 2 -0.903366 4.32927 15.4314
106 2 2.96366 0.899115 11.1705
37 4 1.97365 6.0348 10.031
137 2 -0.904839 1.95818 16.2841
354 1 0.867721 2.78248 15.832
355 2 0.236615 2.58603 14.9189
160 2 2.10279 4.95043 14.481
161 2 4.89585 1.11078 15.3586
159 2 3.37012 5.17592 15.9194
145 2 -1.61101 6.04883 9.92438
205 2 -3.74736 5.01167 10.1714
262 3 -0.568951 6.65688 14.2618
251 3 4.42968 1.73531 9.41968
318 4 0.283467 0.892893 8.70169
30 4 6.72338 0.430406 13.8048
178 2 2.22109 4.6196 17.2244
265 3 3.58077 6.24364 10.3139
3 2 1.58869 0.111316 16.3216
31 4 3.96269 3.20884 14.2756
32 4 5.78976 2.58406 9.53916
14 4 -2.44602 5.9118 17.0985
2 1 2.35028 0.114374 17.0547
378 2 -5.66286 13.57 6.37205
147 2 -3.97418 12.8134 6.40968
185 2 -5.90197 10.2958 8.28992
175 2 -6.77671 12.0432 8.46771
311 3 -7.90015 12.8668 5.49767
1 4 -5.92778 13.1879 1.2496
189 2 1.01698 10.4862 3.24463
19 4 -3.24255 7.93687 1.12779
341 1 -5.73698 10.3195 4.36292
343 2 -4.46247 9.55092 3.56846
75 1 -4.83869 13.2853 7.01757
239 3 -3.63172 7.69693 2.64878
6 3 -5.63525 11.6473 1.62789
20 4 -5.97753 10.321 2.60017
377 2 -5.67184 11.3895 4.6823
141 2 -4.12792 9.25536 0.293753
272 3 -0.0447078 12.338 6.57004
230 3 -7.68344 13.5858 0.747925
188 2 0.215893 8.79265 2.65437
201 2 -4.57492 7.78391 7.71618
236 3 -2.91917 6.87428 5.02715
144 2 -5.26492 12.4887 7.72881
114 2 1.52529 10.08 1.01569
171 2 -0.602767 7.45424 2.20213
16 4 -1.85868 7.24433 6.2309
191 2 -1.99353 9.73932 2.00932
172 2 -0.601973 7.65204 3.99284
83 1 -0.424415 6.94326 3.12062
345 2 -2.09483 11.9284 1.97293
90 1 -2.33438 9.4904 0.926635
200 2 1.97604 7.30535 7.54018
241 3 -2.76012 7.64542 7.87516
174 2 -1.33127 9.43788 4.89079
347 2 -2.25505 12.8006 3.76459
27 4 -1.04756 13.3481 7.31191
84 1 -1.00513 8.8092 5.71884
173 2 -1.00901 9.40688 6.70926
187 2 0.0305858 8.28254 5.50095
267 3 2.20071 7.47034 2.47404
89 1 0.534397 9.91041 2.29238
344 1 -2.2867 12.9154 2.59294
381 2 -0.392295 10.5089 2.04031
223 2 1.09633 9.81431 7.05626
346 2 -3.26377 13.3504 2.39125
382 2 -3.29817 10.9048 0.208401
109 2 -1.03525 8.79475 0.168207
190 2 0.589056 11.9275 1.7387
202 2 -5.95857 9.12829 7.56315
270 3 -1.84381 12.5827 8.53753
240 3 -2.68363 6.81116 0.130375
186 2 -5.11925 11.6661 9.33371
322 2 -7.76844 12.2058 9.51258
372 2 -6.70125 10.8598 9.9563
88 1 -6.15279 11.1797 9.0131
152 2 -6.91019 13.628 13.5634
271 3 -4.7062 13.2009 14.5035
370 2 -5.13396 6.99121 16.1379
371 2 -4.83727 13.1498 10.9601
77 1 -6.30428 13.1797 11.9764
22 4 -4.32108 9.21731 13.721
23 4 -4.8079 12.231 12.6248
153 2 -7.20305 13.0756 11.2528
243 3 -5.05987 10.6366 12.71
274 3 -3.81297 9.84481 15.2111
103 1 -4.45137 8.96203 10.3035
227 2 -4.98145 8.60896 9.19691
228 2 -3.68043 7.89031 10.9065
229 2 -3.68791 9.95374 10.2159
337 2 -7.9714 11.2794 15.7149
224 2 -5.36769 9.25575 11.049
332 2 -7.15077 11.3571 11.7259
242 3 -5.37226 7.9969 13.6334
80 1 -3.53559 13.6752 14.8916
263 3 1.41515 7.1041 16.1041
364 2 -1.51494 12.4636 14.1518
46 4 -3.16618 10.4818 16.5291
110 2 -3.21783 12.2668 11.9528
156 2 0.742086 8.23059 9.3197
163 2 -2.77586 12.9584 15.6313
151 2 -2.5312 7.54447 12.6023
277 3 -0.0516195 10.3338 12.7804
146 2 -0.518974 7.50089 10.3837
76 1 -2.73864 8.63601 12.9164
150 2 -2.72514 9.28207 11.9482
21 4 -2.41802 8.38551 9.2035
350 2 -1.26066 11.3742 15.882
275 3 -1.83596 11.9228 16.5863
184 2 1.04505 9.10785 10.9044
149 2 -1.946 9.06236 13.6639
74 1 -1.6394 7.10516 10.3012
87 1 1.35432 8.21476 10.2831
40 4 -0.0448935 7.59764 15.57
43 4 -1.19055 11.3403 9.49283
45 4 0.823285 10.0169 14.1544
47 4 -0.502653 11.5403 11.9021
269 3 -1.56366 9.80184 9.16474
273 3 -0.145945 9.17588 15.2076
276 3 -1.99699 11.5425 11.2824
133 2 -2.11088 7.10328 11.3725
4 2 -5.38208 13.1277 16.9214
321 2 -8.73705 12.9899 11.0573
92 1 7.93951 5.23887 3.59293
118 2 8.91219 2.19445 6.21998
73 1 10.0733 5.89399 1.23227
195 2 8.67114 5.56059 2.72986
358 1 5.31856 6.78255 0.0507378
278 3 8.27779 1.54061 3.27647
291 3 5.42872 5.56617 2.9306
196 2 8.38003 5.46266 4.6242
351 1 8.61792 1.04303 7.97954
352 2 9.51726 0.958652 7.27423
193 2 7.81291 3.27699 5.08746
198 2 7.50657 4.178 3.4448
165 2 7.90342 1.90791 7.73073
82 1 5.53932 4.09091 8.43949
91 1 8.87335 2.95306 5.36289
192 2 9.50195 3.84021 5.63345
48 4 9.53437 2.39735 3.75755
168 2 6.99693 6.26757 6.85328
376 2 10.3 6.54325 5.1765
56 4 6.51681 6.39407 3.59908
143 2 9.12072 5.48661 0.962828
288 3 10.0533 3.54688 2.78814
135 2 14.4975 0.888618 0.674514
142 2 10.699 5.99915 0.287151
369 2 11.2881 6.10184 7.2535
7 4 14.6411 1.77962 4.10831
280 3 13.8113 2.21241 5.35904
51 4 12.206 2.1178 5.78599
55 4 11.1294 4.45829 2.00902
58 4 11.9741 4.52605 7.57845
281 3 11.1711 1.26163 4.23702
289 3 12.0019 3.49563 0.846314
290 3 12.1571 5.16643 3.18046
293 3 11.6872 3.56272 6.23172
325 3 13.9029 0.779864 3.11594
326 3 12.0306 1.07667 1.40869
324 4 12.3721 0.485686 2.84208
49 4 11.9311 2.10639 0.173453
282 3 11.7708 1.00612 6.90457
50 4 12.8827 0.352131 8.03197
59 4 6.79317 5.49468 8.55813
194 2 7.04725 1.53613 4.29121
253 3 6.12004 3.77445 0.839213
379 2 9.92968 -0.0761217 1.91216
197 2 5.99467 6.83843 5.36271
361 2 3.87945 5.85622 17.0179
52 4 13.4329 0.483801 15.2695
380 2 9.05763 1.22 9.08581
353 2 7.15933 1.52198 9.24557
368 2 6.23699 5.39973 16.6739
383 2 7.37281 5.07467 15.089
366 1 6.45074 5.67011 15.55
367 2 5.45934 5.5388 14.9378
26 4 5.49001 2.82761 17.2368
39 4 6.04816 4.0439 12.1861
53 4 8.16552 2.6105 15.6907
127 2 7.68461 4.09117 12.6454
125 2 4.76904 4.71649 9.12327
261 3 5.8892 3.15105 10.9667
266 3 5.55686 5.60499 12.017
283 3 7.43531 1.42811 14.735
285 3 6.97486 3.31397 16.6799
295 3 8.85053 3.63444 14.5763
301 3 9.16284 4.41616 11.8639
41 4 5.136 6.49797 10.7912
300 3 8.15767 4.8772 9.13728
284 3 9.23569 1.88609 16.5724
62 4 9.15421 5.28018 10.4437
333 2 13.2188 0.0796985 11.8916
294 3 6.11585 6.58172 9.55405
81 1 9.79826 1.59503 10.8809
169 2 9.66812 1.62359 12.0282
162 2 10.9034 1.59034 10.7346
166 2 9.3536 2.54445 10.3928
60 4 9.98716 4.10682 13.5717
164 2 9.34741 0.69404 10.457
71 1 13.6719 1.58966 16.9589
95 1 12.6349 4.24021 9.35372
204 2 11.109 3.59803 9.06369
119 2 11.9523 2.20831 16.4651
121 2 11.7871 0.429301 12.8731
9 4 13.68 2.84652 10.0329
54 4 12.2898 2.10577 12.9112
279 3 13.4841 1.65535 8.8732
286 3 12.9884 2.45427 11.4559
287 3 13.3191 1.87362 14.1007
296 3 11.0665 3.03741 13.2911
297 3 10.579 5.46971 14.1749
128 2 10.6921 5.95685 9.9655
260 3 5.21039 3.48844 13.3954
365 2 8.836 0.351573 12.0636
158 2 3.88673 5.44769 13.9659
18 4 10.3283 6.90812 14.7163
136 2 13.5159 2.73373 16.8265
117 2 6.99237 0.652954 12.0802
308 3 7.16282 7.05808 6.11966
203 2 10.6498 7.69979 6.16832
44 4 1.142 11.4021 6.11231
101 1 2.35562 11.0856 7.36937
307 3 1.84583 11.2712 4.66987
348 1 0.550417 13.0971 1.41114
42 4 2.68888 9.06474 2.16114
384 2 2.30263 12.2614 0.62627
199 2 2.76523 9.06577 7.16103
375 2 10.6412 8.2563 4.39034
94 1 10.6868 8.00101 7.3701
69 1 10.5814 7.11211 4.23721
93 1 3.0134 7.95844 7.11892
64 4 3.30663 11.4808 3.86386
124 2 9.96875 7.32216 7.92186
359 2 4.95644 6.89128 1.16461
268 3 3.50564 8.82889 0.51417
113 2 3.90001 7.68124 7.76856
122 2 4.01171 8.16792 5.50651
306 3 3.31552 12.7147 2.75262
339 2 6.85225 12.2421 4.08249
338 1 7.31839 12.7721 5.11156
222 2 3.36199 10.8913 7.00925
305 3 3.5306 9.9896 3.08408
63 4 7.73607 8.63932 1.56102
65 4 6.64649 9.60191 7.70852
67 4 5.674 12.1039 6.09566
99 1 6.53577 10.0775 1.25186
217 2 7.21564 10.9567 1.42782
302 3 7.01744 7.68535 2.68997
304 3 9.11497 9.38063 2.17114
312 3 4.56494 11.8121 5.00042
313 3 6.15545 10.8172 6.92663
314 3 5.39344 13.2671 7.14484
126 2 7.00611 8.02364 6.6988
218 2 5.72354 9.95762 2.02792
225 2 4.24396 12.281 0.566723
349 2 0.554218 13.2325 0.306236
102 1 3.24061 11.8743 0.134396
342 2 9.72727 9.75288 4.80449
374 2 7.55925 13.1993 7.96627
226 2 3.22826 10.6566 0.251195
216 2 6.15626 10.0397 0.175705
123 2 10.0657 6.82907 1.89147
131 2 9.81039 6.8734 3.42314
303 3 8.11313 7.85835 0.0119169
66 4 2.41029 11.7947 9.10291
373 2 1.01813 13.4964 16.4419
362 1 -0.347908 13.2399 12.8688
35 4 2.65018 8.08207 16.6858
68 4 2.17619 12.4502 15.6767
319 1 7.59054 12.9439 9.94874
310 3 0.642149 11.6495 10.1006
315 3 1.51313 11.2884 14.8613
363 2 0.158524 13.2406 13.918
181 2 2.87625 10.5295 11.0869
209 2 2.80007 8.35064 11.6995
309 3 3.37676 13.1535 9.0264
360 2 5.0159 7.35075 17.309
336 2 7.43747 12.1387 16.9989
182 2 2.47573 8.36914 9.96158
179 2 3.50268 9.81452 9.3809
86 1 3.53669 10.6772 10.1276
219 2 8.02589 10.0144 8.85334
385 2 9.67136 9.49112 11.3744
386 2 7.65823 10.2931 17.0673
120 2 6.40909 13.7285 15.8308
154 2 7.83162 10.1061 10.9033
323 2 6.62263 12.5385 9.59652
130 2 6.60819 10.9531 15.5882
330 1 7.50984 11.1526 16.3395
215 2 10.3002 7.73278 10.62
334 2 3.85991 12.793 13.2084
316 3 3.58624 13.2534 15.4794
129 2 6.45107 9.31332 10.636
100 1 6.34191 9.76873 9.63418
220 2 5.86032 10.8393 9.79988
317 3 6.30384 13.0849 14.3872
214 2 8.37672 7.48691 10.1072
208 2 4.40742 9.41628 12.2826
335 2 4.09501 12.079 11.4672
329 1 4.4397 12.8353 12.2495
331 2 7.57576 11.6845 12.4322
167 2 8.46402 9.91389 12.7386
328 1 8.77535 10.2338 11.7445
207 2 4.18337 7.49767 12.7973
180 2 4.59075 10.9699 10.383
96 1 3.62478 8.50364 12.5833
115 2 5.19725 8.08432 11.5321
57 4 7.13069 7.37943 15.7994
61 4 4.67898 8.93988 14.4076
97 1 5.00339 10.8305 14.349
210 2 6.58136 10.3883 13.5195
211 2 5.02201 11.3658 15.3404
212 2 3.9747 10.937 13.7835
292 3 8.7983 7.29807 15.3513
298 3 6.20674 8.34344 14.6502
299 3 3.57892 8.73783 15.4667
327 4 6.10227 12.1441 13.1729
98 1 9.2774 7.09717 10.7459
213 2 9.09591 7.10844 11.877
116 2 2.17664 9.05538 13.6575
221 2 5.46724 8.9161 8.91379
ITEM: TIMESTEP
200
ITEM: NUMBER OF ATOMS
386
ITEM: BOX BOUNDS xy xz yz pp pp pp
-9.8217629042873114e+00 1.6492609739224015e+01 -8.5944045806504832e+00
-1.0598672932473274e-01 1.3857906323680913e+01 -1.3425485844128109e+00
4.2510623655953594e-03 1.7345948937634574e+01 1.6509785976962205e-01
ITEM: ATOMS id type x y z
13 4 -4.01639 6.59673 3.78201
206 2 -2.72028 4.85007 8.09109
12 4 -0.0931728 3.73052 2.15672
34 4 1.37684 6.29027 3.34956
70 1 0.118495 3.37144 6.86633
134 2 1.61959 4.41993 6.25485
233 3 -1.29724 3.13184 3.27476
235 3 -0.619447 4.79025 1.12708
254 3 1.09704 4.71362 2.97635
111 2 2.32779 2.15265 4.3763
258 3 1.99126 6.55178 4.86261
320 2 1.08657 2.83344 6.66031
15 4 0.417407 5.02656 7.41733
107 2 -0.58842 3.40008 6.01338
237 3 -0.667566 6.06659 6.72657
177 2 2.63968 3.78226 0.87813
8 4 0.281451 1.17143 0.591979
234 3 0.627681 2.485 1.49333
104 2 -0.428202 0.835906 4.73377
132 2 -0.65243 2.30141 8.16277
170 2 -1.0715 6.12569 3.47493
176 2 3.16526 5.59968 1.14934
38 4 3.23299 6.66498 5.8655
247 3 4.48233 0.749212 4.62205
245 3 6.8466 1.15456 0.761482
256 3 5.36656 2.84332 5.88785
248 3 6.46796 0.525437 6.45364
255 3 3.08657 3.14254 7.42955
252 3 4.33381 2.78101 2.61437
244 3 3.16426 0.546948 2.38649
85 1 3.44224 4.58502 0.626389
25 4 3.58443 1.51635 3.46128
259 3 4.15442 5.45113 6.24021
24 4 7.51036 0.324876 1.9814
29 4 5.81215 1.44697 5.33172
33 4 4.83782 4.03327 1.73625
36 4 4.58837 3.85625 6.83185
148 2 4.00832 0.372407 7.95335
378 2 2.77789 0.0403693 6.5493
138 2 -3.71597 5.0983 15.5177
117 2 6.95571 0.549087 12.0765
250 3 4.56835 2.49429 15.9672
357 2 1.40034 1.88159 16.3333
265 3 3.62667 6.19482 10.1696
356 2 0.43533 3.55207 16.7763
28 4 2.92217 2.35606 8.81676
105 2 1.74764 3.56361 15.4779
108 2 -2.95187 5.6956 13.9835
140 2 -2.3371 3.65903 15.8112
340 2 -0.388981 0.884185 10.3963
112 2 2.36288 3.4786 10.0816
72 1 -2.52541 4.8005 15.6609
10 4 1.97994 1.25971 12.6711
11 4 -0.0319045 3.57653 11.5326
17 4 -1.21573 5.33293 13.9185
78 1 1.50356 4.6214 11.434
79 1 3.11976 4.85931 14.6758
155 2 1.24536 5.34607 12.3001
157 2 2.34717 3.86227 11.7159
231 3 -1.13088 3.33141 10.1312
232 3 0.725648 2.18706 11.9937
238 3 -0.79949 4.36805 12.6212
249 3 2.97066 2.13617 13.5932
139 2 -0.721092 4.26056 15.2547
106 2 3.10362 0.721516 11.1717
37 4 1.97259 5.98936 10.0327
137 2 -0.863293 1.9158 16.295
354 1 0.901493 2.89665 15.9421
355 2 0.160928 2.63119 15.1461
160 2 1.99722 4.74848 14.4217
161 2 4.81734 0.911763 15.2745
159 2 3.34846 5.24573 15.7088
145 2 -1.6689 6.22932 9.84354
205 2 -3.59334 4.97315 10.2246
262 3 -0.4184 6.70746 13.9912
251 3 4.47699 1.74386 9.20991
318 4 0.286118 0.877026 8.74576
30 4 6.70062 0.390655 13.7913
178 2 2.28178 4.78233 16.8927
246 3 1.82679 1.17032 8.77458
3 2 1.71559 0.182629 16.0254
31 4 4.0399 3.25118 14.303
32 4 5.83247 2.58777 9.51142
14 4 -2.24824 5.96098 17.0892
2 1 2.41168 0.115579 16.984
158 2 3.64055 5.53391 13.9003
5 2 3.07657 0.949154 17.1758
257 3 1.19596 5.46727 8.73465
202 2 -5.84517 9.24694 7.46948
147 2 -4.13055 13.1327 6.49167
185 2 -5.70799 10.229 8.45097
175 2 -7.10602 11.4092 8.19742
109 2 -0.870329 8.90918 0.184267
1 4 -5.82743 13.2835 1.17838
189 2 0.928556 10.6459 3.14039
19 4 -3.16338 7.9194 0.999443
341 1 -5.95381 10.3828 4.09554
343 2 -4.60845 9.46193 3.37515
75 1 -4.9438 13.3957 7.16333
239 3 -3.66461 7.38901 2.36574
6 3 -5.59553 11.597 1.636
20 4 -5.9873 10.2522 2.31976
377 2 -5.77312 11.5062 4.26001
141 2 -4.13277 9.21199 0.347702
270 3 -1.61802 12.5779 8.51758
230 3 -7.59743 13.5289 0.720493
188 2 0.141362 8.9037 2.62343
201 2 -4.43969 7.90842 7.57179
236 3 -2.80084 6.90799 5.04631
144 2 -5.38275 12.4842 7.71584
114 2 1.58191 10.0382 0.837509
171 2 -0.454972 7.23638 2.03892
16 4 -1.75333 7.17421 6.26205
191 2 -2.05356 9.75275 2.01094
172 2 -0.636427 7.89662 3.91284
83 1 -0.381161 7.05486 3.22147
345 2 -2.07609 12.1291 2.44483
90 1 -2.30287 9.49637 0.955915
200 2 1.91804 7.32978 7.56332
241 3 -2.73844 7.68181 7.87999
174 2 -1.08285 9.26486 4.77625
347 2 -2.13357 12.9274 4.09239
27 4 -1.01204 13.3929 7.31224
84 1 -0.898273 8.74296 5.82857
173 2 -1.20747 9.43329 6.70218
187 2 0.240881 8.41204 5.95972
267 3 2.20045 7.4537 2.52499
89 1 0.510501 10.0286 2.21474
344 1 -2.33194 13.1099 2.98617
381 2 -0.42165 10.5582 1.81146
223 2 1.12036 9.83015 7.08533
346 2 -3.44033 13.4003 2.70053
382 2 -3.18076 10.8779 0.238562
374 2 -8.64986 13.2132 7.85848
190 2 0.547036 11.9912 1.73313
186 2 -5.58492 11.8783 9.13633
322 2 -7.82992 12.2287 9.6186
372 2 -6.81936 10.7516 9.93338
88 1 -6.32313 11.058 8.87345
152 2 -7.11161 13.4681 13.5217
271 3 -4.74021 13.173 14.3732
240 3 -3.90969 7.00509 17.3158
371 2 -4.87692 12.8382 10.8223
77 1 -6.36745 13.2452 11.8987
22 4 -4.55935 9.34837 13.7261
23 4 -4.81606 12.2601 12.5619
153 2 -7.25213 13.1131 11.1075
243 3 -5.11365 10.7169 12.7418
274 3 -3.84141 9.84804 15.1469
103 1 -4.63371 9.13839 10.1305
227 2 -5.01357 8.73503 9.15527
228 2 -3.93193 8.14196 10.8233
229 2 -3.948 10.0817 9.97133
337 2 -8.0032 11.368 15.7972
224 2 -5.50642 9.48173 10.7878
332 2 -7.13855 11.4362 11.8002
242 3 -5.47224 8.11708 13.8594
80 1 -3.53893 13.6217 14.7705
263 3 1.48627 7.15974 16.0763
364 2 -1.46447 12.5163 14.2257
46 4 -3.17352 10.4098 16.4679
110 2 -3.17811 12.2261 12.0252
156 2 0.991426 8.0938 9.29354
163 2 -2.84247 12.7994 15.5032
151 2 -3.0615 7.89119 12.309
277 3 0.0551268 10.4132 12.8434
146 2 -0.441693 7.59479 10.3791
76 1 -2.86523 8.87123 12.9671
150 2 -2.47382 9.79956 12.3973
21 4 -2.44842 8.45287 9.19954
350 2 -1.22321 11.3279 15.8493
275 3 -1.92763 11.8627 16.4047
184 2 1.07822 9.10186 10.8173
149 2 -2.27294 8.60632 13.9519
74 1 -1.58996 7.2506 10.3576
87 1 1.50627 8.2067 10.3284
40 4 -0.117172 7.60563 15.5963
43 4 -1.16215 11.2798 9.44933
45 4 0.789773 9.98734 14.2328
47 4 -0.428678 11.5527 11.8695
269 3 -1.46776 9.77683 8.98812
273 3 -0.170054 9.3087 15.3705
276 3 -1.84807 11.4297 11.29
133 2 -1.9581 7.14678 11.4228
4 2 -5.55411 12.9377 16.902
264 3 -1.18446 7.08306 16.7008
385 2 -6.68121 9.53743 11.5072
183 2 0.981164 6.92035 11.3476
370 2 -5.12305 6.95943 16.2014
92 1 7.92219 5.11067 3.52689
118 2 8.92698 2.18588 6.42141
73 1 10.0268 5.6742 1.12815
195 2 8.75214 5.42016 2.63009
131 2 9.96548 6.79851 3.32091
278 3 8.31093 1.42684 3.37587
291 3 5.30812 5.3388 3.0709