ITEM: TIMESTEP
0
ITEM: NUMBER OF ATOMS
386
ITEM: BOX BOUNDS xy xz yz pp pp pp
-9.8217629042873114e+00 1.6492609739224015e+01 -8.5944045806504832e+00
-1.0598672932473274e-01 1.3893066935572161e+01 -1.3425485844128109e+00
4.2510623655953594e-03 1.7345948937634574e+01 3.3688020624736525e-01
ITEM: ATOMS id type x y z
13 4 -3.99299 6.60522 3.8112
206 2 -2.48891 4.91195 7.97938
12 4 0.0157983 3.75128 2.2015
34 4 1.28853 6.27038 3.39968
70 1 -0.0403888 3.46636 6.67623
134 2 1.36536 4.49909 5.83334
233 3 -0.938248 3.36394 3.44885
235 3 -0.926018 4.51453 1.03562
254 3 1.15474 4.82621 2.6527
111 2 2.213 2.32329 4.24774
258 3 1.88398 6.43788 4.91495
320 2 0.896507 2.93432 6.36691
15 4 0.368262 5.16759 7.13325
107 2 -0.833915 3.54316 5.80973
237 3 -0.841694 6.07177 6.69608
177 2 2.70217 3.72844 1.19228
8 4 0.332391 1.1258 0.626214
234 3 0.670871 2.3267 1.61768
104 2 -0.361089 0.862599 4.54409
132 2 -0.782117 2.41082 7.96951
170 2 -1.04502 5.95444 3.22163
176 2 3.112 5.51263 1.46748
38 4 3.28462 6.63061 5.79812
247 3 4.41312 0.967137 4.68979
245 3 7.14874 1.10981 0.524697
256 3 5.88248 3.05496 6.00124
248 3 6.30268 0.430178 6.34926
255 3 3.28805 2.98421 7.20256
252 3 4.55884 2.77473 2.87646
244 3 3.1727 0.463636 2.34778
85 1 3.4956 4.46163 1.03307
25 4 3.59097 1.61709 3.50698
259 3 4.12797 5.39788 6.15257
24 4 7.70476 0.261674 1.72712
29 4 5.86122 1.50358 5.3443
33 4 5.00427 4.01215 2.03865
36 4 4.6519 3.85343 6.8005
246 3 1.63211 1.22077 8.57996
318 4 0.134831 0.926197 8.55064
257 3 1.22812 5.49639 8.46822
236 3 -3.11176 6.69642 5.23037
28 4 2.77233 2.33495 8.64343
378 2 2.9875 0.0718982 6.45188
148 2 4.3903 0.169715 7.51712
138 2 -4.08577 5.15909 15.7431
158 2 3.75974 5.54014 13.7565
250 3 4.47188 2.67968 15.973
357 2 1.48936 1.97058 16.2993
183 2 0.875633 6.59452 11.2925
356 2 0.371056 3.39434 16.6297
125 2 4.65426 4.61715 9.11172
105 2 1.78963 3.59119 15.3868
108 2 -3.03667 5.65811 14.0705
140 2 -2.72417 3.77595 16.0335
340 2 -0.411437 0.996227 10.2238
112 2 1.99248 3.42173 9.75258
72 1 -2.93591 4.89468 15.8277
10 4 1.90184 1.47852 12.6299
11 4 -0.102278 3.62256 11.6348
17 4 -1.29727 5.33925 14.0743
78 1 1.53667 4.52439 11.3502
79 1 3.06248 4.92761 14.5565
155 2 1.41704 5.23711 12.2785
157 2 2.46619 3.91356 11.388
231 3 -1.10291 3.38423 10.1961
232 3 0.468414 2.06441 12.1778
238 3 -0.88567 4.41743 12.7695
249 3 2.9218 2.32528 13.5066
139 2 -1.08846 4.3725 15.5345
106 2 2.95209 1.16303 11.1676
37 4 2.01695 5.91177 9.95356
137 2 -0.866388 2.12771 16.2354
354 1 0.959547 2.84456 15.8158
355 2 0.292813 2.49933 14.9527
160 2 1.98542 5.08291 14.2987
161 2 4.847 1.05093 15.4376
159 2 3.35588 5.26083 15.5884
145 2 -1.80535 6.06531 9.725
205 2 -3.53185 5.29716 10.0017
262 3 -0.492409 6.76571 14.1819
251 3 4.15379 1.80267 9.31623
178 2 2.48545 4.83566 17.3225
30 4 6.67176 0.481471 13.8437
117 2 6.87369 0.51498 12.0998
265 3 3.53291 6.0328 10.2953
5 2 2.98606 0.934053 17.1405
31 4 4.03274 3.31728 14.2866
32 4 5.64849 2.59667 9.53507
14 4 -2.5517 5.9788 17.2656
270 3 -1.78918 12.5687 8.66857
147 2 -4.19837 12.5998 6.17446
185 2 -6.01597 10.2504 8.26692
175 2 -6.723 11.9216 8.50981
311 3 -7.75688 12.804 5.71975
1 4 -5.83739 13.0937 1.27827
189 2 1.03317 10.5593 3.23995
19 4 -3.3591 7.85923 1.15711
341 1 -5.73125 10.5603 4.49833
343 2 -4.60159 9.61338 3.89522
75 1 -4.8501 13.1324 6.95173
239 3 -3.77703 7.70016 2.71163
6 3 -5.462 11.6073 1.82464
20 4 -6.05984 10.414 2.7811
377 2 -5.45827 11.6349 4.73284
141 2 -4.21562 9.14836 0.264194
272 3 -0.112142 12.4186 6.42425
230 3 -7.6735 13.296 0.7398
188 2 0.169715 8.91187 2.75744
201 2 -4.65477 7.89501 7.61333
240 3 -2.70126 6.80076 0.199559
144 2 -5.349 12.3745 7.66435
114 2 1.32272 9.83577 1.44614
171 2 -0.511777 7.38999 2.09533
16 4 -2.04562 7.07977 6.39063
191 2 -2.1994 9.66402 2.11367
172 2 -0.771108 7.70337 4.10324
83 1 -0.423248 6.9377 3.19363
345 2 -2.54614 11.9398 1.584
90 1 -2.47989 9.46434 0.985065
200 2 2.23683 7.38949 7.65204
241 3 -2.93068 7.56889 8.00434
174 2 -1.57867 9.16171 4.90581
347 2 -2.06038 12.346 3.28061
27 4 -1.12296 13.3305 7.24231
84 1 -1.25526 8.68447 5.82722
173 2 -1.50506 9.27631 6.81442
187 2 -0.154396 8.26751 5.88297
267 3 2.4074 7.5206 2.53024
89 1 0.48303 9.95789 2.35328
344 1 -2.32458 12.7714 2.324
381 2 -0.395661 10.5923 1.93304
223 2 1.15123 9.85512 7.31446
342 2 -6.57063 10.0862 5.08758
382 2 -3.29313 10.7627 0.207315
109 2 -1.00932 8.67197 0.290545
190 2 0.622427 11.8 1.60732
202 2 -6.12312 9.10038 7.42731
346 2 -3.13695 13.5882 2.25344
186 2 -5.06942 11.3829 9.32927
322 2 -7.75218 12.0462 9.42372
372 2 -6.69007 10.796 9.99873
88 1 -6.08903 11.0945 9.04349
152 2 -6.99252 13.4705 13.4866
271 3 -4.80221 13.068 14.6485
133 2 -2.00498 6.9649 11.4488
371 2 -4.66668 13.3899 11.1816
77 1 -6.31353 13.2365 11.9227
22 4 -4.26775 9.39837 13.6633
23 4 -4.87288 12.3515 12.6866
153 2 -7.15101 13.0825 11.0731
243 3 -4.9861 10.7909 12.7266
274 3 -3.79544 9.79673 15.2053
103 1 -4.74056 9.27154 10.1263
227 2 -5.12908 8.85425 9.0891
228 2 -3.90792 8.21793 10.866
229 2 -4.20224 10.2198 10.0283
337 2 -7.97788 11.4772 15.5356
224 2 -5.66912 9.56049 10.785
332 2 -7.07028 11.382 11.7962
242 3 -5.29517 8.20482 13.7813
80 1 -3.60433 13.577 14.9382
263 3 1.38119 7.17976 16.0591
364 2 -1.38252 12.5286 14.2808
46 4 -3.11535 10.304 16.5322
110 2 -3.25665 12.4848 12.1031
156 2 0.763141 8.27867 9.42657
163 2 -2.76394 12.7481 15.6542
151 2 -2.93933 7.68393 12.2661
277 3 0.00625646 10.4585 12.8682
146 2 -0.454406 7.43995 10.2933
76 1 -2.73873 8.68889 12.8366
150 2 -2.53093 9.57101 12.0415
21 4 -2.58353 8.28359 9.39775
350 2 -1.06395 10.9779 16.1544
275 3 -1.84451 11.7349 16.3978
184 2 1.18377 8.875 11.137
149 2 -1.96097 8.61802 13.671
74 1 -1.63701 7.04395 10.3145
87 1 1.42546 8.08858 10.2949
40 4 -0.151574 7.56372 15.6448
43 4 -1.35129 11.3417 9.57732
45 4 0.776467 9.95999 14.2005
47 4 -0.390426 11.6368 11.8923
269 3 -1.75293 9.79931 9.35595
273 3 -0.261129 9.29793 15.2464
276 3 -1.98017 11.7561 11.3858
2 1 -6.27114 13.7087 16.9568
4 2 -5.64941 12.6999 16.892
370 2 -5.01758 7.05649 16.1733
264 3 -1.46687 7.10304 16.7128
3 2 -7.12387 13.7348 16.0894
92 1 7.92335 5.54788 3.41208
118 2 8.93792 2.43385 6.21045
73 1 10.198 5.87735 1.17186
195 2 8.68349 5.68619 2.50491
358 1 5.34074 6.55375 0.0562731
278 3 8.41517 1.4728 3.21567
291 3 5.34522 5.49013 3.14278
196 2 8.38015 5.97629 4.51577
351 1 8.56496 1.22494 7.7854
352 2 9.38588 0.950012 7.00246
193 2 7.9865 3.65671 5.18301
198 2 7.49428 4.47137 3.5349
165 2 8.03919 2.17709 7.4003
82 1 5.55982 4.14909 8.46209
91 1 9.02219 3.23741 5.34842
192 2 9.78716 4.03373 5.55984
48 4 9.51868 2.51554 3.74821
168 2 7.10666 6.29283 6.96
359 2 5.16353 6.53479 1.17982
56 4 6.40259 6.52239 3.54794
143 2 9.10785 5.43064 0.894332
288 3 10.0472 3.65656 2.77546
135 2 14.5005 0.666363 0.410216
142 2 10.8716 5.96377 0.300252
369 2 11.3979 6.15867 7.17482
7 4 14.6968 1.89314 3.98006
280 3 13.8082 2.01425 5.24029
51 4 12.26 2.10091 5.70471
55 4 11.2157 4.42343 2.00314
58 4 12.0301 4.60239 7.49357
281 3 11.2632 1.5328 4.0816
289 3 11.8818 3.62538 0.50049
290 3 12.4538 5.1177 3.02929
293 3 11.9334 3.56651 6.28816
325 3 13.9865 0.882565 3.0549
326 3 11.9453 0.940094 1.37468
324 4 12.4577 0.437914 2.82727
49 4 11.7872 2.04657 0.306399
282 3 11.8759 1.0425 6.81409
50 4 12.8008 0.41029 8.03473
59 4 6.81499 5.46931 8.56845
194 2 7.13212 1.45649 4.13519
253 3 6.18927 3.70099 0.923745
376 2 10.2928 6.34008 4.94954
379 2 10.1575 -0.0469197 1.56058
361 2 3.93319 5.86001 16.9212
52 4 13.4924 0.747997 15.033
380 2 9.00636 1.27937 8.82721
353 2 7.01956 1.74442 8.90795
368 2 6.21902 5.64015 16.6771
383 2 7.18435 5.33529 14.9966
366 1 6.34814 5.91091 15.537
367 2 5.37918 5.6693 14.996
26 4 5.53423 2.90603 17.125
39 4 6.16515 4.20234 12.278
53 4 8.12205 2.78458 15.6084
127 2 7.81901 4.30255 12.602
18 4 10.4331 6.9652 14.7802
261 3 5.96278 3.20551 10.9449
266 3 5.74097 5.70377 11.9911
283 3 7.36078 1.57068 14.7188
285 3 6.94159 3.48705 16.6412
295 3 8.78027 3.80166 14.5531
301 3 9.23904 4.54609 11.8497
41 4 5.15221 6.52059 10.8341
300 3 8.25405 4.90086 9.08763
284 3 9.13308 2.03282 16.6396
62 4 9.197 5.1327 10.4072
136 2 13.4988 2.70114 16.9552
294 3 6.12402 6.61845 9.57069
81 1 9.75459 1.46699 10.7698
169 2 10.015 1.66218 11.8426
162 2 10.5831 0.939345 10.1868
166 2 9.5943 2.46161 10.3099
60 4 9.98319 4.28176 13.6376
164 2 8.78683 0.818608 10.6699
71 1 13.776 1.61046 16.9578
95 1 12.8907 4.44876 9.19726
204 2 11.2259 3.85606 9.03526
119 2 11.9094 2.21537 16.732
121 2 11.8094 0.68169 12.4492
9 4 13.6991 2.98548 9.96372
54 4 12.2668 2.33053 12.8403
279 3 13.5357 1.5774 9.10012
286 3 12.9804 2.73762 11.4439
287 3 13.3227 1.97257 14.11
296 3 11.0375 3.10609 13.3394
297 3 10.7215 5.6067 14.0433
128 2 10.7851 5.90993 10.1575
260 3 5.39172 3.68388 13.517
365 2 9.01377 0.34738 12.2161
120 2 15.0622 0.270311 15.602
333 2 13.3711 0.206167 11.8276
213 2 8.90961 6.93052 11.819
308 3 7.19139 7.07733 6.16337
203 2 10.4883 7.63406 6.14597
44 4 1.15758 11.3462 6.14867
101 1 2.3645 11.0785 7.37873
307 3 1.82431 11.289 4.6657
348 1 0.661618 12.9578 1.19189
42 4 2.82923 8.95896 2.06657
384 2 2.53182 12.1385 0.698356
199 2 3.01308 9.12448 7.20102
375 2 10.4157 8.16649 4.55183
94 1 10.6083 7.99634 7.38006
69 1 10.5301 7.11667 4.15048
93 1 3.21945 7.98427 7.19446
64 4 3.53038 11.3448 3.96078
124 2 10.0015 7.34417 8.05488
374 2 7.61479 13.0078 7.81709
268 3 3.48491 8.79943 0.629511
113 2 4.12661 7.74997 7.78986
122 2 4.20139 8.11199 5.50698
306 3 3.54076 12.5704 2.97034
339 2 6.82803 12.7657 4.2636
338 1 7.44401 12.7824 5.37404
222 2 3.38147 11.0354 6.8916
305 3 3.65525 9.99873 3.11395
63 4 7.7718 8.67605 1.54011
65 4 6.63649 9.48334 7.74989
67 4 5.77249 12.0854 6.19637
99 1 6.62707 10.0661 1.10186
217 2 6.96566 11.0551 1.42092
302 3 7.01645 7.77782 2.52987
304 3 9.12924 9.45733 2.22506
312 3 4.63744 11.6646 5.04092
313 3 6.24217 10.7507 6.95385
314 3 5.30522 13.2177 7.29055
126 2 7.12409 7.97769 6.74013
218 2 5.69614 9.73387 1.62077
225 2 4.45807 12.2936 0.509988
123 2 10.0573 6.8899 1.75448
102 1 3.50593 11.7561 0.177009
131 2 9.88041 6.964 3.17356
197 2 6.14083 7.19927 5.33464
226 2 3.57872 10.5824 0.362337
216 2 6.54091 9.93566 0.0142932
66 4 2.37412 11.691 9.11425
373 2 0.934961 13.2088 16.4413
362 1 -0.193922 13.2894 12.9713
35 4 2.65949 8.04752 16.7091
68 4 2.23805 12.3763 15.6607
319 1 7.59683 12.7764 9.73006
310 3 0.63009 11.7426 10.0953
315 3 1.65173 11.1499 14.8101
363 2 0.407426 13.0945 13.8736
181 2 2.9665 10.5361 10.948
209 2 2.76651 8.33522 11.8437
309 3 3.04002 13.1618 8.99233
321 2 7.47259 12.9475 10.8468
336 2 7.46832 12.1689 17.0474
116 2 1.90764 8.78606 13.6422
179 2 3.44754 9.64844 9.30588
86 1 3.63949 10.5675 9.99729
219 2 8.11087 9.73899 8.98263
303 3 6.96093 8.05249 17.3024
386 2 7.72437 10.371 16.7425
360 2 4.98795 7.41614 17.1708
154 2 7.95624 10.0758 10.9637
323 2 6.65401 12.4138 9.24946
130 2 6.54874 11.1826 15.5128
330 1 7.55324 11.3179 16.1867
215 2 10.2455 7.88992 10.4418
334 2 3.8626 12.8237 13.1961
316 3 3.46037 13.3378 15.322
129 2 6.57119 8.70463 10.3949
100 1 6.50573 9.52955 9.6336
220 2 6.17787 10.5026 10.0786
317 3 6.50436 13.4411 14.1009
214 2 8.47283 7.29047 9.9413
208 2 4.18277 9.48384 12.3153
335 2 4.14938 12.0284 11.3726
329 1 4.46061 12.8812 12.2411
331 2 7.40583 11.6516 12.2923
167 2 8.25544 10.129 12.8902
328 1 8.80279 10.2497 11.8171
207 2 4.15966 7.57885 12.8853
180 2 4.75868 10.8467 10.0897
96 1 3.54624 8.58798 12.6519
115 2 5.08696 8.1699 11.5104
57 4 7.08733 7.57113 15.6648
61 4 4.59381 9.08546 14.4617
97 1 4.84126 10.9981 14.4713
210 2 6.45235 10.5809 13.8062
211 2 4.69693 11.4166 15.5321
212 2 3.88257 11.0514 13.7289
292 3 8.8382 7.2296 15.2456
298 3 6.09211 8.41575 14.5731
299 3 3.59947 8.72144 15.5711
327 4 6.05596 12.2603 13.1817
98 1 9.34997 7.0629 10.6554
385 2 9.61879 9.46387 11.7096
182 2 2.52534 8.15757 9.97716
221 2 5.16428 8.76586 8.70411
349 2 -0.90105 13.4582 17.3352
ITEM: TIMESTEP
100
ITEM: NUMBER OF ATOMS
386
ITEM: BOX BOUNDS xy xz yz pp pp pp
-9.8217629042873114e+00 1.6492609739224015e+01 -8.5944045806504832e+00
-1.0598672932473274e-01 1.3893066935572161e+01 -1.3425485844128109e+00
4.2510623655953594e-03 1.7345948937634574e+01 3.3688020624736525e-01
ITEM: ATOMS id type x y z
13 4 -3.97436 6.61216 3.80794
206 2 -2.59215 4.74015 8.13159
12 4 0.0849401 3.68005 2.14298
34 4 1.34316 6.22162 3.37651
70 1 0.283692 3.31791 6.80225
134 2 1.55879 4.33436 5.82043
233 3 -1.00406 3.10463 3.27233
235 3 -0.705395 4.63185 1.00183
254 3 1.29511 4.69008 2.93912
111 2 2.14936 2.11477 4.01491
258 3 1.86469 6.37901 4.91861
320 2 1.25796 2.76929 6.6454
15 4 0.497116 5.01338 7.14033
107 2 -0.461051 3.25713 5.86874
237 3 -0.720806 6.06147 6.59602
177 2 2.51919 3.83052 1.27558
8 4 0.290577 1.19041 0.615711
234 3 0.649921 2.42163 1.50146
104 2 -0.435872 0.92863 4.97657
132 2 -0.662274 2.46326 8.08013
170 2 -1.12672 6.02096 3.30641
176 2 3.11543 5.6084 1.2654
38 4 3.22812 6.59309 5.76292
247 3 4.53534 1.00744 4.63261
245 3 6.97266 1.26848 0.688945
256 3 5.58798 3.09527 5.9176
248 3 6.54982 0.50738 6.35662
255 3 3.19513 3.18633 7.39272
252 3 4.37587 2.77353 2.7136
244 3 3.18201 0.4134 2.33881
85 1 3.37742 4.52331 1.04109
25 4 3.65947 1.56051 3.42726
259 3 4.24095 5.44381 6.22716
24 4 7.56052 0.342435 1.92191
29 4 5.79552 1.52716 5.44049
33 4 4.94134 4.0052 1.91381
36 4 4.5444 3.96792 6.80306
246 3 1.80478 1.19808 8.5565
148 2 4.17934 0.428804 7.54485
257 3 1.29639 5.59045 8.6687
138 2 -3.87644 5.42044 15.4028
264 3 -1.21975 6.95099 16.8008
250 3 4.43398 2.73641 15.9728
357 2 1.34127 1.95505 16.2033
183 2 0.867037 6.86899 11.2891
356 2 0.196984 3.4376 16.5917
28 4 2.91831 2.33155 8.72695
105 2 1.73285 3.73732 15.4745
108 2 -3.08929 5.66289 13.8576
140 2 -2.72675 3.82736 15.7767
340 2 -0.310197 1.09474 10.4275
112 2 2.32803 3.52655 9.82841
72 1 -2.78399 4.97877 15.6482
10 4 1.87858 1.53074 12.5779
11 4 -0.092701 3.63228 11.5325
17 4 -1.3453 5.38009 13.9731
78 1 1.5987 4.58464 11.2983
79 1 3.16122 5.00087 14.7643
155 2 1.36823 5.26804 12.2039
157 2 2.51539 3.97051 11.5639
231 3 -1.01556 3.52556 10.1565
232 3 0.458145 2.09829 12.1618
238 3 -0.887414 4.47406 12.6477
249 3 2.88413 2.42341 13.4239
139 2 -0.933523 4.37533 15.4239
106 2 2.96696 0.994922 11.1753
37 4 1.96938 6.08418 10.0372
137 2 -0.891952 2.15067 16.3176
354 1 0.856176 2.94389 15.8174
355 2 0.221309 2.72486 14.9023
160 2 2.10966 5.15494 14.5212
161 2 4.86634 1.24903 15.3482
159 2 3.39398 5.33544 15.8738
145 2 -1.54167 6.00849 9.8188
205 2 -3.78539 5.09403 10.1729
262 3 -0.568508 6.72115 14.2858
251 3 4.4286 1.77219 9.41241
318 4 0.279588 0.9812 8.72022
30 4 6.71376 0.577622 13.7928
125 2 4.68105 4.57215 9.15932
265 3 3.56046 6.29022 10.299
5 2 2.76044 1.37433 17.3205
31 4 3.9674 3.33375 14.2701
32 4 5.75995 2.63448 9.57789
14 4 -2.45341 6.01715 17.092
178 2 2.27389 4.81471 17.2448
2 1 2.36796 0.296932 17.0613
3 2 1.6059 0.305458 16.2966
202 2 -5.96828 9.1841 7.50288
147 2 -4.03815 12.7481 6.33557
185 2 -5.98832 10.3465 8.27134
175 2 -6.66314 12.1526 8.60575
311 3 -7.87556 12.7618 5.51339
1 4 -5.89823 13.0556 1.23266
189 2 0.997067 10.4053 3.26447
19 4 -3.28131 7.86911 1.13611
341 1 -5.75784 10.2626 4.37558
343 2 -4.40644 9.56229 3.64373
75 1 -4.85805 13.2451 6.99331
239 3 -3.63324 7.63617 2.6627
6 3 -5.60541 11.5215 1.6237
20 4 -5.97419 10.2454 2.611
377 2 -5.72724 11.311 4.69979
141 2 -4.12893 9.18773 0.305086
272 3 -0.0776677 12.266 6.57102
230 3 -7.72805 13.4424 0.728962
188 2 0.208318 8.76606 2.62084
201 2 -4.5839 7.84941 7.70307
270 3 -1.85445 12.5205 8.53926
144 2 -5.26373 12.4716 7.73919
114 2 1.55718 10.0207 1.03734
171 2 -0.654393 7.38613 2.22263
16 4 -1.85577 7.25261 6.23186
191 2 -2.03096 9.62351 2.00971
172 2 -0.589482 7.61752 4.01778
83 1 -0.444267 6.88793 3.14557
345 2 -2.16564 11.7562 2.05083
90 1 -2.33254 9.40829 0.929367
200 2 1.97705 7.30954 7.498
241 3 -2.7885 7.62659 7.86603
174 2 -1.37673 9.432 4.85285
347 2 -2.19839 12.7001 3.78421
27 4 -1.03998 13.2915 7.30745
84 1 -1.01574 8.81284 5.70345
173 2 -1.04753 9.41082 6.67927
187 2 0.0189153 8.30333 5.50095
267 3 2.19475 7.42598 2.46142
89 1 0.519971 9.83941 2.2823
344 1 -2.26867 12.7676 2.61021
381 2 -0.393136 10.442 2.0393
223 2 1.09271 9.79147 7.08611
346 2 -3.23596 13.2317 2.43723
382 2 -3.23001 10.8287 0.186304
109 2 -1.04447 8.68793 0.184781
190 2 0.573474 11.8612 1.71295
236 3 -2.92114 6.86377 5.05484
378 2 -5.71689 13.5488 6.39747
240 3 -2.68938 6.74264 0.133614
186 2 -5.04974 11.5576 9.39706
322 2 -7.80111 12.1664 9.54043
372 2 -6.69208 10.8654 9.99532
88 1 -6.13351 11.2015 9.06448
152 2 -6.91743 13.5768 13.5664
271 3 -4.70267 13.1966 14.5069
370 2 -5.12935 7.07476 16.1791
371 2 -4.84885 13.1029 10.8894
77 1 -6.30906 13.163 11.9776
22 4 -4.30825 9.2772 13.7191
23 4 -4.78968 12.2483 12.599
153 2 -7.20891 13.038 11.2452
243 3 -5.04448 10.6676 12.6772
274 3 -3.76777 9.9073 15.2155
103 1 -4.47689 8.98858 10.2938
227 2 -5.02984 8.63667 9.19862
228 2 -3.64826 7.92729 10.8862
229 2 -3.76382 9.90813 10.1852
337 2 -7.95982 11.3422 15.698
224 2 -5.35896 9.14432 11.0967
332 2 -7.13683 11.3545 11.7543
242 3 -5.38927 8.05605 13.6305
80 1 -3.55566 13.7053 14.8981
263 3 1.41655 7.1504 16.1284
364 2 -1.57567 12.4631 14.1198
46 4 -3.13734 10.551 16.5297
110 2 -3.20806 12.3383 11.9239
156 2 0.711484 8.26467 9.3415
163 2 -2.78525 13.0188 15.6405
151 2 -2.64665 7.57898 12.749
277 3 -0.0233702 10.327 12.7659
146 2 -0.488947 7.46101 10.3668
76 1 -2.73621 8.68173 12.9361
150 2 -2.68674 9.30278 11.9099
21 4 -2.42021 8.35175 9.19964
350 2 -1.23177 11.4385 15.8744
275 3 -1.78425 11.9895 16.5762
184 2 1.01924 9.15213 10.9038
149 2 -1.9159 9.02917 13.5874
74 1 -1.57995 7.0598 10.2554
87 1 1.33946 8.26824 10.2922
40 4 -0.0504418 7.65936 15.5849
43 4 -1.20398 11.3114 9.49937
45 4 0.833104 10.0555 14.157
47 4 -0.499555 11.5487 11.9044
269 3 -1.56852 9.79103 9.18474
273 3 -0.132241 9.23617 15.2185
276 3 -2.01051 11.5338 11.3
133 2 -2.10051 7.00548 11.2593
4 2 -5.3826 13.165 16.9431
92 1 7.91645 5.21242 3.59201
118 2 8.92539 2.22956 6.24569
73 1 10.0923 5.901 1.25124
195 2 8.66791 5.54267 2.73176
358 1 5.32945 6.72446 0.0537013
278 3 8.28418 1.57687 3.28091
291 3 5.41894 5.52801 2.95531
196 2 8.33743 5.388 4.63144
351 1 8.65333 1.11376 7.96036
352 2 9.55855 0.958745 7.26584
193 2 7.81431 3.29737 5.05443
198 2 7.44894 4.18083 3.40473
165 2 7.99149 1.99926 7.67383
82 1 5.54735 4.17768 8.4514
91 1 8.88537 2.98795 5.34921
192 2 9.49421 3.88671 5.61617
48 4 9.54443 2.42879 3.74428
168 2 7.05039 6.26212 6.84493
376 2 10.2985 6.40835 5.17682
56 4 6.50226 6.36144 3.6172
143 2 9.13633 5.54405 0.983135
288 3 10.0308 3.51769 2.7621
135 2 14.5128 0.896826 0.667984
142 2 10.7142 6.00487 0.302322
369 2 11.2957 6.16581 7.28012
7 4 14.639 1.81253 4.11467
280 3 13.8019 2.24549 5.35982
51 4 12.2002 2.15451 5.77904
55 4 11.1406 4.44555 1.99292
58 4 11.9615 4.58128 7.56194
281 3 11.1912 1.27652 4.22154
289 3 11.9908 3.49858 0.82427
290 3 12.1377 5.12167 3.21651
293 3 11.6768 3.60479 6.21793
325 3 13.9064 0.792101 3.13606
326 3 12.074 1.08528 1.39852
324 4 12.3798 0.502307 2.84266
49 4 11.9421 2.1058 0.147406
282 3 11.7804 1.06329 6.91462
50 4 12.8744 0.430281 8.04675
59 4 6.8076 5.52028 8.53534
194 2 7.01193 1.62182 4.27108
253 3 6.12557 3.77486 0.837375
379 2 9.92965 7.32605e-05 1.9607
197 2 5.99786 6.81024 5.3479
361 2 3.91369 5.96662 17.032
52 4 13.4297 0.61145 15.285
380 2 9.09957 1.31741 9.05495
353 2 7.19776 1.67429 9.21571
368 2 6.24427 5.49628 16.6464
383 2 7.38152 5.24934 15.0573
366 1 6.42727 5.77199 15.5376
367 2 5.44276 5.69513 14.9117
26 4 5.47018 2.97899 17.2429
39 4 6.04632 4.14839 12.214
53 4 8.15988 2.7461 15.6879
127 2 7.73394 4.21973 12.6643
333 2 13.4627 0.215404 11.885
261 3 5.88436 3.20693 10.982
266 3 5.56689 5.67355 12.0111
283 3 7.42667 1.5507 14.739
285 3 6.98389 3.43122 16.6743
295 3 8.84255 3.73963 14.5769
301 3 9.14669 4.48116 11.8668
41 4 5.12286 6.52872 10.7663
300 3 8.17353 4.92778 9.13279
284 3 9.23807 2.02117 16.5668
62 4 9.16448 5.3276 10.436
365 2 8.82737 0.475002 12.0898
294 3 6.09259 6.60157 9.50081
81 1 9.83985 1.71384 10.8667
169 2 9.61696 1.81201 11.9792
162 2 10.9556 1.74343 10.8004
166 2 9.39695 2.6066 10.2877
60 4 9.99023 4.20077 13.5775
164 2 9.46304 0.784197 10.4782
71 1 13.6683 1.72917 16.9659
95 1 12.6349 4.30517 9.33501
204 2 11.131 3.67002 9.02686
119 2 11.9723 2.39105 16.4482
121 2 11.7378 0.555562 12.6931
9 4 13.6749 2.92246 10.0394
54 4 12.2892 2.18667 12.9339
279 3 13.496 1.7211 8.87895
286 3 12.9881 2.52353 11.457
287 3 13.3427 2.04908 14.0888
296 3 11.0737 3.1383 13.2949
297 3 10.5773 5.55102 14.18
128 2 10.6851 6.04991 9.97035
260 3 5.23113 3.56558 13.4191
158 2 3.86683 5.59602 13.9238
18 4 10.316 6.98015 14.7302
136 2 13.5076 2.8736 16.8091
117 2 6.98179 0.842708 12.0725
308 3 7.17545 7.03674 6.11593
203 2 10.6356 7.68688 6.15304
44 4 1.1456 11.3348 6.13127
101 1 2.34673 11.0741 7.37341
307 3 1.82855 11.1648 4.68808
348 1 0.540482 13.009 1.37601
42 4 2.69028 8.97007 2.15964
384 2 2.29305 12.2155 0.620478
199 2 2.7842 9.06678 7.17345
375 2 10.6391 8.24072 4.52363
94 1 10.677 8.05483 7.36194
69 1 10.5759 7.03667 4.24678
93 1 3.02503 7.9534 7.1246
64 4 3.31104 11.3884 3.86348
124 2 9.96794 7.39904 7.94414
342 2 9.77733 9.65059 4.83633
268 3 3.51624 8.71427 0.521898
113 2 3.89055 7.658 7.77937
122 2 3.98993 8.18436 5.49894
306 3 3.30939 12.5986 2.74845
339 2 6.90151 12.13 4.10485
338 1 7.34386 12.6911 5.10744
222 2 3.38109 10.8779 6.98783
305 3 3.54932 9.87593 3.11224
63 4 7.72929 8.58979 1.56443
65 4 6.65221 9.55912 7.7274
67 4 5.67952 12.0398 6.09195
99 1 6.5439 10.0232 1.21906
217 2 7.2726 10.8674 1.37853
302 3 7.00034 7.66675 2.68192
304 3 9.11974 9.29526 2.17283
312 3 4.56954 11.729 4.99849
313 3 6.15353 10.7721 6.93153
314 3 5.39358 13.2015 7.14264
126 2 7.02231 7.96869 6.67876
218 2 5.75192 9.9578 2.0194
225 2 4.23946 12.1848 0.630083
349 2 0.557035 13.1612 0.259961
102 1 3.26446 11.8182 0.133055
216 2 6.15065 10.013 0.223017
131 2 9.77119 6.91075 3.36668
226 2 3.19962 10.6673 0.169806
123 2 10.0937 6.79663 2.01363
374 2 7.494 13.188 7.97752
359 2 4.9567 6.83518 1.14923
66 4 2.4209 11.7655 9.11842
373 2 1.02837 13.5817 16.3958
362 1 -0.364198 13.2607 12.8689
35 4 2.64797 8.14983 16.6822
68 4 2.18697 12.5097 15.6594
319 1 7.56948 12.8971 9.95038
310 3 0.628257 11.6293 10.0967
315 3 1.5127 11.3466 14.8393
363 2 0.137944 13.263 13.9505
181 2 2.89039 10.5118 11.0463
209 2 2.7925 8.40319 11.68
309 3 3.37368 13.1083 9.06861
120 2 6.38633 13.7183 15.8631
336 2 7.46292 12.167 17.0265
182 2 2.46651 8.37626 9.96407
179 2 3.52635 9.79418 9.40729
86 1 3.53443 10.6493 10.1202
219 2 8.00973 9.97032 8.89526
303 3 6.78546 8.13156 17.3397
386 2 7.70341 10.3106 17.031
321 2 7.57599 12.9147 11.0514
154 2 7.83208 10.0631 10.9242
323 2 6.60606 12.4918 9.56661
130 2 6.62355 10.994 15.6023
330 1 7.53282 11.1885 16.337
215 2 10.2622 7.8598 10.6554
334 2 3.88216 12.8342 13.1189
316 3 3.60509 13.2877 15.4716
129 2 6.45758 9.28989 10.6547
100 1 6.34779 9.75209 9.6543
220 2 5.84263 10.8169 9.81046
317 3 6.33071 13.1092 14.3865
214 2 8.40851 7.47601 9.98398
208 2 4.42684 9.46922 12.2551
335 2 4.19754 12.0495 11.3841
329 1 4.46977 12.8847 12.1794
331 2 7.59245 11.6739 12.4348
167 2 8.49322 9.88051 12.7619
328 1 8.78648 10.2196 11.766
207 2 4.19051 7.52371 12.785
180 2 4.59005 10.9666 10.3667
96 1 3.63462 8.54653 12.5705
115 2 5.20201 8.11847 11.503
57 4 7.13294 7.48435 15.7859
61 4 4.67406 8.97357 14.385
97 1 4.9994 10.8546 14.3564
210 2 6.58156 10.4092 13.523
211 2 5.02788 11.3813 15.3569
212 2 3.94133 10.9744 13.7974
292 3 8.78831 7.38894 15.3575
298 3 6.22553 8.40072 14.6457
299 3 3.56923 8.80657 15.4447
327 4 6.1195 12.17 13.165
98 1 9.28211 7.18675 10.7196
213 2 8.98169 7.16329 11.8269
116 2 2.19488 9.09176 13.6796
221 2 5.47571 8.85363 8.93087
360 2 5.03103 7.47596 17.3081
385 2 9.67799 9.48553 11.4135
ITEM: TIMESTEP
200
ITEM: NUMBER OF ATOMS
386
ITEM: BOX BOUNDS xy xz yz pp pp pp
-9.8217629042873114e+00 1.6492609739224015e+01 -8.5944045806504832e+00
-1.0598672932473274e-01 1.3893066935572161e+01 -1.3425485844128109e+00
4.2510623655953594e-03 1.7345948937634574e+01 3.3688020624736525e-01
ITEM: ATOMS id type x y z
13 4 -4.00856 6.54357 3.8072
206 2 -2.72795 4.98201 8.04181
12 4 -0.0933006 3.64261 2.17155
34 4 1.38329 6.24486 3.35123
70 1 0.0423826 3.38756 6.82292
134 2 1.5373 4.44605 6.22534
233 3 -1.27919 3.14856 3.23703
235 3 -0.605184 4.7003 1.10431
254 3 1.06522 4.65295 3.00886
111 2 2.30075 2.15163 4.35613
258 3 1.97075 6.51715 4.87951
320 2 0.959288 2.83102 6.39632
15 4 0.368324 5.02626 7.4454
107 2 -0.717636 3.61896 5.97684
237 3 -0.68876 6.09023 6.77484
177 2 2.67915 3.72295 0.980749
8 4 0.308093 1.11737 0.597751
234 3 0.607549 2.36986 1.54012
104 2 -0.436129 0.875861 4.80242
132 2 -0.654497 2.48559 8.02648
170 2 -0.980125 6.01335 3.4129
176 2 3.08846 5.55734 1.05404
38 4 3.24341 6.71339 5.84259
247 3 4.45863 0.775802 4.61045
245 3 6.74982 1.1559 0.78462
256 3 5.36831 2.90268 5.87427
248 3 6.47621 0.596832 6.45145
255 3 3.11222 3.20412 7.4734
252 3 4.32103 2.76344 2.59599
244 3 3.16657 0.535477 2.38915
85 1 3.42553 4.55799 0.656785
25 4 3.56639 1.51384 3.46044
259 3 4.23483 5.51344 6.20555
24 4 7.46284 0.330999 1.99618
29 4 5.79806 1.49926 5.30826
33 4 4.83415 3.98839 1.73626
36 4 4.59924 3.91839 6.85213
148 2 4.02926 0.463982 7.81071
378 2 2.75718 0.0906394 6.43008
138 2 -3.74233 5.23645 15.4954
5 2 2.98371 1.24794 17.2086
250 3 4.49223 2.64825 15.9712
357 2 1.42628 2.06407 16.3431
183 2 0.917449 6.88838 11.3664
356 2 0.387364 3.62399 16.8004
28 4 2.95536 2.39806 8.85419
105 2 1.67603 3.75954 15.4903
108 2 -2.97089 5.7496 13.9559
140 2 -2.39686 3.75346 15.7213
340 2 -0.479527 1.0063 10.3547
112 2 2.35887 3.49145 10.1055
72 1 -2.57856 4.91847 15.6694
10 4 1.93528 1.39789 12.7146
11 4 -0.0615908 3.66413 11.5555
17 4 -1.22569 5.41663 13.9166
78 1 1.49069 4.68071 11.4349
79 1 3.08694 5.02336 14.6561
155 2 1.31419 5.43849 12.2939
157 2 2.35694 3.95352 11.7227
231 3 -1.1343 3.44434 10.1171
232 3 0.658733 2.29994 12.0575
238 3 -0.819257 4.46022 12.6295
249 3 2.9627 2.27067 13.6255
139 2 -0.750829 4.37591 15.2785
106 2 3.13029 0.878871 11.2413
37 4 1.94904 5.99542 10.029
137 2 -0.806019 2.03844 16.3155
354 1 0.879446 3.04194 15.956
355 2 0.150028 2.76421 15.1669
160 2 1.96312 4.92472 14.3735
161 2 4.78196 1.02683 15.2557
159 2 3.2506 5.42273 15.67
145 2 -1.71869 6.08958 9.64096
205 2 -3.64599 5.06532 10.2181
262 3 -0.395387 6.77106 14.0123
251 3 4.48093 1.80802 9.2986
318 4 0.270322 1.00605 8.73229
30 4 6.69427 0.57537 13.7617
3 2 1.7539 0.374028 15.9742
265 3 3.59215 6.22062 10.0984
246 3 1.80789 1.24114 8.78498
31 4 4.03361 3.39181 14.3585
32 4 5.85955 2.61985 9.52299
14 4 -2.27588 6.06684 17.0969
178 2 2.28445 4.8031 16.8689
2 1 2.39335 0.351869 16.9677
158 2 3.7199 5.65948 13.8951
257 3 1.14798 5.45288 8.73176
202 2 -5.7449 9.33332 7.30298
147 2 -4.1919 12.9909 6.38584
185 2 -5.95769 10.1368 8.38585
175 2 -6.95881 11.7374 8.42238
374 2 -8.64829 13.1956 7.82878
1 4 -5.7755 13.1384 1.17741
189 2 0.90321 10.5655 3.10738
19 4 -3.17309 7.85996 1.01768
341 1 -5.95018 10.3743 4.10191
343 2 -4.60698 9.42188 3.58267
75 1 -4.95827 13.3387 7.05847
239 3 -3.71847 7.3102 2.37744
6 3 -5.51081 11.4786 1.60968
20 4 -5.96678 10.1628 2.3538
377 2 -5.82844 11.5351 4.19974
141 2 -4.12189 9.17659 0.391418
236 3 -2.80664 6.86431 5.01755
230 3 -7.59477 13.4152 0.688339
188 2 0.148197 8.89451 2.62994
201 2 -4.42282 7.91119 7.51832
270 3 -1.62724 12.5347 8.51906
144 2 -5.3993 12.4839 7.68747
114 2 1.56551 9.91575 0.991706
171 2 -0.508579 7.31329 2.05721
16 4 -1.75392 7.18701 6.24562
191 2 -2.07145 9.66074 2.0534
172 2 -0.611882 7.81914 4.01715
83 1 -0.388161 6.98447 3.20983
345 2 -2.00499 11.9426 2.56913
90 1 -2.28494 9.42261 0.962736
200 2 1.89778 7.29315 7.55113
241 3 -2.75847 7.66404 7.85262
174 2 -1.22862 9.28035 4.76876
347 2 -2.03775 12.9133 4.14497
27 4 -1.02728 13.3302 7.32369
84 1 -0.943005 8.75803 5.81102
173 2 -1.32072 9.35612 6.79883
187 2 0.220242 8.48921 5.87537
267 3 2.18131 7.31909 2.53002
89 1 0.491531 9.96788 2.21714
344 1 -2.2965 12.9435 3.04392
381 2 -0.423752 10.5512 1.80985
223 2 1.14278 9.8729 7.17645
346 2 -3.38856 13.2361 2.75305
382 2 -3.19249 10.7713 0.205747
190 2 0.524906 11.9836 1.70091
109 2 -0.877608 8.78508 0.215087
186 2 -5.25777 11.6131 9.19113
322 2 -7.80554 12.2316 9.57241
372 2 -6.68362 10.7884 9.95382
88 1 -6.2217 11.0802 8.95925
152 2 -7.06928 13.4381 13.5278
271 3 -4.72391 13.1682 14.3323
4 2 -5.46872 13.0676 16.9054
371 2 -4.86415 12.9093 10.7955
77 1 -6.3758 13.2699 11.9052
22 4 -4.47966 9.41535 13.7384
23 4 -4.74963 12.2859 12.499
153 2 -7.2436 13.1166 11.102
243 3 -5.04547 10.7649 12.6691
274 3 -3.79369 9.90231 15.1587
103 1 -4.63725 9.14022 10.0749
227 2 -4.94365 8.77914 9.04111
228 2 -3.8361 8.14615 10.8123
229 2 -4.12869 10.1227 10.1053
337 2 -7.9437 11.4028 15.7493
224 2 -5.52916 9.26989 10.7318
332 2 -7.11188 11.4333 11.8334
242 3 -5.47835 8.24158 13.9373
80 1 -3.53721 13.6466 14.773
263 3 1.4318 7.19873 16.1204
364 2 -1.55183 12.5104 14.1712
46 4 -3.1356 10.4856 16.4688
110 2 -3.10042 12.2704 11.9508
156 2 0.954154 8.05785 9.33424
163 2 -2.81641 12.8302 15.5075
151 2 -2.91811 7.77958 12.655
277 3 0.0827102 10.4508 12.8721
146 2 -0.379781 7.46698 10.2994
76 1 -2.84124 8.79692 13.0547
150 2 -2.53351 9.5521 12.2632
21 4 -2.4235 8.3665 9.16932
350 2 -1.18302 11.3727 15.8267
275 3 -1.86702 11.915 16.4138
184 2 1.10823 9.185 10.8013
149 2 -2.14637 8.86649 13.9713
74 1 -1.53944 7.09848 10.1856
87 1 1.47034 8.21967 10.358
40 4 -0.0793782 7.65887 15.6271
43 4 -1.18692 11.2434 9.46528
45 4 0.836425 10.0299 14.2109
47 4 -0.442284 11.5604 11.8561
269 3 -1.48167 9.70992 8.98326
273 3 -0.108482 9.34547 15.3603
276 3 -1.87723 11.4058 11.2713
133 2 -2.14064 7.1709 11.1727
264 3 -1.19859 7.17477 16.6923
240 3 -3.91477 7.09365 17.3353
385 2 -6.64714 9.59186 11.569
370 2 -5.14787 7.04657 16.2258
92 1 7.85548 5.09277 3.59215
118 2 8.89486 2.2652 6.39096
73 1 10.1161 5.85153 1.26609
195 2 8.71252 5.45508 2.70059
123 2 9.80348 6.71168 1.91551
278 3 8.29589 1.4401 3.38318
291 3 5.26076 5.33421 3.07875
196 2 8.15541 5.11525 4.70741