ITEM: TIMESTEP
0
ITEM: NUMBER OF ATOMS
386
ITEM: BOX BOUNDS xy xz yz pp pp pp
-9.6483459255346222e+00 1.6492609739224015e+01 -8.5944045806504832e+00
-1.0598672932473274e-01 1.3719649956819472e+01 -1.1691316056601209e+00
4.2510623655953594e-03 1.7345948937634574e+01 1.6346322749467529e-01
ITEM: ATOMS id type x y z
13 4 -3.95492 6.56715 3.8112
206 2 -2.40916 4.8322 7.97938
12 4 0.0377708 3.72931 2.2015
34 4 1.32249 6.23642 3.39968
70 1 0.026331 3.39964 6.67623
134 2 1.42365 4.4408 5.83334
233 3 -0.903802 3.32949 3.44885
235 3 -0.915704 4.50421 1.03562
254 3 1.18123 4.79973 2.6527
111 2 2.25543 2.28086 4.24774
258 3 1.93309 6.38878 4.91495
320 2 0.960133 2.87069 6.36691
15 4 0.439552 5.0963 7.13325
107 2 -0.775861 3.4851 5.80973
237 3 -0.774775 6.00486 6.69608
177 2 2.71405 3.71656 1.19228
8 4 0.338611 1.11958 0.626214
234 3 0.687005 2.31057 1.61768
104 2 -0.315691 0.8172 4.54409
132 2 -0.702465 2.33116 7.96951
170 2 -1.01285 5.92226 3.22163
176 2 3.12664 5.498 1.46748
38 4 3.34255 6.57267 5.79812
247 3 4.45997 0.920282 4.68979
245 3 7.15394 1.1046 0.524697
256 3 5.94245 2.99499 6.00124
248 3 6.36613 0.366728 6.34926
255 3 3.36003 2.91222 7.20256
252 3 4.58756 2.74601 2.87646
244 3 3.19613 0.4402 2.34778
85 1 3.50589 4.45134 1.03307
25 4 3.62599 1.58206 3.50698
259 3 4.18945 5.3364 6.15257
24 4 7.72199 0.244446 1.72712
29 4 5.91462 1.45018 5.3443
33 4 5.02461 3.99181 2.03865
36 4 4.71986 3.78547 6.8005
246 3 1.71787 1.13502 8.57996
318 4 0.220294 0.840733 8.55064
257 3 1.31276 5.41175 8.46822
236 3 -3.0595 6.64415 5.23037
28 4 2.85872 2.24856 8.64343
378 2 3.05198 0.00742186 6.45188
148 2 4.46543 0.0945866 7.51712
138 2 -3.92838 5.0017 15.7431
158 2 3.89726 5.40262 13.7565
250 3 4.63157 2.51999 15.973
357 2 1.65232 1.80763 16.2993
183 2 0.988516 6.48164 11.2925
356 2 0.53731 3.22808 16.6297
125 2 4.74534 4.52608 9.11172
105 2 1.94345 3.43736 15.3868
108 2 -2.89601 5.51745 14.0705
140 2 -2.56388 3.61565 16.0335
340 2 -0.309242 0.894031 10.2238
112 2 2.08996 3.32425 9.75258
72 1 -2.77768 4.73645 15.8277
10 4 2.0281 1.35226 12.6299
11 4 0.0140277 3.50625 11.6348
17 4 -1.15657 5.19855 14.0743
78 1 1.65013 4.41093 11.3502
79 1 3.20801 4.78209 14.5565
155 2 1.53978 5.11437 12.2785
157 2 2.58003 3.79973 11.388
231 3 -1.00099 3.28231 10.1961
232 3 0.59015 1.94267 12.1778
238 3 -0.758017 4.28978 12.7695
249 3 3.05682 2.19025 13.5066
139 2 -0.933154 4.2172 15.5345
106 2 3.06372 1.0514 11.1676
37 4 2.11644 5.81228 9.95356
137 2 -0.704076 1.9654 16.2354
354 1 1.11766 2.68645 15.8158
355 2 0.442297 2.34985 14.9527
160 2 2.12836 4.93997 14.2987
161 2 5.00133 0.896599 15.4376
159 2 3.51172 5.10499 15.5884
145 2 -1.70814 5.9681 9.725
205 2 -3.43187 5.19718 10.0017
262 3 -0.350633 6.62393 14.1819
251 3 4.24691 1.70955 9.31623
178 2 2.65863 4.66248 17.3225
30 4 6.81015 0.343077 13.8437
117 2 6.99464 0.394025 12.0998
265 3 3.63582 5.92989 10.2953
5 2 3.15742 0.762691 17.1405
31 4 4.17556 3.17446 14.2866
32 4 5.7438 2.50136 9.53507
14 4 -2.37908 5.80619 17.2656
270 3 -1.70254 12.4821 8.66857
147 2 -4.13667 12.5381 6.17446
185 2 -5.93334 10.1678 8.26692
175 2 -6.63794 11.8365 8.50981
311 3 -7.69972 12.7468 5.71975
1 4 -5.82465 13.081 1.27827
189 2 1.06553 10.5269 3.23995
19 4 -3.34757 7.8477 1.15711
341 1 -5.68631 10.5153 4.49833
343 2 -4.56268 9.57447 3.89522
75 1 -4.78062 13.063 6.95173
239 3 -3.74995 7.67309 2.71163
6 3 -5.4438 11.5891 1.82464
20 4 -6.03208 10.3863 2.7811
377 2 -5.41099 11.5876 4.73284
141 2 -4.21302 9.14576 0.264194
272 3 -0.0479416 12.3544 6.42425
230 3 -7.66615 13.2886 0.7398
188 2 0.197247 8.88434 2.75744
201 2 -4.57868 7.81892 7.61333
240 3 -2.69931 6.79881 0.199559
144 2 -5.2724 12.2979 7.66435
114 2 1.33714 9.82135 1.44614
171 2 -0.490867 7.36908 2.09533
16 4 -1.98175 7.0159 6.39063
191 2 -2.17831 9.64293 2.11367
172 2 -0.730118 7.66238 4.10324
83 1 -0.391354 6.9058 3.19363
345 2 -2.53034 11.924 1.584
90 1 -2.47008 9.45453 0.985065
200 2 2.31331 7.31301 7.65204
241 3 -2.85067 7.48889 8.00434
174 2 -1.52966 9.11269 4.90581
347 2 -2.02761 12.3133 3.28061
27 4 -1.05058 13.2582 7.24231
84 1 -1.19703 8.62624 5.82722
173 2 -1.43696 9.20821 6.81442
187 2 -0.0956086 8.20872 5.88297
267 3 2.43266 7.49534 2.53024
89 1 0.50652 9.9344 2.35328
344 1 -2.30138 12.7482 2.324
381 2 -0.376373 10.573 1.93304
223 2 1.22433 9.78202 7.31446
342 2 -6.5198 10.0354 5.08758
382 2 -3.2911 10.7606 0.207315
109 2 -1.00645 8.66911 0.290545
190 2 0.638458 11.784 1.60732
202 2 -6.04888 9.02615 7.42731
346 2 -3.11446 13.5657 2.25344
186 2 -4.97617 11.2897 9.32927
322 2 -7.65798 11.952 9.42372
372 2 -6.59012 10.696 9.99873
88 1 -5.99864 11.0041 9.04349
152 2 -6.8577 13.3357 13.4866
271 3 -4.65576 12.9215 14.6485
133 2 -1.89053 6.85046 11.4488
371 2 -4.55491 13.2782 11.1816
77 1 -6.19434 13.1173 11.9227
22 4 -4.13116 9.26178 13.6633
23 4 -4.74605 12.2247 12.6866
153 2 -7.04032 12.9718 11.0731
243 3 -4.85888 10.6637 12.7266
274 3 -3.64343 9.64472 15.2053
103 1 -4.63934 9.17032 10.1263
227 2 -5.03823 8.7634 9.0891
228 2 -3.7993 8.10931 10.866
229 2 -4.102 10.1196 10.0283
337 2 -7.82257 11.3218 15.5356
224 2 -5.56131 9.45268 10.785
332 2 -6.95236 11.2641 11.7962
242 3 -5.1574 8.06705 13.7813
80 1 -3.45499 13.4277 14.9382
263 3 1.54174 7.01921 16.0591
364 2 -1.23975 12.3858 14.2808
46 4 -2.95007 10.1387 16.5322
110 2 -3.13566 12.3638 12.1031
156 2 0.857364 8.18445 9.42657
163 2 -2.60744 12.5916 15.6542
151 2 -2.81671 7.56131 12.2661
277 3 0.134896 10.3299 12.8682
146 2 -0.351515 7.33706 10.2933
76 1 -2.61041 8.56057 12.8366
150 2 -2.41056 9.45063 12.0415
21 4 -2.4896 8.18966 9.39775
350 2 -0.902445 10.8163 16.1544
275 3 -1.68058 11.5709 16.3978
184 2 1.2951 8.76368 11.137
149 2 -1.8243 8.48136 13.671
74 1 -1.53391 6.94085 10.3145
87 1 1.52837 7.98568 10.2949
40 4 0.00483207 7.40731 15.6448
43 4 -1.25555 11.246 9.57732
45 4 0.91843 9.81803 14.2005
47 4 -0.271545 11.5179 11.8923
269 3 -1.65941 9.70579 9.35595
273 3 -0.108708 9.14551 15.2464
276 3 -1.86636 11.6423 11.3858
2 1 -6.10161 13.5392 16.9568
4 2 -5.48053 12.531 16.892
370 2 -4.85589 6.8948 16.1733
264 3 -1.29978 6.93595 16.7128
3 2 -6.96302 13.574 16.0894
92 1 7.95743 5.5138 3.41208
118 2 8.99998 2.37179 6.21045
73 1 10.2096 5.86567 1.17186
195 2 8.7085 5.66118 2.50491
358 1 5.34126 6.55323 0.0562731
278 3 8.44728 1.44069 3.21567
291 3 5.37661 5.45875 3.14278
196 2 8.42526 5.93118 4.51577
351 1 8.64277 1.14712 7.7854
352 2 9.45586 0.880029 7.00246
193 2 8.03828 3.60492 5.18301
198 2 7.52959 4.43607 3.5349
165 2 8.11315 2.10313 7.4003
82 1 5.6444 4.06452 8.46209
91 1 9.07563 3.18397 5.34842
192 2 9.84271 3.97817 5.55984
48 4 9.55612 2.4781 3.74821
168 2 7.17622 6.22327 6.96
359 2 5.17528 6.52304 1.17982
56 4 6.43803 6.48695 3.54794
143 2 9.11675 5.42174 0.894332
288 3 10.0749 3.62885 2.77546
135 2 14.5045 0.662303 0.410216
142 2 10.8745 5.96081 0.300252
369 2 11.4696 6.08697 7.17482
7 4 14.7366 1.85338 3.98006
280 3 13.8606 1.96189 5.24029
51 4 12.317 2.04391 5.70471
55 4 11.2357 4.40344 2.00314
58 4 12.105 4.5275 7.49357
281 3 11.304 1.49203 4.0816
289 3 11.8867 3.62042 0.50049
290 3 12.484 5.08745 3.02929
293 3 11.9963 3.50367 6.28816
325 3 14.017 0.852058 3.0549
326 3 11.959 0.926389 1.37468
324 4 12.4859 0.409684 2.82727
49 4 11.7903 2.04355 0.306399
282 3 11.944 0.974404 6.81409
50 4 12.8811 0.329985 8.03473
59 4 6.90064 5.38366 8.56845
194 2 7.17343 1.41518 4.13519
253 3 6.19846 3.6918 0.923745
376 2 10.3422 6.29063 4.94954
379 2 10.1731 -0.062483 1.56058
361 2 4.10236 5.69084 16.9212
52 4 13.6427 0.59771 15.033
380 2 9.09459 1.19114 8.82721
353 2 7.1086 1.65538 8.90795
368 2 6.38575 5.47342 16.6771
383 2 7.33427 5.18537 14.9966
366 1 6.50346 5.75558 15.537
367 2 5.5291 5.51939 14.996
26 4 5.70544 2.73483 17.125
39 4 6.28789 4.0796 12.278
53 4 8.27809 2.62854 15.6084
127 2 7.94498 4.17657 12.602
18 4 10.5808 6.81744 14.7802
261 3 6.07219 3.0961 10.9449
266 3 5.86084 5.5839 11.9911
283 3 7.50792 1.42353 14.7188
285 3 7.10796 3.32068 16.6412
295 3 8.92576 3.65617 14.5531
301 3 9.3575 4.42763 11.8497
41 4 5.2605 6.41229 10.8341
300 3 8.34489 4.81003 9.08763
284 3 9.29944 1.86647 16.6396
62 4 9.30103 5.02868 10.4072
136 2 13.6683 2.53163 16.9552
294 3 6.21968 6.52279 9.57069
81 1 9.86225 1.35934 10.7698
169 2 10.1334 1.5438 11.8426
162 2 10.6849 0.837519 10.1868
166 2 9.69735 2.35855 10.3099
60 4 10.1195 4.14542 13.6376
164 2 8.89348 0.711951 10.6699
71 1 13.9455 1.44093 16.9578
95 1 12.9827 4.35683 9.19726
204 2 11.3162 3.76575 9.03526
119 2 12.0766 2.04809 16.732
121 2 11.9338 0.557241 12.4492
9 4 13.7987 2.88588 9.96372
54 4 12.3952 2.20217 12.8403
279 3 13.6267 1.48645 9.10012
286 3 13.0948 2.62322 11.4439
287 3 13.4637 1.83152 14.11
296 3 11.1709 2.97274 13.3394
297 3 10.8619 5.46631 14.0433
128 2 10.8866 5.8084 10.1575
260 3 5.52685 3.54876 13.517
365 2 9.13588 0.225262 12.2161
120 2 15.2182 0.114334 15.602
333 2 13.4893 0.087933 11.8276
213 2 9.02776 6.81237 11.819
308 3 7.25298 7.01574 6.16337
203 2 10.5497 7.57264 6.14597
44 4 1.21902 11.2847 6.14867
101 1 2.43825 11.0047 7.37873
307 3 1.87093 11.2424 4.6657
348 1 0.673495 12.946 1.19189
42 4 2.84985 8.93834 2.06657
384 2 2.53876 12.1316 0.698356
199 2 3.08505 9.05251 7.20102
375 2 10.4612 8.12101 4.55183
94 1 10.6821 7.92258 7.38006
69 1 10.5716 7.0752 4.15048
93 1 3.29135 7.91237 7.19446
64 4 3.56995 11.3053 3.96078
124 2 10.082 7.26367 8.05488
374 2 7.69292 12.9297 7.81709
268 3 3.49116 8.79318 0.629511
113 2 4.20447 7.67212 7.78986
122 2 4.25642 8.05696 5.50698
306 3 3.57043 12.5408 2.97034
339 2 6.87062 12.7231 4.2636
338 1 7.49771 12.7287 5.37404
222 2 3.45035 10.9665 6.8916
305 3 3.68634 9.96763 3.11395
63 4 7.78716 8.6607 1.54011
65 4 6.71395 9.40588 7.74989
67 4 5.83441 12.0235 6.19637
99 1 6.63805 10.0552 1.10186
217 2 6.97982 11.0409 1.42092
302 3 7.04171 7.75257 2.52987
304 3 9.15145 9.43512 2.22506
312 3 4.6878 11.6142 5.04092
313 3 6.31166 10.6812 6.95385
314 3 5.37808 13.1448 7.29055
126 2 7.19145 7.91033 6.74013
218 2 5.71231 9.71771 1.62077
225 2 4.46313 12.2886 0.509988
123 2 10.0748 6.8724 1.75448
102 1 3.50766 11.7543 0.177009
131 2 9.9121 6.93231 3.17356
197 2 6.19413 7.14597 5.33464
226 2 3.5823 10.5788 0.362337
216 2 6.54101 9.93556 0.0142932
66 4 2.46522 11.5999 9.11425
373 2 1.09933 13.0444 16.4413
362 1 -0.0642518 13.1598 12.9713
35 4 2.82654 7.88047 16.7091
68 4 2.39462 12.2198 15.6607
319 1 7.69408 12.6792 9.73006
310 3 0.731001 11.6416 10.0953
315 3 1.79979 11.0019 14.8101
363 2 0.546119 12.9558 13.8736
181 2 3.07594 10.4266 10.948
209 2 2.8849 8.21683 11.8437
309 3 3.12991 13.0719 8.99233
321 2 7.58101 12.8391 10.8468
336 2 7.63876 11.9984 17.0474
116 2 2.04402 8.64968 13.6422
179 2 3.54055 9.55542 9.30588
86 1 3.73942 10.4676 9.99729
219 2 8.20065 9.64921 8.98263
303 3 7.13391 7.87951 17.3024
386 2 7.89175 10.2037 16.7425
360 2 5.15961 7.24447 17.1708
154 2 8.06583 9.96621 10.9637
323 2 6.74647 12.3213 9.24946
130 2 6.70382 11.0276 15.5128
330 1 7.71506 11.1561 16.1867
215 2 10.3498 7.78554 10.4418
334 2 3.99452 12.6918 13.1961
316 3 3.61354 13.1846 15.322
129 2 6.6751 8.60072 10.3949
100 1 6.60202 9.43325 9.6336
220 2 6.27862 10.4019 10.0786
317 3 6.64533 13.3001 14.1009
214 2 8.5722 7.1911 9.9413
208 2 4.30588 9.36073 12.3153
335 2 4.26307 11.9147 11.3726
329 1 4.58298 12.7588 12.2411
331 2 7.52871 11.5287 12.2923
167 2 8.3843 10.0002 12.8902
328 1 8.92091 10.1316 11.8171
207 2 4.28847 7.45004 12.8853
180 2 4.85954 10.7458 10.0897
96 1 3.67272 8.4615 12.6519
115 2 5.20202 8.05484 11.5104
57 4 7.24393 7.41453 15.6648
61 4 4.73839 8.94088 14.4617
97 1 4.98593 10.8535 14.4713
210 2 6.59037 10.4429 13.8062
211 2 4.85221 11.2613 15.5321
212 2 4.01981 10.9142 13.7289
292 3 8.99061 7.07718 15.2456
298 3 6.2378 8.27006 14.5731
299 3 3.75513 8.56577 15.5711
327 4 6.18774 12.1285 13.1817
98 1 9.45648 6.95639 10.6554
385 2 9.73585 9.34682 11.7096
182 2 2.62506 8.05784 9.97716
221 2 5.25128 8.67887 8.70411
349 2 -0.72774 13.2849 17.3352
ITEM: TIMESTEP
100
ITEM: NUMBER OF ATOMS
386
ITEM: BOX BOUNDS xy xz yz pp pp pp
-9.6483459255346222e+00 1.6492609739224015e+01 -8.5944045806504832e+00
-1.0598672932473274e-01 1.3719649956819472e+01 -1.1691316056601209e+00
4.2510623655953594e-03 1.7345948937634574e+01 1.6346322749467529e-01
ITEM: ATOMS id type x y z
13 4 -3.92884 6.57552 3.81266
206 2 -2.4928 4.6579 8.12291
12 4 0.102475 3.66085 2.1429
34 4 1.37733 6.19407 3.37434
70 1 0.380349 3.24218 6.8167
134 2 1.64634 4.28407 5.82143
233 3 -0.979953 3.07555 3.27575
235 3 -0.69286 4.6276 1.0192
254 3 1.31584 4.66658 2.93261
111 2 2.20226 2.07235 4.0528
258 3 1.92366 6.33108 4.92147
320 2 1.34348 2.68887 6.61653
15 4 0.581381 4.93868 7.13776
107 2 -0.420452 3.15239 5.95104
237 3 -0.667008 6.00806 6.58274
177 2 2.54477 3.81359 1.27885
8 4 0.292161 1.17403 0.613437
234 3 0.663778 2.41152 1.4808
104 2 -0.397882 0.867172 4.92168
132 2 -0.594449 2.33187 8.09545
170 2 -1.10036 5.99994 3.31306
176 2 3.1272 5.56836 1.25929
38 4 3.28456 6.53212 5.76229
247 3 4.59813 0.946299 4.63009
245 3 6.9706 1.26427 0.679779
256 3 5.65426 3.01417 5.91534
248 3 6.59909 0.428658 6.36373
255 3 3.27569 3.10497 7.39195
252 3 4.39623 2.75868 2.72473
244 3 3.19914 0.395676 2.34861
85 1 3.39209 4.49496 1.04117
25 4 3.69977 1.52676 3.44032
259 3 4.2756 5.38879 6.21719
24 4 7.56366 0.325918 1.90691
29 4 5.85805 1.45515 5.44436
33 4 4.9599 3.98998 1.92646
36 4 4.6115 3.87011 6.80344
246 3 1.89745 1.11123 8.56252
148 2 4.21621 0.3748 7.48508
257 3 1.38205 5.51045 8.67458
5 2 4.09722 1.04817 0.00959777
138 2 -3.72902 5.22308 15.4215
318 4 0.367724 0.876071 8.71794
250 3 4.59186 2.59043 15.9763
357 2 1.49866 1.77703 16.2149
183 2 0.977944 6.78384 11.3047
356 2 0.359913 3.26804 16.6031
133 2 -1.96907 6.74905 11.1597
105 2 1.89227 3.57247 15.4901
108 2 -2.95398 5.54426 13.8907
140 2 -2.53497 3.66208 15.8127
340 2 -0.240318 1.03063 10.407
112 2 2.42024 3.42468 9.84567
72 1 -2.62893 4.81576 15.669
10 4 2.01197 1.40759 12.5602
11 4 0.0215861 3.5161 11.5227
17 4 -1.21053 5.24371 13.9791
78 1 1.69213 4.49934 11.3076
79 1 3.29344 4.84427 14.7798
155 2 1.46746 5.16117 12.2236
157 2 2.62154 3.89548 11.5517
231 3 -0.899036 3.40101 10.1469
232 3 0.592271 1.98036 12.16
238 3 -0.796817 4.34836 12.6478
249 3 3.02615 2.29081 13.41
139 2 -0.785932 4.22504 15.4119
106 2 3.05145 0.885235 11.156
37 4 2.06087 5.99354 10.0457
137 2 -0.711782 1.92277 16.2885
354 1 1.01501 2.77458 15.8277
355 2 0.378054 2.55881 14.9257
160 2 2.24271 5.00888 14.5263
161 2 4.99595 1.12314 15.3478
159 2 3.51487 5.17227 15.9033
145 2 -1.37594 5.94074 9.61262
205 2 -3.65577 4.9844 10.1887
262 3 -0.421001 6.57473 14.2916
251 3 4.50755 1.69006 9.4089
178 2 2.45307 4.59138 17.2455
30 4 6.84596 0.445055 13.8003
28 4 3.00293 2.23037 8.73447
265 3 3.69006 6.19601 10.3073
3 2 1.75236 0.12869 16.3188
31 4 4.11528 3.18607 14.272
32 4 5.8719 2.55815 9.5462
14 4 -2.29158 5.85373 17.1054
2 1 2.54497 0.121818 17.0692
264 3 -1.05349 6.78304 16.8029
125 2 4.76993 4.55334 9.11228
378 2 -5.62938 13.3879 6.35241
147 2 -3.93761 12.6354 6.34687
185 2 -5.82097 10.2912 8.29951
175 2 -6.59603 12.0492 8.59307
311 3 -7.81423 12.727 5.4959
1 4 -5.89239 13.0483 1.23722
189 2 1.04267 10.3743 3.25734
19 4 -3.26567 7.86018 1.14449
341 1 -5.73117 10.229 4.36354
343 2 -4.39828 9.50833 3.59058
75 1 -4.7771 13.1441 6.97129
239 3 -3.58937 7.61363 2.67652
6 3 -5.59128 11.5069 1.61053
20 4 -5.95416 10.2252 2.60286
377 2 -5.68844 11.2798 4.70643
141 2 -4.12404 9.18395 0.340062
272 3 -0.0163536 12.1956 6.57656
230 3 -7.72328 13.4307 0.726381
188 2 0.250268 8.74045 2.63656
201 2 -4.49985 7.7506 7.70187
236 3 -2.86483 6.81126 5.04288
144 2 -5.17134 12.3878 7.74968
114 2 1.58187 10.0134 0.984717
171 2 -0.621271 7.3694 2.23463
16 4 -1.7876 7.18638 6.23188
191 2 -1.99821 9.62411 2.00887
172 2 -0.542109 7.57035 4.01503
83 1 -0.412086 6.86863 3.15273
345 2 -2.00946 11.7824 2.00086
90 1 -2.32716 9.40192 0.933286
200 2 2.05888 7.24885 7.50736
241 3 -2.71376 7.53634 7.8742
174 2 -1.31226 9.37794 4.91037
347 2 -2.21643 12.6575 3.78919
27 4 -0.978683 13.2084 7.31055
84 1 -0.959962 8.75834 5.73067
173 2 -0.974392 9.34971 6.71771
187 2 0.0784785 8.24642 5.50374
267 3 2.22636 7.40441 2.45771
89 1 0.566362 9.81592 2.29041
344 1 -2.25331 12.7734 2.62044
381 2 -0.344928 10.4216 2.04623
223 2 1.17962 9.71296 7.07536
346 2 -3.25381 13.1609 2.42965
382 2 -3.27141 10.8222 0.225705
109 2 -1.02573 8.71354 0.170415
190 2 0.591796 11.8307 1.72681
202 2 -5.87949 9.09041 7.585
270 3 -1.78048 12.4545 8.55122
240 3 -2.69718 6.74525 0.123179
186 2 -4.97016 11.5354 9.42408
322 2 -7.69319 12.102 9.57568
372 2 -6.58188 10.7796 9.98926
88 1 -6.02573 11.1258 9.07981
152 2 -6.76845 13.4605 13.5607
271 3 -4.57553 13.0622 14.5133
321 2 -8.65709 12.9079 11.0962
371 2 -4.74513 12.9982 10.9088
77 1 -6.19983 13.0292 11.9845
22 4 -4.17808 9.15316 13.7279
23 4 -4.67332 12.1191 12.6007
153 2 -7.11696 12.9228 11.2665
243 3 -4.92208 10.5348 12.6768
274 3 -3.62988 9.76476 15.2144
103 1 -4.37085 8.88847 10.3086
227 2 -4.91949 8.57427 9.22834
228 2 -3.46358 7.7764 10.9098
229 2 -3.74773 9.82881 10.2797
337 2 -7.79549 11.1603 15.6802
224 2 -5.25353 9.05235 11.0939
332 2 -7.01702 11.2137 11.7572
242 3 -5.25342 7.92708 13.6439
80 1 -3.41034 13.5519 14.8812
263 3 1.57327 7.00008 16.1117
364 2 -1.44439 12.3251 14.1378
46 4 -2.98662 10.3934 16.5332
110 2 -3.09589 12.2501 11.9201
156 2 0.83995 8.20337 9.37241
163 2 -2.65315 12.866 15.6209
151 2 -2.69712 7.46851 12.8397
277 3 0.0950875 10.1944 12.7686
146 2 -0.351268 7.35945 10.3205
76 1 -2.60447 8.57076 12.946
150 2 -2.53064 9.12724 11.8977
21 4 -2.31518 8.25724 9.20018
350 2 -1.09893 11.2726 15.8786
275 3 -1.65144 11.8423 16.564
184 2 1.15372 9.06022 10.9355
149 2 -1.68588 8.81032 13.5442
74 1 -1.44432 6.93165 10.1645
87 1 1.456 8.18515 10.31
40 4 0.10013 7.50917 15.5818
43 4 -1.10573 11.221 9.50146
45 4 0.953639 9.92251 14.1639
47 4 -0.376063 11.4121 11.9036
269 3 -1.47226 9.7013 9.17791
273 3 0.00345722 9.09776 15.2322
276 3 -1.89604 11.4172 11.3138
370 2 -4.97739 6.90854 16.1767
4 2 -5.22026 13.0087 16.9289
92 1 7.94068 5.17794 3.57581
118 2 8.96893 2.17431 6.23039
73 1 10.1141 5.88438 1.25002
195 2 8.6838 5.51064 2.71376
358 1 5.32773 6.72015 0.0671675
278 3 8.32078 1.53898 3.27418
291 3 5.43375 5.51477 2.95719
196 2 8.39614 5.34906 4.60666
351 1 8.72108 1.03939 7.95453
352 2 9.61297 0.910878 7.25132
193 2 7.86567 3.26028 5.04675
198 2 7.50909 4.12903 3.40098
165 2 8.01885 1.88863 7.71257
82 1 5.61459 4.08448 8.45047
91 1 8.93434 2.94634 5.35421
192 2 9.5369 3.84829 5.64421
48 4 9.57882 2.39218 3.74745
168 2 7.11601 6.18684 6.85067
376 2 10.3259 6.41119 5.20937
56 4 6.53271 6.33286 3.61465
143 2 9.17115 5.5151 0.96575
288 3 10.0656 3.50229 2.77486
135 2 14.4904 0.879952 0.637951
142 2 10.7397 5.98265 0.289677
369 2 11.3886 6.08923 7.31134
7 4 14.6849 1.76614 4.09272
280 3 13.8622 2.16305 5.36525
51 4 12.2603 2.0868 5.78389
55 4 11.1631 4.42765 1.98959
58 4 12.0466 4.49736 7.58618
281 3 11.2228 1.23942 4.23117
289 3 12.0019 3.47061 0.823104
290 3 12.1783 5.09449 3.20303
293 3 11.7337 3.5336 6.23332
325 3 13.9359 0.769882 3.10639
326 3 12.0725 1.05757 1.38425
324 4 12.4057 0.473883 2.83543
49 4 11.943 2.09223 0.147494
282 3 11.8452 0.992858 6.92393
50 4 12.959 0.353986 8.05009
59 4 6.89134 5.42657 8.54279
194 2 7.10151 1.55233 4.2841
253 3 6.13504 3.77046 0.846205
379 2 9.9374 -0.0374043 1.94659
197 2 6.04363 6.76105 5.38094
361 2 4.08345 5.78839 17.0345
52 4 13.5766 0.476153 15.2605
380 2 9.17145 1.22635 9.04604
353 2 7.24898 1.5234 9.26299
368 2 6.37237 5.33054 16.6515
383 2 7.53892 5.08356 15.0677
366 1 6.58663 5.60985 15.5365
367 2 5.61968 5.524 14.9035
26 4 5.65219 2.80389 17.2431
39 4 6.15465 4.0078 12.1813
53 4 8.32554 2.59399 15.6908
127 2 7.86703 4.06298 12.5478
18 4 10.4665 6.83027 14.73
261 3 5.96547 3.09823 10.9792
266 3 5.67411 5.56473 12.0176
283 3 7.57868 1.40035 14.7417
285 3 7.1594 3.27074 16.6891
295 3 8.98973 3.60018 14.5783
301 3 9.28215 4.35524 11.8563
41 4 5.24378 6.44669 10.7786
300 3 8.25382 4.81677 9.13003
284 3 9.4081 1.85011 16.5574
62 4 9.26797 5.23136 10.4242
333 2 13.5847 0.109972 11.9077
294 3 6.22965 6.53672 9.52383
81 1 9.92871 1.5983 10.8635
169 2 9.70846 1.72767 11.9707
162 2 11.0461 1.58129 10.7893
166 2 9.53039 2.50473 10.2701
60 4 10.1332 4.06087 13.5852
164 2 9.51271 0.675645 10.4836
71 1 13.8424 1.57704 16.9734
95 1 12.7358 4.21457 9.35701
204 2 11.2123 3.58023 9.06171
119 2 12.1439 2.24207 16.4529
121 2 11.873 0.406433 12.6852
9 4 13.7802 2.82351 10.0403
54 4 12.4187 2.04607 12.9392
279 3 13.5766 1.64001 8.86931
286 3 13.1101 2.40298 11.4638
287 3 13.4778 1.90895 14.1032
296 3 11.1961 2.98745 13.3004
297 3 10.7334 5.40477 14.1708
128 2 10.7876 5.95673 9.95398
260 3 5.3785 3.43692 13.4077
365 2 8.94608 0.353487 12.0934
158 2 4.01211 5.45964 13.9687
117 2 7.08919 0.712502 12.1156
136 2 13.6702 2.72756 16.8613
308 3 7.24712 6.96685 6.10562
203 2 10.7038 7.65724 6.17874
44 4 1.21196 11.2787 6.13301
101 1 2.43612 11.0001 7.35846
307 3 1.88072 11.1237 4.68645
348 1 0.564154 12.9809 1.37893
42 4 2.70194 8.94323 2.17288
384 2 2.30417 12.2055 0.646967
199 2 2.86002 8.99395 7.16346
375 2 10.6832 8.17689 4.48766
94 1 10.7582 7.97731 7.38507
69 1 10.6286 7.01291 4.25448
93 1 3.09926 7.88181 7.13107
64 4 3.35404 11.354 3.85931
124 2 10.0601 7.29823 7.95194
131 2 9.83474 6.85781 3.37711
268 3 3.52211 8.69748 0.512813
113 2 3.96925 7.59431 7.78139
122 2 4.05624 8.12117 5.50461
306 3 3.34839 12.5781 2.74573
339 2 6.95877 12.0724 4.0978
338 1 7.40853 12.6188 5.09752
222 2 3.45007 10.8232 6.95956
305 3 3.5922 9.84846 3.09449
63 4 7.74182 8.57247 1.57163
65 4 6.72267 9.49051 7.72581
67 4 5.7436 11.9714 6.08387
99 1 6.5579 10.0093 1.25336
217 2 7.27846 10.8577 1.44433
302 3 7.03086 7.64049 2.69093
304 3 9.13016 9.28031 2.17437
312 3 4.62191 11.6807 4.99369
313 3 6.22529 10.701 6.92651
314 3 5.47324 13.146 7.14601
126 2 7.10591 7.9006 6.65877
218 2 5.77928 9.89138 2.0528
225 2 4.26522 12.1595 0.670145
342 2 9.8039 9.61383 4.81285
102 1 3.2911 11.8259 0.142965
216 2 6.16426 10.0248 0.247873
359 2 4.94255 6.84597 1.16051
226 2 3.20252 10.687 0.12892
349 2 0.592459 13.1134 0.271731
123 2 10.0855 6.77666 2.00016
374 2 7.578 13.0722 8.0282
66 4 2.5155 11.6759 9.10926
373 2 1.19905 13.4113 16.4185
362 1 -0.218841 13.1229 12.8867
35 4 2.81744 7.9723 16.6654
68 4 2.34206 12.3485 15.6619
319 1 7.67466 12.8181 9.98446
310 3 0.724248 11.5291 10.0843
315 3 1.64991 11.2041 14.8379
363 2 0.443969 12.9246 13.7973
181 2 2.9571 10.4188 11.0415
209 2 2.90439 8.26908 11.695
309 3 3.46667 13.0246 9.07727
120 2 6.53714 13.5747 15.8109
336 2 7.63869 11.9994 17.0234
213 2 9.13421 7.08832 11.8313
179 2 3.61527 9.67931 9.38665
86 1 3.62624 10.5356 10.0918
219 2 8.11798 9.89551 8.9223
303 3 6.94443 7.95559 17.3285
386 2 7.8532 10.1406 17.0137
116 2 2.30105 8.93867 13.7
154 2 7.95071 9.95086 10.9192
323 2 6.70577 12.399 9.64549
130 2 6.77441 10.8496 15.5941
330 1 7.69688 11.026 16.3281
215 2 10.3817 7.7531 10.6367
334 2 3.98819 12.6956 13.098
316 3 3.74681 13.1421 15.4574
129 2 6.54753 9.18168 10.6102
100 1 6.46785 9.68003 9.63551
220 2 5.96662 10.7575 9.82524
317 3 6.47796 12.9645 14.3589
214 2 8.46915 7.39017 10.0159
208 2 4.48675 9.34486 12.2797
335 2 4.30702 11.9363 11.3384
329 1 4.60773 12.7563 12.1688
331 2 7.71583 11.5716 12.4213
167 2 8.58596 9.77734 12.7713
328 1 8.9051 10.0931 11.7764
207 2 4.35732 7.42524 12.7673
180 2 4.67743 10.8322 10.3382
96 1 3.75146 8.42123 12.5928
115 2 5.31656 8.03021 11.5007
57 4 7.28692 7.32153 15.7916
61 4 4.82673 8.83249 14.3954
97 1 5.13648 10.7182 14.3595
210 2 6.72228 10.277 13.551
211 2 5.17046 11.261 15.3524
212 2 4.07941 10.8353 13.7863
292 3 8.94009 7.23202 15.3561
298 3 6.36394 8.25499 14.625
299 3 3.72449 8.64968 15.454
327 4 6.2512 12.0268 13.1506
98 1 9.38408 7.0811 10.7314
182 2 2.57856 8.27846 9.98078
360 2 5.21969 7.29051 17.34
221 2 5.5108 8.71337 8.86687
385 2 9.80667 9.36426 11.4354
ITEM: TIMESTEP
200
ITEM: NUMBER OF ATOMS
386
ITEM: BOX BOUNDS xy xz yz pp pp pp
-9.6483459255346222e+00 1.6492609739224015e+01 -8.5944045806504832e+00
-1.0598672932473274e-01 1.3719649956819472e+01 -1.1691316056601209e+00
4.2510623655953594e-03 1.7345948937634574e+01 1.6346322749467529e-01
ITEM: ATOMS id type x y z
13 4 -3.96048 6.52658 3.82486
206 2 -2.69166 4.88239 8.07737
12 4 -0.0820127 3.64173 2.17108
34 4 1.42353 6.21692 3.36504
70 1 0.120313 3.32258 6.81975
134 2 1.62061 4.37994 6.22776
233 3 -1.25348 3.11665 3.23948
235 3 -0.619645 4.72172 1.13916
254 3 1.09309 4.63803 3.00242
111 2 2.36339 2.11032 4.4258
258 3 2.04363 6.46851 4.88354
320 2 1.04482 2.76727 6.44422
15 4 0.473537 4.94032 7.4495
107 2 -0.622319 3.48096 5.95943
237 3 -0.583983 5.99778 6.76963
177 2 2.69853 3.6668 0.921046
8 4 0.311061 1.10366 0.584422
234 3 0.605693 2.38312 1.50418
104 2 -0.386901 0.838624 4.74927
132 2 -0.641072 2.34687 7.99035
170 2 -0.926993 6.04785 3.59195
176 2 3.07172 5.48752 1.08778
38 4 3.30369 6.62807 5.83886
247 3 4.53297 0.724749 4.62697
245 3 6.78101 1.13609 0.774564
256 3 5.43402 2.82289 5.87665
248 3 6.52494 0.507247 6.4579
255 3 3.16501 3.10645 7.45788
252 3 4.35524 2.73976 2.6326
244 3 3.17699 0.521011 2.41953
85 1 3.43157 4.51659 0.652898
25 4 3.60974 1.47779 3.49347
259 3 4.25533 5.41825 6.23006
24 4 7.48373 0.329042 1.99319
29 4 5.85787 1.43084 5.33374
33 4 4.84285 3.97068 1.76306
36 4 4.68643 3.83755 6.83376
148 2 4.11939 0.382655 7.6954
378 2 2.83077 -0.0344607 6.35545
138 2 -3.59578 5.0078 15.5937
318 4 0.347033 0.882095 8.73785
250 3 4.68219 2.5092 15.9943
357 2 1.56393 1.88793 16.3504
257 3 1.27141 5.3901 8.72921
356 2 0.587904 3.51518 16.7942
158 2 3.83486 5.50275 13.8812
105 2 1.86149 3.58675 15.5013
108 2 -2.85587 5.63481 14.0334
140 2 -2.19391 3.56268 15.7399
340 2 -0.432815 0.946206 10.3566
112 2 2.4824 3.38093 10.1132
72 1 -2.43105 4.73911 15.6922
10 4 2.08472 1.28068 12.7043
11 4 0.0588462 3.56333 11.5378
17 4 -1.10146 5.27816 13.9224
78 1 1.60836 4.58694 11.4342
79 1 3.21899 4.86594 14.6463
155 2 1.35514 5.34374 12.2822
157 2 2.47672 3.89057 11.7375
231 3 -1.01401 3.32869 10.1265
232 3 0.798553 2.20553 12.0493
238 3 -0.721451 4.35083 12.618
249 3 3.12139 2.16685 13.5971
139 2 -0.642444 4.21467 15.2678
106 2 3.25814 0.730212 11.2368
37 4 2.06418 5.92923 10.0299
137 2 -0.569974 1.7719 16.2623
354 1 1.04558 2.87814 15.9618
355 2 0.318171 2.63642 15.1438
160 2 2.13574 4.66069 14.2873
161 2 4.98187 0.919238 15.2848
159 2 3.34183 5.31029 15.6931
145 2 -1.50326 5.97634 9.50768
205 2 -3.50847 4.94281 10.2651
262 3 -0.270626 6.63236 14.0056
251 3 4.55722 1.70051 9.22569
178 2 2.4975 4.65737 16.8983
30 4 6.84009 0.431245 13.7694
28 4 3.02313 2.28281 8.84778
265 3 3.71956 6.14786 10.1267
3 2 1.87785 0.230279 16.0227
31 4 4.17157 3.25457 14.3198
32 4 5.90856 2.54483 9.51638
14 4 -2.11365 5.89331 17.114
2 1 2.57943 0.153121 16.9816
5 2 3.11054 1.1014 17.3157
183 2 1.008 6.798 11.3601
246 3 1.88069 1.12742 8.78535
370 2 -5.02143 6.83958 16.2091
136 2 -2.55225 2.52078 16.6076
202 2 -5.73486 9.21775 7.46806
147 2 -4.11876 12.84 6.33904
185 2 -5.64251 10.1478 8.48986
175 2 -6.86682 11.5546 8.4506
109 2 -0.910978 8.79856 0.178556
1 4 -5.78207 13.1364 1.17801
189 2 0.997309 10.5317 3.05574
19 4 -3.15326 7.85983 1.03189
341 1 -5.94706 10.324 4.09056
343 2 -4.60776 9.41853 3.48474
75 1 -4.88752 13.2327 6.99483
239 3 -3.66476 7.31021 2.41083
6 3 -5.5165 11.4806 1.60328
20 4 -5.96192 10.1469 2.33871
377 2 -5.80257 11.4677 4.23421
141 2 -4.11899 9.21047 0.424289
270 3 -1.54284 12.4604 8.5638
230 3 -7.60036 13.4281 0.729567
188 2 0.235101 8.84769 2.59945
201 2 -4.32871 7.85113 7.55316
236 3 -2.74584 6.80807 5.03659
144 2 -5.33666 12.3969 7.68067
114 2 1.52988 9.86917 0.836666
171 2 -0.476475 7.19141 2.06064
16 4 -1.66484 7.08993 6.23267
191 2 -1.99942 9.67415 2.09153
172 2 -0.500243 7.93078 3.90492
83 1 -0.323636 6.99515 3.2106
345 2 -1.99601 11.9269 2.47267
90 1 -2.28308 9.42784 0.982591
200 2 1.95887 7.2562 7.56632
241 3 -2.67618 7.5605 7.82755
174 2 -1.11768 9.17469 4.72712
347 2 -2.01872 12.8093 4.13405
27 4 -0.965411 13.2345 7.33091
84 1 -0.853968 8.66527 5.80796
173 2 -1.25177 9.29074 6.74744
187 2 0.283901 8.4649 5.90374
267 3 2.21441 7.32592 2.53076
89 1 0.569466 9.94361 2.18421
344 1 -2.28637 12.9367 3.01638
381 2 -0.384501 10.4953 1.83948
223 2 1.22313 9.72206 7.14942
346 2 -3.4024 13.2259 2.70852
382 2 -3.23707 10.7799 0.290349
374 2 -8.61233 13.0619 7.87944
190 2 0.558286 11.943 1.69312
186 2 -5.24501 11.7116 9.29999
322 2 -7.67465 12.1388 9.62781
372 2 -6.56212 10.6967 10.0221
88 1 -6.09589 11.0322 9.02699
152 2 -6.96208 13.3213 13.5492
271 3 -4.60694 13.0647 14.3432
385 2 -6.55327 9.45785 11.6241
371 2 -4.74765 12.7475 10.7881
77 1 -6.22636 13.1327 11.9176
22 4 -4.36091 9.27134 13.7347
23 4 -4.61276 12.1684 12.4948
153 2 -7.15581 13.02 11.1479
243 3 -4.89742 10.6346 12.6866
274 3 -3.68447 9.78037 15.1691
103 1 -4.52339 9.00641 10.1374
227 2 -4.88631 8.63249 9.1615
228 2 -3.72488 8.08602 10.7501
229 2 -3.9335 10.026 10.0907
337 2 -7.79107 11.2173 15.7338
224 2 -5.41501 9.18254 10.8623
332 2 -6.99397 11.3484 11.8518
242 3 -5.36256 8.09992 13.9524
80 1 -3.42424 13.5127 14.7875
263 3 1.60361 7.03206 16.0992
364 2 -1.4323 12.3552 14.1366
46 4 -3.00601 10.3594 16.4743
110 2 -2.98728 12.1951 11.9592
156 2 1.05647 8.02383 9.31738
163 2 -2.69943 12.6995 15.4799
151 2 -2.99278 7.64958 12.7745
277 3 0.210269 10.2984 12.8543
146 2 -0.223167 7.37335 10.2309
76 1 -2.70741 8.66556 13.0833
150 2 -2.38454 9.31011 12.205
21 4 -2.29535 8.26519 9.11732
350 2 -1.09115 11.2523 15.8459
275 3 -1.74725 11.7907 16.4242
184 2 1.27694 9.11878 10.8045
149 2 -1.94514 8.70948 13.9669
74 1 -1.37937 6.94325 10.1164
87 1 1.59994 8.13167 10.3518
40 4 0.0512344 7.5042 15.6227
43 4 -1.09963 11.1412 9.48402
45 4 0.957428 9.89139 14.2346
47 4 -0.325551 11.4241 11.8724
269 3 -1.39929 9.61766 8.97099
273 3 0.016546 9.20738 15.3724
276 3 -1.75817 11.2835 11.2976
4 2 -5.23058 12.9693 16.8211
133 2 -1.888 6.91604 11.1242
264 3 -1.02636 7.01213 16.7138
240 3 -3.76124 6.91919 17.3345
92 1 7.88434 5.03914 3.54866
118 2 8.98227 2.16293 6.40191
73 1 10.1523 5.81502 1.25948
195 2 8.7104 5.40874 2.69412
358 1 5.27096 6.65591 0.0849171
278 3 8.3516 1.4157 3.36569