LAMMPS (2 Aug 2023 - Update 2)
OMP_NUM_THREADS environment is not set. Defaulting to 1 thread. (src/comm.cpp:98)
  using 1 OpenMP thread(s) per MPI task
# Initialization
units           real
dimension       3
boundary        p p p
atom_style      full
timestep        0.5   # fs

# Define MD parameters
variable nevery equal 10                  # sampling interval
variable nrepeat equal 10                 # number of samples
variable nfreq equal ${nevery}*${nrepeat} # length of one average
variable nfreq equal 10*${nrepeat} 
variable nfreq equal 10*10 
variable nthermo equal ${nfreq}           # interval for thermo output
variable nthermo equal 100           
# 1 ps : 1e3 fs / 0.5 fs = 2e3 steps
variable nequil equal 50*${nthermo}       # steps of equilibration run 10
variable nequil equal 50*100       
variable nrun equal 50*${nthermo}          # stpes of equilibrated run 10
variable nrun equal 50*100          
variable temp equal 300.0                # temperature of initial sample
variable tdamp equal 50.0                 # time constant for thermostat
variable seed equal 123456                # seed for thermostat
variable ufac equal 1.01325e-4         # pressure unit conversion, from atm to Gpa
variable up equal 0.1                  # the deformation magnitude 0.01

# Read the initial sctructure
# box tilt large
variable structure string 333U-50C-20-vasp
read_data       ${structure}.data
read_data       333U-50C-20-vasp.data
Reading data file ...
  triclinic box = (0 0 0) to (15.2382 14.5028 17.0085) with tilt (-6.2627 -0.4482 -0.642)
  2 by 2 by 2 MPI processor grid
  reading atoms ...
  350 atoms
Finding 1-2 1-3 1-4 neighbors ...
  special bond factors lj:    0        0        0       
  special bond factors coul:  0        0        0       
     0 = max # of 1-2 neighbors
     0 = max # of 1-3 neighbors
     0 = max # of 1-4 neighbors
     1 = max # of special neighbors
  special bonds CPU = 0.001 seconds
  read_data CPU = 0.006 seconds

# Energy minimization
print "*****Minimization starts.*****"
*****Minimization starts.*****
minimize 1.0e-6 1.0e-6 100 1000
WARNING: No pairwise cutoff or binsize set. Atom sorting therefore disabled. (src/atom.cpp:2366)
WARNING: Communication cutoff is 0.0. No ghost atoms will be generated. Atoms may get lost. (src/comm_brick.cpp:210)
Per MPI rank memory allocation (min/avg/max) = 6.365 | 6.365 | 6.365 Mbytes
   Step          Temp          E_pair         E_mol          TotEng         Press     
         0   0              0              0              0              0            
         1   0              0              0              0              0            
Loop time of 5.37074e-05 on 8 procs for 1 steps with 350 atoms

50.5% CPU use with 8 MPI tasks x 1 OpenMP threads

Minimization stats:
  Stopping criterion = search direction is not downhill
  Energy initial, next-to-last, final = 
                     0                  0                  0
  Force two-norm initial, final = 0 0
  Force max component initial, final = 0 0
  Final line search alpha, max atom move = 0 0
  Iterations, force evaluations = 1 0

MPI task timing breakdown:
Section |  min time  |  avg time  |  max time  |%varavg| %total
---------------------------------------------------------------
Pair    | 0          | 0          | 0          |   0.0 |  0.00
Bond    | 1.36e-07   | 1.7825e-07 | 2.38e-07   |   0.0 |  0.33
Neigh   | 0          | 0          | 0          |   0.0 |  0.00
Comm    | 1.657e-06  | 2.1182e-06 | 2.393e-06  |   0.0 |  3.94
Output  | 0          | 0          | 0          |   0.0 |  0.00
Modify  | 0          | 0          | 0          |   0.0 |  0.00
Other   |            | 5.141e-05  |            |       | 95.72

Nlocal:          43.75 ave          50 max          39 min
Histogram: 2 0 1 0 2 0 2 0 0 1
Nghost:              0 ave           0 max           0 min
Histogram: 8 0 0 0 0 0 0 0 0 0
Neighs:              0 ave           0 max           0 min
Histogram: 8 0 0 0 0 0 0 0 0 0

Total # of neighbors = 0
Ave neighs/atom = 0
Ave special neighs/atom = 0
Neighbor list builds = 0
Dangerous builds = 0
min_style cg
# Save the optimized structure
write_data ${structure}_opt.data
write_data 333U-50C-20-vasp_opt.data
System init for write_data ...
WARNING: Communication cutoff is 0.0. No ghost atoms will be generated. Atoms may get lost. (src/comm_brick.cpp:210)
velocity        all create ${temp} ${seed} dist gaussian
velocity        all create 300 ${seed} dist gaussian
velocity        all create 300 123456 dist gaussian

# Equilibration
include ff.mod.lmp
# Setup forcefield, system
# undefine any fix ave/* fix before using reset_timestep
if "$(is_defined(fix,avgp))" then "unfix avgp"
if "$(is_defined(fix,avgl))" then "unfix avgl"
reset_timestep 0

# Assign the force field
pair_style reaxff NULL safezone 3.0 mincap 150
# pair_coeff * * CHONSSi.ff O Si
# pair_coeff * * CHOSiNa.ff O Si
# pair_coeff * * SiOCHN_2018.ff O Si
# pair_coeff * * PDMSDecomp.ff Si O
pair_coeff * * CHONSi.ff C H O Si
# pair_coeff * * CHOFe.ff O Si

# charge method for reaxff
fix myqeq all qeq/reaxff 1 0.0 10.0 1.0e-6 reaxff maxiter 400
# Setup neighbor style
neighbor        2 bin
neigh_modify    every 10 delay 0 check no

# Setup output
thermo		${nthermo}
thermo		100
thermo_style custom step temp pe press vol lx ly lz
# thermo_style custom step vol lx ly lz yz xz xy
thermo_modify norm no
# thermo_modify line multi

# Sample pressure (and length vector)
fix avgp all ave/time  ${nevery} ${nrepeat} ${nfreq} c_thermo_press mode vector
fix avgp all ave/time  10 ${nrepeat} ${nfreq} c_thermo_press mode vector
fix avgp all ave/time  10 10 ${nfreq} c_thermo_press mode vector
fix avgp all ave/time  10 10 100 c_thermo_press mode vector
# variable lx equal lx
# variable ly equal ly
# variable lz equal lz
# fix avgl all ave/time  ${nevery} ${nrepeat} ${nfreq} v_lx v_ly v_lz

# nvt
fix fnvt all nvt temp ${temp} ${temp} ${tdamp}
fix fnvt all nvt temp 300 ${temp} ${tdamp}
fix fnvt all nvt temp 300 300 ${tdamp}
fix fnvt all nvt temp 300 300 50

if "$(is_defined(fix,avgp))" then "unfix avgp"
unfix avgp
if "$(is_defined(fix,avgl))" then "unfix avgl"
thermo_style custom step temp pe press density vol
WARNING: New thermo_style command, previous thermo_modify settings will be lost (src/output.cpp:903)
run ${nequil}
run 5000

CITE-CITE-CITE-CITE-CITE-CITE-CITE-CITE-CITE-CITE-CITE-CITE-CITE

Your simulation uses code contributions which should be cited:

- pair reaxff command: doi:10.1016/j.parco.2011.08.005

@Article{Aktulga12,
 author = {H. M. Aktulga and J. C. Fogarty and S. A. Pandit and A. Y. Grama},
 title = {Parallel Reactive Molecular Dynamics: {N}umerical Methods and Algorithmic Techniques},
 journal = {Parallel Computing},
 year =    2012,
 volume =  38,
 number =  {4--5},
 pages =   {245--259}
}

- fix qeq/reaxff command: doi:10.1016/j.parco.2011.08.005

@Article{Aktulga12,
 author = {H. M. Aktulga and J. C. Fogarty and S. A. Pandit and A. Y. Grama},
 title = {Parallel Reactive Molecular Dynamics: {N}umerical Methods and Algorithmic Techniques},
 journal = {Parallel Computing},
 year =    2012,
 volume =  38,
 pages =   {245--259}
}

CITE-CITE-CITE-CITE-CITE-CITE-CITE-CITE-CITE-CITE-CITE-CITE-CITE

WARNING: Fix qeq/reaxff group is not charge neutral, net charge = -10.66 (src/REAXFF/fix_qeq_reaxff.cpp:392)
Neighbor list info ...
  update: every = 10 steps, delay = 0 steps, check = no
  max neighbors/atom: 2000, page size: 100000
  master list distance cutoff = 12
  ghost atom cutoff = 12
  binsize = 6, bins = 4 3 3
  2 neighbor lists, perpetual/occasional/extra = 2 0 0
  (1) pair reaxff, perpetual
      attributes: half, newton off, ghost
      pair build: half/bin/newtoff/ghost
      stencil: full/ghost/bin/3d
      bin: standard
  (2) fix qeq/reaxff, perpetual, copy from (1)
      attributes: half, newton off
      pair build: copy
      stencil: none
      bin: none
Per MPI rank memory allocation (min/avg/max) = 122.2 | 123.4 | 124.7 Mbytes
   Step          Temp          PotEng         Press         Density         Volume    
         0   300           -39436.432      138394.29      1.7278661      3758.8201    
       100   727.72694     -40293.204     -25486.886      1.7278661      3758.8201    
       200   598.70825     -40608.063     -20042.47       1.7278661      3758.8201    
       300   448.08153     -40775.317     -8719.4702      1.7278661      3758.8201    
       400   368.07576     -40916.064      12042.815      1.7278661      3758.8201    
       500   323.74279     -41017.02       5264.1982      1.7278661      3758.8201    
       600   292.42643     -41079.333     -9613.6408      1.7278661      3758.8201    
       700   280.08727     -41117.333     -3802.0268      1.7278661      3758.8201    
       800   268.90731     -41110.232     -13437.613      1.7278661      3758.8201    
       900   319.17604     -41127.933     -3878.1757      1.7278661      3758.8201    
      1000   313.85132     -41097.112     -12021.215      1.7278661      3758.8201    
      1100   297.80969     -41081.579      591.86918      1.7278661      3758.8201    
      1200   306.37949     -41113.974     -11363.523      1.7278661      3758.8201    
      1300   289.63524     -41124.704     -20535.279      1.7278661      3758.8201    
      1400   304.07464     -41146.229     -7746.2702      1.7278661      3758.8201    
      1500   306.29072     -41133.388     -2623.9505      1.7278661      3758.8201    
      1600   311.25329     -41114.363     -13340.379      1.7278661      3758.8201    
      1700   332.68075     -41130.152     -10184.373      1.7278661      3758.8201    
      1800   314.58786     -41139.559     -8919.2577      1.7278661      3758.8201    
      1900   279.07015     -41133.25      -1530.5775      1.7278661      3758.8201    
      2000   280.41135     -41139.933     -9024.6146      1.7278661      3758.8201    
      2100   303.63133     -41142.077     -4542.2177      1.7278661      3758.8201    
      2200   317.77941     -41133.579     -10072.475      1.7278661      3758.8201    
      2300   306.53749     -41119.342      2072.9476      1.7278661      3758.8201    
      2400   305.02057     -41135.935     -1116.6651      1.7278661      3758.8201    
      2500   300.58531     -41152.233     -6429.0853      1.7278661      3758.8201    
      2600   286.38545     -41144.478      1213.3547      1.7278661      3758.8201    
      2700   288.34425     -41134.461     -7970.2447      1.7278661      3758.8201    
      2800   314.78606     -41141.832      107.37236      1.7278661      3758.8201    
      2900   303.64746     -41134.267     -2626.4138      1.7278661      3758.8201    
      3000   289.07373     -41130.871     -12463.225      1.7278661      3758.8201    
      3100   300.38045     -41133.827     -5337.1393      1.7278661      3758.8201    
      3200   315.54145     -41133.07      -1149.8075      1.7278661      3758.8201    
      3300   286.8497      -41113.732     -11649.172      1.7278661      3758.8201    
      3400   289.03842     -41143.995     -16007.242      1.7278661      3758.8201    
      3500   282.2079      -41149.458     -9980.5624      1.7278661      3758.8201    
      3600   288.78748     -41149.707     -2376.8828      1.7278661      3758.8201    
      3700   287.06854     -41128.144     -3392.4589      1.7278661      3758.8201    
      3800   301.64214     -41116.82      -8404.678       1.7278661      3758.8201    
      3900   312.73064     -41122.635     -5645.3576      1.7278661      3758.8201    
      4000   305.50163     -41134.754     -15359.643      1.7278661      3758.8201    
      4100   286.27913     -41133.978     -6168.0629      1.7278661      3758.8201    
      4200   290.83643     -41143.353     -7294.5098      1.7278661      3758.8201    
      4300   303.06383     -41142.635     -2669.4766      1.7278661      3758.8201    
      4400   313.39461     -41135.584     -1540.4279      1.7278661      3758.8201    
      4500   293.52904     -41109.21      -10064.498      1.7278661      3758.8201    
      4600   316.55654     -41137.301     -8541.8152      1.7278661      3758.8201    
      4700   290.69209     -41132.252     -10977.88       1.7278661      3758.8201    
      4800   290.49621     -41147.512     -8332.7452      1.7278661      3758.8201    
      4900   288.5505      -41147.925      1042.2228      1.7278661      3758.8201    
      5000   297.5373      -41137.034     -14475.576      1.7278661      3758.8201    
Loop time of 244.641 on 8 procs for 5000 steps with 350 atoms

Performance: 0.883 ns/day, 27.182 hours/ns, 20.438 timesteps/s, 7.153 katom-step/s
98.9% CPU use with 8 MPI tasks x 1 OpenMP threads

MPI task timing breakdown:
Section |  min time  |  avg time  |  max time  |%varavg| %total
---------------------------------------------------------------
Pair    | 196.68     | 201.33     | 204.75     |  20.6 | 82.29
Bond    | 0.0018496  | 0.0020773  | 0.0023939  |   0.4 |  0.00
Neigh   | 15.966     | 16.369     | 16.67      |   6.1 |  6.69
Comm    | 3.6514     | 7.0802     | 11.731     | 110.2 |  2.89
Output  | 0.0030971  | 0.003344   | 0.0046445  |   0.9 |  0.00
Modify  | 19.446     | 19.75      | 20.156     |   5.6 |  8.07
Other   |            | 0.1097     |            |       |  0.04

Nlocal:          43.75 ave          53 max          37 min
Histogram: 1 1 0 2 1 1 1 0 0 1
Nghost:         3154.5 ave        3209 max        3104 min
Histogram: 2 0 1 1 0 0 1 1 1 1
Neighs:          28499 ave       34098 max       24485 min
Histogram: 1 1 1 1 2 0 1 0 0 1

Total # of neighbors = 227992
Ave neighs/atom = 651.40571
Ave special neighs/atom = 0
Neighbor list builds = 500
Dangerous builds not checked
# Save the equilibrated structure
write_data ${structure}_eq.data
write_data 333U-50C-20-vasp_eq.data
System init for write_data ...

# use tmp to save initial length and tilt
variable tmp equal lx
variable lx0 equal ${tmp}
variable lx0 equal 15.2382
variable tmp equal ly
variable ly0 equal ${tmp}
variable ly0 equal 14.5028
variable tmp equal lz
variable lz0 equal ${tmp}
variable lz0 equal 17.0085

variable tmp equal yz
variable yz0 equal ${tmp}
variable yz0 equal -0.642
variable tmp equal xz
variable xz0 equal ${tmp}
variable xz0 equal -0.4482
variable tmp equal xy
variable xy0 equal ${tmp}
variable xy0 equal -6.2627

# Write restart
write_restart equil.res
System init for write_restart ...

# dir: direction
# uxx Perturbation
variable dir equal 1
include displace.mod.lmp
# # Find which reference length to use
# if "${dir} == 1" then #    "variable len0 equal ${lx0}"
# if "${dir} == 2" then #    "variable len0 equal ${ly0}"
# if "${dir} == 3" then #    "variable len0 equal ${lz0}"
# if "${dir} == 4" then #    "variable len0 equal ${lz0}"
# if "${dir} == 5" then #    "variable len0 equal ${lz0}"
# if "${dir} == 6" then #    "variable len0 equal ${ly0}"

# Find which length (epsilon) to calculate
if "${dir} == 1" then    "variable len0 equal ${lx0}"    "variable dlen equal lx-${len0}"
variable len0 equal ${lx0}
variable len0 equal 15.2382
variable dlen equal lx-${len0}
variable dlen equal lx-15.2382
if "${dir} == 2" then    "variable len0 equal ${ly0}"    "variable dlen equal ly-${len0}"
if "${dir} == 3" then    "variable len0 equal ${lz0}"    "variable dlen equal lz-${len0}"
if "${dir} == 4" then    "variable len0 equal ${lx0}"    "variable dlen equal 2*(yz-${yz0})"
if "${dir} == 5" then    "variable len0 equal ${ly0}"    "variable dlen equal 2*(xz-${xz0})"
if "${dir} == 6" then    "variable len0 equal ${lz0}"    "variable dlen equal 2*(xy-${xy0})"

# strain vector (epsilon)
variable eps equal v_dlen/v_len0

# stress vector (sigma)
variable sig1 equal -f_avgp[1]*${ufac}
variable sig1 equal -f_avgp[1]*0.000101325
variable sig2 equal -f_avgp[2]*${ufac}
variable sig2 equal -f_avgp[2]*0.000101325
variable sig3 equal -f_avgp[3]*${ufac}
variable sig3 equal -f_avgp[3]*0.000101325
variable sig4 equal -f_avgp[6]*${ufac}
variable sig4 equal -f_avgp[6]*0.000101325
variable sig5 equal -f_avgp[5]*${ufac}
variable sig5 equal -f_avgp[5]*0.000101325
variable sig6 equal -f_avgp[4]*${ufac}
variable sig6 equal -f_avgp[4]*0.000101325

# Reset box and simulation parameters
clear
OMP_NUM_THREADS environment is not set. Defaulting to 1 thread. (src/comm.cpp:98)
  using 1 OpenMP thread(s) per MPI task
# box tilt large
read_restart equil.res
Reading restart file ...
  restart file = 2 Aug 2023, LAMMPS = 2 Aug 2023
  restoring atom style full from restart
  triclinic box = (0 0 0) to (15.2382 14.5028 17.0085) with tilt (-6.2627 -0.4482 -0.642)
  2 by 2 by 2 MPI processor grid
  pair style reaxff stores no restart info
  350 atoms
Finding 1-2 1-3 1-4 neighbors ...
  special bond factors lj:    0        0        0       
  special bond factors coul:  0        0        0       
     0 = max # of 1-2 neighbors
     0 = max # of 1-3 neighbors
     0 = max # of 1-4 neighbors
     1 = max # of special neighbors
  special bonds CPU = 0.000 seconds
  read_restart CPU = 0.003 seconds

# Negative deformation
variable delta equal -${up}*${len0}
variable delta equal -0.1*${len0}
variable delta equal -0.1*15.2382
variable deltaxy equal -${up}*xy
variable deltaxy equal -0.1*xy
variable deltaxz equal -${up}*xz
variable deltaxz equal -0.1*xz
variable deltayz equal -${up}*yz
variable deltayz equal -0.1*yz
print "*****debug*****"
*****debug*****
print "xy = $(xy), deltaxy = ${deltaxy}"
xy = -6.2626999999999997115, deltaxy = 0.62627
print "xz = $(xz), deltaxz = ${deltaxz}"
xz = -0.4481999999999999873, deltaxz = 0.04482
print "yz = $(yz), deltayz = ${deltayz}"
yz = -0.6420000000000000151, deltayz = 0.0642
print "*****"
*****

if "${dir} == 1" then    "fix deform_n all deform ${nthermo} x delta 0 ${delta} xy delta ${deltaxy} xz delta ${deltaxz} remap v units box flip no"
fix deform_n all deform ${nthermo} x delta 0 ${delta} xy delta ${deltaxy} xz delta ${deltaxz} remap v units box flip no
fix deform_n all deform 100 x delta 0 ${delta} xy delta ${deltaxy} xz delta ${deltaxz} remap v units box flip no
fix deform_n all deform 100 x delta 0 -1.52382 xy delta ${deltaxy} xz delta ${deltaxz} remap v units box flip no
fix deform_n all deform 100 x delta 0 -1.52382 xy delta 0.62627 xz delta ${deltaxz} remap v units box flip no
fix deform_n all deform 100 x delta 0 -1.52382 xy delta 0.62627 xz delta 0.04482 remap v units box flip no
if "${dir} == 2" then    "fix deform_n all deform ${nthermo} y delta 0 ${delta} yz delta ${deltayz} remap v units box flip no"
if "${dir} == 3" then    "fix deform_n all deform ${nthermo} z delta 0 ${delta} remap v units box flip no"
if "${dir} == 4" then    "fix deform_n all deform ${nthermo} yz delta ${delta} remap v units box flip no"
if "${dir} == 5" then    "fix deform_n all deform ${nthermo} xz delta ${delta} remap v units box flip no"
if "${dir} == 6" then    "fix deform_n all deform ${nthermo} xy delta ${delta} remap v units box flip no"

# Run MD for Negative deformation
print "*****Negative-deform ${dir} starts.*****"
*****Negative-deform 1 starts.*****
include ff.mod.lmp
# Setup forcefield, system
# undefine any fix ave/* fix before using reset_timestep
if "$(is_defined(fix,avgp))" then "unfix avgp"
if "$(is_defined(fix,avgl))" then "unfix avgl"
reset_timestep 0

# Assign the force field
pair_style reaxff NULL safezone 3.0 mincap 150
# pair_coeff * * CHONSSi.ff O Si
# pair_coeff * * CHOSiNa.ff O Si
# pair_coeff * * SiOCHN_2018.ff O Si
# pair_coeff * * PDMSDecomp.ff Si O
pair_coeff * * CHONSi.ff C H O Si
# pair_coeff * * CHOFe.ff O Si

# charge method for reaxff
fix myqeq all qeq/reaxff 1 0.0 10.0 1.0e-6 reaxff maxiter 400
# Setup neighbor style
neighbor        2 bin
neigh_modify    every 10 delay 0 check no

# Setup output
thermo		${nthermo}
thermo		100
thermo_style custom step temp pe press vol lx ly lz
# thermo_style custom step vol lx ly lz yz xz xy
thermo_modify norm no
# thermo_modify line multi

# Sample pressure (and length vector)
fix avgp all ave/time  ${nevery} ${nrepeat} ${nfreq} c_thermo_press mode vector
fix avgp all ave/time  10 ${nrepeat} ${nfreq} c_thermo_press mode vector
fix avgp all ave/time  10 10 ${nfreq} c_thermo_press mode vector
fix avgp all ave/time  10 10 100 c_thermo_press mode vector
# variable lx equal lx
# variable ly equal ly
# variable lz equal lz
# fix avgl all ave/time  ${nevery} ${nrepeat} ${nfreq} v_lx v_ly v_lz

# nvt
fix fnvt all nvt temp ${temp} ${temp} ${tdamp}
fix fnvt all nvt temp 300 ${temp} ${tdamp}
fix fnvt all nvt temp 300 300 ${tdamp}
fix fnvt all nvt temp 300 300 50
Resetting global fix info from restart file:
  fix style: nvt, fix ID: fnvt


# Save stress, strain to "./stress_strain/stress_strain.neg${dir}.out"
print "# Stress and strain vectors, ${structure}, negative deformation ${dir}"       file stress_strain/stress_strain.neg${dir}.out screen no
print "# Stress and strain vectors, ${structure}, negative deformation ${dir}"       file stress_strain/stress_strain.neg1.out screen no
fix data all print ${nfreq} "${eps} ${sig1} ${sig2} ${sig3} ${sig4} ${sig5} ${sig6}"       append stress_strain/stress_strain.neg${dir}.out screen no       title "# eps sig1 sig2 sig3 sig4 sig5 sig6"
fix data all print 100 "${eps} ${sig1} ${sig2} ${sig3} ${sig4} ${sig5} ${sig6}"       append stress_strain/stress_strain.neg${dir}.out screen no       title "# eps sig1 sig2 sig3 sig4 sig5 sig6"
fix data all print 100 "${eps} ${sig1} ${sig2} ${sig3} ${sig4} ${sig5} ${sig6}"       append stress_strain/stress_strain.neg1.out screen no       title "# eps sig1 sig2 sig3 sig4 sig5 sig6"

# save trajectory
# if "$(is_defined(dump,dump_neg${dir1}))" then "undump dump_neg${dir1}"
dump dump_neg${dir} all custom ${nthermo} dump/neg_deform${dir}.lammpstrj id type q x y z
dump dump_neg1 all custom ${nthermo} dump/neg_deform${dir}.lammpstrj id type q x y z
dump dump_neg1 all custom 100 dump/neg_deform${dir}.lammpstrj id type q x y z
dump dump_neg1 all custom 100 dump/neg_deform1.lammpstrj id type q x y z
# variable dir1 equal ${dir}
run ${nrun}
run 5000
All restart file global fix info was re-assigned
Neighbor list info ...
  update: every = 10 steps, delay = 0 steps, check = no
  max neighbors/atom: 2000, page size: 100000
  master list distance cutoff = 12
  ghost atom cutoff = 12
  binsize = 6, bins = 4 3 3
  2 neighbor lists, perpetual/occasional/extra = 2 0 0
  (1) pair reaxff, perpetual
      attributes: half, newton off, ghost
      pair build: half/bin/newtoff/ghost
      stencil: full/ghost/bin/3d
      bin: standard
  (2) fix qeq/reaxff, perpetual, copy from (1)
      attributes: half, newton off
      pair build: copy
      stencil: none
      bin: none
Per MPI rank memory allocation (min/avg/max) = 120.9 | 122.9 | 124.9 Mbytes
   Step          Temp          PotEng         Press          Volume           Lx             Ly             Lz      
         0   297.5373      -41137.034     -14475.629      3758.8201      15.2382        14.5028        17.0085      
       100   301.89306     -41120.748     -12553.857      3751.3025      15.207724      14.5028        17.0085      
       200   287.95192     -41113.958     -13723.362      3743.7848      15.177247      14.5028        17.0085      
       300   303.03186     -41152.488     -6387.3575      3736.2672      15.146771      14.5028        17.0085      
       400   302.92328     -41158.281     -15586.781      3728.7495      15.116294      14.5028        17.0085      
       500   296.71445     -41154.116     -1016.1584      3721.2319      15.085818      14.5028        17.0085      
       600   322.04737     -41179.292     -7347.317       3713.7143      15.055342      14.5028        17.0085      
       700   273.88689     -41154.555      3892.1582      3706.1966      15.024865      14.5028        17.0085      
       800   290.22223     -41163.903     -17521.028      3698.679       14.994389      14.5028        17.0085      
       900   306.53003     -41169.996     -4682.214       3691.1613      14.963912      14.5028        17.0085      
      1000   295.13041     -41150.16      -9000.6751      3683.6437      14.933436      14.5028        17.0085      
      1100   297.70724     -41148.077      4564.0133      3676.1261      14.90296       14.5028        17.0085      
      1200   307.24559     -41154.832     -10231.756      3668.6084      14.872483      14.5028        17.0085      
      1300   309.04736     -41171.301     -11174.451      3661.0908      14.842007      14.5028        17.0085      
      1400   315.41753     -41182.615      4629.5521      3653.5731      14.81153       14.5028        17.0085      
      1500   300.39301     -41169.816     -1746.8245      3646.0555      14.781054      14.5028        17.0085      
      1600   313.14213     -41179.606      392.6874       3638.5379      14.750578      14.5028        17.0085      
      1700   287.74201     -41163.485     -15871.658      3631.0202      14.720101      14.5028        17.0085      
      1800   272.6745      -41176.222      2871.4752      3623.5026      14.689625      14.5028        17.0085      
      1900   293.55924     -41201.495      16557.442      3615.9849      14.659148      14.5028        17.0085      
      2000   288.52217     -41167.728     -861.87905      3608.4673      14.628672      14.5028        17.0085      
      2100   338.31097     -41197.516      7182.7378      3600.9497      14.598196      14.5028        17.0085      
      2200   291.12161     -41150.196      4619.1092      3593.432       14.567719      14.5028        17.0085      
      2300   304.47091     -41181.34       24844.756      3585.9144      14.537243      14.5028        17.0085      
      2400   283.71179     -41179.7       -2987.4594      3578.3967      14.506766      14.5028        17.0085      
      2500   277.38483     -41160.381      7147.0032      3570.8791      14.47629       14.5028        17.0085      
      2600   320.37801     -41173.085      23711.862      3563.3615      14.445814      14.5028        17.0085      
      2700   317.68242     -41157.352      2257.1875      3555.8438      14.415337      14.5028        17.0085      
      2800   318.91138     -41163.388      13186.844      3548.3262      14.384861      14.5028        17.0085      
      2900   291.76836     -41160.479      10505.797      3540.8085      14.354384      14.5028        17.0085      
      3000   294.87734     -41157.9        14359.004      3533.2909      14.323908      14.5028        17.0085      
      3100   292.16586     -41133.746      2828.2482      3525.7733      14.293432      14.5028        17.0085      
      3200   332.22159     -41145.669      16847.249      3518.2556      14.262955      14.5028        17.0085      
      3300   310.485       -41124.197      22593.523      3510.738       14.232479      14.5028        17.0085      
      3400   305.60716     -41146.176      13723.657      3503.2203      14.202002      14.5028        17.0085      
      3500   314.53634     -41152.985      29516.375      3495.7027      14.171526      14.5028        17.0085      
      3600   305.66906     -41152.063      6127.6879      3488.1851      14.14105       14.5028        17.0085      
      3700   306.78805     -41166.068      26632.617      3480.6674      14.110573      14.5028        17.0085      
      3800   292.4252      -41152.126      19442.252      3473.1498      14.080097      14.5028        17.0085      
      3900   294.8496      -41165.872      13539.091      3465.6321      14.04962       14.5028        17.0085      
      4000   284.07149     -41167.41       20618.685      3458.1145      14.019144      14.5028        17.0085      
      4100   298.22067     -41152.749      13579.711      3450.5969      13.988668      14.5028        17.0085      
      4200   316.03512     -41132.402      7926.6035      3443.0792      13.958191      14.5028        17.0085      
      4300   301.88547     -41115.82       18671.168      3435.5616      13.927715      14.5028        17.0085      
      4400   313.17514     -41125.579      4921.0943      3428.0439      13.897238      14.5028        17.0085      
      4500   305.11038     -41126.91       28001.769      3420.5263      13.866762      14.5028        17.0085      
      4600   302.68745     -41114.399      22016.606      3413.0087      13.836286      14.5028        17.0085      
      4700   306.57168     -41111.406      27212.795      3405.491       13.805809      14.5028        17.0085      
      4800   286.3714      -41095.194      34569.868      3397.9734      13.775333      14.5028        17.0085      
      4900   309.32374     -41123.302      22712.101      3390.4557      13.744856      14.5028        17.0085      
      5000   291.83514     -41105.764      33503.073      3382.9381      13.71438       14.5028        17.0085      
Loop time of 267.267 on 8 procs for 5000 steps with 350 atoms

Performance: 0.808 ns/day, 29.696 hours/ns, 18.708 timesteps/s, 6.548 katom-step/s
98.7% CPU use with 8 MPI tasks x 1 OpenMP threads

MPI task timing breakdown:
Section |  min time  |  avg time  |  max time  |%varavg| %total
---------------------------------------------------------------
Pair    | 204.26     | 214.28     | 222.76     |  39.1 | 80.17
Bond    | 0.0018579  | 0.0020664  | 0.0024344  |   0.4 |  0.00
Neigh   | 16.015     | 16.858     | 17.667     |  13.3 |  6.31
Comm    | 4.6217     | 13.096     | 23.093     | 158.1 |  4.90
Output  | 0.017021   | 0.019613   | 0.021419   |   1.1 |  0.01
Modify  | 22.086     | 22.898     | 23.72      |  11.3 |  8.57
Other   |            | 0.113      |            |       |  0.04

Nlocal:          43.75 ave          49 max          37 min
Histogram: 1 1 0 1 1 0 0 1 1 2
Nghost:           3403 ave        3455 max        3349 min
Histogram: 1 2 1 0 0 0 0 1 2 1
Neighs:        31662.4 ave       35238 max       27135 min
Histogram: 1 1 1 0 1 0 0 1 1 2

Total # of neighbors = 253299
Ave neighs/atom = 723.71143
Ave special neighs/atom = 0
Neighbor list builds = 500
Dangerous builds not checked
unfix deform_n
unfix data
undump dump_neg${dir}
undump dump_neg1

# Compute elastic constant from pressure
# d1 = -[pxx1-pxx0]/[(v_delta/v_len0] defined in input script
# variable C1neg equal ${d1}
# variable C2neg equal ${d2}
# variable C3neg equal ${d3}
# variable C4neg equal ${d4}
# variable C5neg equal ${d5}
# variable C6neg equal ${d6}

# Reset box and simulation parameters
clear
OMP_NUM_THREADS environment is not set. Defaulting to 1 thread. (src/comm.cpp:98)
  using 1 OpenMP thread(s) per MPI task
# box tilt large
read_restart equil.res
Reading restart file ...
  restart file = 2 Aug 2023, LAMMPS = 2 Aug 2023
  restoring atom style full from restart
  triclinic box = (0 0 0) to (15.2382 14.5028 17.0085) with tilt (-6.2627 -0.4482 -0.642)
  2 by 2 by 2 MPI processor grid
  pair style reaxff stores no restart info
  350 atoms
Finding 1-2 1-3 1-4 neighbors ...
  special bond factors lj:    0        0        0       
  special bond factors coul:  0        0        0       
     0 = max # of 1-2 neighbors
     0 = max # of 1-3 neighbors
     0 = max # of 1-4 neighbors
     1 = max # of special neighbors
  special bonds CPU = 0.000 seconds
  read_restart CPU = 0.003 seconds

# Positive deformation
variable delta equal ${up}*${len0}
variable delta equal 0.1*${len0}
variable delta equal 0.1*15.2382
variable deltaxy equal ${up}*xy
variable deltaxy equal 0.1*xy
variable deltaxz equal ${up}*xz
variable deltaxz equal 0.1*xz
variable deltayz equal ${up}*yz
variable deltayz equal 0.1*yz
if "${dir} == 1" then    "fix deform_p all deform ${nthermo} x delta 0 ${delta} xy delta ${deltaxy} xz delta ${deltaxz} remap v units box"
fix deform_p all deform ${nthermo} x delta 0 ${delta} xy delta ${deltaxy} xz delta ${deltaxz} remap v units box
fix deform_p all deform 100 x delta 0 ${delta} xy delta ${deltaxy} xz delta ${deltaxz} remap v units box
fix deform_p all deform 100 x delta 0 1.52382 xy delta ${deltaxy} xz delta ${deltaxz} remap v units box
fix deform_p all deform 100 x delta 0 1.52382 xy delta -0.62627 xz delta ${deltaxz} remap v units box
fix deform_p all deform 100 x delta 0 1.52382 xy delta -0.62627 xz delta -0.04482 remap v units box
if "${dir} == 2" then    "fix deform_p all deform ${nthermo} y delta 0 ${delta} yz delta ${deltayz} remap v units box"
if "${dir} == 3" then    "fix deform_p all deform ${nthermo} z delta 0 ${delta} remap v units box"
if "${dir} == 4" then    "fix deform_p all deform ${nthermo} yz delta ${delta} remap v units box"
if "${dir} == 5" then    "fix deform_p all deform ${nthermo} xz delta ${delta} remap v units box"
if "${dir} == 6" then    "fix deform_p all deform ${nthermo} xy delta ${delta} remap v units box"

# Run deformation MD
print "*****Positive-deform ${dir} starts.*****"
*****Positive-deform 1 starts.*****
include ff.mod.lmp
# Setup forcefield, system
# undefine any fix ave/* fix before using reset_timestep
if "$(is_defined(fix,avgp))" then "unfix avgp"
if "$(is_defined(fix,avgl))" then "unfix avgl"
reset_timestep 0

# Assign the force field
pair_style reaxff NULL safezone 3.0 mincap 150
# pair_coeff * * CHONSSi.ff O Si
# pair_coeff * * CHOSiNa.ff O Si
# pair_coeff * * SiOCHN_2018.ff O Si
# pair_coeff * * PDMSDecomp.ff Si O
pair_coeff * * CHONSi.ff C H O Si
# pair_coeff * * CHOFe.ff O Si

# charge method for reaxff
fix myqeq all qeq/reaxff 1 0.0 10.0 1.0e-6 reaxff maxiter 400
# Setup neighbor style
neighbor        2 bin
neigh_modify    every 10 delay 0 check no

# Setup output
thermo		${nthermo}
thermo		100
thermo_style custom step temp pe press vol lx ly lz
# thermo_style custom step vol lx ly lz yz xz xy
thermo_modify norm no
# thermo_modify line multi

# Sample pressure (and length vector)
fix avgp all ave/time  ${nevery} ${nrepeat} ${nfreq} c_thermo_press mode vector
fix avgp all ave/time  10 ${nrepeat} ${nfreq} c_thermo_press mode vector
fix avgp all ave/time  10 10 ${nfreq} c_thermo_press mode vector
fix avgp all ave/time  10 10 100 c_thermo_press mode vector
# variable lx equal lx
# variable ly equal ly
# variable lz equal lz
# fix avgl all ave/time  ${nevery} ${nrepeat} ${nfreq} v_lx v_ly v_lz

# nvt
fix fnvt all nvt temp ${temp} ${temp} ${tdamp}
fix fnvt all nvt temp 300 ${temp} ${tdamp}
fix fnvt all nvt temp 300 300 ${tdamp}
fix fnvt all nvt temp 300 300 50
Resetting global fix info from restart file:
  fix style: nvt, fix ID: fnvt


# Save stress, strain to "./stress_strain/stress_strain.pos${dir}.out"
print "# Stress and strain vectors, ${structure}, positive deformation ${dir}"       file stress_strain/stress_strain.pos${dir}.out screen no
print "# Stress and strain vectors, ${structure}, positive deformation ${dir}"       file stress_strain/stress_strain.pos1.out screen no
fix data all print ${nfreq} "${eps} ${sig1} ${sig2} ${sig3} ${sig4} ${sig5} ${sig6}"       append stress_strain/stress_strain.pos${dir}.out screen no       title "# eps sig1 sig2 sig3 sig4 sig5 sig6"
fix data all print 100 "${eps} ${sig1} ${sig2} ${sig3} ${sig4} ${sig5} ${sig6}"       append stress_strain/stress_strain.pos${dir}.out screen no       title "# eps sig1 sig2 sig3 sig4 sig5 sig6"
fix data all print 100 "${eps} ${sig1} ${sig2} ${sig3} ${sig4} ${sig5} ${sig6}"       append stress_strain/stress_strain.pos1.out screen no       title "# eps sig1 sig2 sig3 sig4 sig5 sig6"

# save trajectory
# if "$(is_defined(dump,dump_pos${dir1}))" then "undump dump_pos${dir1}"
dump dump_pos${dir} all custom ${nthermo} dump/pos_deform${dir}.lammpstrj id type q x y z
dump dump_pos1 all custom ${nthermo} dump/pos_deform${dir}.lammpstrj id type q x y z
dump dump_pos1 all custom 100 dump/pos_deform${dir}.lammpstrj id type q x y z
dump dump_pos1 all custom 100 dump/pos_deform1.lammpstrj id type q x y z
run ${nrun}
run 5000
All restart file global fix info was re-assigned
Neighbor list info ...
  update: every = 10 steps, delay = 0 steps, check = no
  max neighbors/atom: 2000, page size: 100000
  master list distance cutoff = 12
  ghost atom cutoff = 12
  binsize = 6, bins = 4 3 3
  2 neighbor lists, perpetual/occasional/extra = 2 0 0
  (1) pair reaxff, perpetual
      attributes: half, newton off, ghost
      pair build: half/bin/newtoff/ghost
      stencil: full/ghost/bin/3d
      bin: standard
  (2) fix qeq/reaxff, perpetual, copy from (1)
      attributes: half, newton off
      pair build: copy
      stencil: none
      bin: none
Per MPI rank memory allocation (min/avg/max) = 121 | 122.9 | 125 Mbytes
   Step          Temp          PotEng         Press          Volume           Lx             Ly             Lz      
         0   297.5373      -41137.034     -14475.629      3758.8201      15.2382        14.5028        17.0085      
       100   301.99939     -41120.707     -12583.633      3766.3377      15.268676      14.5028        17.0085      
       200   286.57518     -41117.484     -16046.574      3773.8554      15.299153      14.5028        17.0085      
       300   309.59035     -41164.069     -6205.5214      3781.373       15.329629      14.5028        17.0085      
       400   306.22904     -41161.279     -17827.621      3788.8907      15.360106      14.5028        17.0085      
       500   300.46315     -41145.498     -17683.705      3796.4083      15.390582      14.5028        17.0085      
       600   300.79313     -41138.822     -7830.3368      3803.926       15.421058      14.5028        17.0085      
       700   288.56813     -41129.519     -18477.2        3811.4436      15.451535      14.5028        17.0085      
       800   290.76641     -41145.562     -24451.384      3818.9612      15.482011      14.5028        17.0085      
       900   281.81106     -41143.855     -11741.412      3826.4789      15.512488      14.5028        17.0085      
      1000   300.91112     -41138.943     -9218.1383      3833.9965      15.542964      14.5028        17.0085      
      1100   317.87321     -41114.9       -18431.228      3841.5142      15.57344       14.5028        17.0085      
      1200   312.76007     -41111.18      -14905.7        3849.0318      15.603917      14.5028        17.0085      
      1300   293.76302     -41102.522     -8005.2016      3856.5494      15.634393      14.5028        17.0085      
      1400   299.42178     -41112.608     -22343.555      3864.0671      15.66487       14.5028        17.0085      
      1500   290.28991     -41112.09      -12184.499      3871.5847      15.695346      14.5028        17.0085      
      1600   296.72831     -41122.992     -23109.988      3879.1024      15.725822      14.5028        17.0085      
      1700   302.55768     -41113.516     -6493.166       3886.62        15.756299      14.5028        17.0085      
      1800   320.94501     -41090.091     -10044.143      3894.1376      15.786775      14.5028        17.0085      
      1900   337.78685     -41088.395     -29090.678      3901.6553      15.817252      14.5028        17.0085      
      2000   317.9314      -41094.57      -20108.152      3909.1729      15.847728      14.5028        17.0085      
      2100   307.36861     -41096.559     -17718.843      3916.6906      15.878204      14.5028        17.0085      
      2200   296.66698     -41097.371     -21471.916      3924.2082      15.908681      14.5028        17.0085      
      2300   311.059       -41126.187     -19203.777      3931.7258      15.939157      14.5028        17.0085      
      2400   293.21776     -41107.467     -24488.611      3939.2435      15.969634      14.5028        17.0085      
      2500   305.62123     -41109.41      -26005.161      3946.7611      16.00011       14.5028        17.0085      
      2600   292.28105     -41090.004     -6979.6544      3954.2788      16.030586      14.5028        17.0085      
      2700   302.12089     -41094.044     -19093.003      3961.7964      16.061063      14.5028        17.0085      
      2800   305.3366      -41111.309     -16970.281      3969.314       16.091539      14.5028        17.0085      
      2900   294.35884     -41097.679     -21131.28       3976.8317      16.122016      14.5028        17.0085      
      3000   305.74877     -41079.944     -19331.886      3984.3493      16.152492      14.5028        17.0085      
      3100   321.35759     -41080.354     -25908.881      3991.867       16.182968      14.5028        17.0085      
      3200   299.56523     -41081.991     -13678.938      3999.3846      16.213445      14.5028        17.0085      
      3300   293.31907     -41094.978     -19580.053      4006.9022      16.243921      14.5028        17.0085      
      3400   294.65302     -41106.762     -22001.924      4014.4199      16.274398      14.5028        17.0085      
      3500   288.25819     -41093.581     -31450.533      4021.9375      16.304874      14.5028        17.0085      
      3600   306.96023     -41097.137     -24803.811      4029.4552      16.33535       14.5028        17.0085      
      3700   319.92276     -41078.76      -23249.422      4036.9728      16.365827      14.5028        17.0085      
      3800   326.2622      -41082.361     -23964.936      4044.4904      16.396303      14.5028        17.0085      
      3900   286.58143     -41066.822     -16514.848      4052.0081      16.42678       14.5028        17.0085      
      4000   291.42426     -41069.991     -17806.991      4059.5257      16.457256      14.5028        17.0085      
      4100   294.12339     -41072.949     -14942.217      4067.0434      16.487732      14.5028        17.0085      
      4200   289.37114     -41076.598     -23497.289      4074.561       16.518209      14.5028        17.0085      
      4300   296.66175     -41090.314     -28155.958      4082.0786      16.548685      14.5028        17.0085      
      4400   268.77602     -41077.33      -35216.693      4089.5963      16.579162      14.5028        17.0085      
      4500   279.31272     -41069.766     -25714.234      4097.1139      16.609638      14.5028        17.0085      
      4600   295.42062     -41045.978     -36929.491      4104.6316      16.640114      14.5028        17.0085      
      4700   325.36302     -41058.495     -23349.432      4112.1492      16.670591      14.5028        17.0085      
      4800   302.12761     -41050.94      -18278.261      4119.6668      16.701067      14.5028        17.0085      
      4900   298.87622     -41059.933     -22742.097      4127.1845      16.731544      14.5028        17.0085      
      5000   298.09839     -41066.337     -27918.614      4134.7021      16.76202       14.5028        17.0085      
Loop time of 230.009 on 8 procs for 5000 steps with 350 atoms

Performance: 0.939 ns/day, 25.557 hours/ns, 21.738 timesteps/s, 7.608 katom-step/s
99.0% CPU use with 8 MPI tasks x 1 OpenMP threads

MPI task timing breakdown:
Section |  min time  |  avg time  |  max time  |%varavg| %total
---------------------------------------------------------------
Pair    | 131.35     | 181.07     | 191.42     | 141.0 | 78.72
Bond    | 0.0018282  | 0.0020174  | 0.0023984  |   0.4 |  0.00
Neigh   | 11.11      | 14.985     | 16.227     |  39.0 |  6.52
Comm    | 3.0002     | 13.355     | 63.08      | 519.3 |  5.81
Output  | 0.018283   | 0.020856   | 0.023338   |   1.2 |  0.01
Modify  | 19.236     | 20.471     | 24.35      |  33.3 |  8.90
Other   |            | 0.1101     |            |       |  0.05

Nlocal:          43.75 ave          53 max          35 min
Histogram: 2 0 0 1 0 3 0 0 1 1
Nghost:           2985 ave        3045 max        2934 min
Histogram: 1 1 1 2 0 0 1 0 1 1
Neighs:          25865 ave       31044 max       20756 min
Histogram: 2 0 0 0 1 3 0 0 1 1

Total # of neighbors = 206920
Ave neighs/atom = 591.2
Ave special neighs/atom = 0
Neighbor list builds = 500
Dangerous builds not checked
unfix deform_p
unfix data
undump dump_pos${dir}
undump dump_pos1

# # Combine positive and negative
# variable C1${dir} equal 0.5*(${C1neg}+${C1pos})
# variable C2${dir} equal 0.5*(${C2neg}+${C2pos})
# variable C3${dir} equal 0.5*(${C3neg}+${C3pos})
# variable C4${dir} equal 0.5*(${C4neg}+${C4pos})
# variable C5${dir} equal 0.5*(${C5neg}+${C5pos})
# variable C6${dir} equal 0.5*(${C6neg}+${C6pos})

# Delete dir to make sure it is not reused
variable dir delete
# uyy Perturbation
variable dir equal 2
include displace.mod.lmp
# # Find which reference length to use
# if "${dir} == 1" then #    "variable len0 equal ${lx0}"
# if "${dir} == 2" then #    "variable len0 equal ${ly0}"
# if "${dir} == 3" then #    "variable len0 equal ${lz0}"
# if "${dir} == 4" then #    "variable len0 equal ${lz0}"
# if "${dir} == 5" then #    "variable len0 equal ${lz0}"
# if "${dir} == 6" then #    "variable len0 equal ${ly0}"

# Find which length (epsilon) to calculate
if "${dir} == 1" then    "variable len0 equal ${lx0}"    "variable dlen equal lx-${len0}"
if "${dir} == 2" then    "variable len0 equal ${ly0}"    "variable dlen equal ly-${len0}"
variable len0 equal ${ly0}
variable len0 equal 14.5028
variable dlen equal ly-${len0}
variable dlen equal ly-14.5028
if "${dir} == 3" then    "variable len0 equal ${lz0}"    "variable dlen equal lz-${len0}"
if "${dir} == 4" then    "variable len0 equal ${lx0}"    "variable dlen equal 2*(yz-${yz0})"
if "${dir} == 5" then    "variable len0 equal ${ly0}"    "variable dlen equal 2*(xz-${xz0})"
if "${dir} == 6" then    "variable len0 equal ${lz0}"    "variable dlen equal 2*(xy-${xy0})"

# strain vector (epsilon)
variable eps equal v_dlen/v_len0

# stress vector (sigma)
variable sig1 equal -f_avgp[1]*${ufac}
variable sig1 equal -f_avgp[1]*0.000101325
variable sig2 equal -f_avgp[2]*${ufac}
variable sig2 equal -f_avgp[2]*0.000101325
variable sig3 equal -f_avgp[3]*${ufac}
variable sig3 equal -f_avgp[3]*0.000101325
variable sig4 equal -f_avgp[6]*${ufac}
variable sig4 equal -f_avgp[6]*0.000101325
variable sig5 equal -f_avgp[5]*${ufac}
variable sig5 equal -f_avgp[5]*0.000101325
variable sig6 equal -f_avgp[4]*${ufac}
variable sig6 equal -f_avgp[4]*0.000101325

# Reset box and simulation parameters
clear
OMP_NUM_THREADS environment is not set. Defaulting to 1 thread. (src/comm.cpp:98)
  using 1 OpenMP thread(s) per MPI task
# box tilt large
read_restart equil.res
Reading restart file ...
  restart file = 2 Aug 2023, LAMMPS = 2 Aug 2023
  restoring atom style full from restart
  triclinic box = (0 0 0) to (15.2382 14.5028 17.0085) with tilt (-6.2627 -0.4482 -0.642)
  2 by 2 by 2 MPI processor grid
  pair style reaxff stores no restart info
  350 atoms
Finding 1-2 1-3 1-4 neighbors ...
  special bond factors lj:    0        0        0       
  special bond factors coul:  0        0        0       
     0 = max # of 1-2 neighbors
     0 = max # of 1-3 neighbors
     0 = max # of 1-4 neighbors
     1 = max # of special neighbors
  special bonds CPU = 0.000 seconds
  read_restart CPU = 0.003 seconds

# Negative deformation
variable delta equal -${up}*${len0}
variable delta equal -0.1*${len0}
variable delta equal -0.1*14.5028
variable deltaxy equal -${up}*xy
variable deltaxy equal -0.1*xy
variable deltaxz equal -${up}*xz
variable deltaxz equal -0.1*xz
variable deltayz equal -${up}*yz
variable deltayz equal -0.1*yz
print "*****debug*****"
*****debug*****
print "xy = $(xy), deltaxy = ${deltaxy}"
xy = -6.2626999999999997115, deltaxy = 0.62627
print "xz = $(xz), deltaxz = ${deltaxz}"
xz = -0.4481999999999999873, deltaxz = 0.04482
print "yz = $(yz), deltayz = ${deltayz}"
yz = -0.6420000000000000151, deltayz = 0.0642
print "*****"
*****

if "${dir} == 1" then    "fix deform_n all deform ${nthermo} x delta 0 ${delta} xy delta ${deltaxy} xz delta ${deltaxz} remap v units box flip no"
if "${dir} == 2" then    "fix deform_n all deform ${nthermo} y delta 0 ${delta} yz delta ${deltayz} remap v units box flip no"
fix deform_n all deform ${nthermo} y delta 0 ${delta} yz delta ${deltayz} remap v units box flip no
fix deform_n all deform 100 y delta 0 ${delta} yz delta ${deltayz} remap v units box flip no
fix deform_n all deform 100 y delta 0 -1.45028 yz delta ${deltayz} remap v units box flip no
fix deform_n all deform 100 y delta 0 -1.45028 yz delta 0.0642 remap v units box flip no
if "${dir} == 3" then    "fix deform_n all deform ${nthermo} z delta 0 ${delta} remap v units box flip no"
if "${dir} == 4" then    "fix deform_n all deform ${nthermo} yz delta ${delta} remap v units box flip no"
if "${dir} == 5" then    "fix deform_n all deform ${nthermo} xz delta ${delta} remap v units box flip no"
if "${dir} == 6" then    "fix deform_n all deform ${nthermo} xy delta ${delta} remap v units box flip no"

# Run MD for Negative deformation
print "*****Negative-deform ${dir} starts.*****"
*****Negative-deform 2 starts.*****
include ff.mod.lmp
# Setup forcefield, system
# undefine any fix ave/* fix before using reset_timestep
if "$(is_defined(fix,avgp))" then "unfix avgp"
if "$(is_defined(fix,avgl))" then "unfix avgl"
reset_timestep 0

# Assign the force field
pair_style reaxff NULL safezone 3.0 mincap 150
# pair_coeff * * CHONSSi.ff O Si
# pair_coeff * * CHOSiNa.ff O Si
# pair_coeff * * SiOCHN_2018.ff O Si
# pair_coeff * * PDMSDecomp.ff Si O
pair_coeff * * CHONSi.ff C H O Si
# pair_coeff * * CHOFe.ff O Si

# charge method for reaxff
fix myqeq all qeq/reaxff 1 0.0 10.0 1.0e-6 reaxff maxiter 400
# Setup neighbor style
neighbor        2 bin
neigh_modify    every 10 delay 0 check no

# Setup output
thermo		${nthermo}
thermo		100
thermo_style custom step temp pe press vol lx ly lz
# thermo_style custom step vol lx ly lz yz xz xy
thermo_modify norm no
# thermo_modify line multi

# Sample pressure (and length vector)
fix avgp all ave/time  ${nevery} ${nrepeat} ${nfreq} c_thermo_press mode vector
fix avgp all ave/time  10 ${nrepeat} ${nfreq} c_thermo_press mode vector
fix avgp all ave/time  10 10 ${nfreq} c_thermo_press mode vector
fix avgp all ave/time  10 10 100 c_thermo_press mode vector
# variable lx equal lx
# variable ly equal ly
# variable lz equal lz
# fix avgl all ave/time  ${nevery} ${nrepeat} ${nfreq} v_lx v_ly v_lz

# nvt
fix fnvt all nvt temp ${temp} ${temp} ${tdamp}
fix fnvt all nvt temp 300 ${temp} ${tdamp}
fix fnvt all nvt temp 300 300 ${tdamp}
fix fnvt all nvt temp 300 300 50
Resetting global fix info from restart file:
  fix style: nvt, fix ID: fnvt


# Save stress, strain to "./stress_strain/stress_strain.neg${dir}.out"
print "# Stress and strain vectors, ${structure}, negative deformation ${dir}"       file stress_strain/stress_strain.neg${dir}.out screen no
print "# Stress and strain vectors, ${structure}, negative deformation ${dir}"       file stress_strain/stress_strain.neg2.out screen no
fix data all print ${nfreq} "${eps} ${sig1} ${sig2} ${sig3} ${sig4} ${sig5} ${sig6}"       append stress_strain/stress_strain.neg${dir}.out screen no       title "# eps sig1 sig2 sig3 sig4 sig5 sig6"
fix data all print 100 "${eps} ${sig1} ${sig2} ${sig3} ${sig4} ${sig5} ${sig6}"       append stress_strain/stress_strain.neg${dir}.out screen no       title "# eps sig1 sig2 sig3 sig4 sig5 sig6"
fix data all print 100 "${eps} ${sig1} ${sig2} ${sig3} ${sig4} ${sig5} ${sig6}"       append stress_strain/stress_strain.neg2.out screen no       title "# eps sig1 sig2 sig3 sig4 sig5 sig6"

# save trajectory
# if "$(is_defined(dump,dump_neg${dir1}))" then "undump dump_neg${dir1}"
dump dump_neg${dir} all custom ${nthermo} dump/neg_deform${dir}.lammpstrj id type q x y z
dump dump_neg2 all custom ${nthermo} dump/neg_deform${dir}.lammpstrj id type q x y z
dump dump_neg2 all custom 100 dump/neg_deform${dir}.lammpstrj id type q x y z
dump dump_neg2 all custom 100 dump/neg_deform2.lammpstrj id type q x y z
# variable dir1 equal ${dir}
run ${nrun}
run 5000
All restart file global fix info was re-assigned
Neighbor list info ...
  update: every = 10 steps, delay = 0 steps, check = no
  max neighbors/atom: 2000, page size: 100000
  master list distance cutoff = 12
  ghost atom cutoff = 12
  binsize = 6, bins = 4 3 3
  2 neighbor lists, perpetual/occasional/extra = 2 0 0
  (1) pair reaxff, perpetual
      attributes: half, newton off, ghost
      pair build: half/bin/newtoff/ghost
      stencil: full/ghost/bin/3d
      bin: standard
  (2) fix qeq/reaxff, perpetual, copy from (1)
      attributes: half, newton off
      pair build: copy
      stencil: none
      bin: none
Per MPI rank memory allocation (min/avg/max) = 120.9 | 122.9 | 124.9 Mbytes
   Step          Temp          PotEng         Press          Volume           Lx             Ly             Lz      
         0   297.5373      -41137.034     -14475.629      3758.8201      15.2382        14.5028        17.0085      
       100   302.1431      -41120.591     -12524.609      3751.3025      15.2382        14.473794      17.0085      
       200   285.64133     -41117.368     -15837.703      3743.7848      15.2382        14.444789      17.0085      
       300   298.98015     -41159.676     -3671.8052      3736.2672      15.2382        14.415783      17.0085      
       400   306.5308      -41172.209     -19161.537      3728.7495      15.2382        14.386778      17.0085      
       500   312.57746     -41173.521      6808.9972      3721.2319      15.2382        14.357772      17.0085      
       600   301.09316     -41146.588     -545.52288      3713.7143      15.2382        14.328766      17.0085      
       700   296.11172     -41143.935     -7753.0892      3706.1966      15.2382        14.299761      17.0085      
       800   307.90037     -41182.835     -171.39614      3698.679       15.2382        14.270755      17.0085      
       900   307.0806      -41184.746     -5820.5025      3691.1613      15.2382        14.24175       17.0085      
      1000   299.76686     -41170.907     -17170.541      3683.6437      15.2382        14.212744      17.0085      
      1100   283.04416     -41159.727     -2768.0797      3676.1261      15.2382        14.183738      17.0085      
      1200   302.81648     -41170.597     -7520.5287      3668.6084      15.2382        14.154733      17.0085      
      1300   324.39579     -41176.836     -3852.3713      3661.0908      15.2382        14.125727      17.0085      
      1400   309.82278     -41163.597      5798.9671      3653.5731      15.2382        14.096722      17.0085      
      1500   296.31789     -41160.792      8247.3714      3646.0555      15.2382        14.067716      17.0085      
      1600   287.84986     -41163.358     -13242.772      3638.5379      15.2382        14.03871       17.0085      
      1700   288.06964     -41178.881     -8156.3525      3631.0202      15.2382        14.009705      17.0085      
      1800   279.69865     -41191.97      -2642.2924      3623.5026      15.2382        13.980699      17.0085      
      1900   296.61994     -41193.37       1994.8357      3615.9849      15.2382        13.951694      17.0085      
      2000   300.34525     -41152.015      6712.6324      3608.4673      15.2382        13.922688      17.0085      
      2100   310.96018     -41160.429      12812.452      3600.9497      15.2382        13.893682      17.0085      
      2200   298.33631     -41152.992      10339.919      3593.432       15.2382        13.864677      17.0085      
      2300   285.62311     -41150.256      11952.519      3585.9144      15.2382        13.835671      17.0085      
      2400   287.33347     -41163.381      3521.7649      3578.3967      15.2382        13.806666      17.0085      
      2500   282.23662     -41166.314      12901.998      3570.8791      15.2382        13.77766       17.0085      
      2600   286.16632     -41152.588      13158.506      3563.3615      15.2382        13.748654      17.0085      
      2700   314.01594     -41149.062      12158.923      3555.8438      15.2382        13.719649      17.0085      
      2800   317.49106     -41146.643      11313.592      3548.3262      15.2382        13.690643      17.0085      
      2900   319.67092     -41174.11       4147.9718      3540.8085      15.2382        13.661638      17.0085      
      3000   318.78987     -41184.691      29949.666      3533.2909      15.2382        13.632632      17.0085      
      3100   294.97359     -41166.779      20917.883      3525.7733      15.2382        13.603626      17.0085      
      3200   307.36009     -41185.045      14088.896      3518.2556      15.2382        13.574621      17.0085      
      3300   289.01129     -41162.567      9181.5065      3510.738       15.2382        13.545615      17.0085      
      3400   303.64242     -41166.699      12137.649      3503.2203      15.2382        13.51661       17.0085      
      3500   299.78539     -41157.349     -6797.5009      3495.7027      15.2382        13.487604      17.0085      
      3600   305.56548     -41175.807      9610.268       3488.1851      15.2382        13.458598      17.0085      
      3700   293.32729     -41174.583      9786.1856      3480.6674      15.2382        13.429593      17.0085      
      3800   289.64747     -41171.438      24254.895      3473.1498      15.2382        13.400587      17.0085      
      3900   305.68432     -41190.058      19495.82       3465.6321      15.2382        13.371582      17.0085      
      4000   291.77912     -41201.211      11475.671      3458.1145      15.2382        13.342576      17.0085      
      4100   302.5642      -41216.254      26304.054      3450.5969      15.2382        13.31357       17.0085      
      4200   291.74453     -41185.845      18078.155      3443.0792      15.2382        13.284565      17.0085      
      4300   306.47392     -41172.422      12673.636      3435.5616      15.2382        13.255559      17.0085      
      4400   314.76465     -41168.548      13211.751      3428.0439      15.2382        13.226554      17.0085      
      4500   308.44615     -41168.94       1022.5883      3420.5263      15.2382        13.197548      17.0085      
      4600   289.99731     -41156.779      8948.7612      3413.0087      15.2382        13.168542      17.0085      
      4700   307.81708     -41184.845      32297.812      3405.491       15.2382        13.139537      17.0085      
      4800   299.33873     -41181.97       16971.491      3397.9734      15.2382        13.110531      17.0085      
      4900   273.44737     -41172.268      23788.545      3390.4557      15.2382        13.081526      17.0085      
      5000   280.69444     -41166.657      22419.391      3382.9381      15.2382        13.05252       17.0085      
Loop time of 267.238 on 8 procs for 5000 steps with 350 atoms

Performance: 0.808 ns/day, 29.693 hours/ns, 18.710 timesteps/s, 6.548 katom-step/s
99.0% CPU use with 8 MPI tasks x 1 OpenMP threads

MPI task timing breakdown:
Section |  min time  |  avg time  |  max time  |%varavg| %total
---------------------------------------------------------------
Pair    | 192.74     | 213.91     | 222.65     |  64.2 | 80.04
Bond    | 0.0018792  | 0.002044   | 0.0022531  |   0.3 |  0.00
Neigh   | 15.53      | 16.932     | 18.375     |  19.9 |  6.34
Comm    | 5.4959     | 14.228     | 35.406     | 248.9 |  5.32
Output  | 0.017977   | 0.020132   | 0.021925   |   1.0 |  0.01
Modify  | 20.599     | 22.034     | 23.436     |  17.4 |  8.24
Other   |            | 0.1118     |            |       |  0.04

Nlocal:          43.75 ave          49 max          38 min
Histogram: 1 0 0 3 0 0 1 2 0 1
Nghost:         3462.5 ave        3532 max        3414 min
Histogram: 3 0 1 0 1 1 0 0 1 1
Neighs:          31711 ave       35281 max       27753 min
Histogram: 1 0 0 3 0 0 2 1 0 1

Total # of neighbors = 253688
Ave neighs/atom = 724.82286
Ave special neighs/atom = 0
Neighbor list builds = 500
Dangerous builds not checked
unfix deform_n
unfix data
undump dump_neg${dir}
undump dump_neg2

# Compute elastic constant from pressure
# d1 = -[pxx1-pxx0]/[(v_delta/v_len0] defined in input script
# variable C1neg equal ${d1}
# variable C2neg equal ${d2}
# variable C3neg equal ${d3}
# variable C4neg equal ${d4}
# variable C5neg equal ${d5}
# variable C6neg equal ${d6}

# Reset box and simulation parameters
clear
OMP_NUM_THREADS environment is not set. Defaulting to 1 thread. (src/comm.cpp:98)
  using 1 OpenMP thread(s) per MPI task
# box tilt large
read_restart equil.res
Reading restart file ...
  restart file = 2 Aug 2023, LAMMPS = 2 Aug 2023
  restoring atom style full from restart
  triclinic box = (0 0 0) to (15.2382 14.5028 17.0085) with tilt (-6.2627 -0.4482 -0.642)
  2 by 2 by 2 MPI processor grid
  pair style reaxff stores no restart info
  350 atoms
Finding 1-2 1-3 1-4 neighbors ...
  special bond factors lj:    0        0        0       
  special bond factors coul:  0        0        0       
     0 = max # of 1-2 neighbors
     0 = max # of 1-3 neighbors
     0 = max # of 1-4 neighbors
     1 = max # of special neighbors
  special bonds CPU = 0.000 seconds
  read_restart CPU = 0.003 seconds

# Positive deformation
variable delta equal ${up}*${len0}
variable delta equal 0.1*${len0}
variable delta equal 0.1*14.5028
variable deltaxy equal ${up}*xy
variable deltaxy equal 0.1*xy
variable deltaxz equal ${up}*xz
variable deltaxz equal 0.1*xz
variable deltayz equal ${up}*yz
variable deltayz equal 0.1*yz
if "${dir} == 1" then    "fix deform_p all deform ${nthermo} x delta 0 ${delta} xy delta ${deltaxy} xz delta ${deltaxz} remap v units box"
if "${dir} == 2" then    "fix deform_p all deform ${nthermo} y delta 0 ${delta} yz delta ${deltayz} remap v units box"
fix deform_p all deform ${nthermo} y delta 0 ${delta} yz delta ${deltayz} remap v units box
fix deform_p all deform 100 y delta 0 ${delta} yz delta ${deltayz} remap v units box
fix deform_p all deform 100 y delta 0 1.45028 yz delta ${deltayz} remap v units box
fix deform_p all deform 100 y delta 0 1.45028 yz delta -0.0642 remap v units box
if "${dir} == 3" then    "fix deform_p all deform ${nthermo} z delta 0 ${delta} remap v units box"
if "${dir} == 4" then    "fix deform_p all deform ${nthermo} yz delta ${delta} remap v units box"
if "${dir} == 5" then    "fix deform_p all deform ${nthermo} xz delta ${delta} remap v units box"
if "${dir} == 6" then    "fix deform_p all deform ${nthermo} xy delta ${delta} remap v units box"

# Run deformation MD
print "*****Positive-deform ${dir} starts.*****"
*****Positive-deform 2 starts.*****
include ff.mod.lmp
# Setup forcefield, system
# undefine any fix ave/* fix before using reset_timestep
if "$(is_defined(fix,avgp))" then "unfix avgp"
if "$(is_defined(fix,avgl))" then "unfix avgl"
reset_timestep 0

# Assign the force field
pair_style reaxff NULL safezone 3.0 mincap 150
# pair_coeff * * CHONSSi.ff O Si
# pair_coeff * * CHOSiNa.ff O Si
# pair_coeff * * SiOCHN_2018.ff O Si
# pair_coeff * * PDMSDecomp.ff Si O
pair_coeff * * CHONSi.ff C H O Si
# pair_coeff * * CHOFe.ff O Si

# charge method for reaxff
fix myqeq all qeq/reaxff 1 0.0 10.0 1.0e-6 reaxff maxiter 400
# Setup neighbor style
neighbor        2 bin
neigh_modify    every 10 delay 0 check no

# Setup output
thermo		${nthermo}
thermo		100
thermo_style custom step temp pe press vol lx ly lz
# thermo_style custom step vol lx ly lz yz xz xy
thermo_modify norm no
# thermo_modify line multi

# Sample pressure (and length vector)
fix avgp all ave/time  ${nevery} ${nrepeat} ${nfreq} c_thermo_press mode vector
fix avgp all ave/time  10 ${nrepeat} ${nfreq} c_thermo_press mode vector
fix avgp all ave/time  10 10 ${nfreq} c_thermo_press mode vector
fix avgp all ave/time  10 10 100 c_thermo_press mode vector
# variable lx equal lx
# variable ly equal ly
# variable lz equal lz
# fix avgl all ave/time  ${nevery} ${nrepeat} ${nfreq} v_lx v_ly v_lz

# nvt
fix fnvt all nvt temp ${temp} ${temp} ${tdamp}
fix fnvt all nvt temp 300 ${temp} ${tdamp}
fix fnvt all nvt temp 300 300 ${tdamp}
fix fnvt all nvt temp 300 300 50
Resetting global fix info from restart file:
  fix style: nvt, fix ID: fnvt


# Save stress, strain to "./stress_strain/stress_strain.pos${dir}.out"
print "# Stress and strain vectors, ${structure}, positive deformation ${dir}"       file stress_strain/stress_strain.pos${dir}.out screen no
print "# Stress and strain vectors, ${structure}, positive deformation ${dir}"       file stress_strain/stress_strain.pos2.out screen no
fix data all print ${nfreq} "${eps} ${sig1} ${sig2} ${sig3} ${sig4} ${sig5} ${sig6}"       append stress_strain/stress_strain.pos${dir}.out screen no       title "# eps sig1 sig2 sig3 sig4 sig5 sig6"
fix data all print 100 "${eps} ${sig1} ${sig2} ${sig3} ${sig4} ${sig5} ${sig6}"       append stress_strain/stress_strain.pos${dir}.out screen no       title "# eps sig1 sig2 sig3 sig4 sig5 sig6"
fix data all print 100 "${eps} ${sig1} ${sig2} ${sig3} ${sig4} ${sig5} ${sig6}"       append stress_strain/stress_strain.pos2.out screen no       title "# eps sig1 sig2 sig3 sig4 sig5 sig6"

# save trajectory
# if "$(is_defined(dump,dump_pos${dir1}))" then "undump dump_pos${dir1}"
dump dump_pos${dir} all custom ${nthermo} dump/pos_deform${dir}.lammpstrj id type q x y z
dump dump_pos2 all custom ${nthermo} dump/pos_deform${dir}.lammpstrj id type q x y z
dump dump_pos2 all custom 100 dump/pos_deform${dir}.lammpstrj id type q x y z
dump dump_pos2 all custom 100 dump/pos_deform2.lammpstrj id type q x y z
run ${nrun}
run 5000
All restart file global fix info was re-assigned
Neighbor list info ...
  update: every = 10 steps, delay = 0 steps, check = no
  max neighbors/atom: 2000, page size: 100000
  master list distance cutoff = 12
  ghost atom cutoff = 12
  binsize = 6, bins = 4 3 3
  2 neighbor lists, perpetual/occasional/extra = 2 0 0
  (1) pair reaxff, perpetual
      attributes: half, newton off, ghost
      pair build: half/bin/newtoff/ghost
      stencil: full/ghost/bin/3d
      bin: standard
  (2) fix qeq/reaxff, perpetual, copy from (1)
      attributes: half, newton off
      pair build: copy
      stencil: none
      bin: none
Per MPI rank memory allocation (min/avg/max) = 121 | 122.9 | 125 Mbytes
   Step          Temp          PotEng         Press          Volume           Lx             Ly             Lz      
         0   297.5373      -41137.034     -14475.629      3758.8201      15.2382        14.5028        17.0085      
       100   301.82417     -41121.012     -12480.473      3766.3377      15.2382        14.531806      17.0085      
       200   286.81117     -41114.88      -13038.743      3773.8554      15.2382        14.560811      17.0085      
       300   303.7123      -41152.273     -6019.2623      3781.373       15.2382        14.589817      17.0085      
       400   306.40108     -41154.292     -23494.538      3788.8907      15.2382        14.618822      17.0085      
       500   310.21035     -41157.836     -6537.4463      3796.4083      15.2382        14.647828      17.0085      
       600   301.07369     -41147.985     -9314.1793      3803.926       15.2382        14.676834      17.0085      
       700   303.86009     -41167.507     -5156.1551      3811.4436      15.2382        14.705839      17.0085      
       800   287.68759     -41165.996     -18693.739      3818.9612      15.2382        14.734845      17.0085      
       900   287.62655     -41140.519     -18750.596      3826.4789      15.2382        14.76385       17.0085      
      1000   302.13871     -41120.02      -17677.059      3833.9965      15.2382        14.792856      17.0085      
      1100   320.44186     -41139.083     -14636.856      3841.5142      15.2382        14.821862      17.0085      
      1200   287.96563     -41124.1       -16567.435      3849.0318      15.2382        14.850867      17.0085      
      1300   292.75786     -41133.871     -18627.02       3856.5494      15.2382        14.879873      17.0085      
      1400   306.05243     -41129.36      -19154.115      3864.0671      15.2382        14.908878      17.0085      
      1500   325.19685     -41107.421     -21479.305      3871.5847      15.2382        14.937884      17.0085      
      1600   306.96011     -41080.689     -10969.854      3879.1024      15.2382        14.96689       17.0085      
      1700   310.87523     -41100.852     -9431.1874      3886.62        15.2382        14.995895      17.0085      
      1800   294.10646     -41100.39      -13075.554      3894.1376      15.2382        15.024901      17.0085      
      1900   303.66361     -41115.848     -22456.133      3901.6553      15.2382        15.053906      17.0085      
      2000   291.04936     -41112.256     -20525.115      3909.1729      15.2382        15.082912      17.0085      
      2100   290.91799     -41111.325     -20094.339      3916.6906      15.2382        15.111918      17.0085      
      2200   302.01963     -41098.824     -5422.208       3924.2082      15.2382        15.140923      17.0085      
      2300   308.06711     -41074.993     -8679.4948      3931.7258      15.2382        15.169929      17.0085      
      2400   301.75711     -41064.055     -16461.815      3939.2435      15.2382        15.198934      17.0085      
      2500   293.00055     -41081.431     -11040.594      3946.7611      15.2382        15.22794       17.0085      
      2600   300.00318     -41093.898     -15921.872      3954.2788      15.2382        15.256946      17.0085      
      2700   312.94882     -41097.222     -26748.072      3961.7964      15.2382        15.285951      17.0085      
      2800   294.43091     -41064.424     -27383.609      3969.314       15.2382        15.314957      17.0085      
      2900   309.44802     -41052.103     -10139.69       3976.8317      15.2382        15.343962      17.0085      
      3000   292.3018      -41036.669     -33373.059      3984.3493      15.2382        15.372968      17.0085      
      3100   313.09485     -41077.469     -33892.976      3991.867       15.2382        15.401974      17.0085      
      3200   316.66753     -41086.287     -22954.91       3999.3846      15.2382        15.430979      17.0085      
      3300   288.08398     -41056.398     -25739.743      4006.9022      15.2382        15.459985      17.0085      
      3400   303.90463     -41041.583     -20534.479      4014.4199      15.2382        15.48899       17.0085      
      3500   329.13232     -41030.125     -19806.564      4021.9375      15.2382        15.517996      17.0085      
      3600   308.00452     -41006.033     -31359.808      4029.4552      15.2382        15.547002      17.0085      
      3700   307.35567     -41034.747     -13709.169      4036.9728      15.2382        15.576007      17.0085      
      3800   301.43319     -41039.937     -21066.891      4044.4904      15.2382        15.605013      17.0085      
      3900   296.95677     -41032.45      -23199.607      4052.0081      15.2382        15.634018      17.0085      
      4000   293.1649      -41027.001     -33651.356      4059.5257      15.2382        15.663024      17.0085      
      4100   271.02444     -41023.676     -29400.556      4067.0434      15.2382        15.69203       17.0085      
      4200   285.72865     -41044.464     -30423.644      4074.561       15.2382        15.721035      17.0085      
      4300   291.12042     -41025.423     -11128.749      4082.0786      15.2382        15.750041      17.0085      
      4400   312.23315     -41004.864     -13358.623      4089.5963      15.2382        15.779046      17.0085      
      4500   321.68533     -41015.201     -23656.167      4097.1139      15.2382        15.808052      17.0085      
      4600   317.19894     -41027.872     -20189.05       4104.6316      15.2382        15.837058      17.0085      
      4700   293.10739     -41008.296     -23577.854      4112.1492      15.2382        15.866063      17.0085      
      4800   319.7663      -41036.669     -21538.166      4119.6668      15.2382        15.895069      17.0085      
      4900   289.36454     -41019.849     -15514.781      4127.1845      15.2382        15.924074      17.0085      
      5000   298.6618      -41051.292     -14284.48       4134.7021      15.2382        15.95308       17.0085      
Loop time of 228.373 on 8 procs for 5000 steps with 350 atoms

Performance: 0.946 ns/day, 25.375 hours/ns, 21.894 timesteps/s, 7.663 katom-step/s
99.0% CPU use with 8 MPI tasks x 1 OpenMP threads

MPI task timing breakdown:
Section |  min time  |  avg time  |  max time  |%varavg| %total
---------------------------------------------------------------
Pair    | 150.93     | 176.42     | 190.34     | 108.8 | 77.25
Bond    | 0.0017404  | 0.0019394  | 0.0021099  |   0.3 |  0.00
Neigh   | 11.979     | 14.5       | 16.136     |  35.1 |  6.35
Comm    | 3.0769     | 16.997     | 42.48      | 350.5 |  7.44
Output  | 0.016791   | 0.018754   | 0.020234   |   0.9 |  0.01
Modify  | 18.692     | 20.33      | 22.87      |  29.9 |  8.90
Other   |            | 0.1071     |            |       |  0.05

Nlocal:          43.75 ave          52 max          38 min
Histogram: 3 0 1 0 0 2 0 1 0 1
Nghost:        2931.25 ave        2972 max        2884 min
Histogram: 1 1 0 0 0 2 2 0 0 2
Neighs:          25871 ave       30388 max       22716 min
Histogram: 3 0 0 1 0 2 0 1 0 1

Total # of neighbors = 206968
Ave neighs/atom = 591.33714
Ave special neighs/atom = 0
Neighbor list builds = 500
Dangerous builds not checked
unfix deform_p
unfix data
undump dump_pos${dir}
undump dump_pos2

# # Combine positive and negative
# variable C1${dir} equal 0.5*(${C1neg}+${C1pos})
# variable C2${dir} equal 0.5*(${C2neg}+${C2pos})
# variable C3${dir} equal 0.5*(${C3neg}+${C3pos})
# variable C4${dir} equal 0.5*(${C4neg}+${C4pos})
# variable C5${dir} equal 0.5*(${C5neg}+${C5pos})
# variable C6${dir} equal 0.5*(${C6neg}+${C6pos})

# Delete dir to make sure it is not reused
variable dir delete
# uzz Perturbation
variable dir equal 3
include displace.mod.lmp
# # Find which reference length to use
# if "${dir} == 1" then #    "variable len0 equal ${lx0}"
# if "${dir} == 2" then #    "variable len0 equal ${ly0}"
# if "${dir} == 3" then #    "variable len0 equal ${lz0}"
# if "${dir} == 4" then #    "variable len0 equal ${lz0}"
# if "${dir} == 5" then #    "variable len0 equal ${lz0}"
# if "${dir} == 6" then #    "variable len0 equal ${ly0}"

# Find which length (epsilon) to calculate
if "${dir} == 1" then    "variable len0 equal ${lx0}"    "variable dlen equal lx-${len0}"
if "${dir} == 2" then    "variable len0 equal ${ly0}"    "variable dlen equal ly-${len0}"
if "${dir} == 3" then    "variable len0 equal ${lz0}"    "variable dlen equal lz-${len0}"
variable len0 equal ${lz0}
variable len0 equal 17.0085
variable dlen equal lz-${len0}
variable dlen equal lz-17.0085
if "${dir} == 4" then    "variable len0 equal ${lx0}"    "variable dlen equal 2*(yz-${yz0})"
if "${dir} == 5" then    "variable len0 equal ${ly0}"    "variable dlen equal 2*(xz-${xz0})"
if "${dir} == 6" then    "variable len0 equal ${lz0}"    "variable dlen equal 2*(xy-${xy0})"

# strain vector (epsilon)
variable eps equal v_dlen/v_len0

# stress vector (sigma)
variable sig1 equal -f_avgp[1]*${ufac}
variable sig1 equal -f_avgp[1]*0.000101325
variable sig2 equal -f_avgp[2]*${ufac}
variable sig2 equal -f_avgp[2]*0.000101325
variable sig3 equal -f_avgp[3]*${ufac}
variable sig3 equal -f_avgp[3]*0.000101325
variable sig4 equal -f_avgp[6]*${ufac}
variable sig4 equal -f_avgp[6]*0.000101325
variable sig5 equal -f_avgp[5]*${ufac}
variable sig5 equal -f_avgp[5]*0.000101325
variable sig6 equal -f_avgp[4]*${ufac}
variable sig6 equal -f_avgp[4]*0.000101325

# Reset box and simulation parameters
clear
OMP_NUM_THREADS environment is not set. Defaulting to 1 thread. (src/comm.cpp:98)
  using 1 OpenMP thread(s) per MPI task
# box tilt large
read_restart equil.res
Reading restart file ...
  restart file = 2 Aug 2023, LAMMPS = 2 Aug 2023
  restoring atom style full from restart
  triclinic box = (0 0 0) to (15.2382 14.5028 17.0085) with tilt (-6.2627 -0.4482 -0.642)
  2 by 2 by 2 MPI processor grid
  pair style reaxff stores no restart info
  350 atoms
Finding 1-2 1-3 1-4 neighbors ...
  special bond factors lj:    0        0        0       
  special bond factors coul:  0        0        0       
     0 = max # of 1-2 neighbors
     0 = max # of 1-3 neighbors
     0 = max # of 1-4 neighbors
     1 = max # of special neighbors
  special bonds CPU = 0.000 seconds
  read_restart CPU = 0.003 seconds

# Negative deformation
variable delta equal -${up}*${len0}
variable delta equal -0.1*${len0}
variable delta equal -0.1*17.0085
variable deltaxy equal -${up}*xy
variable deltaxy equal -0.1*xy
variable deltaxz equal -${up}*xz
variable deltaxz equal -0.1*xz
variable deltayz equal -${up}*yz
variable deltayz equal -0.1*yz
print "*****debug*****"
*****debug*****
print "xy = $(xy), deltaxy = ${deltaxy}"
xy = -6.2626999999999997115, deltaxy = 0.62627
print "xz = $(xz), deltaxz = ${deltaxz}"
xz = -0.4481999999999999873, deltaxz = 0.04482
print "yz = $(yz), deltayz = ${deltayz}"
yz = -0.6420000000000000151, deltayz = 0.0642
print "*****"
*****

if "${dir} == 1" then    "fix deform_n all deform ${nthermo} x delta 0 ${delta} xy delta ${deltaxy} xz delta ${deltaxz} remap v units box flip no"
if "${dir} == 2" then    "fix deform_n all deform ${nthermo} y delta 0 ${delta} yz delta ${deltayz} remap v units box flip no"
if "${dir} == 3" then    "fix deform_n all deform ${nthermo} z delta 0 ${delta} remap v units box flip no"
fix deform_n all deform ${nthermo} z delta 0 ${delta} remap v units box flip no
fix deform_n all deform 100 z delta 0 ${delta} remap v units box flip no
fix deform_n all deform 100 z delta 0 -1.70085 remap v units box flip no
if "${dir} == 4" then    "fix deform_n all deform ${nthermo} yz delta ${delta} remap v units box flip no"
if "${dir} == 5" then    "fix deform_n all deform ${nthermo} xz delta ${delta} remap v units box flip no"
if "${dir} == 6" then    "fix deform_n all deform ${nthermo} xy delta ${delta} remap v units box flip no"

# Run MD for Negative deformation
print "*****Negative-deform ${dir} starts.*****"
*****Negative-deform 3 starts.*****
include ff.mod.lmp
# Setup forcefield, system
# undefine any fix ave/* fix before using reset_timestep
if "$(is_defined(fix,avgp))" then "unfix avgp"
if "$(is_defined(fix,avgl))" then "unfix avgl"
reset_timestep 0

# Assign the force field
pair_style reaxff NULL safezone 3.0 mincap 150
# pair_coeff * * CHONSSi.ff O Si
# pair_coeff * * CHOSiNa.ff O Si
# pair_coeff * * SiOCHN_2018.ff O Si
# pair_coeff * * PDMSDecomp.ff Si O
pair_coeff * * CHONSi.ff C H O Si
# pair_coeff * * CHOFe.ff O Si

# charge method for reaxff
fix myqeq all qeq/reaxff 1 0.0 10.0 1.0e-6 reaxff maxiter 400
# Setup neighbor style
neighbor        2 bin
neigh_modify    every 10 delay 0 check no

# Setup output
thermo		${nthermo}
thermo		100
thermo_style custom step temp pe press vol lx ly lz
# thermo_style custom step vol lx ly lz yz xz xy
thermo_modify norm no
# thermo_modify line multi

# Sample pressure (and length vector)
fix avgp all ave/time  ${nevery} ${nrepeat} ${nfreq} c_thermo_press mode vector
fix avgp all ave/time  10 ${nrepeat} ${nfreq} c_thermo_press mode vector
fix avgp all ave/time  10 10 ${nfreq} c_thermo_press mode vector
fix avgp all ave/time  10 10 100 c_thermo_press mode vector
# variable lx equal lx
# variable ly equal ly
# variable lz equal lz
# fix avgl all ave/time  ${nevery} ${nrepeat} ${nfreq} v_lx v_ly v_lz

# nvt
fix fnvt all nvt temp ${temp} ${temp} ${tdamp}
fix fnvt all nvt temp 300 ${temp} ${tdamp}
fix fnvt all nvt temp 300 300 ${tdamp}
fix fnvt all nvt temp 300 300 50
Resetting global fix info from restart file:
  fix style: nvt, fix ID: fnvt


# Save stress, strain to "./stress_strain/stress_strain.neg${dir}.out"
print "# Stress and strain vectors, ${structure}, negative deformation ${dir}"       file stress_strain/stress_strain.neg${dir}.out screen no
print "# Stress and strain vectors, ${structure}, negative deformation ${dir}"       file stress_strain/stress_strain.neg3.out screen no
fix data all print ${nfreq} "${eps} ${sig1} ${sig2} ${sig3} ${sig4} ${sig5} ${sig6}"       append stress_strain/stress_strain.neg${dir}.out screen no       title "# eps sig1 sig2 sig3 sig4 sig5 sig6"
[...]
      1000   306.86309     -41166.032     -10263.573      3758.8201      15.2382        14.5028        17.0085      
      1100   303.9528      -41139.419     -15328.682      3758.8201      15.2382        14.5028        17.0085      
      1200   310.2154      -41137.831     -11430.862      3758.8201      15.2382        14.5028        17.0085      
      1300   282.61759     -41156.816      2050.6252      3758.8201      15.2382        14.5028        17.0085      
      1400   298.56847     -41177.801     -22745.643      3758.8201      15.2382        14.5028        17.0085      
      1500   298.83156     -41181.491      2746.5244      3758.8201      15.2382        14.5028        17.0085      
      1600   317.02386     -41189.657     -9637.9189      3758.8201      15.2382        14.5028        17.0085      
      1700   298.06665     -41166.112     -8964.4541      3758.8201      15.2382        14.5028        17.0085      
      1800   309.49059     -41183.886     -2944.137       3758.8201      15.2382        14.5028        17.0085      
      1900   293.82333     -41190.573     -17747.629      3758.8201      15.2382        14.5028        17.0085      
      2000   298.37296     -41195.077     -11007.065      3758.8201      15.2382        14.5028        17.0085      
      2100   308.57999     -41179.927     -9080.9521      3758.8201      15.2382        14.5028        17.0085      
      2200   322.63873     -41162.643     -6196.7525      3758.8201      15.2382        14.5028        17.0085      
      2300   311.08827     -41148.431     -11896.211      3758.8201      15.2382        14.5028        17.0085      
      2400   289.65191     -41165.533     -9326.1238      3758.8201      15.2382        14.5028        17.0085      
      2500   273.97697     -41165.983     -3788.4527      3758.8201      15.2382        14.5028        17.0085      
      2600   280.6173      -41156.984     -4205.7376      3758.8201      15.2382        14.5028        17.0085      
      2700   293.51235     -41140.874     -4210.6206      3758.8201      15.2382        14.5028        17.0085      
      2800   311.67294     -41150.474     -7583.402       3758.8201      15.2382        14.5028        17.0085      
      2900   295.37137     -41152.241     -6341.5661      3758.8201      15.2382        14.5028        17.0085      
      3000   285.16384     -41158.99       4926.5695      3758.8201      15.2382        14.5028        17.0085      
      3100   303.71069     -41178.693     -12738.319      3758.8201      15.2382        14.5028        17.0085      
      3200   298.82539     -41173.731     -3160.5533      3758.8201      15.2382        14.5028        17.0085      
      3300   299.67942     -41161.727     -7211.2136      3758.8201      15.2382        14.5028        17.0085      
      3400   309.66511     -41136.695     -13533.878      3758.8201      15.2382        14.5028        17.0085      
      3500   310.38717     -41135.998      4324.2641      3758.8201      15.2382        14.5028        17.0085      
      3600   318.21835     -41172.262     -12296.52       3758.8201      15.2382        14.5028        17.0085      
      3700   301.39262     -41162.262     -1423.9111      3758.8201      15.2382        14.5028        17.0085      
      3800   285.72642     -41144.721     -20313.684      3758.8201      15.2382        14.5028        17.0085      
      3900   301.79532     -41152.487     -9482.8092      3758.8201      15.2382        14.5028        17.0085      
      4000   317.61332     -41140.332     -4605.7618      3758.8201      15.2382        14.5028        17.0085      
      4100   316.31367     -41125.515     -6859.54        3758.8201      15.2382        14.5028        17.0085      
      4200   292.64051     -41134.462     -9703.0307      3758.8201      15.2382        14.5028        17.0085      
      4300   302.83226     -41153.533     -11164.212      3758.8201      15.2382        14.5028        17.0085      
      4400   292.94564     -41144.257     -10416.923      3758.8201      15.2382        14.5028        17.0085      
      4500   292.6825      -41155.139     -3563.0155      3758.8201      15.2382        14.5028        17.0085      
      4600   279.93551     -41148.716     -15210.5        3758.8201      15.2382        14.5028        17.0085      
      4700   267.12579     -41126.015      267.30458      3758.8201      15.2382        14.5028        17.0085      
      4800   315.10297     -41131.821     -5335.8183      3758.8201      15.2382        14.5028        17.0085      
      4900   310.70192     -41115.653     -15571.449      3758.8201      15.2382        14.5028        17.0085      
      5000   295.48162     -41121.764     -14677.345      3758.8201      15.2382        14.5028        17.0085      
Loop time of 247.509 on 8 procs for 5000 steps with 350 atoms

Performance: 0.873 ns/day, 27.501 hours/ns, 20.201 timesteps/s, 7.070 katom-step/s
99.1% CPU use with 8 MPI tasks x 1 OpenMP threads

MPI task timing breakdown:
Section |  min time  |  avg time  |  max time  |%varavg| %total
---------------------------------------------------------------
Pair    | 145.99     | 175.68     | 207.33     | 220.4 | 70.98
Bond    | 0.00164    | 0.0019327  | 0.002228   |   0.5 |  0.00
Neigh   | 11.693     | 14.507     | 17.783     |  66.8 |  5.86
Comm    | 2.7864     | 34.433     | 64.115     | 497.7 | 13.91
Output  | 0.01788    | 0.020197   | 0.021775   |   1.0 |  0.01
Modify  | 19.469     | 22.772     | 25.612     |  53.8 |  9.20
Other   |            | 0.09621    |            |       |  0.04

Nlocal:          43.75 ave          51 max          36 min
Histogram: 1 1 0 0 3 0 0 1 0 2
Nghost:         3281.5 ave        3341 max        3221 min
Histogram: 2 0 1 1 0 0 0 1 1 2
Neighs:        28501.6 ave       32841 max       23751 min
Histogram: 1 1 0 1 2 0 0 1 0 2

Total # of neighbors = 228013
Ave neighs/atom = 651.46571
Ave special neighs/atom = 0
Neighbor list builds = 500
Dangerous builds not checked
unfix deform_n
unfix data
undump dump_neg${dir}
undump dump_neg6

# Compute elastic constant from pressure
# d1 = -[pxx1-pxx0]/[(v_delta/v_len0] defined in input script
# variable C1neg equal ${d1}
# variable C2neg equal ${d2}
# variable C3neg equal ${d3}
# variable C4neg equal ${d4}
# variable C5neg equal ${d5}
# variable C6neg equal ${d6}

# Reset box and simulation parameters
clear
OMP_NUM_THREADS environment is not set. Defaulting to 1 thread. (src/comm.cpp:98)
  using 1 OpenMP thread(s) per MPI task
# box tilt large
read_restart equil.res
Reading restart file ...
  restart file = 2 Aug 2023, LAMMPS = 2 Aug 2023
  restoring atom style full from restart
  triclinic box = (0 0 0) to (15.2382 14.5028 17.0085) with tilt (-6.2627 -0.4482 -0.642)
  2 by 2 by 2 MPI processor grid
  pair style reaxff stores no restart info
  350 atoms
Finding 1-2 1-3 1-4 neighbors ...
  special bond factors lj:    0        0        0       
  special bond factors coul:  0        0        0       
     0 = max # of 1-2 neighbors
     0 = max # of 1-3 neighbors
     0 = max # of 1-4 neighbors
     1 = max # of special neighbors
  special bonds CPU = 0.000 seconds
  read_restart CPU = 0.003 seconds

# Positive deformation
variable delta equal ${up}*${len0}
variable delta equal 0.1*${len0}
variable delta equal 0.1*17.0085
variable deltaxy equal ${up}*xy
variable deltaxy equal 0.1*xy
variable deltaxz equal ${up}*xz
variable deltaxz equal 0.1*xz
variable deltayz equal ${up}*yz
variable deltayz equal 0.1*yz
if "${dir} == 1" then    "fix deform_p all deform ${nthermo} x delta 0 ${delta} xy delta ${deltaxy} xz delta ${deltaxz} remap v units box"
if "${dir} == 2" then    "fix deform_p all deform ${nthermo} y delta 0 ${delta} yz delta ${deltayz} remap v units box"
if "${dir} == 3" then    "fix deform_p all deform ${nthermo} z delta 0 ${delta} remap v units box"
if "${dir} == 4" then    "fix deform_p all deform ${nthermo} yz delta ${delta} remap v units box"
if "${dir} == 5" then    "fix deform_p all deform ${nthermo} xz delta ${delta} remap v units box"
if "${dir} == 6" then    "fix deform_p all deform ${nthermo} xy delta ${delta} remap v units box"
fix deform_p all deform ${nthermo} xy delta ${delta} remap v units box
fix deform_p all deform 100 xy delta ${delta} remap v units box
fix deform_p all deform 100 xy delta 1.70085 remap v units box

# Run deformation MD
print "*****Positive-deform ${dir} starts.*****"
*****Positive-deform 6 starts.*****
include ff.mod.lmp
# Setup forcefield, system
# undefine any fix ave/* fix before using reset_timestep
if "$(is_defined(fix,avgp))" then "unfix avgp"
if "$(is_defined(fix,avgl))" then "unfix avgl"
reset_timestep 0

# Assign the force field
pair_style reaxff NULL safezone 3.0 mincap 150
# pair_coeff * * CHONSSi.ff O Si
# pair_coeff * * CHOSiNa.ff O Si
# pair_coeff * * SiOCHN_2018.ff O Si
# pair_coeff * * PDMSDecomp.ff Si O
pair_coeff * * CHONSi.ff C H O Si
# pair_coeff * * CHOFe.ff O Si

# charge method for reaxff
fix myqeq all qeq/reaxff 1 0.0 10.0 1.0e-6 reaxff maxiter 400
# Setup neighbor style
neighbor        2 bin
neigh_modify    every 10 delay 0 check no

# Setup output
thermo		${nthermo}
thermo		100
thermo_style custom step temp pe press vol lx ly lz
# thermo_style custom step vol lx ly lz yz xz xy
thermo_modify norm no
# thermo_modify line multi

# Sample pressure (and length vector)
fix avgp all ave/time  ${nevery} ${nrepeat} ${nfreq} c_thermo_press mode vector
fix avgp all ave/time  10 ${nrepeat} ${nfreq} c_thermo_press mode vector
fix avgp all ave/time  10 10 ${nfreq} c_thermo_press mode vector
fix avgp all ave/time  10 10 100 c_thermo_press mode vector
# variable lx equal lx
# variable ly equal ly
# variable lz equal lz
# fix avgl all ave/time  ${nevery} ${nrepeat} ${nfreq} v_lx v_ly v_lz

# nvt
fix fnvt all nvt temp ${temp} ${temp} ${tdamp}
fix fnvt all nvt temp 300 ${temp} ${tdamp}
fix fnvt all nvt temp 300 300 ${tdamp}
fix fnvt all nvt temp 300 300 50
Resetting global fix info from restart file:
  fix style: nvt, fix ID: fnvt


# Save stress, strain to "./stress_strain/stress_strain.pos${dir}.out"
print "# Stress and strain vectors, ${structure}, positive deformation ${dir}"       file stress_strain/stress_strain.pos${dir}.out screen no
print "# Stress and strain vectors, ${structure}, positive deformation ${dir}"       file stress_strain/stress_strain.pos6.out screen no
fix data all print ${nfreq} "${eps} ${sig1} ${sig2} ${sig3} ${sig4} ${sig5} ${sig6}"       append stress_strain/stress_strain.pos${dir}.out screen no       title "# eps sig1 sig2 sig3 sig4 sig5 sig6"
fix data all print 100 "${eps} ${sig1} ${sig2} ${sig3} ${sig4} ${sig5} ${sig6}"       append stress_strain/stress_strain.pos${dir}.out screen no       title "# eps sig1 sig2 sig3 sig4 sig5 sig6"
fix data all print 100 "${eps} ${sig1} ${sig2} ${sig3} ${sig4} ${sig5} ${sig6}"       append stress_strain/stress_strain.pos6.out screen no       title "# eps sig1 sig2 sig3 sig4 sig5 sig6"

# save trajectory
# if "$(is_defined(dump,dump_pos${dir1}))" then "undump dump_pos${dir1}"
dump dump_pos${dir} all custom ${nthermo} dump/pos_deform${dir}.lammpstrj id type q x y z
dump dump_pos6 all custom ${nthermo} dump/pos_deform${dir}.lammpstrj id type q x y z
dump dump_pos6 all custom 100 dump/pos_deform${dir}.lammpstrj id type q x y z
dump dump_pos6 all custom 100 dump/pos_deform6.lammpstrj id type q x y z
run ${nrun}
run 5000
All restart file global fix info was re-assigned
Neighbor list info ...
  update: every = 10 steps, delay = 0 steps, check = no
  max neighbors/atom: 2000, page size: 100000
  master list distance cutoff = 12
  ghost atom cutoff = 12
  binsize = 6, bins = 4 3 3
  2 neighbor lists, perpetual/occasional/extra = 2 0 0
  (1) pair reaxff, perpetual
      attributes: half, newton off, ghost
      pair build: half/bin/newtoff/ghost
      stencil: full/ghost/bin/3d
      bin: standard
  (2) fix qeq/reaxff, perpetual, copy from (1)
      attributes: half, newton off
      pair build: copy
      stencil: none
      bin: none
Per MPI rank memory allocation (min/avg/max) = 121 | 122.9 | 125 Mbytes
   Step          Temp          PotEng         Press          Volume           Lx             Ly             Lz      
         0   297.5373      -41137.034     -14475.629      3758.8201      15.2382        14.5028        17.0085      
       100   301.87053     -41120.792     -12487.544      3758.8201      15.2382        14.5028        17.0085      
       200   286.98424     -41116.73      -12388.751      3758.8201      15.2382        14.5028        17.0085      
       300   308.53423     -41162.345     -5385.5796      3758.8201      15.2382        14.5028        17.0085      
       400   307.1894      -41165.052     -23436.861      3758.8201      15.2382        14.5028        17.0085      
       500   312.53715     -41171.19      -4655.4722      3758.8201      15.2382        14.5028        17.0085      
       600   318.94541     -41162.137     -6898.1705      3758.8201      15.2382        14.5028        17.0085      
       700   302.92816     -41131.919     -11516.277      3758.8201      15.2382        14.5028        17.0085      
       800   309.74472     -41145.086     -6391.0992      3758.8201      15.2382        14.5028        17.0085      
       900   293.52055     -41152.262     -17259.145      3758.8201      15.2382        14.5028        17.0085      
      1000   279.90043     -41147.704     -4276.0491      3758.8201      15.2382        14.5028        17.0085      
      1100   309.01537     -41168.734     -9596.026       3758.8201      15.2382        14.5028        17.0085      
      1200   319.86798     -41143.693     -15247.009      3758.8201      15.2382        14.5028        17.0085      
      1300   314.47414     -41124.22      -2887.0658      3758.8201      15.2382        14.5028        17.0085      
      1400   292.02129     -41126.275     -7578.292       3758.8201      15.2382        14.5028        17.0085      
      1500   284.70203     -41135.87      -12870.339      3758.8201      15.2382        14.5028        17.0085      
      1600   321.93987     -41163.886     -6185.2662      3758.8201      15.2382        14.5028        17.0085      
      1700   316.8012      -41159.577     -4927.5493      3758.8201      15.2382        14.5028        17.0085      
      1800   297.79657     -41168.693      728.99211      3758.8201      15.2382        14.5028        17.0085      
      1900   310.08991     -41194.618     -10870.796      3758.8201      15.2382        14.5028        17.0085      
      2000   292.38968     -41170.611     -17968.089      3758.8201      15.2382        14.5028        17.0085      
      2100   288.81474     -41161.229     -2831.7872      3758.8201      15.2382        14.5028        17.0085      
      2200   309.71991     -41165.818     -9076.57        3758.8201      15.2382        14.5028        17.0085      
      2300   314.47968     -41171.051     -12449.78       3758.8201      15.2382        14.5028        17.0085      
      2400   287.35799     -41160.093     -10944.643      3758.8201      15.2382        14.5028        17.0085      
      2500   274.84641     -41165.125     -13428.496      3758.8201      15.2382        14.5028        17.0085      
      2600   278.98307     -41168.071     -13201.873      3758.8201      15.2382        14.5028        17.0085      
      2700   324.26597     -41175.888      1772.1874      3758.8201      15.2382        14.5028        17.0085      
      2800   308.07142     -41137.515     -15474.868      3758.8201      15.2382        14.5028        17.0085      
      2900   333.67519     -41176.39      -15055.86       3758.8201      15.2382        14.5028        17.0085      
      3000   305.69535     -41162.002     -9246.1726      3758.8201      15.2382        14.5028        17.0085      
      3100   285.54162     -41149.618     -16704.598      3758.8201      15.2382        14.5028        17.0085      
      3200   302.87286     -41176.26       2106.7327      3758.8201      15.2382        14.5028        17.0085      
      3300   291.21705     -41184.874     -11075.852      3758.8201      15.2382        14.5028        17.0085      
      3400   270.99484     -41168.397     -12612.379      3758.8201      15.2382        14.5028        17.0085      
      3500   302.29764     -41171.827     -13468.803      3758.8201      15.2382        14.5028        17.0085      
      3600   298.69867     -41139.122     -9556.3314      3758.8201      15.2382        14.5028        17.0085      
      3700   317.47981     -41158.448     -12216.909      3758.8201      15.2382        14.5028        17.0085      
      3800   273.30068     -41128.372     -15618.968      3758.8201      15.2382        14.5028        17.0085      
      3900   291.59563     -41152         -10207.009      3758.8201      15.2382        14.5028        17.0085      
      4000   286.11944     -41139.471      4129.9416      3758.8201      15.2382        14.5028        17.0085      
      4100   296.53591     -41152.992     -17107.579      3758.8201      15.2382        14.5028        17.0085      
      4200   292.65195     -41167.488     -14088.799      3758.8201      15.2382        14.5028        17.0085      
      4300   287.27565     -41168.88      -5771.0066      3758.8201      15.2382        14.5028        17.0085      
      4400   294.7537      -41156.835     -4047.2122      3758.8201      15.2382        14.5028        17.0085      
      4500   309.58179     -41141.66      -14109.299      3758.8201      15.2382        14.5028        17.0085      
      4600   327.46168     -41150.605     -24101.499      3758.8201      15.2382        14.5028        17.0085      
      4700   301.27951     -41154.44      -8740.2077      3758.8201      15.2382        14.5028        17.0085      
      4800   308.3584      -41166.386     -8336.6813      3758.8201      15.2382        14.5028        17.0085      
      4900   290.37829     -41149.689     -20864.054      3758.8201      15.2382        14.5028        17.0085      
      5000   296.9269      -41151.784     -9420.1551      3758.8201      15.2382        14.5028        17.0085      
Loop time of 223.768 on 8 procs for 5000 steps with 350 atoms

Performance: 0.965 ns/day, 24.863 hours/ns, 22.345 timesteps/s, 7.821 katom-step/s
99.1% CPU use with 8 MPI tasks x 1 OpenMP threads

MPI task timing breakdown:
Section |  min time  |  avg time  |  max time  |%varavg| %total
---------------------------------------------------------------
Pair    | 131.08     | 153.75     | 186.31     | 198.4 | 68.71
Bond    | 0.0014381  | 0.0016788  | 0.0019807  |   0.4 |  0.00
Neigh   | 10.936     | 13.05      | 16.588     |  66.5 |  5.83
Comm    | 2.8893     | 35.452     | 58.109     | 413.1 | 15.84
Output  | 0.015315   | 0.01712    | 0.01839    |   0.9 |  0.01
Modify  | 17.844     | 21.409     | 23.549     |  52.3 |  9.57
Other   |            | 0.08845    |            |       |  0.04

Nlocal:          43.75 ave          53 max          38 min
Histogram: 1 1 2 1 1 0 1 0 0 1
Nghost:        3082.38 ave        3135 max        3028 min
Histogram: 1 0 2 0 0 2 1 0 0 2
Neighs:          28497 ave       34102 max       24511 min
Histogram: 1 1 0 3 0 1 1 0 0 1

Total # of neighbors = 227976
Ave neighs/atom = 651.36
Ave special neighs/atom = 0
Neighbor list builds = 500
Dangerous builds not checked
unfix deform_p
unfix data
undump dump_pos${dir}
undump dump_pos6

# # Combine positive and negative
# variable C1${dir} equal 0.5*(${C1neg}+${C1pos})
# variable C2${dir} equal 0.5*(${C2neg}+${C2pos})
# variable C3${dir} equal 0.5*(${C3neg}+${C3pos})
# variable C4${dir} equal 0.5*(${C4neg}+${C4pos})
# variable C5${dir} equal 0.5*(${C5neg}+${C5pos})
# variable C6${dir} equal 0.5*(${C6neg}+${C6pos})

# Delete dir to make sure it is not reused
variable dir delete

# Calc and output
# include calc.mod.lmp

Total wall time: 0:52:43
