LAMMPS data file via write_data, version 2 Aug 2023, timestep = 2000, units = real

350 atoms
4 atom types

0 15.2382 xlo xhi
0 14.5028 ylo yhi
0 17.0085 zlo zhi
-6.2627 -0.4482 -0.642 xy xz yz

Masses

1 12.0107
2 1.00794
3 15.9994
4 28.0855

Atoms # full

7 2 4 1.228168518947372 -0.8669268483813066 2.5764317260664495 3.53103031863801 0 0 0
180 2 3 -0.7970729127916274 3.395750828425553 0.3648424766914047 3.315476840694803 0 0 0
14 2 4 1.431680966284126 0.008299345498666406 4.965879209579666 1.8810989242975367 0 0 0
17 2 4 1.215516848323918 -0.6500398808666037 6.088219988446915 6.4184216312619276 0 0 0
26 2 4 0.9985907772050296 4.613957346584881 1.432593941234382 3.5013128656829187 0 0 0
318 8 2 0.166646320126241 0.8060195283838327 0.9367412253278354 0.12166076907652158 0 0 0
33 2 4 1.270166015438052 1.7146436315468194 5.9919726554558235 4.28635952396209 0 0 0
9 2 4 1.046084804434221 2.780409251109201 -0.2693714427374292 7.262652483737385 0 0 0
36 2 4 1.490356569756589 4.582701106878433 5.6527615539046785 5.458784248164986 0 0 0
57 2 1 -0.6735223065123759 1.3982207684460322 0.856421876767304 6.602268223862536 0 0 0
62 2 1 -0.6467420525694114 4.629999712739237 3.146431269420507 2.500793783022685 0 0 0
77 2 2 -0.01989608539802235 0.7355112791309072 2.588978403746425 3.9214730929702992 0 0 0
201 2 3 -0.8103806518963099 4.164514331165711 6.839262234719947 6.638983701070462 0 0 0
79 2 2 0.01475670718746738 -0.5360482010429773 4.90550165097929 7.66472607448836 0 0 0
82 2 2 0.04544132883786689 5.094937389020794 1.584327528572797 1.7391538417161099 0 0 0
181 2 3 -0.7851451373606405 3.518477201155675 0.588183764108124 8.43715938538902 0 0 0
104 2 2 0.1452598029967538 1.7340310368399974 0.8936519493920275 5.508143423032159 0 0 0
105 2 2 0.166339902432246 1.483933615958724 1.8555728953443655 7.144633053225833 0 0 0
117 2 2 0.1055097547419524 3.6255204554267455 3.104129470582729 3.8453897311750964 0 0 0
118 2 2 0.1868206969112192 3.999842548636605 3.8350414523394543 1.7785969153896068 0 0 0
119 2 2 0.1677748542091085 5.576895242835402 3.6662646607892406 2.877491858680955 0 0 0
164 2 3 -0.8035886732652578 -1.3521007401811593 3.836360618341662 2.6435959562892277 0 0 0
165 2 3 -0.8109454224595715 0.9038342975241394 4.0988618820125495 0.7051570698081303 0 0 0
166 2 3 -0.8524072199527725 -0.7734070325974329 6.209633033779064 1.1821926923960735 0 0 0
167 2 3 -0.8374998094722649 -2.0602424488760813 6.037852096942956 5.616846456672448 0 0 0
182 2 3 -0.8227305060330102 5.866122486363662 1.1479261304245851 4.498135577677631 0 0 0
320 9 2 0.1964963562129994 -1.0852766074682414 2.982773008621488 7.389390436256278 0 0 0
189 2 3 -0.8500392220093796 1.0011298188537316 5.3429898136343414 3.0677950650288475 0 0 0
190 2 3 -0.8389648249618998 0.7612118159482942 5.913617016499461 5.551342752432933 0 0 0
191 2 3 -0.8424800028819935 5.426277327781313 2.3722277033201493 8.097581371768541 0 0 0
194 2 3 -0.8020662897303035 3.317176837712958 5.5005491447257535 4.447348059565412 0 0 0
195 2 3 -0.8420449561371698 4.783655093850973 4.321004217635162 6.36450554098665 0 0 0
334 14 2 0.01712719396916243 1.0165457245796676 0.5442457316773236 1.9326660835279093 0 0 0
316 8 2 0.1616114130067346 1.9610781228187903 1.9968091440849243 1.3343268317898387 0 0 0
315 8 1 -0.6883753872050452 1.752319653582366 1.4940889174875485 0.3182852039808593 0 0 0
103 2 2 0.2101221338190137 0.442065966686451 0.32828592366605075 6.787695753232556 0 0 0
271 4 2 0.1599004197284986 5.096576445496763 5.08124220159367 1.2282659843983619 0 0 0
269 4 2 -0.01168506477357351 6.235994534947842 2.9232265493670098 1.4168720940217792 0 0 0
8 2 4 1.347229368447383 0.7556859744489001 2.503560983489864 16.451395110011045 0 0 0
324 10 2 0.1597838250834471 0.566886833534094 -0.39960341772655655 14.817644424197923 0 1 0
13 2 4 1.240640486910176 0.8506572278961304 1.6532635204963233 11.193104376110329 0 0 0
18 2 4 1.262032114395187 -0.4149050539921008 3.9421911069818916 12.75408475873004 0 0 0
19 2 4 1.317991454352186 -1.407141442768342 6.226328178778261 10.929784416329772 0 0 0
28 2 4 1.400309120610967 4.361352741174265 1.7808649980954074 9.09568806647258 0 0 0
31 2 4 1.231826666805469 3.48154288816803 1.9561113883004104 14.64636687444015 0 0 0
35 2 4 1.274198541612524 1.476552106451146 6.000943056151643 9.96903662825948 0 0 0
11 2 4 1.316310147378724 2.5983195132725934 -0.37222829812324204 12.950917087658242 0 0 0
63 2 1 -0.6962543604971663 3.1494019041290477 3.324808764433178 9.354100997119872 0 0 0
64 2 1 -0.6862169076478236 3.881948733976877 2.818821000634123 13.023976162340414 0 0 0
67 2 1 -0.6561185338183443 2.320948164474212 5.674764816312529 14.569553438129553 0 0 0
83 2 2 0.00135743020295046 1.5874505849783298 2.1603763090545542 9.72624704658208 0 0 0
319 9 1 -0.6966870434164198 -0.905010257517553 3.111194535252626 8.54394679025305 0 0 0
85 2 2 0.02082668378643194 0.6497521370164221 4.703071870547982 13.914154086982617 0 0 0
121 2 2 0.1459068294966248 2.298237474426463 3.323073578158773 8.602814424090631 0 0 0
110 2 2 0.157750186260253 -2.486905382168517 5.767540508050308 8.819397611698657 0 0 0
120 2 2 0.1483929905949221 2.7699235031185943 3.2173673199750206 10.417502421709116 0 0 0
200 2 3 -0.8396167452870476 2.368437522622491 6.503253968593142 8.777384047174673 0 0 0
122 2 2 0.178126217085609 3.832344561090482 4.203843966893255 9.258667751396978 0 0 0
123 2 2 0.1732316393314303 2.9575523329874134 3.425775829302925 12.822087286906239 0 0 0
124 2 2 0.2639142256892708 4.238012722223959 2.256435358825247 12.143537026453705 0 0 0
125 2 2 0.1552307874715637 4.77746533973016 3.476575330581494 13.45693331221588 0 0 0
132 2 2 0.2496360310305586 2.1612654015681856 4.588783728728008 14.80387162996518 0 0 0
133 2 2 0.167742031076136 3.431660219270612 5.874820497179776 14.501313501678505 0 0 0
134 2 2 0.1849452995029177 1.7705707153795474 5.936180886840187 13.513380110976055 0 0 0
161 2 3 -0.8402511512816727 -0.5947129355990634 2.181438890521725 15.62103675187774 0 0 0
162 2 3 -0.8028881412640535 -0.42230979953762776 0.771253284876853 10.53924835835678 0 0 0
163 2 3 -0.846437546440968 1.8452505135409587 0.6630928124069378 11.951785535587549 0 0 0
168 2 3 -0.8193777033941564 -1.565926308316052 3.082711508052899 13.408699886966819 0 0 0
169 2 3 -0.9076373394250513 0.48889254370230173 2.9666279361061525 11.875578459838637 0 0 0
170 2 3 -0.8539906002602667 -1.1618957586381604 5.192312737319817 12.016261089884612 0 0 0
84 2 2 0.001014952798875287 1.517822361851865 4.311263253619072 9.794425870632649 0 0 0
184 2 3 -0.7913916797173374 3.172675447470561 0.42967877643675323 14.247772183626624 0 0 0
185 2 3 -0.7431585242857817 4.735661859811141 2.269344812802742 15.791197701426078 0 0 0
186 2 3 -0.7898990671248689 1.9402206653159815 2.889334818409178 15.452866124268034 0 0 0
187 2 3 -0.7948165402153452 4.962549179993552 1.4922618962539371 10.55197919931171 0 0 0
135 2 2 0.1363991660157136 4.588260209390904 4.875200177298852 11.606755345604498 0 0 0
193 2 3 -0.7972130059436905 -0.08521817306231033 6.414360171612217 9.898866962612784 0 0 0
198 2 3 -0.8302889866097968 2.171890985414216 6.272482959477825 11.314622302338035 0 0 0
322 9 2 0.1557830444752286 -1.5503093998276993 4.028855337768513 9.024309338929799 0 0 0
321 9 2 0.1334349063189088 0.1380185825772911 3.1228205710675416 8.851674464164972 0 0 0
272 4 2 0.1895007152304634 4.480825752837369 5.223284956140982 16.44076734818051 0 0 -1
197 2 3 -0.8350633698137107 0.28620042646465055 6.629291645881986 16.120630036162538 0 0 0
336 16 2 -0.01285662240218155 -2.3508419149035555 6.475052394854407 15.949758870263993 0 0 0
317 8 2 0.22391630746869 2.1916389595425922 0.41399893513779606 16.903235710425804 0 0 -1
1 1 4 1.016430332035917 -4.033621979644054 13.987299890235288 2.5175183622855157 0 0 0
2 1 1 -0.6768083579268775 -4.685794721953563 12.703626838878526 3.7259919895309936 0 0 0
3 1 2 0.1584281248665774 -4.493873115669758 12.803904119165296 4.833123258025066 0 0 0
114 2 2 0.1646229588136611 -3.866831973953233 9.602632598235731 5.722483515792752 0 0 0
6 1 3 -0.8003061354120394 -3.442167586838849 13.317172163608088 1.1901566583552379 0 0 0
111 2 2 0.1598784679190944 -2.4742319004198263 9.145856428572198 3.3818457082681954 0 0 0
20 2 4 1.276063993300387 -1.5285339869423324 9.884486167633145 1.406814270706176 0 0 0
22 2 4 0.9615317436042811 -1.2892576291486921 9.043556474566042 7.369973929110497 0 0 0
80 2 2 0.04689276647171839 -3.0314504732002976 8.871875934056828 7.831585113759369 0 0 0
39 2 4 1.138956006177984 -0.23354377053324982 11.632229108739653 3.844061526485211 0 0 0
40 2 4 1.043045794806335 3.1541259113776796 7.446917501509615 7.676712210780647 0 0 0
42 2 4 0.9829370797622555 1.7494835484316758 10.882097195359599 6.239287426302679 0 0 0
60 2 1 -0.6869744302328568 -2.745881583429796 8.71182680801657 2.378908045085874 0 0 0
61 2 1 -0.6632185602462503 -2.9071121975887815 9.848481322574765 6.448935751448286 0 0 0
69 2 1 -0.6769374953067869 0.8233167094561913 13.150748518474492 3.1969721380011777 0 0 0
70 2 1 -0.6620419116918275 -1.688472737717999 12.465264991808947 4.8711334990661275 0 0 0
87 2 2 -0.003512449037446097 1.8756955845930723 7.692498490473505 3.9867498982253355 0 0 0
88 2 2 0.02657291948086779 1.901815000829096 8.18025298882294 6.605193873696597 0 0 0
100 2 2 0.097642123149192 0.7385299232007204 10.35252145086544 7.59164347333106 0 0 0
78 2 2 0.02607565841310869 -2.475726419105813 14.01285104932795 5.807775812787257 0 -1 0
71 2 1 -0.708650559920575 2.8049655361923147 9.521876274973707 7.697643867852299 0 0 0
287 5 2 0.1807500642121961 2.480089548948207 8.223574751694484 2.215584450947336 0 0 0
115 2 2 0.07791639516623862 -1.561769906878199 9.929215669855395 5.658858958117675 0 0 0
116 2 2 0.19012534803544 -3.093460318408122 10.852566015000503 6.835479351942856 0 0 0
138 2 2 0.2034054388895038 0.6546015576407094 13.189700551489521 2.1065871665755598 0 0 0
89 2 2 0.05164648698335789 3.0404645425757755 9.642309596982185 5.844726480636055 0 0 0
140 2 2 0.2219024757362996 0.45631137261244437 14.107674956491193 3.6896305047527367 0 0 0
141 2 2 0.1688521833032781 -1.4622134495096917 11.924470283712607 5.86000794763884 0 0 0
142 2 2 0.1987879606028985 -2.783340187836657 12.539721478833203 4.561243073519942 0 0 0
143 2 2 0.1932232228815758 -1.1168737211146036 13.513649109979891 4.940502363265535 0 0 0
171 2 3 -0.8288110830247671 -0.6037951489405797 8.844015756797889 0.6222109840427075 0 0 0
172 2 3 -0.816268536990586 -2.5873280079024132 10.889309728048762 0.3688264725540887 0 0 0
173 2 3 -0.8215910425237136 -0.778207431689198 7.5552071935687755 7.162617097205143 0 0 0
174 2 3 -0.8250341152393531 -4.076596691221799 12.835640081777429 7.831968009132521 0 0 0
4 1 2 0.1690631723790566 -4.298901237709103 11.76931856137116 3.218667410605681 0 0 0
199 2 3 -0.8121065279010941 -0.8274076105656848 10.696464412601978 2.6445936988115073 0 0 0
202 2 3 -0.7674630617132338 -0.5409445250059459 10.30940524939351 8.38901518958539 0 0 0
203 2 3 -0.8496136963976241 0.4783538699832637 13.105718347745293 8.30622366194861 0 0 0
205 2 3 -0.8171738682080588 0.6881998958055884 10.852218103807028 4.922367384134037 0 0 0
337 17 2 -0.001073870678548158 -2.859646773295608 8.430071922712067 5.048513745873284 0 0 0
278 5 1 -0.6664873060107168 2.0139059105652852 9.127328726089253 2.6653283703799246 0 0 0
285 5 2 0.2462449947930025 1.1566170489329173 9.54578256665492 2.055189908963771 0 0 0
286 5 2 0.1820495904824339 1.8293428612010714 9.112303441842865 3.797928425747005 0 0 0
113 2 2 0.1733553068535759 -3.8140492159057433 9.049781109704853 2.0658580337389845 0 0 0
16 2 4 1.247765296147739 -0.5629276824161772 7.323154261358052 0.010757946251030364 0 0 0
112 2 2 0.2096042594993915 -2.4189722865285423 7.643689291089757 2.2349112004669496 0 0 0
99 2 2 -0.02713648648735805 -3.367258109540178 8.031800058158508 0.5998133196859813 1 0 0
146 2 2 0.2042243295985162 2.1214002521706496 9.821397690593615 8.466832982061106 0 0 0
45 2 4 1.338489218631693 2.048897737608616 11.386993852664279 11.662463114216767 0 0 0
23 2 4 0.9980132137062719 -4.511898700850552 11.93228875439999 9.013207113017256 0 0 0
24 2 4 1.02513412617233 -3.012414100055426 9.006307964012422 11.877113053732984 0 0 0
25 2 4 1.523453472790528 -2.369617776436329 11.87736762729032 11.193511486323107 0 0 0
30 2 4 1.430823920254957 0.9808852203184132 13.763289414444841 13.293914296028909 0 0 0
37 2 4 1.353514484445929 1.7075245481110959 7.1459649518415045 15.685090149482221 0 0 0
41 2 4 1.490609896498218 0.11674184584763775 11.889132829622218 9.309291032689853 0 0 0
43 2 4 1.452723271153507 2.686852148445827 9.221129824823706 13.626701934066078 0 0 0
44 2 4 1.339038690832053 -0.5045588538544078 11.980382922666964 15.613503984295177 0 0 0
210 2 3 -0.7254103518925724 -0.18686882737042187 13.220943059468922 14.29508425885075 0 0 0
72 2 1 -0.6684168520043936 -3.797598755307418 8.628316652430149 13.512330496550902 0 0 0
73 2 1 -0.6958564927725189 -0.8153838075183024 10.297799025620504 14.858846027824942 0 0 0
213 2 3 -0.7927752357505855 1.840334662512248 9.943624757259421 12.316731592144784 0 0 0
339 19 2 0.0304777468705392 -5.007020516650216 13.197760318825793 13.417734233239484 0 0 0
211 2 3 -0.789364178157293 -1.7723434992698757 12.377356064003791 16.541448662619636 0 0 0
147 2 2 0.1499611790633755 -3.621354351799004 7.480706043965601 14.048237784769523 0 0 0
38 2 4 1.036933574563876 3.648244764948788 7.074028278586854 11.732362718303397 0 0 0
149 2 2 0.2022415549769825 -3.3638253107479024 9.365843938571592 14.180880820473487 0 0 0
150 2 2 0.2837394600148652 0.0942187834954033 9.623053497641507 14.815796002918427 0 0 0
151 2 2 0.2783689697961603 -1.2827384255144854 10.495604993747461 13.795504027375022 0 0 0
152 2 2 0.2014270855644663 -1.5548547129881047 9.856848351228312 15.601132446496209 0 0 0
175 2 3 -0.7721914377674447 -2.2250466916219014 7.666407376760804 11.443276567841362 0 0 0
176 2 3 -0.7913643909965188 -4.220291685427562 11.810297010129151 15.702794836887609 0 0 0
177 2 3 -0.8797990356914975 -3.545436671687051 11.589265295972266 10.182869343856868 0 0 0
178 2 3 -0.7626559483638662 -2.0731054119023793 10.45013978391101 12.126253679335086 0 0 0
179 2 3 -0.8106382043325127 -2.7596177689403616 13.060140653506853 12.28367445578751 0 0 0
209 2 3 -0.822638433361807 0.8592867232085912 11.941711719600319 16.481023234696625 0 0 0
196 2 3 -0.828438538746519 2.9323760246250528 7.067666371600707 16.737702808845743 0 0 0
212 2 3 -0.8336489016224319 1.4841635949573229 11.387269317446288 10.163014970599766 0 0 0
204 2 3 -0.7923570536894216 -0.9828764880151971 12.362715064382447 10.246782017651071 0 0 0
207 2 3 -0.8359181508053863 1.664114740236959 8.592213449012062 14.685229324837797 0 0 0
21 2 4 1.523675662953464 -3.2520366047454194 11.775090230473428 16.958350890101762 0 0 0
81 2 2 0.01252225026105904 -4.393862862709548 9.263813023742644 10.732500530363133 0 0 0
15 2 4 1.270295280721815 11.845962228776925 6.7770750413568015 5.256155633094473 0 0 0
46 2 4 1.235687276032506 9.627431037756727 2.414499208454179 3.283406803743532 0 0 0
49 2 4 1.52294600636403 11.925736275686038 1.7979744482209896 5.171942733142426 0 0 0
50 2 4 1.21108322286627 10.886775210276854 5.101077658157733 2.857257541746038 0 0 0
51 2 4 1.34318487548354 7.387903731782798 6.3340607315929365 4.651057881491279 0 0 0
228 2 3 -0.87017289899656 10.588380974408324 6.865464066308843 6.271007922000531 0 0 0
53 2 4 1.350596143660883 10.550080799656111 3.42123579404884 7.5140366660657385 0 0 0
54 2 4 1.288384424824325 9.348633130411551 6.182019305582168 6.949686447874096 0 0 0
346 26 2 0.1774604763498691 9.674301181888158 0.5491658152108571 0.5652165229754887 0 0 0
91 2 2 0.01256910392099051 9.529967000334372 1.773465621358079 1.6751771106776665 0 0 0
94 2 2 0.1153464272996194 12.294920277150185 4.093944115408236 2.660580036964992 0 0 0
95 2 2 0.1259160677397227 8.301626642091232 5.168061969781775 3.8051975424669364 0 0 0
34 2 4 1.412089535425261 5.9583727673747555 3.518552023051859 7.120710519363874 0 0 0
347 27 2 0.1517470031457401 7.741655165359267 0.57895526179549 0.9015344238183608 0 0 0
297 6 3 -0.8299031712121711 12.303430209093966 1.6311477984985903 0.5992837358092084 0 0 0
129 2 2 0.1981303118549403 6.6127217301354975 5.762614058695538 8.09907724655972 0 0 0
192 2 3 -0.8231524763950161 7.1014526911607465 3.026143439786323 6.107556641645297 0 0 0
215 2 3 -0.8543799516013604 8.552683975007083 1.8075422793851683 4.224865783470298 0 0 0
219 2 3 -0.7736561212544352 13.591721210126249 2.547549715708428 4.955751845300686 0 0 0
220 2 3 -0.8975476806616357 11.041784727837067 1.955508915963841 3.8315950825948444 0 0 0
221 2 3 -0.8565353567465711 12.206027207733566 0.24262542695353526 5.598425134383348 0 0 0
222 2 3 -0.8087798277309487 9.393664283655836 4.138658784272804 3.21448161115211 0 0 0
223 2 3 -0.8337649942242197 11.284686333666958 6.284161187303504 3.8123661334555137 0 0 0
224 2 3 -0.8384813978616503 5.9147240273402915 5.98594784392821 4.496987263639503 0 0 0
225 2 3 -0.8281595252459376 10.642731354671161 5.7048679082005185 1.4101047463334173 0 0 0
268 4 1 -0.6676913952115456 5.6419745597470525 5.340092421044625 0.20738868850185235 0 0 0
227 2 3 -0.8519493162890062 11.245588562769557 2.6535101915505703 6.3628033720306245 0 0 0
226 2 3 -0.8479709737881502 9.7506892478527 2.3905896711248324 8.426654310496572 0 0 0
229 2 3 -0.8467727501838492 7.899432836956408 6.364303438524568 6.220030402096356 0 0 0
230 2 3 -0.8709753115339287 9.757162691434763 4.738787611329625 7.21111933460557 0 0 0
216 2 3 -0.8116988180686159 12.989410834491308 0.52677847513164 8.151380440895316 0 0 0
294 6 4 1.013186214543171 12.886743128043163 0.5817986763681204 1.6870129998858503 0 0 0
183 2 3 -0.8355681961072893 7.713339723474555 0.35395775506477234 6.343377289149392 0 0 0
296 6 3 -0.8130366860767927 14.125717918417115 1.1528912160444604 2.7018469916343726 0 0 0
29 2 4 1.511257460407896 7.386437395593322 1.6016586558656865 5.325903782038318 0 0 0
280 5 2 0.02995080204954653 5.437516582641193 7.051148956517615 1.190520024168702 0 0 0
279 5 1 -0.6836993369999413 8.784510535985417 0.025543130099704978 1.1109259447223399 0 1 0
270 4 2 0.1556107066546661 6.711330298246079 5.829598874237083 0.3148491817351966 0 0 0
52 2 4 0.9591004722571009 10.394830729333622 7.142700870087349 0.8734494178952226 0 0 0
333 13 2 0.06923373198725426 11.348273127504301 -0.09571837662936837 2.602828451179076 0 1 0
340 20 2 0.01215238270584403 12.633119287869908 4.105162469169322 0.035967431443799644 0 0 0
10 2 4 1.018254115599787 13.628088066231303 1.5465858581270147 9.337559762675268 0 0 0
310 7 2 0.1114926088170961 11.35503836046781 6.530654914738912 15.123842105364565 0 0 0
32 2 4 1.336701726879532 6.690977720196361 1.404100389364479 11.100358689611067 0 0 0
48 2 4 1.236051257006838 9.325263468277946 1.1002573885601188 9.30824801988625 0 0 0
58 2 1 -0.6831299147219047 12.202969460020208 2.223179510201796 10.55594421321339 0 0 0
65 2 1 -0.6436426323416776 7.160893704141769 3.202312890391748 11.415587575844304 0 0 0
68 2 1 -0.666081144312879 5.022060072139973 5.796502967240165 12.240551647442507 0 0 0
93 2 2 -0.01564593732724983 10.608175856311023 1.0747607639148475 10.453725377949981 0 0 0
188 2 3 -0.828057167906598 6.900353948271847 0.5907807540014158 12.519866159176335 0 0 0
106 2 2 0.1302059204412075 12.035275430782319 1.207512329485179 11.134584796470554 0 0 0
107 2 2 0.1597187778011761 11.275306955840408 2.7005573145747372 10.103876472188567 0 0 0
108 2 2 0.1962028203759178 12.749530817231173 2.9753749735375923 11.213080361284263 0 0 0
126 2 2 0.1903148787922714 8.238763950068353 3.356596189293338 11.732459246995635 0 0 0
127 2 2 0.1621457369746956 6.4350809426522435 3.561010244416047 12.225888230703518 0 0 0
128 2 2 0.1684152956637113 6.921653381886597 3.741137739943027 10.318383761961403 0 0 0
342 22 2 0.1472543613332119 11.488096618788044 5.88861142989844 10.275594451034259 0 0 0
136 2 2 0.1450054125256097 4.873361158706308 5.611188787866883 13.340457497786328 0 0 0
12 2 4 1.185016736778531 13.56634396331817 1.818608938843341 14.447780528351666 -1 0 0
109 2 2 0.1486578095923894 12.353456328893643 4.179560799537061 10.067179163479976 -1 0 0
96 2 2 0.01005786459955583 9.425909429458175 6.480655820571865 16.250531083481327 0 0 -1
130 2 2 0.1898501193676161 7.654029647384385 4.282683802475763 8.756279731819308 0 0 0
218 2 3 -0.8329344051035156 7.9268572844341305 1.2260934333732967 10.10817148003783 0 0 0
243 3 1 -0.6594667126259369 8.130549838611428 6.0711399002270285 11.085060367200963 0 0 0
131 2 2 0.1526936801038747 5.910231476557926 4.565829758294357 9.434825201126873 0 0 0
248 3 2 0.1708283232179923 7.919584934276245 6.5206769566965495 14.847621420509338 0 0 0
256 3 2 0.1580463811120715 7.571159913194799 5.551153998716402 10.181213927130486 0 0 0
257 3 2 0.1565137061414843 8.012902204480058 5.425035541206093 12.021414230926032 0 0 0
258 3 2 0.09749304982859733 9.325771319301879 6.177409842890654 10.697622387744726 0 0 0
298 7 4 1.252928553775801 11.382917412116777 2.065623419762736 16.52631299331833 0 0 0
299 7 4 1.209346677562713 8.68942111899524 2.962895094692688 15.583795185665156 0 0 0
300 7 4 0.8070197253956645 9.962181849435252 5.009635701407659 13.638886091495804 0 0 0
301 7 1 -0.6709059950764419 10.217494649913247 3.6798393524912116 12.206982058569004 0 0 0
302 7 1 -0.6610168647904471 11.695913741351285 5.571082963832674 14.589422161931205 0 0 0
303 7 2 0.0225086219593501 8.543493581506844 1.851524356316414 14.324613717356701 0 0 0
304 7 2 0.007319429353313064 9.044731526842424 6.3009331897943275 12.808710818041463 0 0 0
305 7 2 0.1605318789892979 9.638154770706858 2.74478454726567 12.466960783599976 0 0 0
306 7 2 0.1915796544577006 11.362735098088633 3.698031296593179 12.331082871008391 0 0 0
307 7 2 0.1385033173912558 9.835894583587333 4.288163574814716 11.297754931359943 0 0 0
349 29 2 0.1706182027661266 7.947050177430532 0.5625849942666608 15.21315524825675 0 1 0
309 7 2 0.1689583016487713 12.038629435931625 4.740165186864311 15.281101362118914 0 0 0
137 2 2 0.1470915068078967 6.241927786408614 5.935464964923364 11.829320253406046 0 0 0
311 7 3 -0.8012284337094907 12.060330063625146 1.5867494084995548 15.029355406303992 0 0 0
312 7 3 -0.8646690622149041 9.91025797671687 2.463713629119082 16.500648568430872 0 0 0
313 7 3 -0.8251735846045285 7.2290087914517915 3.0010549512376685 16.181968230941848 0 0 0
314 7 3 -0.7877749934241972 9.010485238205503 4.4249119005963164 14.681237959274403 0 0 0
328 12 1 -0.6684900173489785 8.622382430287342 -0.09392424462468107 14.54348278366459 0 0 0
329 12 2 0.1559284062755512 9.305656882516338 0.4109524069343172 13.787561523662308 0 0 0
335 15 2 -0.01214673831362666 13.872138282708313 0.2487028370953911 13.85032187828473 0 0 0
267 4 4 1.059215705055707 5.815746663046946 2.959512498535528 16.800011776140902 0 0 -1
66 2 1 -0.6826407576170795 6.601138917585899 4.71730023867474 8.60031038275861 0 0 0
59 2 1 -0.6697326204538473 12.394870547105215 5.384152090715315 9.823819295151845 -1 0 0
308 7 2 0.1937301615710466 12.191359288202133 5.664838499496373 13.569327096520011 0 0 0
97 2 2 -0.001678151923108189 11.795580901273423 4.052988640998657 8.536620379524779 0 0 0
156 2 2 0.1681176950858099 11.009583501165412 9.126564027430042 3.69041183932443 0 0 0
144 2 2 0.1781933146246913 3.798606159435767 10.081250087121996 7.905971021882797 0 0 0
55 2 4 1.098473891436777 8.52855601052452 8.743596253239108 3.130028498262421 0 0 0
332 13 2 0.192066383198745 5.598498566332187 12.332244737481751 1.7121580935231457 0 0 0
74 2 1 -0.6744174797107443 7.558545713403345 10.523431988111653 2.8181669265825535 0 0 0
75 2 1 -0.6615878509425044 9.926280364869882 9.287217146194662 4.312130358297431 0 0 0
206 2 3 -0.8155902233183967 2.4088823592356516 12.23420141063599 6.595410002677589 0 0 0
92 2 2 0.05065147659960337 4.72233925152219 13.63354885447828 7.58058603339649 0 -1 0
47 2 4 1.233780209503183 6.219895076327322 14.026076905117774 7.02170906453018 0 -1 0
139 2 2 0.190886060436035 1.9188524869782941 12.943958737473261 3.4382907866941994 0 0 0
153 2 2 0.1986765414723582 6.909791715137816 10.71382813461946 1.8949135870259137 0 0 0
154 2 2 0.1394965013604475 8.298496811226714 11.359737609156877 2.948653579119243 0 0 0
155 2 2 0.1704033948804149 6.831453289228259 10.42417616474303 3.6614083171386453 0 0 0
345 25 2 0.1770914924221946 9.778375662704853 11.119780496368154 0.4262860215910081 0 0 1
157 2 2 0.1948333991575382 9.697480022287936 8.606875163777755 5.213907541883088 0 0 0
158 2 2 0.1287225226725756 9.585540613760577 10.379703391428762 4.467591258493547 0 0 0
275 5 4 1.309739756188266 2.6185506203576723 12.80360122413708 0.32766181695660074 0 0 0
27 2 4 1.500469467871598 1.7370080001295325 13.742841305612304 7.509652953988973 0 0 0
232 2 3 -0.7683533803776318 9.39746536961187 8.07133616155166 1.6973905604636652 0 0 0
330 13 1 -0.6588889713284813 6.185435570511312 13.188460512342797 2.0124304544778457 0 0 0
273 5 4 1.260290201382849 4.798529782586365 8.361043202002628 0.28620549170006054 0 0 0
274 5 4 1.311999773541722 3.5589658918564586 10.335975783563145 2.222483441894213 0 0 0
250 3 2 0.1319015924442713 9.113361838407315 9.012191498090328 8.366890524192348 0 0 0
276 5 4 0.9346698520334824 4.757111491064947 11.677597650562468 4.747944511730293 0 0 0
277 5 4 0.8698451141865938 7.249159884958009 11.389535791564688 6.099329146051962 0 0 0
331 13 2 0.1397872704017799 6.844238494035471 12.975212914751372 2.993585762350651 0 0 0
295 6 2 0.03711053199433917 7.150878177560169 13.392953795352474 0.6886961408878816 0 -1 0
281 5 2 0.005868494800906091 5.474422164029571 13.00480576695597 3.833086443920466 0 0 0
282 5 2 0.07092013682105766 3.6724595544649663 12.700422180329129 5.524044700612934 0 0 0
283 5 2 -0.0273692821917997 8.01566549055459 11.446789153646607 4.495822192837021 0 0 0
284 5 2 -0.04042812515832728 8.008563975309924 10.068605527860706 6.858635923096405 0 0 0
98 2 2 -0.01541509425952161 9.254023151459066 7.023964568543225 8.451207905066314 0 0 0
289 5 3 -0.8544482344392091 4.580351493080139 9.509906787125576 1.3209811157628408 0 0 0
231 2 3 -0.8320865623745441 7.714046151566332 7.604278625144279 3.834830975394174 0 0 0
291 5 3 -0.8282236247065604 4.045377160878389 10.768245087203702 3.6835961832203816 0 0 0
292 5 3 -0.7888034926957107 5.675219547940999 10.925527837328914 5.845007999335902 0 0 0
293 5 3 -0.8156928704952783 7.2537686969229735 12.785521407034361 6.829404775261572 0 0 0
290 5 3 -0.8158029339054506 2.904982169468919 11.722887302104372 1.4567336081167883 0 0 0
338 18 2 -0.02465539321966544 10.017787098332366 10.433348116067489 8.469207747728259 0 0 0
288 5 2 0.1623905599874036 2.658443078418775 14.31666541891639 2.212571863839641 0 0 0
217 2 3 -0.8433974810914191 2.988449318685906 14.148237790668501 8.407314638220374 0 0 0
5 1 2 0.1161468371763796 9.4109197711599 12.895050540997257 3.4130438987004013 -1 0 0
344 24 2 0.1592285227523317 8.281151836954608 13.225472746178554 13.682357945984835 0 0 0
56 2 4 1.108493115518427 4.549171779986723 11.384969933285632 15.195101347082254 0 0 0
76 2 1 -0.6774877918180664 5.524810505000893 12.556790776719916 14.137579913422009 0 0 0
86 2 2 -0.006284706379121761 4.363947029398888 7.842508125945292 10.365805743988576 0 0 0
90 2 2 0.01471803851062804 3.8133489059263077 11.554530805047799 11.352651979188572 0 0 0
101 2 2 0.03828313120696421 5.730544287324392 10.552361444905394 16.093918448545807 0 0 0
254 3 2 0.1695127226081768 6.28865803852232 8.122625578556407 8.689808616261486 0 0 0
252 3 2 0.132712722452978 9.72751842347799 9.765925614044113 9.965085963514055 0 0 0
159 2 2 0.1932556934914034 5.365021134238009 12.045701336299366 13.138483888233404 0 0 0
160 2 2 0.1586679090895705 6.673796845741407 12.696122329953653 14.47367049117874 0 0 0
214 2 3 -0.8901082449925031 1.6933161010830322 12.625444483353586 12.522145207850087 0 0 0
233 2 3 -0.8154511210019451 3.7429335360145206 10.479867449760714 14.20810215440623 0 0 0
234 2 3 -0.8015553279658545 3.5817890055100268 12.256758450597937 16.162622711133316 0 0 0
235 3 4 1.106825651257919 9.427622395261615 11.408443644059458 15.139414792805415 0 0 0
236 3 4 1.059955299927973 6.276680054147986 8.19957963037855 14.847606770799137 0 0 0
237 3 4 0.8855309396342939 7.936923861098255 8.004859026686212 10.740985408143583 0 0 0
238 3 4 1.367004044717916 7.735073328185768 10.165299567543029 12.985844107833671 0 0 0
239 3 4 0.6993269800783298 6.71047449697243 12.51687308555648 10.971010122363774 0 0 0
240 3 1 -0.690859965409897 7.903837329648951 7.443382454102483 15.473116424965491 0 0 0
241 3 1 -0.6602780639430972 9.57921504715319 8.7765336000349 9.361121651845963 0 0 0
242 3 1 -0.6734557743961309 6.256750581706981 8.072209506602583 9.80121964647256 0 0 0
244 3 1 -0.6608453958617906 5.0945472781983945 12.012247326259741 10.054088109460478 0 0 0
246 3 2 0.04522601932637525 6.655084587482194 12.164259104662431 9.145750008217167 0 0 0
247 3 2 0.1503638581699801 8.759823550784493 8.165028902950372 15.212796015759684 0 0 0
326 11 2 0.1470500294852972 7.673956567460345 11.17281859854776 16.875622916384646 0 0 -1
251 3 2 0.1302277994743752 10.586904419046862 8.165569117442708 9.218156121316438 0 0 0
343 23 2 0.1335269754122869 7.838451471394045 13.433956425196943 15.469381630089797 0 0 0
253 3 2 0.1292599990997339 6.025739898303878 6.920884442419949 10.219200506552932 0 0 0
323 10 1 -0.6724417083396178 8.697229380182083 13.291559327658875 14.726300892925387 -1 0 0
255 3 2 0.1576152768582652 5.789808581063461 8.951124146904416 10.323835975087551 0 0 0
259 3 2 0.2100507248407816 4.333472375863191 12.252624967873949 9.376326005252864 0 0 0
260 3 2 0.01527807405828919 4.9441034468244585 13.028880845510345 11.500827994771617 0 0 0
261 3 2 0.1456987216905213 5.107529771564538 10.914784247455101 10.39737306406732 0 0 0
262 3 3 -0.8483088529190961 5.341897132109665 8.07912831551601 16.10356576714452 0 0 0