LAMMPS (2 Aug 2023 - Update 2)
  using 2 OpenMP thread(s) per MPI task
# Initialization
units           real
dimension       3
boundary        p p p
atom_style      full
timestep        0.5   # fs

# Define MD parameters
variable nevery equal 10                  # sampling interval
variable nrepeat equal 10                 # number of samples
variable nthermo equal ${nevery}*${nrepeat}           # interval for thermo output
variable nthermo equal 10*${nrepeat}           
variable nthermo equal 10*10           
variable nfreq equal ${nthermo} # length of one average
variable nfreq equal 100 
# 1 ps : 1e3 fs / 0.5 fs = 2e3 steps
variable nequil equal 20*${nthermo}       # steps of equilibration run 20
variable nequil equal 20*100       
variable nrun equal 20*${nthermo}          # stpes of equilibrated run 20
variable nrun equal 20*100          
variable temp equal 300.0                # temperature of initial sample
variable tdamp equal 50.0                 # time constant for thermostat
variable seed equal 123457                # seed for thermostat
variable ufac equal 1.01325e-4         # pressure unit conversion, from atm to Gpa
variable up equal 0.01                  # the deformation magnitude 2.0e-2

# Read the initial sctructure
# box tilt large
variable structure string 333U-50C-20-vasp
read_data       ${structure}.data
read_data       333U-50C-20-vasp.data
Reading data file ...
  triclinic box = (0 0 0) to (15.2382 14.5028 17.0085) with tilt (-6.2627 -0.4482 -0.642)
  2 by 2 by 2 MPI processor grid
  reading atoms ...
  350 atoms
Finding 1-2 1-3 1-4 neighbors ...
  special bond factors lj:    0        0        0       
  special bond factors coul:  0        0        0       
     0 = max # of 1-2 neighbors
     0 = max # of 1-3 neighbors
     0 = max # of 1-4 neighbors
     1 = max # of special neighbors
  special bonds CPU = 0.001 seconds
  read_data CPU = 0.007 seconds

# Energy minimization
print "*****Minimization starts.*****"
*****Minimization starts.*****
velocity        all create ${temp} ${seed} dist gaussian
velocity        all create 300 ${seed} dist gaussian
velocity        all create 300 123457 dist gaussian
minimize 1.0e-6 1.0e-6 100 1000
WARNING: No pairwise cutoff or binsize set. Atom sorting therefore disabled. (src/atom.cpp:2366)
WARNING: Communication cutoff is 0.0. No ghost atoms will be generated. Atoms may get lost. (src/comm_brick.cpp:210)
Per MPI rank memory allocation (min/avg/max) = 6.865 | 6.865 | 6.865 Mbytes
   Step          Temp          E_pair         E_mol          TotEng         Press     
         0   300            0              0              312.09081      3795.4414    
         1   300            0              0              312.09081      3795.4414    
Loop time of 8.82769e-05 on 16 procs for 1 steps with 350 atoms

56.1% CPU use with 8 MPI tasks x 2 OpenMP threads

Minimization stats:
  Stopping criterion = search direction is not downhill
  Energy initial, next-to-last, final = 
                     0                  0                  0
  Force two-norm initial, final = 0 0
  Force max component initial, final = 0 0
  Final line search alpha, max atom move = 0 0
  Iterations, force evaluations = 1 0

MPI task timing breakdown:
Section |  min time  |  avg time  |  max time  |%varavg| %total
---------------------------------------------------------------
Pair    | 0          | 0          | 0          |   0.0 |  0.00
Bond    | 1.31e-07   | 2.1875e-07 | 3.46e-07   |   0.0 |  0.25
Neigh   | 0          | 0          | 0          |   0.0 |  0.00
Comm    | 1.075e-06  | 1.212e-06  | 1.378e-06  |   0.0 |  1.37
Output  | 0          | 0          | 0          |   0.0 |  0.00
Modify  | 0          | 0          | 0          |   0.0 |  0.00
Other   |            | 8.685e-05  |            |       | 98.38

Nlocal:          43.75 ave          50 max          39 min
Histogram: 2 0 1 0 2 0 2 0 0 1
Nghost:              0 ave           0 max           0 min
Histogram: 8 0 0 0 0 0 0 0 0 0
Neighs:              0 ave           0 max           0 min
Histogram: 8 0 0 0 0 0 0 0 0 0

Total # of neighbors = 0
Ave neighs/atom = 0
Ave special neighs/atom = 0
Neighbor list builds = 0
Dangerous builds = 0
min_style cg

# Equilibration
include ff.mod.lmp
# Setup forcefield, system
# undefine any fix ave/* fix before using reset_timestep
if "$(is_defined(fix,avgp))" then "unfix avgp"
reset_timestep 0

# Assign the force field
pair_style reaxff NULL safezone 3.0 mincap 150
# pair_coeff * * CHONSSi.ff O Si
# pair_coeff * * CHOSiNa.ff O Si
# pair_coeff * * SiOCHN_2018.ff O Si
# pair_coeff * * PDMSDecomp.ff Si O
pair_coeff * * CHONSi.ff C H O Si
# pair_coeff * * CHOFe.ff O Si

# charge method for reaxff
fix myqeq all qeq/reaxff 1 0.0 10.0 1.0e-6 reaxff maxiter 400
# Setup neighbor style
neighbor        2 bin
neigh_modify    every 10 delay 0 check no

# Setup output
fix avgp all ave/time  ${nevery} ${nrepeat} ${nfreq} c_thermo_press mode vector
fix avgp all ave/time  10 ${nrepeat} ${nfreq} c_thermo_press mode vector
fix avgp all ave/time  10 10 ${nfreq} c_thermo_press mode vector
fix avgp all ave/time  10 10 100 c_thermo_press mode vector
thermo		${nthermo}
thermo		100
thermo_style custom step temp pe press f_avgp[1] vol
thermo_modify norm no

# NVT
fix 4 all nvt temp ${temp} ${temp} ${tdamp}
fix 4 all nvt temp 300 ${temp} ${tdamp}
fix 4 all nvt temp 300 300 ${tdamp}
fix 4 all nvt temp 300 300 50
thermo_style custom step temp pe press f_avgp[1] density vol
WARNING: New thermo_style command, previous thermo_modify settings will be lost (src/output.cpp:903)
run ${nequil}
run 2000

CITE-CITE-CITE-CITE-CITE-CITE-CITE-CITE-CITE-CITE-CITE-CITE-CITE

Your simulation uses code contributions which should be cited:

- pair reaxff command: doi:10.1016/j.parco.2011.08.005

@Article{Aktulga12,
 author = {H. M. Aktulga and J. C. Fogarty and S. A. Pandit and A. Y. Grama},
 title = {Parallel Reactive Molecular Dynamics: {N}umerical Methods and Algorithmic Techniques},
 journal = {Parallel Computing},
 year =    2012,
 volume =  38,
 number =  {4--5},
 pages =   {245--259}
}

- fix qeq/reaxff command: doi:10.1016/j.parco.2011.08.005

@Article{Aktulga12,
 author = {H. M. Aktulga and J. C. Fogarty and S. A. Pandit and A. Y. Grama},
 title = {Parallel Reactive Molecular Dynamics: {N}umerical Methods and Algorithmic Techniques},
 journal = {Parallel Computing},
 year =    2012,
 volume =  38,
 pages =   {245--259}
}

CITE-CITE-CITE-CITE-CITE-CITE-CITE-CITE-CITE-CITE-CITE-CITE-CITE

WARNING: Fix qeq/reaxff group is not charge neutral, net charge = -10.66 (src/REAXFF/fix_qeq_reaxff.cpp:392)
Neighbor list info ...
  update: every = 10 steps, delay = 0 steps, check = no
  max neighbors/atom: 2000, page size: 100000
  master list distance cutoff = 12
  ghost atom cutoff = 12
  binsize = 6, bins = 4 3 3
  2 neighbor lists, perpetual/occasional/extra = 2 0 0
  (1) pair reaxff, perpetual
      attributes: half, newton off, ghost
      pair build: half/bin/newtoff/ghost
      stencil: full/ghost/bin/3d
      bin: standard
  (2) fix qeq/reaxff, perpetual, copy from (1)
      attributes: half, newton off
      pair build: copy
      stencil: none
      bin: none
Per MPI rank memory allocation (min/avg/max) = 123.4 | 124.6 | 126 Mbytes
   Step          Temp          PotEng         Press        f_avgp[1]       Density         Volume    
         0   300           -39436.432      138394.29      0              1.7278661      3758.8201    
       100   785.54424     -40346.998     -20530.034      6194.3944      1.7278661      3758.8201    
       200   570.41845     -40556.046      2201.3003     -1580.8805      1.7278661      3758.8201    
       300   475.40802     -40782.339     -1526.9816     -2376.7408      1.7278661      3758.8201    
       400   390.62837     -40932.445      14728.866      3245.9813      1.7278661      3758.8201    
       500   321.87335     -41015.969      9588.9357      2348.53        1.7278661      3758.8201    
       600   294.20667     -41078.198     -6460.0982     -2851.6985      1.7278661      3758.8201    
       700   279.33045     -41104.205     -18535.539     -3495.4055      1.7278661      3758.8201    
       800   296.81045     -41128.312      815.31536     -4074.0602      1.7278661      3758.8201    
       900   303.92418     -41124.824     -2176.3628     -5498.0565      1.7278661      3758.8201    
      1000   307.56849     -41110.409     -13604.704     -1297.0536      1.7278661      3758.8201    
      1100   309.41027     -41107.35      -3247.0032     -7301.7976      1.7278661      3758.8201    
      1200   287.36508     -41100.922     -7469.183      -4732.7594      1.7278661      3758.8201    
      1300   307.17668     -41139.729      2563.1919      261.5597       1.7278661      3758.8201    
      1400   286.30762     -41134.436      1709.1101     -1115.202       1.7278661      3758.8201    
      1500   287.96149     -41139.782     -3692.1113     -2216.6859      1.7278661      3758.8201    
      1600   309.17813     -41149.842     -3844.8441     -4828.5466      1.7278661      3758.8201    
      1700   295.74119     -41129.202     -10639.25      -2272.353       1.7278661      3758.8201    
      1800   309.26314     -41137.486      1429.4765     -3280.9143      1.7278661      3758.8201    
      1900   295.6876      -41126.586     -12690.301     -6722.0175      1.7278661      3758.8201    
      2000   307.18527     -41146.225     -8694.8259     -6767.0872      1.7278661      3758.8201    
Loop time of 98.7202 on 16 procs for 2000 steps with 350 atoms

Performance: 0.875 ns/day, 27.422 hours/ns, 20.259 timesteps/s, 7.091 katom-step/s
99.3% CPU use with 8 MPI tasks x 2 OpenMP threads

MPI task timing breakdown:
Section |  min time  |  avg time  |  max time  |%varavg| %total
---------------------------------------------------------------
Pair    | 72.482     | 74.051     | 75.53      |  13.3 | 75.01
Bond    | 0.00066004 | 0.00080795 | 0.00098729 |   0.0 |  0.00
Neigh   | 6.0358     | 6.1861     | 6.3522     |   4.4 |  6.27
Comm    | 7.6742     | 9.1096     | 10.544     |  37.3 |  9.23
Output  | 0.001149   | 0.0014844  | 0.00349    |   2.0 |  0.00
Modify  | 8.7742     | 8.9611     | 9.1507     |   4.0 |  9.08
Other   |            | 0.4103     |            |       |  0.42

Nlocal:          43.75 ave          53 max          33 min
Histogram: 1 0 1 0 2 0 1 1 1 1
Nghost:        3165.12 ave        3217 max        3093 min
Histogram: 1 0 0 3 0 0 0 1 1 2
Neighs:        28515.8 ave       34028 max       21993 min
Histogram: 1 0 1 0 2 0 1 1 1 1

Total # of neighbors = 228126
Ave neighs/atom = 651.78857
Ave special neighs/atom = 0
Neighbor list builds = 200
Dangerous builds not checked
# Save the optimized structure
write_data ${structure}_opt.data
write_data 333U-50C-20-vasp_opt.data
System init for write_data ...

# Save initial pressure, box size
variable pxx0 equal f_avgp[1]
variable pyy0 equal f_avgp[2]
variable pzz0 equal f_avgp[3]
variable pxy0 equal f_avgp[4]
variable pxz0 equal f_avgp[5]
variable pyz0 equal f_avgp[6]

# use tmp to save initial box length
variable tmp equal lx
variable lx0 equal ${tmp}
variable lx0 equal 15.2382
variable tmp equal ly
variable ly0 equal ${tmp}
variable ly0 equal 14.5028
variable tmp equal lz
variable lz0 equal ${tmp}
variable lz0 equal 17.0085

# define the derivatives, w.r.t. strain tensor
# Constants uses $, variables use v_
variable d1 equal -(v_pxx1-${pxx0})/(v_delta/v_len0)*${ufac}
variable d1 equal -(v_pxx1--6767.0872090041)/(v_delta/v_len0)*${ufac}
variable d1 equal -(v_pxx1--6767.0872090041)/(v_delta/v_len0)*0.000101325
variable d2 equal -(v_pyy1-${pyy0})/(v_delta/v_len0)*${ufac}
variable d2 equal -(v_pyy1--7471.08390855294)/(v_delta/v_len0)*${ufac}
variable d2 equal -(v_pyy1--7471.08390855294)/(v_delta/v_len0)*0.000101325
variable d3 equal -(v_pzz1-${pzz0})/(v_delta/v_len0)*${ufac}
variable d3 equal -(v_pzz1--7878.56365707018)/(v_delta/v_len0)*${ufac}
variable d3 equal -(v_pzz1--7878.56365707018)/(v_delta/v_len0)*0.000101325
variable d4 equal -(v_pyz1-${pyz0})/(v_delta/v_len0)*${ufac}*0.5
variable d4 equal -(v_pyz1--2286.79684845709)/(v_delta/v_len0)*${ufac}*0.5
variable d4 equal -(v_pyz1--2286.79684845709)/(v_delta/v_len0)*0.000101325*0.5
variable d5 equal -(v_pxz1-${pxz0})/(v_delta/v_len0)*${ufac}*0.5
variable d5 equal -(v_pxz1--3022.11177300216)/(v_delta/v_len0)*${ufac}*0.5
variable d5 equal -(v_pxz1--3022.11177300216)/(v_delta/v_len0)*0.000101325*0.5
variable d6 equal -(v_pxy1-${pxy0})/(v_delta/v_len0)*${ufac}*0.5
variable d6 equal -(v_pxy1--1523.1796245039)/(v_delta/v_len0)*${ufac}*0.5
variable d6 equal -(v_pxy1--1523.1796245039)/(v_delta/v_len0)*0.000101325*0.5

# Write restart
write_restart equil.res
System init for write_restart ...

# dir: direction
# uxx Perturbation
variable dir equal 1
include displace.mod.lmp
# Find which reference length to use
if "${dir} == 1" then    "variable len0 equal ${lx0}"
variable len0 equal ${lx0}
variable len0 equal 15.2382
if "${dir} == 2" then    "variable len0 equal ${ly0}"
if "${dir} == 3" then    "variable len0 equal ${lz0}"
if "${dir} == 4" then    "variable len0 equal ${lz0}"
if "${dir} == 5" then    "variable len0 equal ${lz0}"
if "${dir} == 6" then    "variable len0 equal ${ly0}"

# Reset box and simulation parameters
clear
  using 2 OpenMP thread(s) per MPI task
# box tilt large
read_restart equil.res
Reading restart file ...
  restart file = 2 Aug 2023, LAMMPS = 2 Aug 2023
  restoring atom style full from restart
  triclinic box = (0 0 0) to (15.2382 14.5028 17.0085) with tilt (-6.2627 -0.4482 -0.642)
  2 by 2 by 2 MPI processor grid
  pair style reaxff stores no restart info
  350 atoms
Finding 1-2 1-3 1-4 neighbors ...
  special bond factors lj:    0        0        0       
  special bond factors coul:  0        0        0       
     0 = max # of 1-2 neighbors
     0 = max # of 1-3 neighbors
     0 = max # of 1-4 neighbors
     1 = max # of special neighbors
  special bonds CPU = 0.001 seconds
  read_restart CPU = 0.003 seconds
print "*****Negative-change ${dir} starts.*****"
*****Negative-change 1 starts.*****
include ff.mod.lmp
# Setup forcefield, system
# undefine any fix ave/* fix before using reset_timestep
if "$(is_defined(fix,avgp))" then "unfix avgp"
reset_timestep 0

# Assign the force field
pair_style reaxff NULL safezone 3.0 mincap 150
# pair_coeff * * CHONSSi.ff O Si
# pair_coeff * * CHOSiNa.ff O Si
# pair_coeff * * SiOCHN_2018.ff O Si
# pair_coeff * * PDMSDecomp.ff Si O
pair_coeff * * CHONSi.ff C H O Si
# pair_coeff * * CHOFe.ff O Si

# charge method for reaxff
fix myqeq all qeq/reaxff 1 0.0 10.0 1.0e-6 reaxff maxiter 400
# Setup neighbor style
neighbor        2 bin
neigh_modify    every 10 delay 0 check no

# Setup output
fix avgp all ave/time  ${nevery} ${nrepeat} ${nfreq} c_thermo_press mode vector
fix avgp all ave/time  10 ${nrepeat} ${nfreq} c_thermo_press mode vector
fix avgp all ave/time  10 10 ${nfreq} c_thermo_press mode vector
fix avgp all ave/time  10 10 100 c_thermo_press mode vector
thermo		${nthermo}
thermo		100
thermo_style custom step temp pe press f_avgp[1] vol
thermo_modify norm no

# NVT
fix 4 all nvt temp ${temp} ${temp} ${tdamp}
fix 4 all nvt temp 300 ${temp} ${tdamp}
fix 4 all nvt temp 300 300 ${tdamp}
fix 4 all nvt temp 300 300 50
Resetting global fix info from restart file:
  fix style: nvt, fix ID: 4

# Negative deformation
variable delta equal -${up}*${len0}
variable delta equal -0.01*${len0}
variable delta equal -0.01*15.2382
variable deltaxy equal -${up}*xy
variable deltaxy equal -0.01*xy
variable deltaxz equal -${up}*xz
variable deltaxz equal -0.01*xz
variable deltayz equal -${up}*yz
variable deltayz equal -0.01*yz
if "${dir} == 1" then    "change_box all x delta 0 ${delta} xy delta ${deltaxy} xz delta ${deltaxz} remap units box"
change_box all x delta 0 ${delta} xy delta ${deltaxy} xz delta ${deltaxz} remap units box
change_box all x delta 0 -0.152382 xy delta ${deltaxy} xz delta ${deltaxz} remap units box
change_box all x delta 0 -0.152382 xy delta 0.062627 xz delta ${deltaxz} remap units box
change_box all x delta 0 -0.152382 xy delta 0.062627 xz delta 0.004482 remap units box
Changing box ...
  triclinic box = (0 0 0) to (15.085818 14.5028 17.0085) with tilt (-6.2627 -0.4482 -0.642)
  triclinic box = (0 0 0) to (15.085818 14.5028 17.0085) with tilt (-6.200073 -0.4482 -0.642)
  triclinic box = (0 0 0) to (15.085818 14.5028 17.0085) with tilt (-6.200073 -0.443718 -0.642)
if "${dir} == 2" then    "change_box all y delta 0 ${delta} yz delta ${deltayz} remap units box"
if "${dir} == 3" then    "change_box all z delta 0 ${delta} remap units box"
if "${dir} == 4" then    "change_box all yz delta ${delta} remap units box"
if "${dir} == 5" then    "change_box all xz delta ${delta} remap units box"
if "${dir} == 6" then    "change_box all xy delta ${delta} remap units box"

# Run MD for Negative deformation
# save trajectory
dump dump_neg${dir} all custom ${nthermo} dump/neg_deform${dir}.lammpstrj id type x y z
dump dump_neg1 all custom ${nthermo} dump/neg_deform${dir}.lammpstrj id type x y z
dump dump_neg1 all custom 100 dump/neg_deform${dir}.lammpstrj id type x y z
dump dump_neg1 all custom 100 dump/neg_deform1.lammpstrj id type x y z
run ${nrun}
run 2000
All restart file global fix info was re-assigned
Neighbor list info ...
  update: every = 10 steps, delay = 0 steps, check = no
  max neighbors/atom: 2000, page size: 100000
  master list distance cutoff = 12
  ghost atom cutoff = 12
  binsize = 6, bins = 4 3 3
  2 neighbor lists, perpetual/occasional/extra = 2 0 0
  (1) pair reaxff, perpetual
      attributes: half, newton off, ghost
      pair build: half/bin/newtoff/ghost
      stencil: full/ghost/bin/3d
      bin: standard
  (2) fix qeq/reaxff, perpetual, copy from (1)
      attributes: half, newton off
      pair build: copy
      stencil: none
      bin: none
Per MPI rank memory allocation (min/avg/max) = 123.4 | 125.5 | 127.5 Mbytes
   Step          Temp          PotEng         Press        f_avgp[1]        Volume    
         0   307.18527     -41134.587      46594.669      0              3721.2319    
       100   287.79047     -41139.666      7108.8433      2350.071       3721.2319    
       200   282.35899     -41158.131      15529.058      4596.8945      3721.2319    
       300   294.54666     -41176.879      6533.4001      7688.3799      3721.2319    
       400   292.68195     -41159.106     -2359.976       3100.857       3721.2319    
       500   312.31643     -41153.599     -7553.1968      971.54839      3721.2319    
       600   325.38192     -41166.548      1794.1351      2806.6274      3721.2319    
       700   309.26878     -41178.839      5547.0939      6985.7109      3721.2319    
       800   287.60758     -41183.584      1899.4085      1068.3789      3721.2319    
       900   286.3842      -41185.856     -523.58202     -2579.5101      3721.2319    
      1000   321.53099     -41200.001      11274.424      7107.9239      3721.2319    
      1100   292.77829     -41149.81      -2742.1661      404.67073      3721.2319    
      1200   293.25036     -41148.921      14645.969     -2575.9503      3721.2319    
      1300   323.78189     -41198.83       8750.2793     -2022.9652      3721.2319    
      1400   280.64256     -41180.61       15905.385      1880.7791      3721.2319    
      1500   289.22801     -41188.431     -730.5693      -1948.1059      3721.2319    
      1600   311.0875      -41192.054      8345.7788     -4014.2463      3721.2319    
      1700   296.14733     -41174.019     -3815.8016     -5108.3433      3721.2319    
      1800   321.53098     -41206.269      902.58684     -2555.4364      3721.2319    
      1900   300.10847     -41200.592      10081.196     -3693.0942      3721.2319    
      2000   290.39849     -41204.908      474.49562     -4937.9552      3721.2319    
Loop time of 101.196 on 16 procs for 2000 steps with 350 atoms

Performance: 0.854 ns/day, 28.110 hours/ns, 19.764 timesteps/s, 6.917 katom-step/s
99.4% CPU use with 8 MPI tasks x 2 OpenMP threads

MPI task timing breakdown:
Section |  min time  |  avg time  |  max time  |%varavg| %total
---------------------------------------------------------------
Pair    | 74.84      | 76.919     | 77.873     |  10.3 | 76.01
Bond    | 0.00067665 | 0.00081642 | 0.0010443  |   0.0 |  0.00
Neigh   | 6.1174     | 6.3145     | 6.5535     |   5.4 |  6.24
Comm    | 7.7063     | 8.6155     | 10.646     |  29.8 |  8.51
Output  | 0.0068295  | 0.010285   | 0.012011   |   2.0 |  0.01
Modify  | 8.7194     | 9.0028     | 9.2054     |   4.9 |  8.90
Other   |            | 0.3329     |            |       |  0.33

Nlocal:          43.75 ave          52 max          36 min
Histogram: 1 1 1 0 0 2 2 0 0 1
Nghost:         3180.5 ave        3213 max        3127 min
Histogram: 1 0 0 0 2 1 1 0 1 2
Neighs:        28821.4 ave       33833 max       24080 min
Histogram: 1 1 1 0 1 1 0 2 0 1

Total # of neighbors = 230571
Ave neighs/atom = 658.77429
Ave special neighs/atom = 0
Neighbor list builds = 200
Dangerous builds not checked
undump dump_neg${dir}
undump dump_neg1

# Run equilibration
print "*****Equilibration neg${dir} starts.*****"
*****Equilibration neg1 starts.*****
include ff.mod.lmp
# Setup forcefield, system
# undefine any fix ave/* fix before using reset_timestep
if "$(is_defined(fix,avgp))" then "unfix avgp"
unfix avgp
reset_timestep 0

# Assign the force field
pair_style reaxff NULL safezone 3.0 mincap 150
# pair_coeff * * CHONSSi.ff O Si
# pair_coeff * * CHOSiNa.ff O Si
# pair_coeff * * SiOCHN_2018.ff O Si
# pair_coeff * * PDMSDecomp.ff Si O
pair_coeff * * CHONSi.ff C H O Si
# pair_coeff * * CHOFe.ff O Si

# charge method for reaxff
fix myqeq all qeq/reaxff 1 0.0 10.0 1.0e-6 reaxff maxiter 400
# Setup neighbor style
neighbor        2 bin
neigh_modify    every 10 delay 0 check no

# Setup output
fix avgp all ave/time  ${nevery} ${nrepeat} ${nfreq} c_thermo_press mode vector
fix avgp all ave/time  10 ${nrepeat} ${nfreq} c_thermo_press mode vector
fix avgp all ave/time  10 10 ${nfreq} c_thermo_press mode vector
fix avgp all ave/time  10 10 100 c_thermo_press mode vector
thermo		${nthermo}
thermo		100
thermo_style custom step temp pe press f_avgp[1] vol
WARNING: New thermo_style command, previous thermo_modify settings will be lost (src/output.cpp:903)
thermo_modify norm no

# NVT
fix 4 all nvt temp ${temp} ${temp} ${tdamp}
fix 4 all nvt temp 300 ${temp} ${tdamp}
fix 4 all nvt temp 300 300 ${tdamp}
fix 4 all nvt temp 300 300 50
run ${nequil}
run 2000
Neighbor list info ...
  update: every = 10 steps, delay = 0 steps, check = no
  max neighbors/atom: 2000, page size: 100000
  master list distance cutoff = 12
  ghost atom cutoff = 12
  binsize = 6, bins = 4 3 3
  2 neighbor lists, perpetual/occasional/extra = 2 0 0
  (1) pair reaxff, perpetual
      attributes: half, newton off, ghost
      pair build: half/bin/newtoff/ghost
      stencil: full/ghost/bin/3d
      bin: standard
  (2) fix qeq/reaxff, perpetual, copy from (1)
      attributes: half, newton off
      pair build: copy
      stencil: none
      bin: none
Per MPI rank memory allocation (min/avg/max) = 123.4 | 125.4 | 127.4 Mbytes
   Step          Temp          PotEng         Press        f_avgp[1]        Volume    
         0   290.39849     -41204.908      474.5255       0              3721.2319    
       100   298.01206     -41198.642      11194.079     -10322.631      3721.2319    
       200   313.16265     -41186.44      -1624.3988      2895.6242      3721.2319    
       300   323.97984     -41189.696     -3824.2509      394.4198       3721.2319    
       400   315.03303     -41190.144      2160.6388     -1533.6997      3721.2319    
       500   294.17198     -41182.95      -8668.8033     -3654.6134      3721.2319    
       600   295.54539     -41194.771      2892.6692      2888.8304      3721.2319    
       700   267.07081     -41184.034     -12555.422      1718.4864      3721.2319    
       800   305.59921     -41240.868     -12683.224     -5974.1061      3721.2319    
       900   294.37354     -41216.354     -3966.1959     -10669.927      3721.2319    
      1000   313.39078     -41205.209     -5028.5794     -5944.2174      3721.2319    
      1100   302.11333     -41178.692      3702.3831     -2771.6774      3721.2319    
      1200   323.28888     -41203.124      837.46755     -1311.3531      3721.2319    
      1300   297.70712     -41198.31      -1990.7007     -677.39463      3721.2319    
      1400   289.65243     -41216.78       4180.5486      1781.8668      3721.2319    
      1500   293.66967     -41244.163     -8968.0477     -1951.6821      3721.2319    
      1600   288.66773     -41224.241      6888.4353     -5347.5279      3721.2319    
      1700   285.92832     -41205.04      -9667.9791     -5018.2949      3721.2319    
      1800   305.96619     -41204.562     -5996.9587      2400.7424      3721.2319    
      1900   308.37625     -41186.042     -15059.393     -7136.1476      3721.2319    
      2000   306.50371     -41175.503     -1514.1111     -5615.8024      3721.2319    
Loop time of 101.674 on 16 procs for 2000 steps with 350 atoms

Performance: 0.850 ns/day, 28.243 hours/ns, 19.671 timesteps/s, 6.885 katom-step/s
99.4% CPU use with 8 MPI tasks x 2 OpenMP threads

MPI task timing breakdown:
Section |  min time  |  avg time  |  max time  |%varavg| %total
---------------------------------------------------------------
Pair    | 75.103     | 77.345     | 80.23      |  17.9 | 76.07
Bond    | 0.0006406  | 0.00080633 | 0.00098911 |   0.0 |  0.00
Neigh   | 6.1838     | 6.3157     | 6.4279     |   3.2 |  6.21
Comm    | 5.6538     | 8.5694     | 10.801     |  54.4 |  8.43
Output  | 0.00093761 | 0.0011765  | 0.0026685  |   1.6 |  0.00
Modify  | 8.8835     | 9.0493     | 9.155      |   3.1 |  8.90
Other   |            | 0.392      |            |       |  0.39

Nlocal:          43.75 ave          50 max          31 min
Histogram: 1 0 0 1 0 0 2 0 2 2
Nghost:        3173.12 ave        3214 max        3118 min
Histogram: 1 0 0 1 1 1 2 0 1 1
Neighs:        28851.2 ave       32599 max       20889 min
Histogram: 1 0 0 1 0 0 2 0 1 3

Total # of neighbors = 230810
Ave neighs/atom = 659.45714
Ave special neighs/atom = 0
Neighbor list builds = 200
Dangerous builds not checked

# Obtain new stress tensor Negative deformation, convert index from LAMMPS to Voigt
variable pxx1 equal f_avgp[1]
variable pyy1 equal f_avgp[2]
variable pzz1 equal f_avgp[3]
variable pxy1 equal f_avgp[4]
variable pxz1 equal f_avgp[5]
variable pyz1 equal f_avgp[6]

# Compute elastic constant from pressure
# d1 = -[pxx1-pxx0]/[(]v_delta/v_len0] defined in input script
variable C1neg equal ${d1}
variable C1neg equal 11.6653936560696
variable C2neg equal ${d2}
variable C2neg equal 71.2246242706452
variable C3neg equal ${d3}
variable C3neg equal 83.9679066595552
variable C4neg equal ${d4}
variable C4neg equal -6.8887315672418
variable C5neg equal ${d5}
variable C5neg equal 24.5377512155649
variable C6neg equal ${d6}
variable C6neg equal 13.265134095658

# Reset box and simulation parameters
clear
  using 2 OpenMP thread(s) per MPI task
# box tilt large
read_restart equil.res
Reading restart file ...
  restart file = 2 Aug 2023, LAMMPS = 2 Aug 2023
  restoring atom style full from restart
  triclinic box = (0 0 0) to (15.2382 14.5028 17.0085) with tilt (-6.2627 -0.4482 -0.642)
  2 by 2 by 2 MPI processor grid
  pair style reaxff stores no restart info
  350 atoms
Finding 1-2 1-3 1-4 neighbors ...
  special bond factors lj:    0        0        0       
  special bond factors coul:  0        0        0       
     0 = max # of 1-2 neighbors
     0 = max # of 1-3 neighbors
     0 = max # of 1-4 neighbors
     1 = max # of special neighbors
  special bonds CPU = 0.000 seconds
  read_restart CPU = 0.004 seconds
print "*****Positive-change ${dir} starts.*****"
*****Positive-change 1 starts.*****
include ff.mod.lmp
# Setup forcefield, system
# undefine any fix ave/* fix before using reset_timestep
if "$(is_defined(fix,avgp))" then "unfix avgp"
reset_timestep 0

# Assign the force field
pair_style reaxff NULL safezone 3.0 mincap 150
# pair_coeff * * CHONSSi.ff O Si
# pair_coeff * * CHOSiNa.ff O Si
# pair_coeff * * SiOCHN_2018.ff O Si
# pair_coeff * * PDMSDecomp.ff Si O
pair_coeff * * CHONSi.ff C H O Si
# pair_coeff * * CHOFe.ff O Si

# charge method for reaxff
fix myqeq all qeq/reaxff 1 0.0 10.0 1.0e-6 reaxff maxiter 400
# Setup neighbor style
neighbor        2 bin
neigh_modify    every 10 delay 0 check no

# Setup output
fix avgp all ave/time  ${nevery} ${nrepeat} ${nfreq} c_thermo_press mode vector
fix avgp all ave/time  10 ${nrepeat} ${nfreq} c_thermo_press mode vector
fix avgp all ave/time  10 10 ${nfreq} c_thermo_press mode vector
fix avgp all ave/time  10 10 100 c_thermo_press mode vector
thermo		${nthermo}
thermo		100
thermo_style custom step temp pe press f_avgp[1] vol
thermo_modify norm no

# NVT
fix 4 all nvt temp ${temp} ${temp} ${tdamp}
fix 4 all nvt temp 300 ${temp} ${tdamp}
fix 4 all nvt temp 300 300 ${tdamp}
fix 4 all nvt temp 300 300 50
Resetting global fix info from restart file:
  fix style: nvt, fix ID: 4

# Positive deformation
variable delta equal ${up}*${len0}
variable delta equal 0.01*${len0}
variable delta equal 0.01*15.2382
variable deltaxy equal ${up}*xy
variable deltaxy equal 0.01*xy
variable deltaxz equal ${up}*xz
variable deltaxz equal 0.01*xz
variable deltayz equal ${up}*yz
variable deltayz equal 0.01*yz
if "${dir} == 1" then    "change_box all x delta 0 ${delta} xy delta ${deltaxy} xz delta ${deltaxz} remap units box"
change_box all x delta 0 ${delta} xy delta ${deltaxy} xz delta ${deltaxz} remap units box
change_box all x delta 0 0.152382 xy delta ${deltaxy} xz delta ${deltaxz} remap units box
change_box all x delta 0 0.152382 xy delta -0.062627 xz delta ${deltaxz} remap units box
change_box all x delta 0 0.152382 xy delta -0.062627 xz delta -0.004482 remap units box
Changing box ...
  triclinic box = (0 0 0) to (15.390582 14.5028 17.0085) with tilt (-6.2627 -0.4482 -0.642)
  triclinic box = (0 0 0) to (15.390582 14.5028 17.0085) with tilt (-6.325327 -0.4482 -0.642)
  triclinic box = (0 0 0) to (15.390582 14.5028 17.0085) with tilt (-6.325327 -0.452682 -0.642)
if "${dir} == 2" then    "change_box all y delta 0 ${delta} yz delta ${deltayz} remap units box"
if "${dir} == 3" then    "change_box all z delta 0 ${delta} remap units box"
if "${dir} == 4" then    "change_box all yz delta ${delta} remap units box"
if "${dir} == 5" then    "change_box all xz delta ${delta} remap units box"
if "${dir} == 6" then    "change_box all xy delta ${delta} remap units box"

# Run positive deformation MD
# save trajectory
dump dump_pos${dir} all custom ${nthermo} dump/pos_deform${dir}.lammpstrj id type x y z
dump dump_pos1 all custom ${nthermo} dump/pos_deform${dir}.lammpstrj id type x y z
dump dump_pos1 all custom 100 dump/pos_deform${dir}.lammpstrj id type x y z
dump dump_pos1 all custom 100 dump/pos_deform1.lammpstrj id type x y z
run ${nrun}
run 2000
All restart file global fix info was re-assigned
Neighbor list info ...
  update: every = 10 steps, delay = 0 steps, check = no
  max neighbors/atom: 2000, page size: 100000
  master list distance cutoff = 12
  ghost atom cutoff = 12
  binsize = 6, bins = 4 3 3
  2 neighbor lists, perpetual/occasional/extra = 2 0 0
  (1) pair reaxff, perpetual
      attributes: half, newton off, ghost
      pair build: half/bin/newtoff/ghost
      stencil: full/ghost/bin/3d
      bin: standard
  (2) fix qeq/reaxff, perpetual, copy from (1)
      attributes: half, newton off
      pair build: copy
      stencil: none
      bin: none
Per MPI rank memory allocation (min/avg/max) = 121.5 | 123.6 | 125.5 Mbytes
   Step          Temp          PotEng         Press        f_avgp[1]        Volume    
         0   307.18527     -41121.269     -54026.338      0              3796.4083    
       100   307.97602     -41148.28       55.245382     -10416.756      3796.4083    
       200   286.95206     -41155.176      5403.6978     -4793.0282      3796.4083    
       300   268.49665     -41144.301     -1882.6153     -3916.5671      3796.4083    
       400   306.87864     -41167.062      2415.8865     -8080.3402      3796.4083    
       500   308.17495     -41140.476      3193.1066     -3849.1311      3796.4083    
       600   309.15327     -41128.346     -506.80659     -2980.8299      3796.4083    
       700   304.72209     -41138.419     -8160.07       -3495.3301      3796.4083    
       800   298.02558     -41154.765     -6614.1952     -9498.25        3796.4083    
       900   290.51039     -41160.394     -11816.301     -15901.354      3796.4083    
      1000   298.5335      -41170.47      -10610.876     -6681.0913      3796.4083    
      1100   296.51877     -41151.221     -3428.5308     -10347.176      3796.4083    
      1200   310.42244     -41145.666     -611.70554     -6598.0534      3796.4083    
      1300   312.72868     -41146.464     -7769.8531     -3404.5632      3796.4083    
      1400   294.23906     -41136.037     -4511.8053     -7788.2804      3796.4083    
      1500   281.05252     -41140.051     -12452.335     -7371.1363      3796.4083    
      1600   289.51947     -41154.212     -27365.985     -11893.065      3796.4083    
      1700   298.12401     -41158.662     -4278.8805     -6761.2992      3796.4083    
      1800   288.77626     -41137.698     -8259.5735     -4922.597       3796.4083    
      1900   309.31313     -41145.191     -8763.9712     -10745.81       3796.4083    
      2000   315.8256      -41144.403     -3272.9727     -6784.5297      3796.4083    
Loop time of 98.435 on 16 procs for 2000 steps with 350 atoms

Performance: 0.878 ns/day, 27.343 hours/ns, 20.318 timesteps/s, 7.111 katom-step/s
99.4% CPU use with 8 MPI tasks x 2 OpenMP threads

MPI task timing breakdown:
Section |  min time  |  avg time  |  max time  |%varavg| %total
---------------------------------------------------------------
Pair    | 72.771     | 74.424     | 76.143     |  15.8 | 75.61
Bond    | 0.00066814 | 0.00082675 | 0.0010281  |   0.0 |  0.00
Neigh   | 6.0491     | 6.2273     | 6.379      |   4.1 |  6.33
Comm    | 6.8186     | 8.4998     | 10.234     |  47.2 |  8.63
Output  | 0.0053967  | 0.0092247  | 0.011037   |   2.3 |  0.01
Modify  | 8.6626     | 8.8594     | 9.1007     |   4.7 |  9.00
Other   |            | 0.4141     |            |       |  0.42

Nlocal:          43.75 ave          51 max          37 min
Histogram: 1 0 3 1 0 0 0 0 1 2
Nghost:        3168.25 ave        3204 max        3111 min
Histogram: 1 0 0 0 0 2 2 1 1 1
Neighs:        28205.4 ave       32442 max       24256 min
Histogram: 1 1 2 1 0 0 0 0 1 2

Total # of neighbors = 225643
Ave neighs/atom = 644.69429
Ave special neighs/atom = 0
Neighbor list builds = 200
Dangerous builds not checked
undump dump_pos${dir}
undump dump_pos1

# Run equilibration
print "*****Equilibration pos${dir} starts.*****"
*****Equilibration pos1 starts.*****
include ff.mod.lmp
# Setup forcefield, system
# undefine any fix ave/* fix before using reset_timestep
if "$(is_defined(fix,avgp))" then "unfix avgp"
unfix avgp
reset_timestep 0

# Assign the force field
pair_style reaxff NULL safezone 3.0 mincap 150
# pair_coeff * * CHONSSi.ff O Si
# pair_coeff * * CHOSiNa.ff O Si
# pair_coeff * * SiOCHN_2018.ff O Si
# pair_coeff * * PDMSDecomp.ff Si O
pair_coeff * * CHONSi.ff C H O Si
# pair_coeff * * CHOFe.ff O Si

# charge method for reaxff
fix myqeq all qeq/reaxff 1 0.0 10.0 1.0e-6 reaxff maxiter 400
# Setup neighbor style
neighbor        2 bin
neigh_modify    every 10 delay 0 check no

# Setup output
fix avgp all ave/time  ${nevery} ${nrepeat} ${nfreq} c_thermo_press mode vector
fix avgp all ave/time  10 ${nrepeat} ${nfreq} c_thermo_press mode vector
fix avgp all ave/time  10 10 ${nfreq} c_thermo_press mode vector
fix avgp all ave/time  10 10 100 c_thermo_press mode vector
thermo		${nthermo}
thermo		100
thermo_style custom step temp pe press f_avgp[1] vol
WARNING: New thermo_style command, previous thermo_modify settings will be lost (src/output.cpp:903)
thermo_modify norm no

# NVT
fix 4 all nvt temp ${temp} ${temp} ${tdamp}
fix 4 all nvt temp 300 ${temp} ${tdamp}
fix 4 all nvt temp 300 300 ${tdamp}
fix 4 all nvt temp 300 300 50
run ${nequil}
run 2000
Neighbor list info ...
  update: every = 10 steps, delay = 0 steps, check = no
  max neighbors/atom: 2000, page size: 100000
  master list distance cutoff = 12
  ghost atom cutoff = 12
  binsize = 6, bins = 4 3 3
  2 neighbor lists, perpetual/occasional/extra = 2 0 0
  (1) pair reaxff, perpetual
      attributes: half, newton off, ghost
      pair build: half/bin/newtoff/ghost
      stencil: full/ghost/bin/3d
      bin: standard
  (2) fix qeq/reaxff, perpetual, copy from (1)
      attributes: half, newton off
      pair build: copy
      stencil: none
      bin: none
Per MPI rank memory allocation (min/avg/max) = 121.5 | 123.6 | 125.4 Mbytes
   Step          Temp          PotEng         Press        f_avgp[1]        Volume    
         0   315.8256      -41144.403     -3272.8741      0              3796.4083    
       100   311.26181     -41144.663     -12179.321     -4769.8511      3796.4083    
       200   301.98401     -41158.789     -10982.04      -2320.9631      3796.4083    
       300   289.14392     -41170.658     -14165.837     -7003.913       3796.4083    
       400   294.19828     -41161.893     -5909.0235     -1884.5049      3796.4083    
       500   306.98264     -41157.558     -3195.0652     -6333.8348      3796.4083    
       600   309.41471     -41146.716     -12013.352     -8636.1101      3796.4083    
       700   295.34008     -41134.462     -10822.439     -3559.5613      3796.4083    
       800   305.82165     -41151.14      -11767.882     -5215.3549      3796.4083    
       900   283.73365     -41155.681     -2494.8038     -1857.2088      3796.4083    
      1000   281.84111     -41163.93       5445.3366     -5330.3044      3796.4083    
      1100   286.09088     -41143.394      18.931576     -6017.0569      3796.4083    
      1200   296.42947     -41132.076     -11136.5       -6403.2797      3796.4083    
      1300   299.60398     -41136.627     -20280.043     -3232.3074      3796.4083    
      1400   296.60849     -41148.666      381.19844     -6786.721       3796.4083    
      1500   296.12605     -41165.563     -7758.8968     -7082.6939      3796.4083    
      1600   301.45484     -41187.883     -11774.509     -5593.1501      3796.4083    
      1700   273.92835     -41179.29       997.64648     -3402.5216      3796.4083    
      1800   292.46343     -41180.637      466.62885     -4021.8826      3796.4083    
      1900   303.08859     -41162.499     -3818.5525     -2847.4411      3796.4083    
      2000   305.59707     -41146.744     -3575.959      -7106.7124      3796.4083    
Loop time of 98.2761 on 16 procs for 2000 steps with 350 atoms

Performance: 0.879 ns/day, 27.299 hours/ns, 20.351 timesteps/s, 7.123 katom-step/s
99.4% CPU use with 8 MPI tasks x 2 OpenMP threads

MPI task timing breakdown:
Section |  min time  |  avg time  |  max time  |%varavg| %total
---------------------------------------------------------------
Pair    | 72.675     | 74.233     | 75.428     |  10.7 | 75.53
Bond    | 0.00064936 | 0.00081741 | 0.0010032  |   0.0 |  0.00
Neigh   | 5.9919     | 6.255      | 6.4597     |   5.8 |  6.36
Comm    | 7.4924     | 8.6843     | 10.195     |  30.6 |  8.84
Output  | 0.00086823 | 0.0011939  | 0.0031232  |   2.1 |  0.00
Modify  | 8.5007     | 8.7252     | 9.031      |   6.0 |  8.88
Other   |            | 0.377      |            |       |  0.38

Nlocal:          43.75 ave          52 max          35 min
Histogram: 1 1 1 0 1 0 1 0 2 1
Nghost:        3139.88 ave        3198 max        3090 min
Histogram: 2 1 1 0 0 0 1 1 0 2
Neighs:        28228.8 ave       33093 max       22979 min
Histogram: 1 1 1 0 1 0 1 0 2 1

Total # of neighbors = 225830
Ave neighs/atom = 645.22857
Ave special neighs/atom = 0
Neighbor list builds = 200
Dangerous builds not checked

# Obtain new stress tensor, convert index from LAMMPS to Voigt
variable pxx1 equal f_avgp[1]
variable pyy1 equal f_avgp[2]
variable pzz1 equal f_avgp[3]
variable pxy1 equal f_avgp[4]
variable pxz1 equal f_avgp[5]
variable pyz1 equal f_avgp[6]

# Compute elastic constant from pressure tensor
# d1 = -[pxx1-pxx0]/[(]v_delta/v_len0] defined in input script
variable C1pos equal ${d1}
variable C1pos equal 3.44125211959935
variable C2pos equal ${d2}
variable C2pos equal -28.4603483746377
variable C3pos equal ${d3}
variable C3pos equal -8.77964973976078
variable C4pos equal ${d4}
variable C4pos equal 15.2572165031817
variable C5pos equal ${d5}
variable C5pos equal -19.6780136804858
variable C6pos equal ${d6}
variable C6pos equal 5.9143154260862

# Combine positive and negative
variable C1${dir} equal 0.5*(${C1neg}+${C1pos})
variable C11 equal 0.5*(${C1neg}+${C1pos})
variable C11 equal 0.5*(11.6653936560696+${C1pos})
variable C11 equal 0.5*(11.6653936560696+3.44125211959935)
variable C2${dir} equal 0.5*(${C2neg}+${C2pos})
variable C21 equal 0.5*(${C2neg}+${C2pos})
variable C21 equal 0.5*(71.2246242706452+${C2pos})
variable C21 equal 0.5*(71.2246242706452+-28.4603483746377)
variable C3${dir} equal 0.5*(${C3neg}+${C3pos})
variable C31 equal 0.5*(${C3neg}+${C3pos})
variable C31 equal 0.5*(83.9679066595552+${C3pos})
variable C31 equal 0.5*(83.9679066595552+-8.77964973976078)
variable C4${dir} equal 0.5*(${C4neg}+${C4pos})
variable C41 equal 0.5*(${C4neg}+${C4pos})
variable C41 equal 0.5*(-6.8887315672418+${C4pos})
variable C41 equal 0.5*(-6.8887315672418+15.2572165031817)
variable C5${dir} equal 0.5*(${C5neg}+${C5pos})
variable C51 equal 0.5*(${C5neg}+${C5pos})
variable C51 equal 0.5*(24.5377512155649+${C5pos})
variable C51 equal 0.5*(24.5377512155649+-19.6780136804858)
variable C6${dir} equal 0.5*(${C6neg}+${C6pos})
variable C61 equal 0.5*(${C6neg}+${C6pos})
variable C61 equal 0.5*(13.265134095658+${C6pos})
variable C61 equal 0.5*(13.265134095658+5.9143154260862)

# Delete dir to make sure it is not reused
variable dir delete
# uyy Perturbation
variable dir equal 2
include displace.mod.lmp
# Find which reference length to use
if "${dir} == 1" then    "variable len0 equal ${lx0}"
if "${dir} == 2" then    "variable len0 equal ${ly0}"
variable len0 equal ${ly0}
variable len0 equal 14.5028
if "${dir} == 3" then    "variable len0 equal ${lz0}"
if "${dir} == 4" then    "variable len0 equal ${lz0}"
if "${dir} == 5" then    "variable len0 equal ${lz0}"
if "${dir} == 6" then    "variable len0 equal ${ly0}"

# Reset box and simulation parameters
clear
  using 2 OpenMP thread(s) per MPI task
# box tilt large
read_restart equil.res
Reading restart file ...
  restart file = 2 Aug 2023, LAMMPS = 2 Aug 2023
  restoring atom style full from restart
  triclinic box = (0 0 0) to (15.2382 14.5028 17.0085) with tilt (-6.2627 -0.4482 -0.642)
  2 by 2 by 2 MPI processor grid
  pair style reaxff stores no restart info
  350 atoms
Finding 1-2 1-3 1-4 neighbors ...
  special bond factors lj:    0        0        0       
  special bond factors coul:  0        0        0       
     0 = max # of 1-2 neighbors
     0 = max # of 1-3 neighbors
     0 = max # of 1-4 neighbors
     1 = max # of special neighbors
  special bonds CPU = 0.000 seconds
  read_restart CPU = 0.003 seconds
print "*****Negative-change ${dir} starts.*****"
*****Negative-change 2 starts.*****
include ff.mod.lmp
# Setup forcefield, system
# undefine any fix ave/* fix before using reset_timestep
if "$(is_defined(fix,avgp))" then "unfix avgp"
reset_timestep 0

# Assign the force field
pair_style reaxff NULL safezone 3.0 mincap 150
# pair_coeff * * CHONSSi.ff O Si
# pair_coeff * * CHOSiNa.ff O Si
# pair_coeff * * SiOCHN_2018.ff O Si
# pair_coeff * * PDMSDecomp.ff Si O
pair_coeff * * CHONSi.ff C H O Si
# pair_coeff * * CHOFe.ff O Si

# charge method for reaxff
fix myqeq all qeq/reaxff 1 0.0 10.0 1.0e-6 reaxff maxiter 400
# Setup neighbor style
neighbor        2 bin
neigh_modify    every 10 delay 0 check no

# Setup output
fix avgp all ave/time  ${nevery} ${nrepeat} ${nfreq} c_thermo_press mode vector
fix avgp all ave/time  10 ${nrepeat} ${nfreq} c_thermo_press mode vector
fix avgp all ave/time  10 10 ${nfreq} c_thermo_press mode vector
fix avgp all ave/time  10 10 100 c_thermo_press mode vector
thermo		${nthermo}
thermo		100
thermo_style custom step temp pe press f_avgp[1] vol
thermo_modify norm no

# NVT
fix 4 all nvt temp ${temp} ${temp} ${tdamp}
fix 4 all nvt temp 300 ${temp} ${tdamp}
fix 4 all nvt temp 300 300 ${tdamp}
fix 4 all nvt temp 300 300 50
Resetting global fix info from restart file:
  fix style: nvt, fix ID: 4

# Negative deformation
variable delta equal -${up}*${len0}
variable delta equal -0.01*${len0}
variable delta equal -0.01*14.5028
variable deltaxy equal -${up}*xy
variable deltaxy equal -0.01*xy
variable deltaxz equal -${up}*xz
variable deltaxz equal -0.01*xz
variable deltayz equal -${up}*yz
variable deltayz equal -0.01*yz
if "${dir} == 1" then    "change_box all x delta 0 ${delta} xy delta ${deltaxy} xz delta ${deltaxz} remap units box"
if "${dir} == 2" then    "change_box all y delta 0 ${delta} yz delta ${deltayz} remap units box"
change_box all y delta 0 ${delta} yz delta ${deltayz} remap units box
change_box all y delta 0 -0.145028 yz delta ${deltayz} remap units box
change_box all y delta 0 -0.145028 yz delta 0.00642 remap units box
Changing box ...
  triclinic box = (0 0 0) to (15.2382 14.357772 17.0085) with tilt (-6.2627 -0.4482 -0.642)
  triclinic box = (0 0 0) to (15.2382 14.357772 17.0085) with tilt (-6.2627 -0.4482 -0.63558)
if "${dir} == 3" then    "change_box all z delta 0 ${delta} remap units box"
if "${dir} == 4" then    "change_box all yz delta ${delta} remap units box"
if "${dir} == 5" then    "change_box all xz delta ${delta} remap units box"
if "${dir} == 6" then    "change_box all xy delta ${delta} remap units box"

# Run MD for Negative deformation
# save trajectory
dump dump_neg${dir} all custom ${nthermo} dump/neg_deform${dir}.lammpstrj id type x y z
dump dump_neg2 all custom ${nthermo} dump/neg_deform${dir}.lammpstrj id type x y z
dump dump_neg2 all custom 100 dump/neg_deform${dir}.lammpstrj id type x y z
dump dump_neg2 all custom 100 dump/neg_deform2.lammpstrj id type x y z
run ${nrun}
run 2000
All restart file global fix info was re-assigned
Neighbor list info ...
  update: every = 10 steps, delay = 0 steps, check = no
  max neighbors/atom: 2000, page size: 100000
  master list distance cutoff = 12
  ghost atom cutoff = 12
  binsize = 6, bins = 4 3 3
  2 neighbor lists, perpetual/occasional/extra = 2 0 0
  (1) pair reaxff, perpetual
      attributes: half, newton off, ghost
      pair build: half/bin/newtoff/ghost
      stencil: full/ghost/bin/3d
      bin: standard
  (2) fix qeq/reaxff, perpetual, copy from (1)
      attributes: half, newton off
      pair build: copy
      stencil: none
      bin: none
Per MPI rank memory allocation (min/avg/max) = 122.7 | 125.2 | 127.4 Mbytes
   Step          Temp          PotEng         Press        f_avgp[1]        Volume    
         0   307.18527     -41128.708      49708.085      0              3721.2319    
       100   293.77901     -41142.648      1734.6588     -2856.9478      3721.2319    
       200   279.91233     -41156.669      4851.3262      66.380473      3721.2319    
       300   266.4639      -41150.025      7611.8551      3028.9524      3721.2319    
       400   302.44003     -41167.69       1496.9976     -1752.3709      3721.2319    
       500   312.00019     -41148.942      1127.9632      3847.7195      3721.2319    
       600   302.51697     -41128.817      8246.1828     -160.14678      3721.2319    
       700   294.56147     -41137.551      3745.679       2668.2092      3721.2319    
       800   291.49288     -41153.505     -11472.92      -206.01196      3721.2319    
       900   274.89929     -41141.078     -12104.014     -2918.4955      3721.2319    
      1000   294.81172     -41151.55       175.62501      6081.672       3721.2319    
      1100   289.57569     -41127.744      6071.5214     -2345.2355      3721.2319    
      1200   304.76994     -41126.019      11857.776     -3899.4737      3721.2319    
      1300   299.09992     -41125.421      7825.6973     -138.14316      3721.2319    
      1400   276.33872     -41132.313     -3726.4152      3383.9527      3721.2319    
      1500   292.72662     -41168.162      4503.6001     -6585.8658      3721.2319    
      1600   292.94799     -41164.564      1538.7628      4530.6363      3721.2319    
      1700   311.23017     -41176.579      6804.6842      2002.5817      3721.2319    
      1800   285.16625     -41142.436     -8426.6333     -370.03104      3721.2319    
      1900   292.80845     -41136.382      8728.0075      2991.2005      3721.2319    
      2000   319.86783     -41152.6        3478.2484      467.36237      3721.2319    
Loop time of 100.664 on 16 procs for 2000 steps with 350 atoms

Performance: 0.858 ns/day, 27.962 hours/ns, 19.868 timesteps/s, 6.954 katom-step/s
99.3% CPU use with 8 MPI tasks x 2 OpenMP threads

MPI task timing breakdown:
Section |  min time  |  avg time  |  max time  |%varavg| %total
---------------------------------------------------------------
Pair    | 74.357     | 76.178     | 78.095     |  12.8 | 75.68
Bond    | 0.00071034 | 0.00082106 | 0.0010308  |   0.0 |  0.00
Neigh   | 6.2506     | 6.3473     | 6.4608     |   2.8 |  6.31
Comm    | 6.8623     | 8.7819     | 10.644     |  37.7 |  8.72
Output  | 0.0062742  | 0.0097083  | 0.012425   |   2.2 |  0.01
Modify  | 8.8283     | 8.9753     | 9.1205     |   3.0 |  8.92
Other   |            | 0.3706     |            |       |  0.37

Nlocal:          43.75 ave          51 max          37 min
Histogram: 2 0 1 1 0 1 0 1 0 2
Nghost:        3190.62 ave        3221 max        3151 min
Histogram: 1 0 1 1 1 0 0 1 1 2
Neighs:        28821.9 ave       33162 max       24807 min
Histogram: 2 1 0 1 0 1 0 1 0 2

Total # of neighbors = 230575
Ave neighs/atom = 658.78571
Ave special neighs/atom = 0
Neighbor list builds = 200
Dangerous builds not checked
undump dump_neg${dir}
undump dump_neg2

# Run equilibration
print "*****Equilibration neg${dir} starts.*****"
*****Equilibration neg2 starts.*****
include ff.mod.lmp
# Setup forcefield, system
# undefine any fix ave/* fix before using reset_timestep
if "$(is_defined(fix,avgp))" then "unfix avgp"
unfix avgp
reset_timestep 0

# Assign the force field
pair_style reaxff NULL safezone 3.0 mincap 150
# pair_coeff * * CHONSSi.ff O Si
# pair_coeff * * CHOSiNa.ff O Si
# pair_coeff * * SiOCHN_2018.ff O Si
# pair_coeff * * PDMSDecomp.ff Si O
pair_coeff * * CHONSi.ff C H O Si
# pair_coeff * * CHOFe.ff O Si

# charge method for reaxff
fix myqeq all qeq/reaxff 1 0.0 10.0 1.0e-6 reaxff maxiter 400
# Setup neighbor style
neighbor        2 bin
neigh_modify    every 10 delay 0 check no

# Setup output
fix avgp all ave/time  ${nevery} ${nrepeat} ${nfreq} c_thermo_press mode vector
fix avgp all ave/time  10 ${nrepeat} ${nfreq} c_thermo_press mode vector
fix avgp all ave/time  10 10 ${nfreq} c_thermo_press mode vector
fix avgp all ave/time  10 10 100 c_thermo_press mode vector
thermo		${nthermo}
thermo		100
thermo_style custom step temp pe press f_avgp[1] vol
WARNING: New thermo_style command, previous thermo_modify settings will be lost (src/output.cpp:903)
thermo_modify norm no

# NVT
fix 4 all nvt temp ${temp} ${temp} ${tdamp}
fix 4 all nvt temp 300 ${temp} ${tdamp}
fix 4 all nvt temp 300 300 ${tdamp}
fix 4 all nvt temp 300 300 50
run ${nequil}
run 2000
Neighbor list info ...
  update: every = 10 steps, delay = 0 steps, check = no
  max neighbors/atom: 2000, page size: 100000
  master list distance cutoff = 12
  ghost atom cutoff = 12
  binsize = 6, bins = 4 3 3
  2 neighbor lists, perpetual/occasional/extra = 2 0 0
  (1) pair reaxff, perpetual
      attributes: half, newton off, ghost
      pair build: half/bin/newtoff/ghost
      stencil: full/ghost/bin/3d
      bin: standard
  (2) fix qeq/reaxff, perpetual, copy from (1)
      attributes: half, newton off
      pair build: copy
      stencil: none
      bin: none
Per MPI rank memory allocation (min/avg/max) = 122.7 | 125.2 | 127.4 Mbytes
   Step          Temp          PotEng         Press        f_avgp[1]        Volume    
         0   319.86783     -41152.6        3478.2225      0              3721.2319    
       100   298.07886     -41146.949      5164.6592      895.80572      3721.2319    
       200   288.8031      -41159.888     -10275.58       546.85304      3721.2319    
       300   295.63849     -41178.831      3370.8396      1668.9533      3721.2319    
       400   279.25128     -41160.033     -10969.651      7746.1478      3721.2319    
       500   300.75918     -41170.356     -12564.601      4293.2337      3721.2319    
       600   303.02748     -41155.652      130.41755     -4.4889556      3721.2319    
       700   303.69079     -41142.307      10881.345     -1177.3339      3721.2319    
       800   298.1404      -41137.269      41.26829      -2775.6581      3721.2319    
       900   300.41829     -41162.721     -368.81926     -3697.6843      3721.2319    
      1000   284.06986     -41170.786      11690.832      2591.6911      3721.2319    
      1100   289.71113     -41166.662      4099.0375      1475.1177      3721.2319    
      1200   310.8844      -41166.883      3633.94        5302.4015      3721.2319    
      1300   305.50485     -41147.624      10332.291      278.16044      3721.2319    
      1400   310.81667     -41155.025      4615.6546      278.26766      3721.2319    
      1500   316.7031      -41169.507     -1248.599       2958.1279      3721.2319    
      1600   303.1464      -41164.724      9934.2041     -1952.0083      3721.2319    
      1700   322.55523     -41187.529     -3079.7229     -7990.9858      3721.2319    
      1800   293.6136      -41173.473     -2432.8426      2320.8184      3721.2319    
      1900   293.74357     -41190.867     -2724.809      -3455.3945      3721.2319    
      2000   287.14681     -41167.083      1384.3834      138.05652      3721.2319    
Loop time of 101.266 on 16 procs for 2000 steps with 350 atoms

Performance: 0.853 ns/day, 28.129 hours/ns, 19.750 timesteps/s, 6.912 katom-step/s
99.4% CPU use with 8 MPI tasks x 2 OpenMP threads

MPI task timing breakdown:
Section |  min time  |  avg time  |  max time  |%varavg| %total
---------------------------------------------------------------
Pair    | 74.088     | 76.969     | 79.455     |  16.3 | 76.01
Bond    | 0.00071705 | 0.00081721 | 0.0010106  |   0.0 |  0.00
Neigh   | 6.174      | 6.3241     | 6.49       |   3.9 |  6.25
Comm    | 6.3466     | 8.7298     | 11.632     |  47.9 |  8.62
Output  | 0.00089964 | 0.0011585  | 0.0027424  |   1.8 |  0.00
Modify  | 8.5486     | 8.8468     | 9.0416     |   5.2 |  8.74
Other   |            | 0.3943     |            |       |  0.39

Nlocal:          43.75 ave          51 max          34 min
Histogram: 1 0 1 1 1 0 0 2 0 2
Nghost:        3211.12 ave        3268 max        3158 min
Histogram: 1 0 2 1 0 0 2 1 0 1
Neighs:        28794.4 ave       33293 max       22860 min
Histogram: 1 0 1 2 0 0 0 2 0 2

Total # of neighbors = 230355
Ave neighs/atom = 658.15714
Ave special neighs/atom = 0
Neighbor list builds = 200
Dangerous builds not checked

# Obtain new stress tensor Negative deformation, convert index from LAMMPS to Voigt
variable pxx1 equal f_avgp[1]
variable pyy1 equal f_avgp[2]
variable pzz1 equal f_avgp[3]
variable pxy1 equal f_avgp[4]
variable pxz1 equal f_avgp[5]
variable pyz1 equal f_avgp[6]

# Compute elastic constant from pressure
# d1 = -[pxx1-pxx0]/[(]v_delta/v_len0] defined in input script
variable C1neg equal ${d1}
variable C1neg equal 69.9663688026142
variable C2neg equal ${d2}
variable C2neg equal 167.5919148195
variable C3neg equal ${d3}
variable C3neg equal 96.192999353535
variable C4neg equal ${d4}
variable C4neg equal -12.7358107160203
variable C5neg equal ${d5}
variable C5neg equal -2.59858887858606
variable C6neg equal ${d6}
variable C6neg equal -14.3776705399988

# Reset box and simulation parameters
clear
  using 2 OpenMP thread(s) per MPI task
# box tilt large
read_restart equil.res
Reading restart file ...
  restart file = 2 Aug 2023, LAMMPS = 2 Aug 2023
  restoring atom style full from restart
  triclinic box = (0 0 0) to (15.2382 14.5028 17.0085) with tilt (-6.2627 -0.4482 -0.642)
  2 by 2 by 2 MPI processor grid
  pair style reaxff stores no restart info
  350 atoms
Finding 1-2 1-3 1-4 neighbors ...
  special bond factors lj:    0        0        0       
  special bond factors coul:  0        0        0       
     0 = max # of 1-2 neighbors
     0 = max # of 1-3 neighbors
     0 = max # of 1-4 neighbors
     1 = max # of special neighbors
  special bonds CPU = 0.000 seconds
  read_restart CPU = 0.004 seconds
print "*****Positive-change ${dir} starts.*****"
*****Positive-change 2 starts.*****
include ff.mod.lmp
# Setup forcefield, system
# undefine any fix ave/* fix before using reset_timestep
if "$(is_defined(fix,avgp))" then "unfix avgp"
reset_timestep 0

# Assign the force field
pair_style reaxff NULL safezone 3.0 mincap 150
# pair_coeff * * CHONSSi.ff O Si
# pair_coeff * * CHOSiNa.ff O Si
# pair_coeff * * SiOCHN_2018.ff O Si
# pair_coeff * * PDMSDecomp.ff Si O
pair_coeff * * CHONSi.ff C H O Si
# pair_coeff * * CHOFe.ff O Si

# charge method for reaxff
fix myqeq all qeq/reaxff 1 0.0 10.0 1.0e-6 reaxff maxiter 400
# Setup neighbor style
neighbor        2 bin
neigh_modify    every 10 delay 0 check no

# Setup output
fix avgp all ave/time  ${nevery} ${nrepeat} ${nfreq} c_thermo_press mode vector
fix avgp all ave/time  10 ${nrepeat} ${nfreq} c_thermo_press mode vector
fix avgp all ave/time  10 10 ${nfreq} c_thermo_press mode vector
fix avgp all ave/time  10 10 100 c_thermo_press mode vector
thermo		${nthermo}
thermo		100
thermo_style custom step temp pe press f_avgp[1] vol
thermo_modify norm no

# NVT
fix 4 all nvt temp ${temp} ${temp} ${tdamp}
fix 4 all nvt temp 300 ${temp} ${tdamp}
fix 4 all nvt temp 300 300 ${tdamp}
fix 4 all nvt temp 300 300 50
Resetting global fix info from restart file:
  fix style: nvt, fix ID: 4

# Positive deformation
variable delta equal ${up}*${len0}
variable delta equal 0.01*${len0}
variable delta equal 0.01*14.5028
variable deltaxy equal ${up}*xy
variable deltaxy equal 0.01*xy
variable deltaxz equal ${up}*xz
variable deltaxz equal 0.01*xz
variable deltayz equal ${up}*yz
variable deltayz equal 0.01*yz
if "${dir} == 1" then    "change_box all x delta 0 ${delta} xy delta ${deltaxy} xz delta ${deltaxz} remap units box"
if "${dir} == 2" then    "change_box all y delta 0 ${delta} yz delta ${deltayz} remap units box"
change_box all y delta 0 ${delta} yz delta ${deltayz} remap units box
change_box all y delta 0 0.145028 yz delta ${deltayz} remap units box
change_box all y delta 0 0.145028 yz delta -0.00642 remap units box
Changing box ...
  triclinic box = (0 0 0) to (15.2382 14.647828 17.0085) with tilt (-6.2627 -0.4482 -0.642)
  triclinic box = (0 0 0) to (15.2382 14.647828 17.0085) with tilt (-6.2627 -0.4482 -0.64842)
if "${dir} == 3" then    "change_box all z delta 0 ${delta} remap units box"
if "${dir} == 4" then    "change_box all yz delta ${delta} remap units box"
if "${dir} == 5" then    "change_box all xz delta ${delta} remap units box"
if "${dir} == 6" then    "change_box all xy delta ${delta} remap units box"

# Run positive deformation MD
# save trajectory
dump dump_pos${dir} all custom ${nthermo} dump/pos_deform${dir}.lammpstrj id type x y z
dump dump_pos2 all custom ${nthermo} dump/pos_deform${dir}.lammpstrj id type x y z
dump dump_pos2 all custom 100 dump/pos_deform${dir}.lammpstrj id type x y z
dump dump_pos2 all custom 100 dump/pos_deform2.lammpstrj id type x y z
run ${nrun}
run 2000
All restart file global fix info was re-assigned
Neighbor list info ...
  update: every = 10 steps, delay = 0 steps, check = no
  max neighbors/atom: 2000, page size: 100000
  master list distance cutoff = 12
  ghost atom cutoff = 12
  binsize = 6, bins = 4 3 3
  2 neighbor lists, perpetual/occasional/extra = 2 0 0
  (1) pair reaxff, perpetual
      attributes: half, newton off, ghost
      pair build: half/bin/newtoff/ghost
      stencil: full/ghost/bin/3d
      bin: standard
  (2) fix qeq/reaxff, perpetual, copy from (1)
      attributes: half, newton off
      pair build: copy
      stencil: none
      bin: none
Per MPI rank memory allocation (min/avg/max) = 121.2 | 123.4 | 125.5 Mbytes
   Step          Temp          PotEng         Press        f_avgp[1]        Volume    
         0   307.18527     -41122.693     -57560.885      0              3796.4083    
       100   304.91584     -41146.028     -6858.3926     -7551.9439      3796.4083    
       200   290.39492     -41157.885     -494.35204     -5585.8937      3796.4083    
       300   272.24594     -41149.43      -495.79311     -2296.1792      3796.4083    
       400   311.66493     -41170.925     -5536.9        -2039.1754      3796.4083    
       500   320.36182     -41142.907     -12109.471     -1599.2516      3796.4083    
       600   311.97536     -41122.446      1490.0294     -3884.412       3796.4083    
       700   286.11017     -41117.737     -5264.7964     -2493.2697      3796.4083    
       800   301.15943     -41158.92      -13725.947     -5809.2759      3796.4083    
       900   293.33629     -41165.931     -18920.984     -12381.7        3796.4083    
      1000   291.6806      -41154.124     -2652.3281     -2608.8986      3796.4083    
      1100   306.93131     -41150.382     -13005.759     -4774.7245      3796.4083    
      1200   325.27694     -41158.745     -13312.469     -7167.0892      3796.4083    
      1300   310.106       -41146.141      1631.0584     -4690.7236      3796.4083    
      1400   289.82858     -41140.386     -20611.904     -5244.1465      3796.4083    
      1500   293.04381     -41158.101     -12063.276     -4051.3251      3796.4083    
      1600   301.40917     -41174.421     -8006.2221     -6196.501       3796.4083    
      1700   295.33451     -41162.282     -17533.873     -6737.9973      3796.4083    
      1800   308.57141     -41162.163      279.71665     -6335.0815      3796.4083    
      1900   318.95942     -41164.598     -8989.857      -7271.8136      3796.4083    
      2000   302.10978     -41157.644     -6855.7979     -8195.4121      3796.4083    
Loop time of 97.807 on 16 procs for 2000 steps with 350 atoms

Performance: 0.883 ns/day, 27.169 hours/ns, 20.448 timesteps/s, 7.157 katom-step/s
99.3% CPU use with 8 MPI tasks x 2 OpenMP threads

MPI task timing breakdown:
Section |  min time  |  avg time  |  max time  |%varavg| %total
---------------------------------------------------------------
Pair    | 71.756     | 73.992     | 76.222     |  16.3 | 75.65
Bond    | 0.00074524 | 0.00083279 | 0.0010072  |   0.0 |  0.00
Neigh   | 5.9672     | 6.1549     | 6.4244     |   5.4 |  6.29
Comm    | 6.2685     | 8.4685     | 10.7       |  48.1 |  8.66
Output  | 0.0079378  | 0.015779   | 0.018861   |   3.6 |  0.02
Modify  | 8.5286     | 8.8209     | 9.0294     |   5.1 |  9.02
Other   |            | 0.3537     |            |       |  0.36

Nlocal:          43.75 ave          50 max          37 min
Histogram: 2 0 0 1 1 1 0 0 1 2
Nghost:           3131 ave        3194 max        3049 min
Histogram: 1 0 0 1 1 2 0 0 2 1
Neighs:        28232.5 ave       31974 max       24124 min
Histogram: 2 0 0 1 1 1 0 0 1 2

Total # of neighbors = 225860
Ave neighs/atom = 645.31429
Ave special neighs/atom = 0
Neighbor list builds = 200
Dangerous builds not checked
undump dump_pos${dir}
undump dump_pos2

# Run equilibration
print "*****Equilibration pos${dir} starts.*****"
*****Equilibration pos2 starts.*****
include ff.mod.lmp
# Setup forcefield, system
# undefine any fix ave/* fix before using reset_timestep
if "$(is_defined(fix,avgp))" then "unfix avgp"
unfix avgp
reset_timestep 0

# Assign the force field
pair_style reaxff NULL safezone 3.0 mincap 150
# pair_coeff * * CHONSSi.ff O Si
# pair_coeff * * CHOSiNa.ff O Si
# pair_coeff * * SiOCHN_2018.ff O Si
# pair_coeff * * PDMSDecomp.ff Si O
pair_coeff * * CHONSi.ff C H O Si
# pair_coeff * * CHOFe.ff O Si

# charge method for reaxff
fix myqeq all qeq/reaxff 1 0.0 10.0 1.0e-6 reaxff maxiter 400
# Setup neighbor style
neighbor        2 bin
neigh_modify    every 10 delay 0 check no

# Setup output
fix avgp all ave/time  ${nevery} ${nrepeat} ${nfreq} c_thermo_press mode vector
fix avgp all ave/time  10 ${nrepeat} ${nfreq} c_thermo_press mode vector
fix avgp all ave/time  10 10 ${nfreq} c_thermo_press mode vector
fix avgp all ave/time  10 10 100 c_thermo_press mode vector
thermo		${nthermo}
thermo		100
thermo_style custom step temp pe press f_avgp[1] vol
WARNING: New thermo_style command, previous thermo_modify settings will be lost (src/output.cpp:903)
thermo_modify norm no

# NVT
fix 4 all nvt temp ${temp} ${temp} ${tdamp}
fix 4 all nvt temp 300 ${temp} ${tdamp}
fix 4 all nvt temp 300 300 ${tdamp}
fix 4 all nvt temp 300 300 50
run ${nequil}
run 2000
Neighbor list info ...
  update: every = 10 steps, delay = 0 steps, check = no
  max neighbors/atom: 2000, page size: 100000
  master list distance cutoff = 12
  ghost atom cutoff = 12
  binsize = 6, bins = 4 3 3
  2 neighbor lists, perpetual/occasional/extra = 2 0 0
  (1) pair reaxff, perpetual
      attributes: half, newton off, ghost
      pair build: half/bin/newtoff/ghost
      stencil: full/ghost/bin/3d
      bin: standard
  (2) fix qeq/reaxff, perpetual, copy from (1)
      attributes: half, newton off
      pair build: copy
      stencil: none
      bin: none
Per MPI rank memory allocation (min/avg/max) = 121.2 | 123.4 | 125.4 Mbytes
   Step          Temp          PotEng         Press        f_avgp[1]        Volume    
         0   302.10978     -41157.644     -6855.8151      0              3796.4083    
       100   298.98734     -41167.278     -13189.478     -8624.0823      3796.4083    
       200   271.09376     -41161.76      -14358.479     -8217.7425      3796.4083    
       300   257.62157     -41159.866     -7834.0021     -6262.3882      3796.4083    
       400   298.58559     -41179.042     -11398.992     -9968.628       3796.4083    
       500   304.82323     -41159.298     -6034.6786     -4346.2577      3796.4083    
       600   317.08239     -41163.349     -208.44608     -4188.1404      3796.4083    
       700   307.2122      -41169.708     -7540.14       -4253.9746      3796.4083    
       800   292.02381     -41179.878      47.01772       462.71521      3796.4083    
       900   277.8274      -41166.516     -2876.435      -2568.9259      3796.4083    
      1000   298.4828      -41176.443     -13727.113     -9696.8636      3796.4083    
      1100   300.43359     -41169.434     -11039.41      -11110.394      3796.4083    
      1200   289.20881     -41156.068      1445.8519     -4996.6749      3796.4083    
      1300   297.2489      -41157.042     -6158.8165     -6127.5711      3796.4083    
      1400   306.98146     -41155.669      3141.0707     -3686.212       3796.4083    
      1500   333.26582     -41144.395      8057.7905      1597.7583      3796.4083    
      1600   312.95993     -41118.948      8797.294      -1301.5118      3796.4083    
      1700   312.46363     -41150.599      361.60574     -1351.841       3796.4083    
      1800   295.42565     -41156.616      756.13052     -7639.6061      3796.4083    
      1900   294.2011      -41167.444     -11383.322     -2727.939       3796.4083    
      2000   295.12915     -41164.471      1843.8335     -2302.5638      3796.4083    
Loop time of 98.1657 on 16 procs for 2000 steps with 350 atoms

Performance: 0.880 ns/day, 27.268 hours/ns, 20.374 timesteps/s, 7.131 katom-step/s
99.4% CPU use with 8 MPI tasks x 2 OpenMP threads

MPI task timing breakdown:
Section |  min time  |  avg time  |  max time  |%varavg| %total
---------------------------------------------------------------
Pair    | 72.67      | 74.533     | 78.334     |  20.4 | 75.93
Bond    | 0.00070219 | 0.00082808 | 0.0010276  |   0.0 |  0.00
Neigh   | 6.0554     | 6.1502     | 6.3333     |   4.1 |  6.27
Comm    | 4.5605     | 8.3095     | 10.121     |  60.4 |  8.46
Output  | 0.00096444 | 0.0013081  | 0.0034684  |   2.3 |  0.00
Modify  | 8.5789     | 8.8509     | 8.9958     |   4.2 |  9.02
Other   |            | 0.3203     |            |       |  0.33

Nlocal:          43.75 ave          52 max          36 min
Histogram: 1 2 0 0 1 1 0 1 0 2
Nghost:        3138.38 ave        3188 max        3070 min
Histogram: 1 0 1 2 0 0 0 0 2 2
Neighs:        28223.4 ave       33290 max       23577 min
Histogram: 2 1 0 0 2 0 0 1 0 2

Total # of neighbors = 225787
Ave neighs/atom = 645.10571
Ave special neighs/atom = 0
Neighbor list builds = 200
Dangerous builds not checked

# Obtain new stress tensor, convert index from LAMMPS to Voigt
variable pxx1 equal f_avgp[1]
variable pyy1 equal f_avgp[2]
variable pzz1 equal f_avgp[3]
variable pxy1 equal f_avgp[4]
variable pxz1 equal f_avgp[5]
variable pyz1 equal f_avgp[6]

# Compute elastic constant from pressure tensor
# d1 = -[pxx1-pxx0]/[(]v_delta/v_len0] defined in input script
variable C1pos equal ${d1}
variable C1pos equal -45.2367833518445
variable C2pos equal ${d2}
variable C2pos equal 38.4945041365405
variable C3pos equal ${d3}
variable C3pos equal -66.8367076236424
variable C4pos equal ${d4}
variable C4pos equal 18.9625523119264
variable C5pos equal ${d5}
variable C5pos equal -19.2512479018829
variable C6pos equal ${d6}
variable C6pos equal 9.93981715522062

# Combine positive and negative
variable C1${dir} equal 0.5*(${C1neg}+${C1pos})
variable C12 equal 0.5*(${C1neg}+${C1pos})
variable C12 equal 0.5*(69.9663688026142+${C1pos})
variable C12 equal 0.5*(69.9663688026142+-45.2367833518445)
variable C2${dir} equal 0.5*(${C2neg}+${C2pos})
variable C22 equal 0.5*(${C2neg}+${C2pos})
variable C22 equal 0.5*(167.5919148195+${C2pos})
variable C22 equal 0.5*(167.5919148195+38.4945041365405)
variable C3${dir} equal 0.5*(${C3neg}+${C3pos})
variable C32 equal 0.5*(${C3neg}+${C3pos})
variable C32 equal 0.5*(96.192999353535+${C3pos})
variable C32 equal 0.5*(96.192999353535+-66.8367076236424)
variable C4${dir} equal 0.5*(${C4neg}+${C4pos})
variable C42 equal 0.5*(${C4neg}+${C4pos})
variable C42 equal 0.5*(-12.7358107160203+${C4pos})
variable C42 equal 0.5*(-12.7358107160203+18.9625523119264)
variable C5${dir} equal 0.5*(${C5neg}+${C5pos})
variable C52 equal 0.5*(${C5neg}+${C5pos})
variable C52 equal 0.5*(-2.59858887858606+${C5pos})
variable C52 equal 0.5*(-2.59858887858606+-19.2512479018829)
variable C6${dir} equal 0.5*(${C6neg}+${C6pos})
variable C62 equal 0.5*(${C6neg}+${C6pos})
variable C62 equal 0.5*(-14.3776705399988+${C6pos})
variable C62 equal 0.5*(-14.3776705399988+9.93981715522062)

# Delete dir to make sure it is not reused
variable dir delete
# uzz Perturbation
variable dir equal 3
include displace.mod.lmp
# Find which reference length to use
if "${dir} == 1" then    "variable len0 equal ${lx0}"
if "${dir} == 2" then    "variable len0 equal ${ly0}"
if "${dir} == 3" then    "variable len0 equal ${lz0}"
variable len0 equal ${lz0}
variable len0 equal 17.0085
if "${dir} == 4" then    "variable len0 equal ${lz0}"
if "${dir} == 5" then    "variable len0 equal ${lz0}"
if "${dir} == 6" then    "variable len0 equal ${ly0}"

# Reset box and simulation parameters
clear
  using 2 OpenMP thread(s) per MPI task
# box tilt large
read_restart equil.res
Reading restart file ...
  restart file = 2 Aug 2023, LAMMPS = 2 Aug 2023
  restoring atom style full from restart
  triclinic box = (0 0 0) to (15.2382 14.5028 17.0085) with tilt (-6.2627 -0.4482 -0.642)
  2 by 2 by 2 MPI processor grid
  pair style reaxff stores no restart info
  350 atoms
Finding 1-2 1-3 1-4 neighbors ...
  special bond factors lj:    0        0        0       
  special bond factors coul:  0        0        0       
     0 = max # of 1-2 neighbors
     0 = max # of 1-3 neighbors
     0 = max # of 1-4 neighbors
     1 = max # of special neighbors
  special bonds CPU = 0.000 seconds
  read_restart CPU = 0.003 seconds
print "*****Negative-change ${dir} starts.*****"
*****Negative-change 3 starts.*****
include ff.mod.lmp
# Setup forcefield, system
# undefine any fix ave/* fix before using reset_timestep
if "$(is_defined(fix,avgp))" then "unfix avgp"
reset_timestep 0

# Assign the force field
pair_style reaxff NULL safezone 3.0 mincap 150
# pair_coeff * * CHONSSi.ff O Si
# pair_coeff * * CHOSiNa.ff O Si
# pair_coeff * * SiOCHN_2018.ff O Si
# pair_coeff * * PDMSDecomp.ff Si O
pair_coeff * * CHONSi.ff C H O Si
# pair_coeff * * CHOFe.ff O Si

# charge method for reaxff
fix myqeq all qeq/reaxff 1 0.0 10.0 1.0e-6 reaxff maxiter 400
# Setup neighbor style
neighbor        2 bin
neigh_modify    every 10 delay 0 check no

# Setup output
fix avgp all ave/time  ${nevery} ${nrepeat} ${nfreq} c_thermo_press mode vector
fix avgp all ave/time  10 ${nrepeat} ${nfreq} c_thermo_press mode vector
fix avgp all ave/time  10 10 ${nfreq} c_thermo_press mode vector
fix avgp all ave/time  10 10 100 c_thermo_press mode vector
thermo		${nthermo}
thermo		100
thermo_style custom step temp pe press f_avgp[1] vol
thermo_modify norm no

# NVT
fix 4 all nvt temp ${temp} ${temp} ${tdamp}
fix 4 all nvt temp 300 ${temp} ${tdamp}
fix 4 all nvt temp 300 300 ${tdamp}
fix 4 all nvt temp 300 300 50
Resetting global fix info from restart file:
  fix style: nvt, fix ID: 4

# Negative deformation
variable delta equal -${up}*${len0}
variable delta equal -0.01*${len0}
variable delta equal -0.01*17.0085
variable deltaxy equal -${up}*xy
variable deltaxy equal -0.01*xy
variable deltaxz equal -${up}*xz
variable deltaxz equal -0.01*xz
variable deltayz equal -${up}*yz
variable deltayz equal -0.01*yz
if "${dir} == 1" then    "change_box all x delta 0 ${delta} xy delta ${deltaxy} xz delta ${deltaxz} remap units box"
if "${dir} == 2" then    "change_box all y delta 0 ${delta} yz delta ${deltayz} remap units box"
if "${dir} == 3" then    "change_box all z delta 0 ${delta} remap units box"
change_box all z delta 0 ${delta} remap units box
change_box all z delta 0 -0.170085 remap units box
Changing box ...
  triclinic box = (0 0 0) to (15.2382 14.5028 16.838415) with tilt (-6.2627 -0.4482 -0.642)
if "${dir} == 4" then    "change_box all yz delta ${delta} remap units box"
if "${dir} == 5" then    "change_box all xz delta ${delta} remap units box"
if "${dir} == 6" then    "change_box all xy delta ${delta} remap units box"

# Run MD for Negative deformation
# save trajectory
dump dump_neg${dir} all custom ${nthermo} dump/neg_deform${dir}.lammpstrj id type x y z
dump dump_neg3 all custom ${nthermo} dump/neg_deform${dir}.lammpstrj id type x y z
dump dump_neg3 all custom 100 dump/neg_deform${dir}.lammpstrj id type x y z
dump dump_neg3 all custom 100 dump/neg_deform3.lammpstrj id type x y z
run ${nrun}
run 2000
All restart file global fix info was re-assigned
Neighbor list info ...
  update: every = 10 steps, delay = 0 steps, check = no
  max neighbors/atom: 2000, page size: 100000
  master list distance cutoff = 12
  ghost atom cutoff = 12
  binsize = 6, bins = 4 3 3
  2 neighbor lists, perpetual/occasional/extra = 2 0 0
  (1) pair reaxff, perpetual
      attributes: half, newton off, ghost
      pair build: half/bin/newtoff/ghost
      stencil: full/ghost/bin/3d
      bin: standard
  (2) fix qeq/reaxff, perpetual, copy from (1)
      attributes: half, newton off
      pair build: copy
      stencil: none
      bin: none
Per MPI rank memory allocation (min/avg/max) = 123.2 | 125.9 | 128.4 Mbytes
   Step          Temp          PotEng         Press        f_avgp[1]        Volume    
         0   307.18527     -41138.607      44530.764      0              3721.2319    
       100   292.58127     -41146.756      3170.55       -2794.0827      3721.2319    
       200   283.71059     -41160.365      3861.0172     -80.924723      3721.2319    
       300   283.81971     -41166.933      2151.0324      1863.0861      3721.2319    
       400   286.59857     -41151.208     -11340.423      1567.3066      3721.2319    
       500   317.88661     -41156.863     -8337.9992     -154.27142      3721.2319    
       600   324.83052     -41157.871      402.54147     -5136.588       3721.2319    
       700   283.48585     -41136.229     -4246.0008      5118.4546      3721.2319    
       800   301.18878     -41179.961     -786.95294      843.11974      3721.2319    
       900   280.28972     -41170.963     -3881.5611     -4107.1444      3721.2319    
      1000   298.93979     -41179.211      10621.881      6023.1671      3721.2319    
      1100   310.18925     -41163.473      4887.03        2030.1677      3721.2319    
      1200   316.47402     -41155.821      5325.4641     -997.9227       3721.2319    
      1300   335.77402     -41184.76      -3667.2719     -711.48046      3721.2319    
      1400   319.70865     -41198.396      11263.704      2610.1472      3721.2319    
      1500   285.42749     -41184.37      -6403.1        -4790.7482      3721.2319    
      1600   288.07903     -41187.564     -4433.4212     -31.205934      3721.2319    
      1700   311.68276     -41192.32       9311.2053     -4060.8821      3721.2319    
      1800   308.97448     -41161.507      2378.9834     -3401.4376      3721.2319    
      1900   321.14336     -41158.933      4858.0439     -6537.7975      3721.2319    
      2000   302.04957     -41151.609     -2129.2383      1018.1978      3721.2319    
Loop time of 100.851 on 16 procs for 2000 steps with 350 atoms

Performance: 0.857 ns/day, 28.014 hours/ns, 19.831 timesteps/s, 6.941 katom-step/s
99.5% CPU use with 8 MPI tasks x 2 OpenMP threads

MPI task timing breakdown:
Section |  min time  |  avg time  |  max time  |%varavg| %total
---------------------------------------------------------------
Pair    | 74.848     | 76.628     | 78.794     |  14.2 | 75.98
Bond    | 0.00066637 | 0.00083223 | 0.0010721  |   0.0 |  0.00
Neigh   | 6.1856     | 6.3362     | 6.508      |   3.9 |  6.28
Comm    | 6.3839     | 8.4714     | 10.306     |  43.0 |  8.40
Output  | 0.0059977  | 0.0090982  | 0.010645   |   1.9 |  0.01
Modify  | 8.8843     | 9.0573     | 9.1803     |   3.4 |  8.98
Other   |            | 0.3488     |            |       |  0.35

Nlocal:          43.75 ave          51 max          31 min
Histogram: 1 0 0 0 1 1 1 1 0 3
Nghost:        3183.38 ave        3241 max        3103 min
Histogram: 1 0 1 0 2 0 1 0 1 2
Neighs:        28827.9 ave       33181 max       20876 min
Histogram: 1 0 0 0 1 1 1 1 0 3

Total # of neighbors = 230623
Ave neighs/atom = 658.92286
Ave special neighs/atom = 0
Neighbor list builds = 200
Dangerous builds not checked
undump dump_neg${dir}
undump dump_neg3

# Run equilibration
print "*****Equilibration neg${dir} starts.*****"
*****Equilibration neg3 starts.*****
include ff.mod.lmp
# Setup forcefield, system
# undefine any fix ave/* fix before using reset_timestep
if "$(is_defined(fix,avgp))" then "unfix avgp"
unfix avgp
reset_timestep 0

# Assign the force field
pair_style reaxff NULL safezone 3.0 mincap 150
# pair_coeff * * CHONSSi.ff O Si
# pair_coeff * * CHOSiNa.ff O Si
# pair_coeff * * SiOCHN_2018.ff O Si
# pair_coeff * * PDMSDecomp.ff Si O
pair_coeff * * CHONSi.ff C H O Si
# pair_coeff * * CHOFe.ff O Si

# charge method for reaxff
fix myqeq all qeq/reaxff 1 0.0 10.0 1.0e-6 reaxff maxiter 400
# Setup neighbor style
neighbor        2 bin
neigh_modify    every 10 delay 0 check no

# Setup output
fix avgp all ave/time  ${nevery} ${nrepeat} ${nfreq} c_thermo_press mode vector
fix avgp all ave/time  10 ${nrepeat} ${nfreq} c_thermo_press mode vector
fix avgp all ave/time  10 10 ${nfreq} c_thermo_press mode vector
fix avgp all ave/time  10 10 100 c_thermo_press mode vector
thermo		${nthermo}
thermo		100
[...]
Loop time of 100.61 on 16 procs for 2000 steps with 350 atoms

Performance: 0.859 ns/day, 27.947 hours/ns, 19.879 timesteps/s, 6.958 katom-step/s
99.4% CPU use with 8 MPI tasks x 2 OpenMP threads

MPI task timing breakdown:
Section |  min time  |  avg time  |  max time  |%varavg| %total
---------------------------------------------------------------
Pair    | 73.972     | 76.409     | 79.593     |  16.7 | 75.95
Bond    | 0.00069347 | 0.00081583 | 0.0010064  |   0.0 |  0.00
Neigh   | 6.1788     | 6.3295     | 6.4766     |   4.4 |  6.29
Comm    | 5.4238     | 8.608      | 10.971     |  49.4 |  8.56
Output  | 0.00094969 | 0.0011906  | 0.0024367  |   1.4 |  0.00
Modify  | 8.7408     | 8.903      | 9.0165     |   3.3 |  8.85
Other   |            | 0.3589     |            |       |  0.36

Nlocal:          43.75 ave          53 max          35 min
Histogram: 1 0 2 0 1 2 0 0 1 1
Nghost:           3196 ave        3237 max        3151 min
Histogram: 1 2 0 1 0 0 0 1 1 2
Neighs:        28521.9 ave       34078 max       23227 min
Histogram: 1 0 2 0 1 2 0 0 1 1

Total # of neighbors = 228175
Ave neighs/atom = 651.92857
Ave special neighs/atom = 0
Neighbor list builds = 200
Dangerous builds not checked

# Obtain new stress tensor Negative deformation, convert index from LAMMPS to Voigt
variable pxx1 equal f_avgp[1]
variable pyy1 equal f_avgp[2]
variable pzz1 equal f_avgp[3]
variable pxy1 equal f_avgp[4]
variable pxz1 equal f_avgp[5]
variable pyz1 equal f_avgp[6]

# Compute elastic constant from pressure
# d1 = -[pxx1-pxx0]/[(]v_delta/v_len0] defined in input script
variable C1neg equal ${d1}
variable C1neg equal 5.18095259524055
variable C2neg equal ${d2}
variable C2neg equal 42.4689714689317
variable C3neg equal ${d3}
variable C3neg equal 53.3215188218769
variable C4neg equal ${d4}
variable C4neg equal -1.3783741035326
variable C5neg equal ${d5}
variable C5neg equal 3.70847498047628
variable C6neg equal ${d6}
variable C6neg equal -2.63470717760895

# Reset box and simulation parameters
clear
  using 2 OpenMP thread(s) per MPI task
# box tilt large
read_restart equil.res
Reading restart file ...
  restart file = 2 Aug 2023, LAMMPS = 2 Aug 2023
  restoring atom style full from restart
  triclinic box = (0 0 0) to (15.2382 14.5028 17.0085) with tilt (-6.2627 -0.4482 -0.642)
  2 by 2 by 2 MPI processor grid
  pair style reaxff stores no restart info
  350 atoms
Finding 1-2 1-3 1-4 neighbors ...
  special bond factors lj:    0        0        0       
  special bond factors coul:  0        0        0       
     0 = max # of 1-2 neighbors
     0 = max # of 1-3 neighbors
     0 = max # of 1-4 neighbors
     1 = max # of special neighbors
  special bonds CPU = 0.000 seconds
  read_restart CPU = 0.003 seconds
print "*****Positive-change ${dir} starts.*****"
*****Positive-change 6 starts.*****
include ff.mod.lmp
# Setup forcefield, system
# undefine any fix ave/* fix before using reset_timestep
if "$(is_defined(fix,avgp))" then "unfix avgp"
reset_timestep 0

# Assign the force field
pair_style reaxff NULL safezone 3.0 mincap 150
# pair_coeff * * CHONSSi.ff O Si
# pair_coeff * * CHOSiNa.ff O Si
# pair_coeff * * SiOCHN_2018.ff O Si
# pair_coeff * * PDMSDecomp.ff Si O
pair_coeff * * CHONSi.ff C H O Si
# pair_coeff * * CHOFe.ff O Si

# charge method for reaxff
fix myqeq all qeq/reaxff 1 0.0 10.0 1.0e-6 reaxff maxiter 400
# Setup neighbor style
neighbor        2 bin
neigh_modify    every 10 delay 0 check no

# Setup output
fix avgp all ave/time  ${nevery} ${nrepeat} ${nfreq} c_thermo_press mode vector
fix avgp all ave/time  10 ${nrepeat} ${nfreq} c_thermo_press mode vector
fix avgp all ave/time  10 10 ${nfreq} c_thermo_press mode vector
fix avgp all ave/time  10 10 100 c_thermo_press mode vector
thermo		${nthermo}
thermo		100
thermo_style custom step temp pe press f_avgp[1] vol
thermo_modify norm no

# NVT
fix 4 all nvt temp ${temp} ${temp} ${tdamp}
fix 4 all nvt temp 300 ${temp} ${tdamp}
fix 4 all nvt temp 300 300 ${tdamp}
fix 4 all nvt temp 300 300 50
Resetting global fix info from restart file:
  fix style: nvt, fix ID: 4

# Positive deformation
variable delta equal ${up}*${len0}
variable delta equal 0.01*${len0}
variable delta equal 0.01*14.5028
variable deltaxy equal ${up}*xy
variable deltaxy equal 0.01*xy
variable deltaxz equal ${up}*xz
variable deltaxz equal 0.01*xz
variable deltayz equal ${up}*yz
variable deltayz equal 0.01*yz
if "${dir} == 1" then    "change_box all x delta 0 ${delta} xy delta ${deltaxy} xz delta ${deltaxz} remap units box"
if "${dir} == 2" then    "change_box all y delta 0 ${delta} yz delta ${deltayz} remap units box"
if "${dir} == 3" then    "change_box all z delta 0 ${delta} remap units box"
if "${dir} == 4" then    "change_box all yz delta ${delta} remap units box"
if "${dir} == 5" then    "change_box all xz delta ${delta} remap units box"
if "${dir} == 6" then    "change_box all xy delta ${delta} remap units box"
change_box all xy delta ${delta} remap units box
change_box all xy delta 0.145028 remap units box
Changing box ...
  triclinic box = (0 0 0) to (15.2382 14.5028 17.0085) with tilt (-6.117672 -0.4482 -0.642)

# Run positive deformation MD
# save trajectory
dump dump_pos${dir} all custom ${nthermo} dump/pos_deform${dir}.lammpstrj id type x y z
dump dump_pos6 all custom ${nthermo} dump/pos_deform${dir}.lammpstrj id type x y z
dump dump_pos6 all custom 100 dump/pos_deform${dir}.lammpstrj id type x y z
dump dump_pos6 all custom 100 dump/pos_deform6.lammpstrj id type x y z
run ${nrun}
run 2000
All restart file global fix info was re-assigned
Neighbor list info ...
  update: every = 10 steps, delay = 0 steps, check = no
  max neighbors/atom: 2000, page size: 100000
  master list distance cutoff = 12
  ghost atom cutoff = 12
  binsize = 6, bins = 4 3 3
  2 neighbor lists, perpetual/occasional/extra = 2 0 0
  (1) pair reaxff, perpetual
      attributes: half, newton off, ghost
      pair build: half/bin/newtoff/ghost
      stencil: full/ghost/bin/3d
      bin: standard
  (2) fix qeq/reaxff, perpetual, copy from (1)
      attributes: half, newton off
      pair build: copy
      stencil: none
      bin: none
Per MPI rank memory allocation (min/avg/max) = 122.3 | 124.5 | 126.8 Mbytes
   Step          Temp          PotEng         Press        f_avgp[1]        Volume    
         0   307.18527     -41142.113     -9172.9426      0              3758.8201    
       100   298.08612     -41152.411      1803.6254     -6035.0994      3758.8201    
       200   282.67467     -41152.778      4104.166      -1142.7993      3758.8201    
       300   278.39828     -41147.709     -3091.9161     -76.607401      3758.8201    
       400   297.60224     -41147.666      7801.0111     -4442.5139      3758.8201    
       500   335.98228     -41165.446     -6923.1149     -3293.2182      3758.8201    
       600   320.24167     -41157.246      1149.1289     -3627.8909      3758.8201    
       700   291.31241     -41160.96       4.4838695     -3530.7766      3758.8201    
       800   284.57028     -41179.219     -10978.447     -6098.2646      3758.8201    
       900   289.55919     -41186.85      -12304.67      -5735.7074      3758.8201    
      1000   288.26491     -41156.97      -12196.184     -3395.4877      3758.8201    
      1100   308.14468     -41145.972     -9340.4995     -6852.6675      3758.8201    
      1200   315.94419     -41149.834     -15873.267     -8828.282       3758.8201    
      1300   295.79393     -41152.5       -15686.089     -5572.5799      3758.8201    
      1400   283.46817     -41157.816     -1040.5897     -5856.7817      3758.8201    
      1500   288.38509     -41169.768      2708.6671     -4916.8692      3758.8201    
      1600   286.10456     -41165.67       2668.1684     -4872.0882      3758.8201    
      1700   295.08822     -41158.363      9613.4007     -2625.536       3758.8201    
      1800   311.26446     -41156.195     -4891.0064     -3818.3116      3758.8201    
      1900   305.59727     -41151.512      565.60147     -5093.193       3758.8201    
      2000   294.14244     -41154.483     -8263.578      -4868.421       3758.8201    
Loop time of 92.6341 on 16 procs for 2000 steps with 350 atoms

Performance: 0.933 ns/day, 25.732 hours/ns, 21.590 timesteps/s, 7.557 katom-step/s
99.5% CPU use with 8 MPI tasks x 2 OpenMP threads

MPI task timing breakdown:
Section |  min time  |  avg time  |  max time  |%varavg| %total
---------------------------------------------------------------
Pair    | 54.147     | 64.959     | 76.343     | 124.1 | 70.12
Bond    | 0.00058632 | 0.0007472  | 0.00092599 |   0.0 |  0.00
Neigh   | 4.8609     | 5.6591     | 6.4986     |  31.7 |  6.11
Comm    | 1.5552     | 12.951     | 23.737     | 278.4 | 13.98
Output  | 0.0039024  | 0.0058726  | 0.0069168  |   1.5 |  0.01
Modify  | 8.0963     | 8.9332     | 9.7396     |  25.5 |  9.64
Other   |            | 0.1247     |            |       |  0.13

Nlocal:          43.75 ave          51 max          37 min
Histogram: 1 1 2 0 1 0 0 1 0 2
Nghost:        3160.62 ave        3205 max        3094 min
Histogram: 1 0 0 2 1 0 0 1 0 3
Neighs:        28488.4 ave       32984 max       24535 min
Histogram: 1 1 2 0 1 0 0 1 0 2

Total # of neighbors = 227907
Ave neighs/atom = 651.16286
Ave special neighs/atom = 0
Neighbor list builds = 200
Dangerous builds not checked
undump dump_pos${dir}
undump dump_pos6

# Run equilibration
print "*****Equilibration pos${dir} starts.*****"
*****Equilibration pos6 starts.*****
include ff.mod.lmp
# Setup forcefield, system
# undefine any fix ave/* fix before using reset_timestep
if "$(is_defined(fix,avgp))" then "unfix avgp"
unfix avgp
reset_timestep 0

# Assign the force field
pair_style reaxff NULL safezone 3.0 mincap 150
# pair_coeff * * CHONSSi.ff O Si
# pair_coeff * * CHOSiNa.ff O Si
# pair_coeff * * SiOCHN_2018.ff O Si
# pair_coeff * * PDMSDecomp.ff Si O
pair_coeff * * CHONSi.ff C H O Si
# pair_coeff * * CHOFe.ff O Si

# charge method for reaxff
fix myqeq all qeq/reaxff 1 0.0 10.0 1.0e-6 reaxff maxiter 400
# Setup neighbor style
neighbor        2 bin
neigh_modify    every 10 delay 0 check no

# Setup output
fix avgp all ave/time  ${nevery} ${nrepeat} ${nfreq} c_thermo_press mode vector
fix avgp all ave/time  10 ${nrepeat} ${nfreq} c_thermo_press mode vector
fix avgp all ave/time  10 10 ${nfreq} c_thermo_press mode vector
fix avgp all ave/time  10 10 100 c_thermo_press mode vector
thermo		${nthermo}
thermo		100
thermo_style custom step temp pe press f_avgp[1] vol
WARNING: New thermo_style command, previous thermo_modify settings will be lost (src/output.cpp:903)
thermo_modify norm no

# NVT
fix 4 all nvt temp ${temp} ${temp} ${tdamp}
fix 4 all nvt temp 300 ${temp} ${tdamp}
fix 4 all nvt temp 300 300 ${tdamp}
fix 4 all nvt temp 300 300 50
run ${nequil}
run 2000
Neighbor list info ...
  update: every = 10 steps, delay = 0 steps, check = no
  max neighbors/atom: 2000, page size: 100000
  master list distance cutoff = 12
  ghost atom cutoff = 12
  binsize = 6, bins = 4 3 3
  2 neighbor lists, perpetual/occasional/extra = 2 0 0
  (1) pair reaxff, perpetual
      attributes: half, newton off, ghost
      pair build: half/bin/newtoff/ghost
      stencil: full/ghost/bin/3d
      bin: standard
  (2) fix qeq/reaxff, perpetual, copy from (1)
      attributes: half, newton off
      pair build: copy
      stencil: none
      bin: none
Per MPI rank memory allocation (min/avg/max) = 122.4 | 124.4 | 126.2 Mbytes
   Step          Temp          PotEng         Press        f_avgp[1]        Volume    
         0   294.14244     -41154.483     -8263.5982      0              3758.8201    
       100   312.31286     -41171.654     -4188.8899     -3809.9717      3758.8201    
       200   298.73651     -41147.918     -13649.957     -5789.0932      3758.8201    
       300   322.08577     -41144.827      12460.001     -3597.2772      3758.8201    
       400   314.39052     -41146.711      12289.293     -397.29245      3758.8201    
       500   301.13073     -41166.482      11169.926     -5444.3941      3758.8201    
       600   301.02977     -41175.803     -4594.6591     -6454.1138      3758.8201    
       700   283.17627     -41154.251     -10677.679      1426.018       3758.8201    
       800   301.35837     -41150.044     -13739.67      -11223.575      3758.8201    
       900   288.86996     -41125.748     -13667.943     -6686.8211      3758.8201    
      1000   303.37796     -41158.451     -5794.0163     -4270.466       3758.8201    
      1100   306.35145     -41188.856     -6231.1435     -5968.9657      3758.8201    
      1200   281.6242      -41206.952     -8605.4928     -1370.2755      3758.8201    
      1300   257.6122      -41189.477     -17647.706     -12618.107      3758.8201    
      1400   289.03653     -41190.416      3920.003      -4908.2538      3758.8201    
      1500   305.57122     -41181.466     -4448.7667     -2402.3929      3758.8201    
      1600   301.99179     -41160.047     -13335.906     -7366.2927      3758.8201    
      1700   311.97721     -41161.879     -3015.6211     -6021.3389      3758.8201    
      1800   293.67779     -41164.304     -12304.09      -6297.4579      3758.8201    
      1900   296.01859     -41183.679     -6338.4613     -3986.6053      3758.8201    
      2000   292.69972     -41173.16      -4322.3531     -2020.3679      3758.8201    
Loop time of 91.5883 on 16 procs for 2000 steps with 350 atoms

Performance: 0.943 ns/day, 25.441 hours/ns, 21.837 timesteps/s, 7.643 katom-step/s
99.6% CPU use with 8 MPI tasks x 2 OpenMP threads

MPI task timing breakdown:
Section |  min time  |  avg time  |  max time  |%varavg| %total
---------------------------------------------------------------
Pair    | 50.397     | 64.34      | 75.932     | 135.3 | 70.25
Bond    | 0.00056294 | 0.00073025 | 0.00092142 |   0.0 |  0.00
Neigh   | 4.6536     | 5.6684     | 6.5403     |  33.0 |  6.19
Comm    | 1.2951     | 12.891     | 26.844     | 302.2 | 14.08
Output  | 0.00077619 | 0.00091062 | 0.001238   |   0.0 |  0.00
Modify  | 7.7685     | 8.6458     | 9.6564     |  26.8 |  9.44
Other   |            | 0.04131    |            |       |  0.05

Nlocal:          43.75 ave          52 max          36 min
Histogram: 1 1 1 0 1 1 1 0 0 2
Nghost:        3155.88 ave        3208 max        3104 min
Histogram: 1 0 1 1 1 0 2 1 0 1
Neighs:        28505.8 ave       33430 max       23939 min
Histogram: 1 1 1 0 2 0 1 0 0 2

Total # of neighbors = 228046
Ave neighs/atom = 651.56
Ave special neighs/atom = 0
Neighbor list builds = 200
Dangerous builds not checked

# Obtain new stress tensor, convert index from LAMMPS to Voigt
variable pxx1 equal f_avgp[1]
variable pyy1 equal f_avgp[2]
variable pzz1 equal f_avgp[3]
variable pxy1 equal f_avgp[4]
variable pxz1 equal f_avgp[5]
variable pyz1 equal f_avgp[6]

# Compute elastic constant from pressure tensor
# d1 = -[pxx1-pxx0]/[(]v_delta/v_len0] defined in input script
variable C1pos equal ${d1}
variable C1pos equal -48.096133143661
variable C2pos equal ${d2}
variable C2pos equal -0.423317443699822
variable C3pos equal ${d3}
variable C3pos equal -81.7756658401075
variable C4pos equal ${d4}
variable C4pos equal -0.691044777212095
variable C5pos equal ${d5}
variable C5pos equal -3.9128344821562
variable C6pos equal ${d6}
variable C6pos equal 29.7137438237466

# Combine positive and negative
variable C1${dir} equal 0.5*(${C1neg}+${C1pos})
variable C16 equal 0.5*(${C1neg}+${C1pos})
variable C16 equal 0.5*(5.18095259524055+${C1pos})
variable C16 equal 0.5*(5.18095259524055+-48.096133143661)
variable C2${dir} equal 0.5*(${C2neg}+${C2pos})
variable C26 equal 0.5*(${C2neg}+${C2pos})
variable C26 equal 0.5*(42.4689714689317+${C2pos})
variable C26 equal 0.5*(42.4689714689317+-0.423317443699822)
variable C3${dir} equal 0.5*(${C3neg}+${C3pos})
variable C36 equal 0.5*(${C3neg}+${C3pos})
variable C36 equal 0.5*(53.3215188218769+${C3pos})
variable C36 equal 0.5*(53.3215188218769+-81.7756658401075)
variable C4${dir} equal 0.5*(${C4neg}+${C4pos})
variable C46 equal 0.5*(${C4neg}+${C4pos})
variable C46 equal 0.5*(-1.3783741035326+${C4pos})
variable C46 equal 0.5*(-1.3783741035326+-0.691044777212095)
variable C5${dir} equal 0.5*(${C5neg}+${C5pos})
variable C56 equal 0.5*(${C5neg}+${C5pos})
variable C56 equal 0.5*(3.70847498047628+${C5pos})
variable C56 equal 0.5*(3.70847498047628+-3.9128344821562)
variable C6${dir} equal 0.5*(${C6neg}+${C6pos})
variable C66 equal 0.5*(${C6neg}+${C6pos})
variable C66 equal 0.5*(-2.63470717760895+${C6pos})
variable C66 equal 0.5*(-2.63470717760895+29.7137438237466)

# Delete dir to make sure it is not reused
variable dir delete

# Calc and output
include calc.mod.lmp
variable C11all equal ${C11}
variable C11all equal 7.55332288783447
variable C22all equal ${C22}
variable C22all equal 103.04320947802
variable C33all equal ${C33}
variable C33all equal 43.763585761824

variable C44all equal ${C44}
variable C44all equal 20.9213591826896
variable C55all equal ${C55}
variable C55all equal 26.2660808054099
variable C66all equal ${C66}
variable C66all equal 13.5395183230688

variable C12all equal 0.5*(${C12}+${C21})
variable C12all equal 0.5*(12.3647927253848+${C21})
variable C12all equal 0.5*(12.3647927253848+21.3821379480037)
variable C13all equal 0.5*(${C13}+${C31})
variable C13all equal 0.5*(11.3797764254586+${C31})
variable C13all equal 0.5*(11.3797764254586+37.5941284598972)
variable C23all equal 0.5*(${C23}+${C32})
variable C23all equal 0.5*(34.5838453980593+${C32})
variable C23all equal 0.5*(34.5838453980593+14.6781458649463)

variable C14all equal 0.5*(${C14}+${C41})
variable C14all equal 0.5*(33.6098742213753+${C41})
variable C14all equal 0.5*(33.6098742213753+4.18424246796995)
variable C15all equal 0.5*(${C15}+${C51})
variable C15all equal 0.5*(-26.3754301082116+${C51})
variable C15all equal 0.5*(-26.3754301082116+2.42986876753955)
variable C16all equal 0.5*(${C16}+${C61})
variable C16all equal 0.5*(-21.4575902742102+${C61})
variable C16all equal 0.5*(-21.4575902742102+9.5897247608721)

variable C24all equal 0.5*(${C24}+${C42})
variable C24all equal 0.5*(19.6798517153973+${C42})
variable C24all equal 0.5*(19.6798517153973+3.11337079795305)
variable C25all equal 0.5*(${C25}+${C52})
variable C25all equal 0.5*(-17.3124824728444+${C52})
variable C25all equal 0.5*(-17.3124824728444+-10.9249183902345)
variable C26all equal 0.5*(${C26}+${C62})
variable C26all equal 0.5*(21.0228270126159+${C62})
variable C26all equal 0.5*(21.0228270126159+-2.21892669238909)

variable C34all equal 0.5*(${C34}+${C43})
variable C34all equal 0.5*(-26.0486643449986+${C43})
variable C34all equal 0.5*(-26.0486643449986+0.80622489511298)
variable C35all equal 0.5*(${C35}+${C53})
variable C35all equal 0.5*(-18.5586656041957+${C53})
variable C35all equal 0.5*(-18.5586656041957+-10.7008728792366)
variable C36all equal 0.5*(${C36}+${C63})
variable C36all equal 0.5*(-14.2270735091153+${C63})
variable C36all equal 0.5*(-14.2270735091153+-0.1082980933411)

variable C45all equal 0.5*(${C45}+${C54})
variable C45all equal 0.5*(-6.53810575330458+${C54})
variable C45all equal 0.5*(-6.53810575330458+2.06733070217028)
variable C46all equal 0.5*(${C46}+${C64})
variable C46all equal 0.5*(-1.03470944037235+${C64})
variable C46all equal 0.5*(-1.03470944037235+5.21227331556706)
variable C56all equal 0.5*(${C56}+${C65})
variable C56all equal 0.5*(-0.10217975083996+${C65})
variable C56all equal 0.5*(-0.10217975083996+-1.30777482691077)

# print stiffness tensor to "C.log"
print """
# stiffness tensor (GPa) for ${structure} by change-box method
${C11all} ${C12all} ${C13all} ${C14all} ${C15all} ${C16all}
${C12all} ${C22all} ${C23all} ${C24all} ${C25all} ${C26all}
${C13all} ${C23all} ${C33all} ${C34all} ${C35all} ${C36all}
${C14all} ${C24all} ${C34all} ${C44all} ${C45all} ${C46all}
${C15all} ${C25all} ${C35all} ${C45all} ${C55all} ${C56all}
${C16all} ${C26all} ${C36all} ${C46all} ${C56all} ${C66all}
"""  file C.log screen no

Total wall time: 0:41:18
