ITEM: TIMESTEP
0
ITEM: NUMBER OF ATOMS
243
ITEM: BOX BOUNDS xy xz yz pp pp pp
-8.8456499999999991e+00 1.7691299999999998e+01 -8.8456499999999991e+00
0.0000000000000000e+00 1.7691299999999998e+01 0.0000000000000000e+00
0.0000000000000000e+00 1.8963100000000001e+01 0.0000000000000000e+00
ITEM: ATOMS id type x y z q
3 2 1.292 2.238 0 0.868326
6 2 1.292 2.238 5.321 1.81894
10 2 -0.135 4.241 1.774 1.77802
12 2 -1.156 6.479 0 0.925164
13 2 -0.135 4.241 7.095 1.87566
15 2 -1.156 6.479 5.321 1.88051
19 2 -2.584 8.482 1.774 1.75606
22 2 -2.584 8.482 7.095 1.82745
38 2 1.292 6.244 3.547 1.90617
41 2 1.292 6.244 8.868 1.92398
82 1 1.394 1.118 1.121 -0.699961
83 1 0.271 1.766 4.2 -0.846953
84 1 1.394 1.118 6.442 -0.84126
88 1 -1.055 3.123 2.427 -0.798336
89 1 0.784 3.593 0.653 -0.800738
90 1 -1.055 5.359 1.121 -0.820564
91 1 -1.055 3.123 7.748 -0.815669
92 1 0.784 3.593 5.974 -0.927046
93 1 -2.178 6.007 4.2 -0.842285
94 1 -1.055 5.359 6.442 -0.956471
100 1 -3.503 7.364 2.427 -0.818501
101 1 -1.665 7.834 0.653 -0.822068
105 1 -3.503 7.364 7.748 -0.834888
106 1 -1.665 7.834 5.974 -0.95581
132 1 0.784 4.889 2.895 -0.923596
133 1 0.271 6.716 4.668 -0.956568
137 1 0.784 4.889 8.216 -0.939648
148 1 1.394 7.364 2.427 -0.956283
155 1 1.394 7.364 7.748 -0.970782
1 2 2.313 0 1.774 0.814221
4 2 2.313 0 7.095 0.884194
28 2 7.21 0 1.774 0.836974
29 2 3.74 2.003 3.547 1.84434
30 2 6.189 2.238 0 0.861449
31 2 7.21 0 7.095 0.924304
32 2 3.74 2.003 8.868 1.84969
33 2 6.189 2.238 5.321 1.87311
37 2 4.762 4.241 1.774 1.82255
39 2 3.741 6.479 0 0.942992
40 2 4.762 4.241 7.095 1.95719
42 2 3.741 6.479 5.321 1.95156
46 2 2.313 8.482 1.774 1.80075
49 2 2.313 8.482 7.095 1.9192
118 1 3.232 0.648 2.895 -0.825044
119 1 2.719 2.475 4.668 -0.925358
120 1 6.291 1.118 1.121 -0.70523
121 1 3.232 0.648 8.216 -0.834773
123 1 5.168 1.766 4.2 -0.966763
124 1 6.291 1.118 6.442 -0.847683
130 1 3.842 3.123 2.427 -0.923034
131 1 5.681 3.593 0.653 -0.814979
134 1 3.842 5.359 1.121 -0.82021
135 1 3.842 3.123 7.748 -0.936684
136 1 5.681 3.593 5.974 -0.944958
139 1 2.72 6.007 4.2 -0.952482
140 1 3.842 5.359 6.442 -0.956464
149 1 3.232 7.834 0.653 -0.832677
156 1 3.232 7.834 5.974 -0.968596
173 1 8.129 0.648 2.895 -0.825579
178 1 8.129 0.648 8.216 -0.840851
193 1 5.681 4.889 2.895 -0.935874
194 1 5.168 6.716 4.668 -0.96206
200 1 5.681 4.889 8.216 -0.963052
9 2 1.292 2.238 10.642 1.80286
16 2 -0.135 4.241 12.416 1.85937
18 2 -1.156 6.479 10.642 1.85831
25 2 -2.584 8.482 12.416 1.8229
44 2 1.292 6.244 14.189 1.72594
85 1 0.271 1.766 14.842 -0.434009
86 1 0.271 1.766 9.521 -0.854078
87 1 1.394 1.118 11.763 -0.837612
95 1 -1.055 3.123 13.069 -0.799553
96 1 0.784 3.593 11.295 -0.925847
97 1 -2.178 6.007 14.842 -0.431471
98 1 -2.178 6.007 9.521 -0.851097
99 1 -1.055 5.359 11.763 -0.95485
111 1 -3.503 7.364 13.069 -0.812925
112 1 -1.665 7.834 11.295 -0.952611
138 1 0.271 6.716 9.989 -0.964461
143 1 0.784 4.889 13.537 -0.875377
145 1 0.271 6.716 15.31 -0.521556
163 1 1.394 7.364 13.069 -0.917233
7 2 2.313 0 12.416 0.882057
34 2 7.21 0 12.416 0.905268
35 2 3.74 2.003 14.189 1.66774
36 2 6.189 2.238 10.642 1.8476
43 2 4.762 4.241 12.416 1.91736
45 2 3.741 6.479 10.642 1.91582
52 2 2.313 8.482 12.416 1.89512
122 1 2.719 2.475 9.989 -0.932911
125 1 3.232 0.648 13.537 -0.770678
126 1 5.168 1.766 14.842 -0.525108
127 1 2.719 2.475 15.31 -0.501717
128 1 5.168 1.766 9.521 -0.976355
129 1 6.291 1.118 11.763 -0.841287
141 1 3.842 3.123 13.069 -0.892255
142 1 5.681 3.593 11.295 -0.944814
144 1 2.72 6.007 14.842 -0.501203
146 1 2.72 6.007 9.521 -0.96127
147 1 3.842 5.359 11.763 -0.948047
164 1 3.232 7.834 11.295 -0.967991
184 1 8.129 0.648 13.537 -0.773249
201 1 5.168 6.716 9.989 -0.974681
208 1 5.681 4.889 13.537 -0.890047
210 1 5.168 6.716 15.31 -0.50852
21 2 -3.605 10.72 0 0.861984
24 2 -3.605 10.72 5.321 1.76315
103 1 -3.503 9.6 1.121 -0.798229
104 1 -4.113 12.075 0.653 -0.376456
108 1 -4.626 10.248 4.2 -0.792467
109 1 -3.503 9.6 6.442 -0.932184
110 1 -4.113 12.075 5.974 -0.483615
47 2 -1.157 10.485 3.547 1.79807
48 2 1.292 10.72 0 0.874243
50 2 -1.157 10.485 8.868 1.78889
51 2 1.292 10.72 5.321 1.82079
150 1 -1.665 9.13 2.895 -0.924105
151 1 -1.055 11.605 2.427 -0.508825
152 1 -2.178 10.957 4.668 -0.899748
153 1 1.394 9.6 1.121 -0.799364
154 1 0.784 12.075 0.653 -0.373495
157 1 -1.665 9.13 8.216 -0.940384
158 1 -1.055 11.605 7.748 -0.497257
160 1 0.271 10.248 4.2 -0.90025
161 1 1.394 9.6 6.442 -0.928019
162 1 0.784 12.075 5.974 -0.472658
217 1 3.232 9.13 2.895 -0.931035
219 1 2.72 10.957 4.668 -0.908712
226 1 3.232 9.13 8.216 -0.955437
27 2 -3.605 10.72 10.642 1.77438
113 1 -4.626 10.248 14.842 -0.406568
115 1 -4.626 10.248 9.521 -0.803762
116 1 -3.503 9.6 11.763 -0.925379
117 1 -4.113 12.075 11.295 -0.485035
53 2 -1.157 10.485 14.189 1.58509
54 2 1.292 10.72 10.642 1.81444
159 1 -2.178 10.957 9.989 -0.901303
165 1 -1.665 9.13 13.537 -0.867759
166 1 0.271 10.248 14.842 -0.471419
167 1 -1.055 11.605 13.069 -0.454767
168 1 -2.178 10.957 15.31 -0.492794
169 1 0.271 10.248 9.521 -0.90701
170 1 1.394 9.6 11.763 -0.91725
171 1 0.784 12.075 11.295 -0.4759
228 1 2.72 10.957 9.989 -0.912127
236 1 3.232 9.13 13.537 -0.87789
239 1 2.72 10.957 15.31 -0.482167
56 2 8.638 2.003 3.547 1.81507
59 2 8.638 2.003 8.868 1.804
64 2 9.659 4.241 1.774 1.71084
65 2 6.189 6.244 3.547 1.89845
66 2 8.638 6.479 0 0.932553
67 2 9.659 4.241 7.095 1.84224
68 2 6.189 6.244 8.868 1.90356
69 2 8.638 6.479 5.321 1.82452
73 2 7.21 8.482 1.774 1.68576
76 2 7.21 8.482 7.095 1.81159
174 1 7.617 2.475 4.668 -0.936391
181 1 10.065 1.766 4.2 -0.932536
190 1 8.74 3.123 2.427 -0.912979
191 1 10.578 3.593 0.653 -0.800947
192 1 10.578 4.889 2.895 -0.517535
196 1 8.74 5.359 1.121 -0.791099
197 1 8.74 3.123 7.748 -0.925058
198 1 10.578 3.593 5.974 -0.902787
199 1 10.578 4.889 8.216 -0.535142
202 1 10.065 6.716 4.668 -0.525751
203 1 7.617 6.007 4.2 -0.916893
204 1 8.74 5.359 6.442 -0.904882
214 1 6.291 7.364 2.427 -0.939523
215 1 8.129 7.834 0.653 -0.814399
223 1 6.291 7.364 7.748 -0.950435
224 1 8.129 7.834 5.974 -0.92685
2 2 16.5343 2.003 3.547 0.937885
5 2 16.5343 2.003 8.868 0.925399
11 2 14.0863 6.244 3.547 1.00894
14 2 14.0863 6.244 8.868 1.00798
55 2 12.107 0 1.774 0.761358
57 2 11.086 2.238 0 0.868175
58 2 12.107 0 7.095 0.846693
60 2 11.086 2.238 5.321 1.77854
172 1 13.026 0.648 2.895 -0.435921
176 1 11.188 1.118 1.121 -0.681152
177 1 13.026 0.648 8.216 -0.446312
180 1 12.514 2.475 4.668 -0.52811
182 1 11.188 1.118 6.442 -0.802116
62 2 8.638 2.003 14.189 1.65841
70 2 9.659 4.241 12.416 1.83345
71 2 6.189 6.244 14.189 1.72375
72 2 8.638 6.479 10.642 1.79741
79 2 7.21 8.482 12.416 1.81474
179 1 7.617 2.475 9.989 -0.949237
185 1 10.065 1.766 14.842 -0.522035
186 1 7.617 2.475 15.31 -0.499691
188 1 10.065 1.766 9.521 -0.941732
195 1 10.065 6.716 15.31 -0.166426
205 1 8.74 3.123 13.069 -0.881616
206 1 10.578 3.593 11.295 -0.905663
207 1 10.578 4.889 13.537 -0.514481
209 1 7.617 6.007 14.842 -0.507629
211 1 10.065 6.716 9.989 -0.534158
212 1 7.617 6.007 9.521 -0.925963
213 1 8.74 5.359 11.763 -0.90156
233 1 6.291 7.364 13.069 -0.904958
234 1 8.129 7.834 11.295 -0.931549
8 2 16.5343 2.003 14.189 0.847012
17 2 14.0863 6.244 14.189 0.91101
61 2 12.107 0 12.416 0.847699
63 2 11.086 2.238 10.642 1.75868
175 1 12.514 2.475 15.31 -0.175443
183 1 13.026 0.648 13.537 -0.423955
187 1 12.514 2.475 9.989 -0.537446
189 1 11.188 1.118 11.763 -0.796144
74 2 3.741 10.485 3.547 1.81569
75 2 6.189 10.72 0 0.855866
77 2 3.741 10.485 8.868 1.80073
78 2 6.189 10.72 5.321 1.69463
218 1 3.843 11.605 2.427 -0.515319
221 1 6.291 9.6 1.121 -0.765875
222 1 5.681 12.075 0.653 -0.380104
227 1 3.843 11.605 7.748 -0.501592
230 1 5.168 10.248 4.2 -0.869016
231 1 6.291 9.6 6.442 -0.872995
232 1 5.681 12.075 5.974 -0.466982
20 2 11.6373 10.485 3.547 0.933002
23 2 11.6373 10.485 8.868 0.919084
102 1 11.7393 11.605 2.427 -0.394711
107 1 11.7393 11.605 7.748 -0.395275
216 1 8.129 9.13 2.895 -0.523647
225 1 8.129 9.13 8.216 -0.54254
229 1 7.617 10.957 4.668 -0.478998
80 2 3.741 10.485 14.189 1.58941
81 2 6.189 10.72 10.642 1.68591
237 1 5.168 10.248 14.842 -0.477898
238 1 3.843 11.605 13.069 -0.461692
241 1 5.168 10.248 9.521 -0.876683
242 1 6.291 9.6 11.763 -0.866979
243 1 5.681 12.075 11.295 -0.466176
26 2 11.6373 10.485 14.189 0.812296
114 1 11.7393 11.605 13.069 -0.37911
220 1 7.617 10.957 15.31 -0.146358
235 1 8.129 9.13 13.537 -0.518881
240 1 7.617 10.957 9.989 -0.483221
ITEM: TIMESTEP
41
ITEM: NUMBER OF ATOMS
243
ITEM: BOX BOUNDS xy xz yz pp pp pp
-8.8456499999999991e+00 1.7691299999999998e+01 -8.8456499999999991e+00
0.0000000000000000e+00 1.7691299999999998e+01 0.0000000000000000e+00
0.0000000000000000e+00 1.8963100000000001e+01 0.0000000000000000e+00
ITEM: ATOMS id type x y z q
3 2 1.33454 2.25759 0.0221293 0.857954
6 2 1.27388 2.2429 5.31153 1.69865
10 2 -0.141024 4.22519 1.72516 1.60251
12 2 -1.11743 6.48498 0.0226672 0.915009
13 2 -0.169367 4.23213 7.12506 1.78569
15 2 -1.1694 6.48139 5.29754 1.8006
19 2 -2.59368 8.41488 1.76861 1.59929
22 2 -2.61966 8.46621 7.12088 1.72996
38 2 1.31747 6.23574 3.55741 1.84358
41 2 1.31495 6.23021 8.86539 1.91045
82 1 1.29044 1.04557 1.08521 -0.687807
83 1 0.283931 1.6594 4.18523 -0.803157
84 1 1.31528 1.09318 6.44539 -0.794147
88 1 -1.129 3.06168 2.38239 -0.722826
89 1 0.801077 3.67724 0.528032 -0.763871
90 1 -1.13843 5.33598 1.11985 -0.774191
91 1 -1.15053 3.08943 7.68741 -0.787948
92 1 0.727408 3.61259 5.94796 -0.892274
93 1 -2.16646 5.93188 4.18693 -0.833441
94 1 -1.07664 5.37788 6.45958 -0.899878
100 1 -3.59139 7.31421 2.38945 -0.782858
101 1 -1.65733 7.90491 0.5367 -0.770921
105 1 -3.60715 7.33765 7.70796 -0.8001
106 1 -1.71797 7.8385 5.94807 -0.91727
132 1 0.769693 4.87345 2.9174 -0.870188
133 1 0.298074 6.71584 4.68473 -0.926142
137 1 0.761454 4.86706 8.26194 -0.931081
148 1 1.38207 7.31385 2.38433 -0.924471
155 1 1.38961 7.33947 7.73083 -0.963664
1 2 2.33638 0.020119 1.76346 0.820817
4 2 2.34748 0.0376208 7.0706 0.890927
28 2 7.22117 0.0203537 1.77054 0.837489
29 2 3.74101 1.97005 3.52099 1.72207
30 2 6.21493 2.26324 0.0211997 0.8554
31 2 7.23633 0.0477358 7.06476 0.928541
32 2 3.74986 1.9732 8.84014 1.75787
33 2 6.19169 2.24321 5.34432 1.78436
37 2 4.77711 4.21709 1.74606 1.71839
39 2 3.72301 6.49595 -0.00395895 0.943491
40 2 4.73876 4.25533 7.09644 1.94994
42 2 3.75015 6.4937 5.327 1.95487
46 2 2.32244 8.45437 1.74834 1.69244
49 2 2.29543 8.47844 7.09234 1.91198
118 1 3.26571 0.548698 2.94945 -0.794608
119 1 2.74707 2.43985 4.6953 -0.882155
120 1 6.19373 1.05206 1.08094 -0.703725
121 1 3.26292 0.542977 8.28334 -0.79899
123 1 5.19162 1.74912 4.18689 -0.903154
124 1 6.20287 1.09411 6.45539 -0.827034
130 1 3.82671 3.0663 2.34861 -0.895415
131 1 5.69664 3.67964 0.544781 -0.789413
134 1 3.81187 5.34835 1.11017 -0.782476
135 1 3.83692 3.09578 7.70244 -0.92914
136 1 5.65407 3.62072 5.96333 -0.927812
139 1 2.76198 6.02211 4.18164 -0.953597
140 1 3.83711 5.39733 6.46759 -0.964307
149 1 3.24561 7.92151 0.539871 -0.798867
156 1 3.20617 7.84507 5.95635 -0.968128
173 1 8.16654 0.545546 2.94677 -0.789588
178 1 8.15982 0.54531 8.27389 -0.801276
193 1 5.67071 4.86579 2.91689 -0.90396
194 1 5.18956 6.71115 4.6927 -0.956617
200 1 5.65375 4.87135 8.23722 -0.961302
9 2 1.28476 2.24213 10.6353 1.68537
16 2 -0.163472 4.22676 12.4582 1.74847
18 2 -1.16021 6.48255 10.6203 1.77424
25 2 -2.60908 8.46862 12.4522 1.71324
44 2 1.28546 6.25242 14.2101 1.69601
85 1 0.216535 1.68865 14.8955 -0.443028
86 1 0.288613 1.67002 9.50884 -0.812378
87 1 1.30957 1.07173 11.7529 -0.786977
95 1 -1.15702 3.08986 12.9981 -0.782008
96 1 0.728212 3.61275 11.2678 -0.883572
97 1 -2.23317 5.95416 14.9035 -0.442656
98 1 -2.16359 5.93171 9.50887 -0.835415
99 1 -1.07603 5.37063 11.7791 -0.893414
111 1 -3.60693 7.33969 13.0113 -0.786439
112 1 -1.71819 7.84084 11.2669 -0.909191
138 1 0.301916 6.71 9.99595 -0.935594
143 1 0.779952 4.865 13.5913 -0.854751
145 1 0.342512 6.73752 15.3921 -0.515524
163 1 1.37945 7.33877 13.0449 -0.909337
7 2 2.31741 -0.00887869 12.3856 0.867947
34 2 7.18754 -0.0112204 12.387 0.899892
35 2 3.73425 2.0161 14.2162 1.58041
36 2 6.19318 2.24182 10.6631 1.78611
43 2 4.73959 4.24809 12.4298 1.88067
45 2 3.75219 6.49272 10.6434 1.91154
52 2 2.30349 8.47835 12.4295 1.86053
122 1 2.75216 2.43658 10.0094 -0.890714
125 1 3.2581 0.578247 13.5671 -0.7124
126 1 5.14903 1.72997 14.888 -0.503146
127 1 2.77145 2.48451 15.4037 -0.488457
128 1 5.19511 1.75305 9.51015 -0.915254
129 1 6.21535 1.07604 11.7462 -0.823111
141 1 3.82283 3.09869 13.0322 -0.878942
142 1 5.65319 3.61786 11.2828 -0.922287
144 1 2.69316 5.99946 14.8879 -0.497602
146 1 2.75466 6.02354 9.50239 -0.961084
147 1 3.84263 5.39046 11.7829 -0.946487
164 1 3.20382 7.84513 11.277 -0.955137
184 1 8.14933 0.569673 13.5544 -0.715103
201 1 5.19266 6.70662 10.0072 -0.968199
208 1 5.67597 4.85756 13.5617 -0.879837
210 1 5.24052 6.73805 15.3975 -0.498469
21 2 -3.56986 10.7617 -0.0133727 0.869818
24 2 -3.61247 10.7517 5.32228 1.66348
103 1 -3.54403 9.56805 1.07514 -0.72428
104 1 -4.07663 12.152 0.562562 -0.378636
108 1 -4.64152 10.177 4.20183 -0.751616
109 1 -3.52947 9.61132 6.45456 -0.870103
110 1 -4.11681 12.1462 5.9228 -0.46701
47 2 -1.14 10.4967 3.54487 1.72419
48 2 1.30653 10.7473 -0.0187673 0.887867
50 2 -1.14075 10.4895 8.87054 1.73105
51 2 1.29749 10.7491 5.32965 1.77165
150 1 -1.67498 9.11552 2.91168 -0.87137
151 1 -1.1116 11.6263 2.42764 -0.499604
152 1 -2.15632 10.9712 4.68156 -0.85927
153 1 1.36428 9.57711 1.08267 -0.756256
154 1 0.831169 12.1487 0.561965 -0.374021
157 1 -1.67907 9.11314 8.25049 -0.908878
158 1 -1.10693 11.6295 7.7649 -0.487405
160 1 0.311673 10.2466 4.17172 -0.875533
161 1 1.38856 9.62138 6.46052 -0.914483
162 1 0.820093 12.1453 5.92968 -0.459106
217 1 3.21894 9.11505 2.90913 -0.891099
219 1 2.73921 10.9812 4.69062 -0.87779
226 1 3.20552 9.11494 8.23099 -0.936898
27 2 -3.61354 10.7512 10.6442 1.67083
113 1 -4.69637 10.1864 14.8974 -0.416249
115 1 -4.63921 10.1773 9.5218 -0.762221
116 1 -3.5302 9.60762 11.7789 -0.861842
117 1 -4.11945 12.1458 11.2425 -0.470645
53 2 -1.15889 10.4999 14.2082 1.55749
54 2 1.29782 10.7518 10.6502 1.76359
159 1 -2.16013 10.9724 9.99972 -0.86164
165 1 -1.6637 9.11112 13.5828 -0.844849
166 1 0.251598 10.2367 14.8874 -0.467709
167 1 -1.10687 11.6385 13.0983 -0.458218
168 1 -2.11664 10.9849 15.3805 -0.484219
169 1 0.31442 10.2462 9.49299 -0.88049
170 1 1.395 9.61847 11.7802 -0.898377
171 1 0.819515 12.1484 11.2485 -0.466048
228 1 2.73852 10.9821 10.0088 -0.881151
236 1 3.23582 9.11244 13.554 -0.870151
239 1 2.78767 10.9893 15.3789 -0.472318
56 2 8.64061 1.97118 3.5237 1.68501
59 2 8.64356 1.97437 8.84777 1.69723
64 2 9.68035 4.24902 1.76549 1.57649
65 2 6.19487 6.23073 3.55639 1.84993
66 2 8.64521 6.4842 -0.0296485 0.919943
67 2 9.65617 4.25722 7.09332 1.79119
68 2 6.19302 6.22573 8.86868 1.88967
69 2 8.6637 6.49763 5.31849 1.77802
73 2 7.21968 8.48605 1.7627 1.55837
76 2 7.20851 8.47861 7.08665 1.76782
174 1 7.6478 2.4359 4.70291 -0.900264
181 1 10.0922 1.73904 4.18592 -0.869096
190 1 8.73198 3.07644 2.35884 -0.87207
191 1 10.6167 3.66398 0.557801 -0.742617
192 1 10.6566 4.87956 2.86678 -0.501968
196 1 8.68791 5.35858 1.11033 -0.743479
197 1 8.73311 3.1037 7.7109 -0.901685
198 1 10.5912 3.62611 5.96621 -0.867449
199 1 10.6373 4.86356 8.18502 -0.524412
202 1 10.1077 6.79679 4.71858 -0.513318
203 1 7.64609 6.01849 4.17904 -0.902862
204 1 8.72531 5.40015 6.47745 -0.886171
214 1 6.28261 7.32204 2.39558 -0.895131
215 1 8.16423 7.91029 0.550301 -0.752161
223 1 6.29175 7.34008 7.73843 -0.934378
224 1 8.14972 7.86463 5.95666 -0.896296
2 2 16.5233 2.03593 3.63022 0.916283
5 2 16.5504 2.07108 8.91884 0.922429
11 2 14.0995 6.26237 3.58001 1.01135
14 2 14.1049 6.26273 8.88596 1.00745
55 2 12.1195 -0.00463085 1.76779 0.77201
57 2 11.1308 2.23809 0.00514561 0.84405
58 2 12.1319 0.00179608 7.08338 0.852226
60 2 11.1176 2.25791 5.31591 1.67306
172 1 13.1145 0.593806 2.85388 -0.438132
176 1 11.0867 1.03779 1.08417 -0.673114
177 1 13.1167 0.568268 8.19219 -0.442391
180 1 12.5815 2.50975 4.72331 -0.515409
182 1 11.126 1.08453 6.44026 -0.763436
62 2 8.62805 2.00177 14.2288 1.55666
70 2 9.6613 4.26464 12.4234 1.77566
71 2 6.17252 6.23359 14.211 1.69083
72 2 8.65915 6.49751 10.633 1.75419
79 2 7.21627 8.48499 12.4279 1.75028
179 1 7.64108 2.43448 10.0191 -0.915197
185 1 10.0412 1.72487 14.9157 -0.496464
186 1 7.66651 2.48231 15.4156 -0.481563
188 1 10.0904 1.73956 9.51095 -0.877023
195 1 10.1436 6.80445 15.4005 -0.163864
205 1 8.74689 3.10852 13.0555 -0.848414
206 1 10.5913 3.63266 11.2879 -0.863764
207 1 10.6537 4.87747 13.5033 -0.504586
209 1 7.58173 6.00328 14.9027 -0.496076
211 1 10.1036 6.8019 10.0382 -0.519459
212 1 7.64139 6.00883 9.49514 -0.910682
213 1 8.73308 5.39533 11.784 -0.884418
233 1 6.28733 7.33784 13.0564 -0.881385
234 1 8.13927 7.86104 11.2809 -0.893082
8 2 16.5268 2.03945 14.1988 0.864554
17 2 14.0835 6.24167 14.1697 0.922516
61 2 12.1141 0.00870534 12.4214 0.860431
63 2 11.1175 2.25755 10.6412 1.6617
175 1 12.5991 2.55577 15.3999 -0.178223
183 1 13.1307 0.58078 13.4998 -0.429134
187 1 12.5807 2.50858 10.0488 -0.522385
189 1 11.121 1.08 11.7532 -0.761089
74 2 3.73938 10.4901 3.54911 1.75112
75 2 6.21137 10.7479 -0.0148274 0.865963
77 2 3.73963 10.482 8.87334 1.75074
78 2 6.21093 10.7513 5.32212 1.63265
218 1 3.78123 11.6217 2.43305 -0.505041
221 1 6.2354 9.58843 1.09139 -0.725978
222 1 5.73882 12.1519 0.565009 -0.380858
227 1 3.78652 11.6278 7.77298 -0.489924
230 1 5.19958 10.2528 4.17333 -0.840293
231 1 6.2765 9.62632 6.4682 -0.847203
232 1 5.74013 12.1475 5.93002 -0.448222
20 2 11.6054 10.502 3.56666 0.92933
23 2 11.6062 10.4982 8.88961 0.918357
102 1 11.6339 11.6244 2.44461 -0.395661
107 1 11.6384 11.6206 7.76753 -0.394076
216 1 8.20336 9.10596 2.86399 -0.507004
225 1 8.18791 9.08584 8.17974 -0.530593
229 1 7.6569 11.0366 4.71576 -0.466106
80 2 3.73188 10.4895 14.2021 1.5732
81 2 6.2048 10.7552 10.64 1.62722
237 1 5.13848 10.2404 14.8953 -0.470599
238 1 3.78743 11.638 13.1032 -0.462735
241 1 5.19953 10.2471 9.49329 -0.848601
242 1 6.28309 9.6245 11.782 -0.835738
243 1 5.73709 12.1529 11.2468 -0.450734
26 2 11.6082 10.4713 14.1769 0.839112
114 1 11.6414 11.6243 13.0843 -0.386215
220 1 7.68766 11.0403 15.3955 -0.146854
235 1 8.20518 9.10183 13.5128 -0.508865
240 1 7.65253 11.0358 10.0354 -0.46598
ITEM: TIMESTEP
200
ITEM: NUMBER OF ATOMS
243
ITEM: BOX BOUNDS xy xz yz pp pp pp
-8.8456499999999991e+00 1.7691299999999998e+01 -8.8456499999999991e+00
0.0000000000000000e+00 1.7691299999999998e+01 0.0000000000000000e+00
0.0000000000000000e+00 1.8963100000000001e+01 0.0000000000000000e+00
ITEM: ATOMS id type x y z q
3 2 1.7242 2.43516 0.128443 0.898736
6 2 1.07647 2.16843 5.17186 1.63143
10 2 -0.233507 4.17196 1.51738 1.51522
194 1 5.19011 6.63532 4.68929 -0.899091
13 2 -0.175942 4.19893 7.04192 1.68947
15 2 -1.12198 6.54432 5.28282 1.71533
19 2 -2.74937 8.33907 1.58926 1.52162
22 2 -2.80546 8.42759 7.04718 1.63411
38 2 1.26945 6.0758 3.41531 1.7896
41 2 1.33526 6.19866 8.71335 1.85033
82 1 1.29792 1.15431 1.03497 -0.683367
83 1 0.000392065 1.49178 4.15337 -0.782433
84 1 1.3659 1.08875 6.31987 -0.764728
88 1 -1.07256 2.79439 1.9244 -0.706196
89 1 0.80624 3.7542 0.351903 -0.724811
90 1 -1.22282 5.33141 0.838125 -0.703198
91 1 -1.25478 3.209 7.75872 -0.723901
92 1 0.3091 3.49006 5.66139 -0.871656
93 1 -2.20603 5.81471 4.33237 -0.775303
94 1 -0.885284 5.57054 6.59513 -0.828217
128 1 5.3159 1.90133 9.33032 -0.87824
101 1 -1.8917 7.7741 0.293416 -0.740336
193 1 5.75503 4.81815 2.97992 -0.832096
106 1 -1.94285 7.81303 5.81513 -0.892633
132 1 0.540443 4.76715 2.84463 -0.871635
133 1 0.278138 6.74685 4.47612 -0.896546
137 1 0.949624 4.80409 8.04999 -0.89068
148 1 1.35824 7.07334 2.19003 -0.948583
155 1 1.37258 7.36389 7.61671 -0.934207
1 2 1.86029 0.0679549 2.03699 0.84757
4 2 2.59481 0.0908803 6.71803 0.883256
28 2 7.07676 0.134303 1.74251 0.856311
29 2 3.68571 1.96534 3.46709 1.59345
178 1 8.36658 0.589694 8.28263 -0.745626
31 2 7.54487 0.251531 6.9489 0.906734
32 2 3.79003 1.9292 8.77256 1.62174
33 2 6.11671 2.32289 5.30416 1.69958
37 2 4.79069 4.26557 1.77172 1.59707
200 1 5.65412 4.80691 8.19803 -0.922335
40 2 4.58714 4.31816 7.08916 1.87703
42 2 3.70945 6.53606 5.28623 1.82353
46 2 2.18728 8.2926 1.58376 1.63653
49 2 2.25509 8.56534 7.11504 1.81933
118 1 3.13691 0.489882 2.94556 -0.760142
119 1 2.4954 2.48248 4.4437 -0.863486
120 1 6.03427 1.13398 1.00057 -0.687703
121 1 3.23318 0.493628 8.13459 -0.726795
123 1 5.08348 1.65259 4.23565 -0.871024
124 1 6.36423 1.23441 6.49161 -0.776444
130 1 3.84642 3.04431 2.26049 -0.87894
131 1 5.77776 3.75588 0.547562 -0.757276
134 1 3.89632 5.46531 1.1127 -0.779049
135 1 3.69714 3.12829 7.67634 -0.887989
136 1 5.3894 3.65021 5.88752 -0.903699
139 1 2.70913 5.92335 4.15767 -0.898456
140 1 3.74126 5.54791 6.52668 -0.92977
149 1 3.11094 7.89658 0.290721 -0.762163
156 1 3.14975 7.94459 5.885 -0.880425
173 1 8.02755 0.607468 2.98807 -0.766916
5 2 -1.20389 2.43804 9.20344 0.926641
12 2 -0.808666 6.67027 0.0225013 0.944462
174 1 7.59413 2.47277 4.71346 -0.872522
9 2 1.30602 2.22908 10.7929 1.5745
16 2 -0.153882 4.17621 12.4607 1.68513
18 2 -1.20453 6.43528 10.6138 1.67479
25 2 -2.75101 8.42094 12.3987 1.63775
44 2 1.17462 6.15339 14.1961 1.47391
85 1 -0.356329 1.73672 15.0158 -0.403536
86 1 0.247883 1.87785 9.58872 -0.74321
87 1 1.1288 1.05224 11.8692 -0.754654
95 1 -1.27065 3.09289 12.7989 -0.774243
96 1 0.953956 3.69626 11.4076 -0.863031
97 1 -2.41959 5.74973 14.8349 -0.44188
98 1 -2.42291 5.79641 9.63541 -0.727582
99 1 -0.956441 5.41269 11.8122 -0.88685
34 2 6.87257 0.0750899 12.4721 0.914966
112 1 -1.84415 7.78095 11.2127 -0.902404
138 1 0.195812 6.54622 9.81718 -0.895501
143 1 0.638823 4.69869 13.7601 -0.822442
145 1 1.03437 6.59927 15.7734 -0.37219
163 1 1.26557 7.31165 13.0946 -0.856067
30 2 6.14794 2.34219 18.9065 0.867614
208 1 5.62267 4.80134 13.7199 -0.872962
35 2 3.78598 1.93616 14.3673 1.51297
36 2 6.18306 2.34139 10.5981 1.6811
43 2 4.70298 4.23642 12.5224 1.75798
45 2 3.74372 6.58165 10.7463 1.80354
52 2 2.17532 8.53726 12.4872 1.71772
122 1 2.78525 2.16783 10.0602 -0.822124
125 1 2.8372 0.66372 13.9129 -0.710997
126 1 5.23766 1.36809 14.7916 -0.538413
127 1 3.26991 2.63927 15.724 -0.489507
7 2 2.14275 0.0116569 12.5994 0.877086
129 1 5.95517 1.1387 11.6629 -0.781582
141 1 3.83661 3.05015 13.1767 -0.842703
142 1 5.6433 3.6107 11.3637 -0.90052
144 1 2.32582 6.28775 15.3308 -0.372233
146 1 2.71498 6.21259 9.55845 -0.909908
147 1 3.77554 5.4051 11.8589 -0.892337
164 1 3.21061 7.93086 11.4191 -0.927875
184 1 7.97928 0.716202 13.3826 -0.757223
201 1 5.21882 6.53953 10.097 -0.916232
39 2 3.96694 6.56661 18.9261 0.943959
24 2 -3.7174 10.7895 5.28066 1.65175
103 1 -3.64587 9.6037 0.949592 -0.713126
104 1 -3.54203 12.3498 0.607967 -0.392376
108 1 -4.79081 10.1349 4.26575 -0.756217
109 1 -3.61225 9.7468 6.58627 -0.847062
110 1 -4.17331 12.2543 5.62322 -0.479437
226 1 3.23731 9.16064 8.25779 -0.913513
47 2 -1.17839 10.282 3.52547 1.74945
219 1 2.7203 10.6192 4.72583 -0.864069
50 2 -1.1478 10.2851 8.78324 1.73696
51 2 1.24594 10.8267 5.34156 1.74211
150 1 -1.68031 8.96451 2.69742 -0.867947
151 1 -0.902785 11.4507 2.48793 -0.508931
152 1 -2.32715 10.7931 4.48493 -0.869028
153 1 1.24979 9.50483 1.04267 -0.771845
154 1 1.10042 12.2902 0.363604 -0.367531
157 1 -1.70447 8.93456 8.15902 -0.878054
158 1 -1.15269 11.3194 7.57211 -0.503854
160 1 0.136716 10.1867 4.37074 -0.896279
161 1 1.36343 9.79937 6.59867 -0.849238
162 1 1.04815 12.39 5.64798 -0.470567
217 1 3.16157 8.91571 2.72208 -0.8498
48 2 1.46787 10.7574 0.0419648 0.943711
21 2 -3.23283 10.9115 0.0571983 0.855681
169 1 0.32796 10.1893 9.38259 -0.879998
74 2 3.66401 10.2885 3.45874 1.6496
27 2 -3.65893 10.6883 10.5953 1.65116
113 1 -4.85809 9.89004 14.8553 -0.434285
115 1 -4.72289 10.0085 9.58395 -0.790753
116 1 -3.52321 9.7539 11.9102 -0.845213
117 1 -4.17133 12.1804 10.9139 -0.447881
228 1 2.75523 10.8313 10.103 -0.883437
239 1 3.05091 10.8278 15.946 -0.477088
53 2 -1.28162 10.387 14.1294 1.24873
54 2 1.25397 10.705 10.5991 1.71891
159 1 -2.164 10.7355 9.9405 -0.861325
165 1 -1.79352 8.92435 13.6065 -0.789028
166 1 0.108002 10.6091 15.1147 -0.307977
167 1 -1.58484 11.6864 13.2294 -0.424507
168 1 -1.10077 10.7333 15.8636 -0.31941
236 1 2.97883 9.26829 13.6925 -0.844549
170 1 1.18346 9.64142 11.8199 -0.866402
171 1 0.896303 12.1897 11.0675 -0.460167
80 2 3.54755 10.5463 14.4677 1.58051
56 2 8.64313 2.00749 3.53636 1.58262
59 2 8.87234 1.99633 9.01591 1.56795
64 2 9.73101 4.16151 1.62323 1.51811
65 2 6.32888 6.21696 3.58456 1.71995
67 2 9.84303 4.287 7.20266 1.79595
68 2 6.24735 6.09846 8.9373 1.7886
69 2 8.7345 6.46618 5.37837 1.74404
73 2 7.17898 8.40019 1.60339 1.54228
76 2 7.07398 8.39821 7.07398 1.65298
105 1 13.9082 7.27582 7.65987 -0.759991
181 1 10.2026 1.85212 4.06083 -0.848768
190 1 8.72117 3.06423 2.33101 -0.827116
191 1 10.3484 3.30395 0.313408 -0.708615
192 1 10.9669 4.47564 2.59201 -0.520389
196 1 9.07371 5.57211 1.11758 -0.750879
197 1 8.96821 3.14121 7.8776 -0.881703
198 1 10.6719 3.66669 5.97689 -0.854041
199 1 10.8881 4.82004 8.24344 -0.548664
202 1 10.1595 7.11437 5.10505 -0.538199
203 1 7.84037 5.96905 4.18037 -0.87782
204 1 8.8831 5.43639 6.60647 -0.876111
214 1 6.36326 7.25435 2.35009 -0.895365
215 1 7.89113 7.78087 0.288062 -0.761126
223 1 6.18364 7.27922 7.80976 -0.866694
224 1 7.91933 7.77222 5.82257 -0.850676
180 1 12.7814 2.52541 4.76154 -0.533627
2 2 16.4145 2.05979 3.34224 0.927732
212 1 7.78039 6.09313 9.41741 -0.868101
11 2 14.1141 6.25324 3.58818 0.970631
14 2 13.8541 6.44664 9.04517 0.934929
182 1 11.3058 1.14006 6.341 -0.764298
57 2 11.4256 2.15765 0.0338914 0.915477
58 2 12.2156 0.0452585 7.11766 0.874046
60 2 11.2584 2.34833 5.23438 1.59911
172 1 13.2479 0.46619 1.91136 -0.461579
176 1 10.9694 0.76378 0.755849 -0.638858
177 1 13.1323 0.243081 8.37544 -0.434646
100 1 14.1164 7.13271 2.24101 -0.75823
62 2 8.72554 1.98789 14.1 1.48564
70 2 9.74829 4.39274 12.4714 1.73768
71 2 6.15968 6.17678 14.3383 1.60102
72 2 8.67574 6.62713 10.6727 1.68223
79 2 7.12198 8.50586 12.4949 1.72881
189 1 11.4121 1.14831 11.9914 -0.769343
185 1 9.96089 1.59882 15.0279 -0.392644
186 1 8.83337 2.16294 15.6793 -0.396001
188 1 10.346 1.68169 9.64052 -0.81981
195 1 11.1465 7.29394 15.6695 -0.21204
205 1 8.85399 3.32655 13.2551 -0.864039
206 1 10.5161 3.67326 11.2571 -0.837043
207 1 10.9443 4.96234 13.3676 -0.530588
209 1 7.27732 6.04524 15.425 -0.444346
211 1 10.1476 7.26042 10.3781 -0.531024
187 1 12.801 2.59971 10.4564 -0.505909
213 1 8.7949 5.49848 11.8109 -0.875962
233 1 6.28172 7.35184 13.2304 -0.877447
234 1 7.77166 7.84441 11.1834 -0.865885
66 2 8.71776 6.45319 18.8127 0.961969
8 2 16.0656 2.32013 14.2086 0.911334
17 2 13.9241 6.1817 14.0686 0.96412
179 1 7.82526 2.37593 10.2636 -0.834399
63 2 11.2772 2.27224 10.8488 1.58759
175 1 13.3395 3.34195 15.5971 -0.221866
183 1 13.7994 0.333245 13.067 -0.447547
111 1 13.9296 7.26602 12.8742 -0.784358
210 1 5.8488 6.68992 15.7929 -0.454836
229 1 7.46562 11.7924 5.21593 -0.264969
55 2 3.00689 17.4677 1.73181 0.769363
77 2 3.77646 10.5079 8.9296 1.77277
78 2 6.09452 10.696 5.3419 1.3031
218 1 3.51219 11.3536 2.26342 -0.50761
221 1 6.29471 9.68956 1.00515 -0.680139
222 1 5.97837 12.1997 -0.00537546 -0.361441
227 1 3.57935 11.7433 7.981 -0.52238
230 1 5.16788 10.2098 4.07425 -0.783704
231 1 6.23598 9.69253 6.59774 -0.801044
232 1 6.32033 12.4368 5.53258 -0.26892
20 2 11.4565 10.4736 3.57842 0.904423
23 2 11.5501 10.1648 8.88084 0.959136
102 1 11.1107 11.9411 3.03221 -0.386029
107 1 11.2541 11.6137 8.2953 -0.368361
216 1 8.27093 9.11348 2.53959 -0.529485
225 1 8.33279 8.84434 7.99288 -0.498114
61 2 3.52349 17.6254 12.4451 0.880129
81 2 6.18282 10.8616 10.7657 1.60125
237 1 5.0289 10.188 14.8712 -0.475491
238 1 3.36856 11.9011 13.6173 -0.458193
240 1 7.65342 11.1758 10.324 -0.439134
242 1 6.25309 9.76991 11.9974 -0.823716
243 1 5.84928 12.3477 11.1851 -0.441593
75 2 6.47822 10.7101 18.6708 0.86407
26 2 11.4574 10.1466 14.1057 0.905198
114 1 11.5199 11.2875 13.0147 -0.389055
220 1 8.29079 11.6268 15.555 -0.169835
235 1 8.41348 8.87515 13.3508 -0.532534
241 1 5.24324 10.3698 9.53895 -0.864858
ITEM: TIMESTEP
400
ITEM: NUMBER OF ATOMS
243
ITEM: BOX BOUNDS xy xz yz pp pp pp
-8.8456499999999991e+00 1.7691299999999998e+01 -8.8456499999999991e+00
0.0000000000000000e+00 1.7691299999999998e+01 0.0000000000000000e+00
0.0000000000000000e+00 1.8963100000000001e+01 0.0000000000000000e+00
ITEM: ATOMS id type x y z q
3 2 1.97901 2.5931 0.0781434 0.945322
6 2 1.11356 2.20574 5.08958 1.59313
10 2 -0.0612866 4.19882 1.46871 1.50708
194 1 5.14052 6.5952 4.62392 -0.881796
13 2 -0.298535 4.37448 7.00753 1.73277
15 2 -1.4125 6.48541 4.98238 1.6859
19 2 -2.7059 8.37877 1.5457 1.49449
22 2 -2.82976 8.38982 6.87453 1.72473
38 2 1.20835 6.24494 3.31188 1.81588
41 2 1.2498 6.28174 8.84242 1.87272
82 1 1.56311 1.11949 0.62693 -0.660755
83 1 -0.0260837 1.6721 4.02668 -0.781963
84 1 1.50016 0.986796 6.11005 -0.762646
88 1 -0.982491 2.88415 1.83158 -0.704606
89 1 0.977837 3.83623 0.264557 -0.739628
90 1 -1.05149 5.37948 0.916768 -0.713151
91 1 -1.28972 3.43417 7.90384 -0.74956
92 1 0.432597 3.46064 5.86861 -0.851665
93 1 -2.41034 5.89022 3.86241 -0.794528
94 1 -1.2217 5.46619 6.23859 -0.863542
174 1 7.483 2.5539 4.44866 -0.907083
101 1 -1.76625 7.82849 0.233113 -0.701864
193 1 5.87081 4.87083 2.75426 -0.88333
106 1 -2.00368 7.84787 5.61817 -0.905108
132 1 0.644189 4.81933 2.82552 -0.874762
133 1 0.137212 6.72797 4.41107 -0.859483
137 1 0.74145 4.96808 8.09357 -0.907204
148 1 1.30793 7.2659 2.14724 -0.970619
155 1 1.53794 7.4203 7.7695 -0.93853
1 2 1.61438 0.309658 2.02528 0.876873
4 2 2.80314 0.194455 6.63326 0.921418
28 2 7.12476 0.107363 1.77364 0.861665
29 2 3.68414 1.99738 3.40515 1.60402
150 1 -1.69249 8.76828 2.77206 -0.857461
31 2 7.74724 0.350693 6.89129 0.889034
32 2 3.84428 1.99065 8.82217 1.71973
33 2 6.12991 2.32667 5.29813 1.71587
37 2 4.88603 4.21932 1.63529 1.62921
200 1 5.53723 5.20229 8.11364 -0.975726
40 2 4.63738 4.36955 7.07651 1.88383
42 2 3.6208 6.45669 5.18096 1.78708
46 2 2.28687 8.30382 1.44534 1.59179
49 2 2.43087 8.52618 7.07879 1.82325