ITEM: TIMESTEP
0
ITEM: NUMBER OF ATOMS
386
ITEM: BOX BOUNDS xy xz yz pp pp pp
-7.6535000000000002e+00 1.6722200000000001e+01 -7.3464000000000000e+00
-1.7999999999999999e-02 1.3589000000000000e+01 -3.0709999999999998e-01
0.0000000000000000e+00 1.7142938999999998e+01 -1.7999999999999999e-02
ITEM: ATOMS id type x y z
362 2 5.77927 1.38728 0.191955
2 2 0.534962 1.75179 2.34053
3 2 0.318096 2.04451 5.6195
192 1 -2.25448 5.21266 4.59205
5 2 -0.0631842 3.34884 4.18979
6 1 -0.422457 2.47925 4.85344
10 4 -0.729143 3.05803 7.99235
323 1 1.58458 1.54163 0.666962
12 2 -0.491569 3.75184 6.32172
34 4 4.3968 0.433488 3.07929
234 3 0.538921 6.15833 5.49031
37 4 6.85614 1.58994 4.77556
40 4 5.17979 5.04692 1.31004
41 4 2.08713 6.2142 4.55801
330 2 1.21872 0.234471 6.51315
43 4 5.97079 3.92645 6.97208
360 2 7.20246 0.59255 1.42895
379 1 -3.04826 6.27916 1.70944
90 2 3.88995 1.87767 2.22736
108 2 -2.11195 4.69346 6.07853
321 2 2.22528 1.65152 1.63217
324 2 -1.68283 3.45785 1.28419
25 4 -1.05527 6.39884 5.69021
378 2 -2.67898 5.87615 2.80574
122 2 6.76566 0.743042 6.93184
126 2 5.44115 2.8002 1.82431
127 2 3.70592 3.48878 2.36427
128 2 5.11995 3.55061 3.57258
129 2 2.33876 4.44726 3.04222
130 2 1.67352 3.76395 4.65297
131 2 3.46511 4.08426 4.47055
133 2 3.24005 4.78649 7.60538
134 2 1.5708 5.48769 7.01746
327 1 -0.632007 3.95595 1.28198
11 2 0.718739 1.77718 7.89393
377 2 -2.39599 5.88872 0.900218
132 2 1.54403 4.14973 8.52949
199 1 4.83086 3.60086 2.51125
200 1 2.43833 4.45218 4.18177
201 1 2.10171 5.07949 7.89014
231 3 5.62734 0.953903 4.01097
235 3 3.7015 5.24291 0.617839
236 3 4.72162 2.97832 7.82147
325 2 -0.574197 4.92362 0.579431
326 2 -0.100998 4.04804 2.27915
320 2 0.752686 0.726418 0.862644
109 2 -1.63931 4.65554 3.92253
238 3 3.36036 6.64237 5.40189
197 1 7.64124 0.692931 6.15288
87 2 2.5589 1.07317 8.42831
1 4 -0.55164 1.16869 3.47286
329 2 3.18636 0.13996 6.51
322 2 1.94362 1.30794 16.8589
14 2 -0.20774 4.33236 9.28866
9 3 -0.905703 2.28579 15.9504
13 2 -0.156423 2.05479 9.96084
368 2 3.49261 0.54334 12.4369
15 2 1.60949 2.83176 9.86745
16 1 0.502512 2.7179 9.37849
26 4 -2.21684 4.87459 14.0892
36 4 4.09947 2.03405 8.92262
47 4 0.126118 6.69306 15.2023
7 4 -0.0700085 2.91836 17.1063
85 2 -1.58825 4.07508 12.7359
232 3 7.12 0.810548 11.1212
119 2 5.36894 0.587299 9.45361
123 2 4.55932 2.46007 11.0585
124 2 2.60839 2.5591 11.1925
125 2 3.53715 4.02093 10.3866
346 2 0.947021 0.462959 9.79477
135 2 5.32158 2.42962 13.7373
136 2 4.27077 3.86482 13.227
137 2 5.17017 3.82606 14.8515
365 1 5.42119 2.09581 16.349
44 4 2.8395 6.37873 9.13621
198 1 3.50305 2.84066 10.5651
202 1 5.20627 3.53069 13.8011
363 2 5.9995 1.66797 15.4143
241 3 -1.01359 5.74911 14.5775
242 3 1.35835 5.67089 15.7908
243 3 3.67757 5.7493 10.2863
156 2 2.49759 6.60709 12.9646
334 2 0.464165 1.23483 12.8705
335 2 -0.385821 1.3954 14.5718
336 1 0.000179783 0.667367 13.7708
337 2 3.59804 0.913456 14.3162
338 2 3.21219 0.686039 16.1735
339 2 2.08125 1.82079 15.084
340 1 2.82617 0.907654 15.143
42 4 2.69486 6.2251 16.6614
375 2 -1.38181 3.01942 11.2988
364 2 4.41911 2.58612 16.1792
91 2 1.05387 6.13181 9.1704
8 2 1.62053 3.15666 16.7793
381 2 4.81214 5.7001 15.4599
382 1 4.14712 6.69509 15.4234
84 2 -3.39235 5.9202 13.3452
161 2 5.43937 0.101932 16.088
196 1 4.01226 0.063502 8.65082
358 2 7.78312 0.344906 16.92
38 4 8.04098 -0.0107066 12.2467
17 4 -5.55198 12.5639 4.69079
345 2 -6.20977 13.1676 8.11502
21 3 -7.19976 13.4799 4.14782
369 2 0.681045 10.0696 1.37781
328 2 -5.16914 10.2653 3.41383
22 3 -4.28368 13.2619 3.9088
376 2 -3.15626 7.39803 1.76999
28 4 -2.39982 8.48505 7.95206
49 4 3.10685 7.99439 1.92557
50 4 0.168269 10.8525 4.1359
83 2 -1.73112 6.87637 4.02523
349 2 -4.29108 12.6158 0.701224
111 2 -4.54912 9.35378 6.96816
112 2 -3.02336 9.32235 5.80021
113 2 -3.28571 10.7597 7.03379
138 2 0.691966 8.49422 3.05213
139 2 -0.538433 9.38392 1.96798
140 2 -1.07977 8.96282 3.70373
141 2 -1.28406 11.2973 6.20934
142 2 -2.14791 10.7822 4.69495
143 2 -1.53213 12.5568 4.85119
144 2 -0.355211 11.965 6.9769
145 2 0.485379 12.8557 8.49335
146 2 -1.52258 12.8844 8.31349
118 2 -2.36416 13.3277 1.0279
193 1 -3.49489 9.68805 6.76326
203 1 -0.159856 9.27766 2.99167
204 1 -1.35542 11.4723 5.1091
205 1 -0.464375 12.3467 8.04684
93 2 1.37856 11.9176 7.42836
19 2 -4.78463 10.2255 5.23573
245 3 2.15021 7.34004 3.01421
246 3 2.64863 7.52136 0.456052
247 3 0.587745 12.249 2.96088
225 3 -1.67372 7.38696 6.84525
253 3 1.3841 10.5708 5.06388
54 4 2.28351 10.9933 6.35429
195 1 -2.2004 12.7035 2.00203
331 1 -5.105 13.0973 6.40536
332 2 -5.15952 12.1422 6.99815
357 2 -2.8943 11.8044 2.26664
343 2 -2.38706 9.21615 0.757121
117 2 -1.04425 12.5347 2.37188
352 1 -5.16709 12.1647 1.26075
350 2 -4.9712 11.0349 1.6061
351 2 -5.62896 12.7644 2.03383
341 2 -4.03274 10.1882 0.598092
20 1 -5.50594 10.6261 4.48087
101 2 -4.17567 8.0266 5.93307
254 3 2.87872 9.72066 7.00821
367 2 0.509968 13.2431 5.59024
120 2 -3.06815 13.3103 7.63197
210 1 1.05712 10.5476 0.297965
158 2 0.654618 11.6089 0.159395
252 3 -1.41744 9.54239 8.52248
248 3 3.1372 9.52512 1.87034
23 4 -5.95139 13.3156 14.6867
27 4 -4.0438 8.44953 16.2445
30 4 -2.6565 9.39394 13.457
342 2 -2.73999 10.7933 16.6966
32 4 -4.49691 11.8885 12.1778
24 4 -4.51238 8.07252 9.95519
53 4 -0.487544 10.6609 9.26201
55 4 1.98936 8.89186 13.5119
56 4 -0.799489 11.707 14.6323
57 4 1.91037 10.8583 11.3289
366 2 -3.81275 12.7876 9.22723
155 2 2.79963 7.74573 11.5129
94 2 0.485986 11.0736 15.5772
317 2 -4.04966 9.19207 11.1511
114 2 -2.57006 7.85637 11.7693
115 2 -1.32724 7.4427 13.1155
116 2 -0.787754 8.67334 11.8174
147 2 -1.03659 11.1196 11.6251
148 2 -2.56647 10.5216 10.6661
149 2 -1.72114 12.3011 10.2259
150 2 -3.30631 13.4144 10.6236
151 2 -2.28589 12.93 12.2305
102 2 -3.56698 6.91826 17.0461
160 2 -2.95591 12.1136 15.4663
344 1 -3.32638 9.82836 17.0977
194 1 -1.64141 8.23112 12.4293
206 1 -1.59942 11.1627 10.6592
207 1 -3.27963 13.2718 11.8072
209 1 3.01975 7.5358 12.6445
92 2 -0.71765 7.42897 16.3986
211 1 -1.92629 12.4439 15.8944
224 3 -3.36366 7.7716 8.96749
226 3 -3.35866 8.50879 14.8101
227 3 -6.52163 12.3972 15.8959
228 3 -5.44963 11.8515 10.9561
229 3 -3.74912 10.0359 12.4613
230 3 -5.28491 12.4041 13.4493
370 2 0.569244 9.75234 16.6172
348 1 -6.8708 13.2992 9.12171
255 3 0.78873 7.91007 14.4003
256 3 -1.66729 10.5795 13.9862
257 3 -0.228387 13.009 13.6004
258 3 0.946656 10.4094 9.80521
259 3 1.29625 9.72263 12.4144
380 2 3.7434 6.86234 14.3866
159 2 -1.52213 11.9132 16.797
250 3 3.11528 7.79369 8.58431
58 4 13.2214 0.189728 2.39512
59 4 13.8608 0.998251 7.14525
61 4 12.3716 2.61107 5.11086
312 2 10.336 5.93421 3.27659
67 4 11.2679 4.51905 7.21434
218 1 7.92719 6.73783 7.2229
310 2 12.1693 6.50151 3.76977
96 2 11.5867 1.83243 3.89927
97 2 13.4785 3.54035 4.14717
121 2 8.53813 1.25389 6.55904
272 3 7.18115 3.9218 8.06607
110 2 13.3491 5.33733 4.23555
170 2 8.92911 5.71497 4.33565
171 2 8.09022 4.85815 2.81636
172 2 7.40333 4.53655 4.57915
180 2 7.97704 5.95869 6.39683
214 1 12.8976 4.93404 8.13249
215 1 8.01308 5.25417 3.91705
361 1 8.25141 0.540514 0.861277
270 3 10.6352 3.69139 8.48627
233 3 6.57604 4.4942 0.23689
261 3 14.5948 2.46469 8.15647
263 3 13.0257 1.60211 6.02758
267 3 5.84694 6.35935 1.93998
359 2 8.96911 1.45436 1.04696
271 3 11.4083 3.66688 5.86441
237 3 6.57393 3.17707 5.58166
274 3 10.7316 6.0522 6.87255
4 2 15.2092 2.56233 5.15007
308 4 12.2247 2.51942 0.608118
309 4 11.8676 5.56845 1.65746
386 3 14.6552 0.98139 2.90322
311 2 11.4591 4.85842 4.46115
88 2 8.33651 1.70984 3.81563
313 1 11.4405 5.61261 3.56591
314 3 12.255 1.29809 1.81607
315 3 12.0297 4.03126 1.29974
316 3 10.8209 6.58393 0.900958
353 2 11.0282 0.160875 3.56373
354 2 9.56796 0.74293 4.69729
355 2 9.9804 1.78128 3.23002
356 1 9.96177 0.712961 3.62965
168 2 13.5702 3.96369 8.25354
167 2 13.419 5.69667 7.52001
220 1 12.6443 0.138167 8.41798
86 2 7.47599 2.28691 1.31691
239 3 5.47614 5.3642 6.69173
45 4 4.84346 6.78598 5.88612
39 4 7.65552 2.34936 10.6686
46 4 6.71737 4.38094 12.9535
48 4 5.52132 6.32355 10.773
60 4 10.5746 2.4806 9.49327
63 4 9.75888 2.5155 15.4913
64 4 12.907 3.41399 11.1185
68 4 7.80055 5.64388 8.74357
70 4 10.9471 4.67507 13.2088
95 2 10.8733 1.02122 8.60156
72 4 9.82082 6.46598 10.9114
89 2 6.88665 2.86234 9.21775
223 3 13.8556 3.78761 14.9561
166 2 14.4303 2.4757 12.9596
163 2 10.6337 0.606371 14.0266
164 2 8.74008 0.271112 14.4885
165 2 14.1837 1.40548 11.2579
98 2 9.07968 1.08903 13.0213
169 2 12.605 5.52745 9.08778
173 2 12.5244 5.72753 14.9638
174 2 10.7393 6.32476 14.9641
373 1 12.1283 0.42598 12.6754
71 4 7.67841 6.46858 14.9695
212 1 9.78988 0.697416 14.8104
213 1 14.4144 2.49226 11.76
216 1 11.621 6.05103 14.3384
306 3 13.3786 2.32659 17.1102
240 3 7.36167 3.35074 11.8912
244 3 5.91279 5.49233 12.0892
262 3 9.13404 2.3743 10.2186
264 3 10.6615 2.34732 16.7644
265 3 8.28685 2.72221 15.9864
266 3 11.781 2.40652 10.4425
273 3 6.50469 6.13361 9.58819
275 3 10.3677 3.48652 14.2318
276 3 12.2151 4.18003 12.3291
277 3 7.54856 5.06951 14.2111
278 3 8.52437 6.68074 16.2272
384 2 12.389 0.859198 9.27561
280 3 9.0846 5.92947 9.58764
281 3 9.83147 5.31081 12.1509
305 4 13.9644 2.35911 15.6274
35 4 6.90691 3.07886 16.9604
307 3 13.5943 0.987287 14.8109
372 2 12.815 0.374739 11.7529
371 2 12.0784 1.51566 13.0199
162 2 10.125 0.201049 15.7934
99 2 13.6558 4.46097 9.87219
33 4 1.73723 13.0748 2.17822
268 3 5.9874 7.0029 4.68099
51 4 2.98516 10.758 0.858452
52 4 3.99122 8.87461 7.86826
293 3 6.34074 11.4973 5.85659
65 4 6.98679 6.79767 3.5166
69 4 10.9671 7.43602 6.17532
73 4 8.54749 9.09307 2.37732
74 4 4.98519 11.6426 5.01693
75 4 7.24139 11.4316 1.04074
76 4 9.06029 9.95896 7.80851
78 4 7.7687 12.1236 6.03296
105 2 4.74654 7.46771 2.25251
100 2 10.7364 7.17987 4.46827
18 2 10.0962 10.3332 4.70957
104 2 9.9955 9.84167 3.09922
66 4 9.84428 7.58809 0.104504
107 2 8.36046 12.3928 4.42508
176 2 5.64738 9.3474 4.50529
177 2 5.02088 10.4076 3.11728
178 2 3.75822 9.52678 4.2097
179 2 6.90564 7.25496 7.20292
185 2 4.43002 13.4296 7.70573
183 2 6.97824 8.77588 8.14699
217 1 4.75583 10.0055 4.18169
181 2 8.81991 7.43397 7.15004
294 3 8.77673 11.1192 6.72676
249 3 2.90129 12.2359 1.42954
251 3 5.23666 8.09355 6.87363
31 4 10.1828 11.6345 0.0553825
282 3 8.07637 7.89262 3.28197
283 3 9.05277 8.67622 0.992313
284 3 5.22915 13.0187 3.645
285 3 3.47525 11.9385 5.91947
286 3 8.79223 11.8438 0.743817
287 3 7.23509 10.227 2.14394
288 3 6.25653 12.6291 1.37563
289 3 10.0013 8.56236 6.76527
295 3 7.70264 13.5532 6.80701
279 3 11.3727 6.8967 10.56
29 4 9.95946 11.7632 10.1799
62 4 5.7741 13.1459 13.9643
383 2 4.60231 7.59448 15.8963
77 4 4.61541 11.0177 10.0722
79 4 8.46035 8.54286 12.8133
80 4 4.14423 10.5058 15.2245
81 4 7.16094 11.3159 11.873
82 2 11.1453 9.18074 9.24628
175 2 11.8641 6.85603 13.5626
106 2 4.09016 12.3675 9.10418
152 2 6.19128 8.70076 10.4518
153 2 5.73723 8.35044 12.2554
154 2 4.37983 8.42542 11.0633
103 2 6.12172 6.81621 15.5989
182 2 7.97341 9.08562 9.73343
184 2 6.96121 10.4286 9.08382
186 2 9.60753 10.5953 13.6175
187 2 10.7721 9.40687 12.8809
188 2 10.1891 9.06388 14.5922
189 2 5.52453 8.7999 14.3808
190 2 5.88401 9.10114 16.2243
191 2 6.73917 10.1542 14.8617
208 1 5.48409 8.16005 11.1571
221 1 9.89279 9.50939 13.5856
222 1 5.86013 9.56788 15.1821
269 3 10.6797 8.49826 16.3409
385 2 5.85073 12.7736 8.65225
291 3 4.73214 9.88115 8.98491
292 3 3.47238 10.6287 11.0458
296 3 7.98718 7.61328 13.9506
297 3 8.97386 7.84473 11.4773
298 3 3.07572 9.68719 14.3861
299 3 4.79536 12.0351 14.6467
300 3 3.63987 10.5807 16.6773
301 3 8.577 11.6257 11.0155
302 3 5.92069 11.3395 10.8567
303 3 7.25384 9.89078 12.4468
304 3 7.06585 12.439 13.0603
318 2 10.1588 9.92114 16.9002
319 2 6.34597 10.7426 16.6977
290 3 10.1267 10.3747 8.81744
260 3 1.64885 12.4107 11.7287
219 1 7.57447 9.47986 8.80748
157 2 4.12536 7.60359 12.9864
347 2 8.74908 13.5124 8.90806
374 2 3.7263 13.5659 12.4338
333 2 8.5502 13.5264 13.5022
ITEM: TIMESTEP
100
ITEM: NUMBER OF ATOMS
386
ITEM: BOX BOUNDS xy xz yz pp pp pp
-7.6535000000000002e+00 1.6722200000000001e+01 -7.3464000000000000e+00
-1.7999999999999999e-02 1.3589000000000000e+01 -3.0709999999999998e-01
0.0000000000000000e+00 1.7142938999999998e+01 -1.7999999999999999e-02
ITEM: ATOMS id type x y z
362 2 5.59411 1.40956 0.0509264
2 2 0.273058 1.98654 2.27707
3 2 0.227358 2.17664 5.57631
192 1 -2.2426 5.36461 4.57892
5 2 -0.037059 3.37374 4.09221
6 1 -0.502942 2.60308 4.81702
10 4 -0.718727 3.1262 7.96119
323 1 1.29951 1.50541 0.647622
12 2 -0.41437 3.7659 6.38889
34 4 4.43165 0.432995 3.13357
234 3 0.577919 6.04955 5.46805
37 4 6.79055 1.71943 4.91603
40 4 5.19581 4.94514 1.09322
41 4 2.07575 6.15281 4.56911
330 2 1.70602 0.371348 6.63655
43 4 5.93751 3.8719 7.06671
360 2 7.13902 0.85432 1.78499
379 1 -2.97746 6.24628 1.54535
90 2 3.94444 1.7592 2.10674
108 2 -2.07692 4.76445 6.11638
321 2 1.91439 1.68584 1.52927
324 2 -1.78487 3.73992 1.25418
25 4 -1.01871 6.43418 5.66707
378 2 -2.42404 5.90078 2.59405
122 2 7.12697 1.05567 7.0778
126 2 5.523 2.60669 2.04137
127 2 3.74726 3.35009 2.249
128 2 5.23372 3.97283 3.29142
129 2 2.08254 4.39266 2.98745
130 2 1.58525 3.7271 4.64505
131 2 3.40986 3.99369 4.2477
133 2 3.23402 4.84584 7.50203
134 2 1.50518 5.58547 7.04853
327 1 -0.7285 4.03626 1.27608
11 2 0.779686 1.97849 7.80181
377 2 -2.49694 5.62828 0.71044
132 2 1.65007 4.19184 8.50597
199 1 4.87559 3.48657 2.32329
200 1 2.36726 4.37744 4.10055
201 1 2.13489 5.07841 7.87818
231 3 5.59432 1.03737 4.15225
235 3 3.74526 5.01389 0.308565
236 3 4.9098 3.01423 7.97498
325 2 -0.443304 5.12961 0.674974
326 2 -0.352107 4.00464 2.29426
320 2 0.454124 0.811483 0.848681
109 2 -1.63006 4.78869 3.78668
238 3 3.30825 6.47398 5.46849
197 1 7.69886 0.630823 6.15929
237 3 6.31183 3.21662 5.61252
1 4 -0.606381 1.16442 3.56729
4 2 -1.56602 2.82942 5.21427
361 1 7.92045 0.404714 1.07082
87 2 2.77866 1.22324 8.44103
167 2 -3.25469 5.79217 7.14002
322 2 1.70152 1.23444 16.8737
14 2 -0.113836 4.25393 9.44207
9 3 -0.952502 2.44467 15.8783
13 2 -0.0927298 2.1547 10.0349
368 2 3.71292 0.500572 12.4592
15 2 1.66979 2.88812 9.77499
16 1 0.533558 2.78087 9.38473
26 4 -2.121 4.82709 13.8849
36 4 4.32546 2.04251 9.01119
47 4 0.0789553 6.69941 15.2169
7 4 -0.134005 3.06336 17.0482
85 2 -1.58244 4.18226 12.4131
232 3 7.10347 1.02766 11.1077
119 2 5.55619 0.622439 9.49405
123 2 4.47185 2.56733 11.2392
124 2 2.64111 2.42132 11.0208
125 2 3.5196 4.05116 10.6242
346 2 1.06062 0.587835 9.92751
135 2 5.43357 2.4327 13.6046
136 2 4.29922 3.88351 13.1973
137 2 5.17151 3.92305 14.825
365 1 5.36209 2.10389 16.3034
44 4 2.77736 6.32325 9.21684
198 1 3.57234 2.92537 10.6373
202 1 5.22664 3.55139 13.7273
363 2 5.8433 1.62216 15.3651
241 3 -1.00868 5.7766 14.5035
242 3 1.2018 5.64905 15.7748
243 3 3.54624 5.80962 10.4757
156 2 2.77973 6.38476 12.7903
334 2 0.36407 1.22193 12.738
335 2 -0.472204 1.42301 14.4663
336 1 -0.0944586 0.687127 13.6213
337 2 3.70527 0.715368 14.5148
338 2 2.93477 0.552521 16.2578
339 2 2.12146 1.82747 14.9538
340 1 2.759 0.869516 15.1674
42 4 2.63372 6.16947 16.6987
375 2 -1.46514 2.91088 11.0431
364 2 4.39532 2.65679 16.0445
91 2 1.05089 5.87445 9.28116
8 2 1.5546 3.11167 16.8221
381 2 4.6727 5.73645 15.389
382 1 4.08821 6.65484 15.4731
38 4 7.90099 0.0274425 12.234
161 2 5.28285 0.103273 15.9801
196 1 4.12208 0.0544633 8.66218
102 2 -3.55681 6.57828 16.7496
84 2 -3.31077 5.93033 13.4684
17 4 -5.49599 12.5692 4.58217
345 2 -6.20957 13.2163 8.21799
21 3 -7.10867 13.4157 4.01513
369 2 0.568752 9.90152 1.37617
328 2 -5.33538 10.382 3.30844
22 3 -4.20804 13.2977 3.67877
376 2 -2.97584 7.39718 1.28254
28 4 -2.28109 8.45474 7.87489
49 4 2.93807 7.96371 1.9748
50 4 0.186625 10.7223 4.12545
83 2 -1.67587 6.94296 3.98992
349 2 -4.39907 12.5108 0.962993
111 2 -4.77368 9.26158 6.84027
112 2 -3.21148 9.33107 5.59284
113 2 -3.3415 10.4587 7.20122
138 2 0.47898 8.32648 2.92848
139 2 -0.823135 9.42888 2.00614
140 2 -1.10432 8.91922 3.84255
141 2 -1.30332 11.1541 6.08917
142 2 -2.04411 10.4559 4.47494
143 2 -1.71842 12.2871 4.6151
144 2 -0.247955 11.8742 7.1034
145 2 0.406911 13.0699 8.41852
146 2 -1.43584 12.8536 8.29523
118 2 -2.34357 13.1961 1.09384
193 1 -3.59735 9.44211 6.69096
203 1 -0.316584 9.123 3.01227
204 1 -1.37018 11.2624 4.94584
205 1 -0.375188 12.3546 8.12715
93 2 1.54807 11.9399 7.58915
19 2 -4.8954 10.1891 5.22356
245 3 1.9636 7.1672 3.01299
246 3 2.56347 7.58417 0.46616
247 3 0.671447 12.0917 2.93814
225 3 -1.57352 7.50993 6.85086
253 3 1.21322 10.5857 5.35802
344 1 -3.08122 9.53216 0.159679
195 1 -2.14066 12.6822 2.09437
331 1 -5.13804 12.9861 6.34563
332 2 -5.73466 11.9461 6.75046
357 2 -2.87875 11.8671 2.28209
343 2 -2.17808 8.81717 0.562065
117 2 -0.993239 12.3762 2.3381
352 1 -5.31523 12.0529 1.43105
350 2 -5.12613 11.1209 2.06075
351 2 -5.88241 12.8313 1.95902
341 2 -3.7769 10.0092 0.926813
20 1 -5.66763 10.6783 4.36045
101 2 -4.29399 7.80344 5.91169
329 2 -3.94636 12.9449 6.66474
367 2 -0.191274 13.2071 5.76296
158 2 0.760986 11.5009 0.352001
210 1 1.09496 10.3893 0.408296
120 2 -2.981 13.4363 7.54035
358 2 0.106234 13.4938 0.125418
248 3 3.14903 9.54148 2.09967
250 3 3.12656 7.69709 8.56813
23 4 -6.0215 13.3302 14.5559
27 4 -4.0502 8.16482 16.1792
30 4 -2.61272 9.3632 13.5017
342 2 -3.09397 10.2547 16.4339
32 4 -4.36288 11.8926 12.1803
24 4 -4.46725 8.09936 9.93973
53 4 -0.443378 10.781 9.3693
55 4 1.90627 8.78977 13.5105
56 4 -0.82734 11.8189 14.6724
57 4 1.81021 10.8219 11.3127
366 2 -3.7221 12.778 9.08267
155 2 2.7354 7.79288 11.5067
94 2 0.430592 11.344 15.8404
317 2 -4.0215 9.02363 11.2944
114 2 -1.98649 8.64101 11.3525
115 2 -1.94362 7.26177 12.6414
116 2 -0.431234 8.37707 12.3282
147 2 -0.916333 10.8074 11.9408
148 2 -2.48814 10.8714 10.8306
149 2 -1.27143 12.3174 10.8387
150 2 -3.17692 13.3656 10.5992
151 2 -2.20705 12.8079 12.3256
159 2 -1.85362 12.0205 16.8232
160 2 -2.98421 12.0674 15.3607
252 3 -1.26359 9.61101 8.5855
194 1 -1.57633 8.30215 12.333
206 1 -1.36074 11.1661 10.9613
207 1 -3.16772 13.2431 11.8043
209 1 2.96643 7.48106 12.538
92 2 -0.531256 7.49175 16.4671
211 1 -2.00694 12.5624 15.8916
224 3 -3.18813 7.79317 9.10257
226 3 -3.39097 8.40194 14.7362
227 3 -6.42572 12.5426 15.8767
228 3 -5.38358 11.812 10.9746
229 3 -3.65079 10.0447 12.5097
230 3 -5.11834 12.3511 13.5146
370 2 0.746777 9.72382 16.6425
348 1 -6.81083 13.4529 9.23972
255 3 0.929009 7.74142 14.3048
256 3 -1.59001 10.6118 14.0988
257 3 -0.382906 12.954 13.4596
258 3 1.08103 10.4657 9.74417
259 3 1.13525 9.79457 12.4631
380 2 3.73648 6.98152 14.3916
260 3 1.31516 12.474 11.4785
58 4 13.3039 0.266905 2.58454
59 4 13.8753 1.01138 7.17365
61 4 12.4053 2.64311 5.16595
312 2 10.246 6.02542 3.39991
67 4 11.2563 4.61284 7.32038
220 1 12.5504 0.0871055 8.33916
95 2 10.7792 1.0815 8.42997
96 2 11.4888 1.90378 3.86418
97 2 13.6183 3.58699 4.34546
121 2 8.83253 0.496533 6.22548
272 3 7.33351 3.87174 8.10675
110 2 13.2956 5.51012 4.27443
170 2 8.79379 5.62142 4.45004
171 2 8.07766 4.75073 2.80912
172 2 7.30248 4.39216 4.59392
180 2 7.59256 5.98875 6.4714
214 1 13.057 5.12605 7.9902
215 1 7.89236 5.18839 3.95898
65 4 6.93474 6.6721 3.43902
270 3 10.6593 3.67467 8.44549
86 2 7.6876 2.33558 1.21794
261 3 14.6377 2.4134 8.11199
263 3 13.1559 1.62398 5.99864
267 3 5.60858 6.20521 2.02892
359 2 8.86905 1.11869 0.76647
271 3 11.547 3.69557 6.03151
239 3 5.37228 5.33013 6.80254
274 3 10.6543 5.95714 6.77031
45 4 4.81175 6.72301 5.92025
308 4 12.2368 2.45972 0.684552
309 4 11.898 5.62538 1.83391
386 3 14.5995 1.09847 3.12321
311 2 11.4305 5.21431 4.61584
88 2 8.23336 1.71048 3.95051
313 1 11.3773 5.88493 3.70386
314 3 12.0854 1.34814 1.89523
315 3 12.002 4.04942 1.56335
316 3 10.8257 6.51881 0.97939
353 2 10.9318 0.232733 3.98955
354 2 9.23717 0.636284 4.81106
355 2 9.84359 1.49216 3.19532
356 1 9.90208 0.624821 3.87841
168 2 13.7326 4.20685 8.04421
218 1 7.70969 6.75211 7.32085
39 4 7.72166 2.46369 10.761
46 4 6.72461 4.53442 13.0335
48 4 5.47495 6.30924 10.8242
60 4 10.532 2.43903 9.41697
63 4 9.73041 2.42787 15.3435
64 4 12.9203 3.32924 11.0292
68 4 7.80835 5.58602 8.79346
70 4 10.8481 4.49477 13.0385
99 2 13.432 4.41943 9.7403
72 4 9.89641 6.59175 10.8988
89 2 6.84526 3.20362 9.46419
223 3 13.8885 3.77892 14.7955
166 2 14.7087 2.44374 12.811
163 2 10.5048 0.35743 13.9797
164 2 8.73081 0.222956 14.7422
165 2 14.2627 1.29613 11.3539
98 2 9.10784 0.968281 13.0217
169 2 12.8894 5.68151 8.91529
173 2 12.4288 5.82448 14.8259
174 2 10.5669 6.13106 14.7029
373 1 11.9076 0.101185 12.5262
71 4 7.60035 6.53022 15.1017
212 1 9.77054 0.571162 14.8702
213 1 14.4612 2.43124 11.7282
216 1 11.5318 5.94188 14.1506
306 3 13.3306 2.46858 17.1341
240 3 7.45961 3.47313 12.1095
244 3 6.04543 5.72618 12.1779
262 3 9.13729 2.27482 10.194
264 3 10.8016 2.43519 16.554
265 3 8.09247 2.80421 15.9518
266 3 11.8149 2.22656 10.3991
273 3 6.46049 6.0282 9.53613
275 3 10.1876 3.28904 14.0267
276 3 12.2436 4.06988 12.2277
277 3 7.55103 5.18282 14.3756
278 3 8.86066 6.48857 16.1306
384 2 12.2876 0.882679 9.22273
280 3 9.08541 5.86217 9.63144
281 3 9.88783 5.3685 12.1396
305 4 14.0022 2.40911 15.6495
35 4 6.84254 3.08027 16.8655
307 3 13.5912 1.01401 14.7534
372 2 12.6295 0.0538924 11.6389
371 2 11.427 1.15946 12.6452
162 2 10.3035 0.189754 15.8389
347 2 16.2145 0.17319 9.0608
233 3 6.08993 4.50013 17.1079
33 4 1.78485 13.0833 2.32997
268 3 5.76276 6.84726 4.60251
51 4 2.9538 10.7848 0.933582
52 4 4.02258 8.86956 7.88692
293 3 6.34858 11.4436 5.91215
295 3 7.75006 13.5685 6.8443
69 4 10.7869 7.36298 6.11753
73 4 8.56812 9.06795 2.23031
74 4 4.98455 11.7694 4.98828
75 4 7.36072 11.5395 1.05524
76 4 9.27057 9.99003 7.69252
78 4 7.77073 12.1609 6.0447
105 2 4.53223 7.42728 2.18963
100 2 10.4094 7.45185 4.41503
18 2 9.94444 10.4813 4.60371
104 2 9.96912 9.72248 3.03393
66 4 9.93212 7.48111 0.0247769
107 2 8.31744 12.4605 4.44846
176 2 5.44527 9.27409 4.81339
177 2 5.07139 10.2047 3.06852
178 2 3.71607 9.84125 4.36144
179 2 6.74983 7.3797 7.4032
254 3 3.10628 9.85914 7.04459
183 2 6.96589 9.52866 7.81163
217 1 4.79906 10.0525 4.17775
181 2 8.62081 7.42836 7.16812
294 3 8.79256 11.079 6.61849
249 3 2.99037 12.2518 1.59114
251 3 5.03992 8.1376 6.77352
185 2 4.38172 13.5091 7.55302
282 3 7.90937 7.89951 3.13232
283 3 8.96697 8.53357 0.848843
284 3 5.26205 13.036 3.84353
285 3 3.57012 12.0579 5.80341
286 3 8.85566 11.844 0.618255
287 3 7.4989 10.4039 2.25511
288 3 6.40468 12.8012 1.49135
289 3 10.0558 8.42878 6.92429
54 4 2.37494 11.0781 6.39477
310 2 11.9251 6.92222 3.79534
279 3 11.434 6.922 10.4993
29 4 9.90555 11.8346 10.1291
62 4 5.69806 13.2608 13.9077
383 2 4.54805 7.51275 16.1148
77 4 4.5652 11.0233 10.124
79 4 8.41642 8.65315 12.7918
80 4 4.22573 10.6047 15.1729
81 4 7.19405 11.2885 11.8122
82 2 11.3011 9.31702 9.32098
175 2 11.7191 6.78912 13.4568
106 2 4.09533 12.5091 9.39812
152 2 6.31901 8.57135 10.2849
153 2 5.89878 8.29697 12.0897
154 2 4.49458 8.43149 10.7633
333 2 8.41257 13.4721 13.353
182 2 7.81766 8.47724 9.09513
184 2 7.51176 10.3561 9.32605
186 2 9.70058 10.5628 13.6131
187 2 10.7784 9.22897 12.799
188 2 10.2884 9.07197 14.6127
189 2 5.51764 8.87014 14.416
190 2 6.132 9.07187 16.2633
191 2 6.64054 10.3729 14.9908
208 1 5.57771 8.13822 11.0011
221 1 9.96393 9.47638 13.5909
222 1 5.84828 9.59977 15.3191
269 3 10.7738 8.48143 16.3046
385 2 5.87365 12.7925 8.73282
291 3 4.83611 9.90122 9.05077
292 3 3.4321 10.648 11.1894
296 3 7.85585 7.7172 14.0437
297 3 9.12969 7.9289 11.4154
298 3 3.0936 9.69547 14.2846
299 3 4.7074 12.1781 14.6923
300 3 3.7108 10.6481 16.7117
301 3 8.57964 11.6811 10.9997
302 3 5.86257 11.519 10.8412
303 3 7.45048 9.89547 12.4442
304 3 7.1347 12.3557 13.1311
318 2 10.223 9.97484 16.8138
319 2 6.35613 10.8384 16.7688
290 3 10.203 10.4804 8.79655
374 2 3.75179 12.9231 12.3392
219 1 7.68742 9.48323 8.64285
157 2 3.9711 7.85345 12.8139
103 2 6.08035 6.8661 15.7992
31 4 9.94561 11.6464 17.1149
ITEM: TIMESTEP
200
ITEM: NUMBER OF ATOMS
386
ITEM: BOX BOUNDS xy xz yz pp pp pp
-7.6535000000000002e+00 1.6722200000000001e+01 -7.3464000000000000e+00
-1.7999999999999999e-02 1.3589000000000000e+01 -3.0709999999999998e-01
0.0000000000000000e+00 1.7142938999999998e+01 -1.7999999999999999e-02
ITEM: ATOMS id type x y z
239 3 5.22812 5.38073 6.80005
2 2 0.326063 1.8249 2.25528
3 2 0.322825 2.05867 5.77406
192 1 -2.21241 5.23442 4.5879
5 2 -0.167687 3.38695 4.44272
6 1 -0.508709 2.48096 5.08286
10 4 -0.598793 3.06335 8.10449
323 1 1.44287 1.804 0.633645
12 2 -0.389926 3.76911 6.53798
34 4 4.48648 0.29255 3.15797
234 3 0.497621 6.07462 5.59067
37 4 6.74541 1.71909 5.00808
40 4 5.19613 4.88946 1.04756
41 4 1.99774 6.08306 4.53416
330 2 0.990736 0.0398975 6.54481
43 4 5.93299 3.96109 7.12257
360 2 7.10954 0.747897 2.02763
379 1 -3.00207 6.17368 1.62507
90 2 3.92352 1.51456 2.11935
108 2 -2.02521 4.66417 6.07612
321 2 2.04471 1.7814 1.58661
324 2 -1.57082 4.02808 1.23284
25 4 -1.07606 6.39641 5.62411
378 2 -2.6551 5.96301 2.76431
122 2 6.78214 0.786937 7.07438
126 2 5.37239 2.3967 1.67934
127 2 3.88336 3.30995 2.39005
128 2 5.54293 3.68924 3.01452
129 2 2.17044 4.65707 2.71016
130 2 1.47246 3.7233 4.26632
131 2 3.30292 3.93246 4.10875
133 2 2.99555 4.73106 7.56983
134 2 1.36581 5.68943 7.00644
327 1 -0.461219 4.29916 1.18285
11 2 0.905989 1.9569 8.03079
377 2 -2.24329 5.57914 1.0003
361 1 7.98478 0.551346 1.24524
199 1 4.95851 3.32762 2.13498
200 1 2.30371 4.37909 3.85059
201 1 1.98712 5.21272 7.91378
231 3 5.61031 0.979574 4.08062
235 3 3.64289 5.01462 0.377622
236 3 4.82731 2.8689 8.07584
325 2 -0.148073 5.36845 0.66011
326 2 0.232939 4.07356 2.11047
320 2 0.621218 1.02265 0.710823
109 2 -1.66719 4.59877 3.85116
238 3 3.28356 6.49846 5.31399
197 1 7.65446 0.659807 6.24941
237 3 6.27102 3.29165 5.65827
1 4 -0.684511 1.32911 3.58345
120 2 4.32792 0.108698 7.49456
358 2 7.57878 0.163677 0.28011
4 2 -1.45397 2.77295 5.60996
322 2 1.9257 1.47863 16.8701
14 2 -0.19794 4.27642 9.64763
9 3 -0.956725 2.54998 15.9677
13 2 0.0371114 2.07325 10.3096
368 2 3.73262 0.536055 12.4082
15 2 1.81339 2.87614 10.0256
16 1 0.61549 2.81379 9.5503
26 4 -2.22698 4.88663 13.9459
36 4 4.24603 1.95098 9.20416
47 4 0.0708697 6.59394 15.1651
7 4 0.0164228 3.3089 16.9629
85 2 -1.71909 4.16196 12.5068
232 3 6.9927 0.969078 11.3151
119 2 5.49994 0.603047 9.60541
123 2 4.69931 2.55347 11.354
124 2 2.77333 2.44128 11.3329
125 2 3.60015 4.01153 10.6422
346 2 1.19742 0.597418 9.92571
135 2 5.31679 2.53278 13.684
136 2 4.19819 3.87363 12.9558
137 2 4.8627 4.07151 14.7144
365 1 5.39819 2.00439 16.0952
44 4 2.75936 6.42801 9.20352
198 1 3.67971 2.83833 10.7592
202 1 5.05465 3.65342 13.6479
363 2 5.55005 1.39234 15.1681
241 3 -1.0298 5.70779 14.4544
242 3 1.31948 5.69836 15.7895
243 3 3.58942 5.74215 10.3204
156 2 2.47463 6.52255 12.8324
334 2 0.305512 1.32576 13.0082
335 2 -0.368639 1.51815 14.7777
336 1 -0.0350759 0.828719 13.9114
337 2 3.7213 0.957308 14.4351
338 2 3.20983 0.883327 16.2136
339 2 2.19088 1.99159 14.971
340 1 2.94302 1.05849 15.1755
42 4 2.67503 6.15182 16.5805
375 2 -1.19474 2.85636 11.3725
364 2 4.44694 2.5866 16.069
91 2 1.01729 6.05678 9.35988
8 2 1.74352 3.28042 16.5883
87 2 2.63164 0.837678 8.75555
381 2 4.85081 5.94263 15.5534
102 2 -3.61488 6.73824 16.9078
362 2 5.38487 1.32057 17.1149
196 1 4.09004 0.0376165 8.64318
132 2 1.46337 4.37604 8.59724
17 4 -5.59086 12.5805 4.59675
345 2 -6.09947 13.3409 8.23962
21 3 -7.23334 13.534 4.05047
369 2 0.48865 10.1362 1.38924
328 2 -5.38995 10.5074 3.17727
22 3 -4.37093 13.1696 3.96413
376 2 -2.96444 7.28296 1.48512
28 4 -2.28035 8.57 7.81891
49 4 2.9524 7.80074 1.95993
50 4 0.145466 10.7227 4.23365
83 2 -1.78686 6.9775 4.05025
349 2 -4.15359 12.1564 0.607988
111 2 -4.70414 9.29814 6.91186
112 2 -3.28452 9.33642 5.47258
113 2 -3.16734 10.5273 7.01144
138 2 0.522524 8.50646 2.82203
139 2 -0.712375 9.66605 1.95988
140 2 -1.14604 8.8257 3.6086
141 2 -1.40695 10.6337 6.08309
142 2 -2.31889 10.7164 4.4284
143 2 -1.47297 12.2371 5.23319
144 2 -0.168583 12.2312 7.02023
145 2 0.445659 13.2059 8.53075
146 2 -1.45771 12.7929 8.34209
118 2 -2.16369 13.3864 1.05681
193 1 -3.57574 9.47136 6.54808
203 1 -0.315564 9.24049 2.93338
204 1 -1.48679 11.1366 5.12819
205 1 -0.319665 12.4053 8.14357
93 2 1.53309 12.0887 7.4951
19 2 -4.82497 10.1179 5.06048
245 3 1.9857 7.2118 3.12591
246 3 2.56464 7.36803 0.475732
247 3 0.653087 12.1513 3.18159
225 3 -1.64544 7.5065 6.68142
253 3 1.2908 10.5544 5.28537
344 1 -2.88079 9.35247 0.209385
195 1 -2.0616 12.655 2.02943
331 1 -5.26095 13.0288 6.37475
332 2 -5.29215 11.9634 6.80576
357 2 -2.83921 11.7462 2.20203
343 2 -2.10376 8.68339 0.73043
117 2 -0.970392 12.4496 2.44923
352 1 -5.10123 11.9338 1.20074
350 2 -4.95217 11.0654 1.89567
351 2 -5.66841 12.8862 1.6841
341 2 -3.66909 9.67304 0.900154
20 1 -5.60628 10.614 4.29863
248 3 3.17069 9.37365 1.92531
329 2 -4.23558 13.571 6.59408
367 2 0.538207 13.2112 5.91409
158 2 0.685368 11.5801 0.0693954
210 1 1.0471 10.5308 0.351325
101 2 -4.17778 7.64759 6.45043
105 2 4.43726 7.14981 2.37736
252 3 -1.25454 9.6078 8.36977
23 4 -5.83861 13.4466 14.5963
27 4 -4.07603 8.21662 16.1557
30 4 -2.54781 9.34564 13.4159
342 2 -2.76248 10.0982 16.6377
32 4 -4.46206 11.8611 12.2634
24 4 -4.46177 8.17027 9.98113
53 4 -0.256183 10.6605 9.14712
55 4 1.92834 8.86462 13.5359
56 4 -0.736796 11.5904 14.7562
57 4 1.87292 10.9416 11.2735
366 2 -3.48096 12.5154 8.89978
155 2 2.60688 7.94656 11.5494
94 2 0.659065 11.1081 15.6
317 2 -4.06457 9.18168 11.2441
114 2 -1.70456 8.73825 11.2766
115 2 -2.45663 7.2732 12.1949
116 2 -0.714263 7.82817 12.6378
147 2 -0.996982 10.9284 11.6222
148 2 -2.36468 10.6555 10.3896
149 2 -1.38169 12.3064 10.3389
150 2 -3.25982 13.3598 10.6403
151 2 -2.30386 12.6962 12.281
159 2 -1.61834 11.8952 16.9027
160 2 -2.98297 12.008 15.4146
382 1 4.18273 6.8298 15.4705
194 1 -1.73587 8.15391 12.2419
206 1 -1.40765 11.1165 10.5758
207 1 -3.27874 13.2022 11.8754
209 1 2.9438 7.56674 12.6093
92 2 -0.83531 7.29728 16.3524
211 1 -1.98447 12.3882 15.912
224 3 -3.34069 7.98171 8.89099
226 3 -3.39932 8.35244 14.7489
227 3 -6.35885 12.5582 15.8507
228 3 -5.48863 11.8393 11.0904
229 3 -3.5436 10.1275 12.4902
230 3 -5.24974 12.5082 13.5235