ITEM: TIMESTEP
0
ITEM: NUMBER OF ATOMS
386
ITEM: BOX BOUNDS xy xz yz pp pp pp
-7.6535000000000002e+00 1.6722200000000001e+01 -7.3464000000000000e+00
-1.7819999999999999e-02 1.3453110000000001e+01 -3.0709999999999998e-01
0.0000000000000000e+00 1.7316099999999999e+01 -1.7819999999999999e-02
ITEM: ATOMS id type x y z
362 2 5.77927 1.3734 0.193894
2 2 0.534962 1.73428 2.36417
3 2 0.318096 2.02406 5.67626
192 1 -2.25448 5.16053 4.63844
5 2 -0.0631842 3.31535 4.23211
6 1 -0.422457 2.45445 4.90246
10 4 -0.729143 3.02745 8.07308
323 1 1.58458 1.52621 0.673699
12 2 -0.491569 3.71432 6.38558
34 4 4.3968 0.429153 3.1104
234 3 0.538921 6.09674 5.54577
37 4 6.85614 1.57404 4.8238
40 4 5.17979 4.99645 1.32328
41 4 2.08713 6.15206 4.60405
330 2 1.21872 0.232126 6.57894
43 4 5.97079 3.88718 7.0425
360 2 7.20246 0.586625 1.44338
379 1 -3.04826 6.21637 1.72671
90 2 3.88995 1.8589 2.24986
108 2 -2.11195 4.64652 6.13993
321 2 2.22528 1.635 1.64865
324 2 -1.68283 3.42327 1.29716
25 4 -1.05527 6.33486 5.74769
378 2 -2.67898 5.81738 2.83408
122 2 6.76566 0.735611 7.00186
126 2 5.44115 2.7722 1.84274
127 2 3.70592 3.4539 2.38815
128 2 5.11995 3.5151 3.60867
129 2 2.33876 4.40279 3.07294
130 2 1.67352 3.72631 4.69997
131 2 3.46511 4.04341 4.51571
133 2 3.24005 4.73862 7.68221
134 2 1.5708 5.43281 7.08834
327 1 -0.632007 3.91639 1.29493
11 2 0.718739 1.75941 7.97366
377 2 -2.39599 5.82983 0.909312
132 2 1.54403 4.10824 8.61565
199 1 4.83086 3.56485 2.53661
200 1 2.43833 4.40766 4.22401
201 1 2.10171 5.0287 7.96984
231 3 5.62734 0.944364 4.05149
235 3 3.7015 5.19048 0.62408
236 3 4.72162 2.94854 7.90047
325 2 -0.574197 4.87438 0.585284
326 2 -0.100998 4.00756 2.30217
320 2 0.752686 0.719154 0.871357
109 2 -1.63931 4.60899 3.96215
238 3 3.36036 6.57594 5.45646
197 1 7.64124 0.686001 6.21503
87 2 2.5589 1.06243 8.51344
1 4 -0.55164 1.157 3.50794
329 2 3.18636 0.13856 6.57575
322 2 1.94362 1.29486 17.0292
14 2 -0.20774 4.28904 9.38249
9 3 -0.905703 2.26293 16.1115
13 2 -0.156423 2.03424 10.0615
368 2 3.49261 0.537907 12.5625
15 2 1.60949 2.80344 9.96712
16 1 0.502512 2.69072 9.47322
26 4 -2.21684 4.82585 14.2316
36 4 4.09947 2.01371 9.01275
47 4 0.126118 6.62613 15.3559
7 4 -0.0700085 2.88917 17.279
85 2 -1.58825 4.03433 12.8646
232 3 7.12 0.802442 11.2335
119 2 5.36894 0.581426 9.5491
123 2 4.55932 2.43547 11.1702
124 2 2.60839 2.53351 11.3056
125 2 3.53715 3.98072 10.4915
346 2 0.947021 0.45833 9.89371
135 2 5.32158 2.40532 13.8761
136 2 4.27077 3.82617 13.3606
137 2 5.17017 3.78779 15.0015
365 1 5.42119 2.07485 16.5141
44 4 2.8395 6.31494 9.22849
198 1 3.50305 2.81225 10.6719
202 1 5.20627 3.49538 13.9405
363 2 5.9995 1.65129 15.57
241 3 -1.01359 5.69162 14.7247
242 3 1.35835 5.61418 15.9503
243 3 3.67757 5.6918 10.3902
156 2 2.49759 6.54102 13.0955
334 2 0.464165 1.22248 13.0005
335 2 -0.385821 1.38144 14.719
336 1 0.000179783 0.660693 13.9099
337 2 3.59804 0.904321 14.4608
338 2 3.21219 0.679179 16.3368
339 2 2.08125 1.80258 15.2364
340 1 2.82617 0.898578 15.296
42 4 2.69486 6.16285 16.8297
375 2 -1.38181 2.98922 11.4129
364 2 4.41911 2.56026 16.3426
91 2 1.05387 6.0705 9.26303
8 2 1.62053 3.12509 16.9488
381 2 4.81214 5.64309 15.6161
382 1 4.14712 6.62814 15.5792
84 2 -3.39235 5.86099 13.48
161 2 5.43937 0.100912 16.2505
196 1 4.01226 0.0628669 8.73821
358 2 7.78312 0.341457 17.0909
38 4 8.04098 -0.0105995 12.3704
17 4 -5.55198 12.4383 4.73817
345 2 -6.20977 13.0359 8.19699
21 3 -7.19976 13.3451 4.18972
369 2 0.681045 9.96894 1.39172
328 2 -5.16914 10.1626 3.44832
22 3 -4.28368 13.1292 3.94828
376 2 -3.15626 7.32405 1.78787
28 4 -2.39982 8.4002 8.03239
49 4 3.10685 7.91444 1.94502
50 4 0.168269 10.744 4.17768
83 2 -1.73112 6.80761 4.06589
349 2 -4.29108 12.4896 0.708307
111 2 -4.54912 9.26024 7.03855
112 2 -3.02336 9.22913 5.8588
113 2 -3.28571 10.6521 7.10484
138 2 0.691966 8.40927 3.08296
139 2 -0.538433 9.29008 1.98786
140 2 -1.07977 8.87319 3.74114
141 2 -1.28406 11.1843 6.27206
142 2 -2.14791 10.6744 4.74237
143 2 -1.53213 12.4312 4.90019
144 2 -0.355211 11.8454 7.04738
145 2 0.485379 12.7272 8.57914
146 2 -1.52258 12.7555 8.39747
118 2 -2.36416 13.1944 1.03829
193 1 -3.49489 9.59117 6.83157
203 1 -0.159856 9.18489 3.02189
204 1 -1.35542 11.3576 5.1607
205 1 -0.464375 12.2233 8.12812
93 2 1.37856 11.7984 7.5034
19 2 -4.78463 10.1233 5.28861
245 3 2.15021 7.26664 3.04466
246 3 2.64863 7.44615 0.460659
247 3 0.587745 12.1266 2.99078
225 3 -1.67372 7.31309 6.9144
253 3 1.3841 10.4651 5.11503
54 4 2.28351 10.8834 6.41848
195 1 -2.2004 12.5765 2.02225
331 1 -5.105 12.9663 6.47006
332 2 -5.15952 12.0208 7.06884
357 2 -2.8943 11.6863 2.28954
343 2 -2.38706 9.12398 0.764769
117 2 -1.04425 12.4093 2.39584
352 1 -5.16709 12.0431 1.27348
350 2 -4.9712 10.9245 1.62233
351 2 -5.62896 12.6368 2.05437
341 2 -4.03274 10.0864 0.604134
20 1 -5.50594 10.5199 4.52613
101 2 -4.17567 7.94634 5.993
254 3 2.87872 9.62345 7.079
367 2 0.509968 13.1106 5.64671
120 2 -3.06815 13.1772 7.70906
210 1 1.05712 10.4421 0.300975
158 2 0.654618 11.4928 0.161005
252 3 -1.41744 9.44696 8.60857
248 3 3.1372 9.42987 1.88924
23 4 -5.95139 13.1824 14.835
27 4 -4.0438 8.36503 16.4086
30 4 -2.6565 9.3 13.5929
342 2 -2.73999 10.6854 16.8653
32 4 -4.49691 11.7696 12.3008
24 4 -4.51238 7.9918 10.0557
53 4 -0.487544 10.5543 9.35556
55 4 1.98936 8.80294 13.6484
56 4 -0.799489 11.5899 14.7801
57 4 1.91037 10.7498 11.4434
366 2 -3.81275 12.6597 9.32044
155 2 2.79963 7.66828 11.6292
94 2 0.485986 10.9629 15.7345
317 2 -4.04966 9.10015 11.2637
114 2 -2.57006 7.77781 11.8882
115 2 -1.32724 7.36828 13.2479
116 2 -0.787754 8.5866 11.9368
147 2 -1.03659 11.0084 11.7425
148 2 -2.56647 10.4163 10.7738
149 2 -1.72114 12.1781 10.3292
150 2 -3.30631 13.2803 10.7309
151 2 -2.28589 12.8007 12.3541
102 2 -3.56698 6.84907 17.2183
160 2 -2.95591 11.9925 15.6225
344 1 -3.32638 9.73008 17.2704
194 1 -1.64141 8.14881 12.5549
206 1 -1.59942 11.0511 10.7668
207 1 -3.27963 13.1391 11.9264
209 1 3.01975 7.46044 12.7722
92 2 -0.71765 7.35468 16.5642
211 1 -1.92629 12.3194 16.0549
224 3 -3.36366 7.69388 9.05807
226 3 -3.35866 8.4237 14.9597
227 3 -6.52163 12.2732 16.0564
228 3 -5.44963 11.733 11.0668
229 3 -3.74912 9.93557 12.5872
230 3 -5.28491 12.28 13.5852
370 2 0.569244 9.65482 16.785
348 1 -6.8708 13.1662 9.21385
255 3 0.78873 7.83097 14.5457
256 3 -1.66729 10.4738 14.1275
257 3 -0.228387 12.8789 13.7378
258 3 0.946656 10.3053 9.90425
259 3 1.29625 9.6254 12.5398
380 2 3.7434 6.79372 14.5319
159 2 -1.52213 11.794 16.9667
250 3 3.11528 7.71575 8.67102
58 4 13.2214 0.187831 2.41932
59 4 13.8608 0.988268 7.21742
61 4 12.3716 2.58496 5.16248
312 2 10.336 5.87487 3.30968
67 4 11.2679 4.47386 7.28722
218 1 7.92719 6.67045 7.29586
310 2 12.1693 6.43649 3.80785
96 2 11.5867 1.8141 3.93866
97 2 13.4785 3.50495 4.18906
121 2 8.53813 1.24135 6.6253
272 3 7.18115 3.88258 8.14755
110 2 13.3491 5.28395 4.27833
170 2 8.92911 5.65782 4.37944
171 2 8.09022 4.80957 2.84481
172 2 7.40333 4.49118 4.6254
180 2 7.97704 5.8991 6.46144
214 1 12.8976 4.8847 8.21464
215 1 8.01308 5.20163 3.95661
361 1 8.25141 0.535109 0.869977
270 3 10.6352 3.65448 8.57199
233 3 6.57604 4.44926 0.239283
261 3 14.5948 2.44005 8.23886
263 3 13.0257 1.58609 6.08847
267 3 5.84694 6.29575 1.95958
359 2 8.96911 1.43981 1.05754
271 3 11.4083 3.63021 5.92365
237 3 6.57393 3.1453 5.63804
274 3 10.7316 5.99168 6.94197
4 2 15.2092 2.5367 5.20209
308 4 12.2247 2.49422 0.61426
309 4 11.8676 5.51277 1.6742
386 3 14.6552 0.971576 2.93255
311 2 11.4591 4.80984 4.50621
88 2 8.33651 1.69274 3.85417
313 1 11.4405 5.55648 3.60193
314 3 12.255 1.2851 1.83442
315 3 12.0297 3.99095 1.31287
316 3 10.8209 6.51809 0.910059
353 2 11.0282 0.159266 3.59972
354 2 9.56796 0.735501 4.74474
355 2 9.9804 1.76346 3.26265
356 1 9.96177 0.705831 3.66631
168 2 13.5702 3.92405 8.33691
167 2 13.419 5.63971 7.59597
220 1 12.6443 0.136785 8.50302
86 2 7.47599 2.26404 1.33021
239 3 5.47614 5.31056 6.75932
45 4 4.84346 6.71812 5.94557
39 4 7.65552 2.32586 10.7763
46 4 6.71737 4.33713 13.0844
48 4 5.52132 6.26032 10.8818
60 4 10.5746 2.45579 9.58916
63 4 9.75888 2.49034 15.6478
64 4 12.907 3.37985 11.2308
68 4 7.80055 5.58744 8.83189
70 4 10.9471 4.62832 13.3423
95 2 10.8733 1.01101 8.68845
72 4 9.82082 6.40132 11.0216
89 2 6.88665 2.83371 9.31086
223 3 13.8556 3.74974 15.1072
166 2 14.4303 2.45094 13.0905
163 2 10.6337 0.600308 14.1682
164 2 8.74008 0.268401 14.6349
165 2 14.1837 1.39143 11.3716
98 2 9.07968 1.07814 13.1529
169 2 12.605 5.47217 9.17957
173 2 12.5244 5.67025 15.115
174 2 10.7393 6.26151 15.1152
373 1 12.1283 0.42172 12.8034
71 4 7.67841 6.40389 15.1207
212 1 9.78988 0.690442 14.96
213 1 14.4144 2.46734 11.8788
216 1 11.621 5.99052 14.4832
306 3 13.3786 2.30332 17.2831
240 3 7.36167 3.31723 12.0113
244 3 5.91279 5.4374 12.2113
262 3 9.13404 2.35056 10.3218
264 3 10.6615 2.32384 16.9337
265 3 8.28685 2.69499 16.1479
266 3 11.781 2.38245 10.548
273 3 6.50469 6.07228 9.68504
275 3 10.3677 3.45165 14.3756
276 3 12.2151 4.13823 12.4536
277 3 7.54856 5.01881 14.3547
278 3 8.52437 6.61393 16.3911
384 2 12.389 0.850606 9.3693
280 3 9.0846 5.87018 9.68448
281 3 9.83147 5.25771 12.2737
305 4 13.9644 2.33552 15.7853
35 4 6.90691 3.04807 17.1317
307 3 13.5943 0.977414 14.9605
372 2 12.815 0.370992 11.8716
371 2 12.0784 1.5005 13.1514
162 2 10.125 0.199038 15.9529
99 2 13.6558 4.41636 9.97191
33 4 1.73723 12.9441 2.20022
268 3 5.9874 6.93288 4.72828
51 4 2.98516 10.6505 0.867124
52 4 3.99122 8.78587 7.94774
293 3 6.34074 11.3824 5.91575
65 4 6.98679 6.72969 3.55212
69 4 10.9671 7.36166 6.2377
73 4 8.54749 9.00214 2.40134
74 4 4.98519 11.5262 5.06761
75 4 7.24139 11.3173 1.05125
76 4 9.06029 9.85937 7.88738
78 4 7.7687 12.0023 6.0939
105 2 4.74654 7.39303 2.27526
100 2 10.7364 7.10807 4.5134
18 2 10.0962 10.2299 4.75714
104 2 9.9955 9.74325 3.13053
66 4 9.84428 7.51221 0.105559
107 2 8.36046 12.2689 4.46978
176 2 5.64738 9.25392 4.5508
177 2 5.02088 10.3035 3.14877
178 2 3.75822 9.43151 4.25222
179 2 6.90564 7.18241 7.27568
185 2 4.43002 13.2953 7.78357
183 2 6.97824 8.68812 8.22928
217 1 4.75583 9.90545 4.22393
181 2 8.81991 7.35963 7.22226
294 3 8.77673 11.008 6.7947
249 3 2.90129 12.1135 1.44398
251 3 5.23666 8.01261 6.94306
31 4 10.1828 11.5181 0.0559419
282 3 8.07637 7.8137 3.31512
283 3 9.05277 8.58946 1.00234
284 3 5.22915 12.8885 3.68182
285 3 3.47525 11.8191 5.97926
286 3 8.79223 11.7254 0.751331
287 3 7.23509 10.1248 2.16559
288 3 6.25653 12.5028 1.38952
289 3 10.0013 8.47674 6.83361
295 3 7.70264 13.4177 6.87577
279 3 11.3727 6.82774 10.6667
29 4 9.95946 11.6456 10.2828
62 4 5.7741 13.0145 14.1054
383 2 4.60231 7.51854 16.0569
77 4 4.61541 10.9075 10.174
79 4 8.46035 8.45744 12.9427
80 4 4.14423 10.4007 15.3783
81 4 7.16094 11.2028 11.9929
82 2 11.1453 9.08893 9.33968
175 2 11.8641 6.78747 13.6996
106 2 4.09016 12.2438 9.19614
152 2 6.19128 8.61375 10.5573
153 2 5.73723 8.26694 12.3792
154 2 4.37983 8.34117 11.175
103 2 6.12172 6.74805 15.7565
182 2 7.97341 8.99476 9.83175
184 2 6.96121 10.3244 9.17557
186 2 9.60753 10.4894 13.755
187 2 10.7721 9.3128 13.0111
188 2 10.1891 8.97324 14.7396
189 2 5.52453 8.7119 14.526
190 2 5.88401 9.01013 16.3882
191 2 6.73917 10.0527 15.0119
208 1 5.48409 8.07845 11.2698
221 1 9.89279 9.41429 13.7228
222 1 5.86013 9.4722 15.3355
269 3 10.6797 8.41327 16.5059
385 2 5.85073 12.6459 8.73965
291 3 4.73214 9.78233 9.07567
292 3 3.47238 10.5224 11.1574
296 3 7.98718 7.53715 14.0915
297 3 8.97386 7.76628 11.5932
298 3 3.07572 9.59032 14.5314
299 3 4.79536 11.9148 14.7946
300 3 3.63987 10.4749 16.8457
301 3 8.577 11.5094 11.1268
302 3 5.92069 11.2261 10.9664
303 3 7.25384 9.79187 12.5725
304 3 7.06585 12.3146 13.1922
318 2 10.1588 9.82193 17.0709
319 2 6.34597 10.6352 16.8663
290 3 10.1267 10.2709 8.90651
260 3 1.64885 12.2866 11.8472
219 1 7.57447 9.38506 8.89645
157 2 4.12536 7.52756 13.1176
347 2 8.74908 13.3773 8.99804
374 2 3.7263 13.4302 12.5594
333 2 8.5502 13.3911 13.6386
ITEM: TIMESTEP
100
ITEM: NUMBER OF ATOMS
386
ITEM: BOX BOUNDS xy xz yz pp pp pp
-7.6535000000000002e+00 1.6722200000000001e+01 -7.3464000000000000e+00
-1.7819999999999999e-02 1.3453110000000001e+01 -3.0709999999999998e-01
0.0000000000000000e+00 1.7316099999999999e+01 -1.7819999999999999e-02
ITEM: ATOMS id type x y z
362 2 5.59183 1.38413 0.0296069
2 2 0.289719 1.95817 2.26352
3 2 0.191628 2.1052 5.58772
192 1 -2.24245 5.37184 4.59787
5 2 -0.0515735 3.38844 4.18715
6 1 -0.53561 2.60694 4.84491
10 4 -0.718955 3.09835 8.0353
323 1 1.29674 1.49488 0.646526
12 2 -0.42086 3.73507 6.45645
34 4 4.44612 0.418955 3.16036
234 3 0.58886 5.99317 5.51084
37 4 6.79032 1.70919 4.96316
40 4 5.19312 4.90918 1.09526
41 4 2.07329 6.08478 4.61871
330 2 1.68028 0.35361 6.43591
43 4 5.93702 3.82462 7.15964
360 2 7.24131 0.825253 1.90037
379 1 -2.99352 6.20938 1.56487
90 2 3.87636 1.76609 2.22604
108 2 -2.07666 4.75108 6.12493
321 2 1.92725 1.62386 1.50811
324 2 -1.77796 3.69123 1.26134
25 4 -1.01372 6.36657 5.7374
378 2 -2.48453 5.95261 2.62395
122 2 7.20524 1.04065 7.11783
126 2 5.45414 2.57835 1.95608
127 2 3.74481 3.47314 2.16566
128 2 5.20055 3.68701 3.44981
129 2 2.07549 4.30973 3.0677
130 2 1.58727 3.67771 4.72513
131 2 3.41025 3.9088 4.31378
133 2 3.26539 4.78371 7.6048
134 2 1.53859 5.51877 7.1131
327 1 -0.744781 3.99776 1.29024
11 2 0.750201 1.97088 7.86718
377 2 -2.47785 5.56608 0.765313
132 2 1.66753 4.15547 8.5827
199 1 4.89091 3.45548 2.36478
200 1 2.37009 4.30635 4.16916
201 1 2.15969 5.0318 7.95513
231 3 5.59547 1.0152 4.18797
235 3 3.76532 4.95564 0.295174
236 3 4.91223 2.97578 8.06839
325 2 -0.462039 5.07326 0.713236
326 2 -0.356569 3.94952 2.32571
320 2 0.444662 0.812209 0.824112
109 2 -1.64286 4.75254 3.81636
238 3 3.32222 6.42306 5.51954
197 1 7.72267 0.605122 6.17445
237 3 6.31015 3.15896 5.70479
1 4 -0.598633 1.17053 3.58649
4 2 -1.56642 2.89124 5.3017
361 1 7.95615 0.398766 1.10513
87 2 2.74793 1.21451 8.53931
167 2 -3.24663 5.81615 7.28274
322 2 1.6604 1.23984 17.0482
14 2 -0.0580412 4.26453 9.59572
9 3 -0.979088 2.4306 16.0606
13 2 -0.131256 2.14202 10.1529
368 2 3.71048 0.500059 12.4888
15 2 1.71447 2.857 9.91421
16 1 0.523021 2.7697 9.47409
26 4 -2.13435 4.77606 14.0318
36 4 4.32248 1.99866 9.09464
47 4 0.0882866 6.64175 15.3683
7 4 -0.142202 3.05542 17.2214
85 2 -1.6304 4.10899 12.5403
232 3 7.093 1.01828 11.2264
119 2 5.54661 0.601126 9.53822
123 2 4.52148 2.51363 11.3149
124 2 2.63716 2.39471 11.1626
125 2 3.53886 4.00988 10.7127
346 2 1.07619 0.640544 9.97281
135 2 5.46339 2.38617 13.7034
136 2 4.30889 3.8308 13.3013
137 2 5.15208 3.85457 14.9363
365 1 5.34713 2.1185 16.474
44 4 2.77818 6.26433 9.29846
198 1 3.56907 2.87806 10.7398
202 1 5.22771 3.49886 13.8417
363 2 5.80706 1.63806 15.5162
241 3 -0.998861 5.71259 14.6518
242 3 1.20404 5.58689 15.9583
243 3 3.546 5.74836 10.5599
156 2 2.80976 6.28752 12.9627
334 2 0.368204 1.27482 12.8874
335 2 -0.480862 1.45143 14.6277
336 1 -0.124256 0.736658 13.7638
337 2 3.70128 0.754395 14.6194
338 2 3.05863 0.556337 16.4078
339 2 2.15394 1.85632 15.1809
340 1 2.75516 0.861673 15.3164
42 4 2.62785 6.10434 16.8819
375 2 -1.44578 2.9079 11.1513
364 2 4.37236 2.66208 16.2578
91 2 1.05563 5.84024 9.35907
8 2 1.57232 3.14178 16.9831
381 2 4.66876 5.67651 15.589
382 1 4.09614 6.5958 15.6545
38 4 7.90908 0.0318301 12.3735
161 2 5.29893 0.143411 16.1259
196 1 4.09227 0.0264275 8.76084
102 2 -3.62192 6.4653 16.9276
84 2 -3.31907 5.90256 13.6002
17 4 -5.49036 12.4456 4.61232
345 2 -6.29009 13.0952 8.35238
21 3 -7.11555 13.2989 4.04084
369 2 0.570876 9.82551 1.41003
328 2 -5.36386 10.1823 3.37621
22 3 -4.1975 13.1587 3.73094
376 2 -3.00967 7.36035 1.26358
28 4 -2.28016 8.35896 7.96724
49 4 2.92712 7.89308 1.99508
50 4 0.19691 10.6048 4.15677
83 2 -1.66183 6.95909 4.0327
349 2 -4.37272 12.4629 0.973963
111 2 -4.74747 9.11913 6.97098
112 2 -3.24184 9.23356 5.70954
113 2 -3.41644 10.4124 7.231
138 2 0.53545 8.24586 2.97717
139 2 -0.790569 9.29724 2.01461
140 2 -1.08412 8.7732 3.8208
141 2 -1.27895 11.0681 6.15237
142 2 -2.04825 10.3334 4.54277
143 2 -1.72872 12.2226 4.65644
144 2 -0.253833 11.7283 7.19891
145 2 0.410006 12.9382 8.47894
146 2 -1.45087 12.7235 8.38012
118 2 -2.3405 13.0624 1.11039
193 1 -3.59415 9.36401 6.79678
203 1 -0.288196 9.01165 3.03103
204 1 -1.36822 11.1682 4.9841
205 1 -0.381372 12.2238 8.21253
93 2 1.52291 11.8696 7.63749
19 2 -5.04685 10.0612 5.22591
245 3 1.95997 7.079 3.03751
246 3 2.55332 7.50834 0.480654
247 3 0.66252 11.9572 2.95403
225 3 -1.57655 7.4284 6.93064
253 3 1.21969 10.469 5.39036
329 2 -3.98696 12.8847 6.74054
195 1 -2.14495 12.527 2.14377
331 1 -5.12128 12.7734 6.42917
332 2 -5.6758 11.9425 7.10001
357 2 -2.85293 11.7152 2.31811
343 2 -2.14971 8.7189 0.546264
117 2 -0.996654 12.2522 2.37428
352 1 -5.3134 11.9555 1.42033
350 2 -5.14266 10.9912 1.93947
351 2 -5.91236 12.6957 1.97903
341 2 -3.75147 9.92563 0.946715
20 1 -5.68696 10.5432 4.41946
101 2 -4.2907 7.73941 5.98923
344 1 -3.08631 9.41954 0.150762
367 2 -0.197754 13.0674 5.83131
158 2 0.787346 11.4092 0.320795
210 1 1.08988 10.2989 0.408932
120 2 -2.97419 13.2555 7.65156
358 2 0.0744788 13.4203 0.194752
250 3 3.14196 7.63749 8.64008
248 3 3.16224 9.44627 2.11095
23 4 -5.97435 13.19 14.7036
27 4 -4.05736 8.0548 16.3418
30 4 -2.62 9.26057 13.63
342 2 -3.1166 10.1628 16.5667
32 4 -4.40141 11.776 12.2785
24 4 -4.45124 8.01887 10.0407
53 4 -0.43775 10.6751 9.47075
55 4 1.91329 8.69854 13.6409
56 4 -0.825947 11.6858 14.8286
57 4 1.81077 10.7096 11.4224
366 2 -3.75628 12.6422 9.24419
155 2 2.7395 7.66712 11.6689
94 2 0.416797 11.181 15.9772
317 2 -4.01956 8.95788 11.4204
114 2 -2.01324 8.55786 11.5026
115 2 -1.88399 7.1548 12.7794
116 2 -0.469726 8.35914 12.5005
147 2 -0.913635 10.7018 12.0419
148 2 -2.49502 10.7713 10.9154
149 2 -1.24253 12.2197 10.9208
150 2 -3.13718 13.196 10.7081
151 2 -2.13385 12.8735 12.4085
159 2 -1.83884 11.9202 17.0157
160 2 -2.98542 11.9513 15.5212
260 3 1.33276 12.3558 11.6119
194 1 -1.56369 8.1986 12.4911
206 1 -1.36336 11.0774 11.0741
207 1 -3.14521 13.0983 11.9206
209 1 2.99773 7.38507 12.6991
92 2 -0.53355 7.46877 16.5904
211 1 -1.9962 12.4594 16.051
224 3 -3.20493 7.70064 9.18454
226 3 -3.38475 8.29622 14.8959
227 3 -6.40942 12.4086 16.0352
228 3 -5.40918 11.685 11.1043
229 3 -3.64088 9.94569 12.6532
230 3 -5.11892 12.2179 13.6514
370 2 0.745429 9.61987 16.8355
348 1 -6.81881 13.3338 9.34655
255 3 0.94178 7.67108 14.4465
256 3 -1.59325 10.4895 14.2328
257 3 -0.372396 12.832 13.5885
258 3 1.08309 10.3487 9.86744
259 3 1.148 9.67555 12.5772
380 2 3.75749 6.90363 14.5702
252 3 -1.26537 9.51257 8.68727
58 4 13.2998 0.270406 2.61346
59 4 13.8917 1.00078 7.2557
61 4 12.4273 2.62302 5.23909
312 2 10.2407 5.99856 3.42293
67 4 11.2539 4.55067 7.38101
218 1 7.71185 6.6687 7.40637
86 2 7.66218 2.31401 1.21905
96 2 11.5351 1.88137 3.91338
97 2 13.6368 3.60622 4.43138
121 2 8.88193 0.434817 6.18548
272 3 7.33199 3.8251 8.21898
110 2 13.3066 5.44087 4.30627
170 2 8.79651 5.52897 4.46726
171 2 8.03762 4.64866 2.85081
172 2 7.2893 4.326 4.66142
180 2 7.69016 5.8569 6.58039
214 1 13.0304 5.1044 8.09185
215 1 7.87957 5.10648 3.99909
239 3 5.38468 5.28215 6.88014
270 3 10.6726 3.6071 8.51455
220 1 12.5325 0.0698832 8.42211
261 3 14.6322 2.39766 8.18747
263 3 13.1632 1.59394 6.07878
267 3 5.61329 6.14792 2.05228
359 2 8.88662 1.10322 0.809291
271 3 11.5484 3.65411 6.1064
95 2 10.737 1.00835 8.55727
274 3 10.6338 5.89212 6.84156
45 4 4.81428 6.66479 5.97528
308 4 12.2326 2.42988 0.682285
309 4 11.8925 5.58168 1.85945
386 3 14.5902 1.0978 3.16327
311 2 11.4686 5.1325 4.6042
88 2 8.1989 1.79338 3.95522
313 1 11.3842 5.84146 3.7263
314 3 12.0903 1.3399 1.9099
315 3 12.008 4.02054 1.5633
316 3 10.8143 6.44574 0.991326
353 2 10.875 0.242443 3.97256
354 2 9.19798 0.522654 4.7899
355 2 9.90922 1.74537 3.56888
356 1 9.85763 0.695377 3.88515
168 2 13.7422 4.19542 8.16025
65 4 6.93403 6.59047 3.48115
39 4 7.71879 2.44596 10.8674
46 4 6.72561 4.48676 13.1513
48 4 5.48376 6.23953 10.9295
60 4 10.5405 2.40542 9.52413
63 4 9.73237 2.39706 15.4892
64 4 12.9064 3.29666 11.1278
68 4 7.79872 5.52938 8.89966
70 4 10.8458 4.44982 13.1636
99 2 13.3963 4.40642 9.88325
72 4 9.89671 6.52183 11.0116
89 2 6.83037 3.17741 9.5672
223 3 13.8657 3.74925 14.958
166 2 14.7014 2.32914 12.8837
163 2 10.5051 0.368918 14.1187
164 2 8.7235 0.180212 14.8749
165 2 14.1928 1.28737 11.3902
98 2 9.1008 0.960251 13.1676
169 2 12.7971 5.65602 9.01905
173 2 12.3963 5.81004 14.9683
174 2 10.5289 6.11303 14.7777
373 1 11.9001 0.121132 12.676
71 4 7.60119 6.46163 15.253
212 1 9.75514 0.551329 15.0146
213 1 14.437 2.38685 11.8235
216 1 11.5259 5.90774 14.2505
306 3 13.3175 2.43221 17.3051
240 3 7.47029 3.44439 12.2251
244 3 6.04686 5.67374 12.2964
262 3 9.13898 2.26687 10.2993
264 3 10.8044 2.39677 16.7063
265 3 8.09169 2.77244 16.124
266 3 11.8345 2.2056 10.4868
273 3 6.46823 5.97555 9.64397
275 3 10.1872 3.25539 14.1765
276 3 12.2478 4.022 12.3515
277 3 7.54023 5.11866 14.5171
278 3 8.84162 6.41412 16.2855
384 2 12.2994 0.844402 9.29151
280 3 9.07695 5.80841 9.7358
281 3 9.88915 5.29654 12.2412
305 4 14.0059 2.3834 15.8104
35 4 6.85149 3.06779 17.0359
307 3 13.6002 1.01392 14.9127
372 2 12.6325 0.0925162 11.7955
371 2 11.4475 1.18685 12.8297
162 2 10.2915 0.163862 15.9741
347 2 16.1923 0.167188 9.24591
233 3 6.1078 4.49307 17.2865
33 4 1.77899 12.9307 2.33662
268 3 5.77073 6.76588 4.65362
51 4 2.94246 10.6861 0.944319
52 4 4.02826 8.79545 7.96192
293 3 6.35213 11.3147 5.9537
295 3 7.76098 13.4371 6.89502
69 4 10.7789 7.28202 6.17392
73 4 8.58009 8.98004 2.24735
74 4 4.97019 11.6504 5.02746
75 4 7.35236 11.4241 1.05702
76 4 9.29009 9.90221 7.78491
78 4 7.76847 12.0372 6.09091
105 2 4.51099 7.29226 2.18065
100 2 10.4054 7.38703 4.46577
18 2 9.89026 10.3846 4.65345
104 2 9.99023 9.60921 3.05042
66 4 9.93022 7.39427 0.0174008
107 2 8.30423 12.3565 4.51707
176 2 5.34168 9.18884 4.90004
177 2 5.12559 10.0775 3.14421
178 2 3.67906 9.76198 4.32888
179 2 6.72428 7.26634 7.35766
254 3 3.10812 9.77231 7.11718
183 2 6.94477 9.47859 7.82665
217 1 4.76629 9.93823 4.22243
181 2 8.62802 7.3883 7.27084
294 3 8.8003 10.9605 6.67331
249 3 2.97406 12.1523 1.5996
251 3 5.06178 8.07949 6.84564
185 2 4.33746 13.3539 7.65947
282 3 7.92391 7.81579 3.16998
283 3 8.98497 8.44456 0.866944
284 3 5.23952 12.9125 3.85902
285 3 3.56611 11.9663 5.8455
286 3 8.83617 11.74 0.592755
287 3 7.51364 10.3003 2.26087
288 3 6.3976 12.6785 1.51337
289 3 10.0696 8.34471 6.98759
310 2 11.9073 6.88398 3.83242
54 4 2.36927 10.9791 6.45311
279 3 11.439 6.84618 10.5896
29 4 9.93235 11.7128 10.2699
62 4 5.68785 13.1276 14.0514
383 2 4.55081 7.44866 16.2887
77 4 4.56473 10.9226 10.2405
79 4 8.41987 8.55182 12.9357
80 4 4.22242 10.4843 15.3445
81 4 7.19273 11.1796 11.9192
82 2 11.2991 9.26727 9.39232
175 2 11.7361 6.75267 13.5485
106 2 4.06975 12.4419 9.56609
152 2 6.22026 8.48671 10.3995
153 2 5.90178 8.17418 12.2692
154 2 4.44349 8.36797 10.9942
374 2 3.73379 12.8317 12.4535
182 2 7.79647 8.38572 9.09107
184 2 7.55222 10.2984 9.3933
186 2 9.68031 10.4476 13.7712
187 2 10.7824 9.13789 12.9576
188 2 10.2646 8.96548 14.765
189 2 5.58622 8.75143 14.6297
190 2 5.78948 9.14578 16.5564
191 2 6.77579 10.206 15.2296
208 1 5.50347 8.07115 11.192
221 1 9.96649 9.3815 13.7396
222 1 5.87168 9.52724 15.4557
269 3 10.7539 8.38037 16.4553
385 2 5.88257 12.6384 8.78793
291 3 4.84196 9.82902 9.13209
292 3 3.43026 10.5166 11.3006
296 3 7.86381 7.64058 14.1887
297 3 9.1436 7.841 11.5498
298 3 3.08367 9.60986 14.4348
299 3 4.71533 12.065 14.8484
300 3 3.69351 10.5474 16.8869
301 3 8.58211 11.5843 11.112
302 3 5.86217 11.4159 10.9575
303 3 7.43417 9.79061 12.5522
304 3 7.12216 12.233 13.223
318 2 10.2301 9.83919 16.9807
319 2 6.31236 10.719 16.9779
290 3 10.2077 10.3893 8.89548
103 2 6.08174 6.80964 15.9488
219 1 7.684 9.40441 8.67412
157 2 4.00545 7.71204 12.9213
31 4 9.94595 11.524 17.285
333 2 8.37997 13.3733 13.4879
ITEM: TIMESTEP
200
ITEM: NUMBER OF ATOMS
386
ITEM: BOX BOUNDS xy xz yz pp pp pp
-7.6535000000000002e+00 1.6722200000000001e+01 -7.3464000000000000e+00
-1.7819999999999999e-02 1.3453110000000001e+01 -3.0709999999999998e-01
0.0000000000000000e+00 1.7316099999999999e+01 -1.7819999999999999e-02
ITEM: ATOMS id type x y z
239 3 5.19597 5.30518 6.87334
2 2 0.287816 1.86789 2.22799
3 2 0.228957 1.92236 5.74531
192 1 -2.23488 5.21692 4.59445
5 2 -0.181993 3.40314 4.53579
6 1 -0.56192 2.49577 5.12454
10 4 -0.585002 3.03214 8.16464
323 1 1.43218 1.81286 0.61539
12 2 -0.193796 3.74919 6.59521
34 4 4.48877 0.261668 3.16616
234 3 0.536441 5.99424 5.61621
37 4 6.83799 1.63986 4.98481
40 4 5.20456 4.83373 1.0442
41 4 2.01712 6.03428 4.59528
330 2 1.01482 0.00259118 6.79341
43 4 5.89828 3.89033 7.24412
360 2 6.90567 0.723313 1.82046
379 1 -2.98698 6.20328 1.69042
90 2 3.90978 1.62017 2.27668
108 2 -1.99876 4.63318 6.09498
321 2 1.98638 1.76702 1.59972
324 2 -1.60772 3.97269 1.29364
25 4 -1.01859 6.36499 5.72075
378 2 -2.60047 5.9689 2.7693
122 2 6.99279 0.974186 7.17576
126 2 5.38883 2.34341 1.55951
127 2 3.82482 3.36375 2.17991
128 2 5.47815 3.46702 3.09217
129 2 2.16227 4.49307 2.82864
130 2 1.547 3.61608 4.44629
131 2 3.34363 3.90445 4.21972
133 2 3.02216 4.63113 7.69034
134 2 1.41851 5.59426 7.07065
327 1 -0.495119 4.27739 1.23362
11 2 0.858249 1.85226 8.30323
377 2 -2.30276 5.58686 1.02251
361 1 7.90032 0.580741 1.2963
199 1 5.01894 3.29448 2.10342
200 1 2.3276 4.28543 3.97241
201 1 2.02546 5.16393 7.98545
231 3 5.62098 0.94563 4.07052
235 3 3.63634 4.97052 0.403707
236 3 4.78292 2.82423 8.21727
325 2 -0.146233 5.34303 0.63163
326 2 0.187827 4.06253 2.11738
320 2 0.652874 1.00862 0.630222
109 2 -1.63353 4.59568 3.89402
238 3 3.28803 6.45763 5.39857
197 1 7.54513 0.53015 6.20398
237 3 6.27801 3.18293 5.87057
1 4 -0.666039 1.34993 3.60296
21 3 0.144784 0.0690913 4.0897
358 2 7.87171 0.0681044 0.27574
4 2 -1.54376 2.72792 5.60479
120 2 4.20082 0.0356 7.66067
362 2 5.72083 1.32551 0.0185479
322 2 1.97211 1.53304 17.053
14 2 -0.173615 4.27715 9.63365
9 3 -0.957025 2.55243 16.1382
13 2 -0.0327472 2.25559 10.5463
368 2 3.63499 0.54037 12.56
15 2 1.70286 3.03336 10.0949
16 1 0.545773 2.9211 9.78662
26 4 -2.2225 4.80808 14.0823
36 4 4.22581 1.87445 9.30175
47 4 0.0680934 6.52801 15.3135
7 4 0.00929847 3.30451 17.1443
85 2 -1.73213 4.03875 12.6272
232 3 7.01236 0.957234 11.4134
119 2 5.50045 0.468945 9.56047
123 2 4.59228 2.46807 11.4173
124 2 2.71782 2.39114 11.4093
125 2 3.54522 3.96268 10.6988
346 2 1.44146 0.392492 10.195
135 2 5.3546 2.43148 13.6957
136 2 4.20445 3.77389 13.0078
137 2 4.8599 3.8859 14.7939
365 1 5.39598 2.01965 16.3293
44 4 2.79808 6.36546 9.27092
198 1 3.59195 2.79884 10.8273
202 1 5.04769 3.5472 13.7072
363 2 5.5842 1.44387 15.3404
241 3 -1.02705 5.61663 14.5948
242 3 1.30618 5.63286 15.9636
243 3 3.57052 5.6579 10.3986
156 2 2.37841 6.41338 12.997
334 2 0.329836 1.32939 13.2006
335 2 -0.353687 1.47267 14.9859
336 1 -0.037257 0.804896 14.1265
337 2 3.76236 0.958907 14.5473
338 2 3.20941 0.947382 16.3889
339 2 2.25022 1.97698 15.1666
340 1 2.92342 1.05042 15.3191
42 4 2.65703 6.09493 16.7809
375 2 -1.13346 2.74899 11.3899
364 2 4.44728 2.62722 16.3079
91 2 1.08852 6.06119 9.41074
8 2 1.69779 3.33027 16.7699
87 2 2.60787 0.83743 8.93583
381 2 4.85427 5.86612 15.7649
132 2 1.45849 4.37126 8.74156
17 4 -5.59128 12.4991 4.70503
345 2 -6.01312 13.1724 8.32377
252 3 -1.2239 9.47306 8.57678
369 2 0.519751 9.98052 1.3837
328 2 -5.71582 10.6719 2.96904
22 3 -4.36894 13.0661 3.97173
376 2 -2.87687 7.318 1.51415
28 4 -2.24052 8.43139 8.01203
49 4 2.93239 7.74426 1.99047
50 4 0.173559 10.6243 4.24506
83 2 -1.74133 6.96531 4.14755
349 2 -4.21434 12.3286 0.652177
111 2 -4.65944 9.15239 7.12307
112 2 -3.27479 9.21976 5.66864
113 2 -3.08593 10.4187 7.23202
138 2 0.481783 8.36514 2.83643
139 2 -0.735451 9.50792 1.98649
140 2 -1.1558 8.82009 3.70427
141 2 -1.32911 10.6205 6.27149
142 2 -2.11774 10.4459 4.50982
143 2 -1.5177 12.1623 5.19033
144 2 -0.232297 12.002 7.08948
145 2 0.426937 12.9993 8.54677
146 2 -1.47226 12.6194 8.43685
118 2 -2.10916 13.2621 1.08964
193 1 -3.55401 9.34382 6.78323
203 1 -0.32227 9.13678 2.95941
204 1 -1.42028 11.0243 5.23489
205 1 -0.360135 12.239 8.22408
93 2 1.44277 11.9704 7.52093
19 2 -4.76207 10.143 4.49663
245 3 1.98675 7.1244 3.17984
246 3 2.54787 7.29571 0.518634
247 3 0.605663 12.0506 3.17847
225 3 -1.60756 7.37821 6.79881
253 3 1.32662 10.4145 5.30445
329 2 -4.3089 13.357 6.85039
195 1 -2.03072 12.4933 2.06889
331 1 -5.32667 12.9162 6.45754
332 2 -5.38938 11.6607 6.80056
357 2 -2.76946 11.6262 2.15955
343 2 -2.07009 8.44802 0.536908
117 2 -0.977328 12.3077 2.53713
352 1 -5.08444 11.8699 1.16879
350 2 -4.77577 10.9312 1.76765
351 2 -5.67309 12.5809 1.83502
341 2 -3.64689 9.47017 0.950416
20 1 -5.71147 10.5866 4.11818
248 3 3.13212 9.27971 1.93141
344 1 -2.87623 9.24265 0.191118
367 2 -0.00757106 12.8944 5.96887
158 2 0.659627 11.4096 0.110662
210 1 1.01294 10.3848 0.35736
101 2 -4.16785 7.51985 6.64943
23 4 -5.83302 13.3236 14.7457
27 4 -4.08613 8.11341 16.3034
30 4 -2.57216 9.22504 13.5547
342 2 -2.81421 10.0349 16.8097
32 4 -4.43782 11.7455 12.4086
24 4 -4.47017 8.1019 10.0659
53 4 -0.246399 10.5593 9.30634
55 4 1.94417 8.74461 13.6985
56 4 -0.757166 11.4648 14.9154
57 4 1.89572 10.8121 11.4016
366 2 -3.51816 12.2831 9.03974
155 2 2.65055 7.84564 11.6758
94 2 0.616834 11.0087 15.7641
317 2 -4.083 9.11755 11.3799
114 2 -1.9012 8.60775 11.3793
115 2 -2.28205 7.0947 12.4738
116 2 -0.615057 7.98452 12.6805
147 2 -1.02678 10.8511 11.7752
148 2 -2.36085 10.5829 10.5234
149 2 -1.36778 12.1794 10.4626
150 2 -3.27977 13.206 10.7261
151 2 -2.31433 12.6095 12.3979
159 2 -1.66846 11.8162 17.0675
160 2 -2.92391 11.9044 15.5997
260 3 1.38049 12.2931 11.8317
194 1 -1.71478 8.07679 12.3722
206 1 -1.41825 11.0472 10.7227
207 1 -3.30319 13.0619 11.9801
209 1 2.92459 7.41444 12.8009
92 2 -0.843701 7.24237 16.4828
211 1 -1.96765 12.2616 16.1167
224 3 -3.28561 7.8073 9.05393
226 3 -3.41508 8.2084 14.868
227 3 -6.31359 12.4464 16.0021
228 3 -5.4739 11.6924 11.2193
229 3 -3.53897 10.0135 12.6444
230 3 -5.23887 12.4416 13.6277
370 2 0.77889 9.58514 16.8354
348 1 -6.59212 13.34 9.34395
255 3 0.855777 7.71628 14.5153
256 3 -1.42953 10.1854 14.3777