ITEM: TIMESTEP
0
ITEM: NUMBER OF ATOMS
386
ITEM: BOX BOUNDS xy xz yz pp pp pp
-7.7893900000000000e+00 1.6722200000000001e+01 -7.4822899999999999e+00
-1.7999999999999999e-02 1.3589000000000000e+01 -3.0709999999999998e-01
0.0000000000000000e+00 1.7316099999999999e+01 -1.7999999999999999e-02
ITEM: ATOMS id type x y z
108 2 -3.24184 5.94735 5.18468
2 2 -0.176697 2.04241 1.9455
234 3 0.511446 6.02156 5.74231
4 2 -0.224165 3.25435 4.16128
5 2 -0.00965982 1.64181 5.47077
6 1 -0.837563 2.50101 4.86796
10 4 -0.324136 2.95024 8.11072
246 3 2.25671 6.49171 1.0686
12 2 0.147947 3.17942 6.45518
34 4 4.34759 0.956569 3.47078
36 4 4.00458 1.98463 8.25154
326 2 -0.604607 4.61781 2.12396
109 2 -1.83756 5.18177 3.99688
41 4 1.90772 6.09338 4.67041
21 3 0.177277 0.0122665 3.91941
327 1 -0.210775 4.87918 1.0772
87 2 2.69947 0.972224 7.57537
7 4 0.357776 2.96308 0.512024
90 2 3.66141 2.55795 3.31088
118 2 4.48112 0.988697 1.21955
197 1 7.6141 0.375789 6.29653
238 3 3.45058 6.17235 5.32775
133 2 3.26676 4.84086 7.20035
322 2 3.12443 2.78484 1.12974
235 3 4.46602 5.03798 0.0723624
126 2 5.75276 3.03301 2.74767
127 2 4.02918 3.38494 1.98362
128 2 4.78039 4.29973 3.53788
129 2 1.11796 4.75084 2.55702
130 2 1.53483 3.86343 4.36517
131 2 3.14669 4.40351 3.15269
132 2 1.91777 3.9654 8.19656
134 2 1.46535 5.36633 7.03334
37 4 7.07365 1.72265 5.08231
324 2 -1.00378 5.18148 0.410962
362 2 5.99802 1.43764 0.36883
120 2 4.84061 0.00431271 6.96253
199 1 4.96516 3.79867 2.5539
200 1 1.9596 4.63632 3.53021
201 1 2.2495 4.90288 7.70527
231 3 5.75838 1.18667 4.45166
325 2 0.779953 5.55034 1.08821
236 3 4.75918 2.99675 7.3069
376 2 -3.13613 6.53198 1.61753
192 1 -2.26094 6.1103 4.57006
320 2 2.17196 1.15633 1.33181
321 2 1.77048 2.42969 2.54742
323 1 2.11662 2.24766 1.49343
11 2 0.894777 1.79392 8.59608
195 1 5.10018 0.301458 1.89124
14 2 -0.50284 5.24702 8.22181
360 2 7.3833 0.33975 1.02365
122 2 7.42025 0.659277 7.4087
117 2 6.26448 0.419795 1.7963
3 2 -1.4328 3.01186 5.70272
43 4 6.04382 3.84777 6.89548
378 2 -2.59524 5.18974 0.266979
160 2 5.08574 0.916055 14.9017
91 2 0.693185 5.88693 9.32822
9 3 -0.577737 2.26235 16.538
13 2 -1.5918 4.63145 9.82588
156 2 2.4677 6.31045 13.7941
15 2 0.385735 4.29191 9.78248
16 1 -0.628078 4.47725 9.13227
26 4 -1.84128 4.67352 14.2463
23 4 1.33949 0.265611 14.3571
47 4 0.522627 6.40379 15.4515
42 4 3.00422 6.05275 17.0128
85 2 -2.06496 4.74824 12.556
119 2 5.24907 0.325665 8.99016
375 2 -1.536 3.84749 11.051
123 2 4.05832 1.4089 10.7308
124 2 2.83076 2.85489 10.0076
125 2 4.68564 3.1576 10.4446
232 3 7.3023 0.723813 11.3477
135 2 5.86718 1.69499 13.2409
136 2 4.50475 2.96852 13.5484
137 2 5.72861 2.36009 15.003
44 4 2.35141 6.18806 9.08601
368 2 3.7298 0.5149 12.3827
198 1 3.93841 2.38361 10.1023
202 1 5.51726 2.58818 13.8752
346 2 1.55479 0.436872 9.44274
241 3 -0.665925 5.6468 14.7275
242 3 1.86419 5.61203 15.5643
243 3 3.29443 5.72886 10.2672
364 2 5.43701 2.99946 16.696
334 2 0.47814 1.14177 12.1394
335 2 -0.377971 1.93866 13.6251
336 1 -0.121397 1.04557 13.0576
337 2 2.40099 2.49936 13.8935
338 2 3.28557 1.37751 15.1711
339 2 1.74613 2.39604 15.6361
340 1 2.26189 1.83712 14.8154
363 2 6.66569 1.60565 16.0915
92 2 -0.21432 6.30305 17.0238
365 1 6.1737 2.13076 16.995
244 3 5.35636 4.82905 12.1528
347 2 -0.359297 0.442142 9.512
223 3 -1.95095 3.20999 14.7125
8 2 1.67975 3.3848 17.2863
17 4 -5.59252 12.678 4.4166
342 2 -2.18636 9.59701 2.0282
20 1 -5.68089 10.9489 3.44398
349 2 -4.67196 13.4969 0.401223
105 2 4.26023 7.06037 2.79569
367 2 -0.455409 12.9739 5.9861
366 2 -3.55919 12.4968 8.07595
28 4 -2.54812 8.37212 8.05146
49 4 2.74231 7.56366 2.22532
50 4 -0.0481912 11.0194 4.30002
83 2 -0.637774 8.42626 4.82776
19 2 -4.76342 10.7763 2.79242
111 2 -4.92672 9.04809 7.16815
112 2 -3.27777 9.11029 5.92581
113 2 -3.59628 10.4787 7.17609
138 2 -0.460272 9.9652 2.20128
139 2 -1.51136 8.96951 3.27037
140 2 0.390935 8.70244 3.32585
141 2 -1.79558 11.2706 6.23885
142 2 -2.26542 10.6665 4.51759
143 2 -1.9437 12.5519 4.92093
144 2 -0.0663879 11.5685 7.28628
102 2 -3.27588 8.71261 0.407914
146 2 -1.40736 12.598 8.15225
158 2 0.735079 11.1838 0.498006
193 1 -3.71495 9.36911 6.9517
203 1 -0.516785 9.43896 3.14492
204 1 -1.66994 11.4804 5.17103
205 1 -0.395751 12.0431 8.29877
225 3 -1.88675 7.21144 7.01518
329 2 -6.71818 12.8471 6.65214
245 3 1.79271 7.47403 3.61084
110 2 -2.35789 7.07062 3.81115
247 3 0.459919 12.1616 3.35298
248 3 2.94835 8.98024 1.55027
253 3 1.07888 10.7064 5.48196
93 2 1.52745 11.6053 7.98438
330 2 -5.59123 11.184 6.13143
331 1 -5.6599 12.4584 6.21714
332 2 -4.66183 12.8543 6.82429
25 4 -1.00266 6.89156 5.62247
343 2 -4.17139 9.75555 1.89678
344 1 -3.24654 9.7107 1.25046
22 3 -4.22189 13.502 4.0133
350 2 -4.72713 11.8828 1.29206
351 2 -6.14624 13.0948 1.68341
352 1 -5.34077 12.7256 0.931211
357 2 -2.68728 12.8003 1.85543
341 2 -3.11175 10.6595 0.695164
196 1 -3.2041 13.574 7.96542
345 2 -7.04653 13.2775 7.91546
155 2 2.53944 7.21306 12.1182
27 4 -4.81523 9.16158 16.5227
30 4 -3.03602 9.62055 13.9657
31 4 -6.85556 12.052 16.9767
32 4 -4.77218 11.9475 12.3316
38 4 0.493947 13.3545 12.4409
53 4 -0.658919 10.5722 9.5187
55 4 1.86418 8.78323 13.8645
56 4 -1.09347 12.1958 14.8743
57 4 1.58074 10.569 11.4852
175 2 -3.76894 7.06071 13.9924
370 2 1.3603 10.6657 16.1975
94 2 0.0390578 11.7295 16.103
318 2 -5.81048 10.6084 16.7279
114 2 -2.60824 7.77207 12.4649
115 2 -2.207 7.24942 14.3709
116 2 -1.01345 8.43314 13.5019
147 2 -1.47142 10.1245 11.6312
148 2 -2.88868 11.0108 10.8188
149 2 -1.48239 12.0264 11.4386
150 2 -3.67242 13.1576 10.6751
151 2 -2.2973 12.9335 12.1138
159 2 -3.48415 12.8396 15.1083
252 3 -1.57057 9.51976 8.72607
161 2 -2.26728 13.3653 16.5406
194 1 -2.09193 8.03719 13.5135
206 1 -1.83201 11.0135 11.001
207 1 -3.40214 13.1527 11.8163
209 1 2.8228 7.26829 13.2339
211 1 -2.50646 13.3749 15.3933
380 2 3.1739 8.39469 16.6866
224 3 -3.62972 7.68836 9.31461
226 3 -4.07591 9.2401 15.1249
227 3 -6.76733 13.0426 15.7021
228 3 -5.87154 11.9244 11.193
229 3 -3.91235 10.2382 12.6919
230 3 -5.29949 12.8035 13.5571
259 3 1.17924 9.48716 12.6661
317 2 -4.36584 9.09256 11.552
255 3 0.765652 7.95893 15.043
256 3 -1.82895 10.8862 14.4611
257 3 -0.306052 12.991 13.743
258 3 0.758729 10.1621 10.0019
250 3 2.68331 7.66121 8.71846
348 1 -6.91287 13.5696 9.10658
260 3 1.25334 12.0661 11.929
145 2 0.404942 12.7046 8.69186
210 1 0.935799 10.3527 17.2299
157 2 3.91931 7.39409 13.3303
369 2 0.274497 9.42973 17.1629
35 4 7.81782 3.22848 0.459384
59 4 13.8872 0.845824 7.40784
61 4 12.594 2.59359 5.2981
354 2 9.87817 1.71093 4.37997
67 4 11.4692 4.52774 7.24147
86 2 7.93456 1.90895 1.63246
40 4 5.66884 5.16668 1.37872
96 2 11.7033 1.79205 4.06455
97 2 14.0353 3.10048 4.5319
379 1 13.3244 5.94364 0.577376
359 2 9.26617 1.01477 1.00786
121 2 8.77853 0.45758 5.98203
170 2 9.17934 5.56075 3.74489
171 2 7.39775 4.68868 3.44051
172 2 7.83349 5.26939 5.24569
356 1 10.0098 0.830151 3.69277
214 1 13.2365 4.88528 8.02627
215 1 8.00827 5.44957 4.08732
88 2 8.3003 1.73081 3.77682
233 3 7.08103 4.60762 1.02229
270 3 10.884 3.46879 8.37667
167 2 13.7882 4.96115 7.01471
263 3 13.0003 1.46044 6.2611
267 3 5.71679 6.4461 2.23662
272 3 7.27198 3.82093 8.39876
271 3 11.7553 3.77446 5.78425
361 1 8.48244 0.121841 0.910406
274 3 10.5963 5.96393 7.00646
237 3 6.95176 3.18558 5.72573
308 4 12.4748 2.31667 0.583017
309 4 11.7148 5.30802 1.40461
310 2 10.771 4.89367 3.66362
239 3 5.6851 5.32682 6.5521
180 2 8.22915 6.07077 6.74986
313 1 11.169 5.8524 3.34329
314 3 12.2847 1.06464 1.57619
315 3 11.95 3.80375 1.52328
316 3 10.513 5.88796 0.507638
311 2 10.3929 6.71256 3.1063
386 3 14.352 0.768592 3.24985
355 2 10.7637 0.980818 2.91064
261 3 14.9888 2.13107 8.16673
218 1 7.91044 6.54288 7.70004
168 2 13.597 4.04144 8.6381
45 4 4.88176 6.5837 5.97539
312 2 12.0732 6.12337 3.95381
1 4 15.8701 1.19202 3.42869
169 2 13.2647 5.86952 8.57621
306 3 13.9665 2.61219 0.106509
39 4 7.79736 2.23573 10.8345
46 4 6.46668 4.03815 12.9979
371 2 12.2764 1.82555 13.701
60 4 10.5947 2.3138 9.45532
63 4 10.0185 2.82982 15.8458
64 4 12.5517 3.67591 11.1521
68 4 7.56479 5.27276 9.07961
70 4 10.9209 5.057 13.6075
305 4 14.5436 2.16499 15.9259
72 4 9.55834 6.52631 11.257
99 2 12.5192 4.95437 9.88105
166 2 14.5285 2.90595 12.5418
162 2 10.0562 0.868971 14.5323
163 2 8.88067 2.19392 13.7694
164 2 8.3368 1.11573 15.2598
165 2 14.2812 2.14325 10.8456
377 2 12.7408 6.6397 17.1157
374 2 11.1772 0.430392 12.8453
333 2 15.7472 0.271609 13.0146
307 3 14.0193 0.758657 15.3238
98 2 9.41148 0.609226 12.8916
185 2 12.297 0.339562 9.57122
212 1 9.11393 1.53666 14.6196
213 1 14.3684 3.1361 11.4535
48 4 5.01225 5.98969 10.8636
89 2 6.73527 2.81145 9.58648
240 3 7.63825 3.23057 12.161
372 2 12.9316 0.830564 12.0749
262 3 9.26884 2.15312 10.2115
264 3 11.138 1.97494 16.5832
265 3 8.69941 3.21995 16.7623
266 3 11.811 2.46708 10.5603
273 3 6.19015 5.84169 9.76264
275 3 10.5524 4.1656 14.8479
276 3 11.978 4.30786 12.5948
277 3 7.03249 5.06347 14.3523
373 1 12.1888 0.86952 13.0487
71 4 7.12333 6.55083 14.9655
280 3 8.8088 5.43629 10.1457
281 3 9.73558 5.77952 12.7635
173 2 11.8338 6.27053 15.4516
278 3 8.4451 6.65152 15.867
216 1 11.7966 6.61952 14.3158
103 2 5.70025 6.73233 15.9364
84 2 13.4158 5.50612 14.6664
95 2 10.9998 0.829999 8.68658
33 4 1.68327 12.9612 2.50213
295 3 7.41214 13.3056 6.86394
65 4 6.89951 6.96402 3.72664
100 2 10.2107 6.96704 4.71185
182 2 6.83415 8.58862 8.22953
385 2 4.49594 13.2175 7.76095
69 4 10.6959 7.27018 6.29949
73 4 8.40506 8.84251 1.94737
74 4 4.81857 11.6587 4.79582
75 4 7.28823 11.3077 0.79533
76 4 8.96373 9.8149 7.67515
78 4 7.60907 11.9963 5.94707
289 3 9.89823 8.47739 6.95162
58 4 5.77261 13.5222 2.46858
18 2 10.7992 10.0819 4.08022
104 2 9.73795 9.73198 2.67702
268 3 5.94121 7.3541 4.8824
107 2 8.59702 12.4065 4.5536
176 2 4.7356 9.15755 4.47102
177 2 4.94018 10.1481 2.90638
178 2 3.25825 10.0662 3.63253
179 2 6.94883 7.11312 7.61408
52 4 3.83933 8.68475 7.98686
288 3 6.51888 12.4738 1.49452
217 1 4.38477 10.0905 3.86698
293 3 6.17063 11.422 5.49522
294 3 8.58587 10.8391 6.55379
249 3 2.66563 11.7193 1.90344
251 3 4.90606 7.6976 7.27496
51 4 2.8867 10.4914 0.862289
282 3 8.00717 7.93612 3.14569
283 3 9.01703 8.04761 0.752412
284 3 4.91348 12.802 3.61994
285 3 3.3887 11.9337 6.09775
286 3 8.75728 11.6902 0.306049
287 3 7.22672 9.89428 1.4741
220 1 5.24504 13.4087 8.6432
353 2 2.7348 13.4572 4.4112
54 4 2.2383 10.9591 6.54473
181 2 8.76723 7.20298 8.12029
254 3 3.06593 9.6721 6.83892
328 2 10.0905 11.4593 2.79968
101 2 12.2804 7.75809 5.90449
24 4 11.9185 8.1454 10.1992
29 4 9.75388 11.9517 10.1217
62 4 5.6594 13.2516 14.1059
184 2 7.94991 8.67993 9.771
77 4 4.45986 10.7572 10.1602
79 4 8.02033 8.60011 12.8785
80 4 3.99144 10.822 15.2332
81 4 7.05012 11.49 11.7214
82 2 11.0819 9.41979 9.41866
279 3 10.9622 7.04731 10.6402
106 2 3.83343 12.1051 9.25817
152 2 5.94062 8.26082 10.7838
153 2 5.60989 7.60547 12.5443
154 2 4.16665 8.2106 11.4141
290 3 9.95803 10.5571 8.94674
382 1 3.99467 7.63074 16.4576
183 2 7.10186 10.2627 9.02861
186 2 9.52343 10.2193 13.8925
187 2 10.5149 8.77005 13.0896
188 2 9.74933 8.61131 14.7806
189 2 5.36316 9.0792 14.3497
190 2 5.74948 9.35507 16.1413
191 2 6.55415 10.4763 14.8787
208 1 5.21064 7.70386 11.4784
221 1 9.6877 9.11636 13.8203
222 1 5.64663 9.89171 15.1468
269 3 10.8393 8.03841 16.6093
291 3 4.66722 9.58728 9.14179
383 2 4.90329 7.76733 17.1226
292 3 3.30241 10.4484 11.2151
296 3 7.19062 7.65053 13.8907
297 3 8.59973 7.81673 11.4528
384 2 5.92139 12.4817 8.81745
299 3 4.55617 12.2952 14.6651
300 3 3.58935 10.8368 16.945
301 3 8.2836 11.8478 10.7275
302 3 5.73846 11.396 10.8707
303 3 7.30576 10.0584 12.5037
304 3 6.91663 12.6511 12.9067
319 2 6.30872 11.1013 16.5922
381 2 4.22671 7.55765 15.3996
66 4 9.53481 7.1247 17.0068
174 2 10.9409 7.51662 14.1599
219 1 7.57965 9.19812 8.79812
298 3 2.84389 9.9212 14.5142
358 2 0.919415 13.129 17.2996
ITEM: TIMESTEP
100
ITEM: NUMBER OF ATOMS
386
ITEM: BOX BOUNDS xy xz yz pp pp pp
-7.7893900000000000e+00 1.6722200000000001e+01 -7.4822899999999999e+00
-1.7999999999999999e-02 1.3589000000000000e+01 -3.0709999999999998e-01
0.0000000000000000e+00 1.7316099999999999e+01 -1.7999999999999999e-02
ITEM: ATOMS id type x y z
108 2 -3.01885 5.40223 4.7385
2 2 -0.156111 2.04209 2.00573
234 3 0.501648 5.94795 5.58253
4 2 -0.374729 3.3563 4.10278
5 2 -0.00772962 2.08799 5.42972
6 1 -0.82441 2.54059 4.83814
10 4 -0.579133 2.94578 8.05783
246 3 2.35225 6.54834 1.1276
12 2 -0.143178 3.47162 6.51941
34 4 4.32827 0.879705 3.54077
36 4 4.01533 1.98774 8.26362
326 2 -0.625121 5.06651 2.22574
109 2 -1.50832 5.44247 3.74337
41 4 1.88514 6.07767 4.70314
120 2 4.96663 0.169096 6.77358
327 1 -0.250808 5.01184 1.21005
87 2 2.80361 0.800613 7.54779
7 4 0.395796 3.03866 0.580169
90 2 3.66201 2.42246 3.40245
118 2 4.33693 1.22936 1.25233
197 1 7.77756 0.434378 6.31817
238 3 3.29268 6.32368 5.47524
133 2 3.30856 4.84667 7.45681
322 2 2.98298 2.60932 1.25734
235 3 4.50197 5.06273 0.120164
126 2 5.71838 3.12795 2.87814
127 2 3.92718 3.31763 2.08133
128 2 4.57923 4.69253 3.353
129 2 0.998354 4.66648 2.72303
130 2 1.59482 3.75358 4.39649
131 2 2.92518 4.3199 3.23237
132 2 1.97211 4.03969 8.51383
134 2 1.42851 5.07584 7.09589
37 4 7.14821 1.65 5.03896
324 2 -1.01863 5.18782 0.412144
362 2 5.85821 1.59355 0.516302
8 2 2.05251 3.70101 0.271983
199 1 4.84683 3.81803 2.58885
200 1 1.82962 4.5286 3.6362
201 1 2.23608 4.9055 7.90197
231 3 5.76144 0.962821 4.47767
325 2 0.797103 5.59873 1.12245
236 3 4.77554 2.93761 7.31343
379 1 -3.26696 6.07041 1.05455
192 1 -2.15407 6.04914 4.4268
320 2 1.90852 1.06397 1.12928
321 2 1.74826 2.37317 2.58769
323 1 1.94935 2.21363 1.47318
11 2 0.76676 1.74295 8.32992
195 1 4.87712 0.337529 1.85998
14 2 -0.373855 5.28917 8.453
360 2 7.25017 0.605247 1.2924
122 2 7.61241 0.791368 7.38776
117 2 6.02706 0.219555 1.72256
3 2 -1.50944 3.06499 5.52475
43 4 6.03198 3.80684 6.90789
378 2 -2.25237 5.57438 1.24138
22 3 3.08153 0.0231254 4.02444
160 2 5.13926 0.930913 14.8509
91 2 0.760062 5.84188 9.61466
9 3 -0.461158 2.19784 16.4906
13 2 -1.44995 4.59229 9.88597
156 2 2.52313 6.45572 13.8829
15 2 0.480126 4.02266 9.72825
16 1 -0.548929 4.42927 9.18223
26 4 -1.82402 4.83895 14.2338
23 4 1.26712 0.32115 14.4951
47 4 0.457028 6.36205 15.5515
42 4 3.02526 6.15494 16.8916
85 2 -1.82832 4.72866 12.523
119 2 5.26609 0.298427 8.75209
375 2 -1.5301 3.87712 11.0701
123 2 4.23828 1.45851 10.7778
124 2 3.01687 2.8622 10.1466
125 2 4.96951 3.16264 10.268
232 3 7.35485 0.714058 11.3904
135 2 5.70328 1.71175 13.2999
136 2 4.33384 2.99761 13.6599
137 2 5.66761 2.54354 14.9675
44 4 2.35185 6.25821 9.22033
368 2 3.92769 0.56245 12.4784
198 1 4.13962 2.40843 10.1153
202 1 5.40917 2.67614 13.8522
346 2 1.40173 0.483246 9.84429
241 3 -0.475467 5.5736 14.5665
242 3 2.09566 5.54385 15.7489
243 3 3.45555 5.82388 10.2831
364 2 5.24932 2.94578 16.5702
334 2 0.212651 0.890653 12.3337
335 2 -0.357145 1.73272 13.8701
336 1 -0.174138 0.70649 13.3776
337 2 2.33653 2.57806 14.084
338 2 3.20464 1.42943 15.2375
339 2 1.82274 2.4403 15.7998
340 1 2.23424 1.88484 14.971
363 2 6.60843 1.5745 16.2004
92 2 -0.306973 6.3485 17.122
365 1 6.03823 2.23996 17.0174
244 3 5.29419 5.01402 12.1793
89 2 6.71547 2.42281 9.48122
223 3 -2.1846 3.49004 14.9494
84 2 -3.18839 5.85194 14.5718
377 2 -3.67634 6.2366 17.2495
17 4 -5.75 12.6465 4.3928
342 2 -2.31582 9.46027 2.09397
20 1 -5.64438 10.9056 3.49751
345 2 -6.45474 13.5015 8.02513
349 2 -4.7091 13.3502 0.318777
367 2 -0.400983 13.0095 6.05394
366 2 -3.32765 12.4341 7.75848
28 4 -2.55715 8.37986 8.04043
49 4 2.73065 7.67639 2.24579
50 4 -0.146147 10.9197 4.30203
83 2 -0.661819 8.37194 4.87881
19 2 -4.64466 10.4893 3.17041
111 2 -4.82326 9.11479 6.95463
112 2 -3.31698 8.79883 5.79322
113 2 -3.36134 10.3892 7.00578
138 2 -0.433842 9.90776 2.17882
139 2 -1.6513 8.78303 3.24207
140 2 0.321242 8.55925 3.22471
141 2 -1.35223 11.6052 6.50879
142 2 -2.23352 10.4939 5.05698
143 2 -1.93088 12.4637 4.88578
144 2 0.075304 11.5357 7.30661
102 2 -3.61505 8.59316 0.837989
146 2 -1.37934 12.5778 8.06519
158 2 0.308224 10.8579 0.261567
193 1 -3.68837 9.26188 6.80015
203 1 -0.600756 9.37196 3.17271
204 1 -1.58691 11.5297 5.35787
205 1 -0.335175 11.9774 8.27531
225 3 -1.74158 7.2254 7.11574
329 2 -6.66043 12.8994 6.77382
245 3 1.73888 7.5547 3.49016
110 2 -2.48147 7.0599 3.9388
247 3 0.257109 12.3147 3.25843
248 3 2.83035 9.08062 1.54335
253 3 1.0784 10.6213 5.43969
93 2 1.55593 11.7496 7.8884
330 2 -5.66621 11.2412 6.18226
331 1 -5.73695 12.4699 6.21997
332 2 -4.72962 12.8349 6.74588
25 4 -0.956616 6.82759 5.65167
343 2 -4.23712 10.1412 1.89003
344 1 -3.33304 9.66047 1.31968
376 2 -3.37002 7.03005 1.68992
350 2 -4.67947 11.9518 1.61791
351 2 -6.09385 13.1934 1.72193
352 1 -5.30614 12.6104 1.01192
357 2 -3.18808 12.933 1.83637
341 2 -3.01902 10.3982 0.501477
196 1 -3.10822 13.5189 7.68707
21 3 -7.41226 13.5482 3.79266
250 3 2.51253 7.67082 8.59331
155 2 2.37121 7.26513 12.1509
27 4 -4.83356 9.05481 16.6235
30 4 -3.11962 9.79205 13.9417
31 4 -6.85966 12.0528 17.0464
32 4 -4.55915 12.0525 12.3378
38 4 0.665763 13.2656 12.4037
53 4 -0.561001 10.4334 9.42299
55 4 1.76852 8.74464 13.8779
56 4 -1.26148 12.1886 14.8711
57 4 1.63052 10.5375 11.5109
175 2 -3.80562 7.10606 13.7874
370 2 1.22473 11.044 16.1015
94 2 -0.372604 11.7509 16.3387
318 2 -5.7852 10.5668 16.8829
114 2 -2.58906 7.73657 12.5338
115 2 -2.09519 7.48681 14.3923
116 2 -1.12982 8.68412 13.1995
147 2 -1.21326 10.3519 11.6657
148 2 -2.70726 10.8346 10.6211
149 2 -1.27471 12.1611 10.9945
150 2 -3.60129 13.2875 10.6412
151 2 -2.06838 13.0017 11.8131
159 2 -3.50372 12.9444 15.2456
348 1 -6.81414 13.5203 9.12295
161 2 -2.19867 13.5367 16.5866
194 1 -2.13113 8.20711 13.4658
206 1 -1.58486 11.0142 10.8463
207 1 -3.19309 13.2377 11.791
209 1 2.82387 7.31619 13.2397
211 1 -2.51702 13.4973 15.4661
145 2 0.470354 12.6828 8.75037
224 3 -3.66367 7.65554 9.28537
226 3 -3.99698 9.36535 15.3533
227 3 -6.69727 13.0684 15.8271
228 3 -5.7001 11.9055 11.0661
229 3 -3.88906 10.2564 12.6238
230 3 -5.17236 12.7146 13.6074
259 3 0.972838 9.35514 12.7189
317 2 -4.36312 9.12416 11.4914
255 3 0.790985 7.82283 15.1491
256 3 -2.09972 10.8906 14.5351
257 3 -0.268827 12.8714 13.7579
258 3 0.86241 10.1741 9.97768
369 2 0.811601 9.32198 16.8177
210 1 0.910202 10.4431 17.0339
260 3 1.36618 12.0851 11.7108
157 2 3.99424 7.47499 13.2369
252 3 -1.46248 9.41091 8.66001
35 4 7.78067 3.22183 0.335661
59 4 13.9319 0.940065 7.45024
61 4 12.6015 2.52411 5.27994
354 2 9.79932 1.88306 4.05673
67 4 11.3717 4.3566 7.29883
86 2 7.77671 2.03844 1.68373
40 4 5.57673 5.14533 1.28352
96 2 11.6166 1.75603 4.06984
97 2 13.9639 2.90423 4.28609
58 4 13.2887 0.0171947 2.41469
359 2 9.24879 1.11149 1.36158
121 2 8.85357 0.451056 6.04184
170 2 9.17382 5.54557 3.5212
171 2 7.62601 4.46167 3.14426
172 2 7.92849 5.0455 4.94438
356 1 9.96515 0.843453 3.56371
214 1 13.0865 4.9212 7.96123
215 1 7.98719 5.27879 3.82186
88 2 8.2153 1.6853 3.69246
233 3 7.02823 4.5679 0.885361
270 3 10.8164 3.26716 8.34123
1 4 15.9244 1.20462 3.40036
263 3 12.9502 1.47069 6.38763
267 3 5.73064 6.55346 2.02947
272 3 7.02954 3.75231 8.51482
271 3 11.9244 3.86304 5.6499
361 1 8.39069 0.271785 1.12266
274 3 10.6557 5.80602 7.21554
237 3 6.95692 3.06868 5.72792
308 4 12.4942 2.27943 0.514265
309 4 11.7718 5.19655 1.36873
310 2 10.7927 4.91892 3.79518
239 3 5.63903 5.30811 6.53796
180 2 8.27572 5.83009 6.74866
313 1 11.0993 5.88605 3.1944
314 3 12.3263 1.0005 1.60172
315 3 12.1342 3.64616 1.32746
316 3 10.5579 5.78 0.501204
311 2 10.2705 6.58135 2.88437
386 3 14.4292 0.932354 3.11145
355 2 10.7458 0.893098 2.74706
261 3 14.6837 2.12831 8.2698
218 1 8.00061 6.41871 7.69731
312 2 12.0846 6.39269 3.36345
45 4 5.03312 6.70791 6.06194
100 2 10.2248 6.69326 4.76224
167 2 13.725 4.90248 7.01298
65 4 6.90666 6.78207 3.52429
169 2 13.0136 6.02646 8.41627
39 4 7.75011 2.17815 10.8501
46 4 6.35678 4.13618 13.0129
371 2 11.8248 1.67194 13.562
60 4 10.6095 2.25004 9.53407
63 4 10.0717 2.95428 15.8067
64 4 12.6635 3.73606 11.1629
68 4 7.47281 5.27769 9.13059
70 4 11.0236 5.01088 13.4479
305 4 14.6867 2.21405 15.8986
72 4 9.5261 6.49214 11.1997
99 2 12.7915 4.8074 9.91678
166 2 14.5403 2.92241 12.6593
162 2 10.1436 0.598551 14.7691
163 2 9.14955 2.04633 13.9124
164 2 8.44844 1.02263 15.4536
165 2 14.5337 2.05439 10.8622
95 2 10.8309 0.681267 8.83209
374 2 11.2727 0.0223021 12.6205
333 2 15.613 0.00327167 13.319
307 3 13.9867 0.824383 15.0379
98 2 9.49235 0.63749 12.9943
185 2 12.5551 0.741051 9.63045
212 1 9.34985 1.37569 14.8631
213 1 14.4408 3.07028 11.5187
48 4 4.98947 6.00382 10.901
103 2 5.81868 6.49441 16.0176
240 3 7.37953 3.28473 11.9751
372 2 12.8078 0.985275 12.0344
262 3 9.2049 2.21485 10.34
264 3 11.2377 2.20612 16.5127
265 3 8.79646 3.11218 16.8061
266 3 11.8806 2.49743 10.6575
273 3 6.12644 5.9316 9.77269
275 3 10.4666 4.00096 14.5944
276 3 12.1766 4.48944 12.5263
277 3 6.92915 5.11261 14.2816
373 1 12.1206 0.759363 12.8468
71 4 7.25551 6.41751 15.0131
280 3 8.84548 5.59229 10.0659
281 3 9.7476 5.58268 12.5231
173 2 11.8442 6.32247 15.271
278 3 8.45974 6.48012 15.9235
216 1 11.7872 6.64383 14.1554
306 3 13.6939 2.39867 17.1659
347 2 16.2967 0.25772 9.27829
168 2 13.5796 4.20872 8.66079
33 4 1.61809 12.8184 2.58337
295 3 7.41334 13.2815 6.99024
254 3 3.09689 9.80535 7.01974
358 2 1.06216 13.4253 0.0626949
182 2 6.95666 8.68702 8.33961
385 2 4.38872 13.2915 7.93874
69 4 10.6516 7.1821 6.3611
73 4 8.42396 8.88994 2.00968
74 4 4.69791 11.8079 4.82314
75 4 7.31461 11.3548 0.723889
76 4 9.14832 9.90294 7.73935
78 4 7.55041 12.0319 6.05107
289 3 9.80195 8.38335 6.86762
328 2 10.3424 11.2979 2.65001
18 2 10.5365 10.2411 4.24483
104 2 9.91263 9.5644 2.68097
268 3 5.93462 7.06724 4.81506
107 2 8.29461 12.6048 4.65309
176 2 5.35143 9.49789 4.24499
177 2 4.44504 10.3659 2.83385
178 2 3.46714 9.58036 4.29652
179 2 7.12254 7.08621 7.48921
52 4 3.78417 8.72185 7.97905
288 3 6.53356 12.4882 1.46813
217 1 4.40343 10.1122 3.93937
293 3 6.12295 11.6284 5.56508
294 3 8.37401 10.9051 6.79511
249 3 2.58005 11.7862 1.83053
251 3 4.91765 7.8793 7.16668
51 4 2.79564 10.4788 0.807333
282 3 7.90343 8.02045 3.23839
283 3 8.91921 7.94211 0.809377
284 3 4.88376 12.9274 3.67605
285 3 3.2573 12.0504 5.79761
286 3 8.74837 11.7747 0.326873
287 3 7.46935 10.097 1.58903
101 2 12.2204 7.6258 6.03184
353 2 2.72116 13.5619 4.36603
54 4 2.26621 11.0009 6.47585
181 2 8.91047 7.00596 8.14849
290 3 10.2563 10.5723 8.65444
105 2 4.31243 7.35366 2.72285
24 4 11.9059 8.1603 10.1588
29 4 9.78921 11.8434 9.99531
62 4 5.6676 13.4753 14.0984
184 2 8.13599 8.87471 9.76455
77 4 4.38767 10.8632 10.2281
79 4 8.1103 8.67201 12.9757
80 4 4.09283 10.6455 15.323
81 4 6.98925 11.4147 11.7738
82 2 11.2257 9.39445 9.2592
279 3 10.9356 7.06583 10.7188
106 2 3.76973 12.2876 9.31404
152 2 5.9605 8.21775 10.5985
153 2 5.54761 7.99486 12.3975
154 2 4.11247 8.27075 11.1976
384 2 6.05402 12.7147 8.91289
382 1 4.22173 7.62332 16.3244
183 2 7.24773 10.3928 9.11829
186 2 9.56723 10.3009 13.8541
187 2 10.5237 8.98111 12.9195
188 2 10.0912 8.71518 14.8285
189 2 5.44623 9.13591 14.0681
190 2 6.17781 9.30236 15.9374
191 2 6.24782 10.8007 14.65
208 1 5.19276 7.84415 11.3649
221 1 9.80539 9.17819 13.7755
222 1 5.72201 9.81748 14.9956
269 3 10.7117 7.99215 16.5171
291 3 4.52285 9.66493 9.20334
383 2 5.03645 7.70052 17.1004
292 3 3.27109 10.4288 11.2787
296 3 7.28492 7.70196 14.1163
297 3 8.5308 7.86306 11.571
220 1 5.18527 13.5258 8.73576
299 3 4.49907 12.3646 14.7117
300 3 3.76537 10.6358 16.9918
301 3 8.33311 11.738 10.8164
302 3 5.7099 11.3425 10.8752
303 3 7.34083 10.0198 12.4352
304 3 6.78593 12.5549 12.8868
319 2 6.22661 10.8839 16.6276
381 2 4.57758 7.49596 15.2086
66 4 9.41446 6.99968 17.0896
174 2 11.0236 7.55149 14.0091
219 1 7.71952 9.3532 8.81796
298 3 2.98837 9.73854 14.4695
380 2 3.50163 8.44874 16.4199
ITEM: TIMESTEP
200
ITEM: NUMBER OF ATOMS
386
ITEM: BOX BOUNDS xy xz yz pp pp pp
-7.7893900000000000e+00 1.6722200000000001e+01 -7.4822899999999999e+00
-1.7999999999999999e-02 1.3589000000000000e+01 -3.0709999999999998e-01
0.0000000000000000e+00 1.7316099999999999e+01 -1.7999999999999999e-02
ITEM: ATOMS id type x y z
108 2 -3.13343 5.68358 4.8644
2 2 -0.193489 2.23811 2.044
234 3 0.571911 6.04659 5.8635
4 2 -0.5554 3.34752 4.21614
5 2 -0.24422 1.71684 5.60153
6 1 -1.07396 2.46811 4.97739
10 4 -0.603354 2.94483 8.29502
246 3 2.22904 6.52186 0.925961
12 2 -0.327344 3.31565 6.62085
34 4 4.22894 0.875618 3.63945
36 4 4.06377 1.94725 8.30069
326 2 -0.65386 4.77216 2.1155
109 2 -1.29883 4.9261 4.53518
41 4 1.99183 6.32799 4.63929
120 2 4.94027 0.0165032 6.82774
327 1 -0.182741 4.92036 1.05328
87 2 2.83128 0.747529 7.69143
7 4 0.449815 3.11951 0.50752
90 2 3.5696 2.49391 3.32742
118 2 4.32368 1.08651 1.39238
197 1 7.70313 0.383217 6.10199
238 3 3.40838 6.31634 5.27571
133 2 3.46899 4.93298 7.76822
322 2 3.12934 2.57936 1.51015
110 2 -1.95671 6.52383 3.64015
126 2 5.47665 2.91322 2.71381
127 2 3.8274 3.65408 2.06889
128 2 4.77129 4.37829 3.63194
129 2 1.13375 4.93005 2.64276
130 2 1.35408 4.13406 4.36855
131 2 2.943 4.4147 3.31009
21 3 0.147918 0.098059 3.92614
134 2 1.58092 5.2637 7.14511
37 4 7.05232 1.70344 4.97203
324 2 -0.958026 5.18438 0.195144
362 2 5.75198 1.5657 0.554114
8 2 2.21781 3.59978 0.274689
199 1 4.81771 3.82869 2.6671
200 1 1.86564 4.81777 3.57262
201 1 2.29557 4.85312 8.00459
231 3 5.55207 1.16559 4.3512
325 2 0.777793 5.65666 1.12851
236 3 4.68389 2.89315 7.24033
379 1 -3.2459 6.25139 1.33159
192 1 -2.05206 5.91225 4.57354
320 2 2.01719 1.13915 1.23836
321 2 1.6021 2.46946 2.59859
323 1 1.99797 2.29551 1.54857
11 2 0.733019 1.80207 8.60191
195 1 4.99886 0.320767 1.99545
14 2 -0.388469 5.20899 8.56902
360 2 7.23826 0.686346 1.11171
378 2 -2.32423 5.60682 1.22024
117 2 6.15038 0.426668 1.94153
122 2 7.53233 0.931996 7.12744
43 4 5.99233 3.76247 6.9371
345 2 0.602771 0.0370193 7.98023
132 2 1.94788 3.8907 8.58447
160 2 5.13893 1.05397 14.7569
91 2 0.661823 5.94738 9.54987
9 3 -0.423498 2.47598 16.4343
13 2 -1.44344 4.57395 10.2073
156 2 2.29409 6.37169 13.4431
15 2 0.37473 3.98471 10.1077
16 1 -0.525462 4.34895 9.5001
26 4 -1.91673 4.90024 14.3401
23 4 1.33538 0.162949 14.3931
47 4 0.422202 6.40499 15.5931
42 4 3.10784 6.01964 16.9108
85 2 -1.81539 4.54313 12.6528
223 3 -2.2122 3.64061 15.1377
375 2 -1.39386 3.65245 11.3233
123 2 4.293 1.37152 10.7763
124 2 3.09933 2.85894 10.0923
125 2 4.93367 3.15281 10.4236
232 3 7.3912 0.622136 11.2968
135 2 5.23876 1.97449 13.3653
136 2 4.18125 3.51332 13.9222
137 2 5.58904 2.71604 15.1285
44 4 2.31918 6.31122 9.20246
368 2 3.94886 0.597757 12.1961
198 1 4.20801 2.38715 10.1055
202 1 5.20635 2.89625 13.9832
346 2 1.42004 0.375346 9.69485
241 3 -0.57785 5.6034 14.7074
242 3 1.88439 5.61726 15.657
243 3 3.26359 6.0601 10.4357
364 2 5.09804 2.94843 16.5684
334 2 0.377958 0.591343 12.1921
335 2 -0.31551 1.58518 13.7411
336 1 -0.114731 0.555321 13.1695
337 2 2.43773 2.53889 14.4043
338 2 3.43719 1.13609 15.1143
339 2 2.04516 1.95869 16.1421
340 1 2.35125 1.6969 15.0932
363 2 6.55914 1.80708 16.1297
92 2 -0.229746 6.46393 17.2044
365 1 5.90245 2.29211 17.0054
244 3 5.26352 5.0507 12.2499
84 2 -3.25434 5.91676 14.4795
89 2 6.7659 2.55007 9.51724
119 2 5.18615 0.0881756 8.8351
235 3 4.20198 4.96701 17.2991
17 4 -5.76722 12.5507 4.49161
342 2 -2.40996 9.6956 1.93021
20 1 -5.71765 10.8615 3.67631
377 2 -3.39139 6.86193 0.461589
349 2 -4.49516 13.3271 0.492349
367 2 -0.639516 13.055 5.91392
366 2 -3.4328 12.3099 7.85341
28 4 -2.48044 8.16338 8.00382
49 4 2.66754 7.68967 2.00409
50 4 -0.182584 10.9403 4.31465
83 2 -0.782228 8.38269 4.7598
19 2 -4.63269 10.5799 3.20062
111 2 -4.78169 9.09549 6.80566
112 2 -3.14908 8.80685 5.70194
113 2 -3.15424 10.1505 6.9779
138 2 -0.642022 9.94779 2.08152
139 2 -1.56902 9.01645 3.3724
140 2 0.278865 8.64203 3.14156
141 2 -1.3106 11.6249 6.54117
142 2 -2.2184 10.373 5.16054
143 2 -2.28706 12.3336 4.98559
144 2 0.123258 11.6439 7.14155
102 2 -3.45665 8.80494 0.48005
146 2 -1.31008 12.522 7.97093
158 2 0.546785 11.2254 0.297949
193 1 -3.60149 9.11123 6.7751
203 1 -0.612098 9.40888 3.12009
204 1 -1.67676 11.4204 5.40204
205 1 -0.252323 12.0379 8.15373
225 3 -1.74055 7.06774 7.07716
329 2 -6.79599 12.8932 6.82673
245 3 1.67777 7.57683 3.34524
358 2 0.887109 13.1611 0.128965
247 3 0.147035 12.2417 3.32163
248 3 2.8461 9.05963 1.36088
253 3 0.997438 10.707 5.40045
105 2 4.22555 7.25307 2.50803
330 2 -5.90623 11.2257 6.35159
331 1 -5.76986 12.3462 6.33909
332 2 -4.74926 12.7298 6.87409
25 4 -0.913377 6.88349 5.68718
343 2 -4.39139 9.81948 1.96243
344 1 -3.44325 9.77861 1.29251
93 2 1.70082 11.8309 7.83432
350 2 -4.79265 11.862 1.64393
351 2 -6.01687 13.34 1.7631
352 1 -5.26 12.7007 1.08243
357 2 -2.85271 12.8484 1.94116
341 2 -3.32132 10.785 0.738487
196 1 -3.11799 13.3973 7.80718
252 3 -1.48781 9.28648 8.60833
250 3 2.63603 7.5944 8.40622
22 3 -4.39529 13.4341 4.1334
376 2 -3.30461 6.83903 2.28522
145 2 0.471592 12.7582 8.56551
155 2 2.6058 7.54955 12.1051
27 4 -4.99115 9.10006 16.5336
30 4 -3.176 9.772 13.9288
31 4 -6.8175 12.1613 17.1206
32 4 -4.57246 12.0713 12.2583
38 4 0.675506 13.2379 12.3716
53 4 -0.53608 10.4211 9.38493
55 4 1.75556 8.754 13.9257
56 4 -1.1739 12.2058 14.7272
57 4 1.66594 10.4588 11.4829
175 2 -3.918 7.22351 13.7374
370 2 0.900715 10.6936 15.8504
94 2 -0.239771 11.941 16.2024
318 2 -5.90814 10.5949 16.9369
114 2 -2.68559 7.77524 12.5105
115 2 -2.03343 7.63039 14.3336
116 2 -1.17527 8.69667 13.096
147 2 -0.984546 10.3597 11.6555
148 2 -2.64399 10.8117 10.7169
149 2 -1.30154 12.1191 10.9267
150 2 -3.30945 13.1614 10.5476
151 2 -2.14594 12.8371 12.0726
159 2 -3.3965 12.8828 14.8086
348 1 -6.94734 13.5139 9.16084
157 2 3.89878 7.29366 13.4401
194 1 -2.12651 8.26022 13.3643
206 1 -1.50604 11.019 10.8117
207 1 -3.178 13.1934 11.7045
209 1 2.7733 7.32725 13.1902
211 1 -2.44798 13.4902 15.2334
82 2 -5.36214 9.43596 9.24489
224 3 -3.51683 7.6002 9.33035
226 3 -4.12935 9.34412 15.2265
227 3 -6.60391 12.9689 15.7439
228 3 -5.56413 12.005 10.9841
229 3 -3.98987 10.2327 12.6904
230 3 -5.27194 12.9937 13.3585
259 3 1.09826 9.51497 12.7084