ITEM: TIMESTEP
0
ITEM: NUMBER OF ATOMS
386
ITEM: BOX BOUNDS xy xz yz pp pp pp
-7.4803389999999998e+00 1.6722200000000001e+01 -7.3464000000000000e+00
-1.7999999999999999e-02 1.3589000000000000e+01 -1.3393899999999997e-01
0.0000000000000000e+00 1.7316099999999999e+01 -1.7999999999999999e-02
ITEM: ATOMS id type x y z
108 2 -3.13046 5.94735 5.18468
2 2 -0.136798 2.04241 1.9455
234 3 0.629145 6.02156 5.74231
4 2 -0.149965 3.25435 4.16128
5 2 0.0615229 1.64181 5.47077
6 1 -0.763823 2.50101 4.86796
10 4 -0.213442 2.95024 8.11072
246 3 2.33232 6.49171 1.0686
12 2 0.24436 3.17942 6.45518
34 4 4.3919 0.956569 3.47078
36 4 4.10703 1.98463 8.25154
326 2 -0.537167 4.61781 2.12396
109 2 -1.74574 5.18177 3.99688
41 4 2.01541 6.09338 4.67041
21 3 0.216634 0.0122665 3.91941
327 1 -0.1512 4.87918 1.0772
87 2 2.78503 0.972224 7.57537
7 4 0.392533 2.96308 0.512024
90 2 3.72013 2.55795 3.31088
118 2 4.50322 0.988697 1.21955
197 1 7.68089 0.375789 6.29653
238 3 3.56564 6.17235 5.32775
133 2 3.38724 4.84086 7.20035
322 2 3.16359 2.78484 1.12974
235 3 4.51712 5.03798 0.0723624
126 2 5.8106 3.03301 2.74767
127 2 4.08288 3.38494 1.98362
128 2 4.8588 4.29973 3.53788
129 2 1.19107 4.75084 2.55702
130 2 1.61716 3.86343 4.36517
131 2 3.22229 4.40351 3.15269
132 2 2.03948 3.9654 8.19656
134 2 1.58942 5.36633 7.03334
37 4 7.14175 1.72265 5.08231
324 2 -0.947853 5.18148 0.410962
362 2 6.01608 1.43764 0.36883
120 2 4.91035 0.00431271 6.96253
199 1 5.02871 3.79867 2.5539
200 1 2.04131 4.63632 3.53021
201 1 2.37566 4.90288 7.70527
231 3 5.81481 1.18667 4.45166
325 2 0.84635 5.55034 1.08821
236 3 4.86229 2.99675 7.3069
376 2 -3.05461 6.53198 1.61753
192 1 -2.15409 6.1103 4.57006
320 2 2.19685 1.15633 1.33181
321 2 1.82028 2.42969 2.54742
323 1 2.15405 2.24766 1.49343
11 2 0.998766 1.79392 8.59608
195 1 5.12212 0.301458 1.89124
14 2 -0.368066 5.24702 8.22181
360 2 7.39694 0.33975 1.02365
122 2 7.50101 0.659277 7.4087
117 2 6.28666 0.419795 1.7963
3 2 -1.3456 3.01186 5.70272
43 4 6.15133 3.84777 6.89548
378 2 -2.54067 5.18974 0.266979
160 2 5.24407 0.916055 14.9017
91 2 0.845433 5.88693 9.32822
9 3 -0.389562 2.26235 16.538
13 2 -1.44712 4.63145 9.82588
156 2 2.66889 6.31045 13.7941
15 2 0.526581 4.29191 9.78248
16 1 -0.491888 4.47725 9.13227
26 4 -1.65194 4.67352 14.2463
23 4 1.48587 0.265611 14.3571
47 4 0.74134 6.40379 15.4515
42 4 3.23505 6.05275 17.0128
85 2 -1.89179 4.74824 12.556
119 2 5.34232 0.325665 8.99016
375 2 -1.3869 3.84749 11.051
123 2 4.17982 1.4089 10.7308
124 2 2.95949 2.85489 10.0076
125 2 4.82177 3.1576 10.4446
232 3 7.42313 0.723813 11.3477
135 2 6.01667 1.69499 13.2409
136 2 4.67006 2.96852 13.5484
137 2 5.90239 2.36009 15.003
44 4 2.50425 6.18806 9.08601
368 2 3.85891 0.5149 12.3827
198 1 4.06337 2.38361 10.1023
202 1 5.68204 2.58818 13.8752
346 2 1.65368 0.436872 9.44274
241 3 -0.462028 5.6468 14.7275
242 3 2.07612 5.61203 15.5643
243 3 3.4545 5.72886 10.2672
364 2 5.63414 2.99946 16.696
334 2 0.611078 1.14177 12.1394
335 2 -0.222192 1.93866 13.6251
336 1 0.0197704 1.04557 13.0576
337 2 2.56507 2.49936 13.8935
338 2 3.45122 1.37751 15.1711
339 2 1.92661 2.39604 15.6361
340 1 2.42857 1.83712 14.8154
363 2 6.84283 1.60565 16.0915
92 2 0.0191261 6.30305 17.0238
365 1 6.36513 2.13076 16.995
244 3 5.52631 4.82905 12.1528
347 2 -0.259657 0.442142 9.512
223 3 -1.77157 3.20999 14.7125
8 2 1.88664 3.3848 17.2863
17 4 -5.42152 12.678 4.4166
342 2 -2.07008 9.59701 2.0282
20 1 -5.53693 10.9489 3.44398
349 2 -4.53298 13.4969 0.401223
105 2 4.35882 7.06037 2.79569
367 2 -0.265747 12.9739 5.9861
366 2 -3.35338 12.4968 8.07595
28 4 -2.3838 8.37212 8.05146
49 4 2.84022 7.56366 2.22532
50 4 0.105048 11.0194 4.30002
83 2 -0.505184 8.42626 4.82776
19 2 -4.62771 10.7763 2.79242
111 2 -4.76448 9.04809 7.16815
112 2 -3.12735 9.11029 5.92581
113 2 -3.41966 10.4787 7.17609
138 2 -0.338584 9.9652 2.20128
139 2 -1.38893 8.96951 3.27037
140 2 0.511252 8.70244 3.32585
141 2 -1.62042 11.2706 6.23885
142 2 -2.11353 10.6665 4.51759
143 2 -1.76892 12.5519 4.92093
144 2 0.122236 11.5685 7.28628
102 2 -3.18467 8.71261 0.407914
146 2 -1.19978 12.598 8.15225
158 2 0.851902 11.1838 0.498006
193 1 -3.55167 9.36911 6.9517
203 1 -0.390913 9.43896 3.14492
204 1 -1.50337 11.4804 5.17103
205 1 -0.192246 12.0431 8.29877
225 3 -1.74441 7.21144 7.01518
329 2 -6.52312 12.8471 6.65214
245 3 1.90359 7.47403 3.61084
110 2 -2.24903 7.07062 3.81115
247 3 0.6151 12.1616 3.35298
248 3 3.05367 8.98024 1.55027
253 3 1.24082 10.7064 5.48196
93 2 1.72343 11.6053 7.98438
330 2 -5.41801 11.184 6.13143
331 1 -5.47308 12.4584 6.21714
332 2 -4.46497 12.8543 6.82429
25 4 -0.877456 6.89156 5.62247
343 2 -4.05485 9.75555 1.89678
344 1 -3.13691 9.7107 1.25046
22 3 -4.0467 13.502 4.0133
350 2 -4.59537 11.8828 1.29206
351 2 -5.99844 13.0948 1.68341
352 1 -5.20419 12.7256 0.931211
357 2 -2.5407 12.8003 1.85543
341 2 -2.9982 10.6595 0.695164
196 1 -2.98862 13.574 7.96542
345 2 -6.83452 13.2775 7.91546
155 2 2.73288 7.21306 12.1182
27 4 -4.55822 9.16158 16.5227
30 4 -2.80001 9.62055 13.9657
31 4 -6.5651 12.052 16.9767
32 4 -4.52926 11.9475 12.3316
38 4 0.75203 13.3545 12.4409
53 4 -0.457911 10.5722 9.5187
55 4 2.09081 8.78323 13.8645
56 4 -0.822612 12.1958 14.8743
57 4 1.8014 10.569 11.4852
175 2 -3.55826 7.06071 13.9924
370 2 1.6291 10.6657 16.1975
94 2 0.317551 11.7295 16.103
318 2 -5.53695 10.6084 16.7279
114 2 -2.40574 7.77207 12.4649
115 2 -1.99065 7.24942 14.3709
116 2 -0.793962 8.43314 13.5019
147 2 -1.25374 10.1245 11.6312
148 2 -2.67027 11.0108 10.8188
149 2 -1.24762 12.0264 11.4386
150 2 -3.43398 13.1576 10.6751
151 2 -2.0467 12.9335 12.1138
159 2 -3.20451 12.8396 15.1083
252 3 -1.38803 9.51976 8.72607
161 2 -1.96805 13.3653 16.5406
194 1 -1.87628 8.03719 13.5135
206 1 -1.61175 11.0135 11.001
207 1 -3.15233 13.1527 11.8163
209 1 3.02796 7.26829 13.2339
211 1 -2.21862 13.3749 15.3933
380 2 3.42488 8.39469 16.6866
224 3 -3.45959 7.68836 9.31461
226 3 -3.8321 9.2401 15.1249
227 3 -6.47972 13.0426 15.7021
228 3 -5.64025 11.9244 11.193
229 3 -3.68291 10.2382 12.6919
230 3 -5.03574 12.8035 13.5571
259 3 1.40091 9.48716 12.6661
317 2 -4.15927 9.09256 11.552
255 3 0.995828 7.95893 15.043
256 3 -1.57533 10.8862 14.4611
257 3 -0.0385683 12.991 13.743
258 3 0.960473 10.1621 10.0019
250 3 2.8472 7.66121 8.71846
348 1 -6.68602 13.5696 9.10658
260 3 1.49341 12.0661 11.929
145 2 0.618997 12.7046 8.69186
210 1 1.2118 10.3527 17.2299
157 2 4.12669 7.39409 13.3303
369 2 0.540602 9.42973 17.1629
35 4 7.8547 3.22848 0.459384
59 4 13.9698 0.845824 7.40784
61 4 12.673 2.59359 5.2981
354 2 9.93913 1.71093 4.37997
67 4 11.5869 4.52774 7.24147
86 2 7.96999 1.90895 1.63246
40 4 5.73431 5.16668 1.37872
96 2 11.7619 1.79205 4.06455
97 2 14.1117 3.10048 4.5319
379 1 13.3896 5.94364 0.577376
359 2 9.28641 1.01477 1.00786
121 2 8.84299 0.45758 5.98203
170 2 9.27244 5.56075 3.74489
171 2 7.47908 4.68868 3.44051
172 2 7.9387 5.26939 5.24569
356 1 10.055 0.830151 3.69277
214 1 13.3657 4.88528 8.02627
215 1 8.10368 5.44957 4.08732
88 2 8.35541 1.73081 3.77682
233 3 7.13734 4.60762 1.02229
270 3 11.0025 3.46879 8.37667
167 2 13.9081 4.96115 7.01471
263 3 13.0776 1.46044 6.2611
267 3 5.80364 6.4461 2.23662
272 3 7.39426 3.82093 8.39876
271 3 11.851 3.77446 5.78425
361 1 8.49278 0.121841 0.910406
274 3 10.7261 5.96393 7.00646
237 3 7.04094 3.18558 5.72573
308 4 12.5038 2.31667 0.583017
309 4 11.7819 5.30802 1.40461
310 2 10.8566 4.89367 3.66362
239 3 5.80396 5.32682 6.5521
180 2 8.35743 6.07077 6.74986
313 1 11.261 5.8524 3.34329
314 3 12.3111 1.06464 1.57619
315 3 12.0033 3.80375 1.52328
316 3 10.577 5.88796 0.507638
311 2 10.4911 6.71256 3.1063
386 3 14.3922 0.768592 3.24985
355 2 10.8027 0.980818 2.91064
261 3 15.0919 2.13107 8.16673
218 1 8.05295 6.54288 7.70004
168 2 13.7239 4.04144 8.6381
45 4 5.00742 6.5837 5.97539
312 2 12.174 6.12337 3.95381
1 4 15.9163 1.19202 3.42869
169 2 13.4093 5.86952 8.57621
306 3 13.9937 2.61219 0.106509
39 4 7.92817 2.23573 10.8345
46 4 6.63718 4.03815 12.9979
371 2 12.4318 1.82555 13.701
60 4 10.7125 2.3138 9.45532
63 4 10.2054 2.82982 15.8458
64 4 12.7001 3.67591 11.1521
68 4 7.70841 5.27276 9.07961
70 4 11.1077 5.057 13.6075
305 4 14.7247 2.16499 15.9259
72 4 9.73629 6.52631 11.257
99 2 12.6676 4.95437 9.88105
166 2 14.6831 2.90595 12.5418
162 2 10.2103 0.868971 14.5323
163 2 9.04045 2.19392 13.7694
164 2 8.50072 1.11573 15.2598
165 2 14.4112 2.14325 10.8456
377 2 12.9785 6.6397 17.1157
374 2 11.31 0.430392 12.8453
333 2 15.8802 0.271609 13.0146
307 3 14.1803 0.758657 15.3238
98 2 9.54663 0.609226 12.8916
185 2 12.3962 0.339562 9.57122
212 1 9.27565 1.53666 14.6196
213 1 14.5144 3.1361 11.4535
48 4 5.18089 5.98969 10.8636
89 2 6.85935 2.81145 9.58648
240 3 7.79229 3.23057 12.161
372 2 13.0608 0.830564 12.0749
262 3 9.39259 2.15312 10.2115
264 3 11.3237 1.97494 16.5832
265 3 8.8994 3.21995 16.7623
266 3 11.9414 2.46708 10.5603
273 3 6.34629 5.84169 9.76264
275 3 10.7426 4.1656 14.8479
276 3 12.1472 4.30786 12.5948
277 3 7.22679 5.06347 14.3523
373 1 12.3282 0.86952 13.0487
71 4 7.33865 6.55083 14.9655
280 3 8.96472 5.43629 10.1457
281 3 9.92114 5.77952 12.7635
173 2 12.0511 6.27053 15.4516
278 3 8.67045 6.65152 15.867
216 1 12.0061 6.61952 14.3158
103 2 5.92711 6.73233 15.9364
84 2 13.6177 5.50612 14.6664
95 2 11.0951 0.829999 8.68658
33 4 1.83793 12.9612 2.50213
295 3 7.6139 13.3056 6.86394
65 4 7.00645 6.96402 3.72664
100 2 10.3275 6.96704 4.71185
182 2 7.00241 8.58862 8.22953
385 2 4.70581 13.2175 7.76095
69 4 10.8316 7.27018 6.29949
73 4 8.51298 8.84251 1.94737
74 4 4.98317 11.6587 4.79582
75 4 7.40927 11.3077 0.79533
76 4 9.13871 9.8149 7.67515
78 4 7.78856 11.9963 5.94707
289 3 10.0526 8.47739 6.95162
58 4 5.93254 13.5222 2.46858
18 2 10.9408 10.0819 4.08022
104 2 9.86206 9.73198 2.67702
268 3 6.06362 7.3541 4.8824
107 2 8.76667 12.4065 4.5536
176 2 4.87193 9.15755 4.47102
177 2 5.07075 10.1481 2.90638
178 2 3.39527 10.0662 3.63253
179 2 7.09618 7.11312 7.61408
52 4 4.00613 8.68475 7.98686
288 3 6.65858 12.4738 1.49452
217 1 4.52438 10.0905 3.86698
293 3 6.33986 11.422 5.49522
294 3 8.75987 10.8391 6.55379
249 3 2.80188 11.7193 1.90344
251 3 5.05586 7.6976 7.27496
51 4 3.00025 10.4914 0.862289
282 3 8.11803 7.93612 3.14569
283 3 9.10504 8.04761 0.752412
284 3 5.07774 12.802 3.61994
285 3 3.56908 11.9337 6.09775
286 3 8.87725 11.6902 0.306049
287 3 7.34042 9.89428 1.4741
220 1 5.46565 13.4087 8.6432
353 2 2.91353 13.4572 4.4112
54 4 2.4134 10.9591 6.54473
181 2 8.92055 7.20298 8.12029
254 3 3.23111 9.6721 6.83892
328 2 10.2331 11.4593 2.79968
101 2 12.4171 7.75809 5.90449
24 4 12.102 8.1454 10.1992
29 4 9.97471 11.9517 10.1217
62 4 5.93312 13.2516 14.1059
184 2 8.13452 8.67993 9.771
77 4 4.66914 10.7572 10.1602
79 4 8.23525 8.60011 12.8785
80 4 4.25215 10.822 15.2332
81 4 7.28235 11.49 11.7214
82 2 11.2704 9.41979 9.41866
279 3 11.1392 7.04731 10.6402
106 2 4.04716 12.1051 9.25817
152 2 6.13118 8.26082 10.7838
153 2 5.81152 7.60547 12.5443
154 2 4.36302 8.2106 11.4141
290 3 10.1532 10.5571 8.94674
382 1 4.23573 7.63074 16.4576
183 2 7.29487 10.2627 9.02861
186 2 9.7647 10.2193 13.8925
187 2 10.7336 8.77005 13.0896
188 2 9.98341 8.61131 14.7806
189 2 5.59759 9.0792 14.3497
190 2 6.00461 9.35507 16.1413
191 2 6.80786 10.4763 14.8787
208 1 5.40258 7.70386 11.4784
221 1 9.91721 9.11636 13.8203
222 1 5.89717 9.89171 15.1468
269 3 11.086 8.03841 16.6093
291 3 4.8546 9.58728 9.14179
383 2 5.15237 7.76733 17.1226
292 3 3.51917 10.4484 11.2151
296 3 7.40618 7.65053 13.8907
297 3 8.79255 7.81673 11.4528
384 2 6.13447 12.4817 8.81745
299 3 4.82593 12.2952 14.6651
300 3 3.86734 10.8368 16.945
301 3 8.50947 11.8478 10.7275
302 3 5.96124 11.396 10.8707
303 3 7.53151 10.0584 12.5037
304 3 7.17234 12.6511 12.9067
319 2 6.58583 11.1013 16.5922
381 2 4.45644 7.55765 15.3996
66 4 9.77631 7.1247 17.0068
174 2 11.1578 7.51662 14.1599
219 1 7.7597 9.19812 8.79812
298 3 3.08839 9.9212 14.5142
358 2 1.22388 13.129 17.2996
ITEM: TIMESTEP
100
ITEM: NUMBER OF ATOMS
386
ITEM: BOX BOUNDS xy xz yz pp pp pp
-7.4803389999999998e+00 1.6722200000000001e+01 -7.3464000000000000e+00
-1.7999999999999999e-02 1.3589000000000000e+01 -1.3393899999999997e-01
0.0000000000000000e+00 1.7316099999999999e+01 -1.7999999999999999e-02
ITEM: ATOMS id type x y z
108 2 -2.92938 5.42028 4.73774
2 2 -0.110799 2.0316 1.9983
234 3 0.61366 5.93689 5.59767
4 2 -0.277309 3.33069 4.09368
5 2 0.0237975 2.05875 5.42221
6 1 -0.773522 2.53519 4.8272
10 4 -0.476034 2.94608 8.0337
246 3 2.42509 6.5606 1.13851
12 2 -0.085086 3.47371 6.47538
34 4 4.38344 0.882142 3.54611
36 4 4.11743 1.98419 8.27879
326 2 -0.547905 5.04474 2.25025
109 2 -1.4084 5.43157 3.74662
41 4 2.0024 6.07233 4.70003
43 4 6.1587 3.79519 6.90939
327 1 -0.181713 5.02272 1.22259
87 2 2.84865 0.807359 7.52726
7 4 0.434716 3.03685 0.581043
90 2 3.71061 2.42566 3.39315
118 2 4.38253 1.21107 1.28118
197 1 7.85648 0.4253 6.31045
238 3 3.41029 6.30858 5.4707
133 2 3.42729 4.89044 7.47302
322 2 3.02137 2.58083 1.27439
235 3 4.56013 5.08642 0.115458
126 2 5.79503 3.10871 2.85653
127 2 3.99613 3.31195 2.06168
128 2 4.65263 4.67122 3.34014
129 2 1.07671 4.67587 2.72571
130 2 1.64849 3.72564 4.36631
131 2 2.99619 4.29221 3.22213
132 2 2.09841 4.03871 8.501
134 2 1.55236 5.07607 7.09651
37 4 7.19341 1.64647 5.03054
324 2 -0.958916 5.22026 0.434903
362 2 5.89361 1.58275 0.519694
8 2 2.08327 3.66428 0.254011
199 1 4.90981 3.8044 2.57494
200 1 1.90854 4.53187 3.63583
201 1 2.34647 4.91286 7.89793
231 3 5.78974 0.9649 4.47513
325 2 0.869161 5.61352 1.1416
236 3 4.89871 2.93454 7.33435
379 1 -3.18798 6.05214 1.02233
192 1 -2.04609 6.04749 4.42621
320 2 1.93228 1.05865 1.14457
321 2 1.74999 2.37467 2.59834
323 1 1.9741 2.20408 1.48132
11 2 0.832921 1.73053 8.27119
195 1 4.91891 0.326838 1.85965
14 2 -0.255093 5.27951 8.45228
360 2 7.27961 0.622429 1.30234
122 2 7.7027 0.753862 7.39132
117 2 6.03567 0.157197 1.6422
3 2 -1.4418 3.09101 5.49114
22 3 3.12639 0.0182491 4.01774
378 2 -2.16358 5.6224 1.1708
120 2 5.00992 0.196435 6.74172
160 2 5.28895 0.949103 14.8551
91 2 0.914481 5.81855 9.6017
9 3 -0.264167 2.20255 16.4962
13 2 -1.30822 4.57735 9.90192
156 2 2.76488 6.44311 13.9039
15 2 0.633729 4.00089 9.69417
16 1 -0.406909 4.41531 9.17614
26 4 -1.61036 4.83304 14.2475
23 4 1.40831 0.326203 14.5005
47 4 0.671974 6.35644 15.5517
42 4 3.25148 6.15085 16.8814
85 2 -1.61011 4.68515 12.5519
119 2 5.29594 0.355515 8.82708
375 2 -1.34036 3.88739 11.0982
123 2 4.34954 1.44099 10.7765
124 2 3.13213 2.83728 10.091
125 2 5.08206 3.17177 10.2386
232 3 7.47445 0.725656 11.4046
135 2 5.8213 1.72181 13.2913
136 2 4.486 3.04813 13.6723
137 2 5.81229 2.5234 14.9634
44 4 2.50654 6.26066 9.22259
368 2 4.03454 0.551779 12.4577
198 1 4.24501 2.40179 10.1037
202 1 5.57452 2.69102 13.8546
346 2 1.5191 0.456244 9.84563
241 3 -0.251134 5.57063 14.582
242 3 2.31633 5.53193 15.7441
243 3 3.60582 5.82203 10.2856
364 2 5.48004 2.97929 16.6229
334 2 0.25025 0.870655 12.2929
335 2 -0.277956 1.74848 13.8351
336 1 -0.0579627 0.707416 13.3539
337 2 2.4852 2.55936 14.0229
338 2 3.38392 1.35849 15.2191
339 2 1.95647 2.43533 15.7948
340 1 2.39865 1.89234 14.9533
363 2 6.73781 1.56919 16.1748
92 2 -0.0654998 6.3439 17.1266
365 1 6.23963 2.23721 17.0153
244 3 5.4543 5.02875 12.1892
84 2 -2.99149 5.8463 14.5619
223 3 -1.97834 3.49331 14.9599
377 2 -3.41754 6.31191 17.2589
89 2 6.84067 2.48221 9.48912
17 4 -5.57783 12.66 4.4073
342 2 -2.16629 9.4525 2.09463
20 1 -5.52201 10.9112 3.48238
345 2 -6.25669 13.4905 8.01748
349 2 -4.54752 13.3218 0.385886
367 2 -0.121865 13.0503 6.08226
366 2 -3.12514 12.4731 7.74879
28 4 -2.39482 8.37913 8.05609
49 4 2.81968 7.68073 2.2576
50 4 -0.00323176 10.9322 4.31131
83 2 -0.502808 8.36312 4.88578
19 2 -4.49729 10.4842 3.17774
111 2 -4.65883 9.1543 6.97202
112 2 -3.19939 8.84901 5.79042
113 2 -3.17066 10.391 7.05222
138 2 -0.307122 9.97322 2.20799
139 2 -1.52167 8.79547 3.22607
140 2 0.420244 8.58098 3.22179
141 2 -1.17782 11.6105 6.50755
142 2 -2.07267 10.4954 5.06589
143 2 -1.78795 12.4613 4.91109
144 2 0.252026 11.6105 7.25569
102 2 -3.47053 8.58406 0.810191
146 2 -1.21644 12.6151 8.06201
158 2 0.471266 10.9201 0.317705
193 1 -3.52689 9.28046 6.80907
203 1 -0.498174 9.38636 3.17703
204 1 -1.42954 11.534 5.36512
205 1 -0.139257 11.9842 8.25657
225 3 -1.6094 7.23057 7.1168
329 2 -6.50977 12.9008 6.73773
245 3 1.824 7.56927 3.50193
110 2 -2.35815 7.06258 3.94574
247 3 0.408331 12.3189 3.27054
248 3 2.93557 9.07474 1.55459
253 3 1.24224 10.6177 5.43246
93 2 1.75428 11.7486 7.91193
330 2 -5.47223 11.2157 6.16479
331 1 -5.56933 12.4733 6.20766
332 2 -4.56126 12.8723 6.73294
25 4 -0.843089 6.83266 5.64683
343 2 -4.13355 10.0863 1.90686
344 1 -3.22404 9.63104 1.29964
21 3 -7.23126 13.5374 3.78734
350 2 -4.54972 11.9126 1.63537
351 2 -5.92561 13.1662 1.715
352 1 -5.15481 12.6089 1.03646
357 2 -3.01752 12.9423 1.80481
341 2 -2.88123 10.3636 0.495737
376 2 -3.3586 6.94917 1.72019
252 3 -1.29067 9.40492 8.65305
250 3 2.65493 7.68446 8.61006
196 1 -2.93395 13.544 7.6603
155 2 2.63166 7.24476 12.1951
27 4 -4.56128 9.04394 16.622
30 4 -2.88147 9.78937 13.9386
31 4 -6.57205 12.0527 17.0551
32 4 -4.32328 12.0322 12.3237
38 4 0.918431 13.2652 12.4069
53 4 -0.356744 10.4113 9.41438
55 4 2.00612 8.74674 13.8856
56 4 -1.01881 12.1828 14.8836
57 4 1.85319 10.5337 11.5118
175 2 -3.61049 7.11346 13.7654
370 2 1.50851 11.0285 16.0947
94 2 -0.11488 11.7161 16.3433
318 2 -5.51752 10.5592 16.873
114 2 -2.37074 7.71773 12.5474
115 2 -1.86554 7.48485 14.3876
116 2 -0.910708 8.64999 13.1695
147 2 -1.04028 10.329 11.7721
148 2 -2.47599 10.8633 10.6277
149 2 -1.03537 12.1363 11.0323
150 2 -3.36616 13.297 10.6362
151 2 -1.83145 13.0595 11.7594
159 2 -3.24023 12.9449 15.2759
348 1 -6.60186 13.5212 9.12951
161 2 -1.86401 13.5003 16.5938
194 1 -1.9078 8.18933 13.4563
206 1 -1.37671 11.0104 10.8737
207 1 -2.95346 13.2322 11.7733
209 1 3.04255 7.3312 13.2642
211 1 -2.24548 13.5039 15.4761
380 2 3.66169 8.40352 16.3487
224 3 -3.48203 7.65797 9.29069
226 3 -3.74891 9.36335 15.3419
227 3 -6.40357 13.0879 15.8383
228 3 -5.47044 11.9092 11.0708
229 3 -3.65777 10.2443 12.6206
230 3 -4.90872 12.6998 13.6093
259 3 1.21037 9.36981 12.7304
317 2 -4.17742 9.13192 11.5027
255 3 1.01686 7.8198 15.154
256 3 -1.87113 10.8824 14.5241
257 3 -0.00494489 12.8646 13.7705
258 3 1.07039 10.1608 9.96518
210 1 1.18696 10.4516 17.0499
369 2 1.04437 9.32423 16.852
260 3 1.60269 12.0887 11.6961
145 2 0.65 12.6845 8.71518
35 4 7.8078 3.21999 0.337805
59 4 14.021 0.948024 7.45813
61 4 12.6717 2.50916 5.27899
354 2 9.80705 1.88352 4.03945
67 4 11.4894 4.36399 7.30371
86 2 7.80427 2.03407 1.6889
40 4 5.63616 5.15235 1.28299
96 2 11.6551 1.76574 4.09883
97 2 14.0298 2.89902 4.26227
58 4 13.3204 0.0205728 2.42399
359 2 9.26795 1.1012 1.34223
168 2 13.7085 4.2046 8.6355
170 2 9.25176 5.51488 3.52125
171 2 7.70418 4.45044 3.12433
172 2 7.99149 5.05073 4.94891
356 1 9.99767 0.843316 3.5484
214 1 13.2191 4.92867 7.94982
215 1 8.07697 5.2598 3.79982
88 2 8.26076 1.69263 3.63402
233 3 7.0766 4.56193 0.875379
270 3 10.9423 3.28894 8.35009
1 4 15.9723 1.19247 3.39496
263 3 13.0331 1.47253 6.39724
267 3 5.81001 6.55894 2.02893
272 3 7.15969 3.72261 8.4936
271 3 12.0097 3.87007 5.65637
361 1 8.40777 0.261272 1.12611
274 3 10.7788 5.81748 7.22483
237 3 7.04499 3.05476 5.72497
308 4 12.5192 2.27714 0.51785
309 4 11.8358 5.19654 1.35982
310 2 10.9012 4.90014 3.78044
239 3 5.76167 5.30275 6.54429
180 2 8.4191 5.80246 6.74406
313 1 11.1962 5.9017 3.22384
314 3 12.3367 1.01533 1.62861
315 3 12.1779 3.65129 1.32099
316 3 10.6213 5.77404 0.483185
311 2 10.3728 6.62461 2.91948
386 3 14.4749 0.929382 3.10898
355 2 10.7766 0.88377 2.74791
261 3 14.7799 2.13422 8.27604
218 1 8.12549 6.40071 7.6789
312 2 12.2284 6.36413 3.33754
45 4 5.15174 6.71037 6.06498
121 2 8.96754 0.495029 6.02368
167 2 13.8458 4.89361 6.9895
65 4 7.01129 6.7839 3.51329
169 2 13.1669 6.03962 8.40384
100 2 10.3365 6.69767 4.78334
353 2 10.238 -0.00116754 4.35612
39 4 7.87808 2.18221 10.8558
46 4 6.53898 4.14582 13.019
371 2 11.9766 1.68607 13.5704
60 4 10.733 2.26174 9.53461
63 4 10.2695 2.94691 15.7982
64 4 12.8218 3.72975 11.1586
68 4 7.63117 5.28617 9.12605
70 4 11.2096 5.01906 13.4425
305 4 14.8815 2.21259 15.8968
72 4 9.69944 6.49152 11.1896
99 2 12.9495 4.82554 9.91842
166 2 14.5957 2.92375 12.6299
162 2 10.3288 0.600158 14.731
163 2 9.35187 2.08471 13.8929
164 2 8.64581 1.04175 15.4384
165 2 14.7293 2.06854 10.82
95 2 10.9696 0.682529 8.81931
374 2 11.3936 0.0516113 12.657
347 2 16.4042 0.27368 9.31435
307 3 14.1514 0.82821 15.0233
98 2 9.6384 0.563669 13.0291
185 2 12.6645 0.68842 9.65963
212 1 9.54702 1.37749 14.853
213 1 14.6027 3.07796 11.4861
48 4 5.15893 6.00631 10.8994
306 3 13.882 2.38309 17.1667
240 3 7.51238 3.29722 11.9839
372 2 12.9305 0.98166 12.0366
262 3 9.33081 2.21705 10.338
264 3 11.4372 2.20206 16.5113
265 3 8.99834 3.10235 16.8029
266 3 12.0191 2.49976 10.6548
273 3 6.28761 5.92901 9.77426
275 3 10.6627 4.00365 14.5882
276 3 12.3488 4.48821 12.5265
277 3 7.12836 5.11556 14.2692
373 1 12.2572 0.77035 12.8576
71 4 7.47617 6.4202 15.0309
280 3 9.0103 5.59708 10.0589
281 3 9.92887 5.58175 12.5168
173 2 12.054 6.32878 15.2595
278 3 8.70989 6.48691 15.9129
216 1 11.9879 6.64863 14.1489
103 2 6.06184 6.51569 16.0495
33 4 1.77383 12.822 2.59517
295 3 7.61823 13.2869 6.97167
254 3 3.26797 9.80704 7.01977
358 2 1.20539 13.4444 0.0525615
182 2 7.12466 8.6962 8.37339
385 2 4.64417 13.2815 7.94412
69 4 10.7868 7.20769 6.38554
73 4 8.53161 8.89504 2.01111
74 4 4.87118 11.8017 4.8257
75 4 7.42851 11.3522 0.717034
76 4 9.32705 9.87481 7.71367
78 4 7.73999 12.0236 6.04058
289 3 9.95633 8.42758 6.91259
328 2 10.5496 11.1383 2.58559
18 2 10.6388 10.234 4.21006
104 2 10.0163 9.5336 2.72478
268 3 6.03894 7.06176 4.80537
107 2 8.47047 12.567 4.63896
176 2 5.5117 9.49388 4.21766
177 2 4.62345 10.3847 2.81083
178 2 3.63456 9.57671 4.25473
179 2 7.23946 7.04867 7.44986
52 4 3.94765 8.7291 7.98818
288 3 6.65923 12.4969 1.456
217 1 4.57338 10.118 3.918
293 3 6.29524 11.6331 5.56625
294 3 8.54575 10.8855 6.78183
249 3 2.7325 11.785 1.84246
251 3 5.05487 7.86871 7.17324
51 4 2.91416 10.4733 0.809318
282 3 8.02463 8.02226 3.23994
283 3 9.01469 7.95085 0.802796
284 3 5.06753 12.9307 3.69088
285 3 3.42161 12.0525 5.79377
286 3 8.85963 11.7705 0.319204
287 3 7.5845 10.1067 1.60295
101 2 12.35 7.65987 6.03891
105 2 4.41461 7.32746 2.68055
54 4 2.43676 11.005 6.47534
181 2 9.02195 7.00943 8.10962
24 4 12.0814 8.16014 10.1689
29 4 10.0207 11.8535 10.0049
62 4 5.94653 13.4877 14.102
184 2 8.30806 8.87887 9.765
77 4 4.6034 10.8698 10.2264
79 4 8.31341 8.67846 12.97
80 4 4.3525 10.6455 15.3232
81 4 7.2145 11.4092 11.7741
82 2 11.3889 9.39751 9.27755
279 3 11.1251 7.04985 10.7111
106 2 3.98927 12.3115 9.3419
152 2 6.15731 8.2188 10.5781
153 2 5.75898 7.98829 12.3821
154 2 4.32258 8.28702 11.2127
384 2 6.32362 12.7005 8.91662
382 1 4.4378 7.61047 16.2819
183 2 7.45018 10.3733 9.12702
186 2 9.76151 10.3144 13.8514
187 2 10.7303 9.00738 12.9244
188 2 10.2699 8.71293 14.8268
189 2 5.70945 9.1295 14.0275
190 2 6.42257 9.28353 15.9242
191 2 6.51106 10.8186 14.6374
208 1 5.398 7.84483 11.3501
221 1 10.0108 9.188 13.7616
222 1 5.96921 9.8109 14.9891
269 3 10.9808 7.98765 16.5449
291 3 4.71058 9.67744 9.19017
383 2 5.23524 7.72567 17.0803
292 3 3.48721 10.4243 11.2738
296 3 7.50193 7.69804 14.1294
297 3 8.73313 7.857 11.5647
220 1 5.44468 13.4956 8.75126
299 3 4.76209 12.3661 14.721
300 3 4.04336 10.619 16.9795
301 3 8.55977 11.7286 10.8141
302 3 5.93154 11.3328 10.8835
303 3 7.55225 10.0134 12.4442
304 3 7.04052 12.5608 12.8825
319 2 6.48088 10.8456 16.6171
381 2 4.8251 7.45733 15.1604
66 4 9.66372 7.00662 17.0724
174 2 11.2052 7.55696 14.003
219 1 7.89393 9.35074 8.83261
298 3 3.23715 9.74371 14.4768
290 3 10.4859 10.5898 8.65895
157 2 4.22865 7.46966 13.2879
333 2 8.38576 13.573 13.3578
ITEM: TIMESTEP
200
ITEM: NUMBER OF ATOMS
386
ITEM: BOX BOUNDS xy xz yz pp pp pp
-7.4803389999999998e+00 1.6722200000000001e+01 -7.3464000000000000e+00
-1.7999999999999999e-02 1.3589000000000000e+01 -1.3393899999999997e-01
0.0000000000000000e+00 1.7316099999999999e+01 -1.7999999999999999e-02
ITEM: ATOMS id type x y z
108 2 -3.01978 5.71326 4.85721
2 2 -0.115095 2.20196 2.02445
234 3 0.761904 6.02556 5.81082
4 2 -0.397765 3.30095 4.20576
5 2 -0.348362 1.68453 5.61634
6 1 -1.03082 2.5137 4.95184
10 4 -0.493 2.92384 8.28271
246 3 2.32198 6.55773 0.917102
12 2 -0.227817 3.2854 6.61676
34 4 4.28263 0.872521 3.62594
36 4 4.09493 1.88818 8.33117
326 2 -0.589212 4.75136 2.07014
109 2 -1.21258 4.91625 4.53429
41 4 2.06388 6.30692 4.69164
43 4 6.15581 3.76023 6.93424
327 1 -0.0543398 4.89635 1.04978
87 2 2.79266 0.716184 7.67423
7 4 0.524444 3.09852 0.478387
90 2 3.62326 2.47335 3.27708
118 2 4.28593 1.02098 1.3716
197 1 7.81686 0.456683 6.14456
238 3 3.47779 6.29487 5.27197
133 2 3.55975 4.78574 7.70316
322 2 3.20072 2.63295 1.45379
345 2 0.839708 0.0338133 8.05365
126 2 5.53776 2.9023 2.57729
127 2 3.87487 3.64638 2.09415
128 2 4.89445 4.34246 3.63076
129 2 1.23384 4.88114 2.6686
130 2 1.48439 4.06717 4.34636
131 2 3.05464 4.40205 3.33062
21 3 0.148579 0.0384557 3.91619
134 2 1.7824 5.3216 7.19861
37 4 7.09627 1.70702 4.94614
324 2 -0.750298 4.91338 0.0480232
362 2 5.7841 1.60817 0.613234
8 2 2.28509 3.47101 0.174667
199 1 4.88875 3.8267 2.617
200 1 1.94546 4.79107 3.59846
201 1 2.45822 4.8686 8.03218
231 3 5.57507 1.16491 4.34729
325 2 0.869434 5.65392 1.10537
236 3 4.88942 2.80361 7.3556
379 1 -3.31464 6.35477 1.32803
192 1 -1.94818 5.93319 4.55036
320 2 2.05616 1.17064 1.27506
321 2 1.7591 2.41049 2.68757
323 1 2.08637 2.27025 1.61458
11 2 0.846324 1.74591 8.53379
195 1 4.98563 0.283508 1.99645
14 2 -0.262541 5.20768 8.59491
360 2 7.29465 0.752666 1.21293
132 2 2.03617 3.93222 8.56234
117 2 6.13212 0.442801 1.97865
122 2 7.66516 0.935419 7.17106
378 2 -2.40869 5.66717 1.34453
110 2 -1.86804 6.49898 3.56767
160 2 5.24855 1.05419 14.8134
91 2 0.851528 5.92882 9.60138
9 3 -0.230017 2.48978 16.4497
13 2 -1.37069 4.49859 10.1604
156 2 2.51982 6.44162 13.6083
15 2 0.540092 3.94393 10.0527
16 1 -0.387762 4.36386 9.44209
26 4 -1.70058 4.88471 14.3504
23 4 1.48293 0.186743 14.3775
47 4 0.646606 6.40327 15.5934
42 4 3.3378 6.02859 16.9013
85 2 -1.5536 4.39102 12.7398
119 2 5.41533 0.35971 8.80354
375 2 -1.2769 3.75527 11.2969
123 2 4.36773 1.3134 10.7784
124 2 3.11525 2.73144 10.1983
125 2 4.94384 3.09501 10.4172
232 3 7.53228 0.656466 11.37
135 2 5.44174 1.95444 13.3676
136 2 4.31465 3.53932 13.903
137 2 5.7337 2.77506 15.1397
44 4 2.50175 6.31941 9.23624
368 2 4.09779 0.524211 12.2496
198 1 4.21795 2.3204 10.1434
202 1 5.37352 2.93404 14.0227
346 2 1.47106 0.423028 9.87023
241 3 -0.383128 5.60775 14.709
242 3 2.08429 5.59671 15.6712
243 3 3.45688 6.05154 10.454
364 2 5.28659 3.05346 16.6812
334 2 0.539629 0.571223 12.2014
335 2 -0.162949 1.6496 13.726
336 1 0.00251723 0.550649 13.1591
337 2 2.52847 2.50968 14.2563
338 2 3.59826 1.17515 15.101
339 2 2.15841 2.05134 16.0159
340 1 2.49059 1.69886 14.9957
363 2 6.59295 1.80332 16.149
92 2 -0.00904356 6.44737 17.2004
365 1 6.07199 2.29697 17.0416
244 3 5.41514 5.08776 12.2814
84 2 -3.04458 5.87815 14.3389
223 3 -2.02484 3.67286 15.219
235 3 4.44282 4.97347 17.3127
17 4 -5.60172 12.5383 4.50605
342 2 -2.28273 9.60927 2.04623
20 1 -5.58237 10.8235 3.62938
377 2 -3.36409 7.01337 0.388974
349 2 -4.35326 13.392 0.532806
367 2 -0.173754 13.0773 5.99085
366 2 -3.14989 12.3865 8.15437
28 4 -2.33367 8.17525 8.03924
49 4 2.75471 7.68619 2.01801
50 4 -0.0691329 10.991 4.36999
83 2 -0.758492 8.41778 4.73262
19 2 -4.642 10.3931 3.08818
111 2 -4.65261 9.13325 6.90856
112 2 -3.04203 8.89428 5.72177
113 2 -2.96647 10.1754 7.03908
138 2 -0.463827 9.90948 2.08982
139 2 -1.57251 8.99967 3.19426
140 2 0.311991 8.642 3.22069
141 2 -1.23922 11.5513 6.48173
142 2 -2.14444 10.4062 5.12991
143 2 -2.14017 12.2661 4.9764
144 2 0.257697 11.719 7.08806
102 2 -3.34017 8.82664 0.470302
146 2 -1.18278 12.5804 8.04004
158 2 0.726905 11.3241 0.39291
193 1 -3.45776 9.14409 6.8049
203 1 -0.55732 9.43501 3.09059
204 1 -1.58642 11.3632 5.39653
205 1 -0.142904 12.0429 8.12337
225 3 -1.6359 7.03454 7.08544
329 2 -6.57363 12.9101 6.8661
245 3 1.77139 7.56756 3.32837
252 3 -1.27368 9.28382 8.63088
247 3 0.317651 12.2528 3.31445
248 3 2.9605 9.04821 1.38423
253 3 1.14183 10.7219 5.40761
93 2 1.79219 11.8247 7.78805
330 2 -5.75673 11.2198 6.35494
331 1 -5.57952 12.3345 6.37253
332 2 -4.53472 12.7328 6.89157
25 4 -0.806551 6.9058 5.66146
343 2 -4.31298 9.74101 1.84712
344 1 -3.3162 9.68683 1.25659
358 2 0.959335 13.2245 0.118612
350 2 -4.65234 11.7357 1.52475
351 2 -5.84793 13.2802 1.785
352 1 -5.12129 12.7261 1.07691
357 2 -2.69202 12.7462 1.89454
341 2 -3.26473 10.6962 0.664966
376 2 -3.3473 7.01089 2.29736
196 1 -2.93338 13.4668 7.83933
250 3 2.79285 7.61351 8.42207
22 3 -4.23509 13.395 4.10443
105 2 4.32339 7.22392 2.56485
120 2 -2.568 13.5614 6.75111
145 2 0.562784 12.7538 8.60213
155 2 2.86027 7.49227 12.1572
27 4 -4.69315 9.10196 16.5312
30 4 -2.93873 9.76799 13.9144
31 4 -6.53921 12.1446 17.1246
32 4 -4.36401 12.047 12.2511
38 4 0.920571 13.2119 12.3932
53 4 -0.347473 10.4127 9.38773
55 4 1.98586 8.75768 13.9427
56 4 -0.933495 12.2009 14.7372
57 4 1.8896 10.4513 11.4733
175 2 -3.63632 7.23584 13.6948
370 2 1.12746 10.6867 15.9094
94 2 0.0233317 11.9361 16.2095
318 2 -5.6489 10.5984 16.9278
114 2 -2.41348 7.7985 12.4146
115 2 -1.80758 7.5626 14.2344
116 2 -0.932815 8.76686 13.1636
147 2 -0.897722 10.2945 11.6927
148 2 -2.36275 10.8588 10.5594
149 2 -1.07335 12.151 11.0207
150 2 -3.07045 13.2025 10.5736
151 2 -1.83448 12.8067 11.9729
159 2 -3.13283 12.9096 14.8465
348 1 -6.70261 13.5283 9.20507
82 2 -5.18527 9.48776 9.2425
194 1 -1.90322 8.22517 13.3418
206 1 -1.28807 11.0216 10.8322
207 1 -2.91029 13.154 11.7384
209 1 3.02606 7.3599 13.2476
211 1 -2.18949 13.5259 15.226
380 2 3.54602 8.37372 16.2279
224 3 -3.33233 7.63849 9.29894
226 3 -3.90869 9.31872 15.1669
227 3 -6.34819 12.9639 15.7095
228 3 -5.34133 11.9703 10.9645
229 3 -3.77166 10.2245 12.6847
230 3 -5.03121 12.9806 13.3658
259 3 1.31635 9.50142 12.7014
317 2 -4.11939 9.18055 11.4748
255 3 0.956961 7.88606 15.0578