ITEM: TIMESTEP
0
ITEM: NUMBER OF ATOMS
386
ITEM: BOX BOUNDS xy xz yz pp pp pp
-7.5176100000000003e+00 1.6722200000000001e+01 -7.2105100000000002e+00
-1.7999999999999999e-02 1.3589000000000000e+01 -3.0709999999999998e-01
0.0000000000000000e+00 1.7316099999999999e+01 -1.7999999999999999e-02
ITEM: ATOMS id type x y z
108 2 -3.12278 5.94735 5.18468
2 2 -0.135809 2.04241 1.9455
234 3 0.631997 6.02156 5.74231
4 2 -0.158991 3.25435 4.16128
5 2 0.0232902 1.64181 5.47077
6 1 -0.787442 2.50101 4.86796
10 4 -0.264962 2.95024 8.11072
246 3 2.38657 6.49171 1.0686
12 2 0.211669 3.17942 6.45518
34 4 4.3668 0.956569 3.47078
36 4 4.04445 1.98463 8.25154
326 2 -0.512206 4.61781 2.12396
109 2 -1.73385 5.18177 3.99688
41 4 2.02969 6.09338 4.67041
21 3 0.177603 0.0122665 3.91941
327 1 -0.113169 4.87918 1.0772
87 2 2.71907 0.972224 7.57537
7 4 0.417049 2.96308 0.512024
90 2 3.71264 2.55795 3.31088
118 2 4.50092 0.988697 1.21955
197 1 7.62175 0.375789 6.29653
238 3 3.57414 6.17235 5.32775
133 2 3.36372 4.84086 7.20035
322 2 3.18015 2.78484 1.12974
235 3 4.56678 5.03798 0.0723624
126 2 5.81348 3.03301 2.74767
127 2 4.09692 3.38494 1.98362
128 2 4.86646 4.29973 3.53788
129 2 1.21303 4.75084 2.55702
130 2 1.61219 3.86343 4.36517
131 2 3.23483 4.40351 3.15269
132 2 1.99725 3.9654 8.19656
134 2 1.57282 5.36633 7.03334
37 4 7.10821 1.72265 5.08231
324 2 -0.900144 5.18148 0.410962
362 2 6.02678 1.43764 0.36883
120 2 4.84084 0.00431271 6.96253
199 1 5.04119 3.79867 2.5539
200 1 2.0524 4.63632 3.53021
201 1 2.34771 4.90288 7.70527
231 3 5.78221 1.18667 4.45166
325 2 0.890983 5.55034 1.08821
236 3 4.81926 2.99675 7.3069
376 2 -3.00545 6.53198 1.61753
192 1 -2.13864 6.1103 4.57006
320 2 2.19511 1.15633 1.33181
321 2 1.81912 2.42969 2.54742
323 1 2.1616 2.24766 1.49343
11 2 0.930834 1.79392 8.59608
195 1 5.10625 0.301458 1.89124
14 2 -0.397728 5.24702 8.22181
360 2 7.39012 0.33975 1.02365
122 2 7.43359 0.659277 7.4087
117 2 6.27292 0.419795 1.7963
3 2 -1.37244 3.01186 5.70272
43 4 6.12092 3.84777 6.89548
378 2 -2.49144 5.18974 0.266979
160 2 5.10437 0.916055 14.9017
91 2 0.811117 5.88693 9.32822
9 3 -0.532146 2.26235 16.538
13 2 -1.49896 4.63145 9.82588
156 2 2.59419 6.31045 13.7941
15 2 0.471777 4.29191 9.78248
16 1 -0.538343 4.47725 9.13227
26 4 -1.74752 4.67352 14.2463
23 4 1.34511 0.265611 14.3571
47 4 0.651024 6.40379 15.4515
42 4 3.12563 6.05275 17.0128
85 2 -1.96973 4.74824 12.556
119 2 5.25577 0.325665 8.99016
375 2 -1.45882 3.84749 11.051
123 2 4.08672 1.4089 10.7308
124 2 2.88807 2.85489 10.0076
125 2 4.74901 3.1576 10.4446
232 3 7.31701 0.723813 11.3477
135 2 5.90135 1.69499 13.2409
136 2 4.5644 2.96852 13.5484
137 2 5.77612 2.36009 15.003
44 4 2.47536 6.18806 9.08601
368 2 3.74036 0.5149 12.3827
198 1 3.98629 2.38361 10.1023
202 1 5.56931 2.58818 13.8752
346 2 1.56372 0.436872 9.44274
241 3 -0.552683 5.6468 14.7275
242 3 1.97676 5.61203 15.5643
243 3 3.40923 5.72886 10.2672
364 2 5.49734 2.99946 16.696
334 2 0.501228 1.14177 12.1394
335 2 -0.338915 1.93866 13.6251
336 1 -0.100215 1.04557 13.0576
337 2 2.45127 2.49936 13.8935
338 2 3.31344 1.37751 15.1711
339 2 1.79437 2.39604 15.6361
340 1 2.29894 1.83712 14.8154
363 2 6.69814 1.60565 16.0915
92 2 -0.0879048 6.30305 17.0238
365 1 6.21667 2.13076 16.995
244 3 5.4532 4.82905 12.1528
347 2 -0.350257 0.442142 9.512
223 3 -1.88644 3.20999 14.7125
8 2 1.7478 3.3848 17.2863
17 4 -5.33886 12.678 4.4166
342 2 -1.99437 9.59701 2.0282
20 1 -5.46185 10.9489 3.44398
349 2 -4.40201 13.4969 0.401223
105 2 4.40149 7.06037 2.79569
367 2 -0.195807 12.9739 5.9861
366 2 -3.30909 12.4968 8.07595
28 4 -2.38051 8.37212 8.05146
49 4 2.89363 7.56366 2.22532
50 4 0.172286 11.0194 4.30002
83 2 -0.469149 8.42626 4.82776
19 2 -4.54784 10.7763 2.79242
111 2 -4.74561 9.04809 7.16815
112 2 -3.09544 9.11029 5.92581
113 2 -3.38656 10.4787 7.17609
138 2 -0.260922 9.9652 2.20128
139 2 -1.3319 8.96951 3.27037
140 2 0.565052 8.70244 3.32585
141 2 -1.57003 11.2706 6.23885
142 2 -2.05199 10.6665 4.51759
143 2 -1.69256 12.5519 4.92093
144 2 0.165133 11.5685 7.28628
102 2 -3.10162 8.71261 0.407914
146 2 -1.15523 12.598 8.15225
158 2 0.958765 11.1838 0.498006
193 1 -3.52743 9.36911 6.9517
203 1 -0.32794 9.43896 3.14492
204 1 -1.44022 11.4804 5.17103
205 1 -0.154717 12.0431 8.29877
225 3 -1.74237 7.21144 7.01518
329 2 -6.4611 12.8471 6.65214
245 3 1.94226 7.47403 3.61084
110 2 -2.21639 7.07062 3.81115
247 3 0.703222 12.1616 3.35298
248 3 3.12799 8.98024 1.55027
253 3 1.29312 10.7064 5.48196
93 2 1.75972 11.6053 7.98438
330 2 -5.36742 11.184 6.13143
331 1 -5.4106 12.4584 6.21714
332 2 -4.4046 12.8543 6.82429
25 4 -0.864707 6.89156 5.62247
343 2 -3.97624 9.75555 1.89678
344 1 -3.0523 9.7107 1.25046
22 3 -3.95177 13.502 4.0133
350 2 -4.48944 11.8828 1.29206
351 2 -5.88431 13.0948 1.68341
352 1 -5.08624 12.7256 0.931211
357 2 -2.43123 12.8003 1.85543
341 2 -2.89855 10.6595 0.695164
196 1 -2.93246 13.574 7.96542
345 2 -6.78081 13.2775 7.91546
155 2 2.68395 7.21306 12.1182
27 4 -4.63165 9.16158 16.5227
30 4 -2.84332 9.62055 13.9657
31 4 -6.61417 12.052 16.9767
32 4 -4.53297 11.9475 12.3316
38 4 0.761295 13.3545 12.4409
53 4 -0.447276 10.5722 9.5187
55 4 2.04014 8.78323 13.8645
56 4 -0.849242 12.1958 14.8743
57 4 1.79235 10.569 11.4852
175 2 -3.62743 7.06071 13.9924
370 2 1.57395 10.6657 16.1975
94 2 0.273984 11.7295 16.103
318 2 -5.59797 10.6084 16.7279
114 2 -2.45254 7.77207 12.4649
115 2 -2.06172 7.24942 14.3709
116 2 -0.84451 8.43314 13.5019
147 2 -1.26869 10.1245 11.6312
148 2 -2.66823 11.0108 10.8188
149 2 -1.24162 12.0264 11.4386
150 2 -3.40905 13.1576 10.6751
151 2 -2.03838 12.9335 12.1138
159 2 -3.22704 12.8396 15.1083
252 3 -1.38 9.51976 8.72607
161 2 -1.99963 13.3653 16.5406
194 1 -1.93091 8.03719 13.5135
206 1 -1.61151 11.0135 11.001
207 1 -3.13885 13.1527 11.8163
209 1 2.96844 7.26829 13.2339
211 1 -2.23864 13.3749 15.3933
380 2 3.34214 8.39469 16.6866
224 3 -3.47576 7.68836 9.31461
226 3 -3.89079 9.2401 15.1249
227 3 -6.50615 13.0426 15.7021
228 3 -5.63282 11.9244 11.193
229 3 -3.70732 10.2382 12.6919
230 3 -5.04314 12.8035 13.5571
259 3 1.36925 9.48716 12.6661
317 2 -4.18375 9.09256 11.552
255 3 0.925144 7.95893 15.043
256 3 -1.61092 10.8862 14.4611
257 3 -0.0459455 12.991 13.743
258 3 0.962179 10.1621 10.0019
250 3 2.83671 7.66121 8.71846
348 1 -6.64129 13.5696 9.10658
260 3 1.49491 12.0661 11.929
145 2 0.659215 12.7046 8.69186
210 1 1.14321 10.3527 17.2299
157 2 4.06747 7.39409 13.3303
369 2 0.463448 9.42973 17.1629
35 4 7.8824 3.22848 0.459384
59 4 13.9043 0.845824 7.40784
61 4 12.646 2.59359 5.2981
354 2 9.91248 1.71093 4.37997
67 4 11.5599 4.52774 7.24147
86 2 7.97277 1.90895 1.63246
40 4 5.7722 5.16668 1.37872
96 2 11.7393 1.79205 4.06455
97 2 14.0974 3.10048 4.5319
379 1 13.4433 5.94364 0.577376
359 2 9.28649 1.01477 1.00786
121 2 8.78781 0.45758 5.98203
170 2 9.29064 5.56075 3.74489
171 2 7.49159 4.68868 3.44051
172 2 7.93899 5.26939 5.24569
356 1 10.0265 0.830151 3.69277
214 1 13.3344 4.88528 8.02627
215 1 8.11735 5.44957 4.08732
88 2 8.33499 1.73081 3.77682
233 3 7.1732 4.60762 1.02229
270 3 10.9536 3.46879 8.37667
167 2 13.8876 4.96115 7.01471
263 3 13.0297 1.46044 6.2611
267 3 5.84576 6.4461 2.23662
272 3 7.34857 3.82093 8.39876
271 3 11.8309 3.77446 5.78425
361 1 8.4849 0.121841 0.910406
274 3 10.7157 5.96393 7.00646
237 3 7.0156 3.18558 5.72573
308 4 12.5211 2.31667 0.583017
309 4 11.821 5.30802 1.40461
310 2 10.869 4.89367 3.66362
239 3 5.79177 5.32682 6.5521
180 2 8.35071 6.07077 6.74986
313 1 11.2861 5.8524 3.34329
314 3 12.306 1.06464 1.57619
315 3 12.0261 3.80375 1.52328
316 3 10.6308 5.88796 0.507638
311 2 10.5272 6.71256 3.1063
386 3 14.3674 0.768592 3.24985
355 2 10.7834 0.980818 2.91064
261 3 15.0316 2.13107 8.16673
218 1 8.04146 6.54288 7.70004
168 2 13.678 4.04144 8.6381
45 4 5.01356 6.5837 5.97539
312 2 12.1957 6.12337 3.95381
1 4 15.894 1.19202 3.42869
169 2 13.3823 5.86952 8.57621
306 3 14.0188 2.61219 0.106509
39 4 7.8423 2.23573 10.8345
46 4 6.54772 4.03815 12.9979
371 2 12.3132 1.82555 13.701
60 4 10.6412 2.3138 9.45532
63 4 10.0754 2.82982 15.8458
64 4 12.6254 3.67591 11.1521
68 4 7.67043 5.27276 9.07961
70 4 11.0223 5.057 13.6075
305 4 14.5873 2.16499 15.9259
72 4 9.6891 6.52631 11.257
99 2 12.6185 4.95437 9.88105
166 2 14.5869 2.90595 12.5418
162 2 10.0738 0.868971 14.5323
163 2 8.92484 2.19392 13.7694
164 2 8.35944 1.11573 15.2598
165 2 14.3243 2.14325 10.8456
377 2 12.8739 6.6397 17.1157
374 2 11.186 0.430392 12.8453
333 2 15.7529 0.271609 13.0146
307 3 14.0348 0.758657 15.3238
98 2 9.42394 0.609226 12.8916
185 2 12.304 0.339562 9.57122
212 1 9.14497 1.53666 14.6196
213 1 14.4314 3.1361 11.4535
48 4 5.13227 5.98969 10.8636
89 2 6.7917 2.81145 9.58648
240 3 7.70311 3.23057 12.161
372 2 12.9485 0.830564 12.0749
262 3 9.31211 2.15312 10.2115
264 3 11.1778 1.97494 16.5832
265 3 8.76415 3.21995 16.7623
266 3 11.8606 2.46708 10.5603
273 3 6.30718 5.84169 9.76264
275 3 10.636 4.1656 14.8479
276 3 12.0645 4.30786 12.5948
277 3 7.13406 5.06347 14.3523
373 1 12.2065 0.86952 13.0487
71 4 7.25466 6.55083 14.9655
280 3 8.91773 5.43629 10.1457
281 3 9.85143 5.77952 12.7635
173 2 11.9595 6.27053 15.4516
278 3 8.57846 6.65152 15.867
216 1 11.9292 6.61952 14.3158
103 2 5.83523 6.73233 15.9364
84 2 13.5263 5.50612 14.6664
95 2 11.0166 0.829999 8.68658
33 4 1.94255 12.9612 2.50213
295 3 7.67839 13.3056 6.86394
65 4 7.03887 6.96402 3.72664
100 2 10.3501 6.96704 4.71185
182 2 7.00609 8.58862 8.22953
385 2 4.76045 13.2175 7.76095
69 4 10.8414 7.27018 6.29949
73 4 8.58195 8.84251 1.94737
74 4 5.05185 11.6587 4.79582
75 4 7.5144 11.3077 0.79533
76 4 9.16018 9.8149 7.67515
78 4 7.84912 11.9963 5.94707
289 3 10.0679 8.47739 6.95162
58 4 6.0431 13.5222 2.46858
18 2 11.0009 10.0819 4.08022
104 2 9.93264 9.73198 2.67702
268 3 6.08839 7.3541 4.8824
107 2 8.84524 12.4065 4.5536
176 2 4.91885 9.15755 4.47102
177 2 5.1432 10.1481 2.90638
178 2 3.45965 10.0662 3.63253
179 2 7.09125 7.11312 7.61408
52 4 4.01319 8.68475 7.98686
288 3 6.76838 12.4738 1.49452
217 1 4.58666 10.0905 3.86698
293 3 6.39918 11.422 5.49522
294 3 8.80279 10.8391 6.55379
249 3 2.90006 11.7193 1.90344
251 3 5.06016 7.6976 7.27496
51 4 3.09655 10.4914 0.862289
282 3 8.16596 7.93612 3.14569
283 3 9.178 8.04761 0.752412
284 3 5.1696 12.802 3.61994
285 3 3.6275 11.9337 6.09775
286 3 8.99109 11.6902 0.306049
287 3 7.42463 9.89428 1.4741
220 1 5.51339 13.4087 8.6432
353 2 3.00403 13.4572 4.4112
54 4 2.45761 10.9591 6.54473
181 2 8.91146 7.20298 8.12029
254 3 3.25951 9.6721 6.83892
328 2 10.3198 11.4593 2.79968
101 2 12.4357 7.75809 5.90449
24 4 12.0816 8.1454 10.1992
29 4 9.99312 11.9517 10.1217
62 4 5.92473 13.2516 14.1059
184 2 8.12371 8.67993 9.771
77 4 4.67522 10.7572 10.1602
79 4 8.1926 8.60011 12.8785
80 4 4.2082 10.822 15.2332
81 4 7.28016 11.49 11.7214
82 2 11.2705 9.41979 9.41866
279 3 11.1034 7.04731 10.6402
106 2 4.07573 12.1051 9.25817
152 2 6.10606 8.26082 10.7838
153 2 5.76226 7.60547 12.5443
154 2 4.3311 8.2106 11.4141
290 3 10.1694 10.5571 8.94674
382 1 4.14763 7.63074 16.4576
183 2 7.3073 10.2627 9.02861
186 2 9.72811 10.2193 13.8925
187 2 10.6905 8.77005 13.0896
188 2 9.92187 8.61131 14.7806
189 2 5.54504 9.0792 14.3497
190 2 5.93691 9.35507 16.1413
191 2 6.76399 10.4763 14.8787
208 1 5.36495 7.70386 11.4784
221 1 9.87031 9.11636 13.8203
222 1 5.84478 9.89171 15.1468
269 3 11.0005 8.03841 16.6093
291 3 4.85915 9.58728 9.14179
383 2 5.05899 7.76733 17.1226
292 3 3.51161 10.4484 11.2151
296 3 7.34392 7.65053 13.8907
297 3 8.75631 7.81673 11.4528
384 2 6.1712 12.4817 8.81745
299 3 4.80238 12.2952 14.6651
300 3 3.80644 10.8368 16.945
301 3 8.52078 11.8478 10.7275
302 3 5.9666 11.396 10.8707
303 3 7.50719 10.0584 12.5037
304 3 7.16992 12.6511 12.9067
319 2 6.53109 11.1013 16.5922
381 2 4.37819 7.55765 15.3996
66 4 9.67766 7.1247 17.0068
174 2 11.0915 7.51662 14.1599
219 1 7.76379 9.19812 8.79812
298 3 3.04261 9.9212 14.5142
358 2 1.18235 13.129 17.2996
ITEM: TIMESTEP
100
ITEM: NUMBER OF ATOMS
386
ITEM: BOX BOUNDS xy xz yz pp pp pp
-7.5176100000000003e+00 1.6722200000000001e+01 -7.2105100000000002e+00
-1.7999999999999999e-02 1.3589000000000000e+01 -3.0709999999999998e-01
0.0000000000000000e+00 1.7316099999999999e+01 -1.7999999999999999e-02
ITEM: ATOMS id type x y z
108 2 -2.91901 5.44551 4.74843
2 2 -0.124421 2.03409 1.9944
234 3 0.637255 5.95976 5.57089
4 2 -0.271721 3.32983 4.09407
5 2 -0.027631 2.06324 5.44006
6 1 -0.805155 2.54952 4.82504
10 4 -0.516302 2.95838 8.04365
246 3 2.49213 6.56612 1.12891
12 2 -0.128624 3.45809 6.48387
34 4 4.35093 0.883676 3.53001
36 4 4.0565 1.99819 8.27378
326 2 -0.583327 5.20743 2.17926
109 2 -1.42348 5.43935 3.74262
41 4 2.00576 6.0732 4.7092
22 3 3.07793 0.0130157 3.99893
327 1 -0.13994 5.05567 1.19448
87 2 2.81472 0.835441 7.51509
7 4 0.44003 3.02809 0.595054
90 2 3.72007 2.43106 3.38209
118 2 4.38104 1.21829 1.2558
197 1 7.82949 0.438148 6.33037
238 3 3.41421 6.31447 5.47682
133 2 3.37462 4.90521 7.48379
322 2 3.03201 2.60057 1.32215
235 3 4.60317 5.08726 0.12272
126 2 5.80324 3.06766 2.8326
127 2 4.0072 3.31433 2.05788
128 2 4.67154 4.58981 3.37486
129 2 1.10876 4.68802 2.70928
130 2 1.70533 3.7466 4.37352
131 2 3.02457 4.32304 3.2108
132 2 2.04947 4.02903 8.46577
134 2 1.52113 5.06019 7.06788
37 4 7.15646 1.63506 5.03968
324 2 -0.849985 5.18535 0.330441
362 2 5.90276 1.59398 0.528736
8 2 2.09546 3.67604 0.302889
199 1 4.93722 3.7907 2.57859
200 1 1.94234 4.53756 3.61517
201 1 2.30617 4.91761 7.89062
231 3 5.74582 0.938254 4.4889
325 2 0.919735 5.61586 1.11671
236 3 4.87571 2.93284 7.3421
378 2 -2.12596 5.60043 1.14995
192 1 -2.03865 6.05957 4.42658
320 2 1.97527 1.06945 1.16684
321 2 1.70352 2.39261 2.61172
323 1 1.99954 2.20563 1.5044
11 2 0.737966 1.77473 8.2626
195 1 4.91217 0.33691 1.85407
14 2 -0.287046 5.28132 8.44577
360 2 7.26078 0.658592 1.31446
122 2 7.70152 0.714474 7.42534
117 2 6.04742 0.167749 1.66652
3 2 -1.45884 3.13398 5.47515
43 4 6.13807 3.78884 6.91331
379 1 -3.17591 6.0126 1.05414
120 2 4.95507 0.214674 6.7544
160 2 5.12389 0.962637 14.8628
91 2 0.873056 5.84391 9.59978
9 3 -0.400766 2.19272 16.5109
13 2 -1.36309 4.58909 9.89515
156 2 2.67459 6.45637 13.9417
15 2 0.586865 4.00913 9.72526
16 1 -0.451759 4.4244 9.18381
26 4 -1.70039 4.82035 14.2456
23 4 1.2517 0.332459 14.5081
47 4 0.580273 6.36393 15.5346
42 4 3.14529 6.14354 16.8803
85 2 -1.72253 4.68569 12.5486
119 2 5.2403 0.35791 8.88884
375 2 -1.42651 3.88763 11.0727
123 2 4.26253 1.46197 10.7678
124 2 3.03646 2.87458 10.0832
125 2 5.00292 3.18156 10.2182
232 3 7.37335 0.72663 11.3994
135 2 5.74345 1.71321 13.3208
136 2 4.37581 3.03635 13.6561
137 2 5.70625 2.57962 14.9734
44 4 2.46192 6.25994 9.21508
368 2 3.9224 0.516384 12.4699
198 1 4.1694 2.41256 10.0948
202 1 5.47498 2.70468 13.8499
346 2 1.38387 0.444253 9.86247
241 3 -0.336134 5.56388 14.5714
242 3 2.21642 5.53927 15.7392
243 3 3.55166 5.83084 10.287
364 2 5.24466 2.91478 16.5697
334 2 0.131036 0.831105 12.2998
335 2 -0.408619 1.71145 13.8003
336 1 -0.188638 0.696713 13.354
337 2 2.36241 2.55176 14.0496
338 2 3.20622 1.35601 15.2654
339 2 1.80745 2.46301 15.7881
340 1 2.24225 1.89052 14.9716
363 2 6.64366 1.586 16.2143
92 2 -0.190264 6.38014 17.1096
365 1 6.0775 2.236 17.0232
244 3 5.39384 5.01946 12.1951
377 2 -3.628 6.30898 17.2918
223 3 -2.08766 3.48508 14.9644
84 2 -3.07855 5.83952 14.5572
89 2 6.74615 2.47848 9.5015
17 4 -5.48805 12.6647 4.40194
342 2 -2.12338 9.44359 2.0769
20 1 -5.43221 10.9045 3.48253
345 2 -6.21132 13.4768 8.02048
376 2 -3.30166 6.90525 1.78836
367 2 0.0888416 13.0472 6.13048
366 2 -3.05312 12.4868 7.76709
28 4 -2.37173 8.37794 8.04767
49 4 2.87615 7.67546 2.25683
50 4 0.0626258 10.9457 4.30831
83 2 -0.547642 8.41337 4.92343
19 2 -4.41828 10.4844 3.19209
111 2 -4.64677 9.18428 6.99366
112 2 -3.18133 8.8352 5.80413
113 2 -3.12899 10.3847 7.04015
138 2 -0.288408 9.94154 2.1824
139 2 -1.46535 8.81542 3.28725
140 2 0.481076 8.57109 3.2275
141 2 -1.16713 11.581 6.50707
142 2 -2.04731 10.5891 4.99596
143 2 -1.61435 12.5399 4.90761
144 2 0.291506 11.4963 7.29071
102 2 -3.35155 8.55181 0.803803
146 2 -1.1582 12.5987 8.03993
158 2 0.540969 10.8785 0.283698
193 1 -3.50264 9.27823 6.80319
203 1 -0.45673 9.40428 3.17412
204 1 -1.37887 11.5562 5.35139
205 1 -0.109744 11.9486 8.27217
225 3 -1.60298 7.23193 7.12589
329 2 -6.43729 12.9039 6.72169
245 3 1.8682 7.5639 3.49184
110 2 -2.37416 7.0956 3.94198
247 3 0.503547 12.3191 3.26002
248 3 3.03352 9.06963 1.55066
253 3 1.30086 10.623 5.43501
93 2 1.78604 11.7638 7.88611
330 2 -5.38929 11.2285 6.1608
331 1 -5.48974 12.4782 6.19924
332 2 -4.48617 12.8748 6.73006
25 4 -0.832844 6.85068 5.63246
343 2 -4.06962 10.0519 1.86865
344 1 -3.14011 9.61092 1.2883
250 3 2.63875 7.68301 8.59401
350 2 -4.42452 11.8847 1.63641
351 2 -5.82102 13.1484 1.72972
352 1 -5.04703 12.5993 1.04985
357 2 -2.88819 12.9427 1.81182
341 2 -2.80362 10.3601 0.499029
252 3 -1.28058 9.41311 8.65452
21 3 -7.13411 13.5335 3.77092
349 2 -4.45029 13.3176 0.403422
196 1 -2.8723 13.5639 7.66737
155 2 2.55837 7.23597 12.1991
27 4 -4.63082 9.03564 16.6166
30 4 -2.91666 9.79193 13.9471
31 4 -6.629 12.0555 17.0546
32 4 -4.32394 12.0319 12.3336
38 4 0.921638 13.2709 12.4017
53 4 -0.348413 10.4142 9.42339
55 4 1.95862 8.75062 13.8835
56 4 -1.03814 12.184 14.8615
57 4 1.85516 10.531 11.5018
175 2 -3.70231 7.12161 13.7897
370 2 1.4696 11.0269 16.1142
94 2 -0.14389 11.7642 16.3419
318 2 -5.59542 10.5651 16.8782
114 2 -2.41183 7.67221 12.5653
115 2 -1.91247 7.47733 14.4012
116 2 -0.98812 8.62376 13.1916
147 2 -1.02801 10.3351 11.696
148 2 -2.48236 10.8448 10.5817
149 2 -1.03376 12.1538 10.9984
150 2 -3.36046 13.3104 10.697
151 2 -1.80778 13.0173 11.7587
159 2 -3.25577 12.9364 15.2833
348 1 -6.59332 13.5131 9.11871
161 2 -1.90013 13.5155 16.6049
194 1 -1.96969 8.15724 13.4667
206 1 -1.36501 11.0006 10.8455
207 1 -2.93571 13.2435 11.7821
209 1 2.97925 7.31746 13.2774
211 1 -2.26572 13.5039 15.4784
380 2 3.57319 8.4397 16.3309
224 3 -3.50868 7.63668 9.32384
226 3 -3.81575 9.36309 15.3374
227 3 -6.44076 13.0848 15.8353
228 3 -5.47095 11.9182 11.0744
229 3 -3.67135 10.2397 12.6145
230 3 -4.91225 12.7 13.6185
259 3 1.18565 9.37492 12.7129
317 2 -4.20481 9.11218 11.4834
255 3 0.934299 7.82605 15.1295
256 3 -1.90479 10.8791 14.521
257 3 -0.029205 12.8641 13.749
258 3 1.07852 10.1567 9.97134
210 1 1.12289 10.4433 17.0552
145 2 0.70297 12.6255 8.74106
260 3 1.59633 12.0803 11.6977
369 2 1.01093 9.31352 16.8415
157 2 4.16297 7.43903 13.3038
35 4 7.8456 3.21327 0.342017
59 4 13.951 0.944977 7.46683
61 4 12.6251 2.50267 5.2775
354 2 9.76846 1.89592 4.0326
67 4 11.4627 4.35977 7.30886
86 2 7.87413 2.05221 1.68167
40 4 5.67423 5.14699 1.29604
96 2 11.6038 1.79092 4.08192
97 2 14.005 2.90524 4.2755
121 2 8.93963 0.504074 6.03111
359 2 9.27672 1.05568 1.29231
1 4 15.9408 1.19631 3.39612
170 2 9.28258 5.52415 3.54808
171 2 7.72293 4.45411 3.11353
172 2 7.99811 5.02748 4.96116
356 1 9.94786 0.850345 3.55095
214 1 13.184 4.9196 7.96989
215 1 8.10224 5.26509 3.8119
88 2 8.20244 1.68602 3.58971
233 3 7.12784 4.56488 0.882373
270 3 10.8776 3.27975 8.34685
58 4 13.2916 0.0219284 2.42363
263 3 12.9813 1.46875 6.3855
267 3 5.85909 6.54967 2.03312
272 3 7.13324 3.71438 8.48647
271 3 11.9825 3.87183 5.66303
361 1 8.38595 0.249659 1.12679
274 3 10.7573 5.81648 7.22042
237 3 7.00371 3.04275 5.72594
308 4 12.5608 2.28116 0.511843
309 4 11.8901 5.1936 1.34275
310 2 10.9413 4.88457 3.71372
239 3 5.74381 5.29661 6.54797
180 2 8.39338 5.82858 6.75291
313 1 11.2582 5.92345 3.2456
314 3 12.3278 1.01036 1.62053
315 3 12.237 3.65334 1.32281
316 3 10.6885 5.7713 0.480109
311 2 10.4349 6.60928 2.91817
386 3 14.4409 0.942306 3.10277
355 2 10.719 0.89019 2.74104
261 3 14.7206 2.12278 8.28554
218 1 8.1028 6.39832 7.68468
312 2 12.0951 6.46507 3.76835
45 4 5.1545 6.71076 6.06349
100 2 10.3155 6.70955 4.75062
167 2 13.8242 4.89975 7.019
169 2 13.1288 6.03288 8.44373
65 4 7.04606 6.77798 3.51523
39 4 7.79513 2.18585 10.8499
46 4 6.46554 4.14966 13.0223
371 2 11.8591 1.70995 13.566
60 4 10.6616 2.26031 9.54043
63 4 10.14 2.96095 15.7914
64 4 12.7408 3.7277 11.1615
68 4 7.59721 5.29222 9.12536
70 4 11.1265 5.01853 13.4405
305 4 14.7393 2.19961 15.8994
72 4 9.66331 6.49769 11.1884
99 2 12.8721 4.84121 9.92665
166 2 14.5499 2.88711 12.6227
162 2 10.1102 0.45922 14.8181
163 2 9.32596 1.97575 13.865
164 2 8.43649 1.10152 15.4173
165 2 14.608 2.06791 10.7809
95 2 10.8934 0.661813 8.85593
374 2 11.2419 0.063004 12.672
168 2 13.6463 4.1846 8.66759
307 3 14.0083 0.822883 15.0227
98 2 9.52197 0.524629 13.0448
185 2 12.6059 0.677798 9.65829
212 1 9.40137 1.35115 14.858
213 1 14.5236 3.07545 11.4804
48 4 5.10286 6.01106 10.8957
306 3 13.7396 2.37635 17.1677
240 3 7.44908 3.29522 11.994
372 2 12.7753 0.944022 12.0227
262 3 9.25353 2.21536 10.3378
264 3 11.2895 2.22052 16.5023
265 3 8.85376 3.09527 16.7839
266 3 11.9334 2.49671 10.6587
273 3 6.25131 5.92471 9.77608
275 3 10.5478 4.00629 14.5885
276 3 12.2785 4.47201 12.5403
277 3 7.04125 5.11726 14.2787
373 1 12.1185 0.764306 12.8563
71 4 7.3824 6.42649 15.0286
280 3 8.98046 5.59865 10.0588
281 3 9.87911 5.59125 12.5174
173 2 11.9595 6.33947 15.2776
278 3 8.60521 6.48721 15.9121
216 1 11.9003 6.65546 14.1607
103 2 5.96812 6.53414 16.0512
347 2 16.2876 0.27407 9.2784
33 4 1.87606 12.8118 2.60307
295 3 7.68811 13.2823 6.99238
181 2 8.99716 6.99497 8.13642
254 3 3.31113 9.80621 7.0264
182 2 7.13131 8.71942 8.35664
385 2 4.72453 13.3437 7.89798
69 4 10.7756 7.20645 6.38298
73 4 8.59751 8.89453 2.02201
74 4 4.94048 11.7972 4.82598
75 4 7.54344 11.3622 0.706886
76 4 9.35515 9.86324 7.70374
78 4 7.80157 12.0293 6.0381
289 3 9.96813 8.43245 6.9224
328 2 10.6509 11.117 2.59404
18 2 10.7519 10.2286 4.22902
104 2 10.0609 9.52468 2.76758
268 3 6.05411 7.05793 4.81024
107 2 8.5623 12.5996 4.65734
176 2 5.55808 9.49612 4.22773
177 2 4.69932 10.3631 2.80258
178 2 3.67762 9.58704 4.22511
179 2 7.21956 7.04841 7.47326
52 4 3.9706 8.7322 7.99776
288 3 6.7714 12.4979 1.45554
217 1 4.63038 10.114 3.90589
293 3 6.35449 11.6367 5.56395
294 3 8.60309 10.8841 6.7488
249 3 2.84483 11.7733 1.86249
251 3 5.06635 7.86672 7.1827
51 4 3.02045 10.4639 0.809328
282 3 8.06702 8.02249 3.24395
283 3 9.09425 7.95176 0.812227
284 3 5.14622 12.9331 3.70199
285 3 3.48148 12.0549 5.78138
286 3 8.97249 11.7847 0.319247
287 3 7.68762 10.1135 1.59145
101 2 12.3445 7.68432 6.07378
353 2 2.98694 13.5828 4.36687
54 4 2.48498 11.014 6.4664
358 2 1.28431 13.387 0.0650921
105 2 4.52474 7.2805 2.67775
24 4 12.0707 8.13644 10.178
29 4 10.0225 11.8569 10.002
62 4 5.9482 13.4888 14.1019
184 2 8.29455 8.89556 9.76742
77 4 4.60854 10.8777 10.2158
79 4 8.26783 8.6975 12.9593
80 4 4.29975 10.6499 15.3245
81 4 7.20716 11.4115 11.7763
82 2 11.3926 9.38752 9.28671
279 3 11.0992 7.04501 10.7131
106 2 4.09772 12.3293 9.30319
152 2 6.12305 8.2228 10.6359
153 2 5.67412 7.98356 12.4101
154 2 4.27372 8.29246 11.1863
220 1 5.50519 13.4941 8.7592
382 1 4.33401 7.60875 16.2861
183 2 7.44899 10.396 9.10085
186 2 9.70043 10.3347 13.8892
187 2 10.6654 9.04116 12.9339
188 2 10.2207 8.72997 14.8212
189 2 5.60046 9.08605 14.0837
190 2 6.40172 9.29955 15.9419
191 2 6.45598 10.7805 14.6088
208 1 5.34174 7.84004 11.3717
221 1 9.94878 9.21272 13.7789
222 1 5.909 9.79867 15.0104
269 3 10.8862 8.01039 16.5127
291 3 4.70782 9.67082 9.18609
383 2 5.12182 7.71739 17.0889
292 3 3.49081 10.4438 11.2709
296 3 7.43383 7.69385 14.1214
297 3 8.69126 7.87607 11.553
384 2 6.3711 12.6989 8.91154
299 3 4.71673 12.3344 14.7359
300 3 3.97111 10.6258 16.9871
301 3 8.55862 11.738 10.8162
302 3 5.92752 11.3395 10.8766
303 3 7.52878 10.0123 12.4434
304 3 7.0245 12.5554 12.8895
319 2 6.42311 10.8655 16.6051
381 2 4.71849 7.44137 15.1788
66 4 9.55992 7.00852 17.0802
174 2 11.1224 7.55533 14.0106
219 1 7.89732 9.36708 8.82238
298 3 3.18119 9.74861 14.4735
290 3 10.5068 10.5796 8.67511
333 2 8.38799 13.5649 13.3515
ITEM: TIMESTEP
200
ITEM: NUMBER OF ATOMS
386
ITEM: BOX BOUNDS xy xz yz pp pp pp
-7.5176100000000003e+00 1.6722200000000001e+01 -7.2105100000000002e+00
-1.7999999999999999e-02 1.3589000000000000e+01 -3.0709999999999998e-01
0.0000000000000000e+00 1.7316099999999999e+01 -1.7999999999999999e-02
ITEM: ATOMS id type x y z
108 2 -3.00321 5.76869 4.88401
2 2 -0.115542 2.22409 2.02478
234 3 0.597625 6.0605 5.83273
4 2 -0.306645 3.27453 4.31064
5 2 -0.525956 1.69811 5.65259
6 1 -1.06972 2.55473 4.92736
10 4 -0.555928 2.93789 8.29459
246 3 2.36556 6.56766 0.897744
12 2 -0.257143 3.18621 6.57052
34 4 4.23903 0.823327 3.63461
36 4 4.07454 1.88464 8.35173
326 2 -0.444811 4.74089 2.11602
109 2 -1.24458 4.94127 4.47597
41 4 2.11077 6.35149 4.62519
379 1 -3.18221 6.38174 1.33379
327 1 -0.0358212 4.93135 1.03135
87 2 2.73814 0.679235 7.67604
7 4 0.514285 3.1059 0.515271
90 2 3.64127 2.43428 3.19914
118 2 4.31913 1.04345 1.35114
197 1 7.93384 0.519028 6.17056
238 3 3.50466 6.31779 5.27082
133 2 3.4312 4.81888 7.57651
322 2 3.20494 2.59585 1.54037
235 3 4.6559 4.98519 0.00911636
126 2 5.59619 2.83985 2.61528
127 2 3.87839 3.66746 2.08745
128 2 4.94191 4.3228 3.66246
129 2 1.258 4.9296 2.61185
130 2 1.46083 4.12367 4.35216
131 2 3.0858 4.39936 3.32226
21 3 0.0974004 0.0392382 3.93505
134 2 1.66167 5.33858 7.20239
37 4 7.06053 1.6367 4.99037
324 2 -0.847549 5.25951 0.272681
362 2 5.77973 1.66356 0.586524
8 2 2.28232 3.52804 0.268527
199 1 4.90779 3.81256 2.63842
200 1 1.98529 4.82532 3.5636
201 1 2.40107 4.902 7.99515
231 3 5.52657 0.977351 4.51558
325 2 0.905424 5.66269 1.09709
236 3 4.84709 2.81415 7.38583
378 2 -2.36982 5.55123 1.19253
192 1 -1.93112 5.96982 4.55445
320 2 2.04149 1.1792 1.31475
321 2 1.68806 2.44442 2.68907
323 1 2.06342 2.27442 1.63769
110 2 -1.87583 6.52612 3.53995
195 1 4.98764 0.341694 1.98948
14 2 -0.3795 5.20677 8.555
360 2 7.26428 0.737388 1.17887
120 2 4.7083 0.0372949 6.6823
117 2 6.14959 0.48022 1.96459
132 2 2.01382 3.96196 8.54788
43 4 6.12251 3.74295 6.92259
160 2 5.11974 1.1047 14.767
91 2 0.825231 5.93301 9.60088
9 3 -0.360293 2.4604 16.472
13 2 -1.37567 4.5825 10.1989
156 2 2.53442 6.42255 13.6276
15 2 0.502688 4.05912 10.0695
16 1 -0.454403 4.37575 9.46121
26 4 -1.77781 4.86393 14.3554
23 4 1.33143 0.184666 14.3932
47 4 0.570584 6.41351 15.5704
42 4 3.22999 6.03166 16.9031
85 2 -1.63774 4.37464 12.7482
119 2 5.40294 0.369186 8.82345
375 2 -1.33792 3.64545 11.2782
123 2 4.2475 1.34305 10.7506
124 2 3.03893 2.77843 10.1821
125 2 4.87712 3.09383 10.4319
232 3 7.4431 0.683473 11.3733
135 2 5.33602 1.96496 13.3764
136 2 4.21676 3.50135 13.9071
137 2 5.66913 2.80845 15.1802
44 4 2.47864 6.35153 9.20742
368 2 3.98403 0.570836 12.2244
198 1 4.13693 2.3425 10.1507
202 1 5.29194 2.94879 14.0057
346 2 1.35868 0.412558 9.86224
241 3 -0.47116 5.61109 14.7156
242 3 1.9694 5.59801 15.6621
243 3 3.40143 6.0491 10.4357
364 2 5.17496 3.02391 16.5905
334 2 0.426606 0.523238 12.1764
335 2 -0.237407 1.68767 13.7366
336 1 -0.142376 0.558957 13.1523
337 2 2.32754 2.55237 14.2887
338 2 3.38209 1.21335 15.0393
339 2 2.02798 2.02356 16.0559
340 1 2.31855 1.71291 15.0052
363 2 6.44837 1.69777 16.1926
92 2 -0.10882 6.48349 17.1625
365 1 5.9411 2.29089 17.0373
244 3 5.34904 5.10378 12.2621
84 2 -3.13192 5.86078 14.3854
223 3 -2.10335 3.64393 15.2195
11 2 0.613564 1.81631 8.66283
17 4 -5.53041 12.5403 4.48561
342 2 -2.23946 9.57912 2.01973
20 1 -5.48577 10.7957 3.64754
345 2 -6.451 13.5533 8.0031
105 2 4.38285 7.2048 2.56496
367 2 0.101537 13.138 6.10287
366 2 -3.11713 12.3945 8.06091
28 4 -2.29294 8.1632 7.99554
49 4 2.83028 7.68657 1.99301
50 4 0.0106209 11.0047 4.34449
83 2 -0.663584 8.37755 4.7068
19 2 -4.50998 10.5283 3.03532
111 2 -4.60472 9.03932 7.0394
112 2 -3.08204 8.83478 5.70859
113 2 -2.98926 10.1802 7.02253
138 2 -0.571728 10.218 2.19847
139 2 -1.50688 8.85082 3.14045
140 2 0.414506 8.74479 3.1524
141 2 -1.4441 11.3277 6.42329
142 2 -2.24725 10.9926 4.69603
143 2 -1.6277 12.7163 5.26238
144 2 0.291661 11.6403 7.14873
102 2 -3.32226 8.7765 0.446126
146 2 -1.11112 12.5118 7.9746
158 2 0.825849 11.296 0.346177
193 1 -3.41408 9.13712 6.78406
203 1 -0.572889 9.4337 3.09292
204 1 -1.46597 11.5884 5.36099
205 1 -0.0866018 12.0186 8.18799
225 3 -1.56741 7.07928 7.03159
329 2 -6.55234 12.8772 6.78834
245 3 1.85873 7.53827 3.34733
376 2 -2.95863 7.12289 2.16545
247 3 0.450816 12.2527 3.30688
248 3 3.07371 9.04797 1.39995
253 3 1.17425 10.7037 5.43348
22 3 -4.22154 13.4226 4.04871
330 2 -5.71697 11.1937 6.31463
331 1 -5.55029 12.357 6.3091
332 2 -4.49824 12.7501 6.82426
25 4 -0.727395 6.89365 5.67448
343 2 -4.26583 9.65823 1.92083
344 1 -3.32072 9.69092 1.26561
250 3 2.77747 7.63963 8.38142
350 2 -4.50578 11.7495 1.51706
351 2 -5.70538 13.2537 1.82077
352 1 -5.01566 12.7113 1.09941
357 2 -2.60086 12.8222 1.95398
341 2 -3.25363 10.7288 0.692658
349 2 -4.27776 13.3999 0.497669
252 3 -1.29242 9.22918 8.60984
377 2 -3.42252 6.89061 0.336509
196 1 -2.87832 13.4937 7.77653
358 2 1.01176 13.0928 0.165049
93 2 1.8207 11.9033 7.76829
145 2 0.606641 12.7558 8.62554
155 2 2.80291 7.45695 12.1663
27 4 -4.77501 9.08741 16.5138
30 4 -2.97029 9.75803 13.907
31 4 -6.59956 12.1569 17.1319
32 4 -4.35707 12.0538 12.254
38 4 0.888603 13.1801 12.3749
53 4 -0.332661 10.4043 9.37751
55 4 1.93506 8.75808 13.918
56 4 -0.943772 12.1892 14.7215
57 4 1.87488 10.4564 11.4379
175 2 -3.72101 7.22525 13.6911
370 2 1.06417 10.6456 15.8886
94 2 -0.031319 11.9065 16.1759
318 2 -5.73552 10.6522 16.9285
114 2 -2.4207 7.69987 12.427
115 2 -1.98999 7.56334 14.278
116 2 -0.970123 8.73828 13.2373
147 2 -0.882966 10.3242 11.6876
148 2 -2.39227 10.8096 10.616
149 2 -1.06457 12.145 10.9925
150 2 -3.12992 13.187 10.5887
151 2 -1.86436 12.7419 11.9588
159 2 -3.14458 12.922 14.8669
348 1 -6.66852 13.4969 9.16251
369 2 0.810107 9.41428 17.292
194 1 -1.96291 8.19009 13.3454
206 1 -1.2952 10.9859 10.8392
207 1 -2.9286 13.1641 11.6957
209 1 2.9982 7.34871 13.2415
211 1 -2.19569 13.5133 15.2411
380 2 3.43411 8.33768 16.2257
224 3 -3.36766 7.57408 9.34171
226 3 -3.97427 9.32983 15.1756
227 3 -6.37979 12.9701 15.7222
228 3 -5.363 12.0014 10.9962
229 3 -3.77998 10.2268 12.6669
230 3 -4.99619 13.0095 13.3886
259 3 1.31138 9.49697 12.6756
317 2 -4.0993 9.17464 11.457
255 3 0.868136 7.89172 14.9972
256 3 -1.90395 10.9009 14.3977