ITEM: TIMESTEP
0
ITEM: NUMBER OF ATOMS
386
ITEM: BOX BOUNDS xy xz yz pp pp pp
-7.6535000000000002e+00 1.6722200000000001e+01 -7.3464000000000000e+00
0.0000000000000000e+00 1.3744161000000000e+01 -3.0709999999999998e-01
0.0000000000000000e+00 1.7316099999999999e+01 1.5516100000000002e-01
ITEM: ATOMS id type x y z
362 2 5.77927 1.38921 0.193894
2 2 0.534962 1.77544 2.36417
3 2 0.318096 2.10127 5.67626
192 1 -2.25448 5.25904 4.63844
5 2 -0.0631842 3.39116 4.23211
6 1 -0.422457 2.52827 4.90246
10 4 -0.729143 3.13876 8.07308
323 1 1.58458 1.54837 0.673699
12 2 -0.491569 3.8157 6.38558
34 4 4.3968 0.464592 3.1104
234 3 0.538921 6.21378 5.54577
37 4 6.85614 1.63818 4.8238
40 4 5.17979 5.06015 1.32328
41 4 2.08713 6.26024 4.60405
330 2 1.21872 0.30026 6.57894
43 4 5.97079 3.99687 7.0425
360 2 7.20246 0.606984 1.44338
379 1 -3.04826 6.29643 1.72671
90 2 3.88995 1.90017 2.24986
108 2 -2.11195 4.75486 6.13993
321 2 2.22528 1.668 1.64865
324 2 -1.68283 3.47082 1.29716
25 4 -1.05527 6.45632 5.74769
378 2 -2.67898 5.90449 2.83408
122 2 6.76566 0.81306 7.00186
126 2 5.44115 2.81863 1.84274
127 2 3.70592 3.51267 2.38815
128 2 5.11995 3.58669 3.60867
129 2 2.33876 4.47799 3.07294
130 2 1.67352 3.81095 4.69997
131 2 3.46511 4.12941 4.51571
133 2 3.24005 4.86331 7.68221
134 2 1.5708 5.55857 7.08834
327 1 -0.632007 3.9689 1.29493
11 2 0.718739 1.85692 7.97366
377 2 -2.39599 5.89781 0.909312
132 2 1.54403 4.23589 8.61565
199 1 4.83086 3.62623 2.53661
200 1 2.43833 4.49442 4.22401
201 1 2.10171 5.15919 7.96984
231 3 5.62734 0.994418 4.05149
235 3 3.7015 5.24915 0.62408
236 3 4.72162 3.05732 7.90047
325 2 -0.574197 4.92947 0.585284
326 2 -0.100998 4.07106 2.30217
320 2 0.752686 0.735132 0.871357
109 2 -1.63931 4.69517 3.96215
238 3 3.36036 6.69693 5.45646
197 1 7.64124 0.755081 6.21503
87 2 2.5589 1.1583 8.51344
1 4 -0.55164 1.20377 3.50794
329 2 3.18636 0.205717 6.57575
322 2 1.94362 1.47823 17.0292
14 2 -0.20774 4.42619 9.38249
9 3 -0.905703 2.4469 16.1115
13 2 -0.156423 2.15541 10.0615
368 2 3.49261 0.668965 12.5625
15 2 1.60949 2.93143 9.96712
16 1 0.502512 2.81263 9.47322
26 4 -2.21684 5.01691 14.2316
36 4 4.09947 2.12418 9.01275
47 4 0.126118 6.84662 15.3559
7 4 -0.0700085 3.09115 17.279
85 2 -1.58825 4.20372 12.8646
232 3 7.12 0.922883 11.2335
119 2 5.36894 0.68279 9.5491
123 2 4.55932 2.57177 11.1702
124 2 2.60839 2.67216 11.3056
125 2 3.53715 4.12584 10.4915
346 2 0.947021 0.561896 9.89371
135 2 5.32158 2.56838 13.8761
136 2 4.27077 3.99843 13.3606
137 2 5.17017 3.97607 15.0015
365 1 5.42119 2.26095 16.5141
44 4 2.8395 6.47102 9.22849
198 1 3.50305 2.94738 10.6719
202 1 5.20627 3.67009 13.9405
363 2 5.9995 1.82367 15.57
241 3 -1.01359 5.89636 14.7247
242 3 1.35835 5.8304 15.9503
243 3 3.67757 5.8532 10.3902
156 2 2.49759 6.73805 13.0955
334 2 0.464165 1.36484 13.0005
335 2 -0.385821 1.54259 14.719
336 1 0.000179783 0.806466 13.9099
337 2 3.59804 1.05806 14.4608
338 2 3.21219 0.849407 16.3368
339 2 2.08125 1.97316 15.2364
340 1 2.82617 1.06061 15.296
42 4 2.69486 6.3934 16.8297
375 2 -1.38181 3.13355 11.4129
364 2 4.41911 2.74954 16.3426
91 2 1.05387 6.22444 9.26303
8 2 1.62053 3.32615 16.9488
381 2 4.81214 5.85626 15.6161
382 1 4.14712 6.85088 15.5792
84 2 -3.39235 6.055 13.48
161 2 5.43937 0.264436 16.2505
196 1 4.01226 0.150884 8.73821
358 2 7.78312 0.515815 17.0909
38 4 8.04098 0.112998 12.3704
17 4 -5.55198 12.6113 4.73817
345 2 -6.20977 13.2495 8.19699
21 3 -7.19976 13.5218 4.18972
369 2 0.681045 10.0836 1.39172
328 2 -5.16914 10.2997 3.44832
22 3 -4.28368 13.3013 3.94828
376 2 -3.15626 7.41591 1.78787
28 4 -2.39982 8.56538 8.03239
49 4 3.10685 8.01384 1.94502
50 4 0.168269 10.8943 4.17768
83 2 -1.73112 6.91703 4.06589
349 2 -4.29108 12.6229 0.708307
111 2 -4.54912 9.42417 7.03855
112 2 -3.02336 9.38094 5.8588
113 2 -3.28571 10.8307 7.10484
138 2 0.691966 8.52505 3.08296
139 2 -0.538433 9.4038 1.98786
140 2 -1.07977 9.00023 3.74114
141 2 -1.28406 11.36 6.27206
142 2 -2.14791 10.8297 4.74237
143 2 -1.53213 12.6058 4.90019
144 2 -0.355211 12.0355 7.04738
145 2 0.485379 12.9415 8.57914
146 2 -1.52258 12.9683 8.39747
118 2 -2.36416 13.3381 1.03829
193 1 -3.49489 9.75637 6.83157
203 1 -0.159856 9.30788 3.02189
204 1 -1.35542 11.5239 5.1607
205 1 -0.464375 12.428 8.12812
93 2 1.37856 11.9926 7.5034
19 2 -4.78463 10.2784 5.28861
245 3 2.15021 7.37049 3.04466
246 3 2.64863 7.52597 0.460659
247 3 0.587745 12.2789 2.99078
225 3 -1.67372 7.4561 6.9144
253 3 1.3841 10.622 5.11503
54 4 2.28351 11.0575 6.41848
195 1 -2.2004 12.7238 2.02225
331 1 -5.105 13.162 6.47006
332 2 -5.15952 12.2129 7.06884
357 2 -2.8943 11.8273 2.28954
343 2 -2.38706 9.22379 0.764769
117 2 -1.04425 12.5586 2.39584
352 1 -5.16709 12.1775 1.27348
350 2 -4.9712 11.0511 1.62233
351 2 -5.62896 12.7849 2.05437
341 2 -4.03274 10.1943 0.604134
20 1 -5.50594 10.6714 4.52613
101 2 -4.17567 8.08653 5.993
254 3 2.87872 9.79145 7.079
367 2 0.509968 13.2995 5.64671
120 2 -3.06815 13.3874 7.70906
210 1 1.05712 10.5506 0.300975
158 2 0.654618 11.6105 0.161005
252 3 -1.41744 9.62847 8.60857
248 3 3.1372 9.54402 1.88924
23 4 -5.95139 13.4639 14.835
27 4 -4.0438 8.61361 16.4086
30 4 -2.6565 9.52987 13.5929
342 2 -2.73999 10.962 16.8653
32 4 -4.49691 12.0115 12.3008
24 4 -4.51238 8.17308 10.0557
53 4 -0.487544 10.7545 9.35556
55 4 1.98936 9.02835 13.6484
56 4 -0.799489 11.8548 14.7801
57 4 1.91037 10.9728 11.4434
366 2 -3.81275 12.8808 9.32044
155 2 2.79963 7.86202 11.6292
94 2 0.485986 11.231 15.7345
317 2 -4.04966 9.30471 11.2637
114 2 -2.57006 7.97525 11.8882
115 2 -1.32724 7.57518 13.2479
116 2 -0.787754 8.7927 11.9368
147 2 -1.03659 11.2371 11.7425
148 2 -2.56647 10.6293 10.7738
149 2 -1.72114 12.4044 10.3292
150 2 -3.30631 13.5217 10.7309
151 2 -2.28589 13.0535 12.3541
102 2 -3.56698 7.09044 17.2183
160 2 -2.95591 12.2699 15.6225
344 1 -3.32638 10.0011 17.2704
194 1 -1.64141 8.35667 12.5549
206 1 -1.59942 11.2703 10.7668
207 1 -3.27963 13.3911 11.9264
209 1 3.01975 7.66352 12.7722
92 2 -0.71765 7.59462 16.5642
211 1 -1.92629 12.6044 16.0549
224 3 -3.36366 7.86218 9.05807
226 3 -3.35866 8.65839 14.9597
227 3 -6.52163 12.5578 16.0564
228 3 -5.44963 11.9622 11.0668
229 3 -3.74912 10.1618 12.5872
230 3 -5.28491 12.5399 13.5852
370 2 0.569244 9.9202 16.785
348 1 -6.8708 13.3913 9.21385
255 3 0.78873 8.05553 14.5457
256 3 -1.66729 10.7208 14.1275
257 3 -0.228387 13.1463 13.7378
258 3 0.946656 10.5085 9.90425
259 3 1.29625 9.84803 12.5398
380 2 3.7434 7.00766 14.5319
159 2 -1.52213 12.0828 16.9667
250 3 3.11528 7.8804 8.67102
58 4 13.2214 0.213921 2.41932
59 4 13.8608 1.07043 7.21742
61 4 12.3716 2.66269 5.16248
312 2 10.336 5.96731 3.30968
67 4 11.2679 4.59193 7.28722
218 1 7.92719 6.81079 7.29586
310 2 12.1693 6.53958 3.80785
96 2 11.5867 1.87182 3.93866
97 2 13.4785 3.58224 4.18906
121 2 8.53813 1.32014 6.6253
272 3 7.18115 4.00328 8.14755
110 2 13.3491 5.38011 4.27833
170 2 8.92911 5.75877 4.37944
171 2 8.09022 4.8866 2.84481
172 2 7.40333 4.5828 4.6254
180 2 7.97704 6.0233 6.46144
214 1 12.8976 5.01619 8.21464
215 1 8.01308 5.29374 3.95661
361 1 8.25141 0.549214 0.869977
270 3 10.6352 3.77711 8.57199
233 3 6.57604 4.49659 0.239283
261 3 14.5948 2.54708 8.23886
263 3 13.0257 1.66299 6.08847
267 3 5.84694 6.37894 1.95958
359 2 8.96911 1.46493 1.05754
271 3 11.4083 3.72612 5.92365
237 3 6.57393 3.23345 5.63804
274 3 10.7316 6.12162 6.94197
4 2 15.2092 2.61435 5.20209
308 4 12.2247 2.52556 0.61426
309 4 11.8676 5.58519 1.6742
386 3 14.6552 1.01072 2.93255
311 2 11.4591 4.90349 4.50621
88 2 8.33651 1.74838 3.85417
313 1 11.4405 5.64863 3.60193
314 3 12.255 1.31643 1.83442
315 3 12.0297 4.04439 1.31287
316 3 10.8209 6.59303 0.910059
353 2 11.0282 0.196872 3.59972
354 2 9.56796 0.790377 4.74474
355 2 9.9804 1.8139 3.26265
356 1 9.96177 0.749624 3.66631
168 2 13.5702 4.04705 8.33691
167 2 13.419 5.77263 7.59597
220 1 12.6443 0.223197 8.50302
86 2 7.47599 2.30021 1.33021
239 3 5.47614 5.43179 6.75932
45 4 4.84346 6.84544 5.94557
39 4 7.65552 2.45712 10.7763
46 4 6.71737 4.51178 13.0844
48 4 5.52132 6.43237 10.8818
60 4 10.5746 2.57649 9.58916
63 4 9.75888 2.67197 15.6478
64 4 12.907 3.5263 11.2308
68 4 7.80055 5.7322 8.83189
70 4 10.9471 4.80849 13.3423
95 2 10.8733 1.10811 8.68845
72 4 9.82082 6.5762 11.0216
89 2 6.88665 2.95544 9.31086
223 3 13.8556 3.93869 15.1072
166 2 14.4303 2.60661 13.0905
163 2 10.6337 0.748054 14.1682
164 2 8.74008 0.417461 14.6349
165 2 14.1837 1.5192 11.3716
98 2 9.07968 1.22055 13.1529
169 2 12.605 5.61924 9.17957
173 2 12.5244 5.87868 15.115
174 2 10.7393 6.47591 15.1152
373 1 12.1283 0.554014 12.8034
71 4 7.67841 6.61979 15.1207
212 1 9.78988 0.847016 14.96
213 1 14.4144 2.61105 11.8788
216 1 11.621 6.19586 14.4832
306 3 13.3786 2.49942 17.2831
240 3 7.36167 3.47085 12.0113
244 3 5.91279 5.61444 12.2113
262 3 9.13404 2.47752 10.3218
264 3 10.6615 2.51665 16.9337
265 3 8.28685 2.88369 16.1479
266 3 11.781 2.512 10.548
273 3 6.50469 6.23046 9.68504
275 3 10.3677 3.63027 14.3756
276 3 12.2151 4.30457 12.4536
277 3 7.54856 5.21305 14.3547
278 3 8.52437 6.84465 16.3911
384 2 12.389 0.952891 9.3693
280 3 9.0846 6.02632 9.68448
281 3 9.83147 5.43355 12.2737
305 4 13.9644 2.51697 15.7853
35 4 6.90691 3.25018 17.1317
307 3 13.5943 1.13689 14.9605
372 2 12.815 0.493455 11.8716
371 2 12.0784 1.64717 13.1514
162 2 10.125 0.360578 15.9529
99 2 13.6558 4.56069 9.97191
33 4 1.73723 13.0968 2.20022
268 3 5.9874 7.05019 4.72828
51 4 2.98516 10.7667 0.867124
52 4 3.99122 8.95409 7.94774
293 3 6.34074 11.5565 5.91575
65 4 6.98679 6.83319 3.55212
69 4 10.9671 7.4984 6.2377
73 4 8.54749 9.11708 2.40134
74 4 4.98519 11.6933 5.06761
75 4 7.24139 11.4421 1.05125
76 4 9.06029 10.0378 7.88738
78 4 7.7687 12.1845 6.0939
105 2 4.74654 7.49046 2.27526
100 2 10.7364 7.225 4.5134
18 2 10.0962 10.3808 4.75714
104 2 9.9955 9.87297 3.13053
66 4 9.84428 7.58914 0.105559
107 2 8.36046 12.4375 4.46978
176 2 5.64738 9.3929 4.5508
177 2 5.02088 10.4391 3.14877
178 2 3.75822 9.5693 4.25222
179 2 6.90564 7.32772 7.27568
185 2 4.43002 13.5075 7.78357
183 2 6.97824 8.85817 8.22928
217 1 4.75583 10.0477 4.22393
181 2 8.81991 7.5062 7.22226
294 3 8.77673 11.1872 6.7947
249 3 2.90129 12.2503 1.44398
251 3 5.23666 8.16298 6.94306
31 4 10.1828 11.635 0.0559419
282 3 8.07637 7.92577 3.31512
283 3 9.05277 8.68625 1.00234
284 3 5.22915 13.0555 3.68182
285 3 3.47525 11.9982 5.97926
286 3 8.79223 11.8513 0.751331
287 3 7.23509 10.2487 2.16559
288 3 6.25653 12.643 1.38952
289 3 10.0013 8.6307 6.83361
295 3 7.70264 13.622 6.87577
279 3 11.3727 7.00337 10.6667
29 4 9.95946 11.8661 10.2828
62 4 5.7741 13.287 14.1054
383 2 4.60231 7.75505 16.0569
77 4 4.61541 11.1194 10.174
79 4 8.46035 8.67229 12.9427
80 4 4.14423 10.6596 15.3783
81 4 7.16094 11.4359 11.9929
82 2 11.1453 9.27414 9.33968
175 2 11.8641 6.99303 13.6996
106 2 4.09016 12.4594 9.19614
152 2 6.19128 8.80633 10.5573
153 2 5.73723 8.47423 12.3792
154 2 4.37983 8.53717 11.175
103 2 6.12172 6.97377 15.7565
182 2 7.97341 9.18394 9.83175
184 2 6.96121 10.5204 9.17557
186 2 9.60753 10.7329 13.755
187 2 10.7721 9.53698 13.0111
188 2 10.1891 9.21127 14.7396
189 2 5.52453 8.94516 14.526
190 2 5.88401 9.26502 16.3882
191 2 6.73917 10.3043 15.0119
208 1 5.48409 8.27275 11.2698
221 1 9.89279 9.64662 13.7228
222 1 5.86013 9.72124 15.3355
269 3 10.6797 8.66331 16.5059
385 2 5.85073 12.861 8.73965
291 3 4.73214 9.9719 9.07567
292 3 3.47238 10.7403 11.1574
296 3 7.98718 7.75419 14.0915
297 3 8.97386 7.96066 11.5932
298 3 3.07572 9.8325 14.5314
299 3 4.79536 12.1831 14.7946
300 3 3.63987 10.7492 16.8457
301 3 8.577 11.7369 11.1268
302 3 5.92069 11.4492 10.9664
303 3 7.25384 10.0165 12.5725
304 3 7.06585 12.5709 13.1922
318 2 10.1588 10.0918 17.0709
319 2 6.34597 10.9113 16.8663
290 3 10.1267 10.4637 8.90651
260 3 1.64885 12.5291 11.8472
219 1 7.57447 9.56882 8.89645
157 2 4.12536 7.73477 13.1176
347 2 8.74908 13.6024 8.99804
374 2 3.7263 13.6915 12.5594
333 2 8.5502 13.6628 13.6386
ITEM: TIMESTEP
100
ITEM: NUMBER OF ATOMS
386
ITEM: BOX BOUNDS xy xz yz pp pp pp
-7.6535000000000002e+00 1.6722200000000001e+01 -7.3464000000000000e+00
0.0000000000000000e+00 1.3744161000000000e+01 -3.0709999999999998e-01
0.0000000000000000e+00 1.7316099999999999e+01 1.5516100000000002e-01
ITEM: ATOMS id type x y z
362 2 5.591 1.34882 0.0371298
2 2 0.253292 1.93368 2.21802
3 2 0.179754 2.19294 5.61022
192 1 -2.25561 5.43182 4.61296
5 2 -0.0417945 3.40892 4.14719
6 1 -0.528299 2.6553 4.85539
10 4 -0.717614 3.19978 8.00475
323 1 1.28705 1.47992 0.611419
12 2 -0.414933 3.85657 6.43084
34 4 4.43421 0.464016 3.17684
234 3 0.570223 6.1186 5.52483
37 4 6.79192 1.77315 4.95259
40 4 5.20644 4.96175 1.09812
41 4 2.09109 6.21265 4.61064
330 2 1.7012 0.359245 6.5144
43 4 5.95403 3.96227 7.16154
360 2 7.24134 0.773337 1.93516
379 1 -3.01679 6.2659 1.5706
90 2 3.92956 1.75845 2.15054
108 2 -2.07254 4.91489 6.12557
321 2 1.94099 1.61143 1.44834
324 2 -1.78957 3.71045 1.26143
25 4 -1.02211 6.4817 5.75579
378 2 -2.45596 5.97181 2.63729
122 2 7.15869 1.11281 7.10157
126 2 5.49897 2.63182 2.03501
127 2 3.74152 3.39277 2.27184
128 2 5.22233 3.93546 3.32766
129 2 2.1241 4.42125 3.02648
130 2 1.59715 3.79487 4.71138
131 2 3.43998 4.09667 4.34024
133 2 3.21893 4.94305 7.59446
134 2 1.51192 5.66782 7.09734
327 1 -0.73586 4.01257 1.25323
11 2 0.761731 2.06452 7.88867
377 2 -2.54129 5.63017 0.774341
132 2 1.62255 4.27883 8.58029
199 1 4.86173 3.49652 2.35242
200 1 2.38788 4.44538 4.15904
201 1 2.14412 5.17872 7.94733
231 3 5.60115 1.08833 4.19344
235 3 3.75726 5.05835 0.315287
236 3 4.9251 3.10979 8.05729
325 2 -0.478736 5.10177 0.618705
326 2 -0.310646 3.98051 2.29918
320 2 0.447449 0.771724 0.87827
109 2 -1.6293 4.8507 3.85043
238 3 3.31698 6.54656 5.52244
197 1 7.70639 0.665968 6.15746
237 3 6.32747 3.28175 5.71798
1 4 -0.592618 1.20719 3.58604
4 2 -1.58806 2.93484 5.25095
361 1 7.97891 0.394594 1.11516
87 2 2.76124 1.32733 8.50553
167 2 -3.24532 5.84751 7.17787
322 2 1.64227 1.37293 17.0022
14 2 -0.0631617 4.37174 9.5325
9 3 -0.988137 2.59788 16.0445
13 2 -0.0678536 2.23648 10.1451
368 2 3.7307 0.573444 12.4742
15 2 1.73157 2.98237 9.86648
16 1 0.529625 2.85635 9.43207
26 4 -2.11144 4.96249 14.0299
36 4 4.34939 2.13287 9.08639
47 4 0.0737926 6.85292 15.3587
7 4 -0.145396 3.21668 17.2141
85 2 -1.59571 4.28542 12.5489
232 3 7.09409 1.16536 11.2384
119 2 5.55158 0.686454 9.50265
123 2 4.4621 2.65961 11.3437
124 2 2.61849 2.52957 11.1262
125 2 3.5264 4.22332 10.7054
346 2 1.06843 0.711413 9.97351
135 2 5.50105 2.58035 13.7357
136 2 4.34068 4.04197 13.2975
137 2 5.19736 4.08455 14.9531
365 1 5.35586 2.25945 16.4808
44 4 2.78723 6.43045 9.30142
198 1 3.54751 3.01406 10.7176
202 1 5.24724 3.69595 13.8638
363 2 5.79714 1.78711 15.5259
241 3 -0.977542 5.9002 14.6331
242 3 1.21356 5.82279 15.9806
243 3 3.55455 5.90747 10.5656
156 2 2.77482 6.53268 13.0077
334 2 0.349283 1.39513 12.8916
335 2 -0.489044 1.54232 14.6045
336 1 -0.143335 0.845593 13.7594
337 2 3.69485 0.929809 14.597
338 2 3.06812 0.705932 16.3804
339 2 2.11792 2.01778 15.1677
340 1 2.75108 1.00743 15.2949
42 4 2.62107 6.35517 16.8929
375 2 -1.43895 3.07228 11.1885
364 2 4.38472 2.81453 16.281
91 2 1.08731 5.99616 9.35818
8 2 1.58878 3.26131 17.0342
381 2 4.65542 5.89845 15.6191
382 1 4.0924 6.83017 15.6641
38 4 7.9196 0.14717 12.3584
161 2 5.30271 0.256517 16.1195
196 1 4.09794 0.137664 8.74759
102 2 -3.58199 6.75575 16.9675
84 2 -3.29846 6.066 13.5913
17 4 -5.49155 12.6006 4.60562
345 2 -6.18262 13.2593 8.26978
21 3 -7.10349 13.4819 4.05774
369 2 0.551562 9.96182 1.43599
328 2 -5.37222 10.3733 3.38486
22 3 -4.20545 13.3263 3.72772
376 2 -3.03079 7.40419 1.27235
28 4 -2.31206 8.5502 7.96123
49 4 2.93897 7.98167 1.97502
50 4 0.210228 10.7449 4.13458
83 2 -1.63472 7.06984 4.09629
349 2 -4.39734 12.6304 0.967056
111 2 -4.77723 9.2658 6.91033
112 2 -3.20889 9.3892 5.6861
113 2 -3.45281 10.5488 7.20236
138 2 0.493834 8.34574 2.97201
139 2 -0.793315 9.47945 2.07366
140 2 -1.11575 8.8869 3.86026
141 2 -1.17172 11.3311 6.16012
142 2 -2.00638 10.4613 4.65436
143 2 -1.79101 12.3208 4.62962
144 2 -0.319769 11.8031 7.17402
145 2 0.40929 13.1031 8.36157
146 2 -1.43813 12.9129 8.37396
118 2 -2.34448 13.2505 1.13424
193 1 -3.62318 9.51656 6.75079
203 1 -0.286299 9.17035 3.0659
204 1 -1.36283 11.3452 4.99892
205 1 -0.398622 12.4002 8.18055
93 2 1.54128 12.0273 7.65858
19 2 -4.90975 10.2479 5.31604
245 3 1.9671 7.19174 3.04254
246 3 2.53497 7.60699 0.469262
247 3 0.675103 12.1187 2.95568
225 3 -1.58364 7.56909 6.93693
253 3 1.22962 10.6326 5.38658
344 1 -3.08 9.53061 0.135022
195 1 -2.13022 12.709 2.14421
331 1 -5.12238 12.952 6.45292
332 2 -5.64271 12.0816 7.00879
357 2 -2.86702 11.8953 2.34984
343 2 -2.15522 8.81513 0.51635
117 2 -0.986938 12.4029 2.35489
352 1 -5.30422 12.0869 1.41942
350 2 -5.09885 11.1016 1.90119
351 2 -5.9305 12.7949 2.00239
341 2 -3.77457 9.94814 0.883256
20 1 -5.69265 10.7283 4.42451
101 2 -4.30068 7.87675 5.96416
329 2 -3.95433 13.0245 6.71646
367 2 -0.21033 13.2455 5.81738
158 2 0.768198 11.5203 0.345453
210 1 1.07557 10.4245 0.428104
358 2 0.123786 13.5574 0.185981
120 2 -3.01033 13.492 7.62728
250 3 3.14223 7.79424 8.62876
23 4 -5.97314 13.4469 14.7008
27 4 -4.07879 8.33175 16.3337
30 4 -2.62164 9.52303 13.6433
342 2 -3.14103 10.4267 16.575
32 4 -4.41957 12.0073 12.2884
24 4 -4.46299 8.22314 10.0473
53 4 -0.430645 10.8738 9.47202
55 4 1.92218 8.92661 13.6446
56 4 -0.843819 11.9607 14.8235
57 4 1.79663 10.9338 11.4097
366 2 -3.72179 12.8903 9.24249
155 2 2.73645 7.8993 11.6595
94 2 0.354092 11.4457 16.0084
317 2 -4.02366 9.19924 11.3706
114 2 -1.98479 8.75683 11.5123
115 2 -1.90755 7.41192 12.8325
116 2 -0.420042 8.54976 12.5125
147 2 -0.906442 10.9272 12.0194
148 2 -2.48338 10.933 10.936
149 2 -1.29291 12.406 10.8979
150 2 -3.13965 13.4115 10.6997
151 2 -2.15899 13.1014 12.4045
159 2 -1.87016 12.1754 17.0099
160 2 -3.00902 12.24 15.5227
260 3 1.31303 12.588 11.5947
194 1 -1.56307 8.44384 12.5141
206 1 -1.38184 11.2731 11.0673
207 1 -3.14028 13.317 11.9142
209 1 2.99551 7.60712 12.718
92 2 -0.594676 7.66595 16.5646
211 1 -2.01926 12.7249 16.0399
224 3 -3.20417 7.90947 9.18244
226 3 -3.42089 8.55468 14.8931
227 3 -6.39988 12.6693 16.0261
228 3 -5.42221 11.9067 11.0994
229 3 -3.67633 10.183 12.6178
230 3 -5.11598 12.4717 13.6534
370 2 0.716123 9.91826 16.8716
348 1 -6.80928 13.5185 9.32645
255 3 0.942048 7.89044 14.4414
256 3 -1.63007 10.7708 14.2238
257 3 -0.361007 13.098 13.5858
258 3 1.07572 10.5721 9.86969
259 3 1.15921 9.91093 12.5878
380 2 3.77539 7.13088 14.5783
252 3 -1.28965 9.68138 8.66807
58 4 13.3157 0.296471 2.60762
59 4 13.8665 1.07388 7.24514
61 4 12.4099 2.70529 5.23522
312 2 10.2482 6.0839 3.41407
67 4 11.2642 4.66593 7.38934
95 2 10.7501 1.15612 8.55786
86 2 7.61104 2.31283 1.20842
96 2 11.5059 1.89912 3.93427
97 2 13.6026 3.63415 4.37302
121 2 8.86641 0.472815 6.21256
272 3 7.32335 3.96793 8.22241
110 2 13.2968 5.56899 4.31138
170 2 8.77859 5.6572 4.49066
171 2 8.01159 4.76564 2.89125
172 2 7.27963 4.45985 4.68258
180 2 7.54142 6.13269 6.54679
214 1 13.0687 5.20636 8.0635
215 1 7.85386 5.21807 4.03141
65 4 6.90928 6.70761 3.48516
270 3 10.6664 3.73187 8.52373
220 1 12.53 0.188468 8.43257
261 3 14.6518 2.49217 8.19179
263 3 13.1594 1.69058 6.06675
267 3 5.61527 6.20799 2.06149
359 2 8.92451 1.14193 0.853722
271 3 11.5416 3.75789 6.11033
218 1 7.72216 6.83533 7.43024
274 3 10.6441 6.01376 6.85835
45 4 4.81421 6.78926 5.98155
308 4 12.2331 2.46207 0.684773
309 4 11.8773 5.6511 1.85367
386 3 14.6057 1.11161 3.14883
311 2 11.4732 5.23804 4.64651
88 2 8.20599 1.78901 3.95621
313 1 11.3672 5.94608 3.73151
314 3 12.1005 1.3589 1.90596
315 3 11.9994 4.0663 1.57055
316 3 10.8063 6.50782 0.988812
353 2 10.9064 0.266598 3.96466
354 2 9.2233 0.533041 4.76057
355 2 9.90545 1.76679 3.55374
356 1 9.88618 0.714479 3.87532
168 2 13.7272 4.29392 8.15405
239 3 5.3899 5.41079 6.87777
39 4 7.72518 2.59893 10.8985
46 4 6.75136 4.67288 13.1564
48 4 5.48259 6.41366 10.9298
60 4 10.5412 2.53589 9.53206
63 4 9.73108 2.59206 15.4928
64 4 12.9074 3.45283 11.1341
68 4 7.80143 5.6777 8.90528
70 4 10.8482 4.6339 13.1533
99 2 13.3746 4.52294 9.86773
72 4 9.89159 6.71466 11.0117
89 2 6.84154 3.32638 9.59584
223 3 13.8855 3.93571 14.9588
166 2 14.6763 2.57114 12.9275
163 2 10.5302 0.521924 14.1429
164 2 8.7134 0.379957 14.859
165 2 14.2166 1.45426 11.4685
98 2 9.12667 1.08311 13.1451
169 2 12.9327 5.7968 8.99291
173 2 12.4328 6.00237 14.9553
174 2 10.5382 6.30171 14.7878
373 1 11.9062 0.249714 12.6889
71 4 7.61236 6.68358 15.2486
212 1 9.74918 0.731761 15.0145
213 1 14.4416 2.56602 11.8617
216 1 11.5407 6.07881 14.246
306 3 13.3328 2.62296 17.3056
240 3 7.48215 3.59581 12.2329
244 3 6.06354 5.84835 12.2901
262 3 9.14666 2.39906 10.3287
264 3 10.8075 2.57945 16.7126
265 3 8.1012 2.98615 16.1257
266 3 11.8342 2.33153 10.4906
273 3 6.45651 6.13382 9.65464
275 3 10.1816 3.44117 14.1741
276 3 12.2272 4.20275 12.3417
277 3 7.58872 5.31661 14.5251
278 3 8.84326 6.68772 16.2781
384 2 12.2788 0.970805 9.33087
280 3 9.07247 5.96976 9.74027
281 3 9.89765 5.48625 12.2393
305 4 14.0021 2.56548 15.8197
35 4 6.85002 3.25177 17.0314
307 3 13.593 1.13232 14.8996
372 2 12.6413 0.172539 11.8016
371 2 11.5055 1.3309 12.827
162 2 10.2438 0.365481 16.01
347 2 16.2161 0.236536 9.16572
175 2 11.7394 6.89653 13.5119
233 3 6.08538 4.6712 17.2893
33 4 1.78861 13.0581 2.33839
268 3 5.77381 6.92285 4.65003
51 4 2.94793 10.7968 0.960413
52 4 4.00574 8.93392 7.95366
293 3 6.34366 11.5011 5.96496
295 3 7.73041 13.6373 6.93393
69 4 10.7824 7.40112 6.17965
73 4 8.59289 9.08933 2.24984
74 4 4.97711 11.8237 5.03427
75 4 7.36073 11.5479 1.08235
76 4 9.30131 10.0693 7.76791
78 4 7.76717 12.2228 6.12214
105 2 4.50834 7.37203 2.1477
100 2 10.3943 7.49184 4.4637
18 2 9.86839 10.5695 4.69596
104 2 9.96684 9.7124 3.09877
66 4 9.92046 7.48643 0.021306
107 2 8.32217 12.5213 4.54663
176 2 5.31511 9.33559 4.88193
177 2 5.14881 10.2105 3.13413
178 2 3.69878 9.92708 4.30481
179 2 6.80269 7.48579 7.57748
248 3 3.18572 9.54028 2.09386
183 2 6.97606 9.62947 7.74438
217 1 4.7773 10.1146 4.21677
181 2 8.62714 7.50587 7.25216
294 3 8.80529 11.156 6.69361
249 3 2.98724 12.2624 1.61719
251 3 5.05022 8.20678 6.82259
185 2 4.28854 13.5464 7.72599
282 3 7.89946 7.93029 3.14386
283 3 8.97439 8.53241 0.869412
284 3 5.25768 13.0699 3.85866
285 3 3.55156 12.1252 5.86237
286 3 8.83623 11.8396 0.585331
287 3 7.52851 10.4186 2.26381
288 3 6.41879 12.8204 1.52752
289 3 10.0713 8.49261 6.97391
54 4 2.3936 11.1396 6.47731
254 3 3.11671 9.92297 7.10794
310 2 11.8851 6.99469 3.82109
279 3 11.4134 7.04899 10.5799
29 4 9.92911 11.9245 10.2621
62 4 5.6876 13.4109 14.0673
383 2 4.53743 7.66909 16.317
77 4 4.56903 11.1217 10.2335
79 4 8.40319 8.76791 12.9195
80 4 4.21962 10.7591 15.3485
81 4 7.20431 11.4003 11.9148
82 2 11.3001 9.47029 9.40034
31 4 9.94281 11.8189 17.2843
106 2 4.10094 12.5884 9.51091
152 2 6.2728 8.65941 10.4225
153 2 5.90463 8.38145 12.2467
154 2 4.5021 8.57283 10.9543
374 2 3.71138 13.1352 12.4866
182 2 7.86881 8.55619 9.1034
184 2 7.49781 10.4847 9.37167
186 2 9.73847 10.659 13.7277
187 2 10.8011 9.32937 12.9639
188 2 10.2911 9.2008 14.7638
189 2 5.64883 9.02675 14.6631
190 2 5.72612 9.42403 16.6005
191 2 6.7911 10.4911 15.3257
208 1 5.53535 8.25275 11.1871
221 1 9.97126 9.574 13.7233
222 1 5.8749 9.81184 15.502
269 3 10.7421 8.64756 16.4687
385 2 5.93634 12.9052 8.79777
291 3 4.84282 9.98889 9.15743
292 3 3.42277 10.7509 11.2833
296 3 7.85069 7.84548 14.1678
297 3 9.12709 8.0439 11.5494
298 3 3.09296 9.84067 14.4388
299 3 4.71105 12.3188 14.8417
300 3 3.66861 10.8436 16.8838
301 3 8.57937 11.7994 11.0998
302 3 5.85897 11.6072 10.9571
303 3 7.45881 9.99284 12.5531
304 3 7.13167 12.4646 13.1921
318 2 10.2102 10.1282 16.9885
319 2 6.29736 11.0226 17.0022
290 3 10.2023 10.5698 8.89609
333 2 8.36534 13.6168 13.4858
219 1 7.68732 9.58471 8.66437
157 2 3.99314 7.94913 12.962
103 2 6.08316 7.0201 15.9394
ITEM: TIMESTEP
200
ITEM: NUMBER OF ATOMS
386
ITEM: BOX BOUNDS xy xz yz pp pp pp
-7.6535000000000002e+00 1.6722200000000001e+01 -7.3464000000000000e+00
0.0000000000000000e+00 1.3744161000000000e+01 -3.0709999999999998e-01
0.0000000000000000e+00 1.7316099999999999e+01 1.5516100000000002e-01
ITEM: ATOMS id type x y z
361 1 7.98834 0.600761 1.27339
2 2 0.297868 1.92822 2.18169
3 2 0.243627 2.16566 5.77218
192 1 -2.2397 5.3674 4.63533
5 2 -0.223961 3.45338 4.3847
6 1 -0.568806 2.53385 5.08175
10 4 -0.567053 3.12524 8.11541
323 1 1.45267 1.77179 0.594624
12 2 -0.310406 3.84032 6.57953
34 4 4.46611 0.339942 3.16195
234 3 0.482994 6.13912 5.68997
37 4 6.82597 1.72972 4.97815
40 4 5.20816 4.8775 1.06738
41 4 2.02195 6.15217 4.62331
330 2 1.1894 0.102301 6.76232
43 4 5.92577 4.0509 7.25152
360 2 6.9736 0.638761 1.75101
379 1 -3.05159 6.20301 1.64624
90 2 3.86203 1.54627 2.08289
108 2 -2.10269 4.68502 5.97919
321 2 1.95107 1.72368 1.60653
324 2 -1.59226 4.01583 1.33044
25 4 -1.04949 6.51719 5.75088
378 2 -2.6764 5.98734 2.73432
122 2 6.9686 0.946572 7.15618
126 2 5.31908 2.3977 1.58022
127 2 3.83156 3.32961 2.42159
128 2 5.60675 3.69921 2.98869
129 2 2.12055 4.72848 2.79368
130 2 1.5292 3.79783 4.43972
131 2 3.36103 4.04427 4.17045
133 2 2.99905 4.84376 7.58127
134 2 1.36913 5.81177 7.13348
327 1 -0.460483 4.25605 1.18333
11 2 0.988262 2.09223 8.04997
377 2 -2.31905 5.61314 1.00115
120 2 4.23062 0.148998 7.53683
199 1 4.92614 3.30956 2.11539
200 1 2.33333 4.45658 3.93338
201 1 2.01374 5.3361 7.98947
231 3 5.61796 1.04079 4.03461
235 3 3.6244 5.06939 0.430078
236 3 4.79862 2.99511 8.17886
325 2 -0.166195 5.30179 0.622572
326 2 0.266881 4.02991 2.01968
320 2 0.583289 1.03999 0.538899
109 2 -1.66949 4.81994 3.83623
238 3 3.32078 6.55268 5.36848
197 1 7.51447 0.615273 6.21911
237 3 6.33474 3.29306 5.85307
1 4 -0.644555 1.37868 3.59106
239 3 5.26062 5.49183 6.84783
358 2 8.04981 0.166856 0.239246
4 2 -1.51835 2.8314 5.54265
21 3 0.154766 0.0549831 4.10148
322 2 1.92389 1.62754 17.0772
14 2 -0.135521 4.28678 9.61738
9 3 -1.00178 2.64895 16.1022
13 2 0.0610132 2.20937 10.336
368 2 3.7026 0.69034 12.4627
15 2 1.79632 3.04793 10.0496
16 1 0.655233 2.89065 9.59354
26 4 -2.20329 4.99266 14.0864
36 4 4.28523 2.01521 9.29228
47 4 0.0590566 6.74362 15.3051
7 4 0.00912271 3.44153 17.0915
85 2 -1.78776 4.30311 12.5571
232 3 7.0065 1.12298 11.4328
119 2 5.49309 0.563304 9.63327
123 2 4.69238 2.62093 11.4474
124 2 2.72778 2.51995 11.3801
125 2 3.55361 4.05834 10.7226
346 2 1.22465 0.590484 10.117
135 2 5.43392 2.63676 13.7433
136 2 4.25223 4.0298 13.0968
137 2 5.02905 4.12169 14.8961
365 1 5.38007 2.18345 16.3119
44 4 2.78088 6.49693 9.2665
198 1 3.67697 2.94511 10.8542
202 1 5.11193 3.75058 13.7933
363 2 5.56727 1.68364 15.366
241 3 -1.02234 5.84184 14.575
242 3 1.29658 5.85661 15.97
243 3 3.58778 5.80691 10.4182
156 2 2.39415 6.68933 13.0502
334 2 0.339768 1.41351 13.1454
335 2 -0.410616 1.54326 14.9422
336 1 -0.0422356 0.880629 14.0769
337 2 3.72258 1.01176 14.4752
338 2 3.21611 0.955733 16.3141
339 2 2.59267 2.27099 15.2522
340 1 2.92578 1.23216 15.2753
42 4 2.65386 6.35436 16.8187
375 2 -1.25076 3.04886 11.5474
364 2 4.44091 2.76156 16.26
91 2 1.05086 6.20283 9.46839
8 2 1.70563 3.35788 16.723
362 2 5.34349 1.46754 17.2321
87 2 2.63493 1.0656 8.87135
102 2 -3.6033 6.91192 17.1226
161 2 5.36643 0.171736 16.0734
381 2 4.81647 6.07386 15.7764
196 1 4.07093 0.101645 8.72767
132 2 1.50402 4.44902 8.69878
17 4 -5.56888 12.574 4.63142
345 2 -6.00392 13.3614 8.36212
101 2 -4.18529 7.62171 6.46981
369 2 0.514211 10.0749 1.4624
328 2 -5.55866 10.5322 3.0327
22 3 -4.32969 13.1954 4.04876
376 2 -2.99568 7.31754 1.51296
28 4 -2.28378 8.63747 7.92294
49 4 2.94913 7.84301 1.98841
50 4 0.222089 10.7296 4.24256
83 2 -1.78103 7.14006 4.1893
349 2 -4.12801 12.279 0.734247
111 2 -4.72879 9.31276 6.91318
112 2 -3.34047 9.19028 5.58875
113 2 -3.0929 10.5875 7.02703
138 2 0.596678 8.51756 2.91454
139 2 -0.756677 9.62497 2.08663
140 2 -1.12165 8.86454 3.74418
141 2 -1.19294 11.0446 6.43953
142 2 -2.12142 10.4951 4.9111
143 2 -1.55257 12.2605 5.05935
144 2 -0.387406 12.0507 7.06533
145 2 0.472858 13.1121 8.42831
146 2 -1.44186 12.922 8.47081
118 2 -2.17686 13.404 1.0669
193 1 -3.56748 9.46822 6.63014
203 1 -0.301293 9.26495 3.03569
204 1 -1.36149 11.2033 5.32799
205 1 -0.403717 12.4284 8.20502
93 2 1.35666 12.1723 7.41827
19 2 -4.70538 10.2082 4.74395
245 3 2.00318 7.27537 3.19065
246 3 2.50873 7.39177 0.49776
247 3 0.602835 12.2155 3.17068
225 3 -1.6529 7.55692 6.74032
253 3 1.37421 10.5437 5.26643
344 1 -2.89396 9.33208 0.173434
195 1 -2.01102 12.693 2.10103
331 1 -5.22965 13.0752 6.4749
332 2 -5.35135 11.9528 6.74442
357 2 -2.71859 11.8135 2.27917
343 2 -2.09637 8.64898 0.614901
117 2 -0.960503 12.5366 2.49574
352 1 -5.14751 12.0029 1.21551
350 2 -4.92761 11.0837 1.93146
351 2 -5.61732 12.8628 1.77221
341 2 -3.69675 9.55294 0.878978
20 1 -5.59199 10.7223 4.17707
248 3 3.21112 9.37912 1.92623
329 2 -4.08441 13.4681 6.59862
367 2 -0.221518 13.1576 5.72655
158 2 0.669862 11.4908 0.129943
210 1 1.01769 10.5014 0.400145
252 3 -1.29328 9.65141 8.503
23 4 -5.82546 13.5384 14.6776
27 4 -4.09785 8.37167 16.3091
30 4 -2.61923 9.49007 13.5621
342 2 -2.79702 10.2956 16.7636
32 4 -4.47068 11.9838 12.387
24 4 -4.47595 8.29242 10.066
53 4 -0.264111 10.7522 9.30548
55 4 1.96185 9.00126 13.662
56 4 -0.79897 11.7573 14.9267
57 4 1.86553 11.0481 11.3797
366 2 -3.55648 12.5828 8.97853
155 2 2.64145 8.00626 11.716
94 2 0.615707 11.2662 15.8122
317 2 -4.02193 9.27956 11.3772
114 2 -2.01455 8.70641 11.3621
115 2 -2.17011 7.33725 12.683
116 2 -0.566898 8.38548 12.6562
147 2 -0.994936 11.1223 11.7459
148 2 -2.37567 10.8008 10.5567
149 2 -1.38608 12.4216 10.4359
150 2 -3.28305 13.4607 10.7152
151 2 -2.31543 12.8774 12.3463
159 2 -1.7008 12.1776 17.0504
160 2 -3.00416 12.1931 15.5348
260 3 1.32754 12.5216 11.7673
194 1 -1.73359 8.33072 12.413
206 1 -1.41396 11.2832 10.6973
207 1 -3.30226 13.3509 11.962
209 1 2.94561 7.67261 12.771
92 2 -0.866155 7.46864 16.449
211 1 -2.00625 12.579 16.0795
224 3 -3.3343 8.07217 8.98813
226 3 -3.45738 8.49053 14.8844
227 3 -6.31875 12.6793 15.9795
228 3 -5.50426 11.9284 11.1818
229 3 -3.55783 10.2243 12.5841
230 3 -5.2569 12.6168 13.6142
370 2 0.799303 9.86206 16.8849