ITEM: TIMESTEP
0
ITEM: NUMBER OF ATOMS
386
ITEM: BOX BOUNDS xy xz yz pp pp pp
-7.6535000000000002e+00 1.6722200000000001e+01 -7.3464000000000000e+00
-1.7999999999999999e-02 1.3589000000000000e+01 -3.0709999999999998e-01
0.0000000000000000e+00 1.7489260999999999e+01 -1.7999999999999999e-02
ITEM: ATOMS id type x y z
108 2 -3.18231 5.94735 5.23653
2 2 -0.156253 2.04241 1.96496
234 3 0.571721 6.02156 5.79973
4 2 -0.191578 3.25435 4.20289
5 2 0.0068152 1.64181 5.52547
6 1 -0.812503 2.50101 4.91664
10 4 -0.294549 2.95024 8.19182
246 3 2.32164 6.49171 1.07929
12 2 0.179808 3.17942 6.51973
34 4 4.3572 0.956569 3.50549
36 4 4.02452 1.98463 8.33405
326 2 -0.558407 4.61781 2.1452
109 2 -1.7857 5.18177 4.03685
41 4 1.96871 6.09338 4.71711
21 3 0.17744 0.0122665 3.9586
327 1 -0.161972 4.87918 1.08797
87 2 2.70927 0.972224 7.65112
7 4 0.387413 2.96308 0.517144
90 2 3.68702 2.55795 3.34399
118 2 4.49102 0.988697 1.23175
197 1 7.61792 0.375789 6.3595
238 3 3.51236 6.17235 5.38103
133 2 3.31524 4.84086 7.27235
322 2 3.15229 2.78484 1.14104
235 3 4.5164 5.03798 0.0730861
126 2 5.78312 3.03301 2.77515
127 2 4.06305 3.38494 2.00346
128 2 4.82342 4.29973 3.57326
129 2 1.1655 4.75084 2.58259
130 2 1.57351 3.86343 4.40882
131 2 3.19076 4.40351 3.18422
132 2 1.95751 3.9654 8.27853
134 2 1.51908 5.36633 7.10367
37 4 7.09093 1.72265 5.13314
324 2 -0.951963 5.18148 0.415071
362 2 6.0124 1.43764 0.372518
120 2 4.84072 0.00431271 7.03215
199 1 5.00317 3.79867 2.57944
200 1 2.006 4.63632 3.56551
201 1 2.2986 4.90288 7.78233
231 3 5.7703 1.18667 4.49618
325 2 0.835468 5.55034 1.09909
236 3 4.78922 2.99675 7.37997
376 2 -3.07079 6.53198 1.6337
192 1 -2.19979 6.1103 4.61576
320 2 2.18353 1.15633 1.34512
321 2 1.7948 2.42969 2.5729
323 1 2.13911 2.24766 1.50837
11 2 0.912806 1.79392 8.68204
195 1 5.10321 0.301458 1.91015
14 2 -0.450284 5.24702 8.30402
360 2 7.38671 0.33975 1.03389
122 2 7.42692 0.659277 7.48278
117 2 6.2687 0.419795 1.81426
3 2 -1.40262 3.01186 5.75975
43 4 6.08237 3.84777 6.96444
378 2 -2.54334 5.18974 0.269649
160 2 5.09505 0.916055 15.0507
91 2 0.752151 5.88693 9.4215
9 3 -0.554941 2.26235 16.7034
13 2 -1.54538 4.63145 9.92414
156 2 2.53094 6.31045 13.9321
15 2 0.428756 4.29191 9.8803
16 1 -0.58321 4.47725 9.22359
26 4 -1.7944 4.67352 14.3887
23 4 1.3423 0.265611 14.5007
47 4 0.586826 6.40379 15.606
42 4 3.06492 6.05275 17.1829
85 2 -2.01735 4.74824 12.6816
119 2 5.25242 0.325665 9.08006
375 2 -1.49741 3.84749 11.1615
123 2 4.07252 1.4089 10.8381
124 2 2.85941 2.85489 10.1076
125 2 4.71732 3.1576 10.5491
232 3 7.30965 0.723813 11.4612
135 2 5.88426 1.69499 13.3733
136 2 4.53457 2.96852 13.6839
137 2 5.75236 2.36009 15.153
44 4 2.41339 6.18806 9.17687
368 2 3.73508 0.5149 12.5065
198 1 3.96235 2.38361 10.2033
202 1 5.54328 2.58818 14.014
346 2 1.55926 0.436872 9.53717
241 3 -0.609304 5.6468 14.8748
242 3 1.92047 5.61203 15.72
243 3 3.35183 5.72886 10.3699
364 2 5.46718 2.99946 16.8629
334 2 0.489684 1.14177 12.2608
335 2 -0.358443 1.93866 13.7614
336 1 -0.110806 1.04557 13.1882
337 2 2.42613 2.49936 14.0325
338 2 3.29951 1.37751 15.3228
339 2 1.77025 2.39604 15.7924
340 1 2.28042 1.83712 14.9635
363 2 6.68192 1.60565 16.2524
92 2 -0.151112 6.30305 17.1941
365 1 6.19518 2.13076 17.1649
244 3 5.40478 4.82905 12.2744
347 2 -0.354777 0.442142 9.60712
223 3 -1.9187 3.20999 14.8596
8 2 1.71378 3.3848 17.4592
17 4 -5.46569 12.678 4.46077
342 2 -2.09037 9.59701 2.04849
20 1 -5.57137 10.9489 3.47842
349 2 -4.53699 13.4969 0.405235
105 2 4.33086 7.06037 2.82365
367 2 -0.325608 12.9739 6.04596
366 2 -3.43414 12.4968 8.15671
28 4 -2.46431 8.37212 8.13198
49 4 2.81797 7.56366 2.24757
50 4 0.0620473 11.0194 4.34302
83 2 -0.553462 8.42626 4.87603
19 2 -4.65563 10.7763 2.82034
111 2 -4.83616 9.04809 7.23984
112 2 -3.1866 9.11029 5.98507
113 2 -3.49142 10.4787 7.24786
138 2 -0.360597 9.9652 2.22329
139 2 -1.42163 8.96951 3.30307
140 2 0.477994 8.70244 3.35911
141 2 -1.6828 11.2706 6.30124
142 2 -2.15871 10.6665 4.56277
143 2 -1.81813 12.5519 4.97014
144 2 0.0493728 11.5685 7.35914
102 2 -3.18875 8.71261 0.411993
146 2 -1.2813 12.598 8.23377
158 2 0.846922 11.1838 0.502986
193 1 -3.62119 9.36911 7.02122
203 1 -0.422363 9.43896 3.17637
204 1 -1.55508 11.4804 5.22274
205 1 -0.275234 12.0431 8.38176
225 3 -1.81456 7.21144 7.08533
329 2 -6.58964 12.8471 6.71866
245 3 1.86748 7.47403 3.64694
110 2 -2.28714 7.07062 3.84926
247 3 0.581571 12.1616 3.38651
248 3 3.03817 8.98024 1.56577
253 3 1.186 10.7064 5.53678
93 2 1.64358 11.6053 8.06422
330 2 -5.47933 11.184 6.19274
331 1 -5.53525 12.4584 6.27931
332 2 -4.53321 12.8543 6.89253
25 4 -0.933681 6.89156 5.67869
343 2 -4.07381 9.75555 1.91574
344 1 -3.14942 9.7107 1.26296
22 3 -4.08683 13.502 4.05343
350 2 -4.60829 11.8828 1.30498
351 2 -6.01527 13.0948 1.70024
352 1 -5.21351 12.7256 0.940523
357 2 -2.55926 12.8003 1.87398
341 2 -3.00515 10.6595 0.702116
196 1 -3.06828 13.574 8.04507
345 2 -6.91367 13.2775 7.99462
155 2 2.6117 7.21306 12.2394
27 4 -4.72344 9.16158 16.6879
30 4 -2.93967 9.62055 14.1054
31 4 -6.73487 12.052 17.1465
32 4 -4.65257 11.9475 12.4549
38 4 0.627621 13.3545 12.5653
53 4 -0.553098 10.5722 9.61388
55 4 1.95216 8.78323 14.0032
56 4 -0.971355 12.1958 15.023
57 4 1.68654 10.569 11.6001
175 2 -3.69818 7.06071 14.1324
370 2 1.46713 10.6657 16.3595
94 2 0.156521 11.7295 16.2641
318 2 -5.70423 10.6084 16.8951
114 2 -2.53039 7.77207 12.5896
115 2 -2.13436 7.24942 14.5147
116 2 -0.928981 8.43314 13.6369
147 2 -1.37005 10.1245 11.7475
148 2 -2.77846 11.0108 10.927
149 2 -1.362 12.0264 11.553
150 2 -3.54073 13.1576 10.7818
151 2 -2.16784 12.9335 12.2349
159 2 -3.3556 12.8396 15.2594
252 3 -1.47529 9.51976 8.81333
161 2 -2.13345 13.3653 16.706
194 1 -2.01142 8.03719 13.6486
206 1 -1.72176 11.0135 11.111
207 1 -3.2705 13.1527 11.9345
209 1 2.89562 7.26829 13.3663
211 1 -2.37255 13.3749 15.5472
380 2 3.25802 8.39469 16.8534
224 3 -3.55274 7.68836 9.40776
226 3 -3.98335 9.2401 15.2761
227 3 -6.63674 13.0426 15.8592
228 3 -5.75218 11.9244 11.3049
229 3 -3.80983 10.2382 12.8188
230 3 -5.17131 12.8035 13.6927
259 3 1.27425 9.48716 12.7927
317 2 -4.27479 9.09256 11.6675
255 3 0.845398 7.95893 15.1935
256 3 -1.71994 10.8862 14.6057
257 3 -0.175999 12.991 13.8805
258 3 0.860454 10.1621 10.1019
250 3 2.76001 7.66121 8.80565
348 1 -6.77708 13.5696 9.19765
260 3 1.37412 12.0661 12.0483
145 2 0.532079 12.7046 8.77878
210 1 1.0395 10.3527 17.4022
157 2 3.99339 7.39409 13.4636
369 2 0.368973 9.42973 17.3345
35 4 7.85011 3.22848 0.463978
59 4 13.8957 0.845824 7.48191
61 4 12.62 2.59359 5.35108
354 2 9.89533 1.71093 4.42377
67 4 11.5145 4.52774 7.31388
86 2 7.95367 1.90895 1.64879
40 4 5.72052 5.16668 1.39251
96 2 11.7213 1.79205 4.1052
97 2 14.0663 3.10048 4.57722
379 1 13.3838 5.94364 0.58315
359 2 9.27633 1.01477 1.01794
121 2 8.78317 0.45758 6.04185
170 2 9.23499 5.56075 3.78234
171 2 7.44467 4.68868 3.47492
172 2 7.88624 5.26939 5.29814
356 1 10.0181 0.830151 3.72969
214 1 13.2855 4.88528 8.10653
215 1 8.06281 5.44957 4.12819
88 2 8.31765 1.73081 3.81458
233 3 7.12712 4.60762 1.03251
270 3 10.9188 3.46879 8.46044
167 2 13.8379 4.96115 7.08486
263 3 13.015 1.46044 6.32371
267 3 5.78128 6.4461 2.25898
272 3 7.31028 3.82093 8.48275
271 3 11.7931 3.77446 5.84209
361 1 8.48367 0.121841 0.91951
274 3 10.656 5.96393 7.07652
237 3 6.98368 3.18558 5.78299
308 4 12.4979 2.31667 0.588847
309 4 11.7679 5.30802 1.41866
310 2 10.82 4.89367 3.70025
239 3 5.73844 5.32682 6.61762
180 2 8.28993 6.07077 6.81736
313 1 11.2276 5.8524 3.37673
314 3 12.2953 1.06464 1.59196
315 3 11.9881 3.80375 1.53852
316 3 10.5719 5.88796 0.512715
311 2 10.4601 6.71256 3.13736
386 3 14.3597 0.768592 3.28235
355 2 10.7736 0.980818 2.93975
261 3 15.0102 2.13107 8.2484
218 1 7.97595 6.54288 7.77704
168 2 13.6375 4.04144 8.72449
45 4 4.94766 6.5837 6.03514
312 2 12.1345 6.12337 3.99335
1 4 15.8821 1.19202 3.46298
169 2 13.3235 5.86952 8.66197
306 3 13.9927 2.61219 0.107574
39 4 7.81983 2.23573 10.9428
46 4 6.5072 4.03815 13.1279
371 2 12.2948 1.82555 13.838
60 4 10.6179 2.3138 9.54987
63 4 10.0469 2.82982 16.0043
64 4 12.5885 3.67591 11.2636
68 4 7.61761 5.27276 9.1704
70 4 10.9716 5.057 13.7435
305 4 14.5654 2.16499 16.0852
72 4 9.62372 6.52631 11.3696
99 2 12.5688 4.95437 9.97986
166 2 14.5577 2.90595 12.6672
162 2 10.065 0.868971 14.6776
163 2 8.90275 2.19392 13.9071
164 2 8.34812 1.11573 15.4124
165 2 14.3028 2.14325 10.954
377 2 12.8073 6.6397 17.2869
374 2 11.1816 0.430392 12.9738
333 2 15.7501 0.271609 13.1447
307 3 14.0271 0.758657 15.477
98 2 9.41771 0.609226 13.0205
185 2 12.3005 0.339562 9.66693
212 1 9.12945 1.53666 14.7658
213 1 14.3999 3.1361 11.568
48 4 5.07226 5.98969 10.9722
89 2 6.76349 2.81145 9.68234
240 3 7.67068 3.23057 12.2826
372 2 12.9401 0.830564 12.1956
262 3 9.29047 2.15312 10.3136
264 3 11.1579 1.97494 16.749
265 3 8.73178 3.21995 16.93
266 3 11.8358 2.46708 10.6659
273 3 6.24866 5.84169 9.86027
275 3 10.5942 4.1656 14.9964
276 3 12.0213 4.30786 12.7208
277 3 7.08327 5.06347 14.4958
373 1 12.1977 0.86952 13.1792
71 4 7.189 6.55083 15.1151
280 3 8.86326 5.43629 10.2471
281 3 9.79351 5.77952 12.8912
173 2 11.8966 6.27053 15.6062
278 3 8.51178 6.65152 16.0257
216 1 11.8629 6.61952 14.4589
103 2 5.76774 6.73233 16.0958
84 2 13.4711 5.50612 14.813
95 2 11.0082 0.829999 8.77345
33 4 1.81291 12.9612 2.52715
295 3 7.54527 13.3056 6.93257
65 4 6.96919 6.96402 3.76391
100 2 10.2804 6.96704 4.75897
182 2 6.92012 8.58862 8.31182
385 2 4.6282 13.2175 7.83856
69 4 10.7686 7.27018 6.36248
73 4 8.4935 8.84251 1.96685
74 4 4.93521 11.6587 4.84378
75 4 7.40132 11.3077 0.803284
76 4 9.06195 9.8149 7.7519
78 4 7.72909 11.9963 6.00654
289 3 9.98308 8.47739 7.02114
58 4 5.90786 13.5222 2.49326
18 2 10.9 10.0819 4.12102
104 2 9.83529 9.73198 2.70379
268 3 6.0148 7.3541 4.93122
107 2 8.72113 12.4065 4.59913
176 2 4.82722 9.15755 4.51573
177 2 5.04169 10.1481 2.93544
178 2 3.35895 10.0662 3.66885
179 2 7.02004 7.11312 7.69022
52 4 3.92626 8.68475 8.06673
288 3 6.64363 12.4738 1.50947
217 1 4.48571 10.0905 3.90565
293 3 6.2849 11.422 5.55017
294 3 8.69433 10.8391 6.61933
249 3 2.78284 11.7193 1.92247
251 3 4.98311 7.6976 7.34771
51 4 2.99162 10.4914 0.870912
282 3 8.08657 7.93612 3.17715
283 3 9.09751 8.04761 0.759936
284 3 5.04154 12.802 3.65614
285 3 3.5081 11.9337 6.15873
286 3 8.87418 11.6902 0.309109
287 3 7.32567 9.89428 1.48884
220 1 5.37922 13.4087 8.72963
353 2 2.86942 13.4572 4.45531
54 4 2.34796 10.9591 6.61018
181 2 8.83935 7.20298 8.20149
254 3 3.16272 9.6721 6.9073
328 2 10.2051 11.4593 2.82768
101 2 12.358 7.75809 5.96353
24 4 12 8.1454 10.3011
29 4 9.8735 11.9517 10.2229
62 4 5.79207 13.2516 14.247
184 2 8.03681 8.67993 9.86871
77 4 4.56754 10.7572 10.2618
79 4 8.10647 8.60011 13.0073
80 4 4.09982 10.822 15.3855
81 4 7.16514 11.49 11.8386
82 2 11.1762 9.41979 9.51284
279 3 11.0328 7.04731 10.7466
106 2 3.95458 12.1051 9.35075
152 2 6.02334 8.26082 10.8916
153 2 5.68608 7.60547 12.6697
154 2 4.24888 8.2106 11.5283
290 3 10.0637 10.5571 9.03621
382 1 4.07115 7.63074 16.6222
183 2 7.20458 10.2627 9.1189
186 2 9.62577 10.2193 14.0315
187 2 10.6027 8.77005 13.2205
188 2 9.8356 8.61131 14.9284
189 2 5.4541 9.0792 14.4932
190 2 5.84319 9.35507 16.3028
191 2 6.65907 10.4763 15.0275
208 1 5.2878 7.70386 11.5931
221 1 9.779 9.11636 13.9585
222 1 5.74571 9.89171 15.2983
269 3 10.9199 8.03841 16.7754
291 3 4.76318 9.58728 9.23321
383 2 4.98114 7.76733 17.2938
292 3 3.40701 10.4484 11.3272
296 3 7.26727 7.65053 14.0296
297 3 8.67802 7.81673 11.5673
384 2 6.0463 12.4817 8.90562
299 3 4.67927 12.2952 14.8117
300 3 3.69789 10.8368 17.1144
301 3 8.40219 11.8478 10.8348
302 3 5.85253 11.396 10.9794
303 3 7.40648 10.0584 12.6288
304 3 7.04328 12.6511 13.0358
319 2 6.41991 11.1013 16.7581
381 2 4.30245 7.55765 15.5536
66 4 9.60624 7.1247 17.1769
174 2 11.0162 7.51662 14.3015
219 1 7.67172 9.19812 8.8861
298 3 2.94325 9.9212 14.6593
358 2 1.05088 13.129 17.4725
ITEM: TIMESTEP
100
ITEM: NUMBER OF ATOMS
386
ITEM: BOX BOUNDS xy xz yz pp pp pp
-7.6535000000000002e+00 1.6722200000000001e+01 -7.3464000000000000e+00
-1.7999999999999999e-02 1.3589000000000000e+01 -3.0709999999999998e-01
0.0000000000000000e+00 1.7489260999999999e+01 -1.7999999999999999e-02
ITEM: ATOMS id type x y z
108 2 -2.72293 5.46575 5.17935
2 2 -0.148901 2.03074 2.03388
234 3 0.580763 5.98429 5.63413
4 2 -0.369367 3.36091 4.13836
5 2 0.0263075 2.06808 5.46147
6 1 -0.814208 2.51808 4.89418
10 4 -0.56305 2.92049 8.11457
246 3 2.40325 6.56252 1.1452
12 2 -0.147632 3.42934 6.56836
34 4 4.34924 0.884811 3.5742
36 4 4.03454 1.98388 8.33714
326 2 -0.474438 4.9121 2.27536
109 2 -1.50328 5.4137 3.72618
41 4 1.95408 6.08135 4.73916
378 2 -2.27982 5.51708 1.25143
327 1 -0.189493 5.0309 1.24073
87 2 2.80012 0.801636 7.58853
7 4 0.404867 3.03904 0.612416
90 2 3.67162 2.46497 3.40872
118 2 4.33745 1.2722 1.30891
197 1 7.78792 0.431505 6.36919
238 3 3.34958 6.3274 5.5169
133 2 3.34971 4.938 7.53181
322 2 3.01201 2.59818 1.28455
235 3 4.54529 5.09401 0.158327
126 2 5.72756 3.10958 2.83688
127 2 3.9381 3.3287 2.04431
128 2 4.59673 4.61565 3.37974
129 2 1.07024 4.68406 2.7527
130 2 1.63111 3.76138 4.44385
131 2 2.95254 4.31962 3.23791
132 2 2.01741 4.05235 8.50579
134 2 1.47672 5.08921 7.10719
37 4 7.13998 1.63895 5.10056
324 2 -1.06967 5.29637 0.606045
362 2 5.85651 1.60358 0.533263
8 2 2.04984 3.69415 0.304701
199 1 4.87029 3.81552 2.58172
200 1 1.87234 4.53862 3.65395
201 1 2.27407 4.94154 7.94122
231 3 5.75907 0.975557 4.51929
325 2 0.859935 5.63917 1.15595
236 3 4.82039 2.94291 7.41467
22 3 3.08282 0.0174861 4.02936
192 1 -2.06374 6.10597 4.44888
320 2 1.88663 1.07236 1.1736
321 2 1.75469 2.39513 2.62598
323 1 1.94516 2.20708 1.51277
11 2 0.789754 1.7633 8.40005
195 1 4.89249 0.366493 1.87939
14 2 -0.352394 5.22897 8.46173
360 2 7.26616 0.622468 1.39465
122 2 7.61032 0.753905 7.4691
117 2 6.02276 0.192636 1.73505
3 2 -1.49002 3.02864 5.57628
43 4 6.08533 3.81572 7.01067
379 1 -3.24348 6.06395 1.07079
120 2 4.9653 0.171698 6.81907
160 2 5.15738 0.862824 15.0187
91 2 0.824238 5.81448 9.62414
9 3 -0.451475 2.19658 16.6997
13 2 -1.4219 4.63693 9.98517
156 2 2.6609 6.41115 14.0042
15 2 0.470297 4.05639 9.78865
16 1 -0.539896 4.40816 9.24839
26 4 -1.75628 4.82047 14.3906
23 4 1.26211 0.295685 14.656
47 4 0.5295 6.34562 15.6936
42 4 3.09111 6.15639 17.0799
85 2 -1.78316 4.67718 12.7027
119 2 5.2711 0.328578 8.87008
375 2 -1.38247 3.84631 11.1046
123 2 4.28788 1.48656 10.8581
124 2 3.05325 2.87356 10.222
125 2 4.99684 3.17927 10.3521
232 3 7.3844 0.719285 11.527
135 2 5.75302 1.7269 13.4691
136 2 4.3528 3.04033 13.7695
137 2 5.67747 2.58152 15.0992
44 4 2.41445 6.26999 9.29225
368 2 3.92054 0.529098 12.5449
198 1 4.17139 2.41622 10.1874
202 1 5.46414 2.70041 14.0042
346 2 1.37538 0.446841 9.93506
241 3 -0.384497 5.55616 14.7154
242 3 2.14539 5.56225 15.9414
243 3 3.50764 5.82053 10.3682
364 2 5.30585 2.9756 16.7816
334 2 0.12594 0.88236 12.4988
335 2 -0.380126 1.67534 14.0436
336 1 -0.194598 0.684458 13.5431
337 2 2.32219 2.55255 14.2341
338 2 3.15897 1.36915 15.3833
339 2 1.78074 2.42196 15.9357
340 1 2.21282 1.86849 15.1177
363 2 6.57437 1.57776 16.3461
92 2 -0.215769 6.25231 17.2561
365 1 6.0542 2.23378 17.1892
244 3 5.33239 5.01225 12.28
377 2 -3.63495 6.2732 17.4589
223 3 -2.13174 3.49965 15.1375
84 2 -3.12469 5.84942 14.7313
89 2 6.74647 2.42146 9.63419
161 2 5.20198 0.0123743 16.7558
17 4 -5.61785 12.6657 4.4228
342 2 -2.22707 9.44929 2.10154
20 1 -5.55855 10.9239 3.51772
345 2 -6.27982 13.4244 8.13483
349 2 -4.56852 13.3141 0.367646
367 2 -0.152095 13.0564 6.12871
366 2 -3.1778 12.4577 7.81456
28 4 -2.44621 8.37525 8.11302
49 4 2.80586 7.68412 2.26263
50 4 -0.0349938 10.9185 4.35491
83 2 -0.736459 8.37075 4.91081
19 2 -4.52632 10.4789 3.13596
111 2 -4.72513 9.15234 7.07151
112 2 -3.19021 8.7774 5.91521
113 2 -3.25581 10.3897 7.10409
138 2 -0.389941 9.96732 2.23192
139 2 -1.59694 8.79236 3.28882
140 2 0.34053 8.58456 3.26008
141 2 -1.11327 11.6611 6.4978
142 2 -2.04825 10.4282 5.22277
143 2 -1.91662 12.3911 4.87886
144 2 0.179924 11.4568 7.38383
102 2 -3.44145 8.56178 0.823409
146 2 -1.28236 12.5718 8.12317
158 2 0.441288 10.9301 0.26159
193 1 -3.58924 9.26418 6.89699
203 1 -0.565362 9.36905 3.20845
204 1 -1.46037 11.516 5.39585
205 1 -0.222049 11.931 8.34059
225 3 -1.66218 7.25416 7.18753
329 2 -6.55812 12.9054 6.78219
245 3 1.79849 7.55497 3.50726
110 2 -2.53652 7.0464 4.03741
247 3 0.401669 12.3036 3.30047
248 3 2.92555 9.08749 1.54617
253 3 1.21086 10.6072 5.47638
93 2 1.6583 11.8 7.89386
330 2 -5.5382 11.2941 6.20245
331 1 -5.59953 12.4961 6.25207
332 2 -4.59986 12.8626 6.74941
25 4 -0.886737 6.83252 5.70867
343 2 -4.17204 10.0692 1.89833
344 1 -3.2188 9.6208 1.29339
250 3 2.58596 7.68249 8.677
350 2 -4.57558 11.8583 1.6371
351 2 -5.95606 13.1851 1.7122
352 1 -5.17942 12.6147 1.02662
357 2 -3.07954 12.9801 1.84129
341 2 -2.91376 10.3932 0.468056
21 3 -7.27755 13.5463 3.81627
376 2 -3.37617 6.98362 1.73477
196 1 -2.99177 13.5366 7.73513
155 2 2.52609 7.21774 12.2694
27 4 -4.72881 9.04184 16.8011
30 4 -3.03252 9.79755 14.0779
31 4 -6.7433 12.0486 17.2203
32 4 -4.45507 12.036 12.4573
38 4 0.78834 13.2546 12.5401
53 4 -0.457524 10.4145 9.51637
55 4 1.86217 8.75999 14.0184
56 4 -1.14456 12.1801 14.9809
57 4 1.7428 10.5426 11.621
175 2 -3.78234 7.0965 13.9021
370 2 1.38906 11.0217 16.2645
94 2 -0.246963 11.7136 16.4422
318 2 -5.69422 10.559 17.0539
114 2 -2.50406 7.73236 12.7022
115 2 -2.03968 7.49205 14.552
116 2 -1.06551 8.6721 13.3866
147 2 -1.09115 10.3764 11.7225
148 2 -2.62035 10.836 10.7275
149 2 -1.19349 12.1628 11.09
150 2 -3.44166 13.2684 10.7884
151 2 -1.95615 12.9793 11.9663
159 2 -3.35196 12.9471 15.3872
252 3 -1.36392 9.39823 8.76063
380 2 3.46598 8.38503 16.5564
194 1 -2.05047 8.18016 13.6279
206 1 -1.4995 11.0237 10.939
207 1 -3.07881 13.2306 11.9009
209 1 2.90801 7.33471 13.3813
211 1 -2.37234 13.484 15.6281
145 2 0.583365 12.631 8.79337
224 3 -3.60429 7.65486 9.39778
226 3 -3.9226 9.36487 15.5151
227 3 -6.54953 13.0686 15.9879
228 3 -5.59221 11.9128 11.1725
229 3 -3.78152 10.2503 12.7386
230 3 -5.05646 12.7025 13.7282
259 3 1.09096 9.3674 12.8473
317 2 -4.30091 9.13798 11.5733
255 3 0.850883 7.82107 15.2937
256 3 -2.00981 10.8848 14.6515
257 3 -0.158846 12.8656 13.8735
258 3 0.95745 10.1709 10.1022
348 1 -6.69529 13.4939 9.18591
210 1 1.02394 10.4387 17.2096
260 3 1.48914 12.0806 11.8347
369 2 0.856701 9.31666 16.9936
35 4 7.80797 3.21949 0.328072
59 4 13.9306 0.940555 7.5443
61 4 12.6048 2.50386 5.35241
354 2 9.77381 1.87196 4.11382
67 4 11.4237 4.35358 7.39167
86 2 7.85114 2.05798 1.69839
40 4 5.62718 5.14193 1.30517
96 2 11.5873 1.77431 4.14065
97 2 13.9723 2.85954 4.31982
100 2 10.278 6.71741 4.80858
359 2 9.28925 1.09925 1.37972
121 2 8.90672 0.48645 6.13455
170 2 9.24125 5.53616 3.57369
171 2 7.67137 4.5212 3.10804
172 2 7.95862 4.98785 4.93409
356 1 9.95122 0.833845 3.61377
214 1 13.1193 4.92497 8.09107
215 1 8.0515 5.28766 3.84773
88 2 8.18751 1.67244 3.74416
233 3 7.07193 4.56016 0.883996
270 3 10.8456 3.26173 8.4425
58 4 13.2987 0.0179459 2.42884
263 3 12.9562 1.46513 6.46969
267 3 5.79072 6.53961 2.06289
272 3 7.04826 3.69755 8.54777
271 3 11.9628 3.84792 5.71987
361 1 8.39789 0.263248 1.16577
274 3 10.7053 5.80818 7.28784
237 3 6.97044 3.0526 5.8119
308 4 12.5301 2.27745 0.511615
309 4 11.8236 5.19812 1.36726
310 2 10.8366 4.96053 3.85437
239 3 5.68458 5.31201 6.62233
180 2 8.30576 5.83266 6.83297
313 1 11.1862 5.89949 3.24333
314 3 12.3621 1.00194 1.60381
315 3 12.1916 3.66438 1.31064
316 3 10.613 5.77865 0.50622
311 2 10.3711 6.59266 3.00504
386 3 14.4364 0.947664 3.12451
355 2 10.747 0.912019 2.78583
261 3 14.6863 2.12576 8.35127
218 1 8.04736 6.41314 7.77942
1 4 15.9294 1.19633 3.42891
45 4 5.09068 6.7041 6.11581
312 2 12.1038 6.42757 3.6273
167 2 13.7674 4.94156 7.15375
169 2 13.036 6.04716 8.54589
39 4 7.78464 2.1718 10.9689
46 4 6.41785 4.15413 13.1678
371 2 11.8389 1.68365 13.7136
60 4 10.6437 2.25628 9.64875
63 4 10.1103 2.97603 15.9563
64 4 12.698 3.74257 11.2741
68 4 7.5416 5.31599 9.23314
70 4 11.075 5.00852 13.5661
305 4 14.7109 2.20717 16.0596
72 4 9.58527 6.49836 11.3102
99 2 12.8331 4.81374 10.0304
166 2 14.6058 2.88526 12.6864
162 2 10.1526 0.556211 14.9295
163 2 9.28572 2.04171 14.0395
164 2 8.48293 1.09667 15.5774
165 2 14.4122 2.08173 10.9009
95 2 10.8491 0.664079 8.95898
374 2 11.2525 0.0395523 12.8422
168 2 13.586 4.21897 8.79027
307 3 13.9977 0.823362 15.1597
98 2 9.49465 0.554728 13.2098
185 2 12.5672 0.749222 9.7254
212 1 9.40683 1.37506 15.0102
213 1 14.5024 3.10218 11.5778
48 4 5.04983 5.99588 11.0178
306 3 13.6978 2.3844 17.3189
240 3 7.42254 3.28857 12.1059
372 2 12.7617 0.975753 12.1795
262 3 9.23711 2.22787 10.461
264 3 11.2482 2.21408 16.6891
265 3 8.80952 3.10698 16.9399
266 3 11.9189 2.50378 10.7658
273 3 6.19641 5.91987 9.87582
275 3 10.5013 3.99227 14.7515
276 3 12.2169 4.47908 12.6408
277 3 6.99866 5.13087 14.3996
373 1 12.1112 0.768583 13.0158
71 4 7.33672 6.42621 15.1697
280 3 8.8935 5.60295 10.1654
281 3 9.8136 5.58112 12.6465
173 2 11.9309 6.33485 15.4069
278 3 8.53162 6.51551 16.1089
216 1 11.8478 6.6324 14.2984
347 2 16.2782 0.214206 9.30178
103 2 5.89945 6.50919 16.159
33 4 1.74602 12.8105 2.60959
295 3 7.53616 13.2743 7.06517
358 2 1.16367 13.3948 0.117993
254 3 3.19189 9.81188 7.11103
182 2 6.94651 8.88837 8.32858
385 2 4.54456 13.3311 8.00669
69 4 10.7187 7.17927 6.42698
73 4 8.5214 8.88751 2.02904
74 4 4.82422 11.8161 4.86343
75 4 7.43217 11.3607 0.73504
76 4 9.25522 9.89633 7.79345
78 4 7.68001 12.0352 6.11641
289 3 9.89498 8.39094 6.93917
328 2 10.4823 11.2594 2.73352
18 2 10.6424 10.2259 4.24687
104 2 9.98632 9.5518 2.7285
268 3 5.99068 7.05936 4.86828
107 2 8.41273 12.6546 4.71404
176 2 5.47047 9.51219 4.26291
177 2 4.54487 10.3592 2.84779
178 2 3.58005 9.58551 4.33596
179 2 7.12358 7.0503 7.61403
52 4 3.87378 8.72865 8.06453
288 3 6.65915 12.4845 1.49493
217 1 4.51917 10.1182 3.96589
293 3 6.24924 11.6453 5.60203
294 3 8.48338 10.8986 6.86144
249 3 2.71018 11.7854 1.85601
251 3 4.9956 7.88913 7.22941
51 4 2.9157 10.4702 0.812306
282 3 7.96708 8.02956 3.24753
283 3 9.02308 7.95161 0.81947
284 3 5.00844 12.9391 3.72278
285 3 3.38984 12.031 5.81893
286 3 8.85475 11.7716 0.314881
287 3 7.58564 10.1027 1.60497
101 2 12.2797 7.66808 6.16313
353 2 2.86608 13.5368 4.41642
54 4 2.38015 11.0102 6.50955
181 2 8.94115 7.02683 8.19569
105 2 4.40799 7.31529 2.69268
65 4 6.97527 6.79109 3.54775
24 4 11.9828 8.16383 10.2826
29 4 9.90626 11.8432 10.1056
62 4 5.81688 13.4795 14.2317
184 2 8.20968 8.65711 9.65127
77 4 4.4984 10.8656 10.3173
79 4 8.18969 8.67511 13.0994
80 4 4.20472 10.6523 15.4759
81 4 7.08765 11.4103 11.8897
82 2 11.2882 9.39005 9.36654
279 3 11.0139 7.05791 10.8424
106 2 3.9403 12.2865 9.42801
152 2 6.03747 8.25346 10.7164
153 2 5.64428 7.91795 12.5146
154 2 4.19391 8.2728 11.3458
290 3 10.3677 10.5752 8.76286
382 1 4.2897 7.60949 16.4722
183 2 7.46208 10.347 9.39602
186 2 9.6234 10.3329 13.9752
187 2 10.6015 9.00057 13.0561
188 2 10.1066 8.70389 14.9524
189 2 5.4768 9.09038 14.2782
190 2 6.31131 9.3218 16.1188
191 2 6.37863 10.7948 14.7721
208 1 5.27759 7.83212 11.4685
221 1 9.87897 9.19238 13.8928
222 1 5.83222 9.80915 15.1895
269 3 10.8064 7.99062 16.7133
291 3 4.61088 9.65578 9.28413
383 2 5.09075 7.68549 17.2702
292 3 3.38117 10.4281 11.3705
296 3 7.37762 7.69599 14.248
297 3 8.62359 7.84871 11.7228
220 1 5.33038 13.5211 8.84405
299 3 4.60988 12.3448 14.8751
300 3 3.84939 10.6329 17.1818
301 3 8.45381 11.7475 10.9405
302 3 5.82701 11.315 10.9804
303 3 7.432 10.0173 12.5539
304 3 6.88838 12.5526 13.0022
319 2 6.31268 10.8758 16.8024
381 2 4.65408 7.46508 15.3662
66 4 9.48623 7.01774 17.2471
174 2 11.0352 7.53284 14.1334
219 1 7.81204 9.36368 8.8694
298 3 3.10484 9.76514 14.618
384 2 6.18413 12.6979 9.02323
157 2 4.08004 7.56598 13.437
333 2 8.24192 13.5676 13.4976
ITEM: TIMESTEP
200
ITEM: NUMBER OF ATOMS
386
ITEM: BOX BOUNDS xy xz yz pp pp pp
-7.6535000000000002e+00 1.6722200000000001e+01 -7.3464000000000000e+00
-1.7999999999999999e-02 1.3589000000000000e+01 -3.0709999999999998e-01
0.0000000000000000e+00 1.7489260999999999e+01 -1.7999999999999999e-02
ITEM: ATOMS id type x y z
108 2 -2.84514 5.57209 5.10033
2 2 -0.14785 2.22555 2.03119
234 3 0.580905 6.08938 5.88814
4 2 -0.517542 3.30127 4.3497
5 2 -0.369869 1.7069 5.64429
6 1 -1.07024 2.4611 5.03343
10 4 -0.58171 2.92995 8.34288
246 3 2.27911 6.61273 0.900351
12 2 -0.232816 3.19841 6.67529
34 4 4.24383 0.896334 3.67002
36 4 4.05828 1.92112 8.39064
326 2 -0.368563 4.5364 2.21431
109 2 -1.26015 5.27986 4.03413
41 4 2.08875 6.35185 4.67251
378 2 -2.31716 5.68418 1.23527
327 1 -0.0788679 4.91168 1.16767
87 2 2.81874 0.740488 7.74779
7 4 0.482736 3.10829 0.498394
90 2 3.65774 2.48814 3.38783
118 2 4.30851 1.11933 1.43029
197 1 7.6893 0.333351 6.13127
238 3 3.49698 6.37455 5.33175
133 2 3.37588 4.87203 7.63865
322 2 3.04854 2.73187 1.5436
235 3 4.55824 5.02348 0.0221495
126 2 5.54766 2.88908 2.65955
127 2 3.88712 3.61091 2.14671
128 2 4.95216 4.28397 3.69798
129 2 1.29777 4.93513 2.73771
130 2 1.43837 4.15377 4.52993
131 2 3.10453 4.39105 3.33528
132 2 1.98849 3.95005 8.56007
134 2 1.58414 5.34717 7.23691
37 4 7.06346 1.66852 5.0046
324 2 -1.00807 5.38042 0.671946
362 2 5.74152 1.57166 0.592406
8 2 2.23534 3.4873 0.203296
199 1 4.92144 3.79117 2.67142
200 1 2.01154 4.85246 3.65459
201 1 2.30716 4.92227 8.02822
231 3 5.54809 1.11595 4.39503
325 2 0.848841 5.60697 1.13496
236 3 4.65714 2.8797 7.33206
120 2 5.01702 0.0764824 6.92986
192 1 -1.98232 6.01756 4.56358
320 2 2.01263 1.20303 1.30546
321 2 1.58426 2.39104 2.71009
323 1 1.96727 2.29222 1.63464
21 3 0.15162 0.0746176 3.93699
195 1 4.9654 0.329671 2.01255
14 2 -0.35608 5.18524 8.59674
360 2 7.29393 0.830402 1.32897
379 1 -3.31183 6.34886 1.2995
117 2 6.12048 0.533057 2.01599
122 2 7.51267 0.905924 7.13525
43 4 6.09369 3.74972 7.09823
160 2 5.20838 1.05699 14.8659
91 2 0.74453 5.94117 9.67764
9 3 -0.459654 2.53088 16.6419
13 2 -1.33071 4.68725 10.287
156 2 2.4268 6.37101 13.7213
15 2 0.510648 3.97821 10.0797
16 1 -0.469305 4.36354 9.53495
26 4 -1.841 4.88984 14.5035
23 4 1.33405 0.142312 14.5502
47 4 0.501558 6.35859 15.7176
42 4 3.17719 6.05808 17.083
85 2 -1.80201 4.45717 12.8454
223 3 -2.15441 3.65811 15.3261
375 2 -1.34024 3.65408 11.2891
123 2 4.28645 1.33382 10.8229
124 2 3.05237 2.81281 10.1782
125 2 4.90352 3.12364 10.4736
232 3 7.41643 0.664139 11.4672
135 2 5.35261 2.00322 13.4772
136 2 4.20088 3.6019 13.9879
137 2 5.58891 2.78657 15.2577
44 4 2.43263 6.3281 9.27477
368 2 3.91557 0.680953 12.3031
198 1 4.20561 2.33608 10.1855
202 1 5.2661 2.94563 14.1389
346 2 1.2945 0.50196 9.84196
241 3 -0.491731 5.55196 14.7578
242 3 1.97414 5.61273 15.8039
243 3 3.33788 6.02873 10.5222
364 2 5.15391 2.99502 16.7608
334 2 0.439789 0.487829 12.3382
335 2 -0.331223 1.56678 13.821
336 1 -0.142014 0.531458 13.3286
337 2 2.1133 2.56631 14.4862
338 2 3.34169 1.35201 15.1684
339 2 1.94465 1.92136 16.2818
340 1 2.29274 1.73661 15.2178
363 2 6.53115 1.76053 16.3175
92 2 -0.13244 6.3044 17.2955
365 1 5.9305 2.28655 17.2011
244 3 5.30054 5.06142 12.4075
84 2 -3.13302 5.98328 14.7665
119 2 5.10349 0.00414083 8.86281
11 2 0.776032 1.8079 8.78164
17 4 -5.62462 12.5459 4.49582
342 2 -2.31299 9.67934 1.97261
20 1 -5.56333 10.8621 3.64672
345 2 -6.33803 13.1142 8.0852
349 2 -4.26995 13.4216 0.647678
367 2 -0.404922 12.9996 5.96551
366 2 -3.3385 12.2737 7.81855
28 4 -2.38671 8.15464 8.10947
49 4 2.74687 7.70099 2.01821
50 4 -0.0736745 10.9374 4.3557
83 2 -0.774395 8.32796 4.71746
19 2 -4.5144 10.5229 3.15573
111 2 -4.67834 9.12307 7.01612
112 2 -3.11687 8.78586 5.81178
113 2 -3.02999 10.1821 7.0174
138 2 -0.442648 9.87062 1.9886
139 2 -1.6101 9.04914 3.2164
140 2 0.278376 8.61738 3.25526
141 2 -1.29256 11.5891 6.59496
142 2 -2.1792 10.4182 5.11994
143 2 -2.00385 12.3231 4.91923
144 2 0.281766 11.5303 7.21341
102 2 -3.44602 8.83278 0.528055
146 2 -1.16549 12.4872 8.04233
158 2 0.684499 11.3326 0.280497
193 1 -3.47954 9.0991 6.87791
203 1 -0.571142 9.39604 3.0834
204 1 -1.55674 11.3859 5.41113
205 1 -0.129746 11.988 8.18859
225 3 -1.62361 7.03596 7.13409
329 2 -6.57684 12.9677 6.73478
245 3 1.79864 7.55981 3.35466
110 2 -2.29182 6.82741 3.81594
247 3 0.274163 12.2362 3.35801
248 3 2.95657 9.07473 1.38948
253 3 1.14164 10.6757 5.39222
105 2 4.29464 7.23703 2.53812
330 2 -5.83859 11.2916 6.40117
331 1 -5.68384 12.4241 6.35844
332 2 -4.63021 12.762 6.89682
25 4 -0.831665 6.91747 5.75891
343 2 -4.23943 9.65507 2.0834
344 1 -3.34522 9.75053 1.28707
250 3 2.73063 7.61075 8.46515
350 2 -4.72182 11.7927 1.54236
351 2 -5.90959 13.3181 1.73449
352 1 -5.12402 12.7517 1.08053
357 2 -2.66765 12.8558 1.77731
341 2 -3.40498 10.7986 0.824434
358 2 0.804789 13.2281 0.18065
376 2 -3.30829 7.04999 2.18867
196 1 -2.96666 13.3792 7.8402
22 3 -4.28702 13.4751 4.12739
377 2 -3.55045 6.889 0.325705
145 2 0.550029 12.7262 8.66522
155 2 2.58545 7.47401 12.2833
27 4 -4.88509 9.07181 16.7059
30 4 -3.08467 9.76544 14.0515
31 4 -6.70187 12.1247 17.3137
32 4 -4.47109 12.0413 12.3633
38 4 0.802859 13.2044 12.5035
53 4 -0.430376 10.3902 9.47565
55 4 1.85031 8.74182 14.0747
56 4 -1.08764 12.18 14.8344
57 4 1.76039 10.4452 11.6113
175 2 -3.75261 7.21961 13.8895
370 2 0.893188 10.6293 15.9765
94 2 -0.154218 11.9067 16.305
318 2 -5.79249 10.5799 17.1274
114 2 -2.5872 7.73242 12.6258
115 2 -1.94705 7.63186 14.4775
116 2 -1.04462 8.68464 13.222
147 2 -1.16902 10.7693 11.8932
148 2 -2.54663 10.9287 10.6673
149 2 -1.15755 12.215 10.6049
150 2 -3.01052 13.075 10.8077
151 2 -2.0992 12.8794 12.4792
159 2 -3.23478 12.9286 15.0183
252 3 -1.41465 9.2504 8.74656
369 2 0.702684 9.40869 17.4567
194 1 -2.01907 8.2344 13.4901
206 1 -1.47655 11.0708 10.8695
207 1 -3.04758 13.2306 11.9498
209 1 2.82728 7.3099 13.3596
211 1 -2.32334 13.4921 15.3542
161 2 -2.15041 13.4422 16.4787
224 3 -3.46592 7.55561 9.44067
226 3 -4.06029 9.31736 15.3781
227 3 -6.46298 12.9394 15.9012
228 3 -5.45066 11.9812 11.0678
229 3 -3.9113 10.2351 12.7679
230 3 -5.12124 12.967 13.4938
259 3 1.23886 9.4982 12.8707
317 2 -4.2024 9.21353 11.5451
255 3 0.766279 7.86735 15.2028
256 3 -2.02305 10.9144 14.5262