LAMMPS (2 Aug 2023 - Update 2)
  using 2 OpenMP thread(s) per MPI task
Reading data file ...
  triclinic box = (0 0 0) to (16.7222 13.589 17.3161) with tilt (-7.3464 -0.3071 -0.018)
WARNING: Triclinic box skew is large. LAMMPS will run inefficiently. (src/domain.cpp:220)
  2 by 2 by 2 MPI processor grid
  reading atoms ...
  386 atoms
Finding 1-2 1-3 1-4 neighbors ...
  special bond factors lj:    0        0        0       
  special bond factors coul:  0        0        0       
     0 = max # of 1-2 neighbors
     0 = max # of 1-3 neighbors
     0 = max # of 1-4 neighbors
     1 = max # of special neighbors
  special bonds CPU = 0.001 seconds
  read_data CPU = 0.008 seconds
*****Minimization starts.*****

CITE-CITE-CITE-CITE-CITE-CITE-CITE-CITE-CITE-CITE-CITE-CITE-CITE

Your simulation uses code contributions which should be cited:
- pair reaxff command: doi:10.1016/j.parco.2011.08.005
- fix qeq/reaxff command: doi:10.1016/j.parco.2011.08.005
The log file lists these citations in BibTeX format.

CITE-CITE-CITE-CITE-CITE-CITE-CITE-CITE-CITE-CITE-CITE-CITE-CITE

WARNING: Fix qeq/reaxff group is not charge neutral, net charge = -0.82 (src/REAXFF/fix_qeq_reaxff.cpp:392)
Neighbor list info ...
  update: every = 1 steps, delay = 0 steps, check = yes
  max neighbors/atom: 2000, page size: 100000
  master list distance cutoff = 12
  ghost atom cutoff = 12
  binsize = 6, bins = 5 3 3
  2 neighbor lists, perpetual/occasional/extra = 2 0 0
  (1) pair reaxff, perpetual
      attributes: half, newton off, ghost
      pair build: half/bin/newtoff/ghost
      stencil: full/ghost/bin/3d
      bin: standard
  (2) fix qeq/reaxff, perpetual, copy from (1)
      attributes: half, newton off
      pair build: copy
      stencil: none
      bin: none
Setting up cg style minimization ...
  Unit style    : real
  Current step  : 0
Per MPI rank memory allocation (min/avg/max) = 135.6 | 137.7 | 139.6 Mbytes
   Step          Temp          E_pair         E_mol          TotEng         Press     
         0   0             -43252.041      0             -43252.041      118314.77    
       100   0             -44649.677      0             -44649.677      6900.8033    
Loop time of 19.3149 on 16 procs for 100 steps with 386 atoms

97.8% CPU use with 8 MPI tasks x 2 OpenMP threads

Minimization stats:
  Stopping criterion = max iterations
  Energy initial, next-to-last, final = 
     -43252.0409246455  -44648.5371456972   -44649.677443064
  Force two-norm initial, final = 1865.8037 184.52438
  Force max component initial, final = 249.60404 56.354685
  Final line search alpha, max atom move = 0.0027388152 0.15434507
  Iterations, force evaluations = 100 418

MPI task timing breakdown:
Section |  min time  |  avg time  |  max time  |%varavg| %total
---------------------------------------------------------------
Pair    | 11.325     | 12.685     | 16.033     |  51.6 | 65.68
Bond    | 0.00010668 | 0.00015486 | 0.00023845 |   0.0 |  0.00
Neigh   | 0          | 0          | 0          |   0.0 |  0.00
Comm    | 0.29534    | 3.6446     | 5.0044     |  96.3 | 18.87
Output  | 7.9082e-05 | 8.3314e-05 | 0.00010598 |   0.0 |  0.00
Modify  | 2.9636     | 2.9648     | 2.9659     |   0.1 | 15.35
Other   |            | 0.02013    |            |       |  0.10

Nlocal:          48.25 ave          57 max          44 min
Histogram: 1 3 1 0 2 0 0 0 0 1
Nghost:        3458.88 ave        3503 max        3412 min
Histogram: 1 1 0 1 1 1 0 1 0 2
Neighs:          33089 ave       38843 max       30439 min
Histogram: 1 3 1 0 2 0 0 0 0 1

Total # of neighbors = 264712
Ave neighs/atom = 685.78238
Ave special neighs/atom = 0
Neighbor list builds = 0
Dangerous builds = 0
System init for write_data ...
WARNING: New thermo_style command, previous thermo_modify settings will be lost (src/output.cpp:903)
Neighbor list info ...
  update: every = 10 steps, delay = 0 steps, check = no
  max neighbors/atom: 2000, page size: 100000
  master list distance cutoff = 12
  ghost atom cutoff = 12
  binsize = 6, bins = 5 3 3
  2 neighbor lists, perpetual/occasional/extra = 2 0 0
  (1) pair reaxff, perpetual
      attributes: half, newton off, ghost
      pair build: half/bin/newtoff/ghost
      stencil: full/ghost/bin/3d
      bin: standard
  (2) fix qeq/reaxff, perpetual, copy from (1)
      attributes: half, newton off
      pair build: copy
      stencil: none
      bin: none
Setting up Verlet run ...
  Unit style    : real
  Current step  : 0
  Time step     : 0.5
Per MPI rank memory allocation (min/avg/max) = 133.9 | 136 | 138 Mbytes
   Step          Temp          PotEng         Press         Density         Volume    
         0   300           -44649.677      10900.363      1.7215889      3934.8755    
       100   254.51675     -44556.604     -1555.8678      1.7215889      3934.8755    
       200   299.29428     -44551.569     -145.13044      1.7215889      3934.8755    
       300   305.12603     -44527.766     -1165.6664      1.7215889      3934.8755    
       400   321.72849     -44571.744     -2492.0929      1.7215889      3934.8755    
       500   315.9535      -44619.281     -8977.5137      1.7215889      3934.8755    
       600   304.11052     -44647.838     -1198.1237      1.7215889      3934.8755    
       700   276.03526     -44634.698     -6595.0695      1.7215889      3934.8755    
       800   282.60987     -44634.93      -951.6009       1.7215889      3934.8755    
       900   298.48221     -44631.169      9430.2816      1.7215889      3934.8755    
      1000   309.38676     -44627.913      478.45934      1.7215889      3934.8755    
      1100   321.82966     -44652.187      11480.906      1.7215889      3934.8755    
      1200   295.52146     -44658.228      6947.4014      1.7215889      3934.8755    
      1300   288.89477     -44665.586     -3503.6325      1.7215889      3934.8755    
      1400   311.29761     -44693.78      -314.68068      1.7215889      3934.8755    
      1500   295.0893      -44697.692     -3733.481       1.7215889      3934.8755    
      1600   291.87317     -44716.595     -1358.65        1.7215889      3934.8755    
      1700   293.90788     -44702.32      -523.87146      1.7215889      3934.8755    
      1800   314.46199     -44687.779     -1106.0339      1.7215889      3934.8755    
      1900   317.12281     -44695.414     -3670.8222      1.7215889      3934.8755    
      2000   285.05329     -44681.927      8035.5986      1.7215889      3934.8755    
      2100   295.28549     -44707.018      6495.4984      1.7215889      3934.8755    
      2200   304.98383     -44720.206     -1210.779       1.7215889      3934.8755    
      2300   276.77064     -44703.655      3976.8237      1.7215889      3934.8755    
      2400   296.24369     -44744.944     -502.85674      1.7215889      3934.8755    
      2500   304.87415     -44741.751      147.80353      1.7215889      3934.8755    
      2600   310.47445     -44716.776     -381.46345      1.7215889      3934.8755    
      2700   311.36251     -44712.53      -9008.0684      1.7215889      3934.8755    
      2800   305.08655     -44719.245     -20372.783      1.7215889      3934.8755    
      2900   293.34594     -44726.6        3983.532       1.7215889      3934.8755    
      3000   290.77204     -44732.374     -9658.9051      1.7215889      3934.8755    
      3100   277.64322     -44733.267      4108.0022      1.7215889      3934.8755    
      3200   286.25303     -44734.244     -3581.0713      1.7215889      3934.8755    
      3300   292.64023     -44712.291     -11039.935      1.7215889      3934.8755    
      3400   316.84914     -44726.109     -118.96988      1.7215889      3934.8755    
      3500   323.48349     -44748.458     -7409.7619      1.7215889      3934.8755    
      3600   295.98569     -44745.018     -18782.169      1.7215889      3934.8755    
      3700   277.14332     -44732.03      -5873.2355      1.7215889      3934.8755    
      3800   281.49875     -44726.937     -2603.6514      1.7215889      3934.8755    
      3900   308.51302     -44742.922      3671.7971      1.7215889      3934.8755    
      4000   310.43269     -44728.416     -1127.0368      1.7215889      3934.8755    
      4100   290.65203     -44689.583      15272.183      1.7215889      3934.8755    
      4200   312.80725     -44734.972      8511.3481      1.7215889      3934.8755    
      4300   291.23596     -44748.144      5278.6844      1.7215889      3934.8755    
      4400   300.67902     -44749.894      2704.4825      1.7215889      3934.8755    
      4500   308.29071     -44732.288     -320.72278      1.7215889      3934.8755    
      4600   312.4769      -44724.734     -18516.578      1.7215889      3934.8755    
      4700   294.51756     -44718.09       6752.2227      1.7215889      3934.8755    
      4800   305.16289     -44748.435      1119.23        1.7215889      3934.8755    
      4900   288.98753     -44730.637     -1119.8361      1.7215889      3934.8755    
      5000   307.35389     -44750.192      3862.2663      1.7215889      3934.8755    
Loop time of 253.375 on 16 procs for 5000 steps with 386 atoms

Performance: 0.852 ns/day, 28.153 hours/ns, 19.734 timesteps/s, 7.617 katom-step/s
99.5% CPU use with 8 MPI tasks x 2 OpenMP threads

MPI task timing breakdown:
Section |  min time  |  avg time  |  max time  |%varavg| %total
---------------------------------------------------------------
Pair    | 147.85     | 172.15     | 211.42     | 219.5 | 67.94
Bond    | 0.001276   | 0.0015252  | 0.0018284  |   0.5 |  0.00
Neigh   | 11.285     | 13.142     | 16.436     |  62.9 |  5.19
Comm    | 4.8897     | 44.16      | 68.455     | 433.3 | 17.43
Output  | 0.0027352  | 0.0029444  | 0.0041975  |   0.9 |  0.00
Modify  | 20.507     | 23.816     | 25.686     |  47.0 |  9.40
Other   |            | 0.1011     |            |       |  0.04

Nlocal:          48.25 ave          55 max          42 min
Histogram: 1 0 0 3 1 1 1 0 0 1
Nghost:        3434.38 ave        3465 max        3405 min
Histogram: 2 1 0 0 0 1 1 1 1 1
Neighs:        33076.1 ave       37312 max       29088 min
Histogram: 1 0 0 2 2 1 1 0 0 1

Total # of neighbors = 264609
Ave neighs/atom = 685.51554
Ave special neighs/atom = 0
Neighbor list builds = 500
Dangerous builds not checked
System init for write_data ...
System init for write_restart ...
  using 2 OpenMP thread(s) per MPI task
Reading restart file ...
  restart file = 2 Aug 2023, LAMMPS = 2 Aug 2023
  restoring atom style full from restart
  triclinic box = (0 0 0) to (16.7222 13.589 17.3161) with tilt (-7.3464 -0.3071 -0.018)
WARNING: Triclinic box skew is large. LAMMPS will run inefficiently. (src/domain.cpp:220)
  2 by 2 by 2 MPI processor grid
  pair style reaxff stores no restart info
  386 atoms
Finding 1-2 1-3 1-4 neighbors ...
  special bond factors lj:    0        0        0       
  special bond factors coul:  0        0        0       
     0 = max # of 1-2 neighbors
     0 = max # of 1-3 neighbors
     0 = max # of 1-4 neighbors
     1 = max # of special neighbors
  special bonds CPU = 0.000 seconds
  read_restart CPU = 0.003 seconds
*****debug*****
xy = -7.3464000000000000412, deltaxy = 0.73464
xz = -0.3070999999999999841, deltaxz = 0.03071
yz = -0.01799999999999999864, deltayz = 0.0018
*****
*****Negative-deform 1 starts.*****
Resetting global fix info from restart file:
  fix style: nvt, fix ID: fnvt
All restart file global fix info was re-assigned
Neighbor list info ...
  update: every = 10 steps, delay = 0 steps, check = no
  max neighbors/atom: 2000, page size: 100000
  master list distance cutoff = 12
  ghost atom cutoff = 12
  binsize = 6, bins = 5 3 3
  2 neighbor lists, perpetual/occasional/extra = 2 0 0
  (1) pair reaxff, perpetual
      attributes: half, newton off, ghost
      pair build: half/bin/newtoff/ghost
      stencil: full/ghost/bin/3d
      bin: standard
  (2) fix qeq/reaxff, perpetual, copy from (1)
      attributes: half, newton off
      pair build: copy
      stencil: none
      bin: none
Setting up Verlet run ...
  Unit style    : real
  Current step  : 0
  Time step     : 0.5
Per MPI rank memory allocation (min/avg/max) = 133.9 | 134.9 | 136.1 Mbytes
   Step          Temp          PotEng         Press          Volume           Lx             Ly             Lz      
         0   307.35389     -44750.192      3862.2652      3934.8755      16.7222        13.589         17.3161      
       100   298.97666     -44738.372      1071.8084      3927.0058      16.688756      13.589         17.3161      
       200   307.7807      -44726.607     -9395.9215      3919.136       16.655311      13.589         17.3161      
       300   320.39788     -44730.409      5049.2934      3911.2663      16.621867      13.589         17.3161      
       400   314.53382     -44748.954      4545.8291      3903.3965      16.588422      13.589         17.3161      
       500   309.63778     -44752.184     -2859.7917      3895.5268      16.554978      13.589         17.3161      
       600   299.72037     -44750.279      6666.2402      3887.657       16.521534      13.589         17.3161      
       700   308.07427     -44753.543      8734.0624      3879.7873      16.488089      13.589         17.3161      
       800   287.25507     -44755.155      7929.1867      3871.9175      16.454645      13.589         17.3161      
       900   295.66352     -44768.791     -8657.5403      3864.0478      16.4212        13.589         17.3161      
      1000   291.01829     -44744.407      3083.3596      3856.178       16.387756      13.589         17.3161      
      1100   308.14015     -44740.284      13720.54       3848.3083      16.354312      13.589         17.3161      
      1200   310.11651     -44729.763      5972.7785      3840.4385      16.320867      13.589         17.3161      
      1300   298.99816     -44715.944      2844.157       3832.5687      16.287423      13.589         17.3161      
      1400   322.96653     -44752.453      18963.007      3824.699       16.253978      13.589         17.3161      
      1500   282.94339     -44723.449      3990.6986      3816.8292      16.220534      13.589         17.3161      
      1600   303.52051     -44740.942      14894.061      3808.9595      16.18709       13.589         17.3161      
      1700   300.04652     -44731.871      17303.607      3801.0897      16.153645      13.589         17.3161      
      1800   288.20491     -44711.537      2093.0712      3793.22        16.120201      13.589         17.3161      
      1900   304.65577     -44729.449      3027.5747      3785.3502      16.086756      13.589         17.3161      
      2000   313.49872     -44750.979      18347.119      3777.4805      16.053312      13.589         17.3161      
      2100   307.34159     -44746.468      18573.678      3769.6107      16.019868      13.589         17.3161      
      2200   300.26122     -44744.736      28152.31       3761.741       15.986423      13.589         17.3161      
      2300   311.08308     -44744.519      15888.245      3753.8712      15.952979      13.589         17.3161      
      2400   284.12732     -44710.62       22986.729      3746.0015      15.919534      13.589         17.3161      
      2500   306.07081     -44728.09       14409.504      3738.1317      15.88609       13.589         17.3161      
      2600   268.63917     -44708.53       17283.545      3730.262       15.852646      13.589         17.3161      
      2700   290.63477     -44730.145      16090.765      3722.3922      15.819201      13.589         17.3161      
      2800   289.63182     -44713.601      11846.819      3714.5225      15.785757      13.589         17.3161      
      2900   311.54087     -44714.951      16788.209      3706.6527      15.752312      13.589         17.3161      
      3000   306.11521     -44728.307      13239.262      3698.783       15.718868      13.589         17.3161      
      3100   302.14273     -44730.426      32759.551      3690.9132      15.685424      13.589         17.3161      
      3200   300.10815     -44723.102      31639.93       3683.0435      15.651979      13.589         17.3161      
      3300   300.81849     -44712.639      31518.05       3675.1737      15.618535      13.589         17.3161      
      3400   290.25725     -44728.043      13327.136      3667.304       15.58509       13.589         17.3161      
      3500   287.61557     -44716.144      17871.455      3659.4342      15.551646      13.589         17.3161      
      3600   297.43779     -44698.967      39123.516      3651.5645      15.518202      13.589         17.3161      
      3700   293.15425     -44651.817      30920.835      3643.6947      15.484757      13.589         17.3161      
      3800   321.11675     -44676.268      13244.487      3635.825       15.451313      13.589         17.3161      
      3900   297.00041     -44684.885      35471.129      3627.9552      15.417868      13.589         17.3161      
      4000   307.54855     -44699.384      22621.823      3620.0855      15.384424      13.589         17.3161      
      4100   287.94829     -44676.736      25293.155      3612.2157      15.35098       13.589         17.3161      
      4200   300.25278     -44684.617      45617.555      3604.346       15.317535      13.589         17.3161      
      4300   276.69333     -44664.665      16126.546      3596.4762      15.284091      13.589         17.3161      
      4400   280.6721      -44676.759      17976.997      3588.6065      15.250646      13.589         17.3161      
      4500   296.23878     -44680.44       33705.386      3580.7367      15.217202      13.589         17.3161      
      4600   311.10827     -44669.172      25739.842      3572.867       15.183758      13.589         17.3161      
      4700   322.15233     -44670.069      31106.474      3564.9972      15.150313      13.589         17.3161      
      4800   290.39912     -44632.551      25067.376      3557.1275      15.116869      13.589         17.3161      
      4900   303.2507      -44646.696      37817.4        3549.2577      15.083424      13.589         17.3161      
      5000   304.37424     -44647.53       38266.829      3541.388       15.04998       13.589         17.3161      
Loop time of 280.149 on 16 procs for 5000 steps with 386 atoms

Performance: 0.771 ns/day, 31.128 hours/ns, 17.848 timesteps/s, 6.889 katom-step/s
99.4% CPU use with 8 MPI tasks x 2 OpenMP threads

MPI task timing breakdown:
Section |  min time  |  avg time  |  max time  |%varavg| %total
---------------------------------------------------------------
Pair    | 158.69     | 202.3      | 231.98     | 198.8 | 72.21
Bond    | 0.0015035  | 0.0017509  | 0.0020634  |   0.5 |  0.00
Neigh   | 13.405     | 17.045     | 19.406     |  55.9 |  6.08
Comm    | 5.685      | 35.351     | 78.956     | 475.5 | 12.62
Output  | 0.01683    | 0.019347   | 0.021081   |   0.9 |  0.01
Modify  | 22.953     | 25.317     | 28.978     |  46.1 |  9.04
Other   |            | 0.1136     |            |       |  0.04

Nlocal:          48.25 ave          57 max          44 min
Histogram: 2 2 1 1 0 0 1 0 0 1
Nghost:        3681.25 ave        3746 max        3610 min
Histogram: 1 0 1 1 0 2 1 0 1 1
Neighs:        36772.1 ave       42833 max       33949 min
Histogram: 2 2 1 1 0 1 0 0 0 1

Total # of neighbors = 294177
Ave neighs/atom = 762.11658
Ave special neighs/atom = 0
Neighbor list builds = 500
Dangerous builds not checked
  using 2 OpenMP thread(s) per MPI task
Reading restart file ...
  restart file = 2 Aug 2023, LAMMPS = 2 Aug 2023
  restoring atom style full from restart
  triclinic box = (0 0 0) to (16.7222 13.589 17.3161) with tilt (-7.3464 -0.3071 -0.018)
WARNING: Triclinic box skew is large. LAMMPS will run inefficiently. (src/domain.cpp:220)
  2 by 2 by 2 MPI processor grid
  pair style reaxff stores no restart info
  386 atoms
Finding 1-2 1-3 1-4 neighbors ...
  special bond factors lj:    0        0        0       
  special bond factors coul:  0        0        0       
     0 = max # of 1-2 neighbors
     0 = max # of 1-3 neighbors
     0 = max # of 1-4 neighbors
     1 = max # of special neighbors
  special bonds CPU = 0.000 seconds
  read_restart CPU = 0.003 seconds
*****Positive-deform 1 starts.*****
Resetting global fix info from restart file:
  fix style: nvt, fix ID: fnvt
All restart file global fix info was re-assigned
Neighbor list info ...
  update: every = 10 steps, delay = 0 steps, check = no
  max neighbors/atom: 2000, page size: 100000
  master list distance cutoff = 12
  ghost atom cutoff = 12
  binsize = 6, bins = 5 3 3
  2 neighbor lists, perpetual/occasional/extra = 2 0 0
  (1) pair reaxff, perpetual
      attributes: half, newton off, ghost
      pair build: half/bin/newtoff/ghost
      stencil: full/ghost/bin/3d
      bin: standard
  (2) fix qeq/reaxff, perpetual, copy from (1)
      attributes: half, newton off
      pair build: copy
      stencil: none
      bin: none
Setting up Verlet run ...
  Unit style    : real
  Current step  : 0
  Time step     : 0.5
Per MPI rank memory allocation (min/avg/max) = 134 | 135 | 136.1 Mbytes
   Step          Temp          PotEng         Press          Volume           Lx             Ly             Lz      
         0   307.35389     -44750.192      3862.2652      3934.8755      16.7222        13.589         17.3161      
       100   298.64467     -44739.356      920.00495      3942.7453      16.755644      13.589         17.3161      
       200   313.54022     -44734.47      -5415.1643      3950.615       16.789089      13.589         17.3161      
       300   319.95801     -44717.417     -356.21486      3958.4848      16.822533      13.589         17.3161      
       400   302.71338     -44710.236      4111.0874      3966.3545      16.855978      13.589         17.3161      
       500   318.97674     -44757.694     -1575.827       3974.2243      16.889422      13.589         17.3161      
       600   303.22177     -44738.914      1193.1856      3982.094       16.922866      13.589         17.3161      
       700   303.23142     -44730.517      4438.0246      3989.9638      16.956311      13.589         17.3161      
       800   306.79428     -44727.303     -560.3146       3997.8335      16.989755      13.589         17.3161      
       900   306.44987     -44724.188     -3575.6934      4005.7033      17.0232        13.589         17.3161      
      1000   293.10427     -44719.919     -312.17541      4013.573       17.056644      13.589         17.3161      
      1100   300.24974     -44740.099     -4906.882       4021.4428      17.090088      13.589         17.3161      
      1200   291.43511     -44737.497     -14565.667      4029.3125      17.123533      13.589         17.3161      
      1300   295.08156     -44746.031     -1356.6879      4037.1823      17.156977      13.589         17.3161      
      1400   294.25151     -44738.178     -5680.2204      4045.052       17.190422      13.589         17.3161      
      1500   308.09772     -44732.501     -1689.4922      4052.9218      17.223866      13.589         17.3161      
      1600   298.10534     -44701.827     -7260.7028      4060.7915      17.25731       13.589         17.3161      
      1700   292.69047     -44701.192     -5913.3623      4068.6613      17.290755      13.589         17.3161      
      1800   286.79801     -44711.503     -8306.9422      4076.531       17.324199      13.589         17.3161      
      1900   290.59161     -44721.508     -17357.412      4084.4008      17.357644      13.589         17.3161      
      2000   292.75982     -44725.392     -16909.641      4092.2705      17.391088      13.589         17.3161      
      2100   296.12206     -44719.895     -7975.2802      4100.1403      17.424532      13.589         17.3161      
      2200   288.72219     -44690.984     -9325.3303      4108.01        17.457977      13.589         17.3161      
      2300   309.78065     -44692.695     -12529.248      4115.8798      17.491421      13.589         17.3161      
      2400   310.48791     -44707.763     -16775.104      4123.7495      17.524866      13.589         17.3161      
      2500   297.19611     -44707.647     -20054.137      4131.6193      17.55831       13.589         17.3161      
      2600   293.51948     -44710.401     -2470.7074      4139.489       17.591754      13.589         17.3161      
      2700   293.01308     -44709.776     -10505.845      4147.3588      17.625199      13.589         17.3161      
      2800   290.8326      -44679.532     -12866.069      4155.2285      17.658643      13.589         17.3161      
      2900   314.11304     -44684.744     -13436.212      4163.0983      17.692088      13.589         17.3161      
      3000   317.3335      -44697.236     -12947.194      4170.968       17.725532      13.589         17.3161      
      3100   290.30835     -44682.607     -3438.8704      4178.8378      17.758976      13.589         17.3161      
      3200   290.85164     -44687.584     -20345.221      4186.7075      17.792421      13.589         17.3161      
      3300   319.43186     -44710.764     -22868.974      4194.5773      17.825865      13.589         17.3161      
      3400   308.49904     -44688.312     -20649.279      4202.447       17.85931       13.589         17.3161      
      3500   292.1427      -44698.589     -5973.7141      4210.3168      17.892754      13.589         17.3161      
      3600   292.81754     -44700.146     -2945.8882      4218.1865      17.926198      13.589         17.3161      
      3700   305.78174     -44703.952     -15350.382      4226.0563      17.959643      13.589         17.3161      
      3800   300.67636     -44667.665     -19398.001      4233.9261      17.993087      13.589         17.3161      
      3900   326.37734     -44655.339     -14602.244      4241.7958      18.026532      13.589         17.3161      
      4000   326.0261      -44671.872     -12170.894      4249.6656      18.059976      13.589         17.3161      
      4100   304.6853      -44666.671     -12358.053      4257.5353      18.09342       13.589         17.3161      
      4200   297.99862     -44657.975     -17704.674      4265.4051      18.126865      13.589         17.3161      
      4300   297.93443     -44654.674     -14324.779      4273.2748      18.160309      13.589         17.3161      
      4400   288.91373     -44654.894     -14031.949      4281.1446      18.193754      13.589         17.3161      
      4500   298.47943     -44669.82      -14185.268      4289.0143      18.227198      13.589         17.3161      
      4600   289.80332     -44670.693     -22460.856      4296.8841      18.260642      13.589         17.3161      
      4700   277.18328     -44655.506     -10419.51       4304.7538      18.294087      13.589         17.3161      
      4800   313.88768     -44653.747     -15763.256      4312.6236      18.327531      13.589         17.3161      
      4900   323.10849     -44633.366     -16869.566      4320.4933      18.360976      13.589         17.3161      
      5000   295.17528     -44614.716     -12632.556      4328.3631      18.39442       13.589         17.3161      
Loop time of 242.744 on 16 procs for 5000 steps with 386 atoms

Performance: 0.890 ns/day, 26.972 hours/ns, 20.598 timesteps/s, 7.951 katom-step/s
99.4% CPU use with 8 MPI tasks x 2 OpenMP threads

MPI task timing breakdown:
Section |  min time  |  avg time  |  max time  |%varavg| %total
---------------------------------------------------------------
Pair    | 137.89     | 175.53     | 202.59     | 193.6 | 72.31
Bond    | 0.0014015  | 0.0016301  | 0.0017788  |   0.3 |  0.00
Neigh   | 10.944     | 13.684     | 15.725     |  52.2 |  5.64
Comm    | 3.5288     | 30.597     | 68.237     | 463.8 | 12.60
Output  | 0.016813   | 0.019129   | 0.020877   |   0.9 |  0.01
Modify  | 20.744     | 22.797     | 25.554     |  40.6 |  9.39
Other   |            | 0.1124     |            |       |  0.05

Nlocal:          48.25 ave          55 max          41 min
Histogram: 2 0 0 0 0 2 2 1 0 1
Nghost:        3258.62 ave        3283 max        3230 min
Histogram: 2 0 0 0 2 0 0 2 0 2
Neighs:          30022 ave       33911 max       25863 min
Histogram: 2 0 0 0 0 2 2 1 0 1

Total # of neighbors = 240176
Ave neighs/atom = 622.21762
Ave special neighs/atom = 0
Neighbor list builds = 500
Dangerous builds not checked
  using 2 OpenMP thread(s) per MPI task
Reading restart file ...
  restart file = 2 Aug 2023, LAMMPS = 2 Aug 2023
  restoring atom style full from restart
  triclinic box = (0 0 0) to (16.7222 13.589 17.3161) with tilt (-7.3464 -0.3071 -0.018)
WARNING: Triclinic box skew is large. LAMMPS will run inefficiently. (src/domain.cpp:220)
  2 by 2 by 2 MPI processor grid
  pair style reaxff stores no restart info
  386 atoms
Finding 1-2 1-3 1-4 neighbors ...
  special bond factors lj:    0        0        0       
  special bond factors coul:  0        0        0       
     0 = max # of 1-2 neighbors
     0 = max # of 1-3 neighbors
     0 = max # of 1-4 neighbors
     1 = max # of special neighbors
  special bonds CPU = 0.000 seconds
  read_restart CPU = 0.003 seconds
*****debug*****
xy = -7.3464000000000000412, deltaxy = 0.73464
xz = -0.3070999999999999841, deltaxz = 0.03071
yz = -0.01799999999999999864, deltayz = 0.0018
*****
*****Negative-deform 2 starts.*****
Resetting global fix info from restart file:
  fix style: nvt, fix ID: fnvt
All restart file global fix info was re-assigned
Neighbor list info ...
  update: every = 10 steps, delay = 0 steps, check = no
  max neighbors/atom: 2000, page size: 100000
  master list distance cutoff = 12
  ghost atom cutoff = 12
  binsize = 6, bins = 5 3 3
  2 neighbor lists, perpetual/occasional/extra = 2 0 0
  (1) pair reaxff, perpetual
      attributes: half, newton off, ghost
      pair build: half/bin/newtoff/ghost
      stencil: full/ghost/bin/3d
      bin: standard
  (2) fix qeq/reaxff, perpetual, copy from (1)
      attributes: half, newton off
      pair build: copy
      stencil: none
      bin: none
Setting up Verlet run ...
  Unit style    : real
  Current step  : 0
  Time step     : 0.5
Per MPI rank memory allocation (min/avg/max) = 133.9 | 134.9 | 136.1 Mbytes
   Step          Temp          PotEng         Press          Volume           Lx             Ly             Lz      
         0   307.35389     -44750.192      3862.2652      3934.8755      16.7222        13.589         17.3161      
       100   299.15211     -44738.995      949.44651      3927.0058      16.7222        13.561822      17.3161      
       200   310.05929     -44729.303     -9753.7715      3919.136       16.7222        13.534644      17.3161      
       300   318.63321     -44726.102      11494.896      3911.2663      16.7222        13.507466      17.3161      
       400   306.97394     -44722.176      9261.5602      3903.3965      16.7222        13.480288      17.3161      
       500   304.80188     -44746.191      3282.0588      3895.5268      16.7222        13.45311       17.3161      
       600   296.51622     -44740.519      6737.3945      3887.657       16.7222        13.425932      17.3161      
       700   312.65898     -44759.478      12586.979      3879.7873      16.7222        13.398754      17.3161      
       800   294.58619     -44739.692      5709.6992      3871.9175      16.7222        13.371576      17.3161      
       900   296.91079     -44752.653     -9469.838       3864.0478      16.7222        13.344398      17.3161      
      1000   290.97608     -44756.059     -7658.1802      3856.178       16.7222        13.31722       17.3161      
      1100   301.57102     -44762.046     -3078.399       3848.3083      16.7222        13.290042      17.3161      
      1200   296.63366     -44721.527     -1104.906       3840.4385      16.7222        13.262864      17.3161      
      1300   311.66087     -44720.325      324.41352      3832.5687      16.7222        13.235686      17.3161      
      1400   312.6153      -44727.056      1197.9542      3824.699       16.7222        13.208508      17.3161      
      1500   311.07686     -44739.044      16425.899      3816.8292      16.7222        13.18133       17.3161      
      1600   302.72377     -44733.77       4137.6791      3808.9595      16.7222        13.154152      17.3161      
      1700   301.25006     -44749.382      13486.858      3801.0897      16.7222        13.126974      17.3161      
      1800   291.76272     -44746.858      3726.5246      3793.22        16.7222        13.099796      17.3161      
      1900   281.42236     -44730.618      17511.453      3785.3502      16.7222        13.072618      17.3161      
      2000   294.50237     -44723.834      37467.841      3777.4805      16.7222        13.04544       17.3161      
      2100   325.13604     -44714.767      13009.362      3769.6107      16.7222        13.018262      17.3161      
      2200   332.17264     -44747.029      14595.773      3761.741       16.7222        12.991084      17.3161      
      2300   307.74614     -44742.403      7837.634       3753.8712      16.7222        12.963906      17.3161      
      2400   307.3037      -44749.108      33306.394      3746.0015      16.7222        12.936728      17.3161      
      2500   285.67364     -44730.51       14463.251      3738.1317      16.7222        12.90955       17.3161      
      2600   287.18589     -44735.957      28819.426      3730.262       16.7222        12.882372      17.3161      
      2700   282.03819     -44726.081      26154.859      3722.3922      16.7222        12.855194      17.3161      
      2800   276.03315     -44736.351      16457.12       3714.5225      16.7222        12.828016      17.3161      
      2900   284.57781     -44739.637      23833.953      3706.6527      16.7222        12.800838      17.3161      
      3000   316.97348     -44733.785      13489.654      3698.783       16.7222        12.77366       17.3161      
      3100   308.87458     -44705.787      9321.8758      3690.9132      16.7222        12.746482      17.3161      
      3200   289.19937     -44694.137      13672.573      3683.0435      16.7222        12.719304      17.3161      
      3300   299.19623     -44725.243      18301.049      3675.1737      16.7222        12.692126      17.3161      
      3400   297.81571     -44720.513      23219.313      3667.304       16.7222        12.664948      17.3161      
      3500   289.24007     -44717.578      15924.668      3659.4342      16.7222        12.63777       17.3161      
      3600   312.67179     -44742.43       18629.518      3651.5645      16.7222        12.610592      17.3161      
      3700   270.30347     -44709.388      25716.89       3643.6947      16.7222        12.583414      17.3161      
      3800   271.42725     -44724.805      30604.019      3635.825       16.7222        12.556236      17.3161      
      3900   310.13104     -44725.992      31208.609      3627.9552      16.7222        12.529058      17.3161      
      4000   302.02371     -44687.499      26512.835      3620.0855      16.7222        12.50188       17.3161      
      4100   306.47487     -44691.695      25182.312      3612.2157      16.7222        12.474702      17.3161      
      4200   304.38956     -44703.037      21734.308      3604.346       16.7222        12.447524      17.3161      
      4300   305.94369     -44707.787      20961.053      3596.4762      16.7222        12.420346      17.3161      
      4400   309.95329     -44700.825      28753.97       3588.6065      16.7222        12.393168      17.3161      
      4500   303.73501     -44691.472      27993.163      3580.7367      16.7222        12.36599       17.3161      
      4600   300.64231     -44685.837      37355.608      3572.867       16.7222        12.338812      17.3161      
      4700   298.4554      -44682.629      26415.384      3564.9972      16.7222        12.311634      17.3161      
      4800   305.73973     -44680.568      37555.289      3557.1275      16.7222        12.284456      17.3161      
      4900   290.06901     -44665.976      3268.7572      3549.2577      16.7222        12.257278      17.3161      
      5000   299.46629     -44688.15       46210.703      3541.388       16.7222        12.2301        17.3161      
Loop time of 281.442 on 16 procs for 5000 steps with 386 atoms

Performance: 0.767 ns/day, 31.271 hours/ns, 17.766 timesteps/s, 6.858 katom-step/s
99.5% CPU use with 8 MPI tasks x 2 OpenMP threads

MPI task timing breakdown:
Section |  min time  |  avg time  |  max time  |%varavg| %total
---------------------------------------------------------------
Pair    | 168.06     | 204.89     | 236.77     | 194.5 | 72.80
Bond    | 0.0014643  | 0.0017029  | 0.002005   |   0.4 |  0.00
Neigh   | 12.721     | 15.407     | 17.546     |  53.0 |  5.47
Comm    | 3.9841     | 35.865     | 72.699     | 464.9 | 12.74
Output  | 0.017277   | 0.01965    | 0.021392   |   0.9 |  0.01
Modify  | 22.994     | 25.138     | 27.832     |  41.6 |  8.93
Other   |            | 0.1167     |            |       |  0.04

Nlocal:          48.25 ave          53 max          43 min
Histogram: 1 1 0 1 0 0 2 1 0 2
Nghost:         3825.5 ave        3845 max        3805 min
Histogram: 1 0 1 0 2 1 1 0 1 1
Neighs:        36771.9 ave       39958 max       32923 min
Histogram: 1 1 0 1 0 0 2 1 0 2

Total # of neighbors = 294175
Ave neighs/atom = 762.1114
Ave special neighs/atom = 0
Neighbor list builds = 500
Dangerous builds not checked
  using 2 OpenMP thread(s) per MPI task
Reading restart file ...
  restart file = 2 Aug 2023, LAMMPS = 2 Aug 2023
  restoring atom style full from restart
  triclinic box = (0 0 0) to (16.7222 13.589 17.3161) with tilt (-7.3464 -0.3071 -0.018)
WARNING: Triclinic box skew is large. LAMMPS will run inefficiently. (src/domain.cpp:220)
  2 by 2 by 2 MPI processor grid
  pair style reaxff stores no restart info
  386 atoms
Finding 1-2 1-3 1-4 neighbors ...
  special bond factors lj:    0        0        0       
  special bond factors coul:  0        0        0       
     0 = max # of 1-2 neighbors
     0 = max # of 1-3 neighbors
     0 = max # of 1-4 neighbors
     1 = max # of special neighbors
  special bonds CPU = 0.000 seconds
  read_restart CPU = 0.003 seconds
*****Positive-deform 2 starts.*****
Resetting global fix info from restart file:
  fix style: nvt, fix ID: fnvt
All restart file global fix info was re-assigned
Neighbor list info ...
  update: every = 10 steps, delay = 0 steps, check = no
  max neighbors/atom: 2000, page size: 100000
  master list distance cutoff = 12
  ghost atom cutoff = 12
  binsize = 6, bins = 5 3 3
  2 neighbor lists, perpetual/occasional/extra = 2 0 0
  (1) pair reaxff, perpetual
      attributes: half, newton off, ghost
      pair build: half/bin/newtoff/ghost
      stencil: full/ghost/bin/3d
      bin: standard
  (2) fix qeq/reaxff, perpetual, copy from (1)
      attributes: half, newton off
      pair build: copy
      stencil: none
      bin: none
Setting up Verlet run ...
  Unit style    : real
  Current step  : 0
  Time step     : 0.5
Per MPI rank memory allocation (min/avg/max) = 134 | 135 | 136.1 Mbytes
   Step          Temp          PotEng         Press          Volume           Lx             Ly             Lz      
         0   307.35389     -44750.192      3862.2652      3934.8755      16.7222        13.589         17.3161      
       100   298.66223     -44739          1023.0024      3942.7453      16.7222        13.616178      17.3161      
       200   308.05034     -44728.097     -5257.0683      3950.615       16.7222        13.643356      17.3161      
       300   323.23659     -44718.997      10509.266      3958.4848      16.7222        13.670534      17.3161      
       400   310.99544     -44712.923     -7066.0346      3966.3545      16.7222        13.697712      17.3161      
       500   312.26537     -44749.684     -552.06405      3974.2243      16.7222        13.72489       17.3161      
       600   301.8025      -44739.539     -7672.1376      3982.094       16.7222        13.752068      17.3161      
       700   310.53627     -44747.268     -3714.0426      3989.9638      16.7222        13.779246      17.3161      
       800   292.77714     -44726.507     -356.64374      3997.8335      16.7222        13.806424      17.3161      
       900   300.33572     -44737.665     -8785.0205      4005.7033      16.7222        13.833602      17.3161      
      1000   305.32303     -44738.483      1584.9486      4013.573       16.7222        13.86078       17.3161      
      1100   292.21608     -44707.295     -7445.9386      4021.4428      16.7222        13.887958      17.3161      
      1200   306.69544     -44698.078     -2659.2923      4029.3125      16.7222        13.915136      17.3161      
      1300   307.43029     -44694.453     -7054.5128      4037.1823      16.7222        13.942314      17.3161      
      1400   285.79454     -44705.196     -8654.1084      4045.052       16.7222        13.969492      17.3161      
      1500   287.86035     -44705.668     -6892.289       4052.9218      16.7222        13.99667       17.3161      
      1600   303.28084     -44700.392     -8028.2083      4060.7915      16.7222        14.023848      17.3161      
      1700   321.89617     -44701.414     -17941.72       4068.6613      16.7222        14.051026      17.3161      
      1800   303.73375     -44699.779     -6836.9559      4076.531       16.7222        14.078204      17.3161      
      1900   290.00596     -44702.574     -6966.2954      4084.4008      16.7222        14.105382      17.3161      
      2000   294.56266     -44705.314     -11448.57       4092.2705      16.7222        14.13256       17.3161      
      2100   311.60207     -44718.176     -22266.818      4100.1403      16.7222        14.159738      17.3161      
      2200   289.15918     -44710.468     -11503.189      4108.01        16.7222        14.186916      17.3161      
      2300   286.97484     -44716.093     -11383.693      4115.8798      16.7222        14.214094      17.3161      
      2400   288.25134     -44694.513     -22004.466      4123.7495      16.7222        14.241272      17.3161      
      2500   299.84851     -44674.934     -27425.182      4131.6193      16.7222        14.26845       17.3161      
      2600   294.07528     -44663.355     -24118.009      4139.489       16.7222        14.295628      17.3161      
      2700   311.7835      -44684.31      -20676.061      4147.3588      16.7222        14.322806      17.3161      
      2800   304.99822     -44682.927     -19558.986      4155.2285      16.7222        14.349984      17.3161      
      2900   280.59235     -44675.2       -19548.48       4163.0983      16.7222        14.377162      17.3161      
      3000   284.5589      -44696.357     -29943.632      4170.968       16.7222        14.40434       17.3161      
      3100   279.64185     -44704.962     -20756.244      4178.8378      16.7222        14.431518      17.3161      
      3200   280.50776     -44679.831     -12204.143      4186.7075      16.7222        14.458696      17.3161      
      3300   298.57762     -44651.985     -12844.318      4194.5773      16.7222        14.485874      17.3161      
      3400   311.82619     -44653.632     -9844.4838      4202.447       16.7222        14.513052      17.3161      
      3500   320.41339     -44660.183     -19451.255      4210.3168      16.7222        14.54023       17.3161      
      3600   303.00777     -44666.434     -15039.627      4218.1865      16.7222        14.567408      17.3161      
      3700   291.31229     -44659.273     -20625.209      4226.0563      16.7222        14.594586      17.3161      
      3800   288.42686     -44635.333     -14054.542      4233.9261      16.7222        14.621764      17.3161      
      3900   314.61754     -44636.182     -16208.664      4241.7958      16.7222        14.648942      17.3161      
      4000   299.085       -44618.101     -18081.993      4249.6656      16.7222        14.67612       17.3161      
      4100   295.93131     -44649.153     -22969.156      4257.5353      16.7222        14.703298      17.3161      
      4200   294.00255     -44645.37      -19799.503      4265.4051      16.7222        14.730476      17.3161      
      4300   298.94389     -44623.921     -19304.259      4273.2748      16.7222        14.757654      17.3161      
      4400   306.60677     -44598.125     -16854.469      4281.1446      16.7222        14.784832      17.3161      
      4500   311.61303     -44597.947     -18482.091      4289.0143      16.7222        14.81201       17.3161      
      4600   300.28219     -44601.592     -23482.832      4296.8841      16.7222        14.839188      17.3161      
      4700   298.91891     -44596.758     -16186.918      4304.7538      16.7222        14.866366      17.3161      
      4800   307.89899     -44596.803     -20878.219      4312.6236      16.7222        14.893544      17.3161      
      4900   295.04341     -44587.589     -21254.938      4320.4933      16.7222        14.920722      17.3161      
      5000   298.82989     -44592.893     -19926.945      4328.3631      16.7222        14.9479        17.3161      
Loop time of 243.865 on 16 procs for 5000 steps with 386 atoms

Performance: 0.886 ns/day, 27.096 hours/ns, 20.503 timesteps/s, 7.914 katom-step/s
99.4% CPU use with 8 MPI tasks x 2 OpenMP threads

MPI task timing breakdown:
Section |  min time  |  avg time  |  max time  |%varavg| %total
---------------------------------------------------------------
Pair    | 151.07     | 173.77     | 201.4      | 157.3 | 71.26
Bond    | 0.0014402  | 0.0016526  | 0.0018528  |   0.3 |  0.00
Neigh   | 11.851     | 13.4       | 15.462     |  42.3 |  5.50
Comm    | 5.3898     | 33.01      | 55.674     | 360.7 | 13.54
Output  | 0.017575   | 0.020293   | 0.022532   |   1.0 |  0.01
Modify  | 21.314     | 23.417     | 25.016     |  32.7 |  9.60
Other   |            | 0.2468     |            |       |  0.10

Nlocal:          48.25 ave          62 max          39 min
Histogram: 1 1 0 4 0 0 1 0 0 1
Nghost:        3179.75 ave        3245 max        3133 min
Histogram: 3 0 1 0 1 0 1 1 0 1
Neighs:        29992.8 ave       37892 max       24518 min
Histogram: 1 1 0 4 0 0 1 0 0 1

Total # of neighbors = 239942
Ave neighs/atom = 621.6114
Ave special neighs/atom = 0
Neighbor list builds = 500
Dangerous builds not checked
  using 2 OpenMP thread(s) per MPI task
Reading restart file ...
  restart file = 2 Aug 2023, LAMMPS = 2 Aug 2023
  restoring atom style full from restart
  triclinic box = (0 0 0) to (16.7222 13.589 17.3161) with tilt (-7.3464 -0.3071 -0.018)
WARNING: Triclinic box skew is large. LAMMPS will run inefficiently. (src/domain.cpp:220)
  2 by 2 by 2 MPI processor grid
  pair style reaxff stores no restart info
  386 atoms
Finding 1-2 1-3 1-4 neighbors ...
  special bond factors lj:    0        0        0       
  special bond factors coul:  0        0        0       
     0 = max # of 1-2 neighbors
     0 = max # of 1-3 neighbors
     0 = max # of 1-4 neighbors
     1 = max # of special neighbors
  special bonds CPU = 0.000 seconds
  read_restart CPU = 0.003 seconds
*****debug*****
xy = -7.3464000000000000412, deltaxy = 0.73464
xz = -0.3070999999999999841, deltaxz = 0.03071
yz = -0.01799999999999999864, deltayz = 0.0018
*****
*****Negative-deform 3 starts.*****
Resetting global fix info from restart file:
  fix style: nvt, fix ID: fnvt
All restart file global fix info was re-assigned
Neighbor list info ...
  update: every = 10 steps, delay = 0 steps, check = no
  max neighbors/atom: 2000, page size: 100000
  master list distance cutoff = 12
  ghost atom cutoff = 12
  binsize = 6, bins = 5 3 3
  2 neighbor lists, perpetual/occasional/extra = 2 0 0
  (1) pair reaxff, perpetual
      attributes: half, newton off, ghost
      pair build: half/bin/newtoff/ghost
      stencil: full/ghost/bin/3d
      bin: standard
  (2) fix qeq/reaxff, perpetual, copy from (1)
      attributes: half, newton off
      pair build: copy
      stencil: none
      bin: none
Setting up Verlet run ...
  Unit style    : real
  Current step  : 0
  Time step     : 0.5
Per MPI rank memory allocation (min/avg/max) = 133.9 | 134.9 | 136.1 Mbytes
   Step          Temp          PotEng         Press          Volume           Lx             Ly             Lz      
         0   307.35389     -44750.192      3862.2652      3934.8755      16.7222        13.589         17.3161      
       100   299.00776     -44739.114      1055.582       3927.0058      16.7222        13.589         17.281468    
       200   309.50259     -44730.633     -10196.597      3919.136       16.7222        13.589         17.246836    
       300   323.46269     -44722.35       18551.762      3911.2663      16.7222        13.589         17.212203    
       400   307.96275     -44728.301     -7120.4787      3903.3965      16.7222        13.589         17.177571    
       500   297.38089     -44737.026     -1473.7916      3895.5268      16.7222        13.589         17.142939    
       600   300.90801     -44737.037      18270.043      3887.657       16.7222        13.589         17.108307    
       700   320.40205     -44755.271      12928.646      3879.7873      16.7222        13.589         17.073675    
       800   296.84513     -44752.663      10922.171      3871.9175      16.7222        13.589         17.039042    
       900   296.78308     -44756.507     -2784.598       3864.0478      16.7222        13.589         17.00441     
      1000   292.21576     -44737.619     -12622.163      3856.178       16.7222        13.589         16.969778    
      1100   303.87782     -44740.184      790.76434      3848.3083      16.7222        13.589         16.935146    
      1200   295.18855     -44734.199      18788.376      3840.4385      16.7222        13.589         16.900514    
      1300   285.26786     -44756.682      24091.551      3832.5687      16.7222        13.589         16.865881    
      1400   295.78819     -44757.242      12111.692      3824.699       16.7222        13.589         16.831249    
      1500   299.18888     -44734.878      11967.614      3816.8292      16.7222        13.589         16.796617    
      1600   323.67708     -44735.322      17435.858      3808.9595      16.7222        13.589         16.761985    
      1700   313.24889     -44731.949      12649.612      3801.0897      16.7222        13.589         16.727353    
      1800   296.281       -44733.078      4794.703       3793.22        16.7222        13.589         16.69272     
      1900   289.02044     -44729.984      15535.25       3785.3502      16.7222        13.589         16.658088    
      2000   291.13263     -44733.409      23190.938      3777.4805      16.7222        13.589         16.623456    
      2100   315.81005     -44762.407      5955.6735      3769.6107      16.7222        13.589         16.588824    
      2200   295.31449     -44742.039      9290.8744      3761.741       16.7222        13.589         16.554192    
      2300   292.91854     -44742.084      7478.9798      3753.8712      16.7222        13.589         16.519559    
      2400   281.58612     -44746.742      8314.4173      3746.0015      16.7222        13.589         16.484927    
      2500   282.43301     -44754.017      21917.948      3738.1317      16.7222        13.589         16.450295    
      2600   304.7869      -44751.503      6352.3672      3730.262       16.7222        13.589         16.415663    
      2700   299.08957     -44710.066      3247.7268      3722.3922      16.7222        13.589         16.381031    
      2800   303.22188     -44708.077      16394.465      3714.5225      16.7222        13.589         16.346398    
      2900   308.96199     -44710.181      36272.803      3706.6527      16.7222        13.589         16.311766    
      3000   301.94087     -44718.122      15201.346      3698.783       16.7222        13.589         16.277134    
      3100   288.97109     -44701.845      22277.234      3690.9132      16.7222        13.589         16.242502    
      3200   304.28372     -44708.077      15877.846      3683.0435      16.7222        13.589         16.20787     
      3300   307.34659     -44725.868      22305.26       3675.1737      16.7222        13.589         16.173237    
      3400   307.55323     -44739.631      10969.616      3667.304       16.7222        13.589         16.138605    
      3500   286.86251     -44703.652      23349.044      3659.4342      16.7222        13.589         16.103973    
      3600   304.18583     -44715.999      29185.49       3651.5645      16.7222        13.589         16.069341    
      3700   324.55641     -44728.963      16520.526      3643.6947      16.7222        13.589         16.034709    
      3800   297.76608     -44686.048      12097.915      3635.825       16.7222        13.589         16.000076    
      3900   299.91032     -44691.89       16360.015      3627.9552      16.7222        13.589         15.965444    
      4000   290.76279     -44686.635      24027.535      3620.0855      16.7222        13.589         15.930812    
      4100   287.46689     -44679.973      13391.477      3612.2157      16.7222        13.589         15.89618     
      4200   294.73618     -44670.768      12254.484      3604.346       16.7222        13.589         15.861548    
      4300   311.87752     -44683.41       30232.603      3596.4762      16.7222        13.589         15.826915    
      4400   302.10966     -44689.814      29446.435      3588.6065      16.7222        13.589         15.792283    
      4500   291.4331      -44678.92       47684.379      3580.7367      16.7222        13.589         15.757651    
      4600   312.71377     -44684.235      24029.271      3572.867       16.7222        13.589         15.723019    
      4700   300.51822     -44678.222      9875.9401      3564.9972      16.7222        13.589         15.688387    
      4800   303.96615     -44699.513      49017.644      3557.1275      16.7222        13.589         15.653754    
      4900   289.2696      -44663.574      25406.966      3549.2577      16.7222        13.589         15.619122    
      5000   303.8157      -44668.237      29390.173      3541.388       16.7222        13.589         15.58449     
Loop time of 280.317 on 16 procs for 5000 steps with 386 atoms

Performance: 0.771 ns/day, 31.146 hours/ns, 17.837 timesteps/s, 6.885 katom-step/s
99.5% CPU use with 8 MPI tasks x 2 OpenMP threads

MPI task timing breakdown:
Section |  min time  |  avg time  |  max time  |%varavg| %total
---------------------------------------------------------------
Pair    | 158.17     | 197.75     | 237        | 241.2 | 70.54
Bond    | 0.0012619  | 0.0015639  | 0.001802   |   0.4 |  0.00
Neigh   | 11.995     | 14.632     | 17.741     |  68.8 |  5.22
Comm    | 2.1341     | 41.341     | 80.874     | 527.1 | 14.75
Output  | 0.017178   | 0.019685   | 0.021542   |   0.9 |  0.01
Modify  | 23.267     | 26.455     | 29.14      |  51.9 |  9.44
Other   |            | 0.1222     |            |       |  0.04

Nlocal:          48.25 ave          60 max          39 min
Histogram: 1 0 1 2 1 2 0 0 0 1
Nghost:        3750.25 ave        3787 max        3702 min
Histogram: 1 0 1 1 0 1 0 1 2 1
Neighs:        36816.8 ave       45132 max       30197 min
Histogram: 1 0 1 2 1 2 0 0 0 1

Total # of neighbors = 294534
Ave neighs/atom = 763.04145
Ave special neighs/atom = 0
Neighbor list builds = 500
Dangerous builds not checked
  using 2 OpenMP thread(s) per MPI task
Reading restart file ...
  restart file = 2 Aug 2023, LAMMPS = 2 Aug 2023
  restoring atom style full from restart
  triclinic box = (0 0 0) to (16.7222 13.589 17.3161) with tilt (-7.3464 -0.3071 -0.018)
WARNING: Triclinic box skew is large. LAMMPS will run inefficiently. (src/domain.cpp:220)
  2 by 2 by 2 MPI processor grid
  pair style reaxff stores no restart info
  386 atoms
Finding 1-2 1-3 1-4 neighbors ...
  special bond factors lj:    0        0        0       
  special bond factors coul:  0        0        0       
     0 = max # of 1-2 neighbors
     0 = max # of 1-3 neighbors
     0 = max # of 1-4 neighbors
     1 = max # of special neighbors
  special bonds CPU = 0.000 seconds
  read_restart CPU = 0.004 seconds
*****Positive-deform 3 starts.*****
Resetting global fix info from restart file:
  fix style: nvt, fix ID: fnvt
All restart file global fix info was re-assigned
Neighbor list info ...
  update: every = 10 steps, delay = 0 steps, check = no
  max neighbors/atom: 2000, page size: 100000
  master list distance cutoff = 12
  ghost atom cutoff = 12
  binsize = 6, bins = 5 3 3
  2 neighbor lists, perpetual/occasional/extra = 2 0 0
  (1) pair reaxff, perpetual
      attributes: half, newton off, ghost
      pair build: half/bin/newtoff/ghost
      stencil: full/ghost/bin/3d
      bin: standard
  (2) fix qeq/reaxff, perpetual, copy from (1)
      attributes: half, newton off
      pair build: copy
      stencil: none
      bin: none
Setting up Verlet run ...
  Unit style    : real
  Current step  : 0
  Time step     : 0.5
Per MPI rank memory allocation (min/avg/max) = 133.9 | 134.9 | 136.1 Mbytes
   Step          Temp          PotEng         Press          Volume           Lx             Ly             Lz      
         0   307.35389     -44750.192      3862.2652      3934.8755      16.7222        13.589         17.3161      
       100   298.84953     -44738.942      738.55741      3942.7453      16.7222        13.589         17.350732    
       200   311.81606     -44729.841     -11822.781      3950.615       16.7222        13.589         17.385364    
       300   312.83286     -44713.025      3894.9664      3958.4848      16.7222        13.589         17.419997    
       400   294.83623     -44726         -12707.764      3966.3545      16.7222        13.589         17.454629    
       500   308.09314     -44753.441      4375.3642      3974.2243      16.7222        13.589         17.489261    
       600   301.7282      -44746.841     -5887.5753      3982.094       16.7222        13.589         17.523893    
       700   299.13233     -44737.88      -10264.521      3989.9638      16.7222        13.589         17.558525    
       800   306.29392     -44761.038     -5169.7497      3997.8335      16.7222        13.589         17.593158    
       900   302.57479     -44770.079     -5444.6146      4005.7033      16.7222        13.589         17.62779     
      1000   285.06113     -44728.312     -7944.3329      4013.573       16.7222        13.589         17.662422    
      1100   310.37961     -44714.414     -4731.5562      4021.4428      16.7222        13.589         17.697054    
      1200   320.56482     -44716.7       -5848.8213      4029.3125      16.7222        13.589         17.731686    
      1300   312.94262     -44726.917      3913.4211      4037.1823      16.7222        13.589         17.766319    
      1400   295.90734     -44720.569     -12002.539      4045.052       16.7222        13.589         17.800951    
      1500   283.4977      -44703.192     -5887.6158      4052.9218      16.7222        13.589         17.835583    
      1600   295.5132      -44722.521     -6463.7969      4060.7915      16.7222        13.589         17.870215    
      1700   295.62922     -44757.759      8564.5606      4068.6613      16.7222        13.589         17.904847    
      1800   283.79108     -44761.084     -15032.357      4076.531       16.7222        13.589         17.93948     
      1900   285.18797     -44732.725     -8645.4346      4084.4008      16.7222        13.589         17.974112    
      2000   297.11399     -44717.984     -8199.066       4092.2705      16.7222        13.589         18.008744    
      2100   319.81541     -44728.796     -8304.0628      4100.1403      16.7222        13.589         18.043376    
      2200   309.43779     -44731.331     -10219.738      4108.01        16.7222        13.589         18.078008    
      2300   296.16962     -44729.979     -15592.111      4115.8798      16.7222        13.589         18.112641    
      2400   311.11972     -44731.278     -10084.722      4123.7495      16.7222        13.589         18.147273    
      2500   304.37976     -44721.754     -10094.325      4131.6193      16.7222        13.589         18.181905    
      2600   296.53328     -44711.585     -18402.713      4139.489       16.7222        13.589         18.216537    
      2700   291.31415     -44718.821     -26184.061      4147.3588      16.7222        13.589         18.251169    
      2800   295.59955     -44739.189     -13857.324      4155.2285      16.7222        13.589         18.285802    
      2900   275.77226     -44722.975     -6342.5497      4163.0983      16.7222        13.589         18.320434    
      3000   282.61278     -44716.993     -16244.688      4170.968       16.7222        13.589         18.355066    
      3100   297.32982     -44704.425     -22691.799      4178.8378      16.7222        13.589         18.389698    
      3200   322.81296     -44709.363     -22499.601      4186.7075      16.7222        13.589         18.42433     
      3300   311.38014     -44708.136     -6170.0258      4194.5773      16.7222        13.589         18.458963    
      3400   282.57588     -44691.661     -14527.263      4202.447       16.7222        13.589         18.493595    
      3500   293.44031     -44695.675     -21464.8        4210.3168      16.7222        13.589         18.528227    
      3600   294.24335     -44695.177     -12554.734      4218.1865      16.7222        13.589         18.562859    
      3700   294.8894      -44692.979     -12576.862      4226.0563      16.7222        13.589         18.597491    
      3800   295.0068      -44716.424     -17699.091      4233.9261      16.7222        13.589         18.632124    
      3900   288.24846     -44708.302     -15381.024      4241.7958      16.7222        13.589         18.666756    
      4000   307.97927     -44703.301     -22630.572      4249.6656      16.7222        13.589         18.701388    
      4100   308.61881     -44671.091     -39293.117      4257.5353      16.7222        13.589         18.73602     
      4200   313.31668     -44667.923     -15780.022      4265.4051      16.7222        13.589         18.770652    
      4300   292.41788     -44660.136     -10165.029      4273.2748      16.7222        13.589         18.805285    
      4400   298.97806     -44682.518     -14643.998      4281.1446      16.7222        13.589         18.839917    
      4500   310.79226     -44688.34      -18458.223      4289.0143      16.7222        13.589         18.874549    
      4600   305.43042     -44667.092     -15645.047      4296.8841      16.7222        13.589         18.909181    
      4700   289.41264     -44655.658     -23015.878      4304.7538      16.7222        13.589         18.943813    
      4800   291.75197     -44672.64      -20358.654      4312.6236      16.7222        13.589         18.978446    
      4900   301.40275     -44681.291     -25599.546      4320.4933      16.7222        13.589         19.013078    
      5000   285.0999      -44653.142     -12976.69       4328.3631      16.7222        13.589         19.04771     
Loop time of 242.847 on 16 procs for 5000 steps with 386 atoms

Performance: 0.889 ns/day, 26.983 hours/ns, 20.589 timesteps/s, 7.947 katom-step/s
99.5% CPU use with 8 MPI tasks x 2 OpenMP threads

MPI task timing breakdown:
Section |  min time  |  avg time  |  max time  |%varavg| %total
---------------------------------------------------------------
Pair    | 137.88     | 167.41     | 204.33     | 209.3 | 68.94
Bond    | 0.0012138  | 0.0015657  | 0.0018063  |   0.4 |  0.00
Neigh   | 10.015     | 12.14      | 14.952     |  60.8 |  5.00
Comm    | 1.6542     | 38.545     | 68.064     | 435.9 | 15.87
Output  | 0.016943   | 0.019233   | 0.021072   |   0.9 |  0.01
Modify  | 21.728     | 24.616     | 26.731     |  43.3 | 10.14
Other   |            | 0.1156     |            |       |  0.05

Nlocal:          48.25 ave          54 max          44 min
Histogram: 1 1 1 1 1 0 0 2 0 1
Nghost:        3196.62 ave        3225 max        3160 min
Histogram: 1 0 0 1 1 2 1 0 1 1
Neighs:        30029.8 ave       33414 max       27664 min
Histogram: 2 1 0 2 0 0 2 0 0 1

Total # of neighbors = 240238
Ave neighs/atom = 622.37824
Ave special neighs/atom = 0
Neighbor list builds = 500
Dangerous builds not checked
  using 2 OpenMP thread(s) per MPI task
Reading restart file ...
  restart file = 2 Aug 2023, LAMMPS = 2 Aug 2023
  restoring atom style full from restart
  triclinic box = (0 0 0) to (16.7222 13.589 17.3161) with tilt (-7.3464 -0.3071 -0.018)
WARNING: Triclinic box skew is large. LAMMPS will run inefficiently. (src/domain.cpp:220)
  2 by 2 by 2 MPI processor grid
  pair style reaxff stores no restart info
  386 atoms
Finding 1-2 1-3 1-4 neighbors ...
  special bond factors lj:    0        0        0       
  special bond factors coul:  0        0        0       
     0 = max # of 1-2 neighbors
     0 = max # of 1-3 neighbors
     0 = max # of 1-4 neighbors
     1 = max # of special neighbors
  special bonds CPU = 0.000 seconds
  read_restart CPU = 0.003 seconds
*****debug*****
xy = -7.3464000000000000412, deltaxy = 0.73464
xz = -0.3070999999999999841, deltaxz = 0.03071
yz = -0.01799999999999999864, deltayz = 0.0018
*****
*****Negative-deform 4 starts.*****
Resetting global fix info from restart file:
  fix style: nvt, fix ID: fnvt
All restart file global fix info was re-assigned
Neighbor list info ...
  update: every = 10 steps, delay = 0 steps, check = no
  max neighbors/atom: 2000, page size: 100000
  master list distance cutoff = 12
  ghost atom cutoff = 12
  binsize = 6, bins = 5 3 3
  2 neighbor lists, perpetual/occasional/extra = 2 0 0
  (1) pair reaxff, perpetual
      attributes: half, newton off, ghost
      pair build: half/bin/newtoff/ghost
      stencil: full/ghost/bin/3d
      bin: standard
  (2) fix qeq/reaxff, perpetual, copy from (1)
      attributes: half, newton off
      pair build: copy
      stencil: none
      bin: none
Setting up Verlet run ...
  Unit style    : real
  Current step  : 0
  Time step     : 0.5
Per MPI rank memory allocation (min/avg/max) = 133.9 | 134.9 | 136.1 Mbytes
   Step          Temp          PotEng         Press          Volume           Lx             Ly             Lz      
         0   307.35389     -44750.192      3862.2652      3934.8755      16.7222        13.589         17.3161      
       100   298.74484     -44738.872      1176.6412      3934.8755      16.7222        13.589         17.3161      
       200   305.93838     -44728.142     -3572.4343      3934.8755      16.7222        13.589         17.3161      
       300   313.72346     -44710.469      14505.96       3934.8755      16.7222        13.589         17.3161      
       400   309.34939     -44713.888     -18743.46       3934.8755      16.7222        13.589         17.3161      
       500   297.43287     -44741.883      1471.8265      3934.8755      16.7222        13.589         17.3161      
       600   289.17786     -44733.607     -1862.7916      3934.8755      16.7222        13.589         17.3161      
       700   326.67302     -44766.618     -6180.7521      3934.8755      16.7222        13.589         17.3161      
       800   311.48996     -44729.503     -2979.5342      3934.8755      16.7222        13.589         17.3161      
       900   315.3774      -44703.269      1418.6129      3934.8755      16.7222        13.589         17.3161      
      1000   317.25142     -44699.718     -10022.685      3934.8755      16.7222        13.589         17.3161      
      1100   294.62597     -44715.711     -4597.9955      3934.8755      16.7222        13.589         17.3161      
      1200   325.41048     -44753.135      3398.2114      3934.8755      16.7222        13.589         17.3161      
      1300   299.56837     -44732.878      2042.7032      3934.8755      16.7222        13.589         17.3161      
      1400   308.96763     -44752.967      1597.6259      3934.8755      16.7222        13.589         17.3161      
      1500   307.25686     -44750.553     -12563.015      3934.8755      16.7222        13.589         17.3161      
      1600   287.87316     -44723.372     -3217.5639      3934.8755      16.7222        13.589         17.3161      
      1700   308.56669     -44736.186     -2258.0115      3934.8755      16.7222        13.589         17.3161      
      1800   298.33012     -44716.989      752.31385      3934.8755      16.7222        13.589         17.3161      
      1900   299.55254     -44737.451     -2109.3013      3934.8755      16.7222        13.589         17.3161      
      2000   296.47166     -44746.182     -7518.9974      3934.8755      16.7222        13.589         17.3161      
      2100   295.13072     -44749.547     -1411.2991      3934.8755      16.7222        13.589         17.3161      
      2200   287.97309     -44754.308     -14970.074      3934.8755      16.7222        13.589         17.3161      
      2300   293.95256     -44735.347     -6700.9957      3934.8755      16.7222        13.589         17.3161      
      2400   310.56179     -44720.193      2230.9234      3934.8755      16.7222        13.589         17.3161      
      2500   305.99925     -44709.441     -2836.8933      3934.8755      16.7222        13.589         17.3161      
      2600   303.65234     -44712.975     -4193.5661      3934.8755      16.7222        13.589         17.3161      
      2700   305.62472     -44750.943      18670.015      3934.8755      16.7222        13.589         17.3161      
      2800   288.63919     -44732.971     -3505.9575      3934.8755      16.7222        13.589         17.3161      
      2900   302.15723     -44725.831      5229.9683      3934.8755      16.7222        13.589         17.3161      
      3000   304.62657     -44717.815      265.93589      3934.8755      16.7222        13.589         17.3161      
      3100   296.54234     -44699.251     -7260.8165      3934.8755      16.7222        13.589         17.3161      
      3200   293.78202     -44713.087     -4048.2092      3934.8755      16.7222        13.589         17.3161      
      3300   298.73668     -44740.656      836.01518      3934.8755      16.7222        13.589         17.3161      
      3400   278.8806      -44727.243     -15728.449      3934.8755      16.7222        13.589         17.3161      
      3500   307.29375     -44755.288      2219.5254      3934.8755      16.7222        13.589         17.3161      
      3600   292.38741     -44755.001     -12503.138      3934.8755      16.7222        13.589         17.3161      
      3700   285.95527     -44758.69      -3941.3518      3934.8755      16.7222        13.589         17.3161      
      3800   300.18109     -44751.609     -14665.747      3934.8755      16.7222        13.589         17.3161      
      3900   309.95386     -44727.397      4547.131       3934.8755      16.7222        13.589         17.3161      
      4000   310.97816     -44737.988     -11205.017      3934.8755      16.7222        13.589         17.3161      
      4100   308.73819     -44753.287     -6498.4301      3934.8755      16.7222        13.589         17.3161      
      4200   300.20432     -44752.066      4349.0658      3934.8755      16.7222        13.589         17.3161      
      4300   276.63576     -44726.516     -2329.5187      3934.8755      16.7222        13.589         17.3161      
      4400   297.0612      -44751.224      38.009638      3934.8755      16.7222        13.589         17.3161      
      4500   299.65561     -44750.174      1605.2604      3934.8755      16.7222        13.589         17.3161      
      4600   313.77162     -44750.796      12.794099      3934.8755      16.7222        13.589         17.3161      
      4700   305.07514     -44738.763     -15730.753      3934.8755      16.7222        13.589         17.3161      
      4800   312.51391     -44770.205     -806.0024       3934.8755      16.7222        13.589         17.3161      
      4900   292.28799     -44763.008     -5037.2152      3934.8755      16.7222        13.589         17.3161      
      5000   297.06641     -44766.13       2637.6822      3934.8755      16.7222        13.589         17.3161      
Loop time of 254.723 on 16 procs for 5000 steps with 386 atoms

Performance: 0.848 ns/day, 28.303 hours/ns, 19.629 timesteps/s, 7.577 katom-step/s
99.5% CPU use with 8 MPI tasks x 2 OpenMP threads

MPI task timing breakdown:
Section |  min time  |  avg time  |  max time  |%varavg| %total
---------------------------------------------------------------
Pair    | 147.44     | 171.16     | 212.49     | 187.1 | 67.19
Bond    | 0.0012003  | 0.0015301  | 0.0017799  |   0.5 |  0.00
Neigh   | 11.932     | 13.569     | 17.102     |  58.9 |  5.33
Comm    | 3.547      | 44.896     | 68.622     | 365.3 | 17.63
Output  | 0.015903   | 0.017877   | 0.019474   |   0.8 |  0.01
Modify  | 21.383     | 24.965     | 26.613     |  43.7 |  9.80
Other   |            | 0.1136     |            |       |  0.04

Nlocal:          48.25 ave          55 max          44 min
Histogram: 2 1 1 1 0 1 1 0 0 1
Nghost:        3458.62 ave        3495 max        3412 min
Histogram: 1 0 1 0 1 1 1 2 0 1
Neighs:        33061.4 ave       37229 max       30437 min
Histogram: 2 1 1 1 0 1 1 0 0 1

Total # of neighbors = 264491
Ave neighs/atom = 685.20984
Ave special neighs/atom = 0
Neighbor list builds = 500
Dangerous builds not checked
  using 2 OpenMP thread(s) per MPI task
Reading restart file ...
  restart file = 2 Aug 2023, LAMMPS = 2 Aug 2023
  restoring atom style full from restart
  triclinic box = (0 0 0) to (16.7222 13.589 17.3161) with tilt (-7.3464 -0.3071 -0.018)
WARNING: Triclinic box skew is large. LAMMPS will run inefficiently. (src/domain.cpp:220)
  2 by 2 by 2 MPI processor grid
  pair style reaxff stores no restart info
  386 atoms
Finding 1-2 1-3 1-4 neighbors ...
  special bond factors lj:    0        0        0       
  special bond factors coul:  0        0        0       
     0 = max # of 1-2 neighbors
     0 = max # of 1-3 neighbors
     0 = max # of 1-4 neighbors
     1 = max # of special neighbors
  special bonds CPU = 0.000 seconds
  read_restart CPU = 0.003 seconds
*****Positive-deform 4 starts.*****
Resetting global fix info from restart file:
  fix style: nvt, fix ID: fnvt
All restart file global fix info was re-assigned
Neighbor list info ...
  update: every = 10 steps, delay = 0 steps, check = no
  max neighbors/atom: 2000, page size: 100000
  master list distance cutoff = 12
  ghost atom cutoff = 12
  binsize = 6, bins = 5 3 3
  2 neighbor lists, perpetual/occasional/extra = 2 0 0
  (1) pair reaxff, perpetual
      attributes: half, newton off, ghost
      pair build: half/bin/newtoff/ghost
      stencil: full/ghost/bin/3d
      bin: standard
  (2) fix qeq/reaxff, perpetual, copy from (1)
      attributes: half, newton off
      pair build: copy
      stencil: none
      bin: none
Setting up Verlet run ...
  Unit style    : real
  Current step  : 0
  Time step     : 0.5
Per MPI rank memory allocation (min/avg/max) = 134 | 135 | 136.1 Mbytes
   Step          Temp          PotEng         Press          Volume           Lx             Ly             Lz      
         0   307.35389     -44750.192      3862.2652      3934.8755      16.7222        13.589         17.3161      
       100   299.03366     -44739.142      824.41624      3934.8755      16.7222        13.589         17.3161      
       200   307.52666     -44727.789     -9777.9024      3934.8755      16.7222        13.589         17.3161      
       300   323.52348     -44723.637      12929.569      3934.8755      16.7222        13.589         17.3161      
       400   313.62139     -44733.205     -6812.0469      3934.8755      16.7222        13.589         17.3161      
       500   295.81381     -44737.538     -969.05299      3934.8755      16.7222        13.589         17.3161      
       600   298.00635     -44736.944      8900.3779      3934.8755      16.7222        13.589         17.3161      
       700   303.90052     -44731.324     -10637.38       3934.8755      16.7222        13.589         17.3161      
       800   315.1967      -44721.695     -1208.8906      3934.8755      16.7222        13.589         17.3161      
       900   331.79982     -44707.687     -4096.2509      3934.8755      16.7222        13.589         17.3161      
      1000   304.91168     -44693.772     -11409.536      3934.8755      16.7222        13.589         17.3161      
      1100   291.26327     -44709.879     -6684.6244      3934.8755      16.7222        13.589         17.3161      
      1200   294.89079     -44720.546      413.59096      3934.8755      16.7222        13.589         17.3161      
      1300   299.27419     -44742.58       9598.7257      3934.8755      16.7222        13.589         17.3161      
      1400   307.94844     -44769.707      336.82445      3934.8755      16.7222        13.589         17.3161      
      1500   278.81347     -44740.718      424.88668      3934.8755      16.7222        13.589         17.3161      
      1600   303.49475     -44745.476     -265.60702      3934.8755      16.7222        13.589         17.3161      
      1700   307.11607     -44736.76       159.20105      3934.8755      16.7222        13.589         17.3161      
      1800   294.36489     -44724.588     -280.46904      3934.8755      16.7222        13.589         17.3161      
      1900   299.33501     -44736.186     -1556.6349      3934.8755      16.7222        13.589         17.3161      
      2000   302.15588     -44743.398      7014.1177      3934.8755      16.7222        13.589         17.3161      
      2100   282.63601     -44746.021     -466.26352      3934.8755      16.7222        13.589         17.3161      
      2200   287.21468     -44740.765      1619.0189      3934.8755      16.7222        13.589         17.3161      
      2300   295.75772     -44707.036      2866.4298      3934.8755      16.7222        13.589         17.3161      
      2400   299.18824     -44697.769     -7076.0481      3934.8755      16.7222        13.589         17.3161      
      2500   319.38578     -44733.858      114.00945      3934.8755      16.7222        13.589         17.3161      
      2600   296.24534     -44728.243      4082.3894      3934.8755      16.7222        13.589         17.3161      
      2700   300.18861     -44731.22       2817.4684      3934.8755      16.7222        13.589         17.3161      
      2800   298.9213      -44714.37       13006.553      3934.8755      16.7222        13.589         17.3161      
      2900   347.68456     -44729.394      5666.3771      3934.8755      16.7222        13.589         17.3161      
      3000   311.22038     -44692.917      19519.77       3934.8755      16.7222        13.589         17.3161      
      3100   312.93565     -44714.532     -5715.2857      3934.8755      16.7222        13.589         17.3161      
      3200   312.22335     -44724.351      7807.127       3934.8755      16.7222        13.589         17.3161      
      3300   292.55792     -44712.651      630.19169      3934.8755      16.7222        13.589         17.3161      
      3400   289.29061     -44710.568      1472.6035      3934.8755      16.7222        13.589         17.3161      
      3500   295.14426     -44711.71       4622.0038      3934.8755      16.7222        13.589         17.3161      
      3600   297.62478     -44716.814      6601.8509      3934.8755      16.7222        13.589         17.3161      
      3700   308.09689     -44741.45      -8716.3295      3934.8755      16.7222        13.589         17.3161      
[...]
      4600   310.10841     -44695.566     -664.83753      3934.8755      16.7222        13.589         17.3161      
      4700   297.12765     -44698.642      5109.5908      3934.8755      16.7222        13.589         17.3161      
      4800   325.35366     -44739.908      3772.3834      3934.8755      16.7222        13.589         17.3161      
      4900   311.28542     -44737.518      1265.8131      3934.8755      16.7222        13.589         17.3161      
      5000   285.29827     -44716.868      201.02101      3934.8755      16.7222        13.589         17.3161      
Loop time of 240.999 on 16 procs for 5000 steps with 386 atoms

Performance: 0.896 ns/day, 26.778 hours/ns, 20.747 timesteps/s, 8.008 katom-step/s
99.6% CPU use with 8 MPI tasks x 2 OpenMP threads

MPI task timing breakdown:
Section |  min time  |  avg time  |  max time  |%varavg| %total
---------------------------------------------------------------
Pair    | 139.79     | 151.01     | 202.76     | 160.1 | 62.66
Bond    | 0.0010889  | 0.0013258  | 0.0016012  |   0.5 |  0.00
Neigh   | 11.156     | 12.003     | 15.806     |  42.1 |  4.98
Comm    | 1.3529     | 53.125     | 64.357     | 270.1 | 22.04
Output  | 0.015181   | 0.017406   | 0.019076   |   0.9 |  0.01
Modify  | 20.948     | 24.741     | 25.579     |  29.2 | 10.27
Other   |            | 0.1011     |            |       |  0.04

Nlocal:          48.25 ave          57 max          39 min
Histogram: 1 0 0 1 2 1 1 1 0 1
Nghost:         3470.5 ave        3513 max        3420 min
Histogram: 2 0 0 1 0 1 1 1 0 2
Neighs:        33052.9 ave       38675 max       27028 min
Histogram: 1 0 0 1 2 1 1 1 0 1

Total # of neighbors = 264423
Ave neighs/atom = 685.03368
Ave special neighs/atom = 0
Neighbor list builds = 500
Dangerous builds not checked
  using 2 OpenMP thread(s) per MPI task
Reading restart file ...
  restart file = 2 Aug 2023, LAMMPS = 2 Aug 2023
  restoring atom style full from restart
  triclinic box = (0 0 0) to (16.7222 13.589 17.3161) with tilt (-7.3464 -0.3071 -0.018)
WARNING: Triclinic box skew is large. LAMMPS will run inefficiently. (src/domain.cpp:220)
  2 by 2 by 2 MPI processor grid
  pair style reaxff stores no restart info
  386 atoms
Finding 1-2 1-3 1-4 neighbors ...
  special bond factors lj:    0        0        0       
  special bond factors coul:  0        0        0       
     0 = max # of 1-2 neighbors
     0 = max # of 1-3 neighbors
     0 = max # of 1-4 neighbors
     1 = max # of special neighbors
  special bonds CPU = 0.000 seconds
  read_restart CPU = 0.003 seconds
*****debug*****
xy = -7.3464000000000000412, deltaxy = 0.73464
xz = -0.3070999999999999841, deltaxz = 0.03071
yz = -0.01799999999999999864, deltayz = 0.0018
*****
*****Negative-deform 6 starts.*****
Resetting global fix info from restart file:
  fix style: nvt, fix ID: fnvt
All restart file global fix info was re-assigned
Neighbor list info ...
  update: every = 10 steps, delay = 0 steps, check = no
  max neighbors/atom: 2000, page size: 100000
  master list distance cutoff = 12
  ghost atom cutoff = 12
  binsize = 6, bins = 5 3 3
  2 neighbor lists, perpetual/occasional/extra = 2 0 0
  (1) pair reaxff, perpetual
      attributes: half, newton off, ghost
      pair build: half/bin/newtoff/ghost
      stencil: full/ghost/bin/3d
      bin: standard
  (2) fix qeq/reaxff, perpetual, copy from (1)
      attributes: half, newton off
      pair build: copy
      stencil: none
      bin: none
Setting up Verlet run ...
  Unit style    : real
  Current step  : 0
  Time step     : 0.5
Per MPI rank memory allocation (min/avg/max) = 133.9 | 134.9 | 136.1 Mbytes
   Step          Temp          PotEng         Press          Volume           Lx             Ly             Lz      
         0   307.35389     -44750.192      3862.2652      3934.8755      16.7222        13.589         17.3161      
       100   298.80194     -44738.911      891.25954      3934.8755      16.7222        13.589         17.3161      
       200   307.53102     -44729.238     -9787.978       3934.8755      16.7222        13.589         17.3161      
       300   320.96806     -44722.313      4725.0632      3934.8755      16.7222        13.589         17.3161      
       400   314.73708     -44730.599     -10007.813      3934.8755      16.7222        13.589         17.3161      
       500   304.11449     -44751.726     -1342.5109      3934.8755      16.7222        13.589         17.3161      
       600   300.77034     -44751.876      1801.945       3934.8755      16.7222        13.589         17.3161      
       700   313.37458     -44755.209     -4251.4389      3934.8755      16.7222        13.589         17.3161      
       800   305.11187     -44728.367      12432.67       3934.8755      16.7222        13.589         17.3161      
       900   325.42951     -44740.25      -7799.7307      3934.8755      16.7222        13.589         17.3161      
      1000   310.05715     -44746.554      3278.701       3934.8755      16.7222        13.589         17.3161      
      1100   289.12791     -44743.576      5270.799       3934.8755      16.7222        13.589         17.3161      
      1200   286.96358     -44744.415     -10800.364      3934.8755      16.7222        13.589         17.3161      
      1300   314.55488     -44771.685     -3867.9676      3934.8755      16.7222        13.589         17.3161      
      1400   284.73811     -44734.72      -8980.8988      3934.8755      16.7222        13.589         17.3161      
      1500   290.46645     -44724.185      7640.4375      3934.8755      16.7222        13.589         17.3161      
      1600   324.03131     -44744.073     -5284.0413      3934.8755      16.7222        13.589         17.3161      
      1700   293.95508     -44722.374      8337.3334      3934.8755      16.7222        13.589         17.3161      
      1800   294.55052     -44745.841     -7365.3913      3934.8755      16.7222        13.589         17.3161      
      1900   300.60826     -44754.419      15483.075      3934.8755      16.7222        13.589         17.3161      
      2000   303.40764     -44745.764      5996.52        3934.8755      16.7222        13.589         17.3161      
      2100   287.76069     -44718.628      11617.754      3934.8755      16.7222        13.589         17.3161      
      2200   321.56485     -44736.227      3932.1023      3934.8755      16.7222        13.589         17.3161      
      2300   305.11442     -44721.798     -2435.3683      3934.8755      16.7222        13.589         17.3161      
      2400   302.38717     -44747.702     -3411.1442      3934.8755      16.7222        13.589         17.3161      
      2500   296.55253     -44752.773      8308.2501      3934.8755      16.7222        13.589         17.3161      
      2600   287.43044     -44744.613      2209.1771      3934.8755      16.7222        13.589         17.3161      
      2700   299.00356     -44734.828      1365.3003      3934.8755      16.7222        13.589         17.3161      
      2800   292.17476     -44689.313     -11385.8        3934.8755      16.7222        13.589         17.3161      
      2900   309.12023     -44708.535      11082.443      3934.8755      16.7222        13.589         17.3161      
      3000   308.59447     -44733.754     -3738.5958      3934.8755      16.7222        13.589         17.3161      
      3100   318.2478      -44752.144      810.60485      3934.8755      16.7222        13.589         17.3161      
      3200   299.26472     -44756.883      8028.366       3934.8755      16.7222        13.589         17.3161      
      3300   273.95066     -44733.068     -2435.0204      3934.8755      16.7222        13.589         17.3161      
      3400   303.70825     -44753.065      8275.2098      3934.8755      16.7222        13.589         17.3161      
      3500   302.67173     -44718.562     -53.650555      3934.8755      16.7222        13.589         17.3161      
      3600   323.05759     -44714.925     -10908.52       3934.8755      16.7222        13.589         17.3161      
      3700   286.72634     -44688.52      -1397.5385      3934.8755      16.7222        13.589         17.3161      
      3800   300.67478     -44716.946      4505.3855      3934.8755      16.7222        13.589         17.3161      
      3900   297.0067      -44721.324      9045.154       3934.8755      16.7222        13.589         17.3161      
      4000   294.10058     -44730.218      8715.5628      3934.8755      16.7222        13.589         17.3161      
      4100   296.97073     -44739.412      8521.3314      3934.8755      16.7222        13.589         17.3161      
      4200   301.96767     -44746.506      1860.0494      3934.8755      16.7222        13.589         17.3161      
      4300   288.32564     -44745.705     -1273.9309      3934.8755      16.7222        13.589         17.3161      
      4400   271.33836     -44743.639      8464.1777      3934.8755      16.7222        13.589         17.3161      
      4500   284.5226      -44741.92      -6481.8069      3934.8755      16.7222        13.589         17.3161      
      4600   285.94469     -44702.01      -10548.663      3934.8755      16.7222        13.589         17.3161      
      4700   304.8175      -44712.412      11081.485      3934.8755      16.7222        13.589         17.3161      
      4800   291.2823      -44698.696      2090.5794      3934.8755      16.7222        13.589         17.3161      
      4900   303.13279     -44718.136      798.73869      3934.8755      16.7222        13.589         17.3161      
      5000   287.84284     -44731.729      4098.106       3934.8755      16.7222        13.589         17.3161      
Loop time of 180.246 on 16 procs for 5000 steps with 386 atoms

Performance: 1.198 ns/day, 20.027 hours/ns, 27.740 timesteps/s, 10.708 katom-step/s
99.6% CPU use with 8 MPI tasks x 2 OpenMP threads

MPI task timing breakdown:
Section |  min time  |  avg time  |  max time  |%varavg| %total
---------------------------------------------------------------
Pair    | 141.16     | 144.42     | 148.84     |  19.1 | 80.12
Bond    | 0.0010962  | 0.0013316  | 0.0018431  |   0.7 |  0.00
Neigh   | 11.539     | 11.866     | 12.471     |   8.0 |  6.58
Comm    | 2.3121     | 6.7194     | 9.9782     |  88.6 |  3.73
Output  | 0.010853   | 0.01264    | 0.013901   |   0.8 |  0.01
Modify  | 16.484     | 17.109     | 17.431     |   6.8 |  9.49
Other   |            | 0.1169     |            |       |  0.06

Nlocal:          48.25 ave          56 max          42 min
Histogram: 1 1 1 0 1 1 2 0 0 1
Nghost:        3575.25 ave        3613 max        3518 min
Histogram: 1 0 0 0 1 2 0 2 1 1
Neighs:        33105.9 ave       38050 max       29118 min
Histogram: 1 1 1 0 1 1 2 0 0 1

Total # of neighbors = 264847
Ave neighs/atom = 686.13212
Ave special neighs/atom = 0
Neighbor list builds = 500
Dangerous builds not checked
  using 2 OpenMP thread(s) per MPI task
Reading restart file ...
  restart file = 2 Aug 2023, LAMMPS = 2 Aug 2023
  restoring atom style full from restart
  triclinic box = (0 0 0) to (16.7222 13.589 17.3161) with tilt (-7.3464 -0.3071 -0.018)
WARNING: Triclinic box skew is large. LAMMPS will run inefficiently. (src/domain.cpp:220)
  2 by 2 by 2 MPI processor grid
  pair style reaxff stores no restart info
  386 atoms
Finding 1-2 1-3 1-4 neighbors ...
  special bond factors lj:    0        0        0       
  special bond factors coul:  0        0        0       
     0 = max # of 1-2 neighbors
     0 = max # of 1-3 neighbors
     0 = max # of 1-4 neighbors
     1 = max # of special neighbors
  special bonds CPU = 0.000 seconds
  read_restart CPU = 0.002 seconds
*****Positive-deform 6 starts.*****
Resetting global fix info from restart file:
  fix style: nvt, fix ID: fnvt
All restart file global fix info was re-assigned
Neighbor list info ...
  update: every = 10 steps, delay = 0 steps, check = no
  max neighbors/atom: 2000, page size: 100000
  master list distance cutoff = 12
  ghost atom cutoff = 12
  binsize = 6, bins = 5 3 3
  2 neighbor lists, perpetual/occasional/extra = 2 0 0
  (1) pair reaxff, perpetual
      attributes: half, newton off, ghost
      pair build: half/bin/newtoff/ghost
      stencil: full/ghost/bin/3d
      bin: standard
  (2) fix qeq/reaxff, perpetual, copy from (1)
      attributes: half, newton off
      pair build: copy
      stencil: none
      bin: none
Setting up Verlet run ...
  Unit style    : real
  Current step  : 0
  Time step     : 0.5
Per MPI rank memory allocation (min/avg/max) = 134 | 135 | 136.1 Mbytes
   Step          Temp          PotEng         Press          Volume           Lx             Ly             Lz      
         0   307.35389     -44750.192      3862.2652      3934.8755      16.7222        13.589         17.3161      
       100   298.97443     -44739.016      1016.2853      3934.8755      16.7222        13.589         17.3161      
       200   311.5097      -44731.115     -10323.382      3934.8755      16.7222        13.589         17.3161      
       300   326.311       -44728.896      9085.8682      3934.8755      16.7222        13.589         17.3161      
       400   305.02084     -44719.142     -6094.9156      3934.8755      16.7222        13.589         17.3161      
       500   298.32985     -44737.037     -6192.2655      3934.8755      16.7222        13.589         17.3161      
       600   284.89725     -44723.233     -3219.1056      3934.8755      16.7222        13.589         17.3161      
       700   296.20666     -44729.008     -6390.1233      3934.8755      16.7222        13.589         17.3161      
       800   288.89412     -44733.819      2385.8976      3934.8755      16.7222        13.589         17.3161      
       900   282.606       -44748.009     -12675.901      3934.8755      16.7222        13.589         17.3161      
      1000   299.53407     -44748.098     -20791.106      3934.8755      16.7222        13.589         17.3161      
      1100   305.68635     -44722.767     -9553.6677      3934.8755      16.7222        13.589         17.3161      
      1200   302.9894      -44705.917     -4489.612       3934.8755      16.7222        13.589         17.3161      
      1300   320.23154     -44732.811      9379.6559      3934.8755      16.7222        13.589         17.3161      
      1400   300.3888      -44730.196     -903.25241      3934.8755      16.7222        13.589         17.3161      
      1500   284.45305     -44718.147      546.09826      3934.8755      16.7222        13.589         17.3161      
      1600   287.50665     -44707.992      2896.2441      3934.8755      16.7222        13.589         17.3161      
      1700   330.08187     -44715.026      1038.7716      3934.8755      16.7222        13.589         17.3161      
      1800   329.34116     -44702.798      3381.3961      3934.8755      16.7222        13.589         17.3161      
      1900   305.15995     -44698.266     -3544.0238      3934.8755      16.7222        13.589         17.3161      
      2000   305.93188     -44710.683     -14980.463      3934.8755      16.7222        13.589         17.3161      
      2100   285.79665     -44711.744      5910.3009      3934.8755      16.7222        13.589         17.3161      
      2200   288.40515     -44718.622      5138.6306      3934.8755      16.7222        13.589         17.3161      
      2300   298.29182     -44709.092     -10149.467      3934.8755      16.7222        13.589         17.3161      
      2400   322.80879     -44699.551      4200.1134      3934.8755      16.7222        13.589         17.3161      
      2500   300.88269     -44665.348      197.54723      3934.8755      16.7222        13.589         17.3161      
      2600   309.59258     -44680.244     -1411.1773      3934.8755      16.7222        13.589         17.3161      
      2700   292.06405     -44672.151     -6885.3821      3934.8755      16.7222        13.589         17.3161      
      2800   293.11505     -44683.539     -3219.887       3934.8755      16.7222        13.589         17.3161      
      2900   301.87828     -44697.125      11351.338      3934.8755      16.7222        13.589         17.3161      
      3000   292.24953     -44674.523      404.85477      3934.8755      16.7222        13.589         17.3161      
      3100   292.31267     -44685.691      2843.0821      3934.8755      16.7222        13.589         17.3161      
      3200   261.47907     -44672.044     -7402.7442      3934.8755      16.7222        13.589         17.3161      
      3300   276.34997     -44674.949     -5070.9205      3934.8755      16.7222        13.589         17.3161      
      3400   293.01579     -44664.817     -7784.7668      3934.8755      16.7222        13.589         17.3161      
      3500   321.60769     -44681.082      5373.8992      3934.8755      16.7222        13.589         17.3161      
      3600   305.61718     -44660.34      -5327.2176      3934.8755      16.7222        13.589         17.3161      
      3700   290.85693     -44648.694      11906.819      3934.8755      16.7222        13.589         17.3161      
      3800   293.80722     -44652.188      2184.3197      3934.8755      16.7222        13.589         17.3161      
      3900   310.62234     -44670.414     -8266.4337      3934.8755      16.7222        13.589         17.3161      
      4000   316.17955     -44678.222      5507.2569      3934.8755      16.7222        13.589         17.3161      
      4100   292.91792     -44680.014     -7360.4789      3934.8755      16.7222        13.589         17.3161      
      4200   292.03117     -44686.39       4703.3226      3934.8755      16.7222        13.589         17.3161      
      4300   292.85904     -44671.561      2751.4097      3934.8755      16.7222        13.589         17.3161      
      4400   296.11185     -44642.874      3707.5218      3934.8755      16.7222        13.589         17.3161      
      4500   325.04079     -44644.297     -2908.4706      3934.8755      16.7222        13.589         17.3161      
      4600   314.61276     -44650.791     -12700.786      3934.8755      16.7222        13.589         17.3161      
      4700   301.62043     -44655.271     -9113.4471      3934.8755      16.7222        13.589         17.3161      
      4800   290.43219     -44647.923     -8757.8551      3934.8755      16.7222        13.589         17.3161      
      4900   309.1702      -44670.778      12676.756      3934.8755      16.7222        13.589         17.3161      
      5000   291.40519     -44655.826     -5030.4466      3934.8755      16.7222        13.589         17.3161      
Loop time of 159.612 on 16 procs for 5000 steps with 386 atoms

Performance: 1.353 ns/day, 17.735 hours/ns, 31.326 timesteps/s, 12.092 katom-step/s
99.8% CPU use with 8 MPI tasks x 2 OpenMP threads

MPI task timing breakdown:
Section |  min time  |  avg time  |  max time  |%varavg| %total
---------------------------------------------------------------
Pair    | 123.31     | 126.38     | 129.13     |  18.2 | 79.18
Bond    | 0.0009731  | 0.0010879  | 0.0012556  |   0.3 |  0.00
Neigh   | 12.067     | 12.345     | 12.84      |   6.5 |  7.73
Comm    | 1.3941     | 4.1508     | 7.2098     | 100.3 |  2.60
Output  | 0.010443   | 0.012117   | 0.013338   |   0.8 |  0.01
Modify  | 16.103     | 16.606     | 16.886     |   5.7 | 10.40
Other   |            | 0.1173     |            |       |  0.07

Nlocal:          48.25 ave          59 max          41 min
Histogram: 1 1 1 3 0 0 0 1 0 1
Nghost:         3354.5 ave        3408 max        3293 min
Histogram: 1 1 0 0 1 2 1 0 0 2
Neighs:        33037.9 ave       39908 max       28430 min
Histogram: 1 1 1 3 0 0 0 1 0 1

Total # of neighbors = 264303
Ave neighs/atom = 684.7228
Ave special neighs/atom = 0
Neighbor list builds = 500
Dangerous builds not checked
Total wall time: 0:53:04
