ITEM: TIMESTEP
0
ITEM: NUMBER OF ATOMS
386
ITEM: BOX BOUNDS xy xz yz pp pp pp
-7.6507253610748878e+00 1.6907555226949132e+01 -7.4860088590297336e+00
-6.6499790659694413e-01 1.3356446172144953e+01 2.0638724903703012e-02
-1.9405318175273933e-01 1.7510153181752699e+01 -8.9755173445182768e-01
ITEM: ATOMS id type x y z
110 2 -2.77257 6.13466 4.12349
15 2 -2.43754 5.01154 8.1452
13 2 -1.81951 4.90455 5.54772
3 2 -1.79983 4.55124 3.12353
6 1 -1.4787 3.8464 3.99471
97 2 -0.591023 4.58104 7.85968
129 2 2.34239 4.41008 3.95984
130 2 1.69614 5.4321 2.51688
131 2 0.314327 4.65346 3.75713
200 1 1.55303 5.10656 3.63265
327 1 0.943415 3.11664 0.798959
324 2 -0.756185 3.05732 1.23693
325 2 1.37489 4.19719 1.02566
5 2 -0.200918 3.98861 5.48298
261 3 -0.74681 1.69464 6.96853
21 3 0.544226 1.78226 3.59966
326 2 1.62966 2.26469 1.17985
10 4 0.664066 2.34948 7.12079
16 1 0.654978 4.04616 6.33604
330 2 2.40731 0.899487 7.05307
332 2 2.93926 2.24053 5.8301
331 1 2.07057 1.45406 6.07298
17 4 1.69004 1.00032 4.33585
14 2 1.77531 3.86789 5.89862
1 4 -0.954817 2.44388 3.05498
235 3 3.8181 5.08695 0.945213
11 2 0.630274 5.02335 6.90885
128 2 3.16708 2.90941 2.41948
199 1 4.34228 2.9584 2.57984
22 3 3.01556 0.485453 3.65687
126 2 4.68713 3.34731 3.59298
357 2 5.90843 0.445331 1.81995
233 3 6.05961 3.61796 0.45718
121 2 7.45406 0.443112 6.6419
127 2 4.98943 2.13318 2.14394
363 2 7.70767 0.602115 -0.0336673
239 3 4.4647 5.27147 6.85521
37 4 6.59688 1.84227 5.52246
40 4 5.05122 4.3988 1.56882
43 4 5.2993 4.16396 7.56383
231 3 5.68582 0.966675 4.58327
237 3 5.86305 3.03973 6.38503
42 4 3.13823 6.57228 0.192877
364 2 5.84324 1.22133 0.0970931
84 2 -2.40649 5.71193 13.8306
223 3 -1.98996 3.36234 14.9687
86 2 6.65465 -0.1388 16.057
232 3 7.17183 0.179282 12.1407
108 2 -1.59143 4.04663 9.49702
115 2 -2.47673 5.67487 11.8586
166 2 -1.53462 2.90099 10.2551
211 1 4.10412 -0.412782 15.8191
109 2 -1.16442 5.69909 9.29398
133 2 1.17899 2.37377 8.83229
2 2 3.53703 0.498895 15.6591
323 1 2.59915 2.38163 15.7653
8 2 3.38585 2.1942 16.5242
322 2 2.76499 1.91791 14.7578
85 2 0.0485741 4.2574 13.354
320 2 2.35967 3.61564 15.6833
321 2 1.99926 3.26651 13.993
7 4 1.00849 2.14751 16.7848
9 3 -0.346705 1.67565 16.1719
26 4 -1.23022 4.66844 14.5955
241 3 -0.539581 5.5333 15.8271
242 3 1.85013 5.68975 17.0015
337 2 2.38868 4.78577 12.8588
338 2 1.78769 3.19536 12.1494
339 2 1.58033 5.2783 14.4414
340 1 1.75646 3.86068 13.0287
124 2 2.46362 1.15747 8.98732
198 1 2.15544 2.0237 10.461
334 2 2.22731 0.976012 13.2889
89 2 1.59953 1.38031 11.3523
91 2 2.40577 4.57722 9.06357
134 2 1.49377 4.63014 11.1784
36 4 4.07056 2.05571 9.6742
87 2 1.79691 3.12782 10.3737
99 2 0.126408 1.90266 10.3986
345 2 0.0294467 0.198031 9.90734
201 1 1.35062 5.12734 10.1816
336 1 0.72918 0.255878 12.7852
333 2 0.719217 -0.128442 11.627
102 2 -3.38076 5.69165 16.8522
125 2 3.76568 2.41995 11.4057
135 2 3.6227 3.38664 13.6425
192 1 -1.44121 4.83449 8.69954
119 2 4.52604 -0.0386506 8.86546
132 2 0.335045 4.99275 9.73614
335 2 -0.274066 0.415667 13.3158
213 1 -1.09506 1.8042 10.4698
136 2 4.69075 3.53392 15.2606
159 2 4.98643 -0.118687 16.401
365 1 6.85564 0.271804 17.1312
120 2 5.7003 0.0568163 10.4364
137 2 5.08885 2.05385 14.0922
362 2 6.10026 2.47602 15.5182
196 1 5.38164 0.535615 9.45837
202 1 4.78426 3.13892 14.1644
123 2 6.57759 1.86978 10.2086
157 2 3.22248 5.89965 14.7653
366 2 6.20586 0.800427 8.73809
156 2 3.05591 6.11536 12.829
236 3 4.3553 3.35808 8.72489
344 1 -2.84756 8.14059 0.112045
34 4 -2.8352 13.09 3.71262
90 2 -1.95829 11.617 2.12978
193 1 -3.76443 9.29989 7.88561
225 3 -2.01562 7.27987 6.9267
117 2 -2.51854 11.416 4.40051
203 1 -2.67762 7.8149 4.11427
111 2 -3.75722 9.23529 6.74239
139 2 -3.41995 8.19811 3.27269
140 2 -3.06916 8.28337 5.10486
343 2 -2.6444 7.71033 1.18347
25 4 -1.46341 6.64384 5.56037
318 2 -3.88417 11.7853 0.248524
351 2 -5.45784 10.9137 0.782335
141 2 -2.2493 10.1612 4.947
346 2 -6.8761 12.2453 8.43174
112 2 -3.09407 10.2334 8.19668
145 2 0.434128 11.9732 8.52786
146 2 -0.640047 10.9154 7.02779
341 2 -3.38545 9.4043 0.191731
83 2 -1.55656 8.21726 3.90476
28 4 -2.57633 7.98991 8.31954
352 1 -4.94818 11.4861 -0.0841192
205 1 -0.406751 11.1377 8.30087
118 2 -3.16872 12.7111 1.05857
238 3 2.9465 6.75961 5.18065
143 2 -0.783884 9.60344 5.84982
142 2 -0.844759 11.9973 5.73512
234 3 0.085836 6.74315 5.06868
41 4 1.55373 6.81058 4.35497
204 1 -1.11876 10.3589 5.15445
49 4 2.47156 8.74956 2.14545
50 4 0.46107 11.3831 4.41353
138 2 -0.177571 9.84457 3.66943
144 2 0.761249 9.64393 7.75568
245 3 1.4917 8.06067 3.11005
246 3 3.28677 7.7486 1.31813
247 3 0.444852 12.6593 3.34057
248 3 1.89331 9.94899 1.23118
253 3 1.87518 11.1344 5.14976
19 2 -5.66479 10.3334 3.15087
113 2 -4.76059 9.20051 8.44118
45 4 4.41172 6.69942 6.02001
195 1 -2.39476 12.7465 1.97303
329 2 -6.29158 12.9309 5.53345
377 2 -4.05186 7.11577 1.32584
350 2 -5.58496 13.2445 0.333515
51 4 2.06379 11.2491 0.264883
342 2 -1.89718 7.23957 17.2036
259 3 1.99052 8.44953 12.6318
47 4 0.930973 6.19883 15.7771
194 1 -2.37294 6.35013 12.7848
349 2 -4.93587 9.90422 16.4631
160 2 -3.98874 11.9225 16.5083
23 4 -5.83126 12.3097 13.8005
150 2 -3.36037 10.8869 9.82631
250 3 2.48006 7.64881 8.77286
368 2 -3.17849 11.7266 11.5043
348 1 -6.7226 12.4395 9.60606
207 1 -3.23952 10.7098 11.0004
30 4 -3.19787 7.99347 13.5631
32 4 -4.82019 9.99813 11.722
151 2 -2.35665 10.0241 11.2668
224 3 -3.59257 6.60519 9.51715
226 3 -3.72556 7.63272 15.0141
227 3 -6.20298 11.9443 15.2905
229 3 -4.42873 8.38996 12.4847
230 3 -5.27246 11.113 12.8872
256 3 -2.11824 9.2106 13.5908
27 4 -4.19905 7.137 16.4067
94 2 -3.05325 10.7356 15.6914
82 2 -3.56829 7.29554 10.6353
56 4 -1.75284 10.2923 14.6489
31 4 -6.4799 11.5227 16.7784
228 3 -5.90418 9.91425 10.4874
369 2 1.06608 11.1355 15.6458
161 2 -3.10573 12.2885 14.8156
147 2 -1.39774 11.37 8.85451
92 2 0.859665 9.31383 15.9311
252 3 -1.27825 8.5922 9.28101
38 4 0.265177 12.2419 13.2619
370 2 -0.826771 9.49472 15.828
347 2 -5.61321 12.5381 9.89294
210 1 0.854973 10.3599 16.4878
12 2 1.21315 6.74271 11.0303
114 2 -1.34827 6.9688 12.6403
44 4 2.64608 6.47623 9.8382
209 1 3.41052 6.58795 13.8015
53 4 -0.0104767 9.60038 9.30219
55 4 2.43439 8.18801 14.0942
57 4 1.87486 10.0508 11.7916
255 3 0.935334 7.74395 15.2227
257 3 -0.968671 11.6408 14.1349
258 3 0.921702 9.93155 10.4539
260 3 1.34407 11.1045 12.8202
380 2 4.29833 6.27094 15.5657
158 2 -0.0485691 10.5724 17.1831
243 3 4.03153 6.3871 10.6279
88 2 8.82635 2.21042 6.81618
170 2 8.21168 4.51604 3.75032
171 2 7.76483 4.90188 5.52894
197 1 8.48442 1.53261 5.98154
215 1 8.06322 5.29337 4.56928
361 1 10.017 1.69191 3.2016
272 3 6.70464 4.68948 8.22377
122 2 8.01586 2.52582 4.55925
367 2 9.38393 0.923161 5.58003
355 2 8.59812 2.10621 2.18651
267 3 6.1784 5.34835 2.64682
358 2 9.51242 1.6672 4.32459
310 2 9.76799 3.49017 2.31529
214 1 13.0736 3.34263 8.33752
312 2 9.18038 5.34887 2.53494
313 1 9.67917 4.53851 1.83446
95 2 8.94252 0.727954 7.75714
311 2 9.15165 4.50121 0.829218
33 4 8.88051 0.254206 2.34227
172 2 8.90122 6.01669 4.67669
379 1 12.2806 6.56254 2.17564
360 2 10.7453 0.198718 2.9527
274 3 11.0544 5.02982 7.28038
378 2 12.9358 6.12016 3.00767
359 2 10.7082 2.5875 3.08169
67 4 11.3023 3.36011 7.69841
101 2 11.3126 5.68774 4.86652
4 2 14.6965 3.31255 4.59395
59 4 15.2335 0.460184 6.48944
61 4 12.1048 1.26504 5.50522
96 2 11.8677 1.48619 3.7662
263 3 13.6591 0.930475 5.8513
271 3 11.3663 2.34907 6.34845
308 4 12.8146 2.57789 0.260356
309 4 11.4824 5.0379 1.25147
314 3 12.8815 1.24854 1.11576
315 3 12.4381 3.81388 1.58878
386 3 14.9141 1.39072 2.85091
58 4 13.8945 0.294807 2.0933
169 2 13.6029 2.94223 7.44801
65 4 6.76834 6.39097 3.75725
354 2 10.6863 -0.135783 7.50494
168 2 13.4852 4.40384 8.60014
353 2 10.9272 0.0229747 4.92201
24 4 12.4054 5.59217 10.6393
270 3 10.5204 2.71079 8.94567
265 3 8.66174 2.09629 16.761
35 4 7.03909 2.10933 16.9624
244 3 5.65253 5.02601 12.3031
39 4 7.53565 1.6037 11.6501
46 4 6.30047 3.99724 13.317
60 4 10.0844 1.61068 9.98748
63 4 10.2685 1.63085 16.1036
68 4 7.56219 5.6405 9.21948
72 4 9.47479 5.44823 11.499
240 3 7.00222 2.64996 12.7239
262 3 9.08995 1.64477 11.1729
277 3 7.11049 4.69037 14.4443
278 3 9.08333 5.57785 16.0167
280 3 8.27764 4.8236 10.3792
281 3 10.1682 4.34488 12.5486
275 3 10.5035 2.40475 14.6666
212 1 10.0974 -0.174934 15.6509
98 2 8.5116 0.0432074 14.484
206 1 9.19218 0.315195 8.89787
371 2 14.3149 1.26907 11.4367
374 2 11.5839 0.770381 13.7557
116 2 12.9863 5.50201 12.3205
373 1 12.3082 0.0338332 13.1237
317 2 12.9061 3.99926 10.2266
279 3 10.8239 5.86119 10.6679
70 4 11.1211 3.51147 13.5604
384 2 14.1284 0.301363 8.8686
165 2 15.5079 0.990936 9.5956
266 3 11.7326 0.752701 10.5083
264 3 11.6013 1.5711 16.9415
167 2 13.226 2.66476 9.25159
174 2 11.6433 5.72755 14.0554
216 1 12.0018 4.71413 14.6035
175 2 13.1541 4.5045 14.4309
64 4 12.5828 1.32633 11.7382
173 2 11.7173 4.73055 15.735
276 3 12.376 2.64917 12.4914
305 4 15.033 1.91083 15.8305
306 3 14.1932 2.04589 17.24
307 3 14.4212 0.683475 14.9078
381 2 5.21837 5.08134 16.9277
316 3 11.3064 4.67309 17.4103
148 2 8.20519 0.129053 9.42271
375 2 15.7311 1.41815 11.5066
71 4 7.66266 5.84995 15.3867
162 2 10.2593 -0.295503 14.5213
164 2 11.0598 -0.494287 16.2829
18 2 10.1142 10.7257 1.90922
356 1 3.88234 12.637 6.62961
69 4 10.8888 6.57764 6.90175
52 4 3.71898 8.85844 8.1182
54 4 3.2936 10.9271 6.02396
249 3 1.5568 12.729 0.799508
254 3 3.01278 10.1298 7.36094
105 2 3.75346 9.4198 3.10605
285 3 4.60053 10.6011 4.8887
182 2 6.59712 9.43989 7.99599
251 3 4.53012 8.0015 7.01582
20 1 10.6313 9.85389 2.45475
178 2 4.75319 10.0429 1.56136
93 2 4.94151 12.2877 6.95495
180 2 12.299 7.60139 6.73891
176 2 5.36209 8.79222 2.85486
177 2 6.62062 9.77735 1.74874
217 1 5.54837 9.79488 2.30364
268 3 5.74315 6.85547 4.86064
295 3 8.50282 12.5219 5.68826
73 4 8.82888 8.42292 1.89317
74 4 5.67734 11.0624 3.81098
75 4 7.91576 11.3475 0.275672
76 4 8.7277 9.1564 7.19068
78 4 8.63841 11.1173 4.91914
104 2 9.55098 8.86063 3.54583
107 2 9.66597 11.2461 3.57838
183 2 6.77482 7.83788 6.87609
282 3 7.70509 7.78769 2.86919
283 3 9.60408 7.30487 1.01243
284 3 5.41729 12.4943 3.06776
287 3 8.12729 9.86548 0.983626
288 3 7.2056 12.3842 1.2038
289 3 9.57791 7.30697 7.20319
293 3 7.12337 10.7482 4.45247
294 3 9.29325 10.0558 5.86675
219 1 6.93799 8.98412 6.97468
184 2 6.5089 9.52514 6.03015
185 2 6.98827 11.7872 7.81169
100 2 12.5019 7.26381 4.75006
181 2 10.6096 7.5887 4.72647
179 2 8.75477 6.46049 8.26165
376 2 11.4143 7.17703 2.55505
218 1 11.4622 6.87756 5.11787
290 3 8.97647 9.9253 8.62829
220 1 7.37204 12.7946 8.20285
328 2 11.2005 9.20429 1.71248
186 2 10.5617 8.04568 15.2777
149 2 2.35034 12.5333 8.88574
221 1 10.3247 8.46842 14.2765
62 4 6.20168 12.5363 14.1931
382 1 4.61136 6.09001 16.6744
300 3 3.51531 10.3496 17.2226
187 2 10.0721 9.56896 14.3352
292 3 3.37327 10.3634 11.278
298 3 3.48814 9.18843 14.7818
188 2 11.2513 8.34264 13.5471
106 2 4.6195 12.2839 10.0662
80 4 4.45983 10.1086 15.7188
77 4 4.65159 10.6604 10.4888
291 3 4.67902 9.65603 9.17922
269 3 11.1872 7.34751 16.8618
319 2 6.94143 10.4047 16.6587
66 4 10.1503 6.11702 17.1749
103 2 6.61833 6.0462 16.6776
383 2 5.15453 7.01123 17.123
154 2 4.59065 8.17299 12.1191
286 3 9.29343 10.9964 17.4403
372 2 4.30822 12.3325 12.5461
153 2 5.74149 7.37183 13.4135
299 3 5.25101 11.3521 15.1203
297 3 9.03394 6.70507 12.4453
152 2 6.46986 8.28518 11.8194
48 4 5.47873 6.2353 11.1728
29 4 9.74252 10.6372 10.0534
79 4 8.74037 7.86927 13.4724
81 4 7.42223 10.6348 12.0861
189 2 5.33425 7.93457 15.4984
190 2 6.31571 8.603 17.0589
191 2 6.63701 9.26566 15.3227
208 1 5.62644 7.73061 12.3419
222 1 5.87666 8.82204 16.0295
296 3 7.71466 7.25603 14.6355
301 3 8.62172 11.0705 11.1045
302 3 6.04348 10.4654 11.2265
303 3 8.02099 9.22387 12.8362
304 3 7.20599 11.7153 13.2703
273 3 6.67899 6.69122 9.94926
155 2 4.50813 6.88466 13.7659
385 2 8.46372 12.6526 8.67783
163 2 1.65405 12.4223 15.9685
ITEM: TIMESTEP
100
ITEM: NUMBER OF ATOMS
386
ITEM: BOX BOUNDS xy xz yz pp pp pp
-7.6469823566453732e+00 1.6899019091084636e+01 -7.4822658546002190e+00
-6.6499790659694413e-01 1.3356446172144953e+01 2.0628405541251161e-02
-1.9405318175273933e-01 1.7510153181752699e+01 -8.9755173445182768e-01
ITEM: ATOMS id type x y z
110 2 -2.90385 6.08026 4.32953
15 2 -2.38995 5.28497 8.22568
13 2 -1.88752 4.85502 5.63014
3 2 -1.69121 4.67354 3.22767
6 1 -1.5207 3.86547 4.03227
97 2 -0.666095 4.69761 7.66378
129 2 2.37627 4.63176 3.85471
130 2 1.45744 5.4677 2.35099
131 2 0.290724 4.71849 3.74591
200 1 1.43739 5.19239 3.47601
327 1 0.865863 3.31525 0.869366
324 2 -0.848179 3.22866 1.26575
325 2 1.21719 4.44428 0.795604
5 2 -0.242314 3.96585 5.37503
261 3 -0.633125 1.78089 6.89824
21 3 0.393655 1.73851 3.5336
326 2 1.50585 2.58974 1.52141
10 4 0.760053 2.38044 7.13318
16 1 0.765082 4.04806 6.38569
330 2 2.52306 0.899364 6.93785
332 2 2.94823 2.37708 5.58511
331 1 2.18127 1.42788 6.01267
17 4 1.72286 0.932973 4.32249
14 2 1.79397 3.93608 5.85116
1 4 -0.996186 2.44731 3.02155
235 3 3.54972 5.14101 1.10345
11 2 0.722142 5.00203 6.97757
128 2 3.45231 3.06176 2.62877
199 1 4.50877 3.13075 2.88224
22 3 3.04172 0.363542 3.62642
126 2 4.75899 3.41863 4.01049
357 2 6.05732 0.440959 1.90004
233 3 6.09143 3.77842 0.349658
121 2 7.1889 0.776925 6.75638
127 2 5.12735 2.28043 2.3822
366 2 6.06825 0.858816 8.57615
239 3 4.34152 5.20136 6.86148
37 4 6.51566 1.99249 5.52838
40 4 5.17473 4.50497 1.7947
43 4 5.38789 4.14992 7.47255
231 3 5.60426 0.973675 4.48903
237 3 5.94116 3.17103 6.33948
42 4 3.23178 6.51001 0.344719
364 2 5.96101 0.901702 0.0856934
192 1 -1.39519 5.03908 8.63113
350 2 2.02759 0.228572 0.154269
84 2 -2.55548 5.53806 13.6752
223 3 -2.11608 3.23466 14.8999
86 2 6.74657 0.0719394 16.0063
232 3 7.21064 0.0127206 12.1032
108 2 -1.48992 4.19477 9.46566
115 2 -2.23232 5.76761 11.8279
166 2 -1.29859 2.97387 10.1129
382 1 4.68482 5.69554 16.7912
109 2 -0.97284 5.99677 9.09378
133 2 1.20144 2.45237 8.83971
2 2 3.5795 0.438751 15.8089
323 1 2.57438 2.22999 15.8514
8 2 3.60688 2.00309 16.4846
322 2 2.40896 1.55017 15.01
85 2 0.0583261 4.18 13.4411
320 2 2.27035 3.38553 15.759
321 2 1.93515 3.05049 13.9548
7 4 1.05571 1.85278 16.9691
9 3 -0.415111 1.71793 16.2471
26 4 -1.31659 4.60914 14.5614
241 3 -0.731269 5.59448 15.8114
242 3 1.83366 5.67127 17.0096
337 2 2.51597 4.64418 13.2029
338 2 2.02222 3.21372 12.0983
339 2 1.54185 5.04313 14.5887
340 1 1.79602 3.78721 13.0834
124 2 2.40737 1.2101 8.98096
198 1 2.25001 2.04354 10.4568
334 2 1.86586 0.997752 13.2215
89 2 1.59878 1.40445 11.263
91 2 2.27042 4.61281 9.27073
134 2 1.48962 4.65341 11.3044
36 4 4.1097 2.06504 9.56884
87 2 1.82447 3.17775 10.3669
99 2 0.232874 1.83639 10.1673
345 2 0.0821386 0.244787 9.75638
201 1 1.38071 5.14377 10.1627
336 1 0.559229 0.213232 12.6004
333 2 0.554932 -0.093532 11.4059
102 2 -3.55188 5.72164 17.3279
125 2 3.77509 2.56155 11.334
135 2 3.66462 3.41932 13.7269
236 3 4.63822 3.22919 8.66227
119 2 4.44972 -0.15532 9.00332
132 2 0.285059 5.07488 9.64946
335 2 -0.42886 0.372717 13.1852
213 1 -0.943569 1.88812 10.346
136 2 4.82473 3.64317 15.2517
159 2 5.11799 -0.437746 16.2536
365 1 6.86141 0.29489 17.1555
120 2 5.73529 0.113371 10.3084
137 2 5.08926 2.06654 14.0905
362 2 6.03777 2.44137 15.4992
196 1 5.26498 0.541751 9.35345
202 1 4.80505 3.21301 14.1501
123 2 6.75207 1.5928 10.133
157 2 3.24296 5.81779 14.5265
381 2 5.2065 4.65169 16.7537
375 2 -1.13101 1.61295 11.4011
148 2 8.10299 0.145884 9.39222
344 1 -2.69751 8.10343 0.123965
34 4 -2.83832 12.9863 3.64782
90 2 -1.90599 11.7104 1.99739
193 1 -3.54525 9.42172 7.8296
225 3 -2.04657 7.26167 7.00865
117 2 -2.55505 11.3716 4.40573
203 1 -2.6859 7.81601 4.10633
111 2 -4.06021 9.35606 6.83962
139 2 -3.29579 8.09814 3.2127
140 2 -3.04487 8.32357 5.0364
343 2 -2.51872 7.93207 1.17637
25 4 -1.56007 6.60448 5.61832
318 2 -3.92307 11.6785 0.447494
351 2 -5.63825 10.9327 0.920737
141 2 -2.15599 9.92397 4.94717
346 2 -6.94405 12.2055 8.36068
112 2 -2.86287 10.3192 7.98772
145 2 0.396598 11.8257 8.30999
146 2 -0.765025 10.8538 6.93961
341 2 -3.19655 9.55672 0.022488
83 2 -1.64025 8.13942 3.85635
28 4 -2.47662 8.02997 8.42177
352 1 -5.05759 11.4748 0.0963716
205 1 -0.487218 11.1186 8.13108
118 2 -3.10119 13.024 1.09357
238 3 2.90032 6.8085 5.24955
143 2 -0.559304 9.5206 5.7851
142 2 -0.903637 12.0229 5.64603
234 3 -0.0735637 6.81683 5.20752
41 4 1.55804 6.84733 4.28257
204 1 -1.11451 10.2607 5.08234
49 4 2.50618 8.84731 2.13338
50 4 0.418882 11.4979 4.49662
138 2 -0.278932 9.88765 3.61439
144 2 0.715008 9.56068 7.72779
245 3 1.67402 7.93154 3.14409
246 3 3.42446 7.89354 1.25093
247 3 0.660457 12.6372 3.36485
248 3 1.72888 9.90299 1.22257
253 3 1.7558 11.1474 5.24211
19 2 -5.62224 10.1992 3.21738
377 2 -3.97137 7.14649 1.32566
45 4 4.4321 6.709 6.03082
195 1 -2.3163 12.7938 1.92729
329 2 -6.39315 13.0292 5.6423
113 2 -4.36189 9.40501 8.63179
342 2 -1.63359 7.14027 17.3105
259 3 1.81162 8.48896 12.5874
47 4 0.819696 6.03277 15.8462
194 1 -2.19335 6.27157 12.8138
349 2 -4.97929 9.78512 16.7818
160 2 -3.95597 11.7619 16.5885
23 4 -6.01189 12.2674 13.6861
150 2 -3.48072 10.8432 9.80223
250 3 2.49602 7.66253 8.69181
368 2 -3.07318 11.7401 11.3956
348 1 -6.73023 12.4398 9.51346
207 1 -3.33631 10.7656 10.9141
30 4 -3.21747 7.88793 13.4101
32 4 -4.84615 10.0484 11.751
151 2 -2.48168 10.0235 11.1129
224 3 -3.74989 6.77838 9.60237
226 3 -3.7734 7.45353 14.9815
227 3 -6.26152 12.0202 15.2818
229 3 -4.56772 8.27263 12.4095
230 3 -5.31462 11.1862 12.7799
256 3 -2.23246 9.16263 13.5353
27 4 -4.15048 7.26763 16.5044
94 2 -2.91911 10.5868 15.7741
82 2 -3.82345 7.5564 10.56
56 4 -1.68317 10.1258 14.6859
31 4 -6.44726 11.4914 16.8033
211 1 -3.40824 12.5234 15.8498
369 2 1.16213 11.0705 15.8429
161 2 -3.37618 12.1047 14.7995
147 2 -1.38548 11.4156 8.81913
92 2 1.07987 9.0946 15.9469
252 3 -1.19788 8.46295 9.32336
38 4 0.152674 12.2409 13.357
370 2 -0.590574 9.21023 15.6366
347 2 -5.63526 12.4875 9.7717
210 1 0.930425 10.1421 16.4834
12 2 1.23084 6.82507 11.1599
114 2 -1.16984 6.85854 13.0098
44 4 2.52865 6.68592 9.97084
209 1 3.69606 6.52858 13.8174
53 4 -0.0940233 9.61406 9.21886
55 4 2.49386 8.00288 13.9916
57 4 1.89784 9.98117 11.842
255 3 1.08447 7.4918 15.2482
257 3 -1.05075 11.4472 14.1923
258 3 0.867374 9.88142 10.4778
260 3 1.34485 11.2192 12.8779
380 2 4.33271 6.09654 15.6832
158 2 -0.0266429 10.2229 16.9961
243 3 3.92883 6.48843 10.5913
156 2 3.30217 6.23644 12.7196
88 2 9.14957 1.986 6.64411
170 2 8.10926 4.50709 4.23599
171 2 7.98154 5.66503 5.76681
197 1 8.52822 1.54214 5.88557
215 1 8.22778 5.57939 4.65338
361 1 10.1922 1.75261 3.06429
272 3 6.68709 4.89206 8.08952
122 2 8.09994 2.70023 4.71265
367 2 9.01922 0.655 5.5129
355 2 8.65197 1.92884 1.98989
267 3 5.91519 5.46766 2.70291
358 2 9.54722 1.76853 4.18011
310 2 9.85412 3.5822 2.3645
214 1 13.197 3.26106 8.42172
312 2 9.34987 5.52471 2.55095
313 1 9.70899 4.71371 1.90181
95 2 8.91418 0.692396 7.7168
311 2 9.13455 4.6264 0.946149
33 4 9.05691 0.198192 2.27324
172 2 9.16842 6.14026 4.2794
379 1 12.2572 6.59861 2.1237
360 2 10.8246 0.572462 3.03607
274 3 11.1375 4.91025 7.34083
378 2 12.744 6.16817 3.00433
359 2 10.9179 2.61463 2.95294
67 4 11.4261 3.42257 7.81827
101 2 11.152 5.62426 4.73255
4 2 14.4874 3.39789 4.46634
59 4 15.1261 0.578332 6.5542
61 4 12.0524 1.2798 5.64899
96 2 11.9422 1.49029 3.9492
263 3 13.6371 1.02119 6.14294
271 3 11.4267 2.4749 6.35744
308 4 12.8507 2.73883 0.329535
309 4 11.531 5.09836 1.23519
314 3 12.8444 1.2366 1.02475
315 3 12.5824 3.87274 1.47978
386 3 14.934 1.32751 2.77338
58 4 13.8519 0.3079 2.0689
169 2 13.7805 2.81029 7.52587
65 4 6.78057 6.44208 3.78364
69 4 10.8546 6.38334 6.84635
354 2 10.4064 -0.126917 7.31494
363 2 7.90743 1.06544 -0.0783157
168 2 13.6624 4.31865 8.64375
24 4 12.3926 5.6346 10.6677
270 3 10.358 2.77094 8.8967
265 3 8.55175 2.37524 16.6964
35 4 6.98829 2.17673 16.9221
244 3 5.68815 5.0236 12.0699
39 4 7.61701 1.48822 11.6322
46 4 6.31138 3.92181 13.2715
60 4 10.0901 1.41156 9.93292
63 4 10.0444 1.8665 16.1032
68 4 7.57401 5.65218 9.19744
72 4 9.52929 5.38388 11.5216
240 3 6.94671 2.5683 12.5842
262 3 9.17206 1.61488 11.2782
277 3 7.00232 4.67617 14.604
278 3 9.18622 5.5351 16.1256
280 3 8.41171 4.92294 10.2768
281 3 9.92028 4.30218 12.6679
275 3 10.4381 2.60222 14.675
212 1 9.92532 0.0126107 15.6202
98 2 8.23252 0.17665 14.5777
206 1 9.09753 0.265301 8.8502
371 2 14.4024 1.3574 11.1816
374 2 11.9568 0.843022 13.9748
116 2 13.0779 5.56531 12.2722
373 1 12.3807 0.176243 13.1704
317 2 12.7828 3.99947 10.2233
279 3 10.9047 5.83832 10.6774
70 4 11.0066 3.4772 13.4627
384 2 14.0467 0.256923 8.89296
165 2 15.5806 1.12773 9.63898
266 3 11.8494 0.712668 10.4171
264 3 11.393 1.8458 17.0062
167 2 13.1401 2.44495 9.28146
174 2 11.5066 5.79536 13.9851
216 1 11.9137 4.81348 14.4336
175 2 12.9579 4.5772 14.047
64 4 12.6876 1.2567 11.7055
173 2 11.7758 4.73403 15.5772
276 3 12.2599 2.62263 12.2333
305 4 15.0352 1.90466 15.8301
306 3 14.2061 2.1993 17.2243
307 3 14.3236 0.488465 15.1861
164 2 10.8833 -0.314212 16.0838
316 3 11.3711 4.79506 17.4202
162 2 10.0027 0.246186 14.4528
71 4 7.74816 5.79541 15.5062
103 2 6.6721 5.90011 16.8651
18 2 10.0814 10.6666 2.01134
356 1 3.66848 12.6172 6.52595
51 4 2.26644 11.1469 0.162681
52 4 3.71586 8.82641 8.01291
54 4 3.19842 10.8551 5.92786
249 3 1.99282 12.4922 0.919755
254 3 2.91495 9.93048 7.1402
105 2 3.67419 9.73038 3.0459
285 3 4.51152 10.6039 5.02566
182 2 6.65079 9.00984 7.99111
251 3 4.76314 7.90993 7.07882
20 1 10.6414 9.82523 2.50487
178 2 4.7776 10.2056 1.58375
93 2 4.69758 12.3676 6.94603
180 2 12.3391 7.34962 6.73125
176 2 5.30045 8.89868 2.79807
177 2 6.56589 9.83506 1.7927
217 1 5.54387 9.88143 2.35965
268 3 5.74931 6.73428 4.97435
295 3 8.27876 12.5978 5.56442
73 4 8.70547 8.47896 1.87004
74 4 5.74266 11.0372 3.84807
75 4 7.79322 11.4136 0.215086
76 4 8.85561 9.1081 7.26145
78 4 8.62044 11.1873 4.93596
104 2 9.62031 8.8685 3.43454
107 2 9.93099 11.173 3.89356
183 2 7.17462 7.4459 6.99523
282 3 7.64652 7.68051 2.82101
283 3 9.36796 7.36836 0.921026
284 3 5.45433 12.5832 3.30821
287 3 8.00454 9.83579 0.891498
288 3 7.13911 12.4381 1.13227
289 3 9.64767 7.23737 7.25391
293 3 7.33809 10.6078 4.25593
294 3 9.13909 10.0848 5.95261
219 1 7.0984 8.6406 7.00065
184 2 6.5856 9.0936 6.08548
185 2 6.95943 11.8821 7.87178
100 2 12.5133 7.19435 4.73301
181 2 10.5586 7.53577 4.74428
179 2 8.75265 6.5682 8.32512
376 2 11.338 7.23909 2.38605
218 1 11.4115 6.84126 5.08633
328 2 11.126 9.12102 1.72066
220 1 7.37614 12.9111 8.25271
290 3 9.09294 9.84564 8.60891
353 2 3.38845 13.0599 4.88375
186 2 10.599 8.09102 15.3273
149 2 2.25255 12.4335 8.85987
221 1 10.2707 8.59707 14.2832
62 4 6.22674 12.4275 14.2567
228 3 10.9754 9.892 10.5876
300 3 3.85233 10.2398 17.2235
187 2 9.98841 9.68074 14.441
292 3 3.34437 10.3366 11.3506
298 3 3.39876 9.1725 14.6793
188 2 11.2113 8.47277 13.497
106 2 4.46586 12.2792 10.0259
80 4 4.44262 9.99533 15.6771
77 4 4.61833 10.6207 10.4954
291 3 4.61229 9.69125 9.11157
269 3 11.3244 7.45176 16.7851
319 2 6.80244 10.4779 16.5031
66 4 10.1803 6.10966 17.2885
163 2 1.56221 12.4631 15.9653
383 2 5.3008 6.58319 17.3703
154 2 4.52592 8.51298 12.2736
286 3 9.21222 10.9717 17.3409
372 2 4.17037 12.5098 12.6614
153 2 5.74971 7.6131 13.3491
299 3 5.3467 11.2653 14.9766
297 3 9.18409 6.85952 12.3892
152 2 6.31828 8.45713 11.7823
48 4 5.46939 6.35275 11.1481
29 4 9.68326 10.6593 10.0198
79 4 8.70889 7.91286 13.5454
81 4 7.4325 10.7391 12.1322
189 2 5.44352 7.86116 15.6077
190 2 6.46567 8.58059 16.9498
191 2 6.74241 9.26832 15.2841
208 1 5.47645 7.92488 12.2867
222 1 5.9753 8.78843 15.9873
296 3 7.81521 7.23434 14.8529
301 3 8.50132 11.0897 10.9581
302 3 5.95817 10.5312 11.2923
303 3 8.02815 9.35126 12.9331
304 3 7.25619 11.955 13.1151
273 3 6.6412 6.64138 9.99354
155 2 4.86777 6.57118 13.8453
385 2 8.50455 12.7211 8.7699
ITEM: TIMESTEP
200
ITEM: NUMBER OF ATOMS
386
ITEM: BOX BOUNDS xy xz yz pp pp pp
-7.6432393522158595e+00 1.6890482955220140e+01 -7.4785228501707053e+00
-6.6499790659694413e-01 1.3356446172144953e+01 2.0618086178799899e-02
-1.9405318175273933e-01 1.7510153181752699e+01 -8.9755173445182768e-01
ITEM: ATOMS id type x y z
110 2 -2.72404 6.03742 4.22519
15 2 -2.2635 5.03661 8.38578
13 2 -1.65404 4.75437 5.68484
3 2 -1.37142 4.56116 3.29352
6 1 -1.36731 3.76282 4.08593
97 2 -0.576091 4.54905 7.92475
129 2 2.38549 4.83294 3.78856
130 2 1.51547 5.73299 2.27098
131 2 0.313866 4.74028 3.63807
200 1 1.42687 5.34576 3.33281
327 1 1.1489 3.34495 0.8573
324 2 -0.526055 3.38659 1.47624
325 2 1.50638 4.40141 0.89839
5 2 -0.0521044 4.02023 5.40129
261 3 -0.631268 1.73428 6.85725
21 3 0.508861 1.76498 3.69509
326 2 1.78149 2.4762 1.39035
10 4 0.847547 2.52118 7.17752
16 1 0.86539 4.22028 6.49028
330 2 2.56987 1.09162 7.19011
332 2 2.87151 2.47331 5.50212
331 1 2.10612 1.46129 6.15936
17 4 1.76445 0.97051 4.37565
14 2 2.01183 4.08481 6.06793
1 4 -0.896192 2.36503 3.01469
235 3 3.71702 5.14515 1.25266
11 2 0.740866 5.17674 7.08835
128 2 3.52069 3.0442 2.89933
199 1 4.66188 3.17569 2.99611
22 3 2.88839 0.12186 3.60818
126 2 4.97979 3.64571 3.97848
357 2 5.89883 0.540795 1.88696
233 3 6.08086 3.69486 0.318908
121 2 7.10331 0.572105 6.52583
127 2 5.38445 2.31302 2.64353
366 2 6.09441 0.649289 8.58594
239 3 4.37251 5.22904 6.83996
37 4 6.39161 1.95255 5.37303
40 4 5.20017 4.42195 1.77151
43 4 5.50256 4.2366 7.39124
231 3 5.42734 0.886253 4.54462
237 3 5.95454 3.18998 6.17337
42 4 3.2815 6.55546 0.3334
364 2 5.93992 0.974578 0.102612
236 3 4.76344 3.14341 8.62254
350 2 1.75684 0.414798 0.225815
363 2 7.78577 0.813526 -0.0348013
329 2 1.07221 -0.0250409 5.793
84 2 -2.49518 5.45944 13.7124
223 3 -2.06721 3.12978 14.9441
86 2 6.8281 0.00487368 16.0361
232 3 6.98457 -0.0373913 12.1033
108 2 -1.46422 3.76045 9.39884
115 2 -1.99647 5.99231 11.6991
166 2 -1.51924 2.96897 10.5203
381 2 5.16401 4.77052 16.9382
109 2 -0.858821 5.60306 9.45917
133 2 1.27152 2.37807 8.89935
2 2 3.49505 0.366882 15.8004
323 1 2.38498 2.09426 15.8038
8 2 3.25166 2.01305 16.5136
322 2 2.47615 1.45661 14.8514
85 2 0.105109 4.16495 13.204
320 2 2.13555 3.22462 15.6109
321 2 2.02309 3.03394 14.0037
7 4 0.918372 1.86717 16.9961
9 3 -0.657679 1.50596 16.4128
26 4 -1.26082 4.44284 14.499
241 3 -0.737675 5.24974 15.7721
242 3 1.67195 5.57709 17.1937
337 2 2.42188 4.55984 12.9748
338 2 1.9519 3.01719 12.0576
339 2 1.50284 4.57953 14.6788
340 1 1.7799 3.63865 12.9941
124 2 2.51956 1.12742 8.98149
198 1 2.436 1.94879 10.4055
334 2 2.15006 0.842994 13.2875
89 2 1.74941 1.41947 11.239
91 2 2.4765 4.71523 9.30838
134 2 1.67299 4.57476 11.1605
36 4 4.23178 1.96751 9.50518
87 2 2.09335 3.18191 10.2836
99 2 0.0503553 1.9558 10.3217
345 2 0.0828559 0.302945 9.77785
201 1 1.59254 5.13013 10.1097
336 1 0.647973 0.30908 12.5945
333 2 0.683753 -0.0458001 11.3537
102 2 -3.64648 5.80436 17.1534
125 2 3.948 2.21657 11.3572
135 2 3.72881 3.49344 13.6708
47 4 0.87141 5.7508 15.8142
192 1 -1.33273 4.76936 8.81805
132 2 0.553082 4.99454 9.59398
335 2 -0.366283 0.4451 13.0983
213 1 -1.06887 1.83275 10.4505
136 2 4.87013 3.73179 15.2772
159 2 5.0777 -0.353169 16.3099
365 1 6.89419 0.241149 17.173
120 2 6.01844 -0.0751488 10.3845
137 2 5.10183 2.10961 14.1462
362 2 6.15162 2.40698 15.4432
196 1 5.41749 0.449104 9.451
202 1 4.83755 3.25221 14.1809
123 2 6.88274 1.71347 10.0364
157 2 3.07895 5.46449 14.4628
148 2 8.12535 -0.0216803 9.40403
344 1 -2.75284 8.20776 0.145454
34 4 -2.97256 13.1116 3.67587
90 2 -1.82546 11.7013 2.18666
193 1 -3.61003 9.40771 7.77964
225 3 -2.1666 7.17664 6.94776
117 2 -2.56355 11.5151 4.38036
203 1 -2.59184 7.82617 4.25137
111 2 -3.68703 9.66796 6.67213
139 2 -3.39111 8.03183 3.48558
140 2 -2.80165 8.45245 5.13806
343 2 -2.45757 7.91379 1.21379
25 4 -1.49098 6.53712 5.59542
318 2 -4.17657 12.2071 0.632451
351 2 -5.60709 11.0253 1.05426
141 2 -2.15191 10.1767 5.19767
346 2 -6.76927 12.3003 8.31036
112 2 -3.11415 10.3052 8.31812
145 2 0.265252 11.9033 8.31003
146 2 -0.646 10.763 7.06968
113 2 -4.63913 9.07471 8.33546
83 2 -1.53742 8.10482 3.84169
28 4 -2.56576 8.05148 8.31556
352 1 -5.10462 11.7207 0.260046
205 1 -0.388318 10.9936 8.22267
118 2 -2.95068 12.6736 1.05743
238 3 2.9231 6.7731 5.22157
143 2 -0.45563 9.85354 5.81515
142 2 -0.834312 12.0896 5.60696
234 3 0.0212725 6.8985 5.1577
41 4 1.50437 6.90418 4.37834
204 1 -1.06481 10.4783 5.10494
49 4 2.44729 8.84047 2.08848
50 4 0.5165 11.5708 4.32023
138 2 -0.422461 10.1452 3.55545
144 2 0.960622 9.53855 8.04336
245 3 1.49013 8.13319 3.16402
246 3 3.42794 7.82381 1.25186
247 3 0.635012 12.652 3.20913
248 3 1.86483 9.91241 1.07905
253 3 1.90817 11.118 5.08976
19 2 -5.82644 10.3588 3.09019
377 2 -3.84287 7.23849 1.52753
45 4 4.35017 6.73162 6.02195
195 1 -2.30962 12.7287 1.96994
341 2 -3.03304 9.51175 0.15551
342 2 -1.86226 7.15584 17.1671
259 3 1.883 8.48909 12.7508
147 2 -1.49255 11.1818 8.76592
194 1 -2.03774 6.40572 12.7635
349 2 -4.79427 10.1225 16.8267
160 2 -3.93285 11.774 16.5757
23 4 -6.04241 12.2105 13.6071
150 2 -3.68797 11.1385 9.89636
250 3 2.23312 7.84108 8.79103
368 2 -2.89186 11.3619 11.5218
348 1 -6.75012 12.4983 9.44539
207 1 -3.30408 10.6014 10.7816
30 4 -3.12501 7.87576 13.4546
32 4 -4.82883 9.97222 11.684
151 2 -2.58079 9.78189 10.5582
224 3 -3.66908 6.72085 9.54696
226 3 -3.74085 7.45365 14.9954
227 3 -6.37707 11.9646 15.2887
229 3 -4.45188 8.31652 12.4311
230 3 -5.33227 11.0451 12.7943
256 3 -2.11591 9.08733 13.488
27 4 -4.21275 7.35398 16.509
94 2 -2.98942 10.5705 15.6187
82 2 -3.76775 7.47571 10.703
56 4 -1.74108 10.1112 14.5498
31 4 -6.48152 11.5178 16.8079
211 1 -3.38449 12.5044 15.8861
369 2 1.33638 10.7718 15.5841
161 2 -3.22825 12.0404 14.8386
156 2 2.91117 6.23597 12.7127
92 2 1.03466 8.95208 16.0976
252 3 -1.35512 8.66136 9.21656
38 4 0.23495 12.2103 13.2733
370 2 -0.757342 9.45931 15.8275
347 2 -5.6668 12.3041 9.8894
210 1 1.04117 10.0904 16.4105
12 2 1.19093 6.69833 11.1786
114 2 -1.00696 6.80971 13.0587
44 4 2.51881 6.83796 10.0724
209 1 3.37226 6.31078 13.7886
53 4 -0.0172792 9.53134 9.39174
55 4 2.36412 7.94141 14.1633
57 4 1.8777 9.98947 11.9008
255 3 1.11204 7.27877 15.2733