ITEM: TIMESTEP
0
ITEM: NUMBER OF ATOMS
386
ITEM: BOX BOUNDS xy xz yz pp pp pp
-7.6507253610748878e+00 1.6907555226949132e+01 -7.4860088590297336e+00
-6.6499790659694413e-01 1.3356446172144953e+01 2.0638724903703012e-02
-1.9405318175273933e-01 1.7510153181752699e+01 -8.9755173445182768e-01
ITEM: ATOMS id type x y z
110 2 -2.77257 6.13466 4.12349
15 2 -2.43754 5.01154 8.1452
13 2 -1.81951 4.90455 5.54772
3 2 -1.79983 4.55124 3.12353
6 1 -1.4787 3.8464 3.99471
97 2 -0.591023 4.58104 7.85968
129 2 2.34239 4.41008 3.95984
130 2 1.69614 5.4321 2.51688
131 2 0.314327 4.65346 3.75713
200 1 1.55303 5.10656 3.63265
327 1 0.943415 3.11664 0.798959
324 2 -0.756185 3.05732 1.23693
325 2 1.37489 4.19719 1.02566
5 2 -0.200918 3.98861 5.48298
261 3 -0.74681 1.69464 6.96853
21 3 0.544226 1.78226 3.59966
326 2 1.62966 2.26469 1.17985
10 4 0.664066 2.34948 7.12079
16 1 0.654978 4.04616 6.33604
330 2 2.40731 0.899487 7.05307
332 2 2.93926 2.24053 5.8301
331 1 2.07057 1.45406 6.07298
17 4 1.69004 1.00032 4.33585
14 2 1.77531 3.86789 5.89862
1 4 -0.954817 2.44388 3.05498
235 3 3.8181 5.08695 0.945213
11 2 0.630274 5.02335 6.90885
128 2 3.16708 2.90941 2.41948
199 1 4.34228 2.9584 2.57984
22 3 3.01556 0.485453 3.65687
126 2 4.68713 3.34731 3.59298
357 2 5.90843 0.445331 1.81995
233 3 6.05961 3.61796 0.45718
121 2 7.45406 0.443112 6.6419
127 2 4.98943 2.13318 2.14394
363 2 7.70767 0.602115 -0.0336673
239 3 4.4647 5.27147 6.85521
37 4 6.59688 1.84227 5.52246
40 4 5.05122 4.3988 1.56882
43 4 5.2993 4.16396 7.56383
231 3 5.68582 0.966675 4.58327
237 3 5.86305 3.03973 6.38503
42 4 3.13823 6.57228 0.192877
364 2 5.84324 1.22133 0.0970931
84 2 -2.40649 5.71193 13.8306
223 3 -1.98996 3.36234 14.9687
86 2 6.65465 -0.1388 16.057
232 3 7.17183 0.179282 12.1407
108 2 -1.59143 4.04663 9.49702
115 2 -2.47673 5.67487 11.8586
166 2 -1.53462 2.90099 10.2551
211 1 4.10412 -0.412782 15.8191
109 2 -1.16442 5.69909 9.29398
133 2 1.17899 2.37377 8.83229
2 2 3.53703 0.498895 15.6591
323 1 2.59915 2.38163 15.7653
8 2 3.38585 2.1942 16.5242
322 2 2.76499 1.91791 14.7578
85 2 0.0485741 4.2574 13.354
320 2 2.35967 3.61564 15.6833
321 2 1.99926 3.26651 13.993
7 4 1.00849 2.14751 16.7848
9 3 -0.346705 1.67565 16.1719
26 4 -1.23022 4.66844 14.5955
241 3 -0.539581 5.5333 15.8271
242 3 1.85013 5.68975 17.0015
337 2 2.38868 4.78577 12.8588
338 2 1.78769 3.19536 12.1494
339 2 1.58033 5.2783 14.4414
340 1 1.75646 3.86068 13.0287
124 2 2.46362 1.15747 8.98732
198 1 2.15544 2.0237 10.461
334 2 2.22731 0.976012 13.2889
89 2 1.59953 1.38031 11.3523
91 2 2.40577 4.57722 9.06357
134 2 1.49377 4.63014 11.1784
36 4 4.07056 2.05571 9.6742
87 2 1.79691 3.12782 10.3737
99 2 0.126408 1.90266 10.3986
345 2 0.0294467 0.198031 9.90734
201 1 1.35062 5.12734 10.1816
336 1 0.72918 0.255878 12.7852
333 2 0.719217 -0.128442 11.627
102 2 -3.38076 5.69165 16.8522
125 2 3.76568 2.41995 11.4057
135 2 3.6227 3.38664 13.6425
192 1 -1.44121 4.83449 8.69954
119 2 4.52604 -0.0386506 8.86546
132 2 0.335045 4.99275 9.73614
335 2 -0.274066 0.415667 13.3158
213 1 -1.09506 1.8042 10.4698
136 2 4.69075 3.53392 15.2606
159 2 4.98643 -0.118687 16.401
365 1 6.85564 0.271804 17.1312
120 2 5.7003 0.0568163 10.4364
137 2 5.08885 2.05385 14.0922
362 2 6.10026 2.47602 15.5182
196 1 5.38164 0.535615 9.45837
202 1 4.78426 3.13892 14.1644
123 2 6.57759 1.86978 10.2086
157 2 3.22248 5.89965 14.7653
366 2 6.20586 0.800427 8.73809
156 2 3.05591 6.11536 12.829
236 3 4.3553 3.35808 8.72489
344 1 -2.84756 8.14059 0.112045
34 4 -2.8352 13.09 3.71262
90 2 -1.95829 11.617 2.12978
193 1 -3.76443 9.29989 7.88561
225 3 -2.01562 7.27987 6.9267
117 2 -2.51854 11.416 4.40051
203 1 -2.67762 7.8149 4.11427
111 2 -3.75722 9.23529 6.74239
139 2 -3.41995 8.19811 3.27269
140 2 -3.06916 8.28337 5.10486
343 2 -2.6444 7.71033 1.18347
25 4 -1.46341 6.64384 5.56037
318 2 -3.88417 11.7853 0.248524
351 2 -5.45784 10.9137 0.782335
141 2 -2.2493 10.1612 4.947
346 2 -6.8761 12.2453 8.43174
112 2 -3.09407 10.2334 8.19668
145 2 0.434128 11.9732 8.52786
146 2 -0.640047 10.9154 7.02779
341 2 -3.38545 9.4043 0.191731
83 2 -1.55656 8.21726 3.90476
28 4 -2.57633 7.98991 8.31954
352 1 -4.94818 11.4861 -0.0841192
205 1 -0.406751 11.1377 8.30087
118 2 -3.16872 12.7111 1.05857
238 3 2.9465 6.75961 5.18065
143 2 -0.783884 9.60344 5.84982
142 2 -0.844759 11.9973 5.73512
234 3 0.085836 6.74315 5.06868
41 4 1.55373 6.81058 4.35497
204 1 -1.11876 10.3589 5.15445
49 4 2.47156 8.74956 2.14545
50 4 0.46107 11.3831 4.41353
138 2 -0.177571 9.84457 3.66943
144 2 0.761249 9.64393 7.75568
245 3 1.4917 8.06067 3.11005
246 3 3.28677 7.7486 1.31813
247 3 0.444852 12.6593 3.34057
248 3 1.89331 9.94899 1.23118
253 3 1.87518 11.1344 5.14976
19 2 -5.66479 10.3334 3.15087
113 2 -4.76059 9.20051 8.44118
45 4 4.41172 6.69942 6.02001
195 1 -2.39476 12.7465 1.97303
329 2 -6.29158 12.9309 5.53345
377 2 -4.05186 7.11577 1.32584
350 2 -5.58496 13.2445 0.333515
51 4 2.06379 11.2491 0.264883
342 2 -1.89718 7.23957 17.2036
259 3 1.99052 8.44953 12.6318
47 4 0.930973 6.19883 15.7771
194 1 -2.37294 6.35013 12.7848
349 2 -4.93587 9.90422 16.4631
160 2 -3.98874 11.9225 16.5083
23 4 -5.83126 12.3097 13.8005
150 2 -3.36037 10.8869 9.82631
250 3 2.48006 7.64881 8.77286
368 2 -3.17849 11.7266 11.5043
348 1 -6.7226 12.4395 9.60606
207 1 -3.23952 10.7098 11.0004
30 4 -3.19787 7.99347 13.5631
32 4 -4.82019 9.99813 11.722
151 2 -2.35665 10.0241 11.2668
224 3 -3.59257 6.60519 9.51715
226 3 -3.72556 7.63272 15.0141
227 3 -6.20298 11.9443 15.2905
229 3 -4.42873 8.38996 12.4847
230 3 -5.27246 11.113 12.8872
256 3 -2.11824 9.2106 13.5908
27 4 -4.19905 7.137 16.4067
94 2 -3.05325 10.7356 15.6914
82 2 -3.56829 7.29554 10.6353
56 4 -1.75284 10.2923 14.6489
31 4 -6.4799 11.5227 16.7784
228 3 -5.90418 9.91425 10.4874
369 2 1.06608 11.1355 15.6458
161 2 -3.10573 12.2885 14.8156
147 2 -1.39774 11.37 8.85451
92 2 0.859665 9.31383 15.9311
252 3 -1.27825 8.5922 9.28101
38 4 0.265177 12.2419 13.2619
370 2 -0.826771 9.49472 15.828
347 2 -5.61321 12.5381 9.89294
210 1 0.854973 10.3599 16.4878
12 2 1.21315 6.74271 11.0303
114 2 -1.34827 6.9688 12.6403
44 4 2.64608 6.47623 9.8382
209 1 3.41052 6.58795 13.8015
53 4 -0.0104767 9.60038 9.30219
55 4 2.43439 8.18801 14.0942
57 4 1.87486 10.0508 11.7916
255 3 0.935334 7.74395 15.2227
257 3 -0.968671 11.6408 14.1349
258 3 0.921702 9.93155 10.4539
260 3 1.34407 11.1045 12.8202
380 2 4.29833 6.27094 15.5657
158 2 -0.0485691 10.5724 17.1831
243 3 4.03153 6.3871 10.6279
88 2 8.82635 2.21042 6.81618
170 2 8.21168 4.51604 3.75032
171 2 7.76483 4.90188 5.52894
197 1 8.48442 1.53261 5.98154
215 1 8.06322 5.29337 4.56928
361 1 10.017 1.69191 3.2016
272 3 6.70464 4.68948 8.22377
122 2 8.01586 2.52582 4.55925
367 2 9.38393 0.923161 5.58003
355 2 8.59812 2.10621 2.18651
267 3 6.1784 5.34835 2.64682
358 2 9.51242 1.6672 4.32459
310 2 9.76799 3.49017 2.31529
214 1 13.0736 3.34263 8.33752
312 2 9.18038 5.34887 2.53494
313 1 9.67917 4.53851 1.83446
95 2 8.94252 0.727954 7.75714
311 2 9.15165 4.50121 0.829218
33 4 8.88051 0.254206 2.34227
172 2 8.90122 6.01669 4.67669
379 1 12.2806 6.56254 2.17564
360 2 10.7453 0.198718 2.9527
274 3 11.0544 5.02982 7.28038
378 2 12.9358 6.12016 3.00767
359 2 10.7082 2.5875 3.08169
67 4 11.3023 3.36011 7.69841
101 2 11.3126 5.68774 4.86652
4 2 14.6965 3.31255 4.59395
59 4 15.2335 0.460184 6.48944
61 4 12.1048 1.26504 5.50522
96 2 11.8677 1.48619 3.7662
263 3 13.6591 0.930475 5.8513
271 3 11.3663 2.34907 6.34845
308 4 12.8146 2.57789 0.260356
309 4 11.4824 5.0379 1.25147
314 3 12.8815 1.24854 1.11576
315 3 12.4381 3.81388 1.58878
386 3 14.9141 1.39072 2.85091
58 4 13.8945 0.294807 2.0933
169 2 13.6029 2.94223 7.44801
65 4 6.76834 6.39097 3.75725
354 2 10.6863 -0.135783 7.50494
168 2 13.4852 4.40384 8.60014
353 2 10.9272 0.0229747 4.92201
24 4 12.4054 5.59217 10.6393
270 3 10.5204 2.71079 8.94567
265 3 8.66174 2.09629 16.761
35 4 7.03909 2.10933 16.9624
244 3 5.65253 5.02601 12.3031
39 4 7.53565 1.6037 11.6501
46 4 6.30047 3.99724 13.317
60 4 10.0844 1.61068 9.98748
63 4 10.2685 1.63085 16.1036
68 4 7.56219 5.6405 9.21948
72 4 9.47479 5.44823 11.499
240 3 7.00222 2.64996 12.7239
262 3 9.08995 1.64477 11.1729
277 3 7.11049 4.69037 14.4443
278 3 9.08333 5.57785 16.0167
280 3 8.27764 4.8236 10.3792
281 3 10.1682 4.34488 12.5486
275 3 10.5035 2.40475 14.6666
212 1 10.0974 -0.174934 15.6509
98 2 8.5116 0.0432074 14.484
206 1 9.19218 0.315195 8.89787
371 2 14.3149 1.26907 11.4367
374 2 11.5839 0.770381 13.7557
116 2 12.9863 5.50201 12.3205
373 1 12.3082 0.0338332 13.1237
317 2 12.9061 3.99926 10.2266
279 3 10.8239 5.86119 10.6679
70 4 11.1211 3.51147 13.5604
384 2 14.1284 0.301363 8.8686
165 2 15.5079 0.990936 9.5956
266 3 11.7326 0.752701 10.5083
264 3 11.6013 1.5711 16.9415
167 2 13.226 2.66476 9.25159
174 2 11.6433 5.72755 14.0554
216 1 12.0018 4.71413 14.6035
175 2 13.1541 4.5045 14.4309
64 4 12.5828 1.32633 11.7382
173 2 11.7173 4.73055 15.735
276 3 12.376 2.64917 12.4914
305 4 15.033 1.91083 15.8305
306 3 14.1932 2.04589 17.24
307 3 14.4212 0.683475 14.9078
381 2 5.21837 5.08134 16.9277
316 3 11.3064 4.67309 17.4103
148 2 8.20519 0.129053 9.42271
375 2 15.7311 1.41815 11.5066
71 4 7.66266 5.84995 15.3867
162 2 10.2593 -0.295503 14.5213
164 2 11.0598 -0.494287 16.2829
18 2 10.1142 10.7257 1.90922
356 1 3.88234 12.637 6.62961
69 4 10.8888 6.57764 6.90175
52 4 3.71898 8.85844 8.1182
54 4 3.2936 10.9271 6.02396
249 3 1.5568 12.729 0.799508
254 3 3.01278 10.1298 7.36094
105 2 3.75346 9.4198 3.10605
285 3 4.60053 10.6011 4.8887
182 2 6.59712 9.43989 7.99599
251 3 4.53012 8.0015 7.01582
20 1 10.6313 9.85389 2.45475
178 2 4.75319 10.0429 1.56136
93 2 4.94151 12.2877 6.95495
180 2 12.299 7.60139 6.73891
176 2 5.36209 8.79222 2.85486
177 2 6.62062 9.77735 1.74874
217 1 5.54837 9.79488 2.30364
268 3 5.74315 6.85547 4.86064
295 3 8.50282 12.5219 5.68826
73 4 8.82888 8.42292 1.89317
74 4 5.67734 11.0624 3.81098
75 4 7.91576 11.3475 0.275672
76 4 8.7277 9.1564 7.19068
78 4 8.63841 11.1173 4.91914
104 2 9.55098 8.86063 3.54583
107 2 9.66597 11.2461 3.57838
183 2 6.77482 7.83788 6.87609
282 3 7.70509 7.78769 2.86919
283 3 9.60408 7.30487 1.01243
284 3 5.41729 12.4943 3.06776
287 3 8.12729 9.86548 0.983626
288 3 7.2056 12.3842 1.2038
289 3 9.57791 7.30697 7.20319
293 3 7.12337 10.7482 4.45247
294 3 9.29325 10.0558 5.86675
219 1 6.93799 8.98412 6.97468
184 2 6.5089 9.52514 6.03015
185 2 6.98827 11.7872 7.81169
100 2 12.5019 7.26381 4.75006
181 2 10.6096 7.5887 4.72647
179 2 8.75477 6.46049 8.26165
376 2 11.4143 7.17703 2.55505
218 1 11.4622 6.87756 5.11787
290 3 8.97647 9.9253 8.62829
220 1 7.37204 12.7946 8.20285
328 2 11.2005 9.20429 1.71248
186 2 10.5617 8.04568 15.2777
149 2 2.35034 12.5333 8.88574
221 1 10.3247 8.46842 14.2765
62 4 6.20168 12.5363 14.1931
382 1 4.61136 6.09001 16.6744
300 3 3.51531 10.3496 17.2226
187 2 10.0721 9.56896 14.3352
292 3 3.37327 10.3634 11.278
298 3 3.48814 9.18843 14.7818
188 2 11.2513 8.34264 13.5471
106 2 4.6195 12.2839 10.0662
80 4 4.45983 10.1086 15.7188
77 4 4.65159 10.6604 10.4888
291 3 4.67902 9.65603 9.17922
269 3 11.1872 7.34751 16.8618
319 2 6.94143 10.4047 16.6587
66 4 10.1503 6.11702 17.1749
103 2 6.61833 6.0462 16.6776
383 2 5.15453 7.01123 17.123
154 2 4.59065 8.17299 12.1191
286 3 9.29343 10.9964 17.4403
372 2 4.30822 12.3325 12.5461
153 2 5.74149 7.37183 13.4135
299 3 5.25101 11.3521 15.1203
297 3 9.03394 6.70507 12.4453
152 2 6.46986 8.28518 11.8194
48 4 5.47873 6.2353 11.1728
29 4 9.74252 10.6372 10.0534
79 4 8.74037 7.86927 13.4724
81 4 7.42223 10.6348 12.0861
189 2 5.33425 7.93457 15.4984
190 2 6.31571 8.603 17.0589
191 2 6.63701 9.26566 15.3227
208 1 5.62644 7.73061 12.3419
222 1 5.87666 8.82204 16.0295
296 3 7.71466 7.25603 14.6355
301 3 8.62172 11.0705 11.1045
302 3 6.04348 10.4654 11.2265
303 3 8.02099 9.22387 12.8362
304 3 7.20599 11.7153 13.2703
273 3 6.67899 6.69122 9.94926
155 2 4.50813 6.88466 13.7659
385 2 8.46372 12.6526 8.67783
163 2 1.65405 12.4223 15.9685
ITEM: TIMESTEP
100
ITEM: NUMBER OF ATOMS
386
ITEM: BOX BOUNDS xy xz yz pp pp pp
-7.6572873072470333e+00 1.6907555226949132e+01 -7.4925708052018791e+00
-6.6499790659694413e-01 1.3356446172144953e+01 2.0638724903703012e-02
-1.9405318175273933e-01 1.7510153181752699e+01 -8.9755173445182768e-01
ITEM: ATOMS id type x y z
110 2 -2.90826 6.08026 4.32953
15 2 -2.3938 5.28497 8.22568
13 2 -1.89084 4.85502 5.63014
3 2 -1.69428 4.67354 3.22767
6 1 -1.5233 3.86547 4.03227
97 2 -0.668777 4.69761 7.66378
129 2 2.37524 4.63176 3.85471
130 2 1.45557 5.4677 2.35099
131 2 0.288609 4.71849 3.74591
200 1 1.43561 5.19239 3.47601
327 1 0.86481 3.31525 0.869366
324 2 -0.850056 3.22866 1.26575
325 2 1.21575 4.44428 0.795604
5 2 -0.244361 3.96585 5.37503
261 3 -0.634313 1.78089 6.89824
21 3 0.393086 1.73851 3.5336
326 2 1.50547 2.58974 1.52141
10 4 0.759256 2.38044 7.13318
16 1 0.763472 4.04806 6.38569
330 2 2.52389 0.899364 6.93785
332 2 2.94857 2.37708 5.58511
331 1 2.18169 1.42788 6.01267
17 4 1.72334 0.932973 4.32249
14 2 1.79294 3.93608 5.85116
1 4 -0.997791 2.44731 3.02155
235 3 3.54909 5.14101 1.10345
11 2 0.720019 5.00203 6.97757
128 2 3.45263 3.06176 2.62877
199 1 4.50958 3.13075 2.88224
22 3 3.04317 0.363542 3.62642
126 2 4.75975 3.41863 4.01049
357 2 6.06028 0.440959 1.90004
233 3 6.09278 3.77842 0.349658
121 2 7.19213 0.776925 6.75638
127 2 5.1289 2.28043 2.3822
366 2 6.07084 0.858816 8.57615
239 3 4.34111 5.20136 6.86148
37 4 6.51798 1.99249 5.52838
40 4 5.17521 4.50497 1.7947
43 4 5.38851 4.14992 7.47255
231 3 5.60666 0.973675 4.48903
237 3 5.94258 3.17103 6.33948
42 4 3.23033 6.51001 0.344719
364 2 5.96373 0.901702 0.0856934
192 1 -1.39843 5.03908 8.63113
350 2 2.02868 0.228572 0.154269
84 2 -2.55968 5.53806 13.6752
223 3 -2.11894 3.23466 14.8999
86 2 6.7497 0.0719394 16.0063
232 3 7.21413 0.0127206 12.1032
108 2 -1.49281 4.19477 9.46566
115 2 -2.23642 5.76761 11.8279
166 2 -1.30079 2.97387 10.1129
382 1 4.68408 5.69554 16.7912
109 2 -0.976362 5.99677 9.09378
133 2 1.20079 2.45237 8.83971
2 2 3.58087 0.438751 15.8089
323 1 2.57434 2.22999 15.8514
8 2 3.60746 2.00309 16.4846
322 2 2.40921 1.55017 15.01
85 2 0.0561183 4.18 13.4411
320 2 2.26959 3.38553 15.759
321 2 1.93443 3.05049 13.9548
7 4 1.05507 1.85278 16.9691
9 3 -0.416396 1.71793 16.2471
26 4 -1.31973 4.60914 14.5614
241 3 -0.734639 5.59448 15.8114
242 3 1.8315 5.67127 17.0096
337 2 2.51477 4.64418 13.2029
338 2 2.02151 3.21372 12.0983
339 2 1.53993 5.04313 14.5887
340 1 1.79489 3.78721 13.0834
124 2 2.40794 1.2101 8.98096
198 1 2.25004 2.04354 10.4568
334 2 1.86615 0.997752 13.2215
89 2 1.59878 1.40445 11.263
91 2 2.2692 4.61281 9.27073
134 2 1.48795 4.65341 11.3044
36 4 4.11067 2.06504 9.56884
87 2 1.82373 3.17775 10.3669
99 2 0.232008 1.83639 10.1673
345 2 0.0820037 0.244787 9.75638
201 1 1.37877 5.14377 10.1627
336 1 0.559277 0.213232 12.6004
333 2 0.555161 -0.093532 11.4059
102 2 -3.55676 5.72164 17.3279
125 2 3.77561 2.56155 11.334
135 2 3.66459 3.41932 13.7269
236 3 4.6389 3.22919 8.66227
119 2 4.45199 -0.15532 9.00332
132 2 0.282614 5.07488 9.64946
335 2 -0.429401 0.372717 13.1852
213 1 -0.945053 1.88812 10.346
136 2 4.82513 3.64317 15.2517
159 2 5.12055 -0.437746 16.2536
365 1 6.86445 0.29489 17.1555
120 2 5.73803 0.113371 10.3084
137 2 5.09061 2.06654 14.0905
362 2 6.03937 2.44137 15.4992
196 1 5.2673 0.541751 9.35345
202 1 4.80569 3.21301 14.1501
123 2 6.75459 1.5928 10.133
157 2 3.2415 5.81779 14.5265
381 2 5.20655 4.65169 16.7537
375 2 -1.13247 1.61295 11.4011
148 2 8.10692 0.145884 9.39222
344 1 -2.70272 8.10343 0.123965
34 4 -2.84614 12.9863 3.64782
90 2 -1.91265 11.7104 1.99739
193 1 -3.55173 9.42172 7.8296
225 3 -2.05121 7.26167 7.00865
117 2 -2.56194 11.3716 4.40573
203 1 -2.69106 7.81601 4.10633
111 2 -4.0669 9.35606 6.83962
139 2 -3.30137 8.09814 3.2127
140 2 -3.05049 8.32357 5.0364
343 2 -2.52378 7.93207 1.17637
25 4 -1.5641 6.60448 5.61832
318 2 -3.93069 11.6785 0.447494
351 2 -5.64636 10.9327 0.920737
141 2 -2.16196 9.92397 4.94717
346 2 -6.95364 12.2055 8.36068
112 2 -2.86947 10.3192 7.98772
145 2 0.390867 11.8257 8.30999
146 2 -0.770817 10.8538 6.93961
341 2 -3.20273 9.55672 0.022488
83 2 -1.64505 8.13942 3.85635
28 4 -2.48189 8.02997 8.42177
352 1 -5.06567 11.4748 0.0963716
205 1 -0.493034 11.1186 8.13108
118 2 -3.10909 13.024 1.09357
238 3 2.89843 6.8085 5.24955
143 2 -0.564297 9.5206 5.7851
142 2 -0.91005 12.0229 5.64603
234 3 -0.0769472 6.81683 5.20752
41 4 1.55548 6.84733 4.28257
204 1 -1.12013 10.2607 5.08234
49 4 2.50315 8.84731 2.13338
50 4 0.413422 11.4979 4.49662
138 2 -0.283914 9.88765 3.61439
144 2 0.710583 9.56068 7.72779
245 3 1.671 7.93154 3.14409
246 3 3.42239 7.89354 1.25093
247 3 0.654578 12.6372 3.36485
248 3 1.72495 9.90299 1.22257
253 3 1.75117 11.1474 5.24211
19 2 -5.63004 10.1992 3.21738
377 2 -3.97677 7.14649 1.32566
45 4 4.43101 6.709 6.03082
195 1 -2.32371 12.7938 1.92729
329 2 -6.40281 13.0292 5.6423
113 2 -4.3688 9.40501 8.63179
342 2 -1.63822 7.14027 17.3105
259 3 1.80816 8.48896 12.5874
47 4 0.816882 6.03277 15.8462
194 1 -2.19771 6.27157 12.8138
349 2 -4.9869 9.78512 16.7818
160 2 -3.96406 11.7619 16.5885
23 4 -6.02118 12.2674 13.6861
150 2 -3.48794 10.8432 9.80223
250 3 2.49341 7.66253 8.69181
368 2 -3.08068 11.7401 11.3956
348 1 -6.73987 12.4398 9.51346
207 1 -3.34344 10.7656 10.9141
30 4 -3.22317 7.88793 13.4101
32 4 -4.8537 10.0484 11.751
151 2 -2.48802 10.0235 11.1129
224 3 -3.7552 6.77838 9.60237
226 3 -3.7792 7.45353 14.9815
227 3 -6.27086 12.0202 15.2818
229 3 -4.57426 8.27263 12.4095
230 3 -5.323 11.1862 12.7799
256 3 -2.23831 9.16263 13.5353
27 4 -4.15641 7.26763 16.5044
94 2 -2.92607 10.5868 15.7741
82 2 -3.82922 7.5564 10.56
56 4 -1.68925 10.1258 14.6859
31 4 -6.45646 11.4914 16.8033
211 1 -3.41642 12.5234 15.8498
369 2 1.15696 11.0705 15.8429
161 2 -3.3841 12.1047 14.7995
147 2 -1.39191 11.4156 8.81913
92 2 1.07565 9.0946 15.9469
252 3 -1.20275 8.46295 9.32336
38 4 0.146485 12.2409 13.357
370 2 -0.595677 9.21023 15.6366
347 2 -5.64438 12.4875 9.7717
210 1 0.925595 10.1421 16.4834
12 2 1.22796 6.82507 11.1599
114 2 -1.17399 6.85854 13.0098
44 4 2.52652 6.68592 9.97084
209 1 3.69449 6.52858 13.8174
53 4 -0.0989173 9.61406 9.21886
55 4 2.49094 8.00288 13.9916
57 4 1.89369 9.98117 11.842
255 3 1.08108 7.4918 15.2482
257 3 -1.05717 11.4472 14.1923
258 3 0.862796 9.88142 10.4778
260 3 1.33978 11.2192 12.8779
380 2 4.33163 6.09654 15.6832
158 2 -0.0320048 10.2229 16.9961
243 3 3.92748 6.48843 10.5913
156 2 3.30057 6.23644 12.7196
88 2 9.15318 1.986 6.64411
170 2 8.11115 4.50709 4.23599
171 2 7.98275 5.66503 5.76681
197 1 8.53176 1.54214 5.88557
215 1 8.22918 5.57939 4.65338
361 1 10.1965 1.75261 3.06429
272 3 6.68798 4.89206 8.08952
122 2 8.10272 2.70023 4.71265
367 2 9.02346 0.655 5.5129
355 2 8.65547 1.92884 1.98989
267 3 5.91554 5.46766 2.70291
358 2 9.5512 1.76853 4.18011
310 2 9.85739 3.5822 2.3645
214 1 13.2019 3.26106 8.42172
312 2 9.35192 5.52471 2.55095
313 1 9.71164 4.71371 1.90181
95 2 8.91829 0.692396 7.7168
311 2 9.13698 4.6264 0.946149
33 4 9.06148 0.198192 2.27324
172 2 9.17003 6.14026 4.2794
379 1 12.2601 6.59861 2.1237
360 2 10.8298 0.572462 3.03607
274 3 11.1406 4.91025 7.34083
378 2 12.7474 6.16817 3.00433
359 2 10.9222 2.61463 2.95294
67 4 11.4301 3.42257 7.81827
101 2 11.1548 5.62426 4.73255
4 2 14.493 3.39789 4.46634
59 4 15.1334 0.578332 6.5542
61 4 12.0579 1.2798 5.64899
96 2 11.9475 1.49029 3.9492
263 3 13.6435 1.02119 6.14294
271 3 11.4312 2.4749 6.35744
308 4 12.856 2.73883 0.329535
309 4 11.5344 5.09836 1.23519
314 3 12.8503 1.2366 1.02475
315 3 12.5869 3.87274 1.47978
386 3 14.941 1.32751 2.77338
58 4 13.8588 0.3079 2.0689
169 2 13.786 2.81029 7.52587
65 4 6.78084 6.44208 3.78364
69 4 10.8568 6.38334 6.84635
354 2 10.4117 -0.126917 7.31494
363 2 7.91105 1.06544 -0.0783157
168 2 13.667 4.31865 8.64375
24 4 12.3959 5.6346 10.6677
270 3 10.3617 2.77094 8.8967
265 3 8.55461 2.37524 16.6964
35 4 6.99046 2.17673 16.9221
244 3 5.68838 5.0236 12.0699
39 4 7.61997 1.48822 11.6322
46 4 6.31244 3.92181 13.2715
60 4 10.0944 1.41156 9.93292
63 4 10.0483 1.8665 16.1032
68 4 7.57494 5.65218 9.19744
72 4 9.53126 5.38388 11.5216
240 3 6.94878 2.5683 12.5842
262 3 9.17574 1.61488 11.2782
277 3 7.0033 4.67617 14.604
278 3 9.18783 5.5351 16.1256
280 3 8.41339 4.92294 10.2768
281 3 9.92297 4.30218 12.6679
275 3 10.4419 2.60222 14.675
212 1 9.93008 0.0126107 15.6202
98 2 8.23638 0.17665 14.5777
206 1 9.10192 0.265301 8.8502
371 2 14.4088 1.3574 11.1816
374 2 11.9622 0.843022 13.9748
116 2 13.0815 5.56531 12.2722
373 1 12.3867 0.176243 13.1704
317 2 12.7871 3.99947 10.2233
279 3 10.9072 5.83832 10.6774
70 4 11.0102 3.4772 13.4627
384 2 14.0536 0.256923 8.89296
165 2 15.5878 1.12773 9.63898
266 3 11.855 0.712668 10.4171
264 3 11.3976 1.8458 17.0062
167 2 13.1454 2.44495 9.28146
174 2 11.5093 5.79536 13.9851
216 1 11.9171 4.81348 14.4336
175 2 12.962 4.5772 14.047
64 4 12.6932 1.2567 11.7055
173 2 11.7792 4.73403 15.5772
276 3 12.2646 2.62263 12.2333
305 4 15.0416 1.90466 15.8301
306 3 14.2118 2.1993 17.2243
307 3 14.3303 0.488465 15.1861
164 2 10.8887 -0.314212 16.0838
316 3 11.3742 4.79506 17.4202
162 2 10.0075 0.246186 14.4528
71 4 7.74894 5.79541 15.5062
103 2 6.67225 5.90011 16.8651
18 2 10.0813 10.6666 2.01134
356 1 3.66403 12.6172 6.52595
51 4 2.26219 11.1469 0.162681
52 4 3.71329 8.82641 8.01291
54 4 3.19464 10.8551 5.92786
249 3 1.98774 12.4922 0.919755
254 3 2.91146 9.93048 7.1402
105 2 3.67128 9.73038 3.0459
285 3 4.50854 10.6039 5.02566
182 2 6.64961 9.00984 7.99111
251 3 4.76158 7.90993 7.07882
20 1 10.642 9.82523 2.50487
178 2 4.77504 10.2056 1.58375
93 2 4.69377 12.3676 6.94603
180 2 12.3417 7.34962 6.73125
176 2 5.29877 8.89868 2.79807
177 2 6.56441 9.83506 1.7927
217 1 5.54184 9.88143 2.35965
268 3 5.74889 6.73428 4.97435
295 3 8.27665 12.5978 5.56442
73 4 8.70573 8.47896 1.87004
74 4 5.74011 11.0372 3.84807
75 4 7.7916 11.4136 0.215086
76 4 8.85549 9.1081 7.26145
78 4 8.61922 11.1873 4.93596
104 2 9.6208 8.8685 3.43454
107 2 9.93046 11.173 3.89356
183 2 7.1745 7.4459 6.99523
282 3 7.64663 7.68051 2.82101
283 3 9.36913 7.36836 0.921026
284 3 5.45088 12.5832 3.30821
287 3 8.00379 9.83579 0.891498
288 3 7.13663 12.4381 1.13227
289 3 9.64889 7.23737 7.25391
293 3 7.33654 10.6078 4.25593
294 3 9.13866 10.0848 5.95261
219 1 7.09765 8.6406 7.00065
184 2 6.58438 9.0936 6.08548
185 2 6.95697 11.8821 7.87178
100 2 12.516 7.19435 4.73301
181 2 10.5602 7.53577 4.74428
179 2 8.75373 6.5682 8.32512
376 2 11.3402 7.23909 2.38605
218 1 11.4138 6.84126 5.08633
328 2 11.1271 9.12102 1.72066
220 1 7.37335 12.9111 8.25271
290 3 9.09255 9.84564 8.60891
353 2 3.38368 13.0599 4.88375
186 2 10.6001 8.09102 15.3273
149 2 2.24743 12.4335 8.85987
221 1 10.2713 8.59707 14.2832
62 4 6.22347 12.4275 14.2567
228 3 10.9759 9.892 10.5876
300 3 3.84889 10.2398 17.2235
187 2 9.98839 9.68074 14.441
292 3 3.34078 10.3366 11.3506
298 3 3.39569 9.1725 14.6793
188 2 11.2125 8.47277 13.497
106 2 4.46189 12.2792 10.0259
80 4 4.43964 9.99533 15.6771
77 4 4.61526 10.6207 10.4954
291 3 4.60972 9.69125 9.11157
269 3 11.3261 7.45176 16.7851
319 2 6.80038 10.4779 16.5031
66 4 10.1821 6.10966 17.2885
163 2 1.55654 12.4631 15.9653
383 2 5.29991 6.58319 17.3703
154 2 4.52381 8.51298 12.2736
286 3 9.2111 10.9717 17.3409
372 2 4.16608 12.5098 12.6614
153 2 5.74864 7.6131 13.3491
299 3 5.34356 11.2653 14.9766
297 3 9.18514 6.85952 12.3892
152 2 6.31711 8.45713 11.7823
48 4 5.46886 6.35275 11.1481
29 4 9.68271 10.6593 10.0198
79 4 8.70914 7.91286 13.5454
81 4 7.43073 10.7391 12.1322
189 2 5.44211 7.86116 15.6077
190 2 6.46438 8.58059 16.9498
191 2 6.74095 9.26832 15.2841
208 1 5.47511 7.92488 12.2867
222 1 5.97368 8.78843 15.9873
296 3 7.81532 7.23434 14.8529
301 3 8.49994 11.0897 10.9581
302 3 5.95579 10.5312 11.2923
303 3 8.02735 9.35126 12.9331
304 3 7.25371 11.955 13.1151
273 3 6.64115 6.64138 9.99354
155 2 4.86676 6.57118 13.8453
385 2 8.50241 12.7211 8.7699
ITEM: TIMESTEP
200
ITEM: NUMBER OF ATOMS
386
ITEM: BOX BOUNDS xy xz yz pp pp pp
-7.6638492534191780e+00 1.6907555226949132e+01 -7.4991327513740238e+00
-6.6499790659694413e-01 1.3356446172144953e+01 2.0638724903703012e-02
-1.9405318175273933e-01 1.7510153181752699e+01 -8.9755173445182768e-01
ITEM: ATOMS id type x y z
110 2 -2.73196 6.03634 4.225
15 2 -2.27015 5.03835 8.38549
13 2 -1.65934 4.75311 5.68355
3 2 -1.37507 4.56033 3.29403
6 1 -1.37059 3.76152 4.08588
97 2 -0.579151 4.55084 7.92359
129 2 2.38239 4.83457 3.78896
130 2 1.51164 5.73521 2.27195
131 2 0.310026 4.74066 3.63841
200 1 1.42301 5.34637 3.33372
327 1 1.14742 3.34443 0.856672
324 2 -0.527088 3.38726 1.47664
325 2 1.50313 4.4008 0.897543
5 2 -0.0529812 4.02099 5.40485
261 3 -0.632331 1.73496 6.85584
21 3 0.506268 1.76387 3.69336
326 2 1.7809 2.47632 1.38873
10 4 0.843997 2.52074 7.1767
16 1 0.862768 4.22112 6.49029
330 2 2.5694 1.09806 7.19691
332 2 2.87067 2.47573 5.49802
331 1 2.10445 1.46051 6.15718
17 4 1.76473 0.97054 4.37523
14 2 2.00884 4.08681 6.06427
1 4 -0.898577 2.3645 3.01447
235 3 3.71672 5.14606 1.25157
11 2 0.738852 5.17744 7.08816
128 2 3.52246 3.04591 2.899
199 1 4.66386 3.17581 2.99578
22 3 2.89012 0.123589 3.60826
126 2 4.98251 3.64329 3.97667
357 2 6.01704 0.481674 1.9271
233 3 6.08356 3.69589 0.317873
121 2 7.10632 0.578502 6.52405
127 2 5.38554 2.31174 2.64014
366 2 6.09614 0.653352 8.58929
239 3 4.37271 5.22931 6.84014
37 4 6.39689 1.95377 5.37364
40 4 5.20156 4.4223 1.77032
43 4 5.50438 4.23616 7.39156
231 3 5.43206 0.885318 4.54532
237 3 5.95838 3.19181 6.17312
42 4 3.27957 6.55475 0.334094
364 2 5.94677 0.987419 0.109554
236 3 4.76511 3.14169 8.62249
350 2 1.76971 0.395765 0.211868
363 2 7.79267 0.811261 -0.0383909
329 2 1.07258 -0.0254181 5.79612
84 2 -2.49967 5.45787 13.7104
223 3 -2.07271 3.13037 14.9444
86 2 6.82821 0.000628048 16.0371
232 3 6.99269 -0.0380167 12.1019
108 2 -1.46408 3.765 9.40388
115 2 -2.0123 5.99659 11.6961
166 2 -1.49098 2.97033 10.5218
381 2 5.16515 4.77208 16.9386
109 2 -0.865182 5.61035 9.45494
133 2 1.26809 2.37628 8.89509
2 2 3.49533 0.365662 15.8062
323 1 2.38379 2.09344 15.8039
8 2 3.24691 2.01403 16.5147
322 2 2.47759 1.45521 14.853
85 2 0.101012 4.16261 13.2064
320 2 2.1307 3.22285 15.6108
321 2 2.02223 3.03164 14.0043
7 4 0.915919 1.86625 16.9958
9 3 -0.661507 1.50748 16.4134
26 4 -1.2653 4.44259 14.4997
241 3 -0.744339 5.24953 15.7731
242 3 1.66648 5.57588 17.1917
337 2 2.42066 4.56183 12.9754
338 2 1.95251 3.01718 12.0564
339 2 1.49853 4.57793 14.6804
340 1 1.77834 3.63733 12.9947
124 2 2.51419 1.13436 8.98203
198 1 2.43082 1.94765 10.4031
334 2 2.14591 0.847493 13.2868
89 2 1.74277 1.41855 11.236
91 2 2.47089 4.71476 9.30897
134 2 1.66914 4.57622 11.1622
36 4 4.23082 1.96708 9.50479
87 2 2.08813 3.1853 10.2826
99 2 0.0666195 1.94061 10.321
345 2 0.0887866 0.297957 9.77995
201 1 1.58815 5.13114 10.1114
336 1 0.644571 0.306585 12.5948
333 2 0.67969 -0.0479012 11.3605
102 2 -3.66496 5.80804 17.1533
125 2 3.94108 2.22077 11.3579
135 2 3.72664 3.49293 13.6706
47 4 0.866522 5.75068 15.8144
192 1 -1.3372 4.77329 8.8179
132 2 0.5475 4.99768 9.59652
335 2 -0.370228 0.440767 13.0958
213 1 -1.06029 1.82815 10.4568
136 2 4.87158 3.73052 15.2778
159 2 5.07849 -0.35513 16.3157
365 1 6.89985 0.241462 17.1713
120 2 6.02252 -0.0772862 10.3827
137 2 5.10543 2.11095 14.1446
362 2 6.15345 2.40699 15.4442
196 1 5.42004 0.451984 9.45329
202 1 4.83929 3.25246 14.1804
123 2 6.8869 1.715 10.0379
157 2 3.07854 5.45788 14.4528
148 2 8.13198 -0.0227627 9.40342
344 1 -2.76388 8.2061 0.144854
34 4 -2.98771 13.1094 3.67729
90 2 -1.93974 11.6647 2.17822
193 1 -3.62117 9.40724 7.77962
225 3 -2.1761 7.17526 6.94805
117 2 -2.57772 11.5113 4.3783
203 1 -2.60108 7.82416 4.25112
111 2 -3.69664 9.66855 6.67171
139 2 -3.40188 8.03091 3.48738
140 2 -2.81081 8.44847 5.14018
343 2 -2.47509 7.9132 1.21542
25 4 -1.49807 6.53636 5.59493
318 2 -4.11767 12.1449 0.609534
351 2 -5.62419 11.0165 1.04509
141 2 -2.16155 10.1757 5.20066
346 2 -6.78534 12.298 8.30922
112 2 -3.12563 10.3047 8.31968
145 2 0.253376 11.905 8.31163
146 2 -0.654624 10.7631 7.07099
113 2 -4.65054 9.07366 8.33429
83 2 -1.54648 8.10263 3.84157
28 4 -2.57533 8.05188 8.31503
352 1 -5.11617 11.7093 0.25949
205 1 -0.39856 10.994 8.22283
118 2 -3.01399 12.7902 1.03272
238 3 2.91875 6.77205 5.22198
143 2 -0.465173 9.85327 5.81621
142 2 -0.844469 12.0919 5.60781
234 3 0.0145439 6.89967 5.15756
41 4 1.49956 6.9044 4.37884
204 1 -1.07477 10.4784 5.10562
49 4 2.44373 8.84071 2.08779
50 4 0.506005 11.5705 4.32019
138 2 -0.433464 10.1459 3.55495
144 2 0.951387 9.53819 8.04502
245 3 1.48683 8.13348 3.16381
246 3 3.42448 7.82403 1.25086
247 3 0.62401 12.6516 3.20896
248 3 1.85588 9.91122 1.08092
253 3 1.89866 11.1175 5.08988
19 2 -5.85017 10.3611 3.09583
377 2 -3.85171 7.23634 1.52598
45 4 4.34799 6.73131 6.02219
195 1 -2.30722 12.753 1.9754
341 2 -3.05122 9.51687 0.156469
342 2 -1.87099 7.15837 17.1705
259 3 1.87671 8.48994 12.7502
147 2 -1.50352 11.1803 8.76491
194 1 -2.04809 6.40621 12.7621
349 2 -4.83125 10.1077 16.8023
160 2 -3.95375 11.7687 16.5824
23 4 -6.06073 12.2101 13.6081
150 2 -3.70344 11.1395 9.89502
250 3 2.22877 7.84048 8.79156
368 2 -2.90603 11.3607 11.5221
348 1 -6.7656 12.4942 9.44538
207 1 -3.31985 10.6016 10.7809
30 4 -3.13758 7.87634 13.4549
32 4 -4.8446 9.9719 11.6841
151 2 -2.59801 9.77934 10.5581
224 3 -3.68019 6.72187 9.54582
226 3 -3.75203 7.45261 14.9951
227 3 -6.3978 11.9666 15.2867
229 3 -4.46562 8.31716 12.4312
230 3 -5.34849 11.045 12.7944
256 3 -2.12899 9.08712 13.49
27 4 -4.22827 7.3534 16.5094
94 2 -3.00016 10.5713 15.6205
82 2 -3.77592 7.48366 10.699
56 4 -1.75137 10.1108 14.5502
31 4 -6.50471 11.5179 16.8058
211 1 -3.40425 12.5029 15.8907
369 2 1.32387 10.7651 15.5877
161 2 -3.24625 12.0429 14.8427
156 2 2.9092 6.24218 12.7135
92 2 1.0248 8.95196 16.0981
252 3 -1.36509 8.66217 9.21669
38 4 0.223485 12.2101 13.2724
370 2 -0.769421 9.45959 15.8262
347 2 -5.68263 12.2989 9.88974
210 1 1.03259 10.0886 16.414
12 2 1.18905 6.69938 11.1809
114 2 -1.01859 6.81187 13.0535
44 4 2.51647 6.83747 10.0728
209 1 3.36916 6.31225 13.7894
53 4 -0.0265345 9.53142 9.39227
55 4 2.35908 7.9435 14.1636
57 4 1.86971 9.98951 11.9008
255 3 1.10606 7.2779 15.273