ITEM: TIMESTEP
0
ITEM: NUMBER OF ATOMS
350
ITEM: BOX BOUNDS xy xz yz pp pp pp
-6.7108999999999996e+00 1.5238200000000001e+01 -6.2626999999999997e+00
-6.4200000000000002e-01 1.4502800000000001e+01 -4.4819999999999999e-01
0.0000000000000000e+00 1.7008500000000002e+01 -6.4200000000000002e-01
ITEM: ATOMS id type q x y z
7 4 1.29114 -0.701209 2.37227 3.64558
316 2 0.180989 2.88387 1.1787 0.144158
14 4 1.4133 0.305334 4.73306 2.05585
321 2 0.186928 -0.240161 2.5963 8.15454
26 4 1.01034 4.29097 1.4889 3.15709
34 4 1.29684 5.35363 3.73202 6.90356
33 4 1.22316 1.27197 6.48091 4.10461
318 2 0.166853 1.30454 0.676875 1.19259
36 4 1.42316 4.25624 5.91637 5.1496
57 1 -0.675051 1.19842 0.154652 6.12886
62 1 -0.67735 2.95046 2.54219 3.91514
77 2 0.0216791 0.952532 2.65918 4.04314
195 3 -0.811178 3.98244 4.47152 5.81392
79 2 0.0925748 -0.23102 6.29518 8.38425
82 2 0.088571 4.57954 2.16567 1.53554
180 3 -0.830827 3.66298 0.00735983 2.89998
103 2 0.191761 0.747939 1.15702 6.34395
315 1 -0.672568 1.67858 1.0541 0.192249
117 2 0.142739 2.39268 1.60948 4.40624
118 2 0.202524 2.32491 3.09013 3.10451
119 2 0.292414 3.41617 3.33513 4.70554
164 3 -0.818639 -1.15717 3.52882 2.68469
165 3 -0.853964 1.19995 3.71149 1.14926
166 3 -0.863028 -0.14616 6.05761 1.17441
167 3 -0.831827 -2.22736 6.37787 6.56712
182 3 -0.807872 5.66046 1.55625 4.09934
200 3 -0.845004 2.49937 6.79786 8.33454
189 3 -0.870323 0.907699 5.15407 3.42631
190 3 -0.776802 0.429419 6.93811 5.69987
191 3 -0.832493 4.86808 2.69845 8.02893
194 3 -0.804837 2.84033 6.45909 4.29996
105 2 0.12432 1.82567 0.156431 5.14787
185 3 -0.782125 5.21722 2.80056 0.202145
9 4 1.02411 2.58836 -0.212003 7.30588
8 4 1.30541 0.919716 2.26857 16.772
11 4 1.34166 3.02187 -0.0344182 13.5021
13 4 1.30368 0.905707 1.57823 11.8625
18 4 1.20673 -0.773989 3.87567 13.0153
19 4 1.17258 -1.33407 6.24693 10.834
28 4 1.35657 4.09358 1.90439 9.15888
31 4 1.24798 3.8322 2.32744 15.3943
35 4 1.24131 1.88611 5.98783 9.55742
322 2 0.175616 -0.333401 3.18048 9.97704
63 1 -0.667375 3.27209 3.29283 10.3852
64 1 -0.670635 4.55887 3.68592 14.3798
67 1 -0.669992 1.58627 5.76527 13.9051
83 2 0.0500045 1.77788 2.07078 10.4665
198 3 -0.821653 2.77543 6.38203 10.8194
85 2 0.0314212 0.0176616 4.61478 14.3434
317 2 0.179817 0.8548 -0.161476 16.2837
336 2 -0.0410638 -2.25431 6.32553 16.3156
120 2 0.172267 3.9385 2.97687 11.2788
121 2 0.175163 2.32705 3.76911 10.8309
122 2 0.132803 3.8569 4.15186 9.66368
123 2 0.188572 4.47979 3.2437 13.3078
125 2 0.175975 3.8292 4.56637 14.553
324 2 0.170376 0.478607 0.183376 14.552
132 2 0.195054 1.72131 4.8137 14.5322
133 2 0.224735 2.45606 6.00807 13.1936
134 2 0.191928 0.587226 6.008 13.4301
161 3 -0.838125 -0.364889 2.17082 15.7637
162 3 -0.828771 -0.309125 0.814841 11.2229
163 3 -0.864886 1.93335 0.767586 12.6772
59 1 -0.673377 -2.67636 5.48526 9.82091
169 3 -0.842577 0.504588 2.95749 12.5198
170 3 -0.799007 -1.10466 5.16089 11.9804
84 2 0.00887079 2.12582 4.36629 9.17996
184 3 -0.787369 3.81885 1.14178 14.2754
110 2 0.175559 -2.13915 5.09933 8.85295
186 3 -0.800833 2.37368 2.60128 15.8877
187 3 -0.785854 5.1297 1.34729 10.258
319 1 -0.666466 -0.896875 2.68653 9.11892
193 3 -0.80222 0.328564 6.01703 9.77332
272 2 0.158635 4.8378 4.6567 16.8067
181 3 -0.773804 2.8451 1.07511 8.52415
1 4 1.0575 -3.57321 13.3502 2.33866
2 1 -0.673409 -4.6138 12.1533 3.5784
3 2 0.138938 -3.43017 11.5415 3.54138
5 2 0.169653 -5.06338 12.3373 4.61306
6 3 -0.834206 -3.53281 13.0097 0.855552
111 2 0.151105 -3.04358 8.15157 1.07571
20 4 1.28521 -1.64258 10.0243 1.40164
22 4 1.09954 -1.98222 9.73254 7.79824
138 2 0.224057 0.0977197 14.295 3.47312
39 4 1.12732 -0.502664 11.7145 4.09082
40 4 1.0563 2.96512 7.71994 7.10642
42 4 0.969186 1.88316 11.175 5.75991
60 1 -0.654533 -3.34131 9.16388 1.46634
61 1 -0.713832 -3.46503 10.2028 6.57444
69 1 -0.651743 0.434294 13.2995 3.02713
70 1 -0.693049 -1.75088 12.5965 5.18319
87 2 0.0316228 0.976816 7.79369 3.0209
88 2 0.0541706 1.63144 8.02777 6.11939
100 2 -0.0246573 1.89589 10.1554 7.14611
287 2 0.163443 2.68598 8.73378 4.32692
112 2 0.1705 -3.88349 9.74181 0.592723
104 2 0.261708 -5.87185 13.8371 6.15642
115 2 0.16665 -2.74184 10.281 5.64826
116 2 0.200127 -3.72165 11.2903 6.95482
78 2 0.0237092 -2.12305 13.959 6.5828
139 2 0.224737 0.0853998 13.141 1.98128
140 2 0.186767 1.5258 13.0362 3.23963
141 2 0.210692 -1.29661 12.2568 6.21294
142 2 0.166383 -2.86436 12.5498 5.1891
143 2 0.18858 -1.42707 13.7003 4.83513
171 3 -0.773423 -0.547583 8.65793 1.04104
172 3 -0.815003 -1.8588 11.0457 0.158645
173 3 -0.857622 -1.11002 8.58305 7.26392
174 3 -0.835011 -4.12796 12.9599 8.00017
337 2 -0.00536424 -3.38769 8.50764 5.50132
199 3 -0.786858 -1.20919 10.718 2.8058
202 3 -0.860453 -1.19848 10.9588 8.32925
203 3 -0.85964 0.237806 13.1781 7.98279
205 3 -0.843741 0.523048 11.0562 5.03363
334 2 0.0310043 -5.23719 13.7625 2.68833
278 1 -0.676519 2.39489 9.11397 3.31342
285 2 0.181108 2.51114 8.23303 2.50929
286 2 0.213052 1.41094 9.57308 3.27502
290 3 -0.774273 2.24234 11.1698 1.42765
17 4 1.18014 -0.868854 7.0667 6.92049
16 4 1.26187 -0.373865 7.31379 0.240859
114 2 0.155322 -4.35143 9.60808 6.47576
80 2 -0.00856698 -3.18482 9.13085 8.93266
23 4 0.98345 -4.71103 12.4624 9.38072
24 4 1.05694 -2.78213 9.17647 11.7363
25 4 1.51235 -2.40807 12.4569 11.3917
197 3 -0.815927 0.34687 6.94048 16.1822
37 4 1.37428 1.61299 7.23891 15.2456
41 4 1.57131 -0.373807 12.1327 9.04687
43 4 1.45893 2.58587 9.4602 13.3171
44 4 1.42237 -0.283366 12.5445 15.3454
45 4 1.29189 1.87201 11.3352 11.0639
72 1 -0.641962 -3.37708 8.93582 13.5065
73 1 -0.64698 -0.516968 10.7811 14.5583
213 3 -0.790739 1.53884 10.0753 12.0163
339 2 0.0491101 -4.17299 13.6424 14.7262
21 4 1.45306 -3.04998 11.7707 16.5778
147 2 0.182206 -2.62084 8.12559 13.8262
38 4 1.07686 3.76273 7.55067 11.1755
149 2 0.225 -3.21966 10.0229 13.9689
150 2 0.224634 -0.405444 10.075 15.4476
151 2 0.250378 0.294178 10.5562 13.7166
152 2 0.220785 -1.57895 10.7667 14.1309
175 3 -0.771199 -1.87346 7.88263 11.4215
176 3 -0.810169 -4.13421 11.4921 15.4223
177 3 -0.856582 -3.81169 12.5342 10.6913
178 3 -0.779446 -2.28442 10.6313 11.7599
179 3 -0.820013 -2.36961 13.346 12.7688
196 3 -0.829627 2.98301 6.96778 16.0762
81 2 0.0264997 -4.12351 9.16288 10.4561
323 1 -0.688648 -6.10572 13.6098 14.5108
204 3 -0.786037 -1.25642 12.889 10.2652
207 3 -0.816637 1.65493 8.66453 14.4468
209 3 -0.856788 0.564482 12.557 16.6921
210 3 -0.814776 0.457717 13.3233 14.1623
211 3 -0.788244 -1.79575 12.7707 15.8665
212 3 -0.82197 0.977853 11.4085 9.73695
208 3 -0.825651 3.4059 8.35569 12.476
146 2 0.14902 2.74175 9.36802 8.79587
344 2 0.174054 -6.26979 13.3213 13.3975
15 4 1.22101 11.6418 6.82847 5.78627
46 4 1.36987 9.77563 2.28568 3.75516
49 4 1.51839 12.2125 1.85678 5.63536
50 4 1.26352 11.1463 5.02589 3.2093
51 4 1.29377 7.16958 6.07323 4.30371
52 4 0.953426 9.74389 6.48408 0.969547
53 4 1.32368 10.5908 3.32502 7.76548
54 4 1.27625 8.94597 5.76416 6.82915
66 1 -0.67593 5.92162 5.04325 8.12918
91 2 0.0588254 9.73545 1.47059 2.20306
94 2 0.107538 12.665 4.31741 2.83685
95 2 -0.00423384 8.09856 4.98214 3.38091
29 4 1.53702 7.05527 1.72028 5.17129
280 2 0.0218891 5.30401 6.95125 0.809862
268 1 -0.675352 6.43081 5.44929 0.174585
129 2 0.200576 5.99302 6.0188 7.54231
192 3 -0.775799 6.57245 3.10308 6.00091
215 3 -0.890943 8.42617 1.93491 4.35678
219 3 -0.828647 13.637 2.26967 4.94447
220 3 -0.849611 10.9696 1.5503 4.43831
221 3 -0.788982 12.6154 0.436273 6.44468
222 3 -0.881265 10.1801 3.73737 3.3837
223 3 -0.85545 11.3882 5.98751 4.43275
224 3 -0.822508 5.59863 5.67252 4.21062
225 3 -0.858863 10.8192 5.61569 1.73183
98 2 -0.0141149 8.26353 6.36169 8.33944
227 3 -0.827609 11.7995 2.91458 6.81583
228 3 -0.838117 10.2054 6.71199 6.61124
229 3 -0.84462 7.80136 5.97273 5.75081
230 3 -0.837197 9.48067 4.27097 7.17301
271 2 0.13437 6.45464 5.76913 1.2122
294 4 1.03111 13.8733 0.293057 1.47384
347 2 0.184823 8.242 0.364361 1.29543
296 3 -0.833175 14.5982 1.05065 2.66028
297 3 -0.797066 12.4316 0.805713 0.968351
130 2 0.18131 6.91462 4.6744 8.47622
340 2 0.0197294 12.7954 3.48835 1.0131
267 4 1.02515 6.55984 3.51115 0.567577
96 2 0.00145659 8.36166 5.51277 0.651316
269 2 -0.0222457 6.77802 3.486 2.24299
183 3 -0.850048 7.17986 0.512844 6.15825
217 3 -0.841536 8.82605 -0.245323 8.33592
298 4 1.2321 12.063 2.21482 0.143533
312 3 -0.839758 10.5162 2.40247 0.0848612
295 2 -0.0193275 15.0977 0.276012 0.191302
10 4 0.963767 13.8674 1.02374 9.85556
335 2 0.00162778 14.033 0.359119 13.7712
32 4 1.30311 6.62262 1.64282 10.9568
48 4 1.38016 9.0204 1.06925 9.13323
58 1 -0.67715 11.933 0.63582 10.6545
65 1 -0.66802 6.69539 3.40432 11.709
68 1 -0.674873 5.5995 6.76786 11.4349
93 2 0.0238211 10.0063 0.550841 10.4868
128 2 0.140006 5.57398 3.67275 11.4657
313 3 -0.828668 7.47837 2.45538 16.8987
107 2 0.14155 11.706 1.69002 10.0553
108 2 0.140585 11.5379 0.672848 11.7538
126 2 0.177474 7.42804 4.03248 11.1645
127 2 0.162434 6.95036 3.28204 12.8425
109 2 0.159541 12.1652 4.70894 10.5668
106 2 0.129064 11.5651 -0.287157 10.1277
131 2 0.165142 5.12376 5.11518 8.97008
135 2 0.183432 6.62714 6.63791 11.0138
188 3 -0.788613 7.33759 0.600208 12.2362
247 2 0.151608 8.89985 6.55625 14.6011
270 2 0.171086 6.79258 5.37032 16.4494
218 3 -0.827783 7.77542 1.71933 9.78858
243 1 -0.664552 8.61197 6.52064 10.2919
245 2 0.0493174 6.57858 6.13082 14.2403
248 2 0.132818 8.33044 5.40008 15.8704
256 2 0.147198 7.68488 5.90983 10.0306
257 2 0.168119 8.86 6.51229 11.4029
258 2 0.126558 9.56808 6.24333 9.75039
124 2 0.160723 5.64096 3.91635 14.7273
299 4 1.23131 8.80154 1.94267 16.1357
300 4 0.830064 9.43081 3.98561 13.718
301 1 -0.674021 9.92905 3.28097 12.0305
302 1 -0.663732 11.0518 4.91952 14.2434
303 2 0.0149073 8.48938 0.435273 15.4529
304 2 0.000380477 8.21266 5.23604 13.6074
305 2 0.172845 11.0564 3.16014 12.2774
306 2 0.16143 9.69361 3.84653 11.1196
307 2 0.171215 9.30144 2.27043 12.2847
308 2 0.13737 10.958 5.78019 13.5055
309 2 0.256669 11.904 4.22967 13.9593
310 2 0.157152 11.1049 5.26189 15.2695
311 3 -0.810162 12.3646 1.43345 15.6967
99 2 -0.00789154 9.6594 6.28994 16.3908
342 2 0.132537 11.9116 6.52744 9.62207
314 3 -0.786864 9.15823 2.94828 14.9187
240 1 -0.65456 8.04711 6.31052 15.2405
329 2 0.173366 9.78927 0.752881 13.9923
328 1 -0.698543 9.47917 -0.357826 13.9531
97 2 -0.00548831 11.2411 4.23769 9.06389
12 4 1.17306 13.6393 1.73518 14.7146
216 3 -0.778948 14.25 -0.305771 8.55346
136 2 0.159808 5.11838 5.71289 11.6313
320 2 0.161108 13.2535 3.0566 8.88566
168 3 -0.848721 13.306 3.03246 13.6988
226 3 -0.880621 9.99444 2.08237 8.51953
279 1 -0.703936 2.74515 14.1946 1.67918
47 4 1.16874 7.00575 13.7353 7.35202
55 4 1.07044 8.52059 8.4527 2.88918
332 2 0.136415 7.85169 12.4948 1.3934
74 1 -0.647638 7.75089 10.2355 2.44945
75 1 -0.674885 9.98018 8.99345 4.05021
327 2 0.182192 9.65703 11.1901 0.153453
71 1 -0.664559 3.58331 9.33412 7.9756
288 2 0.165133 2.62943 13.8342 2.71264
144 2 0.122151 3.64229 10.3399 7.43637
153 2 0.191713 6.74506 10.5536 3.00952
154 2 0.171131 7.51531 9.94824 1.38448
155 2 0.137073 8.57566 11.0894 2.52876
4 2 0.137418 9.87339 11.6548 2.87575
157 2 0.16774 9.62341 8.74476 5.09389
158 2 0.169106 10.1005 10.1635 3.95072
92 2 -0.00504045 5.68188 12.9626 8.2819
231 3 -0.811308 7.39339 7.49876 3.70938
232 3 -0.834709 9.18664 7.79209 1.52617
331 2 0.155679 7.30453 12.82 3.24274
293 3 -0.816799 7.78893 12.5908 6.39743
274 4 1.36064 3.34864 10.3425 2.01765
275 4 1.25941 2.34384 12.7642 0.365098
276 4 0.972742 4.83903 12.3234 3.92945
277 4 0.940469 7.10183 11.4147 5.6384
333 2 0.175922 6.04977 12.7725 1.80427
206 3 -0.822007 2.23731 12.672 5.92264
281 2 0.0284965 5.67098 13.7062 3.24378
282 2 0.0751947 3.62708 13.0946 4.86148
283 2 -0.00315163 8.06889 10.7614 4.34263
284 2 -0.0225099 6.95623 9.99261 6.53003
252 2 0.14634 10.6687 9.36313 7.99154
289 3 -0.842919 4.11173 9.21849 1.00892
330 1 -0.661733 7.12071 13.0563 2.11644
291 3 -0.85129 4.25168 11.3588 2.84709
292 3 -0.854528 5.70894 11.6614 5.04284
156 2 0.161107 10.9147 8.36842 3.79972
346 2 0.196758 3.77427 14.3618 1.23921
254 2 0.147068 6.85597 8.35349 8.1117
27 4 1.49072 1.41321 13.7957 7.12877
201 3 -0.782592 4.28613 7.24448 6.36045
113 2 0.192967 11.193 9.09983 2.43059
89 2 0.00506591 3.0247 10.3316 4.75866
145 2 0.171912 4.76456 9.10373 8.43022
250 2 0.0204686 8.61934 9.76322 8.62973
56 4 1.1199 4.1917 11.0965 15.4237
76 1 -0.688762 5.74873 12.0662 15.0814
341 2 0.00668486 6.64736 14.02 11.9096
90 2 0.00215541 3.45041 10.982 10.4324
101 2 0.0184429 5.64921 10.4777 16.206
349 2 0.19791 3.20686 13.7105 14.9985
345 2 0.104419 8.15859 12.0795 16.8279
159 2 0.18646 5.47208 13.1446 15.2984
160 2 0.191839 5.8753 11.7566 13.9285
86 2 2.82926e-05 3.81898 8.67767 9.8264
233 3 -0.84301 3.59633 10.5452 14.0825
234 3 -0.8428 3.23107 11.9168 16.3908
273 4 1.30885 4.14433 7.55534 16.9032
236 4 0.977205 6.64321 7.86959 15.0285
237 4 0.857771 8.43206 8.52808 9.97802
238 4 1.44719 7.82795 9.9225 12.7345
239 4 0.703008 6.27127 12.3901 11.2943
148 2 0.170537 10.7614 8.68034 13.286
241 1 -0.630016 10.1635 8.84088 8.93297
242 1 -0.662984 6.62262 8.78433 9.17258
244 1 -0.659825 5.08052 11.8961 9.79988
246 2 0.0122347 6.88757 12.449 9.6236
251 2 0.154208 10.0465 7.717 8.73649
249 2 0.0447481 8.04114 7.8998 16.1913
343 2 0.110337 8.20004 13.3526 15.2883
137 2 0.199439 5.70307 7.36385 12.4608
253 2 0.165581 6.14179 7.98099 9.98221
235 4 1.10523 9.48358 11.5287 14.8446
255 2 0.148142 6.26685 9.8708 9.27324
259 2 0.177363 4.36462 12.3372 9.15823
260 2 0.0324457 4.39646 12.4762 11.3494
261 2 0.152349 5.27752 10.7777 9.64201
262 3 -0.856591 5.30297 7.89109 15.9329
263 3 -0.784571 6.9576 8.89545 13.7217
264 3 -0.782798 8.43192 9.01491 11.5236
265 3 -0.821431 8.97519 10.6863 13.6336
266 3 -0.793286 6.93894 11.1737 12.0986
102 2 0.0703078 8.99218 13.2168 9.59343
325 1 -0.672984 8.50043 10.988 16.4474
326 2 0.156169 7.64256 10.3401 16.3339
350 2 0.149707 6.82834 11.7914 15.5852
214 3 -0.851746 1.95066 12.6513 11.9523
30 4 1.38575 1.54835 13.7913 13.0105
348 2 0.154401 3.92395 13.55 13.3152
338 2 -0.0156374 10.1232 10.8071 9.20189
ITEM: TIMESTEP
100
ITEM: NUMBER OF ATOMS
350
ITEM: BOX BOUNDS xy xz yz pp pp pp
-6.7086630333333339e+00 1.5233120600000001e+01 -6.2606124333333337e+00
-6.4200000000000002e-01 1.4502800000000001e+01 -4.4805060000000019e-01
0.0000000000000000e+00 1.7008500000000002e+01 -6.4200000000000002e-01
ITEM: ATOMS id type q x y z
7 4 1.24966 -0.61418 2.51746 3.622
295 2 -0.0182322 -0.0747062 0.445357 0.381476
14 4 1.40538 0.346029 4.81794 1.98366
321 2 0.196797 -0.798233 2.70287 7.93958
26 4 1.01906 4.27398 1.41289 3.12428
34 4 1.31625 5.31368 3.73285 6.99663
33 4 1.26299 1.39065 6.41894 4.14361
318 2 0.156086 1.45374 0.713254 1.03997
36 4 1.48045 4.18424 5.94385 5.20118
57 1 -0.687389 1.32253 0.208781 6.15158
62 1 -0.683731 3.03896 2.52435 3.96553
77 2 0.0276141 1.0486 2.87144 3.99824
195 3 -0.837456 4.04763 4.50762 5.88648
79 2 0.089451 0.0183222 6.72737 8.28708
82 2 0.0560153 4.69529 2.00052 1.5314
180 3 -0.83014 3.67822 -0.096269 3.0218
103 2 0.187648 0.845879 1.13291 6.60824
315 1 -0.68474 1.76958 1.07919 0.0632627
117 2 0.147816 2.35058 1.76536 4.52015
118 2 0.174598 2.58802 2.97813 3.04993
119 2 0.279535 3.33431 3.31576 4.69445
164 3 -0.802795 -1.15102 3.62465 2.48134
165 3 -0.822283 1.31417 3.81524 1.05907
166 3 -0.862393 -0.0801187 6.14606 1.151
167 3 -0.819321 -2.18802 6.38239 6.66546
182 3 -0.82003 5.55517 1.59253 4.10405
200 3 -0.879236 2.41895 6.82182 8.39385
189 3 -0.875547 0.935546 5.10898 3.4054
190 3 -0.790494 0.320624 6.86363 5.51036
191 3 -0.825737 4.65797 2.73319 8.0903
194 3 -0.871493 2.90915 6.45619 4.34175
105 2 0.155764 1.72155 0.364862 5.10916
185 3 -0.771598 5.2384 2.74842 0.139173
9 4 1.07161 2.69822 -0.140811 7.37731
296 3 -0.814779 -0.567805 1.03723 2.90061
272 2 0.157367 5.30934 5.15389 0.0734102
316 2 0.181603 2.92343 1.07301 0.018819
8 4 1.33288 0.901504 2.29086 16.6342
11 4 1.32623 2.99416 0.00818002 13.5145
13 4 1.2439 0.87168 1.60767 11.7315
18 4 1.21715 -0.597444 3.9167 13.1186
19 4 1.209 -1.34597 6.27747 10.945
28 4 1.34627 4.1027 1.82963 9.27398
31 4 1.2084 3.78864 2.16389 15.4544
35 4 1.1752 1.93948 5.83178 9.56873
322 2 0.151514 -0.298691 3.18147 9.71096
63 1 -0.681017 3.22155 3.16809 10.5718
64 1 -0.665723 4.44901 3.76607 14.7303
67 1 -0.656691 1.96261 5.86679 13.8358
83 2 0.0279504 1.63768 2.16594 10.2298
198 3 -0.819614 2.87193 6.1428 10.7877
85 2 0.01571 0.376156 4.73072 14.3147
317 2 0.163686 0.850153 -0.145644 16.1192
336 2 -0.0330846 -2.29416 6.31924 16.3806
120 2 0.16335 3.84216 2.6093 11.502
121 2 0.18625 2.34475 3.73989 11.0327
122 2 0.150706 3.87991 4.00042 10.0485
123 2 0.177577 4.39335 3.64129 13.6499
125 2 0.207241 3.77166 4.60888 15.1644
324 2 0.169204 0.498383 0.0869566 14.4466
132 2 0.204297 2.12201 4.86528 14.2882
133 2 0.234794 2.80266 6.22301 13.1059
134 2 0.163435 0.903071 6.01367 13.3746
161 3 -0.889495 -0.365146 2.14875 15.7514
162 3 -0.81952 -0.408271 0.71939 11.2672
163 3 -0.840272 1.93893 0.834259 12.7227
59 1 -0.663408 -2.74888 5.67092 9.8518
169 3 -0.847424 0.459098 2.95671 12.4321
170 3 -0.792549 -1.1581 5.07469 12.0603
84 2 -0.0050772 2.1793 4.16326 9.23509
184 3 -0.778188 4.06191 0.945692 14.4135
110 2 0.195548 -2.3066 5.42454 8.85061
186 3 -0.794588 2.20748 2.74028 15.7638
187 3 -0.760187 5.19384 1.12086 10.1306
319 1 -0.674385 -1.05125 2.63496 9.04588
193 3 -0.762958 0.273518 6.16535 9.78609
181 3 -0.797407 2.86875 0.958216 8.53973
128 2 0.153689 5.38133 3.58326 11.3346
168 3 -0.814442 -1.88658 3.06807 13.7733
1 4 0.992447 -3.55335 13.3404 2.33651
2 1 -0.669776 -4.68715 12.101 3.66579
3 2 0.139363 -3.52975 11.639 3.29812
5 2 0.178416 -4.90733 12.0591 4.73872
6 3 -0.833877 -3.46108 13.0488 0.730337
111 2 0.16658 -3.37218 8.26616 0.919899
20 4 1.25444 -1.82531 9.98211 1.38516
22 4 1.03588 -1.97388 9.71524 7.76051
138 2 0.2018 0.0748765 14.2245 3.41965
39 4 1.16917 -0.649945 11.6994 3.9788
40 4 1.10717 2.96572 7.69223 7.29797
42 4 0.944756 1.96273 11.1683 5.68751
60 1 -0.661891 -3.53551 9.33728 1.39726
61 1 -0.698435 -3.41853 10.1948 6.54829
69 1 -0.677081 0.255883 13.108 3.06271
70 1 -0.672374 -1.87407 12.5664 5.21074
87 2 0.0318616 1.31581 7.70837 2.98127
88 2 -0.00207122 1.73848 8.22479 6.29999
100 2 -0.0292019 2.04506 10.1219 7.00948
287 2 0.161266 2.55926 8.79164 4.47495
112 2 0.167054 -4.05051 10.0759 0.711199
104 2 0.246707 -5.65774 13.8371 6.17445
115 2 0.185994 -2.74577 10.3128 5.59643
116 2 0.206162 -3.73239 11.1938 6.99356
78 2 0.0383848 -2.245 14.2042 6.16686
139 2 0.220956 -0.174035 12.9482 2.07974
140 2 0.204775 1.32956 12.91 3.01668
141 2 0.21936 -1.65151 12.0951 6.21347
142 2 0.181018 -2.95882 12.4033 4.70825
143 2 0.200653 -1.36165 13.5808 4.97499
171 3 -0.790246 -0.82247 8.698 1.0941
172 3 -0.808486 -1.82136 11.0862 0.174103
173 3 -0.85006 -1.04014 8.72171 6.94167
174 3 -0.821543 -3.92827 12.9297 8.06025
337 2 0.0114193 -3.216 8.48149 5.56001
199 3 -0.789305 -1.50829 10.831 3.06081
202 3 -0.823262 -1.27943 11.0367 8.4315
203 3 -0.832494 0.160263 13.1733 7.78382
205 3 -0.793584 0.654388 10.9838 4.7744
334 2 0.0393794 -5.19804 13.7361 2.86934
278 1 -0.651826 2.6769 9.12368 3.39522
285 2 0.185253 3.02411 8.14595 2.8115
286 2 0.18502 1.54793 9.51257 2.98584
290 3 -0.760245 2.04405 11.4336 1.41517
17 4 1.17637 -0.752048 7.20149 6.77377
16 4 1.26024 -0.3917 7.34602 0.22135
201 3 -0.787069 4.18378 7.21457 6.54362
114 2 0.143908 -4.33594 9.48941 6.30204
252 2 0.148428 -4.43007 9.46143 8.1088
80 2 -0.0159357 -3.00271 8.9281 8.95444
23 4 0.996797 -4.71623 12.5034 9.37453
24 4 1.02822 -2.69314 9.27285 11.6783
25 4 1.49637 -2.44275 12.3851 11.3595
197 3 -0.824624 0.332734 6.87225 16.1276
37 4 1.36009 1.65177 7.17011 15.2884
41 4 1.53872 -0.330332 12.1734 9.11213
43 4 1.45865 2.61647 9.44088 13.2879
44 4 1.32911 -0.367624 12.4612 15.4568
45 4 1.27335 1.88795 11.2798 11.104
72 1 -0.636106 -3.42275 8.93967 13.3508
73 1 -0.658435 -0.243011 10.6934 14.8293
213 3 -0.79501 1.51101 10.147 12.2931
339 2 0.0510231 -4.15558 13.5594 14.6418
21 4 1.47626 -3.05667 11.7791 16.4831
147 2 0.176774 -2.92953 7.94591 13.688
38 4 1.05001 3.75015 7.50296 11.0121
149 2 0.256977 -3.35156 9.81723 14.0336
150 2 0.24581 0.510729 10.3004 15.6128
151 2 0.289431 0.0581833 10.6536 13.7828
152 2 0.205603 -1.30166 10.2572 14.9813
175 3 -0.785196 -1.8999 7.6988 11.4071
176 3 -0.834479 -4.10645 11.2963 15.2725
177 3 -0.854482 -3.92141 12.4441 10.6855
178 3 -0.778286 -2.05177 10.6495 11.8291
179 3 -0.800724 -2.56289 13.45 12.5892
196 3 -0.803223 3.03039 6.7905 16.0948
81 2 0.0456887 -4.14791 9.47904 10.4806
323 1 -0.672438 -6.08069 13.4743 14.4563
204 3 -0.775741 -1.13967 12.8461 10.3641
207 3 -0.778686 1.60111 8.59046 14.4929
209 3 -0.814342 0.626986 12.4667 16.7152
210 3 -0.761221 0.481472 13.2845 14.1609
211 3 -0.81152 -2.03692 12.8065 15.8959
212 3 -0.837558 1.00106 11.4096 9.76151
146 2 0.134202 2.88186 9.61183 8.80337
102 2 0.0665927 -6.15277 13.3982 9.58506
208 3 -0.832741 3.44085 8.35596 12.303
15 4 1.22613 11.7548 6.78927 5.78606
46 4 1.3263 9.84472 2.34061 3.83365
49 4 1.52451 12.2092 1.7232 5.66038
50 4 1.24691 11.1675 5.00237 3.2563
51 4 1.30629 7.10499 6.07446 4.23439
52 4 0.969669 9.6903 6.42803 1.094
53 4 1.3349 10.5698 3.40254 7.65143
54 4 1.30113 9.03422 5.77522 6.6754
66 1 -0.686328 6.01488 5.14323 8.0703
91 2 0.0280896 9.6841 1.52633 2.31533
94 2 0.107821 12.7257 4.27949 3.01233
95 2 -0.0306658 7.44157 4.8148 3.17632
29 4 1.50935 6.90126 1.83594 5.20862
280 2 0.0123599 5.56876 6.95277 0.839302
268 1 -0.655547 6.52769 5.32098 0.366435
129 2 0.197392 6.32595 5.93708 7.29994
192 3 -0.809705 6.5089 2.95952 6.22471
215 3 -0.818851 8.4382 2.11369 4.37083
219 3 -0.80014 13.6806 2.36991 4.84777
220 3 -0.868779 10.9554 1.55845 4.58767
221 3 -0.833334 12.5673 0.371626 6.50104
222 3 -0.8786 10.0783 3.93278 3.5276
223 3 -0.855629 11.4843 6.02519 4.41677
224 3 -0.853372 5.51829 6.06246 4.33708
225 3 -0.840875 10.9228 5.81629 1.74459
98 2 -0.0075687 8.21572 6.32398 8.10371
227 3 -0.82071 11.702 2.84106 6.72664
228 3 -0.84138 10.314 6.76955 6.71868
229 3 -0.846367 7.91205 5.9413 5.60422
230 3 -0.82073 9.48104 4.28899 6.90838
271 2 0.120098 6.67354 5.6947 1.42077
294 4 1.02678 13.9387 0.373272 1.63218
347 2 0.197243 8.65281 0.542536 1.13716
298 4 1.24478 11.9106 2.22352 0.0962958
297 3 -0.817779 12.6018 1.02683 1.00641
183 3 -0.800987 7.22918 0.51023 6.04178
340 2 -0.00331268 12.1945 3.73188 0.78231
267 4 0.998891 6.59469 3.39537 0.677896
96 2 -0.0153705 8.42324 5.35231 0.987647
269 2 -0.028323 6.77827 3.1572 2.39351
217 3 -0.830011 8.8138 -0.178998 8.11208
10 4 0.976946 13.896 1.01883 9.90719
335 2 0.0155967 13.9903 0.330901 14.1578
32 4 1.28898 6.73943 1.56924 10.9489
48 4 1.31917 9.11464 1.00353 9.1152
58 1 -0.686172 11.9221 0.828904 10.6945
65 1 -0.688337 6.37256 3.28004 11.774
68 1 -0.669714 5.46079 6.74097 11.4797
93 2 -0.00907406 9.95145 0.37644 10.4773
312 3 -0.831349 9.93039 1.55743 16.901
313 3 -0.823927 7.44834 2.29139 16.852
107 2 0.147104 11.7358 1.77399 10.0385
108 2 0.173043 11.6607 1.0223 11.7168
126 2 0.164194 7.16266 3.96827 11.4706
127 2 0.17757 6.28608 3.08105 12.9054
109 2 0.152432 12.1515 4.78639 10.5739
106 2 0.120057 11.5342 -0.0699724 10.1576
131 2 0.172599 5.2098 5.52293 8.77303
135 2 0.161747 6.55799 6.62543 10.9814
188 3 -0.844168 7.28616 0.600631 12.0874
226 3 -0.821161 9.91432 2.24491 8.50448
270 2 0.13937 6.84798 5.34918 16.4972
218 3 -0.781067 7.86737 1.78541 9.67711
243 1 -0.680325 8.3526 6.43302 10.0713
245 2 0.0367415 6.60203 6.13251 14.123
248 2 0.149689 8.08971 5.28666 15.7179
256 2 0.158681 7.42346 6.02063 9.57107
257 2 0.152166 8.37021 6.33154 11.1868
258 2 0.129833 9.20779 5.98009 9.5159
124 2 0.172482 5.53316 3.80486 15.1332
299 4 1.22803 8.6485 1.90489 15.943
300 4 0.838305 9.44827 4.03656 13.6472
301 1 -0.679434 9.68641 3.02582 12.0664
302 1 -0.66793 11.0263 5.15165 14.0826
303 2 0.0347386 8.30398 0.424019 15.1376
304 2 0.00107806 8.23437 5.3343 13.4734
305 2 0.171184 10.8049 3.00229 12.0133
306 2 0.159863 9.19369 3.61253 11.2316
307 2 0.198822 9.11849 2.06726 12.2703
308 2 0.146114 10.9583 6.10039 13.4981
309 2 0.242663 11.9846 4.63021 13.7905
310 2 0.149418 11.0066 5.38776 15.1775
311 3 -0.809585 12.1486 1.51426 15.6422
99 2 -0.0106403 9.51321 6.03998 16.449
342 2 0.152899 11.7457 6.60018 9.92762
314 3 -0.787775 9.09217 3.00589 14.8147
240 1 -0.646349 8.00345 6.25866 15.1781
329 2 0.17862 9.78148 0.773886 13.7915
328 1 -0.679746 9.39975 -0.313436 13.6759
97 2 -0.00483308 11.4883 4.34611 8.75664
12 4 1.20792 13.5471 1.87286 14.8415
130 2 0.183585 6.87458 4.66145 8.60918
136 2 0.17135 4.96068 5.69606 11.7756
320 2 0.142014 13.1173 3.09317 9.28563
247 2 0.143234 8.98669 6.58146 14.5853
279 1 -0.708613 2.83004 14.2412 1.70903
47 4 1.20836 6.93086 13.6815 7.28696
55 4 1.13587 8.57325 8.46173 2.99203
332 2 0.113588 8.20992 12.628 1.58372
74 1 -0.670533 7.64079 10.2356 2.54271
75 1 -0.688834 10.0631 8.95434 4.11925
327 2 0.165933 9.9764 11.2903 0.174539
71 1 -0.670648 3.66661 9.41922 7.93377
288 2 0.148442 2.3837 14.136 2.76193
144 2 0.139855 3.73292 10.1153 7.06622
153 2 0.211211 6.75348 10.3315 3.14857
154 2 0.177949 7.41673 10.025 1.43742
155 2 0.147895 8.43427 11.045 2.63588
4 2 0.134018 9.68904 11.6245 3.05498
157 2 0.161139 9.61128 8.64485 5.14404
158 2 0.170276 10.3009 10.093 4.0636
92 2 -0.00321867 5.66972 12.8376 8.24437
231 3 -0.831096 7.60912 7.43766 3.64282
232 3 -0.819857 9.16339 7.76304 1.67396
331 2 0.183252 7.69405 13.1184 3.35052
293 3 -0.812119 7.77102 12.6575 6.3154
274 4 1.24613 3.44435 10.31 2.01361
275 4 1.32514 2.41908 12.7133 0.540712
276 4 0.983722 4.84679 12.2816 3.99988
277 4 0.904832 7.10408 11.3451 5.67313
333 2 0.169557 6.25452 12.6391 2.09577
206 3 -0.819591 2.51076 12.5848 6.07677
281 2 0.00921434 5.73671 13.6195 3.35663
282 2 0.0819515 3.56077 13.1097 4.79182
283 2 -0.00478816 8.16853 10.8943 4.36013
284 2 -0.040728 7.13878 10.0383 6.7392
346 2 0.167949 3.93158 14.087 1.72346
289 3 -0.832097 4.12186 9.32165 0.87929
330 1 -0.659747 7.32134 13.139 2.27615
291 3 -0.840722 4.37558 11.3035 2.87761
292 3 -0.837067 5.66102 11.5687 5.09532
156 2 0.182153 10.9427 8.28402 3.88928
89 2 0.0268566 3.1872 10.408 4.83168
254 2 0.160017 6.60416 8.46778 8.22768
27 4 1.48972 1.44486 13.7532 7.03601
250 2 0.0237892 8.70407 9.61888 8.3828
145 2 0.170515 4.78674 9.22348 8.39754
113 2 0.198535 11.1474 9.21023 2.44282
344 2 0.18728 8.63942 13.1874 13.4747
56 4 1.108 4.15039 11.2007 15.325
76 1 -0.677028 5.84966 12.0751 15.3056
341 2 0.0033045 6.35478 14.019 11.9594
90 2 -0.00527696 3.42532 10.8973 10.3968
101 2 0.0786639 5.5676 10.3156 15.9879
349 2 0.174794 3.11974 13.6825 14.7056
345 2 0.127298 8.14455 11.8289 16.8874
159 2 0.16819 5.37676 13.0959 15.8283
160 2 0.167905 5.92513 12.3729 14.1946
86 2 -0.0139983 4.06797 8.66697 9.75999
233 3 -0.849592 3.56359 10.5183 14.0006
234 3 -0.834728 3.23103 11.7567 16.502
273 4 1.24647 4.27037 7.56706 16.9091
236 4 1.00609 6.56278 7.84764 14.9766
237 4 0.836449 8.46033 8.52639 9.91274
238 4 1.43022 7.81785 10.0336 12.7742
239 4 0.683132 6.08218 12.4054 11.3029
148 2 0.165521 10.6812 8.78903 12.8587
241 1 -0.60656 10.2742 9.01551 9.04859
242 1 -0.658248 6.61204 8.84338 9.23881
244 1 -0.644279 4.98974 11.8773 9.75467
246 2 0.0214465 6.75117 12.3449 9.58595
251 2 0.130589 10.25 7.69474 8.89442
249 2 0.0505673 7.96134 7.78025 16.1544
343 2 0.11066 8.4204 13.2495 15.3903
137 2 0.195894 5.57766 7.41379 12.3698
253 2 0.150466 6.10536 8.00457 10.1051
235 4 1.14347 9.57518 11.372 14.8793
255 2 0.154994 6.2504 9.93025 9.36469
259 2 0.161458 4.34506 12.2545 8.79999
260 2 0.0367114 4.18963 12.3895 11.2701
261 2 0.151788 5.07552 10.7373 9.70847
262 3 -0.875474 5.38264 8.058 15.9432
263 3 -0.77807 7.02663 8.99108 13.8683
264 3 -0.753542 8.47258 9.26641 11.3876
265 3 -0.818136 9.04516 10.5844 13.6498
266 3 -0.77227 6.79474 11.2031 12.2134
338 2 -0.00906964 9.84229 10.9508 9.01414
325 1 -0.68928 8.61447 10.9023 16.5057
326 2 0.168864 7.90211 10.049 16.3834
350 2 0.166856 6.92408 11.7366 15.7384
214 3 -0.859756 1.92846 12.6427 11.8519
30 4 1.39552 1.44742 13.7623 12.8591
348 2 0.144627 3.80326 13.6537 12.8754
216 3 -0.777613 7.86488 14.1788 8.53654
ITEM: TIMESTEP
200
ITEM: NUMBER OF ATOMS
350
ITEM: BOX BOUNDS xy xz yz pp pp pp
-6.7064260666666673e+00 1.5228041200000002e+01 -6.2585248666666669e+00
-6.4200000000000002e-01 1.4502800000000001e+01 -4.4790120000000044e-01
0.0000000000000000e+00 1.7008500000000002e+01 -6.4200000000000002e-01
ITEM: ATOMS id type q x y z
7 4 1.26988 -0.716179 2.61467 3.58732
180 3 -0.822483 3.62802 0.0357978 2.93947
14 4 1.45379 0.35609 4.79202 1.88518
321 2 0.219931 -1.39446 2.78037 8.09022
26 4 1.02374 4.27945 1.47895 3.21398
34 4 1.34579 5.44081 3.76057 7.0779
33 4 1.352 1.24335 6.43013 4.20919
318 2 0.160031 1.2278 0.676905 1.20504
36 4 1.39355 4.14947 5.90009 5.32306
57 1 -0.678558 1.46871 0.413417 6.20757
62 1 -0.673463 2.86181 2.35038 4.09998
77 2 0.037876 0.945882 2.87878 4.11822
195 3 -0.790164 4.12235 4.32816 5.91065
79 2 0.0992559 -0.0469466 6.29931 8.09555
82 2 0.0670078 4.6818 2.12742 1.64774
316 2 0.186288 2.83034 1.11302 0.219806
103 2 0.178777 1.27663 1.5186 6.51292
315 1 -0.648239 1.6608 1.05344 0.183358
117 2 0.183532 2.29857 1.67556 4.82712
118 2 0.164883 2.3214 2.68344 3.11328
119 2 0.264423 3.47036 3.16108 4.66142
164 3 -0.808755 -1.15246 3.6772 2.40571
165 3 -0.821557 1.39028 3.84711 1.00699
166 3 -0.861654 -0.171493 6.1165 1.15502
167 3 -0.807283 -2.09641 6.27509 6.53691
182 3 -0.816698 5.69141 1.52858 4.03725
200 3 -0.865762 2.23405 6.78484 8.37398
189 3 -0.87146 0.88044 5.15913 3.29684
190 3 -0.880017 0.411191 6.65856 5.49781
191 3 -0.830697 4.65506 3.02911 8.24022
194 3 -0.860217 2.70901 6.38729 4.6358
105 2 0.163795 1.58079 0.29232 5.06877
185 3 -0.766802 5.17244 2.68321 0.135057
9 4 1.07985 2.70727 -0.191288 7.50229
272 2 0.17087 5.22569 5.16214 0.175079
183 3 -0.844761 6.969 0.319616 6.00248
296 3 -0.823754 -0.528591 1.22873 2.76686
295 2 -0.00205517 -0.18361 0.450321 0.220452
8 4 1.36858 0.920004 2.2683 16.657
11 4 1.30482 3.03089 0.0144596 13.3817
13 4 1.29145 0.899546 1.66605 11.7761