ITEM: TIMESTEP
0
ITEM: NUMBER OF ATOMS
350
ITEM: BOX BOUNDS xy xz yz pp pp pp
-6.7108999999999996e+00 1.5238200000000001e+01 -6.2626999999999997e+00
-6.4200000000000002e-01 1.4502800000000001e+01 -4.4819999999999999e-01
0.0000000000000000e+00 1.7008500000000002e+01 -6.4200000000000002e-01
ITEM: ATOMS id type q x y z
7 4 1.29114 -0.701209 2.37227 3.64558
316 2 0.180989 2.88387 1.1787 0.144158
14 4 1.4133 0.305334 4.73306 2.05585
321 2 0.186928 -0.240161 2.5963 8.15454
26 4 1.01034 4.29097 1.4889 3.15709
34 4 1.29684 5.35363 3.73202 6.90356
33 4 1.22316 1.27197 6.48091 4.10461
318 2 0.166853 1.30454 0.676875 1.19259
36 4 1.42316 4.25624 5.91637 5.1496
57 1 -0.675051 1.19842 0.154652 6.12886
62 1 -0.67735 2.95046 2.54219 3.91514
77 2 0.0216791 0.952532 2.65918 4.04314
195 3 -0.811178 3.98244 4.47152 5.81392
79 2 0.0925748 -0.23102 6.29518 8.38425
82 2 0.088571 4.57954 2.16567 1.53554
180 3 -0.830827 3.66298 0.00735983 2.89998
103 2 0.191761 0.747939 1.15702 6.34395
315 1 -0.672568 1.67858 1.0541 0.192249
117 2 0.142739 2.39268 1.60948 4.40624
118 2 0.202524 2.32491 3.09013 3.10451
119 2 0.292414 3.41617 3.33513 4.70554
164 3 -0.818639 -1.15717 3.52882 2.68469
165 3 -0.853964 1.19995 3.71149 1.14926
166 3 -0.863028 -0.14616 6.05761 1.17441
167 3 -0.831827 -2.22736 6.37787 6.56712
182 3 -0.807872 5.66046 1.55625 4.09934
200 3 -0.845004 2.49937 6.79786 8.33454
189 3 -0.870323 0.907699 5.15407 3.42631
190 3 -0.776802 0.429419 6.93811 5.69987
191 3 -0.832493 4.86808 2.69845 8.02893
194 3 -0.804837 2.84033 6.45909 4.29996
105 2 0.12432 1.82567 0.156431 5.14787
185 3 -0.782125 5.21722 2.80056 0.202145
9 4 1.02411 2.58836 -0.212003 7.30588
8 4 1.30541 0.919716 2.26857 16.772
11 4 1.34166 3.02187 -0.0344182 13.5021
13 4 1.30368 0.905707 1.57823 11.8625
18 4 1.20673 -0.773989 3.87567 13.0153
19 4 1.17258 -1.33407 6.24693 10.834
28 4 1.35657 4.09358 1.90439 9.15888
31 4 1.24798 3.8322 2.32744 15.3943
35 4 1.24131 1.88611 5.98783 9.55742
322 2 0.175616 -0.333401 3.18048 9.97704
63 1 -0.667375 3.27209 3.29283 10.3852
64 1 -0.670635 4.55887 3.68592 14.3798
67 1 -0.669992 1.58627 5.76527 13.9051
83 2 0.0500045 1.77788 2.07078 10.4665
198 3 -0.821653 2.77543 6.38203 10.8194
85 2 0.0314212 0.0176616 4.61478 14.3434
317 2 0.179817 0.8548 -0.161476 16.2837
336 2 -0.0410638 -2.25431 6.32553 16.3156
120 2 0.172267 3.9385 2.97687 11.2788
121 2 0.175163 2.32705 3.76911 10.8309
122 2 0.132803 3.8569 4.15186 9.66368
123 2 0.188572 4.47979 3.2437 13.3078
125 2 0.175975 3.8292 4.56637 14.553
324 2 0.170376 0.478607 0.183376 14.552
132 2 0.195054 1.72131 4.8137 14.5322
133 2 0.224735 2.45606 6.00807 13.1936
134 2 0.191928 0.587226 6.008 13.4301
161 3 -0.838125 -0.364889 2.17082 15.7637
162 3 -0.828771 -0.309125 0.814841 11.2229
163 3 -0.864886 1.93335 0.767586 12.6772
59 1 -0.673377 -2.67636 5.48526 9.82091
169 3 -0.842577 0.504588 2.95749 12.5198
170 3 -0.799007 -1.10466 5.16089 11.9804
84 2 0.00887079 2.12582 4.36629 9.17996
184 3 -0.787369 3.81885 1.14178 14.2754
110 2 0.175559 -2.13915 5.09933 8.85295
186 3 -0.800833 2.37368 2.60128 15.8877
187 3 -0.785854 5.1297 1.34729 10.258
319 1 -0.666466 -0.896875 2.68653 9.11892
193 3 -0.80222 0.328564 6.01703 9.77332
272 2 0.158635 4.8378 4.6567 16.8067
181 3 -0.773804 2.8451 1.07511 8.52415
1 4 1.0575 -3.57321 13.3502 2.33866
2 1 -0.673409 -4.6138 12.1533 3.5784
3 2 0.138938 -3.43017 11.5415 3.54138
5 2 0.169653 -5.06338 12.3373 4.61306
6 3 -0.834206 -3.53281 13.0097 0.855552
111 2 0.151105 -3.04358 8.15157 1.07571
20 4 1.28521 -1.64258 10.0243 1.40164
22 4 1.09954 -1.98222 9.73254 7.79824
138 2 0.224057 0.0977197 14.295 3.47312
39 4 1.12732 -0.502664 11.7145 4.09082
40 4 1.0563 2.96512 7.71994 7.10642
42 4 0.969186 1.88316 11.175 5.75991
60 1 -0.654533 -3.34131 9.16388 1.46634
61 1 -0.713832 -3.46503 10.2028 6.57444
69 1 -0.651743 0.434294 13.2995 3.02713
70 1 -0.693049 -1.75088 12.5965 5.18319
87 2 0.0316228 0.976816 7.79369 3.0209
88 2 0.0541706 1.63144 8.02777 6.11939
100 2 -0.0246573 1.89589 10.1554 7.14611
287 2 0.163443 2.68598 8.73378 4.32692
112 2 0.1705 -3.88349 9.74181 0.592723
104 2 0.261708 -5.87185 13.8371 6.15642
115 2 0.16665 -2.74184 10.281 5.64826
116 2 0.200127 -3.72165 11.2903 6.95482
78 2 0.0237092 -2.12305 13.959 6.5828
139 2 0.224737 0.0853998 13.141 1.98128
140 2 0.186767 1.5258 13.0362 3.23963
141 2 0.210692 -1.29661 12.2568 6.21294
142 2 0.166383 -2.86436 12.5498 5.1891
143 2 0.18858 -1.42707 13.7003 4.83513
171 3 -0.773423 -0.547583 8.65793 1.04104
172 3 -0.815003 -1.8588 11.0457 0.158645
173 3 -0.857622 -1.11002 8.58305 7.26392
174 3 -0.835011 -4.12796 12.9599 8.00017
337 2 -0.00536424 -3.38769 8.50764 5.50132
199 3 -0.786858 -1.20919 10.718 2.8058
202 3 -0.860453 -1.19848 10.9588 8.32925
203 3 -0.85964 0.237806 13.1781 7.98279
205 3 -0.843741 0.523048 11.0562 5.03363
334 2 0.0310043 -5.23719 13.7625 2.68833
278 1 -0.676519 2.39489 9.11397 3.31342
285 2 0.181108 2.51114 8.23303 2.50929
286 2 0.213052 1.41094 9.57308 3.27502
290 3 -0.774273 2.24234 11.1698 1.42765
17 4 1.18014 -0.868854 7.0667 6.92049
16 4 1.26187 -0.373865 7.31379 0.240859
114 2 0.155322 -4.35143 9.60808 6.47576
80 2 -0.00856698 -3.18482 9.13085 8.93266
23 4 0.98345 -4.71103 12.4624 9.38072
24 4 1.05694 -2.78213 9.17647 11.7363
25 4 1.51235 -2.40807 12.4569 11.3917
197 3 -0.815927 0.34687 6.94048 16.1822
37 4 1.37428 1.61299 7.23891 15.2456
41 4 1.57131 -0.373807 12.1327 9.04687
43 4 1.45893 2.58587 9.4602 13.3171
44 4 1.42237 -0.283366 12.5445 15.3454
45 4 1.29189 1.87201 11.3352 11.0639
72 1 -0.641962 -3.37708 8.93582 13.5065
73 1 -0.64698 -0.516968 10.7811 14.5583
213 3 -0.790739 1.53884 10.0753 12.0163
339 2 0.0491101 -4.17299 13.6424 14.7262
21 4 1.45306 -3.04998 11.7707 16.5778
147 2 0.182206 -2.62084 8.12559 13.8262
38 4 1.07686 3.76273 7.55067 11.1755
149 2 0.225 -3.21966 10.0229 13.9689
150 2 0.224634 -0.405444 10.075 15.4476
151 2 0.250378 0.294178 10.5562 13.7166
152 2 0.220785 -1.57895 10.7667 14.1309
175 3 -0.771199 -1.87346 7.88263 11.4215
176 3 -0.810169 -4.13421 11.4921 15.4223
177 3 -0.856582 -3.81169 12.5342 10.6913
178 3 -0.779446 -2.28442 10.6313 11.7599
179 3 -0.820013 -2.36961 13.346 12.7688
196 3 -0.829627 2.98301 6.96778 16.0762
81 2 0.0264997 -4.12351 9.16288 10.4561
323 1 -0.688648 -6.10572 13.6098 14.5108
204 3 -0.786037 -1.25642 12.889 10.2652
207 3 -0.816637 1.65493 8.66453 14.4468
209 3 -0.856788 0.564482 12.557 16.6921
210 3 -0.814776 0.457717 13.3233 14.1623
211 3 -0.788244 -1.79575 12.7707 15.8665
212 3 -0.82197 0.977853 11.4085 9.73695
208 3 -0.825651 3.4059 8.35569 12.476
146 2 0.14902 2.74175 9.36802 8.79587
344 2 0.174054 -6.26979 13.3213 13.3975
15 4 1.22101 11.6418 6.82847 5.78627
46 4 1.36987 9.77563 2.28568 3.75516
49 4 1.51839 12.2125 1.85678 5.63536
50 4 1.26352 11.1463 5.02589 3.2093
51 4 1.29377 7.16958 6.07323 4.30371
52 4 0.953426 9.74389 6.48408 0.969547
53 4 1.32368 10.5908 3.32502 7.76548
54 4 1.27625 8.94597 5.76416 6.82915
66 1 -0.67593 5.92162 5.04325 8.12918
91 2 0.0588254 9.73545 1.47059 2.20306
94 2 0.107538 12.665 4.31741 2.83685
95 2 -0.00423384 8.09856 4.98214 3.38091
29 4 1.53702 7.05527 1.72028 5.17129
280 2 0.0218891 5.30401 6.95125 0.809862
268 1 -0.675352 6.43081 5.44929 0.174585
129 2 0.200576 5.99302 6.0188 7.54231
192 3 -0.775799 6.57245 3.10308 6.00091
215 3 -0.890943 8.42617 1.93491 4.35678
219 3 -0.828647 13.637 2.26967 4.94447
220 3 -0.849611 10.9696 1.5503 4.43831
221 3 -0.788982 12.6154 0.436273 6.44468
222 3 -0.881265 10.1801 3.73737 3.3837
223 3 -0.85545 11.3882 5.98751 4.43275
224 3 -0.822508 5.59863 5.67252 4.21062
225 3 -0.858863 10.8192 5.61569 1.73183
98 2 -0.0141149 8.26353 6.36169 8.33944
227 3 -0.827609 11.7995 2.91458 6.81583
228 3 -0.838117 10.2054 6.71199 6.61124
229 3 -0.84462 7.80136 5.97273 5.75081
230 3 -0.837197 9.48067 4.27097 7.17301
271 2 0.13437 6.45464 5.76913 1.2122
294 4 1.03111 13.8733 0.293057 1.47384
347 2 0.184823 8.242 0.364361 1.29543
296 3 -0.833175 14.5982 1.05065 2.66028
297 3 -0.797066 12.4316 0.805713 0.968351
130 2 0.18131 6.91462 4.6744 8.47622
340 2 0.0197294 12.7954 3.48835 1.0131
267 4 1.02515 6.55984 3.51115 0.567577
96 2 0.00145659 8.36166 5.51277 0.651316
269 2 -0.0222457 6.77802 3.486 2.24299
183 3 -0.850048 7.17986 0.512844 6.15825
217 3 -0.841536 8.82605 -0.245323 8.33592
298 4 1.2321 12.063 2.21482 0.143533
312 3 -0.839758 10.5162 2.40247 0.0848612
295 2 -0.0193275 15.0977 0.276012 0.191302
10 4 0.963767 13.8674 1.02374 9.85556
335 2 0.00162778 14.033 0.359119 13.7712
32 4 1.30311 6.62262 1.64282 10.9568
48 4 1.38016 9.0204 1.06925 9.13323
58 1 -0.67715 11.933 0.63582 10.6545
65 1 -0.66802 6.69539 3.40432 11.709
68 1 -0.674873 5.5995 6.76786 11.4349
93 2 0.0238211 10.0063 0.550841 10.4868
128 2 0.140006 5.57398 3.67275 11.4657
313 3 -0.828668 7.47837 2.45538 16.8987
107 2 0.14155 11.706 1.69002 10.0553
108 2 0.140585 11.5379 0.672848 11.7538
126 2 0.177474 7.42804 4.03248 11.1645
127 2 0.162434 6.95036 3.28204 12.8425
109 2 0.159541 12.1652 4.70894 10.5668
106 2 0.129064 11.5651 -0.287157 10.1277
131 2 0.165142 5.12376 5.11518 8.97008
135 2 0.183432 6.62714 6.63791 11.0138
188 3 -0.788613 7.33759 0.600208 12.2362
247 2 0.151608 8.89985 6.55625 14.6011
270 2 0.171086 6.79258 5.37032 16.4494
218 3 -0.827783 7.77542 1.71933 9.78858
243 1 -0.664552 8.61197 6.52064 10.2919
245 2 0.0493174 6.57858 6.13082 14.2403
248 2 0.132818 8.33044 5.40008 15.8704
256 2 0.147198 7.68488 5.90983 10.0306
257 2 0.168119 8.86 6.51229 11.4029
258 2 0.126558 9.56808 6.24333 9.75039
124 2 0.160723 5.64096 3.91635 14.7273
299 4 1.23131 8.80154 1.94267 16.1357
300 4 0.830064 9.43081 3.98561 13.718
301 1 -0.674021 9.92905 3.28097 12.0305
302 1 -0.663732 11.0518 4.91952 14.2434
303 2 0.0149073 8.48938 0.435273 15.4529
304 2 0.000380477 8.21266 5.23604 13.6074
305 2 0.172845 11.0564 3.16014 12.2774
306 2 0.16143 9.69361 3.84653 11.1196
307 2 0.171215 9.30144 2.27043 12.2847
308 2 0.13737 10.958 5.78019 13.5055
309 2 0.256669 11.904 4.22967 13.9593
310 2 0.157152 11.1049 5.26189 15.2695
311 3 -0.810162 12.3646 1.43345 15.6967
99 2 -0.00789154 9.6594 6.28994 16.3908
342 2 0.132537 11.9116 6.52744 9.62207
314 3 -0.786864 9.15823 2.94828 14.9187
240 1 -0.65456 8.04711 6.31052 15.2405
329 2 0.173366 9.78927 0.752881 13.9923
328 1 -0.698543 9.47917 -0.357826 13.9531
97 2 -0.00548831 11.2411 4.23769 9.06389
12 4 1.17306 13.6393 1.73518 14.7146
216 3 -0.778948 14.25 -0.305771 8.55346
136 2 0.159808 5.11838 5.71289 11.6313
320 2 0.161108 13.2535 3.0566 8.88566
168 3 -0.848721 13.306 3.03246 13.6988
226 3 -0.880621 9.99444 2.08237 8.51953
279 1 -0.703936 2.74515 14.1946 1.67918
47 4 1.16874 7.00575 13.7353 7.35202
55 4 1.07044 8.52059 8.4527 2.88918
332 2 0.136415 7.85169 12.4948 1.3934
74 1 -0.647638 7.75089 10.2355 2.44945
75 1 -0.674885 9.98018 8.99345 4.05021
327 2 0.182192 9.65703 11.1901 0.153453
71 1 -0.664559 3.58331 9.33412 7.9756
288 2 0.165133 2.62943 13.8342 2.71264
144 2 0.122151 3.64229 10.3399 7.43637
153 2 0.191713 6.74506 10.5536 3.00952
154 2 0.171131 7.51531 9.94824 1.38448
155 2 0.137073 8.57566 11.0894 2.52876
4 2 0.137418 9.87339 11.6548 2.87575
157 2 0.16774 9.62341 8.74476 5.09389
158 2 0.169106 10.1005 10.1635 3.95072
92 2 -0.00504045 5.68188 12.9626 8.2819
231 3 -0.811308 7.39339 7.49876 3.70938
232 3 -0.834709 9.18664 7.79209 1.52617
331 2 0.155679 7.30453 12.82 3.24274
293 3 -0.816799 7.78893 12.5908 6.39743
274 4 1.36064 3.34864 10.3425 2.01765
275 4 1.25941 2.34384 12.7642 0.365098
276 4 0.972742 4.83903 12.3234 3.92945
277 4 0.940469 7.10183 11.4147 5.6384
333 2 0.175922 6.04977 12.7725 1.80427
206 3 -0.822007 2.23731 12.672 5.92264
281 2 0.0284965 5.67098 13.7062 3.24378
282 2 0.0751947 3.62708 13.0946 4.86148
283 2 -0.00315163 8.06889 10.7614 4.34263
284 2 -0.0225099 6.95623 9.99261 6.53003
252 2 0.14634 10.6687 9.36313 7.99154
289 3 -0.842919 4.11173 9.21849 1.00892
330 1 -0.661733 7.12071 13.0563 2.11644
291 3 -0.85129 4.25168 11.3588 2.84709
292 3 -0.854528 5.70894 11.6614 5.04284
156 2 0.161107 10.9147 8.36842 3.79972
346 2 0.196758 3.77427 14.3618 1.23921
254 2 0.147068 6.85597 8.35349 8.1117
27 4 1.49072 1.41321 13.7957 7.12877
201 3 -0.782592 4.28613 7.24448 6.36045
113 2 0.192967 11.193 9.09983 2.43059
89 2 0.00506591 3.0247 10.3316 4.75866
145 2 0.171912 4.76456 9.10373 8.43022
250 2 0.0204686 8.61934 9.76322 8.62973
56 4 1.1199 4.1917 11.0965 15.4237
76 1 -0.688762 5.74873 12.0662 15.0814
341 2 0.00668486 6.64736 14.02 11.9096
90 2 0.00215541 3.45041 10.982 10.4324
101 2 0.0184429 5.64921 10.4777 16.206
349 2 0.19791 3.20686 13.7105 14.9985
345 2 0.104419 8.15859 12.0795 16.8279
159 2 0.18646 5.47208 13.1446 15.2984
160 2 0.191839 5.8753 11.7566 13.9285
86 2 2.82926e-05 3.81898 8.67767 9.8264
233 3 -0.84301 3.59633 10.5452 14.0825
234 3 -0.8428 3.23107 11.9168 16.3908
273 4 1.30885 4.14433 7.55534 16.9032
236 4 0.977205 6.64321 7.86959 15.0285
237 4 0.857771 8.43206 8.52808 9.97802
238 4 1.44719 7.82795 9.9225 12.7345
239 4 0.703008 6.27127 12.3901 11.2943
148 2 0.170537 10.7614 8.68034 13.286
241 1 -0.630016 10.1635 8.84088 8.93297
242 1 -0.662984 6.62262 8.78433 9.17258
244 1 -0.659825 5.08052 11.8961 9.79988
246 2 0.0122347 6.88757 12.449 9.6236
251 2 0.154208 10.0465 7.717 8.73649
249 2 0.0447481 8.04114 7.8998 16.1913
343 2 0.110337 8.20004 13.3526 15.2883
137 2 0.199439 5.70307 7.36385 12.4608
253 2 0.165581 6.14179 7.98099 9.98221
235 4 1.10523 9.48358 11.5287 14.8446
255 2 0.148142 6.26685 9.8708 9.27324
259 2 0.177363 4.36462 12.3372 9.15823
260 2 0.0324457 4.39646 12.4762 11.3494
261 2 0.152349 5.27752 10.7777 9.64201
262 3 -0.856591 5.30297 7.89109 15.9329
263 3 -0.784571 6.9576 8.89545 13.7217
264 3 -0.782798 8.43192 9.01491 11.5236
265 3 -0.821431 8.97519 10.6863 13.6336
266 3 -0.793286 6.93894 11.1737 12.0986
102 2 0.0703078 8.99218 13.2168 9.59343
325 1 -0.672984 8.50043 10.988 16.4474
326 2 0.156169 7.64256 10.3401 16.3339
350 2 0.149707 6.82834 11.7914 15.5852
214 3 -0.851746 1.95066 12.6513 11.9523
30 4 1.38575 1.54835 13.7913 13.0105
348 2 0.154401 3.92395 13.55 13.3152
338 2 -0.0156374 10.1232 10.8071 9.20189
ITEM: TIMESTEP
100
ITEM: NUMBER OF ATOMS
350
ITEM: BOX BOUNDS xy xz yz pp pp pp
-6.7157342666666660e+00 1.5238200000000001e+01 -6.2626999999999997e+00
-6.4200000000000002e-01 1.4502800000000001e+01 -4.5303426666666624e-01
0.0000000000000000e+00 1.7008500000000002e+01 -6.4200000000000002e-01
ITEM: ATOMS id type q x y z
7 4 1.24974 -0.614616 2.51748 3.62199
295 2 -0.0182371 -0.0750769 0.445636 0.381492
14 4 1.40541 0.346051 4.81797 1.98365
321 2 0.196803 -0.798153 2.70277 7.93945
26 4 1.01904 4.27405 1.41286 3.12426
34 4 1.31625 5.31368 3.73285 6.99664
33 4 1.263 1.39065 6.41894 4.14361
318 2 0.156073 1.45353 0.713516 1.03979
36 4 1.48046 4.18425 5.94385 5.20118
57 1 -0.687381 1.3225 0.208779 6.15158
62 1 -0.683686 3.03897 2.52426 3.9656
77 2 0.0275713 1.04851 2.87067 3.99747
195 3 -0.837454 4.04764 4.50764 5.88648
79 2 0.0894521 0.0183251 6.72736 8.28708
82 2 0.0560037 4.69537 2.00051 1.53137
180 3 -0.830149 3.67822 -0.0962623 3.02178
103 2 0.187665 0.845886 1.13296 6.60817
315 1 -0.684802 1.76938 1.07918 0.0633505
117 2 0.147801 2.3506 1.76524 4.52042
118 2 0.17457 2.58788 2.97795 3.04994
119 2 0.279534 3.33428 3.31582 4.6944
164 3 -0.802825 -1.15102 3.62481 2.4814
165 3 -0.822297 1.31415 3.81521 1.0591
166 3 -0.862403 -0.0801058 6.14607 1.15099
167 3 -0.819314 -2.18802 6.38239 6.66546
182 3 -0.820036 5.5552 1.59253 4.10403
200 3 -0.879236 2.41895 6.82182 8.39385
189 3 -0.87552 0.935557 5.10897 3.4054
190 3 -0.790487 0.32062 6.86363 5.51036
191 3 -0.825736 4.65797 2.73319 8.0903
194 3 -0.871495 2.90915 6.4562 4.34174
105 2 0.155737 1.72158 0.3648 5.10917
185 3 -0.771588 5.23837 2.74843 0.139121
9 4 1.07161 2.6982 -0.140804 7.37731
296 3 -0.814761 -0.569401 1.0373 2.90086
272 2 0.157365 5.30943 5.15383 0.0734035
316 2 0.181595 2.92328 1.07287 0.0195001
8 4 1.33286 0.901517 2.29085 16.6342
11 4 1.32624 2.99421 0.0082214 13.5145
13 4 1.2439 0.871652 1.60765 11.7315
18 4 1.21715 -0.597455 3.91666 13.1186
19 4 1.209 -1.34597 6.27747 10.945
28 4 1.34627 4.10271 1.82963 9.27399
31 4 1.20844 3.7887 2.16396 15.4544
35 4 1.1752 1.93948 5.83178 9.56872
322 2 0.151494 -0.298544 3.18131 9.71104
63 1 -0.681019 3.22154 3.16809 10.5719
64 1 -0.665657 4.44896 3.76597 14.7303
67 1 -0.656691 1.9626 5.86678 13.8358
83 2 0.0279529 1.63764 2.16597 10.2298
198 3 -0.819617 2.87193 6.1428 10.7877
85 2 0.0157108 0.376159 4.73069 14.3147
317 2 0.163731 0.850266 -0.145454 16.1191
336 2 -0.033084 -2.29416 6.31923 16.3806
120 2 0.163345 3.84215 2.60929 11.502
121 2 0.186249 2.34475 3.73989 11.0327
122 2 0.150704 3.8799 4.00042 10.0485
123 2 0.177532 4.39328 3.64115 13.6497
125 2 0.207227 3.77147 4.60886 15.1645
324 2 0.169207 0.498365 0.0870925 14.4467
132 2 0.204292 2.122 4.86528 14.2882
133 2 0.234794 2.80266 6.22301 13.1059
134 2 0.163437 0.903066 6.01366 13.3746
161 3 -0.889478 -0.365155 2.14875 15.7514
162 3 -0.819521 -0.408254 0.71936 11.2672
163 3 -0.84026 1.93894 0.834243 12.7228
59 1 -0.663409 -2.74888 5.67093 9.8518
169 3 -0.847427 0.459091 2.9567 12.4321
170 3 -0.792544 -1.1581 5.07468 12.0603
84 2 -0.00507136 2.17931 4.16324 9.2351
184 3 -0.778203 4.06195 0.945734 14.4135
110 2 0.19555 -2.3066 5.42454 8.85062
186 3 -0.794582 2.2075 2.74026 15.7638
187 3 -0.760189 5.19384 1.12086 10.1306
319 1 -0.674332 -1.05125 2.63491 9.0459
193 3 -0.762957 0.273517 6.16535 9.78609
181 3 -0.797393 2.86874 0.958227 8.53973
128 2 0.153685 5.38132 3.58326 11.3346
168 3 -0.814441 -1.88657 3.06805 13.7733
1 4 0.992432 -3.55335 13.3403 2.33652
2 1 -0.669776 -4.68718 12.1011 3.66578
3 2 0.139362 -3.52961 11.6392 3.29822
5 2 0.178422 -4.90737 12.0592 4.73867
6 3 -0.833868 -3.46108 13.0488 0.730334
111 2 0.166566 -3.37241 8.26625 0.919693
20 4 1.25443 -1.82531 9.98213 1.38516
22 4 1.03588 -1.97387 9.71524 7.76053
138 2 0.201799 0.0748878 14.2245 3.41965
39 4 1.16918 -0.649948 11.6994 3.9788
40 4 1.10717 2.96572 7.69223 7.29797
42 4 0.944748 1.96273 11.1683 5.68751
60 1 -0.661869 -3.53559 9.33727 1.39731
61 1 -0.698382 -3.41848 10.1948 6.54829
69 1 -0.677086 0.255878 13.108 3.06271
70 1 -0.672379 -1.87408 12.5664 5.2107
87 2 0.0318614 1.31581 7.70838 2.98127
88 2 -0.0020702 1.73848 8.22479 6.29999
100 2 -0.0292044 2.04506 10.1219 7.00948
287 2 0.161266 2.55925 8.79164 4.47495
112 2 0.16704 -4.05054 10.0757 0.711009
104 2 0.246735 -5.65785 13.8371 6.17447
115 2 0.186004 -2.74576 10.3128 5.59639
116 2 0.206152 -3.73241 11.1938 6.99352
78 2 0.0383744 -2.24503 14.2041 6.16689
139 2 0.220958 -0.174034 12.9481 2.07979
140 2 0.204772 1.32958 12.91 3.01668
141 2 0.219355 -1.65149 12.0952 6.2135
142 2 0.181016 -2.95884 12.4033 4.70826
143 2 0.200647 -1.36166 13.5808 4.97502
171 3 -0.790241 -0.822474 8.69798 1.09409
172 3 -0.808494 -1.82137 11.0862 0.1741
173 3 -0.850057 -1.04014 8.72171 6.94167
174 3 -0.821534 -3.92836 12.9298 8.06032
337 2 0.0114378 -3.21596 8.48159 5.56
199 3 -0.789301 -1.5083 10.831 3.06084
202 3 -0.823268 -1.27943 11.0367 8.43151
203 3 -0.832497 0.160263 13.1733 7.78382
205 3 -0.793581 0.654389 10.9838 4.7744
334 2 0.0393048 -5.19807 13.7361 2.86927
278 1 -0.651829 2.6769 9.12368 3.39523
285 2 0.185251 3.0241 8.14594 2.8115
286 2 0.185019 1.54793 9.51257 2.98584
290 3 -0.760246 2.04406 11.4336 1.41517
17 4 1.17638 -0.752045 7.20148 6.77376
16 4 1.26026 -0.391699 7.34602 0.221349
201 3 -0.787069 4.18378 7.21457 6.54362
114 2 0.14385 -4.33633 9.48929 6.302
252 2 0.148417 -4.43003 9.46147 8.10872
80 2 -0.0159387 -3.0027 8.9281 8.95447
23 4 0.996861 -4.71623 12.5034 9.37457
24 4 1.02823 -2.69314 9.27284 11.6783
25 4 1.49639 -2.44275 12.3851 11.3595
197 3 -0.824627 0.332735 6.87225 16.1276
37 4 1.36009 1.65177 7.17011 15.2884
41 4 1.53872 -0.330333 12.1734 9.11213
43 4 1.45866 2.61647 9.44087 13.2879
44 4 1.32911 -0.367625 12.4612 15.4568
45 4 1.27335 1.88794 11.2798 11.104
72 1 -0.636106 -3.42275 8.93968 13.3508
73 1 -0.658438 -0.243011 10.6934 14.8293
213 3 -0.795008 1.511 10.147 12.2931
339 2 0.0510289 -4.15548 13.5595 14.6419
21 4 1.47627 -3.05668 11.7791 16.4831
147 2 0.176772 -2.9295 7.94591 13.6879
38 4 1.05001 3.75015 7.50296 11.0121
149 2 0.256972 -3.35156 9.81721 14.0337
150 2 0.245809 0.510722 10.3004 15.6128
151 2 0.28943 0.058186 10.6536 13.7828
152 2 0.2056 -1.30166 10.2572 14.9813
175 3 -0.7852 -1.8999 7.6988 11.4071
176 3 -0.834483 -4.10646 11.2964 15.2725
177 3 -0.8545 -3.92134 12.4441 10.6855
178 3 -0.778288 -2.05179 10.6495 11.8291
179 3 -0.800727 -2.5629 13.45 12.5892
196 3 -0.803226 3.03039 6.7905 16.0948
81 2 0.0456936 -4.14794 9.479 10.4805
323 1 -0.672452 -6.08064 13.4744 14.4564
204 3 -0.775742 -1.13967 12.8461 10.3641
207 3 -0.778688 1.60111 8.59046 14.4929
209 3 -0.814342 0.626987 12.4667 16.7152
210 3 -0.761225 0.481472 13.2845 14.1609
211 3 -0.811522 -2.03692 12.8065 15.8959
212 3 -0.837561 1.00106 11.4096 9.76151
146 2 0.134201 2.88186 9.61183 8.80337
102 2 0.0664517 -6.15225 13.3976 9.58612
208 3 -0.832741 3.44085 8.35596 12.303
15 4 1.22614 11.7548 6.78927 5.78606
46 4 1.32631 9.8447 2.34062 3.83362
49 4 1.52453 12.2092 1.72323 5.66036
50 4 1.24692 11.1675 5.00239 3.25631
51 4 1.30629 7.10499 6.07446 4.23439
52 4 0.969663 9.69031 6.42803 1.09399
53 4 1.3349 10.5697 3.40255 7.65145
54 4 1.30113 9.03422 5.77522 6.67541
66 1 -0.686328 6.01488 5.14323 8.0703
91 2 0.0281175 9.6841 1.52633 2.31525
94 2 0.107826 12.7257 4.2796 3.01235
95 2 -0.0306698 7.44157 4.8148 3.17633
29 4 1.50935 6.90127 1.83594 5.20862
280 2 0.0123645 5.56876 6.95275 0.839297
268 1 -0.655559 6.52774 5.32101 0.366427
129 2 0.197391 6.32596 5.93708 7.29994
192 3 -0.809707 6.5089 2.95952 6.22471
215 3 -0.818855 8.4382 2.11368 4.37082
219 3 -0.800121 13.6806 2.37029 4.84815
220 3 -0.868791 10.9553 1.55847 4.58766
221 3 -0.833335 12.5672 0.371552 6.50092
222 3 -0.878609 10.0783 3.93278 3.5276
223 3 -0.855632 11.4843 6.02519 4.41677
224 3 -0.853374 5.51828 6.06246 4.33709
225 3 -0.840881 10.9228 5.81629 1.74459
98 2 -0.00757012 8.21572 6.32398 8.10371
227 3 -0.82069 11.702 2.84107 6.72666
228 3 -0.841384 10.314 6.76955 6.71868
229 3 -0.846369 7.91205 5.9413 5.60422
230 3 -0.820732 9.48103 4.289 6.90838
271 2 0.120098 6.67353 5.69452 1.42078
294 4 1.02679 13.9382 0.373164 1.63198
347 2 0.197273 8.65288 0.542573 1.13715
298 4 1.24486 11.9101 2.22351 0.0962157
297 3 -0.817764 12.6013 1.02669 1.00598
183 3 -0.80099 7.22918 0.510228 6.04178
340 2 -0.00332974 12.1942 3.73182 0.782314
267 4 0.998895 6.59464 3.3954 0.677927
96 2 -0.015374 8.42329 5.35225 0.987659
269 2 -0.0283257 6.77832 3.15711 2.39355
217 3 -0.830009 8.8138 -0.179001 8.11208
10 4 0.976976 13.8959 1.01891 9.90728
335 2 0.0155956 13.9903 0.330932 14.158
32 4 1.28898 6.73943 1.56924 10.9489
48 4 1.31917 9.11464 1.00353 9.11521
58 1 -0.686169 11.9221 0.829004 10.6946
65 1 -0.688336 6.37256 3.28004 11.774
68 1 -0.669713 5.46079 6.74097 11.4797
93 2 -0.00907604 9.95149 0.376482 10.4773
312 3 -0.831352 9.93003 1.55721 16.9014
313 3 -0.823921 7.44811 2.29144 16.8519
107 2 0.14711 11.7357 1.77411 10.0388
108 2 0.17304 11.6605 1.02215 11.7169
126 2 0.164195 7.16266 3.96826 11.4706
127 2 0.177569 6.28608 3.08105 12.9054
109 2 0.152427 12.1515 4.78639 10.5739
106 2 0.120031 11.5343 -0.0699018 10.1575
131 2 0.172598 5.2098 5.52293 8.77303
135 2 0.161748 6.55799 6.62543 10.9814
188 3 -0.844172 7.28616 0.600632 12.0874
226 3 -0.821163 9.91431 2.24491 8.50448
270 2 0.139378 6.84808 5.34917 16.4973
218 3 -0.781067 7.86737 1.78541 9.6771
243 1 -0.680325 8.3526 6.43302 10.0713
245 2 0.036745 6.60203 6.13252 14.123
248 2 0.149689 8.08973 5.28666 15.7179
256 2 0.158682 7.42345 6.02063 9.57107
257 2 0.152166 8.3702 6.33154 11.1868
258 2 0.129833 9.20779 5.98008 9.5159
124 2 0.172461 5.53335 3.80477 15.1333
299 4 1.22791 8.64819 1.90491 15.9429
300 4 0.838318 9.44829 4.03657 13.6472
301 1 -0.679435 9.68641 3.02582 12.0664
302 1 -0.667933 11.0263 5.15166 14.0826
303 2 0.0347386 8.30372 0.424113 15.1374
304 2 0.00108061 8.23438 5.3343 13.4734
305 2 0.171182 10.8049 3.00229 12.0133
306 2 0.159862 9.19369 3.61252 11.2316
307 2 0.19882 9.11849 2.06725 12.2703
308 2 0.146113 10.9583 6.1004 13.4981
309 2 0.242657 11.9846 4.63022 13.7905
310 2 0.149413 11.0066 5.38775 15.1775
311 3 -0.809582 12.1484 1.5143 15.6422
99 2 -0.0106456 9.51321 6.03999 16.449
342 2 0.152896 11.7457 6.60019 9.92762
314 3 -0.787805 9.09214 3.00592 14.8146
240 1 -0.646346 8.00346 6.25866 15.1781
329 2 0.17861 9.78149 0.773873 13.7915
328 1 -0.679753 9.39975 -0.313446 13.6759
97 2 -0.00483502 11.4883 4.34611 8.75667
12 4 1.20787 13.547 1.87285 14.8416
130 2 0.183585 6.87458 4.66145 8.60918
136 2 0.17135 4.96068 5.69606 11.7756
320 2 0.142006 13.1172 3.09334 9.28562
247 2 0.143234 8.9867 6.58146 14.5853
279 1 -0.708593 2.83001 14.2412 1.70904
47 4 1.20821 6.93056 13.6814 7.28686
55 4 1.13587 8.57324 8.46173 2.99202
332 2 0.113596 8.20984 12.6276 1.58372
74 1 -0.67054 7.64079 10.2356 2.54271
75 1 -0.688827 10.0631 8.95433 4.11924
327 2 0.165942 9.97639 11.2904 0.174519
71 1 -0.670652 3.66661 9.41922 7.93377
288 2 0.148441 2.38364 14.136 2.76191
144 2 0.139852 3.73292 10.1153 7.06622
153 2 0.211216 6.75346 10.3316 3.14851
154 2 0.177942 7.41676 10.025 1.4374
155 2 0.147887 8.43429 11.045 2.63588
4 2 0.134025 9.68908 11.6245 3.05501
157 2 0.161142 9.61134 8.64492 5.14399
158 2 0.170271 10.3009 10.0931 4.06354
92 2 -0.00322712 5.66939 12.8376 8.24429
231 3 -0.831092 7.60911 7.43766 3.64281
232 3 -0.819869 9.16339 7.76303 1.67396
331 2 0.183269 7.69392 13.1181 3.35043
293 3 -0.812071 7.77107 12.6575 6.31543
274 4 1.24613 3.44435 10.3099 2.01361
275 4 1.32515 2.41908 12.7133 0.540711
276 4 0.983729 4.84677 12.2816 3.99988
277 4 0.904801 7.1041 11.3451 5.67313
333 2 0.169559 6.25448 12.6389 2.09571
206 3 -0.819594 2.51077 12.5848 6.07677
281 2 0.00921749 5.73661 13.6194 3.35652
282 2 0.0819518 3.56076 13.1097 4.79183
283 2 -0.00478941 8.16856 10.8942 4.36013
284 2 -0.0407254 7.13876 10.0383 6.7392
346 2 0.167941 3.93167 14.0869 1.72354
289 3 -0.8321 4.12186 9.32165 0.879289
330 1 -0.659749 7.32124 13.1389 2.27608
291 3 -0.840728 4.37558 11.3035 2.87762
292 3 -0.837072 5.66104 11.5687 5.0953
156 2 0.182146 10.9428 8.28391 3.88929
89 2 0.0268533 3.1872 10.408 4.83168
254 2 0.160014 6.60416 8.46778 8.22769
27 4 1.48971 1.44486 13.7532 7.03601
250 2 0.0237896 8.70402 9.61879 8.38273
145 2 0.170515 4.78673 9.22348 8.39754
113 2 0.198561 11.147 9.21012 2.4427
344 2 0.187297 8.6399 13.1877 13.4747
56 4 1.10801 4.15038 11.2007 15.325
76 1 -0.677037 5.84964 12.0751 15.3056
341 2 0.00330911 6.3548 14.019 11.9594
90 2 -0.00528434 3.42533 10.8972 10.3968
101 2 0.0786701 5.56766 10.3155 15.9877
349 2 0.174797 3.11975 13.6825 14.7056
345 2 0.127303 8.14462 11.829 16.8874
159 2 0.168203 5.37672 13.0959 15.8283
160 2 0.167911 5.9251 12.3728 14.1946
86 2 -0.0139996 4.06797 8.66697 9.75999
233 3 -0.849598 3.56358 10.5183 14.0006
234 3 -0.834723 3.23103 11.7567 16.502
273 4 1.24647 4.27037 7.56706 16.9091
236 4 1.00609 6.56278 7.84765 14.9767
237 4 0.836446 8.46033 8.52638 9.91274
238 4 1.43021 7.81786 10.0336 12.7742
239 4 0.683128 6.08217 12.4054 11.3029
148 2 0.165524 10.6812 8.78904 12.8586
241 1 -0.606557 10.2742 9.01552 9.04858
242 1 -0.658251 6.61203 8.84339 9.23882
244 1 -0.644282 4.98971 11.8772 9.75463
246 2 0.0214413 6.75123 12.345 9.586
251 2 0.130591 10.25 7.69477 8.89442
249 2 0.0505643 7.96133 7.78026 16.1544
343 2 0.110676 8.42016 13.2494 15.3901
137 2 0.195895 5.57766 7.41379 12.3698
253 2 0.150465 6.10537 8.00457 10.1052
235 4 1.14347 9.57518 11.3719 14.8793
255 2 0.155005 6.25035 9.93021 9.36468
259 2 0.16146 4.34482 12.2543 8.80004
260 2 0.0367074 4.18964 12.3894 11.2701
261 2 0.151795 5.07545 10.7373 9.70857
262 3 -0.875478 5.38264 8.058 15.9432
263 3 -0.778074 7.02663 8.99109 13.8683
264 3 -0.753538 8.47258 9.26641 11.3876
265 3 -0.818142 9.04521 10.5844 13.6497
266 3 -0.77227 6.79474 11.2031 12.2134
338 2 -0.00905284 9.84221 10.9507 9.01429
325 1 -0.689296 8.61449 10.9024 16.5057
326 2 0.16886 7.90211 10.0491 16.3835
350 2 0.166848 6.92406 11.7366 15.7384
214 3 -0.859761 1.92847 12.6427 11.8519
30 4 1.39552 1.44742 13.7623 12.8591
348 2 0.144629 3.80324 13.6537 12.8754
216 3 -0.777424 7.86494 14.179 8.53661
ITEM: TIMESTEP
200
ITEM: NUMBER OF ATOMS
350
ITEM: BOX BOUNDS xy xz yz pp pp pp
-6.7205685333333323e+00 1.5238200000000001e+01 -6.2626999999999997e+00
-6.4200000000000002e-01 1.4502800000000001e+01 -4.5786853333333255e-01
0.0000000000000000e+00 1.7008500000000002e+01 -6.4200000000000002e-01
ITEM: ATOMS id type q x y z
7 4 1.27015 -0.718087 2.61573 3.58752
180 3 -0.822951 3.62745 0.036624 2.9399
14 4 1.4538 0.35597 4.79154 1.88549
321 2 0.220482 -1.39329 2.77846 8.08695
26 4 1.02276 4.27943 1.47995 3.21427
34 4 1.34552 5.4411 3.76078 7.07804
33 4 1.35207 1.2425 6.43003 4.20943
318 2 0.15975 1.23096 0.67822 1.20525
36 4 1.39376 4.1493 5.90015 5.32314
57 1 -0.673671 1.45705 0.396063 6.21467
62 1 -0.673197 2.86187 2.36411 4.09086
77 2 0.0381307 0.945324 2.87864 4.10565
195 3 -0.789952 4.12256 4.32906 5.9105
79 2 0.0995538 -0.0465752 6.30009 8.09667
82 2 0.0663407 4.68623 2.1294 1.65366
316 2 0.186583 2.83019 1.11274 0.217268
103 2 0.176778 1.29305 1.51583 6.45398
315 1 -0.648531 1.66199 1.05287 0.182755
117 2 0.178626 2.29587 1.6653 4.8042
118 2 0.166216 2.3252 2.69913 3.1059
119 2 0.264707 3.47736 3.17174 4.6483
164 3 -0.808556 -1.15456 3.67726 2.40626
165 3 -0.821844 1.38983 3.84764 1.00881
166 3 -0.861632 -0.171591 6.11664 1.15512
167 3 -0.80665 -2.09944 6.27556 6.53619
182 3 -0.816725 5.69038 1.52915 4.03987
200 3 -0.866138 2.23439 6.7848 8.37472
189 3 -0.87125 0.880643 5.15842 3.29723
190 3 -0.880044 0.40856 6.65804 5.49648
191 3 -0.83057 4.65485 3.0297 8.24048
194 3 -0.86019 2.70823 6.38694 4.63648
105 2 0.159578 1.62726 0.292597 5.05729
185 3 -0.766613 5.17526 2.68348 0.135112
9 4 1.08067 2.71008 -0.193266 7.50433
272 2 0.171446 5.23868 5.16816 0.158411
183 3 -0.844613 6.97029 0.319527 6.00231
296 3 -0.822878 -0.532005 1.23055 2.76811
295 2 -0.00222022 -0.182811 0.4498 0.217166
8 4 1.36875 0.914851 2.26859 16.658
11 4 1.30501 3.02971 0.0143935 13.3804
13 4 1.29102 0.898766 1.66472 11.7751