LAMMPS (2 Aug 2023 - Update 2)
  using 8 OpenMP thread(s) per MPI task
Reading data file ...
  triclinic box = (0 0 0) to (14.6913 12.723 15.9631) with tilt (-7.3456 0 0)
WARNING: Triclinic box skew is large. LAMMPS will run inefficiently. (src/domain.cpp:220)
  2 by 2 by 2 MPI processor grid
  reading atoms ...
  243 atoms
Finding 1-2 1-3 1-4 neighbors ...
  special bond factors lj:    0        0        0       
  special bond factors coul:  0        0        0       
     0 = max # of 1-2 neighbors
     0 = max # of 1-3 neighbors
     0 = max # of 1-4 neighbors
     1 = max # of special neighbors
  special bonds CPU = 0.001 seconds
  read_data CPU = 0.009 seconds
*****Minimization starts.*****
Setting up cg style minimization ...
  Unit style    : real
  Current step  : 0
WARNING: No pairwise cutoff or binsize set. Atom sorting therefore disabled. (src/atom.cpp:2366)
WARNING: Communication cutoff is 0.0. No ghost atoms will be generated. Atoms may get lost. (src/comm_brick.cpp:210)
Per MPI rank memory allocation (min/avg/max) = 9.864 | 9.864 | 9.864 Mbytes
   Step          Temp          E_pair         E_mol          TotEng         Press     
         0   300            0              0              216.40681      3315.4065    
         1   300            0              0              216.40681      3315.4065    
Loop time of 4.88273e-05 on 64 procs for 1 steps with 243 atoms

65.8% CPU use with 8 MPI tasks x 8 OpenMP threads

Minimization stats:
  Stopping criterion = search direction is not downhill
  Energy initial, next-to-last, final = 
                     0                  0                  0
  Force two-norm initial, final = 0 0
  Force max component initial, final = 0 0
  Final line search alpha, max atom move = 0 0
  Iterations, force evaluations = 1 0

MPI task timing breakdown:
Section |  min time  |  avg time  |  max time  |%varavg| %total
---------------------------------------------------------------
Pair    | 0          | 0          | 0          |   0.0 |  0.00
Bond    | 1.27e-07   | 1.6312e-07 | 1.85e-07   |   0.0 |  0.33
Neigh   | 0          | 0          | 0          |   0.0 |  0.00
Comm    | 3.662e-06  | 4.4433e-06 | 5.247e-06  |   0.0 |  9.10
Output  | 0          | 0          | 0          |   0.0 |  0.00
Modify  | 0          | 0          | 0          |   0.0 |  0.00
Other   |            | 4.422e-05  |            |       | 90.57

Nlocal:         30.375 ave          33 max          24 min
Histogram: 1 0 0 0 0 0 4 0 0 3
Nghost:           2.25 ave           5 max           0 min
Histogram: 2 0 1 0 2 0 0 0 2 1
Neighs:              0 ave           0 max           0 min
Histogram: 8 0 0 0 0 0 0 0 0 0

Total # of neighbors = 0
Ave neighs/atom = 0
Ave special neighs/atom = 0
Neighbor list builds = 0
Dangerous builds = 0
System init for write_data ...
WARNING: Communication cutoff is 0.0. No ghost atoms will be generated. Atoms may get lost. (src/comm_brick.cpp:210)
WARNING: Van der Waals parameters for element SI indicate inner wall+shielding, but earlier atoms indicate a different van der Waals method. This may cause division-by-zero errors. Keeping van der Waals setting for earlier atoms. (src/REAXFF/reaxff_ffield.cpp:251)
WARNING: Van der Waals parameters for element AL indicate inner wall+shielding, but earlier atoms indicate a different van der Waals method. This may cause division-by-zero errors. Keeping van der Waals setting for earlier atoms. (src/REAXFF/reaxff_ffield.cpp:251)
WARNING: Changed valency_val to valency_boc for X (src/REAXFF/reaxff_ffield.cpp:296)

CITE-CITE-CITE-CITE-CITE-CITE-CITE-CITE-CITE-CITE-CITE-CITE-CITE

Your simulation uses code contributions which should be cited:
- pair reaxff command: doi:10.1016/j.parco.2011.08.005
- fix qeq/reaxff command: doi:10.1016/j.parco.2011.08.005
The log file lists these citations in BibTeX format.

CITE-CITE-CITE-CITE-CITE-CITE-CITE-CITE-CITE-CITE-CITE-CITE-CITE

Neighbor list info ...
  update: every = 10 steps, delay = 0 steps, check = no
  max neighbors/atom: 2000, page size: 100000
  master list distance cutoff = 12
  ghost atom cutoff = 12
  binsize = 6, bins = 4 3 3
  2 neighbor lists, perpetual/occasional/extra = 2 0 0
  (1) pair reaxff, perpetual
      attributes: half, newton off, ghost
      pair build: half/bin/newtoff/ghost
      stencil: full/ghost/bin/3d
      bin: standard
  (2) fix qeq/reaxff, perpetual, copy from (1)
      attributes: half, newton off
      pair build: copy
      stencil: none
      bin: none
Setting up Verlet run ...
  Unit style    : real
  Current step  : 0
  Time step     : 0.5
Per MPI rank memory allocation (min/avg/max) = 114.4 | 114.5 | 114.6 Mbytes
   Step          Temp          PotEng         Press        f_avgp[1]        Volume    
         0   300           -36881.566      21554.577      0              2983.7813    
       100   303.62682     -36749.305      6481.4318      23193.989      2983.7813    
       200   295.21841     -36723.974      17037.76       5660.9642      2983.7813    
       300   308.02777     -36716.645      12631.902      14776.884      2983.7813    
       400   285.48531     -36706.371      10095.72       12045.826      2983.7813    
       500   315.91776     -36719.18       14769.729      15147.012      2983.7813    
       600   322.03679     -36742.338      14025.895      16161.904      2983.7813    
       700   286.58946     -36710.087      12191.063      11540.224      2983.7813    
       800   296.05183     -36735.022      12429.447      12636.583      2983.7813    
       900   295.21488     -36719.955      13499.134      14234.479      2983.7813    
      1000   301.0265      -36710.81       17396.669      13819.504      2983.7813    
Loop time of 27.3112 on 64 procs for 1000 steps with 243 atoms

Performance: 1.582 ns/day, 15.173 hours/ns, 36.615 timesteps/s, 8.897 katom-step/s
120.3% CPU use with 8 MPI tasks x 8 OpenMP threads

MPI task timing breakdown:
Section |  min time  |  avg time  |  max time  |%varavg| %total
---------------------------------------------------------------
Pair    | 16.904     | 17.482     | 18.534     |  12.7 | 64.01
Bond    | 0.00016618 | 0.0002044  | 0.0002441  |   0.0 |  0.00
Neigh   | 1.7472     | 1.7933     | 1.8365     |   1.9 |  6.57
Comm    | 3.0471     | 4.1389     | 4.7592     |  27.7 | 15.15
Output  | 0.00033266 | 0.00040828 | 0.00085969 |   0.0 |  0.00
Modify  | 3.6447     | 3.6704     | 3.7066     |   1.0 | 13.44
Other   |            | 0.226      |            |       |  0.83

Nlocal:         30.375 ave          35 max          26 min
Histogram: 2 0 0 1 0 2 1 1 0 1
Nghost:        2714.62 ave        2724 max        2704 min
Histogram: 2 0 0 0 1 0 3 0 1 1
Neighs:        17572.6 ave       20190 max       15110 min
Histogram: 2 0 0 1 0 2 1 1 0 1

Total # of neighbors = 140581
Ave neighs/atom = 578.52263
Ave special neighs/atom = 0
Neighbor list builds = 100
Dangerous builds not checked
System init for write_restart ...
  using 8 OpenMP thread(s) per MPI task
Reading restart file ...
  restart file = 2 Aug 2023, LAMMPS = 2 Aug 2023
  restoring atom style full from restart
  triclinic box = (0 0 0) to (14.6913 12.723 15.9631) with tilt (-7.3456 0 0)
WARNING: Triclinic box skew is large. LAMMPS will run inefficiently. (src/domain.cpp:220)
  2 by 2 by 2 MPI processor grid
  pair style reaxff stores no restart info
  243 atoms
Finding 1-2 1-3 1-4 neighbors ...
  special bond factors lj:    0        0        0       
  special bond factors coul:  0        0        0       
     0 = max # of 1-2 neighbors
     0 = max # of 1-3 neighbors
     0 = max # of 1-4 neighbors
     1 = max # of special neighbors
  special bonds CPU = 0.000 seconds
  read_restart CPU = 0.003 seconds
*****Negative-change 1 starts.*****
WARNING: Van der Waals parameters for element SI indicate inner wall+shielding, but earlier atoms indicate a different van der Waals method. This may cause division-by-zero errors. Keeping van der Waals setting for earlier atoms. (src/REAXFF/reaxff_ffield.cpp:251)
WARNING: Van der Waals parameters for element AL indicate inner wall+shielding, but earlier atoms indicate a different van der Waals method. This may cause division-by-zero errors. Keeping van der Waals setting for earlier atoms. (src/REAXFF/reaxff_ffield.cpp:251)
WARNING: Changed valency_val to valency_boc for X (src/REAXFF/reaxff_ffield.cpp:296)
Changing box ...
WARNING: Triclinic box skew is large. LAMMPS will run inefficiently. (src/domain.cpp:220)
  triclinic box = (0 0 0) to (14.397474 12.723 15.9631) with tilt (-7.3456 0 0)
WARNING: Triclinic box skew is large. LAMMPS will run inefficiently. (src/domain.cpp:220)
  triclinic box = (0 0 0) to (14.397474 12.723 15.9631) with tilt (-7.198688 0 0)
WARNING: Triclinic box skew is large. LAMMPS will run inefficiently. (src/domain.cpp:220)
  triclinic box = (0 0 0) to (14.397474 12.723 15.9631) with tilt (-7.198688 0 0)
Neighbor list info ...
  update: every = 10 steps, delay = 0 steps, check = no
  max neighbors/atom: 2000, page size: 100000
  master list distance cutoff = 12
  ghost atom cutoff = 12
  binsize = 6, bins = 4 3 3
  2 neighbor lists, perpetual/occasional/extra = 2 0 0
  (1) pair reaxff, perpetual
      attributes: half, newton off, ghost
      pair build: half/bin/newtoff/ghost
      stencil: full/ghost/bin/3d
      bin: standard
  (2) fix qeq/reaxff, perpetual, copy from (1)
      attributes: half, newton off
      pair build: copy
      stencil: none
      bin: none
Setting up Verlet run ...
  Unit style    : real
  Current step  : 0
  Time step     : 0.5
Per MPI rank memory allocation (min/avg/max) = 116.1 | 116.2 | 116.4 Mbytes
   Step          Temp          PotEng         Press        f_avgp[1]        Volume    
         0   301.0265      -36601.64       116612.45      0              2924.1057    
       100   344.5972      -36660.42       29281.061      41287.215      2924.1057    
       200   317.04348     -36702.53       25571.187      34044.812      2924.1057    
       300   308.78163     -36698.203      27338.811      34259.534      2924.1057    
       400   282.09763     -36711.888      23336.457      36298.451      2924.1057    
       500   263.87684     -36716.703      27106.213      32840.559      2924.1057    
       600   268.75576     -36709.513      13872.622      31864.411      2924.1057    
       700   287.65638     -36703.612      26509.294      26617.054      2924.1057    
       800   296.86914     -36713.449      31470.622      39743.399      2924.1057    
       900   282.64952     -36715.916      25311.687      37442.177      2924.1057    
      1000   291.05302     -36698.948      19799.789      34934.744      2924.1057    
      1100   293.85774     -36707.628      30344.398      42243.361      2924.1057    
      1200   287.29778     -36709.906      22493.744      32114.638      2924.1057    
      1300   310.65973     -36700.673      25790.973      30699.229      2924.1057    
      1400   299.86047     -36697.344      26311.182      30059.966      2924.1057    
      1500   295.52839     -36712.127      19947.308      29977.399      2924.1057    
      1600   301.32399     -36707.925      24083.967      35083.122      2924.1057    
      1700   286.91546     -36713.686      26956.149      39473.233      2924.1057    
      1800   327.10472     -36724.598      27237.069      31645.53       2924.1057    
      1900   322.85482     -36708.538      24313.511      32647.512      2924.1057    
      2000   305.66838     -36697.517      17505.647      30221.906      2924.1057    
Loop time of 57.1202 on 64 procs for 2000 steps with 243 atoms

Performance: 1.513 ns/day, 15.867 hours/ns, 35.014 timesteps/s, 8.508 katom-step/s
119.4% CPU use with 8 MPI tasks x 8 OpenMP threads

MPI task timing breakdown:
Section |  min time  |  avg time  |  max time  |%varavg| %total
---------------------------------------------------------------
Pair    | 34.056     | 35.782     | 38.379     |  25.3 | 62.64
Bond    | 0.00032059 | 0.00040544 | 0.00051937 |   0.0 |  0.00
Neigh   | 3.5479     | 3.6483     | 3.8062     |   4.9 |  6.39
Comm    | 6.6731     | 9.4002     | 11.143     |  50.8 | 16.46
Output  | 0.0029207  | 0.003825   | 0.0049555  |   1.3 |  0.01
Modify  | 7.6505     | 7.84       | 7.9661     |   4.0 | 13.73
Other   |            | 0.4459     |            |       |  0.78

Nlocal:         30.375 ave          33 max          28 min
Histogram: 2 0 1 0 1 0 1 0 2 1
Nghost:        2731.62 ave        2750 max        2716 min
Histogram: 2 0 2 0 0 0 2 0 0 2
Neighs:        17905.6 ave       19414 max       16531 min
Histogram: 2 0 1 0 1 0 1 1 1 1

Total # of neighbors = 143245
Ave neighs/atom = 589.4856
Ave special neighs/atom = 0
Neighbor list builds = 200
Dangerous builds not checked
*****Equilibration neg1 starts.*****
WARNING: Van der Waals parameters for element SI indicate inner wall+shielding, but earlier atoms indicate a different van der Waals method. This may cause division-by-zero errors. Keeping van der Waals setting for earlier atoms. (src/REAXFF/reaxff_ffield.cpp:251)
WARNING: Van der Waals parameters for element AL indicate inner wall+shielding, but earlier atoms indicate a different van der Waals method. This may cause division-by-zero errors. Keeping van der Waals setting for earlier atoms. (src/REAXFF/reaxff_ffield.cpp:251)
WARNING: Changed valency_val to valency_boc for X (src/REAXFF/reaxff_ffield.cpp:296)
WARNING: New thermo_style command, previous thermo_modify settings will be lost (src/output.cpp:903)
Neighbor list info ...
  update: every = 10 steps, delay = 0 steps, check = no
  max neighbors/atom: 2000, page size: 100000
  master list distance cutoff = 12
  ghost atom cutoff = 12
  binsize = 6, bins = 4 3 3
  2 neighbor lists, perpetual/occasional/extra = 2 0 0
  (1) pair reaxff, perpetual
      attributes: half, newton off, ghost
      pair build: half/bin/newtoff/ghost
      stencil: full/ghost/bin/3d
      bin: standard
  (2) fix qeq/reaxff, perpetual, copy from (1)
      attributes: half, newton off
      pair build: copy
      stencil: none
      bin: none
Setting up Verlet run ...
  Unit style    : real
  Current step  : 0
  Time step     : 0.5
Per MPI rank memory allocation (min/avg/max) = 116.1 | 116.2 | 116.3 Mbytes
   Step          Temp          PotEng         Press        f_avgp[1]        Volume    
         0   305.66838     -36697.517      17504.59       0              2924.1057    
       100   299.33473     -36701.716      25098.065      37637.226      2924.1057    
       200   314.27626     -36728.327      32593.376      32980.712      2924.1057    
       300   281.13259     -36680.196      17996.685      32690.914      2924.1057    
       400   313.90077     -36708.858      28347.401      37361.95       2924.1057    
       500   288.15888     -36703.235      23696.997      39893.47       2924.1057    
       600   270.52856     -36715.007      21458.115      35621.484      2924.1057    
       700   285.35284     -36720.731      32324.578      32117.996      2924.1057    
       800   268.19055     -36700.075      16019.076      31025.38       2924.1057    
       900   320.53773     -36723.032      30422.899      34015.148      2924.1057    
      1000   284.83535     -36694.615      29010.847      38945.529      2924.1057    
Loop time of 28.2257 on 64 procs for 1000 steps with 243 atoms

Performance: 1.531 ns/day, 15.681 hours/ns, 35.429 timesteps/s, 8.609 katom-step/s
120.0% CPU use with 8 MPI tasks x 8 OpenMP threads

MPI task timing breakdown:
Section |  min time  |  avg time  |  max time  |%varavg| %total
---------------------------------------------------------------
Pair    | 16.903     | 17.771     | 18.921     |  14.7 | 62.96
Bond    | 0.00015533 | 0.0002047  | 0.00026175 |   0.0 |  0.00
Neigh   | 1.7717     | 1.8316     | 1.945      |   3.8 |  6.49
Comm    | 3.3282     | 4.5307     | 5.4247     |  30.5 | 16.05
Output  | 0.00030368 | 0.00032324 | 0.00043641 |   0.0 |  0.00
Modify  | 3.7443     | 3.8685     | 3.9469     |   2.9 | 13.71
Other   |            | 0.2234     |            |       |  0.79

Nlocal:         30.375 ave          34 max          27 min
Histogram: 1 1 1 0 1 1 0 2 0 1
Nghost:        2735.88 ave        2761 max        2702 min
Histogram: 1 0 2 0 0 1 0 1 1 2
Neighs:        17911.5 ave       19986 max       15960 min
Histogram: 1 1 1 0 1 1 0 2 0 1

Total # of neighbors = 143292
Ave neighs/atom = 589.67901
Ave special neighs/atom = 0
Neighbor list builds = 100
Dangerous builds not checked
  using 8 OpenMP thread(s) per MPI task
Reading restart file ...
  restart file = 2 Aug 2023, LAMMPS = 2 Aug 2023
  restoring atom style full from restart
  triclinic box = (0 0 0) to (14.6913 12.723 15.9631) with tilt (-7.3456 0 0)
WARNING: Triclinic box skew is large. LAMMPS will run inefficiently. (src/domain.cpp:220)
  2 by 2 by 2 MPI processor grid
  pair style reaxff stores no restart info
  243 atoms
Finding 1-2 1-3 1-4 neighbors ...
  special bond factors lj:    0        0        0       
  special bond factors coul:  0        0        0       
     0 = max # of 1-2 neighbors
     0 = max # of 1-3 neighbors
     0 = max # of 1-4 neighbors
     1 = max # of special neighbors
  special bonds CPU = 0.000 seconds
  read_restart CPU = 0.002 seconds
*****Positive-change 1 starts.*****
WARNING: Van der Waals parameters for element SI indicate inner wall+shielding, but earlier atoms indicate a different van der Waals method. This may cause division-by-zero errors. Keeping van der Waals setting for earlier atoms. (src/REAXFF/reaxff_ffield.cpp:251)
WARNING: Van der Waals parameters for element AL indicate inner wall+shielding, but earlier atoms indicate a different van der Waals method. This may cause division-by-zero errors. Keeping van der Waals setting for earlier atoms. (src/REAXFF/reaxff_ffield.cpp:251)
WARNING: Changed valency_val to valency_boc for X (src/REAXFF/reaxff_ffield.cpp:296)
Changing box ...
WARNING: Triclinic box skew is large. LAMMPS will run inefficiently. (src/domain.cpp:220)
  triclinic box = (0 0 0) to (14.985126 12.723 15.9631) with tilt (-7.3456 0 0)
WARNING: Triclinic box skew is large. LAMMPS will run inefficiently. (src/domain.cpp:220)
  triclinic box = (0 0 0) to (14.985126 12.723 15.9631) with tilt (-7.492512 0 0)
WARNING: Triclinic box skew is large. LAMMPS will run inefficiently. (src/domain.cpp:220)
  triclinic box = (0 0 0) to (14.985126 12.723 15.9631) with tilt (-7.492512 0 0)
Neighbor list info ...
  update: every = 10 steps, delay = 0 steps, check = no
  max neighbors/atom: 2000, page size: 100000
  master list distance cutoff = 12
  ghost atom cutoff = 12
  binsize = 6, bins = 4 3 3
  2 neighbor lists, perpetual/occasional/extra = 2 0 0
  (1) pair reaxff, perpetual
      attributes: half, newton off, ghost
      pair build: half/bin/newtoff/ghost
      stencil: full/ghost/bin/3d
      bin: standard
  (2) fix qeq/reaxff, perpetual, copy from (1)
      attributes: half, newton off
      pair build: copy
      stencil: none
      bin: none
Setting up Verlet run ...
  Unit style    : real
  Current step  : 0
  Time step     : 0.5
Per MPI rank memory allocation (min/avg/max) = 112.9 | 113.7 | 114.6 Mbytes
   Step          Temp          PotEng         Press        f_avgp[1]        Volume    
         0   301.0265      -36667.362      402.95823      0              3043.4569    
       100   338.52202     -36714.651      4494.8623     -13521.645      3043.4569    
       200   295.34745     -36688.083     -36.195364     -5536.4222      3043.4569    
       300   314.3807      -36712.751      188.33423     -14868.58       3043.4569    
       400   283.46963     -36723.518      9121.765      -10938.719      3043.4569    
       500   311.18215     -36715.078      3099.848      -8558.3077      3043.4569    
       600   306.20513     -36710.073     -12.649536     -12527.968      3043.4569    
       700   297.93777     -36696.177      3802.9216     -13838.613      3043.4569    
       800   316.6646      -36718.614      1978.3588     -6204.3121      3043.4569    
       900   288.65689     -36684.366     -5293.4738     -7120.1879      3043.4569    
      1000   280.23996     -36700.055     -4032.3584     -9033.7153      3043.4569    
      1100   303.31211     -36693.852      4932.8266     -7269.81        3043.4569    
      1200   319.18851     -36710.927      123.18688     -5260.716       3043.4569    
      1300   287.32269     -36700.375      985.13905     -8047.8833      3043.4569    
      1400   302.54285     -36707.395      10432.987     -10502.958      3043.4569    
      1500   281.63147     -36686.854      12686.477     -9373.6288      3043.4569    
      1600   295.30775     -36698.643     -3125.2434     -10384.237      3043.4569    
      1700   280.14634     -36714.633      4006.6594     -10695.486      3043.4569    
      1800   312.48156     -36713.309      1339.5684     -11108.36       3043.4569    
      1900   292.19146     -36721.381     -3610.1665     -9165.4202      3043.4569    
      2000   325.82289     -36706.628      605.10093     -13203.614      3043.4569    
Loop time of 53.0854 on 64 procs for 2000 steps with 243 atoms

Performance: 1.628 ns/day, 14.746 hours/ns, 37.675 timesteps/s, 9.155 katom-step/s
121.0% CPU use with 8 MPI tasks x 8 OpenMP threads

MPI task timing breakdown:
Section |  min time  |  avg time  |  max time  |%varavg| %total
---------------------------------------------------------------
Pair    | 32.297     | 33.361     | 34.655     |  12.1 | 62.84
Bond    | 0.00031734 | 0.0004007  | 0.00047108 |   0.0 |  0.00
Neigh   | 3.5005     | 3.5842     | 3.7138     |   3.2 |  6.75
Comm    | 6.9619     | 8.3337     | 9.4437     |  26.0 | 15.70
Output  | 0.0029505  | 0.0036629  | 0.0045037  |   1.0 |  0.01
Modify  | 7.2395     | 7.3698     | 7.4382     |   2.1 | 13.88
Other   |            | 0.4327     |            |       |  0.82

Nlocal:         30.375 ave          33 max          28 min
Histogram: 2 0 0 0 3 0 0 0 2 1
Nghost:        2683.62 ave        2706 max        2664 min
Histogram: 4 0 0 0 0 0 0 0 2 2
Neighs:        17269.2 ave       18704 max       15957 min
Histogram: 2 0 0 0 3 0 0 0 2 1

Total # of neighbors = 138154
Ave neighs/atom = 568.53498
Ave special neighs/atom = 0
Neighbor list builds = 200
Dangerous builds not checked
*****Equilibration pos1 starts.*****
WARNING: Van der Waals parameters for element SI indicate inner wall+shielding, but earlier atoms indicate a different van der Waals method. This may cause division-by-zero errors. Keeping van der Waals setting for earlier atoms. (src/REAXFF/reaxff_ffield.cpp:251)
WARNING: Van der Waals parameters for element AL indicate inner wall+shielding, but earlier atoms indicate a different van der Waals method. This may cause division-by-zero errors. Keeping van der Waals setting for earlier atoms. (src/REAXFF/reaxff_ffield.cpp:251)
WARNING: Changed valency_val to valency_boc for X (src/REAXFF/reaxff_ffield.cpp:296)
WARNING: New thermo_style command, previous thermo_modify settings will be lost (src/output.cpp:903)
Neighbor list info ...
  update: every = 10 steps, delay = 0 steps, check = no
  max neighbors/atom: 2000, page size: 100000
  master list distance cutoff = 12
  ghost atom cutoff = 12
  binsize = 6, bins = 4 3 3
  2 neighbor lists, perpetual/occasional/extra = 2 0 0
  (1) pair reaxff, perpetual
      attributes: half, newton off, ghost
      pair build: half/bin/newtoff/ghost
      stencil: full/ghost/bin/3d
      bin: standard
  (2) fix qeq/reaxff, perpetual, copy from (1)
      attributes: half, newton off
      pair build: copy
      stencil: none
      bin: none
Setting up Verlet run ...
  Unit style    : real
  Current step  : 0
  Time step     : 0.5
Per MPI rank memory allocation (min/avg/max) = 113 | 113.7 | 114.6 Mbytes
   Step          Temp          PotEng         Press        f_avgp[1]        Volume    
         0   325.82289     -36706.628      605.04097      0              3043.4569    
       100   326.24297     -36728.666     -295.59056     -12494.233      3043.4569    
       200   300.22378     -36713.942      2867.7152     -11254.074      3043.4569    
       300   292.65719     -36725.906      5521.4604     -3936.1518      3043.4569    
       400   312.32478     -36720.868      2727.9553     -10467.353      3043.4569    
       500   276.69709     -36688.669     -1534.6247     -12409.398      3043.4569    
       600   305.65169     -36701.558      698.29263     -8541.6876      3043.4569    
       700   314.09574     -36719.619      8756.2985     -7395.1986      3043.4569    
       800   314.06361     -36704.934      2913.0464     -8883.454       3043.4569    
       900   307.88801     -36707.557     -5435.5744     -10821.851      3043.4569    
      1000   296.64898     -36729.123     -2577.6577     -11519.766      3043.4569    
Loop time of 26.1994 on 64 procs for 1000 steps with 243 atoms

Performance: 1.649 ns/day, 14.555 hours/ns, 38.169 timesteps/s, 9.275 katom-step/s
121.2% CPU use with 8 MPI tasks x 8 OpenMP threads

MPI task timing breakdown:
Section |  min time  |  avg time  |  max time  |%varavg| %total
---------------------------------------------------------------
Pair    | 15.826     | 16.586     | 17.474     |  11.4 | 63.31
Bond    | 0.00015872 | 0.00019807 | 0.0002315  |   0.0 |  0.00
Neigh   | 1.7452     | 1.8039     | 1.8719     |   3.2 |  6.89
Comm    | 3.01       | 3.9367     | 4.6902     |  24.1 | 15.03
Output  | 0.0003433  | 0.00037882 | 0.00052478 |   0.0 |  0.00
Modify  | 3.5643     | 3.6474     | 3.7054     |   2.5 | 13.92
Other   |            | 0.2249     |            |       |  0.86

Nlocal:         30.375 ave          33 max          27 min
Histogram: 1 0 0 1 0 3 0 0 2 1
Nghost:        2696.12 ave        2716 max        2679 min
Histogram: 1 0 2 0 2 1 0 0 1 1
Neighs:        17277.4 ave       18739 max       15377 min
Histogram: 1 0 0 1 0 3 0 0 2 1

Total # of neighbors = 138219
Ave neighs/atom = 568.80247
Ave special neighs/atom = 0
Neighbor list builds = 100
Dangerous builds not checked
  using 8 OpenMP thread(s) per MPI task
Reading restart file ...
  restart file = 2 Aug 2023, LAMMPS = 2 Aug 2023
  restoring atom style full from restart
  triclinic box = (0 0 0) to (14.6913 12.723 15.9631) with tilt (-7.3456 0 0)
WARNING: Triclinic box skew is large. LAMMPS will run inefficiently. (src/domain.cpp:220)
  2 by 2 by 2 MPI processor grid
  pair style reaxff stores no restart info
  243 atoms
Finding 1-2 1-3 1-4 neighbors ...
  special bond factors lj:    0        0        0       
  special bond factors coul:  0        0        0       
     0 = max # of 1-2 neighbors
     0 = max # of 1-3 neighbors
     0 = max # of 1-4 neighbors
     1 = max # of special neighbors
  special bonds CPU = 0.000 seconds
  read_restart CPU = 0.003 seconds
*****Negative-change 2 starts.*****
WARNING: Van der Waals parameters for element SI indicate inner wall+shielding, but earlier atoms indicate a different van der Waals method. This may cause division-by-zero errors. Keeping van der Waals setting for earlier atoms. (src/REAXFF/reaxff_ffield.cpp:251)
WARNING: Van der Waals parameters for element AL indicate inner wall+shielding, but earlier atoms indicate a different van der Waals method. This may cause division-by-zero errors. Keeping van der Waals setting for earlier atoms. (src/REAXFF/reaxff_ffield.cpp:251)
WARNING: Changed valency_val to valency_boc for X (src/REAXFF/reaxff_ffield.cpp:296)
Changing box ...
WARNING: Triclinic box skew is large. LAMMPS will run inefficiently. (src/domain.cpp:220)
  triclinic box = (0 0 0) to (14.6913 12.46854 15.9631) with tilt (-7.3456 0 0)
WARNING: Triclinic box skew is large. LAMMPS will run inefficiently. (src/domain.cpp:220)
  triclinic box = (0 0 0) to (14.6913 12.46854 15.9631) with tilt (-7.3456 0 0)
Neighbor list info ...
  update: every = 10 steps, delay = 0 steps, check = no
  max neighbors/atom: 2000, page size: 100000
  master list distance cutoff = 12
  ghost atom cutoff = 12
  binsize = 6, bins = 4 3 3
  2 neighbor lists, perpetual/occasional/extra = 2 0 0
  (1) pair reaxff, perpetual
      attributes: half, newton off, ghost
      pair build: half/bin/newtoff/ghost
      stencil: full/ghost/bin/3d
      bin: standard
  (2) fix qeq/reaxff, perpetual, copy from (1)
      attributes: half, newton off
      pair build: copy
      stencil: none
      bin: none
Setting up Verlet run ...
  Unit style    : real
  Current step  : 0
  Time step     : 0.5
Per MPI rank memory allocation (min/avg/max) = 116.5 | 116.9 | 117.6 Mbytes
   Step          Temp          PotEng         Press        f_avgp[1]        Volume    
         0   301.0265      -36604.578      115459.65      0              2924.1057    
       100   321.20468     -36673.496      20127.191      22877.321      2924.1057    
       200   315.22688     -36682.505      16031.926      17620.457      2924.1057    
       300   311.15192     -36707.495      30161.19       16856.955      2924.1057    
       400   300.06857     -36699.045      21071.669      18271.457      2924.1057    
       500   286.94516     -36701.438      22706.576      17393.464      2924.1057    
       600   293.78775     -36708.596      19967.865      16232.321      2924.1057    
       700   305.73333     -36720.783      27578.174      19851.193      2924.1057    
       800   315.34182     -36709.105      25807.194      10928.628      2924.1057    
       900   306.8221      -36722.358      20806.45       13505.835      2924.1057    
      1000   332.28797     -36704.245      28428.403      17350.808      2924.1057    
      1100   330.58014     -36691.186      23880.002      15627.653      2924.1057    
      1200   322.27087     -36706.488      25149.779      22165.325      2924.1057    
      1300   307.59718     -36697.942      21945.348      15620.543      2924.1057    
      1400   308.66622     -36698.848      26007.537      18727.714      2924.1057    
      1500   274.88261     -36704.683      31250.37       18782.658      2924.1057    
      1600   309.92826     -36708.814      22171.405      20615.43       2924.1057    
      1700   293.45732     -36713.383      21902.742      17079.095      2924.1057    
      1800   299.05482     -36677.766      20234.683      19215.299      2924.1057    
      1900   288.795       -36681.585      27593.401      19203.247      2924.1057    
      2000   303.91462     -36698.565      25630.542      22432.418      2924.1057    
Loop time of 56.4528 on 64 procs for 2000 steps with 243 atoms

Performance: 1.530 ns/day, 15.681 hours/ns, 35.428 timesteps/s, 8.609 katom-step/s
119.8% CPU use with 8 MPI tasks x 8 OpenMP threads

MPI task timing breakdown:
Section |  min time  |  avg time  |  max time  |%varavg| %total
---------------------------------------------------------------
Pair    | 34.425     | 35.706     | 37.411     |  18.6 | 63.25
Bond    | 0.00032573 | 0.0004102  | 0.00051882 |   0.0 |  0.00
Neigh   | 3.7119     | 3.7524     | 3.8148     |   1.6 |  6.65
Comm    | 7.2294     | 8.9546     | 10.285     |  37.9 | 15.86
Output  | 0.0029538  | 0.0036858  | 0.0046265  |   1.1 |  0.01
Modify  | 7.5705     | 7.5963     | 7.6143     |   0.6 | 13.46
Other   |            | 0.4395     |            |       |  0.78

Nlocal:         30.375 ave          34 max          27 min
Histogram: 1 1 1 0 1 1 0 2 0 1
Nghost:        2773.25 ave        2800 max        2742 min
Histogram: 1 1 1 1 0 0 0 1 1 2
Neighs:        17907.1 ave       19992 max       15938 min
Histogram: 1 1 1 0 1 1 0 2 0 1

Total # of neighbors = 143257
Ave neighs/atom = 589.53498
Ave special neighs/atom = 0
Neighbor list builds = 200
Dangerous builds not checked
*****Equilibration neg2 starts.*****
WARNING: Van der Waals parameters for element SI indicate inner wall+shielding, but earlier atoms indicate a different van der Waals method. This may cause division-by-zero errors. Keeping van der Waals setting for earlier atoms. (src/REAXFF/reaxff_ffield.cpp:251)
WARNING: Van der Waals parameters for element AL indicate inner wall+shielding, but earlier atoms indicate a different van der Waals method. This may cause division-by-zero errors. Keeping van der Waals setting for earlier atoms. (src/REAXFF/reaxff_ffield.cpp:251)
WARNING: Changed valency_val to valency_boc for X (src/REAXFF/reaxff_ffield.cpp:296)
WARNING: New thermo_style command, previous thermo_modify settings will be lost (src/output.cpp:903)
Neighbor list info ...
  update: every = 10 steps, delay = 0 steps, check = no
  max neighbors/atom: 2000, page size: 100000
  master list distance cutoff = 12
  ghost atom cutoff = 12
  binsize = 6, bins = 4 3 3
  2 neighbor lists, perpetual/occasional/extra = 2 0 0
  (1) pair reaxff, perpetual
      attributes: half, newton off, ghost
      pair build: half/bin/newtoff/ghost
      stencil: full/ghost/bin/3d
      bin: standard
  (2) fix qeq/reaxff, perpetual, copy from (1)
      attributes: half, newton off
      pair build: copy
      stencil: none
      bin: none
Setting up Verlet run ...
  Unit style    : real
  Current step  : 0
  Time step     : 0.5
Per MPI rank memory allocation (min/avg/max) = 116.5 | 116.9 | 117.5 Mbytes
   Step          Temp          PotEng         Press        f_avgp[1]        Volume    
         0   303.91462     -36698.564      25633.539      0              2924.1057    
       100   297.05601     -36705.893      25074.076      13132.224      2924.1057    
       200   296.12802     -36709.401      28469.493      19019.763      2924.1057    
       300   274.98399     -36709.53       14839.916      10541.851      2924.1057    
       400   303.39496     -36710.177      27829.245      14796.329      2924.1057    
       500   322.14172     -36696.572      32410.381      21186.18       2924.1057    
       600   291.76131     -36699.703      28118.758      16290.608      2924.1057    
       700   278.12372     -36694.228      29884.462      20790.34       2924.1057    
       800   282.73288     -36707.039      25333.543      21382.485      2924.1057    
       900   303.07103     -36693.031      19925.775      16708.975      2924.1057    
      1000   311.08292     -36686.047      25529.793      19090.755      2924.1057    
Loop time of 28.3505 on 64 procs for 1000 steps with 243 atoms

Performance: 1.524 ns/day, 15.750 hours/ns, 35.273 timesteps/s, 8.571 katom-step/s
119.9% CPU use with 8 MPI tasks x 8 OpenMP threads

MPI task timing breakdown:
Section |  min time  |  avg time  |  max time  |%varavg| %total
---------------------------------------------------------------
Pair    | 17.602     | 18.035     | 18.843     |   9.8 | 63.61
Bond    | 0.00015696 | 0.00020845 | 0.00027332 |   0.0 |  0.00
Neigh   | 1.7983     | 1.8682     | 1.9641     |   3.4 |  6.59
Comm    | 3.5139     | 4.3972     | 4.8218     |  20.6 | 15.51
Output  | 0.00029773 | 0.00032067 | 0.00043921 |   0.0 |  0.00
Modify  | 3.7474     | 3.8154     | 3.9035     |   2.2 | 13.46
Other   |            | 0.2343     |            |       |  0.83

Nlocal:         30.375 ave          32 max          27 min
Histogram: 1 0 0 0 1 0 2 0 1 3
Nghost:        2770.62 ave        2795 max        2752 min
Histogram: 3 1 0 0 0 0 2 0 0 2
Neighs:          17907 ave       18839 max       15957 min
Histogram: 1 0 0 0 1 1 1 0 1 3

Total # of neighbors = 143256
Ave neighs/atom = 589.53086
Ave special neighs/atom = 0
Neighbor list builds = 100
Dangerous builds not checked
  using 8 OpenMP thread(s) per MPI task
Reading restart file ...
  restart file = 2 Aug 2023, LAMMPS = 2 Aug 2023
  restoring atom style full from restart
  triclinic box = (0 0 0) to (14.6913 12.723 15.9631) with tilt (-7.3456 0 0)
WARNING: Triclinic box skew is large. LAMMPS will run inefficiently. (src/domain.cpp:220)
  2 by 2 by 2 MPI processor grid
  pair style reaxff stores no restart info
  243 atoms
Finding 1-2 1-3 1-4 neighbors ...
  special bond factors lj:    0        0        0       
  special bond factors coul:  0        0        0       
     0 = max # of 1-2 neighbors
     0 = max # of 1-3 neighbors
     0 = max # of 1-4 neighbors
     1 = max # of special neighbors
  special bonds CPU = 0.000 seconds
  read_restart CPU = 0.003 seconds
*****Positive-change 2 starts.*****
WARNING: Van der Waals parameters for element SI indicate inner wall+shielding, but earlier atoms indicate a different van der Waals method. This may cause division-by-zero errors. Keeping van der Waals setting for earlier atoms. (src/REAXFF/reaxff_ffield.cpp:251)
WARNING: Van der Waals parameters for element AL indicate inner wall+shielding, but earlier atoms indicate a different van der Waals method. This may cause division-by-zero errors. Keeping van der Waals setting for earlier atoms. (src/REAXFF/reaxff_ffield.cpp:251)
WARNING: Changed valency_val to valency_boc for X (src/REAXFF/reaxff_ffield.cpp:296)
Changing box ...
WARNING: Triclinic box skew is large. LAMMPS will run inefficiently. (src/domain.cpp:220)
  triclinic box = (0 0 0) to (14.6913 12.97746 15.9631) with tilt (-7.3456 0 0)
WARNING: Triclinic box skew is large. LAMMPS will run inefficiently. (src/domain.cpp:220)
  triclinic box = (0 0 0) to (14.6913 12.97746 15.9631) with tilt (-7.3456 0 0)
Neighbor list info ...
  update: every = 10 steps, delay = 0 steps, check = no
  max neighbors/atom: 2000, page size: 100000
  master list distance cutoff = 12
  ghost atom cutoff = 12
  binsize = 6, bins = 4 3 3
  2 neighbor lists, perpetual/occasional/extra = 2 0 0
  (1) pair reaxff, perpetual
      attributes: half, newton off, ghost
      pair build: half/bin/newtoff/ghost
      stencil: full/ghost/bin/3d
      bin: standard
  (2) fix qeq/reaxff, perpetual, copy from (1)
      attributes: half, newton off
      pair build: copy
      stencil: none
      bin: none
Setting up Verlet run ...
  Unit style    : real
  Current step  : 0
  Time step     : 0.5
Per MPI rank memory allocation (min/avg/max) = 112.6 | 112.8 | 113 Mbytes
   Step          Temp          PotEng         Press        f_avgp[1]        Volume    
         0   301.0265      -36667.744      2557.7696      0              3043.4569    
       100   317.51746     -36687.512      2585.9779      4705.0866      3043.4569    
       200   310.96671     -36705.9        12166.026      4965.3676      3043.4569    
       300   277.61605     -36686.778      3694.4056      7608.4548      3043.4569    
       400   295.22364     -36705.207      1346.2196      587.26684      3043.4569    
       500   318.70482     -36726.164      4258.5861      3862.9836      3043.4569    
       600   279.26048     -36695.181      5120.8829      5400.9339      3043.4569    
       700   296.64231     -36710.774      3347.7164      10105.289      3043.4569    
       800   286.87276     -36705.357      2642.0455      8798.3246      3043.4569    
       900   309.42087     -36710.114      1516.0658      1677.9605      3043.4569    
      1000   300.12183     -36688.146      1331.0211      5472.9668      3043.4569    
      1100   296.63819     -36698.833      2195.051       5518.0594      3043.4569    
      1200   312.34028     -36718.644      1426.7393     -1610.8563      3043.4569    
      1300   300.97785     -36712.101      3551.6225      3355.8513      3043.4569    
      1400   278.04293     -36723.33       2791.7197      7858.5745      3043.4569    
      1500   296.90134     -36714.116      2625.4916      541.28548      3043.4569    
      1600   298.90535     -36714.054     -1725.0538      10984.47       3043.4569    
      1700   283.54625     -36694.937     -1682.9106      3832.4434      3043.4569    
      1800   311.69809     -36681.543     -1638.2654      3927.9396      3043.4569    
      1900   303.01159     -36700.097     -3824.9571      5095.7614      3043.4569    
      2000   304.43337     -36717.822      6550.6943      1315.5857      3043.4569    
Loop time of 52.6685 on 64 procs for 2000 steps with 243 atoms

Performance: 1.640 ns/day, 14.630 hours/ns, 37.973 timesteps/s, 9.228 katom-step/s
121.3% CPU use with 8 MPI tasks x 8 OpenMP threads

MPI task timing breakdown:
Section |  min time  |  avg time  |  max time  |%varavg| %total
---------------------------------------------------------------
Pair    | 31.764     | 33.117     | 34.649     |  15.4 | 62.88
Bond    | 0.00031895 | 0.00041011 | 0.00056311 |   0.0 |  0.00
Neigh   | 3.468      | 3.537      | 3.7044     |   3.8 |  6.72
Comm    | 6.6043     | 8.263      | 9.6394     |  33.0 | 15.69
Output  | 0.0028379  | 0.0036195  | 0.0045695  |   1.2 |  0.01
Modify  | 7.1092     | 7.2944     | 7.3667     |   2.9 | 13.85
Other   |            | 0.4534     |            |       |  0.86

Nlocal:         30.375 ave          33 max          27 min
Histogram: 1 1 0 0 0 1 3 0 1 1
Nghost:        2689.25 ave        2705 max        2675 min
Histogram: 2 0 2 0 0 0 0 1 2 1
Neighs:        17281.8 ave       18722 max       15388 min
Histogram: 1 1 0 0 0 1 3 0 1 1

Total # of neighbors = 138254
Ave neighs/atom = 568.9465
Ave special neighs/atom = 0
Neighbor list builds = 200
Dangerous builds not checked
*****Equilibration pos2 starts.*****
WARNING: Van der Waals parameters for element SI indicate inner wall+shielding, but earlier atoms indicate a different van der Waals method. This may cause division-by-zero errors. Keeping van der Waals setting for earlier atoms. (src/REAXFF/reaxff_ffield.cpp:251)
WARNING: Van der Waals parameters for element AL indicate inner wall+shielding, but earlier atoms indicate a different van der Waals method. This may cause division-by-zero errors. Keeping van der Waals setting for earlier atoms. (src/REAXFF/reaxff_ffield.cpp:251)
WARNING: Changed valency_val to valency_boc for X (src/REAXFF/reaxff_ffield.cpp:296)
WARNING: New thermo_style command, previous thermo_modify settings will be lost (src/output.cpp:903)
Neighbor list info ...
  update: every = 10 steps, delay = 0 steps, check = no
  max neighbors/atom: 2000, page size: 100000
  master list distance cutoff = 12
  ghost atom cutoff = 12
  binsize = 6, bins = 4 3 3
  2 neighbor lists, perpetual/occasional/extra = 2 0 0
  (1) pair reaxff, perpetual
      attributes: half, newton off, ghost
      pair build: half/bin/newtoff/ghost
      stencil: full/ghost/bin/3d
      bin: standard
  (2) fix qeq/reaxff, perpetual, copy from (1)
      attributes: half, newton off
      pair build: copy
      stencil: none
      bin: none
Setting up Verlet run ...
  Unit style    : real
  Current step  : 0
  Time step     : 0.5
Per MPI rank memory allocation (min/avg/max) = 112.6 | 113.2 | 113.8 Mbytes
   Step          Temp          PotEng         Press        f_avgp[1]        Volume    
         0   304.43337     -36717.822      6550.5099      0              3043.4569    
       100   315.03472     -36716.816      5322.1049      7223.898       3043.4569    
       200   265.55585     -36691.66      -3550.2736      6341.5196      3043.4569    
       300   311.94653     -36715.837      7963.1191      8046.1543      3043.4569    
       400   294.00957     -36706.902     -1584.6564      9503.6877      3043.4569    
       500   274.41421     -36729.455     -3085.7471     -1953.988       3043.4569    
       600   283.35535     -36727.125      7986.23        8476.8873      3043.4569    
       700   291.79722     -36734.437      6557.7428      4413.3109      3043.4569    
       800   281.20977     -36714.606     -3094.0673      5557.9596      3043.4569    
       900   325.2544      -36703.037      5615.0496      3790.9984      3043.4569    
      1000   302.26064     -36706.326      6148.6294      1920.7618      3043.4569    
Loop time of 26.7333 on 64 procs for 1000 steps with 243 atoms

Performance: 1.616 ns/day, 14.852 hours/ns, 37.406 timesteps/s, 9.090 katom-step/s
120.9% CPU use with 8 MPI tasks x 8 OpenMP threads

MPI task timing breakdown:
Section |  min time  |  avg time  |  max time  |%varavg| %total
---------------------------------------------------------------
Pair    | 15.968     | 16.667     | 17.688     |  12.6 | 62.35
Bond    | 0.00015838 | 0.00020512 | 0.00027398 |   0.0 |  0.00
Neigh   | 1.7101     | 1.7604     | 1.8154     |   2.9 |  6.59
Comm    | 3.2713     | 4.3565     | 5.0997     |  26.2 | 16.30
Output  | 0.00034041 | 0.00036989 | 0.00050537 |   0.0 |  0.00
Modify  | 3.6726     | 3.7252     | 3.7932     |   2.3 | 13.93
Other   |            | 0.2235     |            |       |  0.84

Nlocal:         30.375 ave          33 max          28 min
Histogram: 1 0 2 0 1 0 2 0 1 1
Nghost:        2689.12 ave        2713 max        2667 min
Histogram: 1 2 0 1 0 1 1 0 0 2
Neighs:        17274.6 ave       18702 max       15964 min
Histogram: 1 0 2 1 0 1 1 0 1 1

Total # of neighbors = 138197
Ave neighs/atom = 568.71193
Ave special neighs/atom = 0
Neighbor list builds = 100
Dangerous builds not checked
  using 8 OpenMP thread(s) per MPI task
Reading restart file ...
  restart file = 2 Aug 2023, LAMMPS = 2 Aug 2023
  restoring atom style full from restart
  triclinic box = (0 0 0) to (14.6913 12.723 15.9631) with tilt (-7.3456 0 0)
WARNING: Triclinic box skew is large. LAMMPS will run inefficiently. (src/domain.cpp:220)
  2 by 2 by 2 MPI processor grid
  pair style reaxff stores no restart info
  243 atoms
Finding 1-2 1-3 1-4 neighbors ...
  special bond factors lj:    0        0        0       
  special bond factors coul:  0        0        0       
     0 = max # of 1-2 neighbors
     0 = max # of 1-3 neighbors
     0 = max # of 1-4 neighbors
     1 = max # of special neighbors
  special bonds CPU = 0.000 seconds
  read_restart CPU = 0.003 seconds
*****Negative-change 3 starts.*****
WARNING: Van der Waals parameters for element SI indicate inner wall+shielding, but earlier atoms indicate a different van der Waals method. This may cause division-by-zero errors. Keeping van der Waals setting for earlier atoms. (src/REAXFF/reaxff_ffield.cpp:251)
WARNING: Van der Waals parameters for element AL indicate inner wall+shielding, but earlier atoms indicate a different van der Waals method. This may cause division-by-zero errors. Keeping van der Waals setting for earlier atoms. (src/REAXFF/reaxff_ffield.cpp:251)
WARNING: Changed valency_val to valency_boc for X (src/REAXFF/reaxff_ffield.cpp:296)
Changing box ...
WARNING: Triclinic box skew is large. LAMMPS will run inefficiently. (src/domain.cpp:220)
  triclinic box = (0 0 0) to (14.6913 12.723 15.643838) with tilt (-7.3456 0 0)
Neighbor list info ...
  update: every = 10 steps, delay = 0 steps, check = no
  max neighbors/atom: 2000, page size: 100000
  master list distance cutoff = 12
  ghost atom cutoff = 12
  binsize = 6, bins = 4 3 3
  2 neighbor lists, perpetual/occasional/extra = 2 0 0
  (1) pair reaxff, perpetual
      attributes: half, newton off, ghost
      pair build: half/bin/newtoff/ghost
      stencil: full/ghost/bin/3d
      bin: standard
  (2) fix qeq/reaxff, perpetual, copy from (1)
      attributes: half, newton off
      pair build: copy
      stencil: none
      bin: none
Setting up Verlet run ...
  Unit style    : real
  Current step  : 0
  Time step     : 0.5
Per MPI rank memory allocation (min/avg/max) = 116.3 | 116.7 | 117.1 Mbytes
   Step          Temp          PotEng         Press        f_avgp[1]        Volume    
         0   301.0265      -36675.248      63904.458      0              2924.1057    
       100   298.65566     -36679.306      18517.681      23815.18       2924.1057    
       200   321.96218     -36683.517      29415.249      18727.546      2924.1057    
       300   323.13506     -36703.402      28136.559      19782.855      2924.1057    
       400   281.95245     -36706.159      21335.11       17174.622      2924.1057    
       500   293.0409      -36682.046      23413.228      13458.609      2924.1057    
       600   270.58947     -36693.313      32231.001      18834.83       2924.1057    
       700   315.26792     -36728.214      18417.144      16030.686      2924.1057    
       800   296.65928     -36703.451      22112.15       17238.524      2924.1057    
       900   329.99467     -36713.12       24552.549      23076.556      2924.1057    
      1000   297.33997     -36712.271      19919.072      9068.2857      2924.1057    
      1100   306.64376     -36694.043      37222.42       22334.559      2924.1057    
      1200   291.17429     -36691.595      13398.986      18168.526      2924.1057    
      1300   286.42073     -36695.76       24382.387      12885.422      2924.1057    
      1400   320.07631     -36707.585      27270.393      22354.173      2924.1057    
      1500   299.92102     -36683.383      23978.838      16113.214      2924.1057    
      1600   293.81916     -36717.335      24988.136      19662.489      2924.1057    
      1700   317.80184     -36693.774      22384.81       16541.323      2924.1057    
      1800   285.30455     -36693.355      22356.477      13370.943      2924.1057    
      1900   286.08006     -36708.928      22335.811      21142.902      2924.1057    
      2000   291.92006     -36709.308      25020.986      20257.475      2924.1057    
Loop time of 56.5888 on 64 procs for 2000 steps with 243 atoms

Performance: 1.527 ns/day, 15.719 hours/ns, 35.343 timesteps/s, 8.588 katom-step/s
119.7% CPU use with 8 MPI tasks x 8 OpenMP threads

MPI task timing breakdown:
Section |  min time  |  avg time  |  max time  |%varavg| %total
---------------------------------------------------------------
Pair    | 34.052     | 35.67      | 37.385     |  16.7 | 63.03
Bond    | 0.00033143 | 0.00040953 | 0.00051818 |   0.0 |  0.00
Neigh   | 3.6381     | 3.6732     | 3.7189     |   1.6 |  6.49
Comm    | 7.2704     | 9.0918     | 10.758     |  35.1 | 16.07
Output  | 0.0030293  | 0.0037534  | 0.0046412  |   1.1 |  0.01
Modify  | 7.6637     | 7.7028     | 7.7645     |   1.1 | 13.61
Other   |            | 0.4467     |            |       |  0.79

Nlocal:         30.375 ave          35 max          26 min
Histogram: 1 1 0 1 1 1 1 1 0 1
Nghost:        2745.62 ave        2757 max        2730 min
Histogram: 1 0 1 1 0 1 1 0 1 2
Neighs:        17866.6 ave       20480 max       15324 min
Histogram: 1 1 0 1 1 1 1 1 0 1

Total # of neighbors = 142933
Ave neighs/atom = 588.20165
Ave special neighs/atom = 0
Neighbor list builds = 200
Dangerous builds not checked
*****Equilibration neg3 starts.*****
WARNING: Van der Waals parameters for element SI indicate inner wall+shielding, but earlier atoms indicate a different van der Waals method. This may cause division-by-zero errors. Keeping van der Waals setting for earlier atoms. (src/REAXFF/reaxff_ffield.cpp:251)
WARNING: Van der Waals parameters for element AL indicate inner wall+shielding, but earlier atoms indicate a different van der Waals method. This may cause division-by-zero errors. Keeping van der Waals setting for earlier atoms. (src/REAXFF/reaxff_ffield.cpp:251)
WARNING: Changed valency_val to valency_boc for X (src/REAXFF/reaxff_ffield.cpp:296)
WARNING: New thermo_style command, previous thermo_modify settings will be lost (src/output.cpp:903)
Neighbor list info ...
  update: every = 10 steps, delay = 0 steps, check = no
  max neighbors/atom: 2000, page size: 100000
  master list distance cutoff = 12
  ghost atom cutoff = 12
  binsize = 6, bins = 4 3 3
  2 neighbor lists, perpetual/occasional/extra = 2 0 0
  (1) pair reaxff, perpetual
      attributes: half, newton off, ghost
      pair build: half/bin/newtoff/ghost
      stencil: full/ghost/bin/3d
      bin: standard
  (2) fix qeq/reaxff, perpetual, copy from (1)
      attributes: half, newton off
      pair build: copy
      stencil: none
      bin: none
Setting up Verlet run ...
  Unit style    : real
  Current step  : 0
  Time step     : 0.5
Per MPI rank memory allocation (min/avg/max) = 116.3 | 116.7 | 117.1 Mbytes
   Step          Temp          PotEng         Press        f_avgp[1]        Volume    
         0   291.92006     -36709.309      25020.063      0              2924.1057    
       100   296.63858     -36709.735      24509.609      17905.665      2924.1057    
       200   300.0558      -36697.662      25974.743      14607.409      2924.1057    
       300   298.62262     -36688.038      24617.762      21862.99       2924.1057    
       400   300.9184      -36704.452      20332.586      16359.419      2924.1057    
       500   299.39239     -36700.415      23925.056      20279.67       2924.1057    
       600   323.63754     -36711.726      18776.512      16537.623      2924.1057    
       700   317.73718     -36689.304      23141.663      15245.041      2924.1057    
       800   298.32291     -36697.402      23262.32       18978.95       2924.1057    
       900   306.0461      -36710.732      27632.512      15480.85       2924.1057    
      1000   274.76311     -36709.18       27758.757      16427.479      2924.1057    
Loop time of 27.9613 on 64 procs for 1000 steps with 243 atoms

Performance: 1.545 ns/day, 15.534 hours/ns, 35.764 timesteps/s, 8.691 katom-step/s
119.7% CPU use with 8 MPI tasks x 8 OpenMP threads

MPI task timing breakdown:
Section |  min time  |  avg time  |  max time  |%varavg| %total
---------------------------------------------------------------
Pair    | 17.052     | 17.716     | 18.91      |  14.5 | 63.36
Bond    | 0.00015836 | 0.00020223 | 0.00026915 |   0.0 |  0.00
Neigh   | 1.7654     | 1.8371     | 1.9685     |   4.4 |  6.57
Comm    | 3.2019     | 4.3973     | 5.0559     |  29.2 | 15.73
Output  | 0.00030709 | 0.00034693 | 0.00048878 |   0.0 |  0.00
Modify  | 3.6491     | 3.8058     | 3.9194     |   4.5 | 13.61
Other   |            | 0.2045     |            |       |  0.73

Nlocal:         30.375 ave          33 max          26 min
Histogram: 1 1 0 0 1 0 0 1 2 2
Nghost:        2763.88 ave        2772 max        2748 min
Histogram: 1 0 1 0 0 1 0 1 2 2
Neighs:        17851.9 ave       19352 max       15368 min
Histogram: 1 1 0 0 1 0 0 1 2 2

Total # of neighbors = 142815
Ave neighs/atom = 587.71605
Ave special neighs/atom = 0
Neighbor list builds = 100
Dangerous builds not checked
  using 8 OpenMP thread(s) per MPI task
Reading restart file ...
  restart file = 2 Aug 2023, LAMMPS = 2 Aug 2023
  restoring atom style full from restart
  triclinic box = (0 0 0) to (14.6913 12.723 15.9631) with tilt (-7.3456 0 0)
WARNING: Triclinic box skew is large. LAMMPS will run inefficiently. (src/domain.cpp:220)
  2 by 2 by 2 MPI processor grid
  pair style reaxff stores no restart info
  243 atoms
Finding 1-2 1-3 1-4 neighbors ...
  special bond factors lj:    0        0        0       
  special bond factors coul:  0        0        0       
     0 = max # of 1-2 neighbors
     0 = max # of 1-3 neighbors
     0 = max # of 1-4 neighbors
     1 = max # of special neighbors
  special bonds CPU = 0.000 seconds
  read_restart CPU = 0.003 seconds
*****Positive-change 3 starts.*****
WARNING: Van der Waals parameters for element SI indicate inner wall+shielding, but earlier atoms indicate a different van der Waals method. This may cause division-by-zero errors. Keeping van der Waals setting for earlier atoms. (src/REAXFF/reaxff_ffield.cpp:251)
WARNING: Van der Waals parameters for element AL indicate inner wall+shielding, but earlier atoms indicate a different van der Waals method. This may cause division-by-zero errors. Keeping van der Waals setting for earlier atoms. (src/REAXFF/reaxff_ffield.cpp:251)
WARNING: Changed valency_val to valency_boc for X (src/REAXFF/reaxff_ffield.cpp:296)
Changing box ...
WARNING: Triclinic box skew is large. LAMMPS will run inefficiently. (src/domain.cpp:220)
  triclinic box = (0 0 0) to (14.6913 12.723 16.282362) with tilt (-7.3456 0 0)
Neighbor list info ...
  update: every = 10 steps, delay = 0 steps, check = no
  max neighbors/atom: 2000, page size: 100000
  master list distance cutoff = 12
  ghost atom cutoff = 12
  binsize = 6, bins = 4 3 3
  2 neighbor lists, perpetual/occasional/extra = 2 0 0
  (1) pair reaxff, perpetual
      attributes: half, newton off, ghost
      pair build: half/bin/newtoff/ghost
      stencil: full/ghost/bin/3d
      bin: standard
  (2) fix qeq/reaxff, perpetual, copy from (1)
      attributes: half, newton off
      pair build: copy
      stencil: none
      bin: none
Setting up Verlet run ...
  Unit style    : real
  Current step  : 0
  Time step     : 0.5
Per MPI rank memory allocation (min/avg/max) = 112.5 | 112.9 | 113.2 Mbytes
   Step          Temp          PotEng         Press        f_avgp[1]        Volume    
         0   301.0265      -36700.273     -10511.67       0              3043.4569    
       100   340.39748     -36705.073      815.8447       3290.3656      3043.4569    
       200   290.08366     -36684.839      9335.4049      9755.249       3043.4569    
       300   272.88651     -36693.66       4532.55        8274.8941      3043.4569    
       400   332.70171     -36691.753      3979.4105      6111.7326      3043.4569    
       500   309.87734     -36717.589      9298.1425      6563.5422      3043.4569    
       600   297.37865     -36717.121      6144.4422      5857.7425      3043.4569    
       700   287.61107     -36703.756      6011.704       7631.8471      3043.4569    
       800   303.85103     -36695.925      3806.6015      8572.9665      3043.4569    
       900   315.8236      -36696.811      3087.1671      11111.256      3043.4569    
      1000   278.43888     -36702.093      1119.3106      5264.6631      3043.4569    
      1100   291.44221     -36736.558      6685.2961      7214.3898      3043.4569    
      1200   289.8084      -36716.687      2133.2039      5003.1179      3043.4569    
      1300   310.71716     -36709.425      4472.3218      6849.6785      3043.4569    
      1400   298.61011     -36709.618      6053.2029      8020.4258      3043.4569    
      1500   308.20111     -36709.808     -2114.2025      2892.4407      3043.4569    
      1600   300.75926     -36699.183      3854.2186      2160.9696      3043.4569    
      1700   289.72845     -36720.945      7514.8962      2463.9589      3043.4569    
      1800   304.13269     -36726.144      1690.4954      7632.5176      3043.4569    
      1900   292.53369     -36720.215      1999.4327      596.62838      3043.4569    
      2000   267.03461     -36712.349      1223.364       1320.4017      3043.4569    
Loop time of 53.595 on 64 procs for 2000 steps with 243 atoms

Performance: 1.612 ns/day, 14.888 hours/ns, 37.317 timesteps/s, 9.068 katom-step/s
121.0% CPU use with 8 MPI tasks x 8 OpenMP threads

MPI task timing breakdown:
Section |  min time  |  avg time  |  max time  |%varavg| %total
---------------------------------------------------------------
Pair    | 31.89      | 33.674     | 35.637     |  19.4 | 62.83
Bond    | 0.00032376 | 0.00039991 | 0.00053458 |   0.0 |  0.00
Neigh   | 3.4894     | 3.5868     | 3.7714     |   4.4 |  6.69
Comm    | 6.5573     | 8.5303     | 10.326     |  39.4 | 15.92
Output  | 0.0028174  | 0.0035177  | 0.0044045  |   1.1 |  0.01
Modify  | 7.116      | 7.3483     | 7.4519     |   4.0 | 13.71
Other   |            | 0.452      |            |       |  0.84

Nlocal:         30.375 ave          33 max          27 min
Histogram: 1 1 0 1 0 0 3 0 0 2
Nghost:           2687 ave        2707 max        2664 min
Histogram: 1 0 0 2 1 0 2 0 0 2
Neighs:          17256 ave       18701 max       15372 min
Histogram: 1 1 0 1 0 0 3 0 0 2

Total # of neighbors = 138048
Ave neighs/atom = 568.09877
Ave special neighs/atom = 0
Neighbor list builds = 200
Dangerous builds not checked
*****Equilibration pos3 starts.*****
WARNING: Van der Waals parameters for element SI indicate inner wall+shielding, but earlier atoms indicate a different van der Waals method. This may cause division-by-zero errors. Keeping van der Waals setting for earlier atoms. (src/REAXFF/reaxff_ffield.cpp:251)
WARNING: Van der Waals parameters for element AL indicate inner wall+shielding, but earlier atoms indicate a different van der Waals method. This may cause division-by-zero errors. Keeping van der Waals setting for earlier atoms. (src/REAXFF/reaxff_ffield.cpp:251)
WARNING: Changed valency_val to valency_boc for X (src/REAXFF/reaxff_ffield.cpp:296)
WARNING: New thermo_style command, previous thermo_modify settings will be lost (src/output.cpp:903)
Neighbor list info ...
  update: every = 10 steps, delay = 0 steps, check = no
  max neighbors/atom: 2000, page size: 100000
  master list distance cutoff = 12
  ghost atom cutoff = 12
  binsize = 6, bins = 4 3 3
  2 neighbor lists, perpetual/occasional/extra = 2 0 0
  (1) pair reaxff, perpetual
      attributes: half, newton off, ghost
      pair build: half/bin/newtoff/ghost
      stencil: full/ghost/bin/3d
      bin: standard
  (2) fix qeq/reaxff, perpetual, copy from (1)
      attributes: half, newton off
      pair build: copy
      stencil: none
      bin: none
Setting up Verlet run ...
  Unit style    : real
  Current step  : 0
  Time step     : 0.5
Per MPI rank memory allocation (min/avg/max) = 112.4 | 113.3 | 114 Mbytes
   Step          Temp          PotEng         Press        f_avgp[1]        Volume    
         0   267.03461     -36712.349      1223.0595      0              3043.4569    
       100   276.06526     -36709.755      8809.4162      7443.9284      3043.4569    
       200   283.48241     -36731.444      4467.1534      8373.4718      3043.4569    
       300   286.83187     -36712.944      3820.8297      425.70174      3043.4569    
       400   321.05258     -36704.34       5073.6306      9150.8273      3043.4569    
       500   317.6875      -36706.723      2602.4892      6386.768       3043.4569    
       600   289.53903     -36698.46       5514.0685      9328.8962      3043.4569    
       700   325.84858     -36722.395      9233.9482      6721.4524      3043.4569    
       800   309.23252     -36723.535      1234.5142      8552.2188      3043.4569    
       900   291.78825     -36717.147      7913.2552      9336.3384      3043.4569    
      1000   299.94823     -36732.579      570.03035      2432.4317      3043.4569    
Loop time of 27.0479 on 64 procs for 1000 steps with 243 atoms

Performance: 1.597 ns/day, 15.027 hours/ns, 36.971 timesteps/s, 8.984 katom-step/s
120.6% CPU use with 8 MPI tasks x 8 OpenMP threads

MPI task timing breakdown:
Section |  min time  |  avg time  |  max time  |%varavg| %total
---------------------------------------------------------------
Pair    | 16.013     | 16.875     | 18.203     |  16.0 | 62.39
Bond    | 0.00015724 | 0.0002032  | 0.00026826 |   0.0 |  0.00
Neigh   | 1.7227     | 1.8244     | 1.885      |   3.4 |  6.75
Comm    | 3.1093     | 4.4556     | 5.3188     |  32.0 | 16.47
Output  | 0.00029736 | 0.00032129 | 0.00043803 |   0.0 |  0.00
Modify  | 3.6107     | 3.6697     | 3.7815     |   2.6 | 13.57
Other   |            | 0.2223     |            |       |  0.82

Nlocal:         30.375 ave          35 max          26 min
Histogram: 1 0 1 1 2 0 1 1 0 1
Nghost:        2702.38 ave        2722 max        2681 min
Histogram: 2 0 0 1 1 0 1 0 1 2
Neighs:        17235.5 ave       19760 max       14816 min
Histogram: 1 0 1 1 2 0 1 1 0 1

Total # of neighbors = 137884
Ave neighs/atom = 567.42387
Ave special neighs/atom = 0
Neighbor list builds = 100
Dangerous builds not checked
  using 8 OpenMP thread(s) per MPI task
Reading restart file ...
  restart file = 2 Aug 2023, LAMMPS = 2 Aug 2023
  restoring atom style full from restart
  triclinic box = (0 0 0) to (14.6913 12.723 15.9631) with tilt (-7.3456 0 0)
WARNING: Triclinic box skew is large. LAMMPS will run inefficiently. (src/domain.cpp:220)
  2 by 2 by 2 MPI processor grid
  pair style reaxff stores no restart info
  243 atoms
Finding 1-2 1-3 1-4 neighbors ...
  special bond factors lj:    0        0        0       
  special bond factors coul:  0        0        0       
     0 = max # of 1-2 neighbors
     0 = max # of 1-3 neighbors
     0 = max # of 1-4 neighbors
     1 = max # of special neighbors
  special bonds CPU = 0.000 seconds
  read_restart CPU = 0.002 seconds
*****Negative-change 4 starts.*****
WARNING: Van der Waals parameters for element SI indicate inner wall+shielding, but earlier atoms indicate a different van der Waals method. This may cause division-by-zero errors. Keeping van der Waals setting for earlier atoms. (src/REAXFF/reaxff_ffield.cpp:251)
WARNING: Van der Waals parameters for element AL indicate inner wall+shielding, but earlier atoms indicate a different van der Waals method. This may cause division-by-zero errors. Keeping van der Waals setting for earlier atoms. (src/REAXFF/reaxff_ffield.cpp:251)
WARNING: Changed valency_val to valency_boc for X (src/REAXFF/reaxff_ffield.cpp:296)
Changing box ...
WARNING: Triclinic box skew is large. LAMMPS will run inefficiently. (src/domain.cpp:220)
  triclinic box = (0 0 0) to (14.6913 12.723 15.9631) with tilt (-7.3456 0 -0.319262)
Neighbor list info ...
  update: every = 10 steps, delay = 0 steps, check = no
  max neighbors/atom: 2000, page size: 100000
  master list distance cutoff = 12
  ghost atom cutoff = 12
  binsize = 6, bins = 4 3 3
  2 neighbor lists, perpetual/occasional/extra = 2 0 0
  (1) pair reaxff, perpetual
      attributes: half, newton off, ghost
      pair build: half/bin/newtoff/ghost
      stencil: full/ghost/bin/3d
      bin: standard
  (2) fix qeq/reaxff, perpetual, copy from (1)
      attributes: half, newton off
      pair build: copy
      stencil: none
      bin: none
Setting up Verlet run ...
  Unit style    : real
  Current step  : 0
  Time step     : 0.5
Per MPI rank memory allocation (min/avg/max) = 114.7 | 115 | 115.4 Mbytes
   Step          Temp          PotEng         Press        f_avgp[1]        Volume    
         0   301.0265      -36596.409      79979.616      0              2983.7813    
       100   332.89332     -36695.995      15913.04       15160.987      2983.7813    
       200   331.66223     -36702.15       8816.2281      13579.862      2983.7813    
       300   300.65617     -36702.402      13955.968      11761.317      2983.7813    
       400   315.40559     -36712.901      7826.6693      10806.463      2983.7813    
       500   286.81527     -36704.534      6739.2645      10866.526      2983.7813    
       600   282.90193     -36725.024      12252.317      3593.7178      2983.7813    
       700   276.65323     -36705.468      6048.7401      12416.816      2983.7813    
       800   283.39885     -36716.195      13919.301      4745.0534      2983.7813    
       900   284.28335     -36715.036      14653.083      8626.1837      2983.7813    
      1000   291.61096     -36695.333      12325.183      14321.493      2983.7813    
      1100   313.61885     -36721.769      6225.6765      4222.2607      2983.7813    
      1200   308.03447     -36705.69       10153.129      7205.2844      2983.7813    
      1300   303.10518     -36710.158      16245.246      8136.6379      2983.7813    
      1400   289.33062     -36691.17       17325.79       20001.934      2983.7813    
      1500   299.6786      -36723.736      13127.643      8197.249       2983.7813    
      1600   288.96827     -36705.383      16438.177      11761.182      2983.7813    
      1700   321.22822     -36716.803      16371.715      15234.041      2983.7813    
      1800   318.2563      -36725.359      17572.279      17353.089      2983.7813    
      1900   312.2515      -36705.781      6915.5412      5916.4878      2983.7813    
      2000   299.26496     -36708.979      17674.756      4976.7296      2983.7813    
Loop time of 55.0142 on 64 procs for 2000 steps with 243 atoms

Performance: 1.571 ns/day, 15.282 hours/ns, 36.354 timesteps/s, 8.834 katom-step/s
120.2% CPU use with 8 MPI tasks x 8 OpenMP threads

MPI task timing breakdown:
Section |  min time  |  avg time  |  max time  |%varavg| %total
---------------------------------------------------------------
Pair    | 32.558     | 34.384     | 36.157     |  17.9 | 62.50
Bond    | 0.00032468 | 0.00041856 | 0.00050155 |   0.0 |  0.00
Neigh   | 3.6564     | 3.7311     | 3.8298     |   3.2 |  6.78
Comm    | 6.8968     | 8.7873     | 10.673     |  37.3 | 15.97
Output  | 0.0030313  | 0.0037847  | 0.0047202  |   1.1 |  0.01
Modify  | 7.5348     | 7.657      | 7.7588     |   2.7 | 13.92
Other   |            | 0.4507     |            |       |  0.82

Nlocal:         30.375 ave          33 max          28 min
Histogram: 1 0 3 0 0 0 1 0 2 1
Nghost:        2719.12 ave        2735 max        2701 min
Histogram: 1 1 2 0 0 0 0 1 1 2
Neighs:        17570.6 ave       19065 max       16207 min
Histogram: 1 0 3 0 0 0 1 2 0 1

Total # of neighbors = 140565
Ave neighs/atom = 578.45679
Ave special neighs/atom = 0
Neighbor list builds = 200
Dangerous builds not checked
*****Equilibration neg4 starts.*****
WARNING: Van der Waals parameters for element SI indicate inner wall+shielding, but earlier atoms indicate a different van der Waals method. This may cause division-by-zero errors. Keeping van der Waals setting for earlier atoms. (src/REAXFF/reaxff_ffield.cpp:251)
WARNING: Van der Waals parameters for element AL indicate inner wall+shielding, but earlier atoms indicate a different van der Waals method. This may cause division-by-zero errors. Keeping van der Waals setting for earlier atoms. (src/REAXFF/reaxff_ffield.cpp:251)
WARNING: Changed valency_val to valency_boc for X (src/REAXFF/reaxff_ffield.cpp:296)
WARNING: New thermo_style command, previous thermo_modify settings will be lost (src/output.cpp:903)
Neighbor list info ...
  update: every = 10 steps, delay = 0 steps, check = no
  max neighbors/atom: 2000, page size: 100000
  master list distance cutoff = 12
  ghost atom cutoff = 12
  binsize = 6, bins = 4 3 3
  2 neighbor lists, perpetual/occasional/extra = 2 0 0
  (1) pair reaxff, perpetual
      attributes: half, newton off, ghost
      pair build: half/bin/newtoff/ghost
      stencil: full/ghost/bin/3d
      bin: standard
  (2) fix qeq/reaxff, perpetual, copy from (1)
      attributes: half, newton off
      pair build: copy
      stencil: none
      bin: none
Setting up Verlet run ...
  Unit style    : real
  Current step  : 0
  Time step     : 0.5
Per MPI rank memory allocation (min/avg/max) = 114.7 | 115 | 115.3 Mbytes
   Step          Temp          PotEng         Press        f_avgp[1]        Volume    
         0   299.26496     -36708.979      17675.402      0              2983.7813    
       100   274.7086      -36701.948      10127.75       12468.297      2983.7813    
       200   293.91426     -36708.534      8603.4057      8853.7809      2983.7813    
       300   319.54146     -36712.917      17972.395      12350.518      2983.7813    
       400   315.07785     -36701.631      13769.369      13161.855      2983.7813    
       500   315.24775     -36713.748      17400.593      12512.998      2983.7813    
       600   313.84153     -36714.634      16859.964      19726.433      2983.7813    
       700   269.19211     -36698.724      9767.624       7230.247       2983.7813    
       800   296.01117     -36703.992      13966.719      9719.4836      2983.7813    
       900   289.56958     -36700.187      11667.751      15858.981      2983.7813    
      1000   310.75581     -36705.788      9986.7121      7786.6765      2983.7813    
Loop time of 27.0028 on 64 procs for 1000 steps with 243 atoms

Performance: 1.600 ns/day, 15.002 hours/ns, 37.033 timesteps/s, 8.999 katom-step/s
120.6% CPU use with 8 MPI tasks x 8 OpenMP threads

MPI task timing breakdown:
Section |  min time  |  avg time  |  max time  |%varavg| %total
---------------------------------------------------------------
Pair    | 16.482     | 17.083     | 18.099     |  12.7 | 63.26
Bond    | 0.00016507 | 0.00020209 | 0.00025226 |   0.0 |  0.00
Neigh   | 1.7807     | 1.8213     | 1.9249     |   3.1 |  6.74
Comm    | 3.0046     | 4.0408     | 4.6646     |  27.3 | 14.96
Output  | 0.0002774  | 0.0003146  | 0.00044663 |   0.0 |  0.00
Modify  | 3.7103     | 3.8341     | 3.8887     |   2.7 | 14.20
Other   |            | 0.2229     |            |       |  0.83

Nlocal:         30.375 ave          33 max          28 min
Histogram: 2 0 2 0 0 0 1 0 1 2
Nghost:        2723.25 ave        2745 max        2697 min
Histogram: 1 1 0 1 0 1 1 1 1 1
Neighs:        17559.2 ave       19050 max       16207 min
Histogram: 2 1 1 0 0 0 1 1 0 2

Total # of neighbors = 140474
Ave neighs/atom = 578.0823
Ave special neighs/atom = 0
Neighbor list builds = 100
Dangerous builds not checked
  using 8 OpenMP thread(s) per MPI task
Reading restart file ...
  restart file = 2 Aug 2023, LAMMPS = 2 Aug 2023
  restoring atom style full from restart
  triclinic box = (0 0 0) to (14.6913 12.723 15.9631) with tilt (-7.3456 0 0)
WARNING: Triclinic box skew is large. LAMMPS will run inefficiently. (src/domain.cpp:220)
  2 by 2 by 2 MPI processor grid
  pair style reaxff stores no restart info
  243 atoms
Finding 1-2 1-3 1-4 neighbors ...
  special bond factors lj:    0        0        0       
  special bond factors coul:  0        0        0       
     0 = max # of 1-2 neighbors
     0 = max # of 1-3 neighbors
     0 = max # of 1-4 neighbors
     1 = max # of special neighbors
  special bonds CPU = 0.000 seconds
  read_restart CPU = 0.003 seconds
*****Positive-change 4 starts.*****
WARNING: Van der Waals parameters for element SI indicate inner wall+shielding, but earlier atoms indicate a different van der Waals method. This may cause division-by-zero errors. Keeping van der Waals setting for earlier atoms. (src/REAXFF/reaxff_ffield.cpp:251)
WARNING: Van der Waals parameters for element AL indicate inner wall+shielding, but earlier atoms indicate a different van der Waals method. This may cause division-by-zero errors. Keeping van der Waals setting for earlier atoms. (src/REAXFF/reaxff_ffield.cpp:251)
WARNING: Changed valency_val to valency_boc for X (src/REAXFF/reaxff_ffield.cpp:296)
Changing box ...
WARNING: Triclinic box skew is large. LAMMPS will run inefficiently. (src/domain.cpp:220)
  triclinic box = (0 0 0) to (14.6913 12.723 15.9631) with tilt (-7.3456 0 0.319262)
Neighbor list info ...
  update: every = 10 steps, delay = 0 steps, check = no
  max neighbors/atom: 2000, page size: 100000
  master list distance cutoff = 12
  ghost atom cutoff = 12
  binsize = 6, bins = 4 3 3
  2 neighbor lists, perpetual/occasional/extra = 2 0 0
  (1) pair reaxff, perpetual
      attributes: half, newton off, ghost
      pair build: half/bin/newtoff/ghost
      stencil: full/ghost/bin/3d
      bin: standard
  (2) fix qeq/reaxff, perpetual, copy from (1)
      attributes: half, newton off
      pair build: copy
      stencil: none
      bin: none
Setting up Verlet run ...
  Unit style    : real
  Current step  : 0
  Time step     : 0.5
Per MPI rank memory allocation (min/avg/max) = 114.7 | 115 | 115.4 Mbytes
   Step          Temp          PotEng         Press        f_avgp[1]        Volume    
         0   301.0265      -36563.964      89503.624      0              2983.7813    
       100   349.16369     -36662.4        15257.881      19787.399      2983.7813    
       200   359.57802     -36707.192      5946.807       10103.381      2983.7813    
       300   317.29632     -36717.845      14628.707      16900.882      2983.7813    
       400   285.76245     -36712.596      8396.5762      14167.026      2983.7813    
       500   314.00566     -36718.442      13263.62       14529.032      2983.7813    
       600   298.57683     -36716.83       10539.851      10029.507      2983.7813    
       700   303.56075     -36718.786      10225.415      7024.5568      2983.7813    
       800   267.13673     -36714.536      15566.11       7596.0304      2983.7813    
       900   320.05761     -36710.007      7202.4934      13309.551      2983.7813    
      1000   316.33443     -36699.59       17627.59       12777.91       2983.7813    
      1100   322.06539     -36716.963      12384.093      16332.927      2983.7813    
      1200   298.6237      -36714.237      10094.84       9678.8943      2983.7813    
      1300   316.61633     -36719.244      13034.172      14688.897      2983.7813    
      1400   290.0361      -36696.462      8239.3083      9245.1571      2983.7813    
      1500   277.95657     -36711.689      13267.27       4167.7322      2983.7813    
      1600   286.90396     -36716.734      5637.9642      12060.172      2983.7813    
      1700   292.18271     -36719.897      15020.686      9249.3078      2983.7813    
      1800   312.85244     -36706.439      11851.332      11372.85       2983.7813    
      1900   304.2997      -36690.946      17877.674      11694.475      2983.7813    
      2000   307.11767     -36724.852      11938.266      14748.986      2983.7813    
Loop time of 55.1327 on 64 procs for 2000 steps with 243 atoms

Performance: 1.567 ns/day, 15.315 hours/ns, 36.276 timesteps/s, 8.815 katom-step/s
120.1% CPU use with 8 MPI tasks x 8 OpenMP threads

MPI task timing breakdown:
Section |  min time  |  avg time  |  max time  |%varavg| %total
---------------------------------------------------------------
Pair    | 32.849     | 34.328     | 36.137     |  18.1 | 62.26
Bond    | 0.00032177 | 0.00041494 | 0.00050806 |   0.0 |  0.00
Neigh   | 3.5917     | 3.6716     | 3.8559     |   4.3 |  6.66
Comm    | 6.9916     | 8.9252     | 10.388     |  38.5 | 16.19
Output  | 0.0029505  | 0.0037077  | 0.004595   |   1.1 |  0.01
Modify  | 7.6518     | 7.7795     | 7.8933     |   3.1 | 14.11
Other   |            | 0.4244     |            |       |  0.77

Nlocal:         30.375 ave          33 max          26 min
Histogram: 1 0 1 0 0 2 0 1 1 2
Nghost:        2727.62 ave        2751 max        2698 min
Histogram: 2 0 0 0 0 2 1 1 0 2
Neighs:        17571.4 ave       19086 max       15109 min
Histogram: 1 0 1 0 0 2 0 1 1 2

Total # of neighbors = 140571
Ave neighs/atom = 578.48148
Ave special neighs/atom = 0
Neighbor list builds = 200
Dangerous builds not checked
*****Equilibration pos4 starts.*****
WARNING: Van der Waals parameters for element SI indicate inner wall+shielding, but earlier atoms indicate a different van der Waals method. This may cause division-by-zero errors. Keeping van der Waals setting for earlier atoms. (src/REAXFF/reaxff_ffield.cpp:251)
WARNING: Van der Waals parameters for element AL indicate inner wall+shielding, but earlier atoms indicate a different van der Waals method. This may cause division-by-zero errors. Keeping van der Waals setting for earlier atoms. (src/REAXFF/reaxff_ffield.cpp:251)
WARNING: Changed valency_val to valency_boc for X (src/REAXFF/reaxff_ffield.cpp:296)
WARNING: New thermo_style command, previous thermo_modify settings will be lost (src/output.cpp:903)
Neighbor list info ...
  update: every = 10 steps, delay = 0 steps, check = no
  max neighbors/atom: 2000, page size: 100000
  master list distance cutoff = 12
  ghost atom cutoff = 12
  binsize = 6, bins = 4 3 3
  2 neighbor lists, perpetual/occasional/extra = 2 0 0
  (1) pair reaxff, perpetual
      attributes: half, newton off, ghost
      pair build: half/bin/newtoff/ghost
      stencil: full/ghost/bin/3d
      bin: standard
  (2) fix qeq/reaxff, perpetual, copy from (1)
      attributes: half, newton off
      pair build: copy
      stencil: none
      bin: none
Setting up Verlet run ...
  Unit style    : real
  Current step  : 0
  Time step     : 0.5
Per MPI rank memory allocation (min/avg/max) = 114.7 | 115 | 115.3 Mbytes
   Step          Temp          PotEng         Press        f_avgp[1]        Volume    
         0   307.11767     -36724.852      11938.496      0              2983.7813    
       100   300.27295     -36714.411      14082.149      14832.927      2983.7813    
       200   312.7936      -36707.384      11552.348      10597.097      2983.7813    
       300   295.5406      -36714.54       12665.3        7575.7713      2983.7813    
       400   297.55909     -36715.693      19274.379      16772.189      2983.7813    
[...]
Neigh   | 3.5369     | 3.6376     | 3.8045     |   4.2 |  6.64
Comm    | 7.1247     | 8.5905     | 9.7453     |  31.7 | 15.68
Output  | 0.0030238  | 0.0037584  | 0.0046799  |   1.1 |  0.01
Modify  | 7.4642     | 7.6435     | 7.7221     |   3.1 | 13.96
Other   |            | 0.4523     |            |       |  0.83

Nlocal:         30.375 ave          34 max          26 min
Histogram: 1 1 0 1 0 0 1 3 0 1
Nghost:        2712.62 ave        2719 max        2702 min
Histogram: 1 1 0 0 1 0 0 1 2 2
Neighs:        17561.6 ave       19601 max       15064 min
Histogram: 1 1 0 1 0 0 1 3 0 1

Total # of neighbors = 140493
Ave neighs/atom = 578.16049
Ave special neighs/atom = 0
Neighbor list builds = 200
Dangerous builds not checked
*****Equilibration pos5 starts.*****
WARNING: Van der Waals parameters for element SI indicate inner wall+shielding, but earlier atoms indicate a different van der Waals method. This may cause division-by-zero errors. Keeping van der Waals setting for earlier atoms. (src/REAXFF/reaxff_ffield.cpp:251)
Neighbor list info ...
  update: every = 10 steps, delay = 0 steps, check = no
  max neighbors/atom: 2000, page size: 100000
  master list distance cutoff = 12
  ghost atom cutoff = 12
  binsize = 6, bins = 4 3 3
  2 neighbor lists, perpetual/occasional/extra = 2 0 0
  (1) pair reaxff, perpetual
      attributes: half, newton off, ghost
      pair build: half/bin/newtoff/ghost
      stencil: full/ghost/bin/3d
      bin: standard
  (2) fix qeq/reaxff, perpetual, copy from (1)
      attributes: half, newton off
      pair build: copy
      stencil: none
      bin: none
Setting up Verlet run ...
  Unit style    : real
  Current step  : 0
  Time step     : 0.5
Per MPI rank memory allocation (min/avg/max) = 114.7 | 115 | 115.4 Mbytes
   Step          Temp          PotEng         Press        f_avgp[1]        Volume    
WARNING: Too many warnings: 103 vs 100. All future warnings will be suppressed (src/thermo.cpp:472)
         0   287.69459     -36730.251      7582.4465      0              2983.7813    
       100   294.12271     -36719.352      8391.2774      2779.7698      2983.7813    
       200   301.19489     -36729.823      11034.793      5844.0048      2983.7813    
       300   298.15357     -36712.696      12803.211      12949.615      2983.7813    
       400   289.3814      -36693.707      9967.2371      8409.2653      2983.7813    
       500   287.35045     -36712.665      12599.621      9218.7538      2983.7813    
       600   316.23689     -36726.659      14073.392      12764.676      2983.7813    
       700   296.12108     -36704.833      9749.7376      2075.1161      2983.7813    
       800   293.6543      -36715.666      12732.008      7211.0786      2983.7813    
       900   303.85665     -36711.648      13121.546      7741.9628      2983.7813    
      1000   285.07495     -36706.934      11690.069      13923.525      2983.7813    
Loop time of 27.1095 on 64 procs for 1000 steps with 243 atoms

Performance: 1.594 ns/day, 15.061 hours/ns, 36.887 timesteps/s, 8.964 katom-step/s
120.4% CPU use with 8 MPI tasks x 8 OpenMP threads

MPI task timing breakdown:
Section |  min time  |  avg time  |  max time  |%varavg| %total
---------------------------------------------------------------
Pair    | 16.902     | 17.231     | 17.664     |   5.9 | 63.56
Bond    | 0.00015704 | 0.00020803 | 0.00025754 |   0.0 |  0.00
Neigh   | 1.8036     | 1.8453     | 1.9179     |   2.6 |  6.81
Comm    | 3.5921     | 4.089      | 4.4453     |  13.2 | 15.08
Output  | 0.0003108  | 0.00033537 | 0.00046043 |   0.0 |  0.00
Modify  | 3.62       | 3.7221     | 3.7811     |   2.8 | 13.73
Other   |            | 0.2213     |            |       |  0.82

Nlocal:         30.375 ave          33 max          28 min
Histogram: 2 0 0 0 2 0 2 0 1 1
Nghost:        2720.25 ave        2738 max        2702 min
Histogram: 2 0 2 0 0 0 1 0 1 2
Neighs:        17571.1 ave       19039 max       16204 min
Histogram: 2 0 0 0 2 1 1 0 1 1

Total # of neighbors = 140569
Ave neighs/atom = 578.47325
Ave special neighs/atom = 0
Neighbor list builds = 100
Dangerous builds not checked
  using 8 OpenMP thread(s) per MPI task
Reading restart file ...
  restart file = 2 Aug 2023, LAMMPS = 2 Aug 2023
  restoring atom style full from restart
  triclinic box = (0 0 0) to (14.6913 12.723 15.9631) with tilt (-7.3456 0 0)
  2 by 2 by 2 MPI processor grid
  pair style reaxff stores no restart info
  243 atoms
Finding 1-2 1-3 1-4 neighbors ...
  special bond factors lj:    0        0        0       
  special bond factors coul:  0        0        0       
     0 = max # of 1-2 neighbors
     0 = max # of 1-3 neighbors
     0 = max # of 1-4 neighbors
     1 = max # of special neighbors
  special bonds CPU = 0.000 seconds
  read_restart CPU = 0.003 seconds
*****Negative-change 6 starts.*****
Changing box ...
  triclinic box = (0 0 0) to (14.6913 12.723 15.9631) with tilt (-7.60006 0 0)
Neighbor list info ...
  update: every = 10 steps, delay = 0 steps, check = no
  max neighbors/atom: 2000, page size: 100000
  master list distance cutoff = 12
  ghost atom cutoff = 12
  binsize = 6, bins = 4 3 3
  2 neighbor lists, perpetual/occasional/extra = 2 0 0
  (1) pair reaxff, perpetual
      attributes: half, newton off, ghost
      pair build: half/bin/newtoff/ghost
      stencil: full/ghost/bin/3d
      bin: standard
  (2) fix qeq/reaxff, perpetual, copy from (1)
      attributes: half, newton off
      pair build: copy
      stencil: none
      bin: none
Setting up Verlet run ...
  Unit style    : real
  Current step  : 0
  Time step     : 0.5
Per MPI rank memory allocation (min/avg/max) = 115.2 | 115.7 | 116.2 Mbytes
   Step          Temp          PotEng         Press        f_avgp[1]        Volume    
WARNING: Too many warnings: 108 vs 100. All future warnings will be suppressed (src/thermo.cpp:472)
         0   301.0265      -36652.202      50438.504      0              2983.7813    
       100   315.52153     -36695.474      9634.1432      14465.218      2983.7813    
       200   300.6096      -36695.287      17352.079      14221.042      2983.7813    
       300   277.89342     -36685.389      14381.132      10727.99       2983.7813    
       400   294.85855     -36714.056     -330.73793      714.72168      2983.7813    
       500   298.33229     -36729.455      13190.476      8650.4208      2983.7813    
       600   283.45727     -36711.701      17583.641      15685.114      2983.7813    
       700   315.80724     -36715.36       10715.167      9100.4183      2983.7813    
       800   294.52739     -36714.638      9581.2943      8793.784       2983.7813    
       900   305.35856     -36725.146      12343.203      7906.6076      2983.7813    
      1000   318.69445     -36721.823      10246.97       2993.4282      2983.7813    
      1100   297.81369     -36733.03       15248.654      5892.8567      2983.7813    
      1200   313.77831     -36717.396      7608.2132      12643.141      2983.7813    
      1300   299.95692     -36708.04       12767.277      12808.24       2983.7813    
      1400   307.93569     -36704.333      14842.136      10892.818      2983.7813    
      1500   283.48824     -36711.913      14783.233      15199.833      2983.7813    
      1600   311.81624     -36692.577      18522.847      16695.132      2983.7813    
      1700   346.59326     -36725.258      10526.292      10184.546      2983.7813    
      1800   314.10269     -36715.365      8565.7232      7493.1644      2983.7813    
      1900   274.56357     -36691.414      7430.0494      2502.5319      2983.7813    
      2000   324.87939     -36705.336      9886.2607      3586.0097      2983.7813    
Loop time of 54.6248 on 64 procs for 2000 steps with 243 atoms

Performance: 1.582 ns/day, 15.174 hours/ns, 36.613 timesteps/s, 8.897 katom-step/s
120.1% CPU use with 8 MPI tasks x 8 OpenMP threads

MPI task timing breakdown:
Section |  min time  |  avg time  |  max time  |%varavg| %total
---------------------------------------------------------------
Pair    | 33.185     | 34.518     | 35.608     |  16.6 | 63.19
Bond    | 0.00032033 | 0.00042097 | 0.0005483  |   0.0 |  0.00
Neigh   | 3.5919     | 3.6917     | 3.7697     |   2.8 |  6.76
Comm    | 7.2935     | 8.5191     | 9.8954     |  35.4 | 15.60
Output  | 0.0030461  | 0.0038548  | 0.004854   |   1.2 |  0.01
Modify  | 7.3887     | 7.4562     | 7.5574     |   2.2 | 13.65
Other   |            | 0.4352     |            |       |  0.80

Nlocal:         30.375 ave          33 max          27 min
Histogram: 2 0 0 1 0 0 1 0 3 1
Nghost:        2739.75 ave        2755 max        2721 min
Histogram: 1 1 1 0 0 1 1 1 0 2
Neighs:        17581.1 ave       19040 max       15684 min
Histogram: 2 0 0 1 0 0 1 0 3 1

Total # of neighbors = 140649
Ave neighs/atom = 578.80247
Ave special neighs/atom = 0
Neighbor list builds = 200
Dangerous builds not checked
*****Equilibration neg6 starts.*****
Neighbor list info ...
  update: every = 10 steps, delay = 0 steps, check = no
  max neighbors/atom: 2000, page size: 100000
  master list distance cutoff = 12
  ghost atom cutoff = 12
  binsize = 6, bins = 4 3 3
  2 neighbor lists, perpetual/occasional/extra = 2 0 0
  (1) pair reaxff, perpetual
      attributes: half, newton off, ghost
      pair build: half/bin/newtoff/ghost
      stencil: full/ghost/bin/3d
      bin: standard
  (2) fix qeq/reaxff, perpetual, copy from (1)
      attributes: half, newton off
      pair build: copy
      stencil: none
      bin: none
Setting up Verlet run ...
  Unit style    : real
  Current step  : 0
  Time step     : 0.5
Per MPI rank memory allocation (min/avg/max) = 115.2 | 115.7 | 116.2 Mbytes
   Step          Temp          PotEng         Press        f_avgp[1]        Volume    
WARNING: Too many warnings: 112 vs 100. All future warnings will be suppressed (src/thermo.cpp:472)
         0   324.87939     -36705.335      9886.4034      0              2983.7813    
       100   294.37398     -36724.713      15977.14       16356.374      2983.7813    
       200   289.56832     -36705.002      13443.36       9301.0418      2983.7813    
       300   272.00079     -36709.239      14136.686      9219.9656      2983.7813    
       400   301.48839     -36713.152      6968.0814      10998.378      2983.7813    
       500   320.67376     -36719.081      18573.319      17805.413      2983.7813    
       600   315.90109     -36705.858      16483.526      13143.257      2983.7813    
       700   279.00847     -36691.915      8613.3836      4783.4335      2983.7813    
       800   272.10136     -36715.445      14333.101      7961.2352      2983.7813    
       900   301.4045      -36696.282      9844.9063      13838.36       2983.7813    
      1000   308.20164     -36722.531      12308.905      9090.6779      2983.7813    
Loop time of 27.4057 on 64 procs for 1000 steps with 243 atoms

Performance: 1.576 ns/day, 15.225 hours/ns, 36.489 timesteps/s, 8.867 katom-step/s
120.5% CPU use with 8 MPI tasks x 8 OpenMP threads

MPI task timing breakdown:
Section |  min time  |  avg time  |  max time  |%varavg| %total
---------------------------------------------------------------
Pair    | 16.301     | 17.292     | 18.096     |  12.2 | 63.10
Bond    | 0.00015513 | 0.00020695 | 0.00026585 |   0.0 |  0.00
Neigh   | 1.7357     | 1.8239     | 1.9196     |   3.6 |  6.66
Comm    | 3.4932     | 4.3305     | 5.341      |  25.5 | 15.80
Output  | 0.00033484 | 0.00035916 | 0.00049103 |   0.0 |  0.00
Modify  | 3.6536     | 3.7335     | 3.8024     |   2.1 | 13.62
Other   |            | 0.2251     |            |       |  0.82

Nlocal:         30.375 ave          33 max          27 min
Histogram: 1 1 0 1 0 0 2 0 2 1
Nghost:        2732.62 ave        2747 max        2718 min
Histogram: 2 0 1 0 1 0 1 1 0 2
Neighs:        17575.9 ave       19059 max       15673 min
Histogram: 1 1 0 1 0 0 2 0 2 1

Total # of neighbors = 140607
Ave neighs/atom = 578.62963
Ave special neighs/atom = 0
Neighbor list builds = 100
Dangerous builds not checked
  using 8 OpenMP thread(s) per MPI task
Reading restart file ...
  restart file = 2 Aug 2023, LAMMPS = 2 Aug 2023
  restoring atom style full from restart
  triclinic box = (0 0 0) to (14.6913 12.723 15.9631) with tilt (-7.3456 0 0)
  2 by 2 by 2 MPI processor grid
  pair style reaxff stores no restart info
  243 atoms
Finding 1-2 1-3 1-4 neighbors ...
  special bond factors lj:    0        0        0       
  special bond factors coul:  0        0        0       
     0 = max # of 1-2 neighbors
     0 = max # of 1-3 neighbors
     0 = max # of 1-4 neighbors
     1 = max # of special neighbors
  special bonds CPU = 0.000 seconds
  read_restart CPU = 0.003 seconds
*****Positive-change 6 starts.*****
Changing box ...
  triclinic box = (0 0 0) to (14.6913 12.723 15.9631) with tilt (-7.09114 0 0)
Neighbor list info ...
  update: every = 10 steps, delay = 0 steps, check = no
  max neighbors/atom: 2000, page size: 100000
  master list distance cutoff = 12
  ghost atom cutoff = 12
  binsize = 6, bins = 4 3 3
  2 neighbor lists, perpetual/occasional/extra = 2 0 0
  (1) pair reaxff, perpetual
      attributes: half, newton off, ghost
      pair build: half/bin/newtoff/ghost
      stencil: full/ghost/bin/3d
      bin: standard
  (2) fix qeq/reaxff, perpetual, copy from (1)
      attributes: half, newton off
      pair build: copy
      stencil: none
      bin: none
Setting up Verlet run ...
  Unit style    : real
  Current step  : 0
  Time step     : 0.5
Per MPI rank memory allocation (min/avg/max) = 114.3 | 114.6 | 114.9 Mbytes
   Step          Temp          PotEng         Press        f_avgp[1]        Volume    
WARNING: Too many warnings: 117 vs 100. All future warnings will be suppressed (src/thermo.cpp:472)
         0   301.0265      -36666.61       48389.581      0              2983.7813    
       100   305.80089     -36681.161      11290.433      12319.161      2983.7813    
       200   321.87289     -36704.78       6439.0867      11991.145      2983.7813    
       300   340.58232     -36703.819      18623.098      13498.667      2983.7813    
       400   329.31232     -36712.956      13190.898      12349.091      2983.7813    
       500   302.81827     -36712.606      7204.7329      11444.074      2983.7813    
       600   334.59337     -36715.861      9415.2632      8934.3449      2983.7813    
       700   333.55747     -36704.857      19375.305      7704.0218      2983.7813    
       800   317.80545     -36709.644      14618.829      11798.788      2983.7813    
       900   285.96865     -36692.682      8937.1877      8285.8447      2983.7813    
      1000   304.14587     -36708.838      14475.971      12101.876      2983.7813    
      1100   282.34249     -36702.677      12808.141      12312.675      2983.7813    
      1200   287.08903     -36710.839      11489.894      8050.4593      2983.7813    
      1300   314.36902     -36710.882      12223.996      13777.456      2983.7813    
      1400   310.42979     -36710.858      5665.1166      11181.443      2983.7813    
      1500   306.09698     -36701.015      11845.667      10289.488      2983.7813    
      1600   298.50203     -36705.381      15450.689      8533.0768      2983.7813    
      1700   336.9343      -36711.09       12332.252      11230.976      2983.7813    
      1800   307.79825     -36716.105      15696.004      14175.133      2983.7813    
      1900   308.25653     -36710.914      8579.0833      6116.3173      2983.7813    
      2000   298.83736     -36694.312      12951.013      14617.989      2983.7813    
Loop time of 54.2074 on 64 procs for 2000 steps with 243 atoms

Performance: 1.594 ns/day, 15.058 hours/ns, 36.895 timesteps/s, 8.966 katom-step/s
120.5% CPU use with 8 MPI tasks x 8 OpenMP threads

MPI task timing breakdown:
Section |  min time  |  avg time  |  max time  |%varavg| %total
---------------------------------------------------------------
Pair    | 33.111     | 34.325     | 36.557     |  17.6 | 63.32
Bond    | 0.00031604 | 0.00039798 | 0.00045656 |   0.0 |  0.00
Neigh   | 3.4916     | 3.5871     | 3.7953     |   4.4 |  6.62
Comm    | 6.0476     | 8.3592     | 9.645      |  37.9 | 15.42
Output  | 0.0030465  | 0.0038342  | 0.0047921  |   1.1 |  0.01
Modify  | 7.2924     | 7.498      | 7.5538     |   3.0 | 13.83
Other   |            | 0.4343     |            |       |  0.80

Nlocal:         30.375 ave          32 max          27 min
Histogram: 1 0 1 0 0 0 0 0 4 2
Nghost:        2708.75 ave        2715 max        2703 min
Histogram: 1 1 1 0 1 2 0 0 0 2
Neighs:        17587.1 ave       18514 max       15690 min
Histogram: 1 1 0 0 0 0 0 4 0 2

Total # of neighbors = 140697
Ave neighs/atom = 579
Ave special neighs/atom = 0
Neighbor list builds = 200
Dangerous builds not checked
*****Equilibration pos6 starts.*****
Neighbor list info ...
  update: every = 10 steps, delay = 0 steps, check = no
  max neighbors/atom: 2000, page size: 100000
  master list distance cutoff = 12
  ghost atom cutoff = 12
  binsize = 6, bins = 4 3 3
  2 neighbor lists, perpetual/occasional/extra = 2 0 0
  (1) pair reaxff, perpetual
      attributes: half, newton off, ghost
      pair build: half/bin/newtoff/ghost
      stencil: full/ghost/bin/3d
      bin: standard
  (2) fix qeq/reaxff, perpetual, copy from (1)
      attributes: half, newton off
      pair build: copy
      stencil: none
      bin: none
Setting up Verlet run ...
  Unit style    : real
  Current step  : 0
  Time step     : 0.5
Per MPI rank memory allocation (min/avg/max) = 114.3 | 114.6 | 115 Mbytes
   Step          Temp          PotEng         Press        f_avgp[1]        Volume    
WARNING: Too many warnings: 121 vs 100. All future warnings will be suppressed (src/thermo.cpp:472)
         0   298.83736     -36694.311      12952.343      0              2983.7813    
       100   293.23347     -36725.088      22079.155      19669.076      2983.7813    
       200   293.89809     -36716.599      14208.294      11752.016      2983.7813    
       300   280.01831     -36709.618      8356.3423      12664.059      2983.7813    
       400   285.80665     -36727.416      13745.883      14230.412      2983.7813    
       500   254.25085     -36724.33       15803.57       10437.581      2983.7813    
       600   289.46728     -36716.752      8616.1181      11818.029      2983.7813    
       700   285.1079      -36727.167      14752.996      14193.995      2983.7813    
       800   277.7166      -36706.47       11920.187      13006.105      2983.7813    
       900   317.97804     -36710.18       8003.286       4436.6935      2983.7813    
      1000   299.30814     -36714.448      12045.683      11322.301      2983.7813    
Loop time of 27.4113 on 64 procs for 1000 steps with 243 atoms

Performance: 1.576 ns/day, 15.228 hours/ns, 36.481 timesteps/s, 8.865 katom-step/s
119.9% CPU use with 8 MPI tasks x 8 OpenMP threads

MPI task timing breakdown:
Section |  min time  |  avg time  |  max time  |%varavg| %total
---------------------------------------------------------------
Pair    | 16.564     | 17.3       | 18.243     |  11.4 | 63.11
Bond    | 0.00015269 | 0.00020105 | 0.00023968 |   0.0 |  0.00
Neigh   | 1.7469     | 1.7919     | 1.833      |   2.2 |  6.54
Comm    | 3.3664     | 4.3358     | 5.1215     |  24.2 | 15.82
Output  | 0.00029753 | 0.00031815 | 0.00044505 |   0.0 |  0.00
Modify  | 3.728      | 3.7765     | 3.8101     |   1.3 | 13.78
Other   |            | 0.2065     |            |       |  0.75

Nlocal:         30.375 ave          34 max          26 min
Histogram: 1 1 1 0 0 0 1 2 1 1
Nghost:        2710.75 ave        2718 max        2700 min
Histogram: 1 0 0 1 1 0 2 1 0 2
Neighs:        17575.9 ave       19620 max       15123 min
Histogram: 1 1 1 0 0 0 1 2 1 1

Total # of neighbors = 140607
Ave neighs/atom = 578.62963
Ave special neighs/atom = 0
Neighbor list builds = 100
Dangerous builds not checked
Total wall time: 0:16:55
