ITEM: TIMESTEP
0
ITEM: NUMBER OF ATOMS
366
ITEM: BOX BOUNDS xy xz yz pp pp pp
-8.2538999999999998e+00 1.6741099999999999e+01 -8.2538999999999998e+00
-6.4260899999999999e-01 1.3288176000000000e+01 6.1619999999999997e-01
0.0000000000000000e+00 1.6908999999999999e+01 -6.4260899999999999e-01
ITEM: ATOMS id type x y z
3 4 0.740122 2.634 4.82368
8 4 -0.35638 4.35421 7.32233
361 2 3.77855 0.423769 0.785351
21 4 3.92798 2.03575 4.65105
239 2 2.42639 6.33378 4.51404
312 2 1.31538 0.368033 5.95372
338 1 2.78485 2.11578 0.264619
64 1 0.723918 3.64218 3.2538
65 1 -0.265466 0.95994 4.76442
67 1 -1.7815 5.46593 6.89914
70 1 3.93923 0.437059 3.77326
71 1 4.1183 3.16968 3.05801
78 1 2.82412 5.54244 5.25268
98 3 -0.000127053 3.52464 5.84915
114 3 2.47147 2.27077 5.20092
115 3 7.19105 0.903877 1.1331
118 3 5.39597 2.00701 5.49452
119 3 7.12597 0.365023 6.84508
220 2 4.85505 4.14838 3.37792
125 3 1.23032 5.32794 7.7154
25 4 6.91878 1.93572 6.25193
201 2 -0.0842521 4.45724 3.44965
202 2 0.370619 2.74604 2.59582
203 2 1.80952 4.10094 3.00012
204 2 0.308256 -0.0147551 4.51704
341 2 3.2 2.48855 1.33803
339 2 2.31076 1.0516 0.298145
97 3 -1.06596 3.33176 8.4287
209 2 -1.95677 5.54406 5.73007
290 2 -1.4824 6.32935 4.24815
217 2 3.57388 0.891085 2.74451
218 2 2.99201 3.48497 2.81614
219 2 4.67148 2.55068 2.22784
311 2 0.272508 0.352822 7.64034
344 2 4.20588 4.82941 0.396155
241 2 3.06104 4.61882 4.7164
216 2 5.02188 0.0737797 3.63808
288 1 -2.14509 5.61195 3.66059
291 2 -1.63449 5.37871 2.60377
292 2 -2.39481 4.56371 4.20819
359 2 -1.02192 3.90889 0.206151
310 1 1.28556 0.603791 7.13968
240 2 2.11823 5.42462 6.17267
313 2 1.71294 1.6584 7.32452
317 1 -1.26651 4.96466 0.641894
318 2 -0.507936 5.14399 1.39281
319 2 -2.30789 4.9379 1.11938
208 2 -2.71135 5.01856 7.46269
6 4 1.13456 1.68674 10.9333
120 3 6.13125 1.4689 16.2964
334 1 1.95254 0.459047 14.0684
10 4 -0.025379 3.79774 13.136
315 2 0.896829 2.0296 16.5568
24 4 3.9211 1.96324 9.64492
336 2 2.60191 1.43638 13.9195
27 4 6.72661 1.49222 11.5425
32 4 1.63638 5.8648 14.4766
76 1 1.05566 5.11351 10.4144
81 1 4.50686 5.02606 11.3686
95 3 -0.148725 1.5042 10.01
96 3 1.51152 0.289492 11.5873
128 3 3.19695 5.87311 15.495
99 3 -0.866903 2.93596 14.2069
100 3 0.541716 2.79788 12.0192
335 2 0.90418 0.75924 14.1556
102 3 -2.28553 6.03925 10.2341
103 3 -0.900122 5.01815 12.5405
116 3 3.49921 0.645667 8.90002
117 3 2.60093 2.51794 10.3389
121 3 5.19388 1.58729 10.8031
122 3 6.80951 0.162463 12.5647
123 3 4.70721 3.12605 8.76842
127 3 1.38393 4.43647 13.8283
340 2 2.76406 2.22028 16.6761
233 2 1.67533 4.1756 10.33
234 2 -0.0555265 4.96835 10.138
235 2 1.16104 5.59395 11.3926
249 2 3.87213 4.38528 10.627
250 2 3.99795 5.29035 12.3693
296 4 4.71653 1.45161 15.6314
297 1 4.84642 -0.12208 14.6978
298 1 4.29861 3.06468 14.5302
7 4 -0.854221 5.9397 16.4782
300 2 4.43769 0.368492 13.7105
337 2 2.23315 -0.16834 15.0423
302 2 4.50439 2.69209 13.4127
303 2 5.01867 3.86614 14.8427
304 2 3.24019 3.39578 14.6198
226 2 5.94392 3.08676 13.3325
314 1 -0.0649804 1.37679 16.4169
30 4 1.77558 6.11008 8.92365
316 2 0.17465 0.330828 16.0325
129 3 0.465896 5.94441 15.5161
332 1 -3.97483 12.7156 1.11291
15 4 -3.17774 8.85286 7.73832
17 4 -4.49264 10.8966 5.8916
293 2 -3.12157 7.45116 1.3847
35 4 -1.86349 11.2237 3.97607
257 2 2.31307 9.13178 6.48256
69 1 -2.41249 8.25553 6.10133
82 1 2.16793 7.66167 2.84455
83 1 -2.03343 9.67564 2.89428
84 1 1.42925 9.13369 5.64874
106 3 -5.86473 10.7902 4.80349
107 3 -4.27961 9.77947 6.98164
108 3 -4.72754 12.2604 6.72209
132 3 -1.72709 12.5713 3.2517
133 3 -3.14005 11.0238 4.9145
134 3 1.14662 9.79543 1.22464
138 3 -0.216734 10.9057 4.72739
213 2 -2.52074 8.9077 5.20297
214 2 -2.86059 7.26543 5.88616
215 2 -1.30949 8.13677 6.30702
230 2 1.2387 8.34465 7.5806
135 3 -1.76518 9.67748 8.45255
331 2 -5.84183 9.76272 1.77082
289 1 -4.05157 6.9105 1.64546
252 2 2.1954 6.83025 2.09313
253 2 1.13674 7.89082 3.36652
254 2 -2.02908 10.207 1.87315
255 2 -2.97665 9.11105 3.1237
256 2 -1.14718 9.03004 3.10203
36 4 0.657223 10.975 0.0882647
258 2 1.74176 8.58995 4.58084
259 2 0.469272 8.8307 6.06795
23 4 -0.13613 12.9561 7.86544
1 4 -5.61127 12.802 7.92704
360 2 -2.81862 12.7127 1.1295
320 1 -1.31197 8.04459 0.799331
330 2 -4.79638 9.09236 0.288231
322 2 -1.23778 7.24662 1.70778
325 2 -7.0156 12.0301 1.70105
324 1 -6.99507 12.3015 2.79546
321 2 -0.441019 8.75343 0.795827
326 2 -6.0332 12.7539 3.16142
333 2 -4.46539 12.1999 2.00453
328 1 -4.80631 9.83216 1.12113
329 2 -3.79181 9.77375 1.80855
323 2 -2.32087 8.56707 0.730396
354 3 0.13737 12.0203 1.13861
38 4 1.14824 11.0045 5.5469
139 3 0.746249 11.7358 7.06023
207 2 -1.32862 6.42812 7.37344
362 2 -5.00106 12.9665 4.2102
251 2 3.06203 7.62565 3.54855
20 4 -0.400218 13.132 2.12186
327 2 -7.84829 13.0076 3.12249
4 4 -6.13181 12.558 12.5904
148 3 0.648935 11.8043 12.1077
238 2 -0.640303 7.95359 10.2126
18 4 -2.97297 8.59777 13.3887
19 4 -4.252 10.5453 11.3447
12 4 -1.72784 6.41021 11.6993
26 4 -0.130404 12.6706 13.2025
211 2 -5.14979 10.9042 14.6844
37 4 -1.44166 10.6788 9.59696
39 4 2.52215 8.3424 12.9979
40 4 -1.1335 10.3382 15.0662
41 4 1.16471 10.5772 11.2136
68 1 -5.54386 11.0325 15.7189
75 1 0.951337 7.92934 8.60538
77 1 -0.338903 7.69593 11.2252
301 2 -4.14651 12.3165 14.983
105 3 -6.52693 11.7373 8.73267
109 3 -3.98766 7.83152 14.5768
110 3 -2.58496 7.24406 12.6548
111 3 -5.61065 10.1861 10.5081
112 3 -3.97272 9.57159 12.5033
113 3 -4.70964 11.9105 12.3658
232 2 -0.179401 7.80532 8.76855
231 2 1.38649 8.51023 9.43516
237 2 0.640955 7.16476 11.2875
130 3 3.30977 6.40711 9.17447
136 3 -1.0925 12.2077 8.93454
137 3 -2.80571 10.7607 10.5362
140 3 1.66149 7.04519 13.4609
142 3 -1.56486 9.42406 13.8498
143 3 0.0496153 9.74948 16.039
144 3 -0.747472 11.8818 14.4933
145 3 -2.63541 10.4591 15.9864
146 3 -0.174004 10.1675 10.4012
147 3 1.61848 9.42047 12.2751
236 2 -0.497305 8.52849 11.994
212 2 -5.94416 12.0852 15.9188
101 3 -2.33424 6.15152 15.7978
104 3 -3.48181 7.527 8.49012
299 2 -2.33233 12.7145 14.6454
14 4 -3.87443 10.6448 16.8838
22 4 6.91178 2.1446 0.152334
42 4 9.22461 1.80325 4.05385
343 2 5.64073 6.22089 0.388019
46 4 11.8907 1.81581 5.92988
50 4 10.3095 3.84932 2.15448
355 2 15.3996 0.946313 5.78599
52 4 10.7499 3.79955 8.11382
72 1 6.77754 3.65299 1.30427
85 1 13.334 2.92791 5.22032
86 1 8.82916 5.93661 4.44553
87 1 9.55875 4.37715 6.66053
124 3 6.99619 3.07685 7.37743
149 3 8.96878 0.424931 3.1548
150 3 8.09984 2.00857 5.22054
247 2 6.78441 6.42611 4.49057
155 3 10.7357 1.69104 4.86087
156 3 12.5499 0.490731 6.42382
164 3 9.22122 3.00259 3.03891
165 3 11.1195 2.82944 1.10645
166 3 11.3673 4.70972 3.20229
168 3 9.44881 4.82092 1.1417
170 3 11.4557 2.78752 7.10226
221 2 7.82636 4.12861 1.34213
222 2 6.51017 3.11975 2.31486
223 2 5.95818 4.47256 1.03601
246 2 6.42706 4.69792 3.81393
260 2 12.7765 3.20216 4.2348
261 2 14.2728 2.16623 5.0619
305 4 13.1454 0.00323011 1.92242
263 2 7.84816 6.05523 5.16862
264 2 9.16242 4.84262 4.50206
265 2 8.67225 6.30812 3.45737
266 2 8.89487 3.50612 6.56634
267 2 10.3097 4.52887 5.8116
268 2 8.97683 5.32095 6.97915
287 4 12.1499 6.07443 3.28978
80 1 5.9518 5.67287 4.07753
306 1 13.9201 1.73991 2.33734
307 3 12.1821 0.399458 0.706375
308 2 13.4509 2.46711 1.50966
309 2 13.7033 2.15905 3.40928
51 4 9.02308 6.25985 0.111817
245 2 5.45704 6.06204 3.13931
295 2 11.97 5.88152 1.06089
262 2 13.4891 3.79329 6.02585
205 2 15.1257 1.16047 3.85733
126 3 5.20669 5.02008 6.834
345 2 4.29876 6.1865 1.71516
152 3 14.2092 0.852127 8.43981
31 4 4.68 5.81119 5.61108
363 2 15.0764 1.54836 2.21309
29 4 5.88672 4.00777 8.09865
342 1 4.52273 5.94218 0.693895
270 2 9.7187 6.1909 7.69207
269 2 11.4135 6.20198 6.81191
358 2 14.9358 1.92495 0.596951
2 4 14.6071 2.0665 9.3549
5 4 14.6256 1.65809 15.1509
350 1 8.42588 5.21001 15.709
45 4 9.58261 1.64929 9.69542
351 2 8.90446 5.06239 14.7026
48 4 9.80744 1.50452 14.9169
49 4 12.2504 1.93594 11.4313
55 4 10.9154 4.04943 13.2697
153 3 9.26292 0.606121 8.53518
73 1 6.94987 2.98066 12.6746
151 3 13.4032 1.93349 16.1176
353 2 8.06695 4.15245 16.1663
154 3 8.01206 1.56439 10.5817
157 3 14.5441 0.184111 14.48
158 3 9.2479 0.458528 13.8018
159 3 10.9633 0.853041 15.7427
160 3 8.67066 1.87641 16.048
161 3 13.391 2.33016 10.3242
162 3 10.8975 1.45654 10.5656
163 3 12.8554 0.698696 12.3276
169 3 9.8347 3.22225 9.29951
47 4 13.5189 -0.364615 13.2187
172 3 6.63265 4.9979 9.07486
175 3 10.2985 2.92051 14.195
176 3 11.9575 3.28363 12.165
177 3 11.7752 5.20835 13.9746
171 3 11.6567 5.03258 8.74237
180 3 9.6561 4.8781 12.5658
224 2 7.06112 3.99186 12.1436
225 2 7.88067 2.65517 13.2699
43 4 12.1248 1.21719 16.8341
248 2 5.59379 4.75745 11.4765
352 2 7.48093 5.95758 15.6281
13 4 8.87937 10.7344 3.81576
348 2 5.69473 11.1746 1.60292
54 4 10.0038 7.2511 5.36031
57 4 7.58201 8.74734 1.60525
58 4 3.84122 11.1259 3.88301
59 4 7.94725 8.70354 7.34056
61 4 6.4376 10.7495 5.7933
79 1 4.77769 7.61121 6.2016
131 3 3.28212 8.46913 0.343072
88 1 10.473 6.7571 7.03374
90 1 6.01829 8.57161 2.67926
349 2 7.25146 12.145 1.84194
188 3 8.84428 9.43739 8.39345
189 3 4.28474 12.0919 8.3513
92 1 3.78401 9.30319 8.28378
174 3 11.4912 7.17741 4.46014
181 3 8.12627 7.30564 1.16553
182 3 8.81359 9.75421 2.66034
183 3 3.49945 10.0889 2.7515
184 3 4.28084 12.5322 3.17483
185 3 2.4569 11.4989 4.77254
186 3 7.53372 7.30337 7.98126
187 3 8.92099 8.25642 5.84416
294 2 11.1079 7.48414 1.55703
191 3 7.58493 10.85 4.63658
192 3 4.95734 10.5798 4.80526
193 3 6.67408 9.53459 6.75383
194 3 6.41413 12.0318 6.70181
242 2 5.41747 8.12961 5.48447
243 2 5.13781 7.7318 7.23917
346 1 6.22633 12.0979 1.2957
34 4 2.55106 9.17415 1.65834
364 2 10.6327 7.87948 7.39062
274 2 5.97153 7.43571 3.25374
275 2 5.2551 8.57259 1.7991
276 2 5.83923 9.46652 3.43642
283 2 3.96276 10.8204 0.10225
278 2 4.06728 9.84474 7.26309
244 2 3.69406 7.71963 6.06166
347 2 6.24143 12.2843 0.155189
279 2 2.77335 8.71997 8.37963
44 4 5.19963 12.9735 7.44398
16 4 9.2244 10.4588 9.56743
33 4 4.37496 6.76312 10.6487
53 4 7.25568 6.46907 9.38115
60 4 3.85342 10.858 9.29645
62 4 3.60002 10.5154 14.9013
63 4 6.31426 10.559 11.1708
66 1 8.71547 11.2618 13.3975
74 1 5.89604 7.15113 15.3132
89 1 9.6484 7.7862 12.6087
93 1 5.09941 10.2032 16.0166
94 1 6.17496 9.28028 12.4598
141 3 3.73686 7.7349 11.751
56 4 9.77505 6.34002 11.4501
366 2 6.93095 9.4559 16.5775
173 3 5.88581 7.14774 10.1275
178 3 11.2266 6.52034 10.6761
206 2 8.72873 11.4048 14.4987
190 3 2.26294 10.909 10.1253
195 3 3.25178 9.17334 14.1496
196 3 4.23087 11.8545 13.817
197 3 2.39256 10.8951 15.8801
198 3 7.72803 10.5028 10.4299
199 3 5.11026 10.527 10.1382
200 3 6.16334 12.1759 12.2073
227 2 5.24446 7.82779 14.6772
229 2 6.74839 7.81094 15.9425
271 2 8.70658 7.66852 13.1688
272 2 9.57551 8.65795 11.8739
273 2 10.5204 7.86484 13.3179
228 2 6.26747 6.29408 14.6805
281 2 5.96038 10.9813 16.026
282 2 5.50861 9.07387 15.7206
179 3 8.4979 6.42794 10.4072
284 2 7.02851 8.59569 11.9853
285 2 5.20925 8.76791 12.3021
286 2 6.40673 9.56348 13.5283
210 2 9.78137 10.1541 15.9972
356 2 9.11787 10.2547 13.0336
357 2 7.68721 11.6192 12.9474
365 2 8.39992 8.14051 16.1851
11 4 12.1871 6.34576 15.1129
280 2 4.67155 8.80237 8.81132
28 4 4.3094 6.55704 16.4031
167 3 11.0284 6.19895 16.2641
91 1 8.01877 9.04849 16.8562
9 4 12.3312 6.28656 9.56076
277 2 8.8118 9.86621 16.8813
ITEM: TIMESTEP
100
ITEM: NUMBER OF ATOMS
366
ITEM: BOX BOUNDS xy xz yz pp pp pp
-8.2538999999999998e+00 1.6741099999999999e+01 -8.2538999999999998e+00
-6.4260899999999999e-01 1.3288176000000000e+01 6.1619999999999997e-01
0.0000000000000000e+00 1.6908999999999999e+01 -6.4260899999999999e-01
ITEM: ATOMS id type x y z
3 4 0.8552 2.71885 4.91478
8 4 -0.299463 4.25598 7.361
361 2 3.55593 0.436677 0.754803
21 4 4.01541 2.01943 4.59575
239 2 2.35429 6.23444 4.39777
312 2 1.30338 0.298289 6.10864
338 1 2.63864 2.13653 0.246016
64 1 0.740199 3.75939 3.35011
65 1 -0.353768 1.1142 4.90668
67 1 -1.7289 5.36863 6.86572
70 1 3.86334 0.447357 3.61529
71 1 4.09351 3.07385 2.98631
78 1 2.76825 5.41763 5.17479
98 3 0.140317 3.55625 5.99852
114 3 2.59033 2.278 5.16145
115 3 7.22193 1.06245 1.13494
118 3 5.36934 1.92947 5.40452
119 3 7.36421 0.406935 6.91939
220 2 4.75531 4.03638 3.29517
125 3 1.2225 5.38818 7.67503
216 2 4.8409 -0.0334671 3.31813
201 2 0.216193 4.77695 3.55332
202 2 -0.00188007 2.99409 2.83058
203 2 1.70155 3.87713 2.78478
204 2 0.318101 0.177956 4.85426
341 2 3.1238 2.53579 1.25481
339 2 2.14313 1.14672 0.321114
342 1 4.34602 5.57394 0.518182
209 2 -1.87694 5.43608 5.62866
362 2 3.30235 -0.0771427 4.55911
217 2 3.14443 0.56881 2.68201
218 2 2.96617 3.33298 2.7272
219 2 4.55472 2.43032 2.24346
311 2 0.247733 0.227942 7.6828
344 2 4.02924 4.59271 0.209422
241 2 2.74335 4.39078 4.75549
290 2 -1.71392 6.3513 4.17788
288 1 -2.32428 5.611 3.63498
291 2 -1.91616 5.31637 2.54875
292 2 -2.51531 4.58049 4.24729
359 2 -1.09661 3.78856 0.198005
310 1 1.23228 0.568149 7.18936
240 2 2.12834 5.51905 6.15447
313 2 1.37319 1.69901 7.41957
317 1 -1.39343 4.80022 0.66259
318 2 -0.689728 5.07731 1.50619
319 2 -2.45589 4.76854 1.09832
208 2 -2.59728 4.95311 7.49666
345 2 4.09983 5.82692 1.62407
358 2 -1.14503 1.8833 0.498173
6 4 1.12668 1.87673 10.9236
120 3 6.00388 1.67812 16.4459
334 1 2.02047 0.602881 14.255
10 4 0.00893235 3.73365 13.1511
315 2 0.656398 2.11004 16.2553
24 4 3.99421 1.95879 9.67666
336 2 2.60213 1.53001 13.8606
27 4 6.80822 1.5101 11.5415
32 4 1.75062 5.79312 14.4266
76 1 1.19413 5.22096 10.3328
81 1 4.41274 5.08675 11.7017
95 3 -0.0117992 1.42562 9.95032
96 3 1.63634 0.457787 11.5834
128 3 3.29377 5.67622 15.2253
99 3 -0.962672 2.96788 14.1833
100 3 0.596789 2.79168 12.1146
335 2 0.874478 0.751096 14.2837
102 3 -2.33622 5.78316 10.1133
103 3 -0.855684 4.98094 12.4261
116 3 3.69863 0.668555 8.88468
117 3 2.5618 2.66055 10.2493
121 3 5.06456 1.67432 10.9189
122 3 6.94547 0.240784 12.5595
123 3 4.80334 3.05253 8.85486
127 3 1.42614 4.36223 13.8053
340 2 2.58172 2.22231 16.6205
233 2 1.83312 4.26857 10.3032
234 2 0.141555 5.0377 10.0404
235 2 1.35636 5.80647 11.327
249 2 3.56731 4.42125 11.2373
250 2 4.15139 5.47573 12.7346
296 4 4.66808 1.62733 15.7197
297 1 4.78301 0.0791353 14.4436
298 1 4.34105 3.22984 14.6922
7 4 -0.875404 5.76743 16.4773
300 2 4.52472 0.335247 13.3476
337 2 2.47891 0.107891 15.2125
302 2 3.78662 3.07077 13.8215
303 2 5.16676 3.99909 14.5345
304 2 3.58755 3.65418 15.4949
226 2 5.91046 3.07117 13.3664
314 1 -0.0893632 1.28293 16.3482
30 4 1.79659 6.25523 8.90226
316 2 0.33744 0.348194 16.0507
129 3 0.525585 5.9402 15.5703
101 3 -2.34727 5.94067 15.8606
12 4 -1.69814 6.10819 11.6154
299 2 5.92137 -0.168928 14.5516
97 3 -0.841639 3.31857 8.56317
332 1 -4.03494 12.7702 1.03431
15 4 -3.0821 8.94161 7.55202
17 4 -4.56663 10.9904 5.89274
293 2 -3.3478 7.80833 1.55163
35 4 -1.87521 11.1357 4.01983
257 2 2.33935 9.17611 6.69242
69 1 -2.33494 8.06206 6.08414
82 1 1.85458 7.77083 3.12484
83 1 -2.02534 9.64367 2.85128
84 1 1.43129 9.11523 5.86731
106 3 -5.71458 10.857 4.70183
107 3 -4.25231 9.79659 6.94939
108 3 -4.78229 12.3581 6.71173
132 3 -1.85671 12.3069 3.00359
133 3 -3.13541 11.0692 5.09107
134 3 1.05138 9.58996 1.0273
138 3 -0.370817 10.8912 4.848
213 2 -2.51049 8.65112 5.12203
214 2 -2.88166 7.1099 5.98805
215 2 -1.29599 7.86578 6.2726
230 2 1.183 8.43904 7.77033
20 4 -0.470283 13.1541 2.05818
331 2 -5.89472 9.73542 1.71085
289 1 -4.2415 7.1198 1.7468
252 2 2.012 6.80504 2.45429
253 2 0.775886 8.07121 3.20579
254 2 -2.02817 10.0091 1.75619
255 2 -3.02261 9.15115 3.25974
256 2 -1.08176 9.00718 3.05995
34 4 2.38568 8.99519 1.75576
258 2 1.79845 8.87257 4.74551
259 2 0.518226 8.58555 6.20735
23 4 0.0233023 12.866 7.93001
1 4 -5.52132 12.9648 7.98664
360 2 -2.92417 13.0093 1.02208
320 1 -1.38528 7.92285 0.691446
330 2 -4.79925 9.04553 0.262725
322 2 -1.56421 7.24128 1.67978
325 2 -7.07223 11.9906 1.79678
324 1 -7.24447 12.4886 2.87461
321 2 -0.345801 8.5792 0.85749
326 2 -6.23763 13.1178 3.22023
333 2 -4.42419 12.1049 1.9565
328 1 -4.79201 9.7939 1.11857
329 2 -3.85241 9.68079 1.82197
323 2 -2.27346 8.67217 0.533002
354 3 0.0687149 12.1365 1.02991
38 4 1.01149 11.0053 5.56115
139 3 0.83665 11.7142 7.0833
207 2 -1.14441 6.36768 7.39429
135 3 -1.84295 9.79317 8.27105
251 2 2.55666 7.97209 4.0803
36 4 0.545336 11.0138 0.0115653
4 4 -6.08457 12.7772 12.7531
104 3 -3.67307 7.66223 8.73208
238 2 -0.562512 7.763 10.1946
18 4 -3.04917 8.47763 13.3423
19 4 -4.27191 10.6781 11.3672
210 2 -6.12179 10.2709 16.0802
26 4 0.0540574 12.7664 13.2809
211 2 -5.16213 10.8374 14.6533
37 4 -1.59164 10.8291 9.67187
39 4 2.59333 8.34251 12.8755
40 4 -1.1364 10.3788 14.9379
41 4 0.959138 10.611 11.2674
68 1 -5.40939 11.0944 15.7473
75 1 0.93218 7.93817 8.79021
77 1 -0.28776 7.4147 11.2815
301 2 -4.19669 12.4556 14.8719
105 3 -6.47088 11.8945 8.84175
109 3 -3.97527 7.80038 14.6061
110 3 -2.55103 7.2352 12.4479
111 3 -5.57203 10.1145 10.4572
112 3 -3.99529 9.52694 12.4681
113 3 -4.69863 12.0047 12.2811
232 2 -0.202504 7.78521 8.86391
231 2 1.39241 8.56883 9.63523
237 2 0.782947 7.07101 11.3772
130 3 3.30929 6.48563 9.39574
136 3 -0.909069 12.1839 9.06292
137 3 -3.00817 10.9942 10.4235
140 3 1.79407 7.04298 13.4668
142 3 -1.71084 9.25892 13.8536
143 3 -0.00846921 9.70918 15.9953
144 3 -0.511451 11.795 14.383
145 3 -2.52877 10.5778 15.9608
146 3 -0.377093 10.1881 10.4935
147 3 1.54699 9.32499 12.1089
236 2 -0.623234 8.15802 12.0743
212 2 -5.85318 12.1678 15.8084
14 4 -3.79876 10.6001 16.8204
22 4 6.86288 2.34117 0.211645
42 4 9.19406 1.8162 3.99693
343 2 5.53208 5.79922 0.221966
46 4 11.8384 1.73834 6.01053
50 4 10.2502 3.79136 2.02203
355 2 15.1469 1.12874 5.84898
52 4 10.7343 3.74765 8.09872
72 1 6.82693 3.76086 1.4392
85 1 13.1807 2.88272 5.14719
86 1 8.90873 6.04962 4.2088
87 1 9.74274 4.40608 6.63003
124 3 6.887 2.96828 7.30438
149 3 8.82729 0.408514 3.17021
150 3 8.03883 2.2377 5.15219
265 2 8.92939 6.44429 3.06928
155 3 10.663 1.6516 4.96534
156 3 12.6403 0.421394 6.20706
164 3 9.19982 3.04993 3.03722
165 3 11.2016 2.73327 1.3696
166 3 11.2779 4.75532 3.01883
168 3 9.61389 4.92589 0.965825
170 3 11.5118 2.50763 7.41823
221 2 7.8676 4.23797 1.20016
222 2 6.82835 3.13166 2.38603
223 2 5.9042 4.46365 1.18904
246 2 6.20998 4.60461 3.86214
260 2 12.5924 3.03732 4.20965
261 2 14.1326 2.23336 5.0154
305 4 13.0817 -0.00442516 1.94216
263 2 7.90793 6.15123 4.62402
264 2 9.36183 5.05223 4.2503
25 4 6.9991 1.86234 6.24246
266 2 9.10888 3.63072 6.08442
267 2 10.5858 4.58658 5.89234
268 2 9.11657 5.37294 7.04009
287 4 11.9489 6.16335 3.28296
80 1 5.72529 5.67499 3.96885
306 1 14.0128 1.74662 2.30134
307 3 12.0284 0.211521 0.737545
308 2 13.6303 2.48131 1.54572
309 2 13.751 2.15896 3.35963
51 4 9.10053 6.33021 0.156865
245 2 5.15798 6.02876 3.09082
295 2 11.9693 6.19425 1.06022
262 2 13.3946 3.82516 5.85116
205 2 15.1217 1.22706 3.91682
126 3 5.12855 4.89484 6.73604
29 4 5.8771 3.89786 8.12538
152 3 14.2048 0.789948 8.33049
31 4 4.63224 5.79705 5.61853
363 2 15.1099 1.55003 2.23057
247 2 6.58788 6.45331 4.1912
270 2 9.91936 6.18636 7.72263
2 4 14.6889 1.98391 9.24948
5 4 14.5897 1.55147 15.0724
350 1 8.66748 5.36103 15.52
45 4 9.43058 1.6641 9.77869
351 2 9.44174 5.58362 14.6765
48 4 9.87709 1.67999 14.9314
49 4 12.1912 2.00568 11.3572
55 4 11.0759 4.05255 13.3716
153 3 9.35641 0.525386 8.63906
73 1 6.97414 2.90955 12.77
151 3 13.4984 1.85028 16.1879
353 2 8.41068 4.28421 15.6194
154 3 8.11601 1.65018 10.6685
157 3 14.4656 0.161384 14.254
158 3 9.27383 0.688769 13.8944
159 3 10.9987 1.02397 15.8224
160 3 8.60109 1.94739 16.0049
161 3 13.4892 2.42709 10.2786
162 3 10.8775 1.44139 10.7038
163 3 12.8779 0.778095 12.3501
169 3 9.582 3.20579 9.08915
47 4 13.4487 -0.445753 13.1549
172 3 6.63604 4.91726 9.18804
175 3 10.2534 3.09983 14.2554
176 3 11.8645 3.25911 12.1542
177 3 11.8612 5.07478 14.2911
171 3 11.8139 5.06655 8.55006
180 3 9.95394 5.10952 12.4765
224 2 7.23573 3.77972 12.1356
225 2 7.86991 2.67511 13.4113
248 2 5.44998 4.57852 11.6302
352 2 7.63837 6.02775 15.4779
43 4 12.167 1.10944 16.9053
13 4 8.93068 10.892 3.81424
348 2 5.7928 11.0439 1.2253
54 4 9.97575 7.34321 5.29396
57 4 7.57454 8.75365 1.54325
58 4 3.7368 11.1978 3.91208
59 4 7.97848 8.60219 7.34386
61 4 6.34684 10.7437 5.83889
79 1 4.70753 7.59742 6.13359
131 3 3.2513 8.06999 0.521073
88 1 10.5035 6.92544 6.9722
90 1 5.84244 8.53094 2.35426
349 2 7.15029 12.2405 1.87495
188 3 8.92775 9.27006 8.42011
189 3 4.17939 12.0672 8.31532
92 1 3.80589 9.2508 8.12663
174 3 11.3192 7.2186 4.35583
181 3 8.12519 7.2949 1.09011
182 3 8.78226 9.60855 2.50675
183 3 3.2826 10.1451 2.57543
184 3 4.26996 12.5137 3.25135
185 3 2.31003 11.3754 4.68934
186 3 7.54968 7.14902 7.97973
187 3 8.97829 8.39852 5.8811
294 2 10.8739 7.67262 1.7387
191 3 7.63071 10.9785 4.70633
192 3 4.88302 10.5311 4.9651
193 3 6.69844 9.51002 6.84036
194 3 6.39714 12.0546 6.64312
242 2 5.20742 8.34621 5.40728
243 2 5.17406 7.45261 7.22545
346 1 6.11601 12.1368 1.12075
277 2 8.14068 10.6314 0.316997
364 2 10.5915 7.95327 7.40194
274 2 5.82953 7.45248 2.96456
275 2 5.04047 8.52836 1.54613
276 2 5.7087 9.3951 3.03619
283 2 3.79742 10.8441 0.130661
278 2 3.86945 9.89548 7.14875
244 2 3.50873 7.64778 6.12036
347 2 6.23623 12.4575 0.0164535
280 2 4.7823 8.66278 8.39003
44 4 5.23124 12.9488 7.44037
327 2 7.89333 13.0214 3.00813
279 2 2.80424 8.6458 8.34664
269 2 11.5404 6.49691 6.60872
16 4 9.2997 10.4444 9.47504
33 4 4.38507 6.62385 10.6387
53 4 7.13293 6.44508 9.42188
60 4 3.80167 10.7745 9.33909
62 4 3.52835 10.5756 14.9054
63 4 6.46041 10.6398 11.1645
66 1 8.98762 11.3029 13.3839
74 1 5.93918 7.0544 15.2587
89 1 9.80717 7.86707 12.6158
93 1 5.03468 10.0574 15.9775
94 1 6.36448 9.01448 12.2035
141 3 3.63686 7.78444 11.8913
56 4 9.84911 6.33639 11.4979
366 2 6.90873 9.45852 16.4343
173 3 5.97906 7.19285 10.2141
178 3 11.2183 6.4115 10.7424
206 2 8.9248 11.2997 14.5356
190 3 2.27062 10.8047 10.1577
195 3 3.37493 9.17391 14.067
196 3 4.10768 11.814 14.0713
197 3 2.40452 10.8821 16.0615
198 3 7.98734 10.6458 10.4048
199 3 5.07131 10.5018 10.28
200 3 6.18922 11.7623 12.2632
227 2 5.2284 7.72542 14.645
229 2 6.72318 7.72658 15.8466
271 2 8.8506 7.83597 13.1435
272 2 9.99049 8.74827 11.8932
273 2 10.6956 7.68869 13.3444
228 2 6.3987 6.17178 14.6642
281 2 5.88659 10.8209 15.9454
282 2 5.28276 8.93791 15.7296
179 3 8.54389 6.4495 10.5557
284 2 7.10865 8.25277 11.7403
285 2 5.32713 8.63769 12.2082
286 2 6.81005 9.43383 13.2083
91 1 8.04738 9.08862 16.7852
356 2 9.38615 10.3171 12.9957
357 2 7.89581 11.4945 12.9841
365 2 8.58403 8.43597 16.0012
11 4 12.2604 6.3539 15.2637
9 4 12.2774 6.32623 9.61126
28 4 4.37497 6.36576 16.3043
167 3 11.027 6.36504 16.4881
148 3 0.839669 11.925 12.1429
ITEM: TIMESTEP
200
ITEM: NUMBER OF ATOMS
366
ITEM: BOX BOUNDS xy xz yz pp pp pp
-8.2538999999999998e+00 1.6741099999999999e+01 -8.2538999999999998e+00
-6.4260899999999999e-01 1.3288176000000000e+01 6.1619999999999997e-01
0.0000000000000000e+00 1.6908999999999999e+01 -6.4260899999999999e-01
ITEM: ATOMS id type x y z
3 4 0.838019 2.65517 4.85655
8 4 -0.265506 4.32774 7.29135
361 2 3.6249 0.479319 0.700835
21 4 4.01938 2.04235 4.4986
239 2 2.30383 6.38824 4.37246
312 2 1.26382 0.742369 6.43724
338 1 2.61956 2.13539 0.284448
64 1 0.819104 3.69719 3.31366
65 1 -0.226483 1.01074 4.78052
67 1 -1.73339 5.40649 6.84877
70 1 3.83778 0.342543 3.56037
71 1 4.15453 3.13529 3.00412
78 1 2.75158 5.49818 5.12949
98 3 0.263759 3.55807 6.03952
114 3 2.59453 2.24333 5.0707
115 3 7.05964 1.18453 1.3316
118 3 5.38558 1.78976 5.30862
119 3 7.34341 0.316308 6.83492
220 2 4.84551 4.1694 3.28405
125 3 1.19866 5.47849 7.67117
25 4 6.86645 1.77683 6.19698
201 2 0.328576 4.61876 3.7005
202 2 0.0449417 2.9017 2.79864
203 2 1.75772 3.89357 2.58694
204 2 0.491452 0.22202 4.51626
341 2 3.15359 2.39892 1.32386
339 2 2.09513 1.16516 0.289678
342 1 4.44486 5.47044 0.46154
209 2 -1.83909 5.51868 5.66931
216 2 4.91835 0.0181507 3.31034
217 2 3.28979 0.833669 2.67091
218 2 3.04398 3.39575 2.66151
219 2 4.69971 2.53736 2.20368
311 2 0.402989 0.260461 7.93644
344 2 3.62646 4.77415 0.724801
241 2 2.87757 4.54023 4.58253
290 2 -1.56833 6.33741 4.23658
288 1 -2.30671 5.59673 3.69372
291 2 -1.97141 5.32538 2.60508
292 2 -2.40867 4.56911 4.31442
359 2 -1.03764 3.66188 0.259343
310 1 1.32657 0.773471 7.53219
240 2 2.09468 5.46545 6.09
313 2 1.50962 1.818 7.93775
317 1 -1.3583 4.75797 0.808168
318 2 -0.545726 5.08922 1.5653
319 2 -2.37878 4.71089 1.2114
208 2 -2.51683 4.70572 7.38079
207 2 -1.46582 6.34766 7.40036
340 2 1.90977 2.98749 0.0379132
6 4 1.0989 1.77098 10.9424
120 3 5.89663 2.01106 16.6439
334 1 2.09046 0.740916 14.1
10 4 0.0477297 3.79157 13.0731
315 2 0.803302 1.81684 16.2021
24 4 4.11178 2.0037 9.8177
336 2 2.85553 1.49169 13.5645
27 4 6.73727 1.58671 11.6854
32 4 1.69184 5.89059 14.5434
76 1 1.14399 5.15064 10.3308
81 1 4.59567 5.11693 11.6171
95 3 0.0959049 1.39333 9.85137
96 3 1.4594 0.268233 11.5774
128 3 3.09272 5.97806 15.4244
99 3 -0.78635 2.84106 14.2583
100 3 0.482513 2.78936 11.943
335 2 1.09093 1.27541 14.2305
102 3 -2.37397 5.78726 10.1807
103 3 -0.905451 4.86849 12.3651
116 3 3.64379 0.721493 8.98079
117 3 2.66779 2.52061 10.3647
121 3 5.26389 1.77405 11.0778
122 3 7.08002 0.259452 12.5654
123 3 4.62975 3.18661 8.78276
127 3 1.42851 4.42032 13.6994
316 2 0.159508 0.136469 16.0401
233 2 1.92478 4.29946 10.2268
234 2 0.111698 4.78364 10.2034
235 2 1.35082 5.77249 11.2704
249 2 3.55499 4.58006 11.4308
250 2 4.79488 5.33316 12.6746
296 4 4.64852 1.75334 15.7759
297 1 4.94216 0.192162 14.6605
298 1 4.2024 3.25196 14.58
7 4 -0.853199 5.77337 16.5172
300 2 5.0302 0.351994 13.6198
337 2 2.43858 0.223978 15.0745
302 2 4.15297 2.9946 13.4073
303 2 4.76338 4.18183 14.7237
304 2 3.19475 3.39259 14.9712
226 2 5.8918 3.16368 13.5535
314 1 -0.0396241 1.15195 16.4035
30 4 1.73689 6.20974 8.92274
97 3 -0.925194 3.39349 8.4865
129 3 0.473948 5.93907 15.5804
101 3 -2.28765 5.99632 15.902
12 4 -1.73895 6.01501 11.6946
299 2 5.97143 -0.0627744 15.0889
332 1 -3.87358 12.7803 0.890567
15 4 -3.08582 8.95481 7.59152
17 4 -4.5213 11.0708 5.73013
293 2 -3.24166 7.95368 1.80702
35 4 -1.76763 11.1498 3.95631
257 2 2.23176 9.2244 6.91186
69 1 -2.30445 8.12699 6.04167
82 1 1.72277 7.76256 3.01975
83 1 -2.21627 9.44252 3.13808
84 1 1.44576 9.20125 6.01623
106 3 -5.89692 10.9111 4.68366
107 3 -4.30134 9.82944 6.81514
108 3 -4.84258 12.3557 6.55677
132 3 -1.77011 12.3174 2.82383
133 3 -3.21036 11.3369 4.77043
134 3 1.10254 9.60122 1.0498
138 3 -0.459719 10.9887 4.74138
213 2 -2.24395 8.78403 5.04986
214 2 -2.93344 7.20388 5.85449
215 2 -1.25651 7.94477 6.50034
230 2 1.05662 8.39328 7.87799
20 4 -0.544536 13.146 2.07733
331 2 -5.7679 9.94789 1.72664
289 1 -4.12159 7.18838 1.85048
252 2 2.04024 6.80454 2.47733
253 2 0.608231 8.07233 3.09171
254 2 -1.88968 9.89346 2.03433
255 2 -3.22585 8.94984 3.11633
256 2 -1.42395 8.75549 3.61785
34 4 2.39648 9.03594 1.77225
258 2 1.86833 8.78304 4.98064
259 2 0.294317 8.93322 6.31505
23 4 0.0367976 12.8846 7.92486
135 3 -1.95193 9.88308 8.34759
360 2 -2.82957 13.128 0.860103
320 1 -1.22393 7.82563 0.898139
330 2 -4.84588 9.17965 0.267871
322 2 -1.38574 7.13393 1.81496
325 2 -7.16305 11.9069 1.6263
324 1 -7.14075 12.29 2.70501
321 2 -0.245533 8.44583 0.889189
326 2 -6.12516 12.7706 3.0285
333 2 -4.11967 12.1387 1.88908
328 1 -4.73033 9.91688 1.15607
329 2 -3.81122 9.75502 1.87804
323 2 -2.19131 8.36772 0.557682
354 3 0.0705596 12.0477 1.06724
38 4 1.04212 11.0373 5.61815
251 2 2.33376 7.94313 4.01006
1 4 -5.48332 12.931 8.05412
362 2 -5.00022 12.8062 4.07232
244 2 3.4722 7.51818 6.407
279 2 2.61602 8.81466 8.50502
104 3 -3.33532 7.53218 8.49243
238 2 -0.6519 7.87525 10.3523
18 4 -2.98554 8.44501 13.3507
19 4 -4.22347 10.5916 11.4032
14 4 -3.8193 10.6996 16.781
26 4 0.122553 12.7022 13.2153
211 2 -4.91508 10.7642 14.5601
37 4 -1.59524 10.8616 9.63042
39 4 2.48083 8.41423 12.9052
40 4 -1.15946 10.2939 14.9655
41 4 1.06773 10.5327 11.3067
68 1 -5.36182 11.068 15.5274
75 1 0.871958 7.87361 8.89876
77 1 -0.431741 7.43229 11.3923
301 2 -4.14395 12.5347 14.9276
105 3 -6.17017 11.7698 8.92091
109 3 -3.91852 7.8566 14.5871
110 3 -2.58516 7.04199 12.5986
111 3 -5.59048 10.0115 10.6432
112 3 -3.73239 9.39563 12.2857
113 3 -4.70192 11.9428 12.3899
232 2 -0.281604 7.62009 9.06323
231 2 1.16778 8.50382 9.73714
237 2 0.572281 6.88991 11.4804
130 3 3.17996 6.51238 9.26213
136 3 -1.02249 12.2208 8.90205
137 3 -3.09023 11.043 10.386
140 3 1.77945 7.08596 13.4587
142 3 -1.51525 9.14978 13.8344
143 3 -0.0385332 9.61489 15.9933
144 3 -0.584248 11.6526 14.2459
145 3 -2.41543 10.5394 15.9531
146 3 -0.545582 10.2603 10.6455
147 3 1.48368 9.27513 12.1293
236 2 -0.559497 8.13181 12.2593
212 2 -5.83093 12.0959 15.4831
4 4 -6.13038 12.7675 12.7252
210 2 -6.18171 10.3695 15.8692
36 4 1.1603 10.2352 16.9079
22 4 6.90352 2.46591 0.426345
42 4 9.15471 1.82993 3.90007
363 2 15.09 1.30507 2.18611
46 4 11.7926 1.72403 5.88905
50 4 10.3218 3.78763 2.03294
355 2 15.3559 0.755997 5.73269
52 4 10.7659 3.69414 8.02398
72 1 6.92976 3.83188 1.65251
85 1 13.2516 2.83528 5.22537
86 1 8.62916 6.19532 4.38203
87 1 9.70488 4.22092 6.46323
124 3 7.01374 2.82787 7.37511
149 3 8.86591 0.457641 3.19139
150 3 7.84178 2.24021 5.03935
345 2 5.02379 5.79724 1.37782
155 3 10.5185 1.80123 4.80195
156 3 12.5474 0.375981 6.05368
164 3 9.14554 3.05478 2.86052
165 3 11.1962 2.79999 1.25761
166 3 11.1779 4.87342 3.01511
168 3 9.60152 4.92939 0.726976
170 3 11.5467 2.48767 7.28466
221 2 7.95875 4.31927 1.35838
222 2 6.9178 3.40269 2.69064
223 2 5.99289 4.53296 1.27308
246 2 6.3859 4.75354 4.02713
260 2 12.6761 3.16443 4.23662
261 2 14.2952 2.19066 5.06452
358 2 15.0007 1.7629 0.583192
263 2 7.61556 6.15544 5.02375
264 2 9.18024 5.23502 4.52066
270 2 9.81942 6.11784 7.61062
266 2 8.9619 3.40715 6.04761
267 2 10.487 4.61128 5.73143
268 2 9.09688 5.10602 6.84101
287 4 12.0001 6.20802 3.38207
80 1 5.90157 5.75304 3.84667
306 1 13.9537 1.53885 2.34232
307 3 11.9825 0.212591 0.679554
308 2 13.5937 2.19957 1.48066
309 2 13.7394 2.03861 3.44807
51 4 9.27488 6.27748 0.0552909
245 2 5.43115 5.72417 2.74696
295 2 12.1059 6.2299 1.11453
262 2 13.5103 3.74582 5.92223
205 2 15.162 1.16817 3.87538