ITEM: TIMESTEP
0
ITEM: NUMBER OF ATOMS
366
ITEM: BOX BOUNDS xy xz yz pp pp pp
-8.3881239999999995e+00 1.6741099999999999e+01 -8.3881239999999995e+00
-6.4910000000000001e-01 1.3422400000000000e+01 6.1619999999999997e-01
0.0000000000000000e+00 1.6908999999999999e+01 -6.4910000000000001e-01
ITEM: ATOMS id type x y z
3 4 1.10757 2.91306 4.59582
8 4 -0.580109 4.07252 7.16013
20 4 7.52316 0.251653 1.83701
21 4 4.04511 2.09462 4.44592
29 4 5.66089 3.95799 8.08186
361 2 2.98322 0.117163 1.35733
319 2 -2.17778 4.5265 0.388041
64 1 0.893676 4.06913 3.12928
65 1 0.796568 1.29353 3.76615
67 1 -2.05523 5.19909 6.7693
70 1 3.79176 0.224002 4.00942
71 1 4.17468 2.95741 2.76361
78 1 2.51441 5.74621 5.67351
98 3 -0.117157 3.47267 5.73854
114 3 2.66829 2.74844 5.13121
115 3 6.60609 1.41311 0.909132
118 3 5.42145 2.07316 5.14387
119 3 7.16344 0.430575 6.62635
216 2 4.8114 -0.0534934 4.43288
125 3 0.694929 5.12927 7.87743
312 2 1.31006 0.353723 6.06398
201 2 2.06235 4.25809 3.00922
202 2 0.240245 4.95827 3.44513
203 2 0.40527 3.52593 2.277
311 2 0.0157074 0.464871 7.59935
205 2 0.626419 1.44568 2.63705
359 2 -0.328185 4.71323 0.786034
208 2 -2.07645 5.71844 5.54675
318 2 -1.58072 5.70359 1.89292
344 2 3.72395 4.76034 0.523262
342 1 4.32433 5.78164 0.811844
218 2 3.30215 3.69623 2.76335
219 2 3.8575 1.86948 2.2756
220 2 5.17187 3.28573 2.36379
239 2 1.97937 5.61493 4.74505
241 2 2.55784 4.77676 6.25379
341 2 3.24859 3.02325 0.948664
288 1 -2.09322 6.46902 3.71274
97 3 -1.08002 3.00211 8.17243
292 2 -1.68874 5.4235 3.87005
209 2 -1.92095 5.99083 7.56044
310 1 1.08969 0.534082 7.19219
204 2 1.9063 0.759762 3.86116
313 2 1.53002 1.59634 7.62081
317 1 -1.33255 5.21386 0.806096
25 4 6.83574 1.83541 5.99183
355 2 0.0353254 0.686578 4.23501
246 2 4.99374 4.67736 3.41587
287 4 -3.96241 6.4222 3.15786
217 2 3.92211 -0.0592522 2.86897
31 4 4.39551 5.98052 5.70544
6 4 1.25462 1.66994 11.0526
360 2 4.91309 -0.25343 16.8773
337 2 3.2059 -0.00494964 15.3009
10 4 0.00884509 3.67832 13.1832
12 4 -1.84347 6.16006 11.7252
24 4 4.03315 1.93288 9.80919
301 2 4.6118 -0.236169 15.0828
27 4 6.91705 1.43066 11.4843
30 4 1.39306 6.06367 9.00226
76 1 1.15008 5.07455 10.5172
81 1 4.30069 5.21029 11.5908
95 3 0.0100471 1.62678 9.96775
96 3 1.50552 0.217195 11.7707
128 3 3.02125 5.81299 15.374
99 3 -0.629058 2.87982 14.4913
100 3 0.474493 2.56977 12.2027
120 3 6.06983 2.8947 16.2993
102 3 -2.43683 5.75317 10.279
103 3 -0.978238 4.86132 12.5214
116 3 3.65999 0.67737 8.88075
117 3 2.72477 2.32032 10.5972
121 3 5.30992 1.60558 10.7793
122 3 6.91441 0.398519 12.6389
123 3 4.50708 3.21914 8.86615
127 3 1.6099 4.41094 13.6733
101 3 -2.40844 5.98267 15.8138
233 2 2.06679 4.38044 10.3774
234 2 0.198199 4.54888 10.3571
235 2 1.15026 5.53909 11.5106
249 2 3.73199 4.45114 10.9613
250 2 3.81238 5.57154 12.5248
296 4 4.79885 2.30248 15.5048
297 1 5.45632 0.560294 15.1441
298 1 4.4101 3.38755 13.9636
299 2 6.25172 0.280781 15.9034
300 2 5.97817 0.606626 14.0818
339 2 2.65033 1.61424 16.5901
302 2 4.58449 2.44677 13.2993
303 2 5.21091 4.1431 13.8654
304 2 3.32546 3.84906 13.8974
338 1 3.36135 2.45033 16.8327
314 1 -0.0543326 0.898389 16.612
315 2 0.746898 1.69966 16.6351
334 1 2.34655 0.388863 14.6043
335 2 1.40093 0.616107 15.1984
336 2 2.64218 1.30371 14.0094
32 4 1.62449 5.89795 14.388
340 2 2.88362 3.40246 16.6454
7 4 -0.822792 6.0116 16.3912
129 3 0.365371 5.97799 15.3978
316 2 0.354915 -0.102522 16.3315
36 4 0.590133 11.5243 0.00688253
15 4 -3.1953 9.00473 7.79365
17 4 -4.64885 11.004 5.93442
23 4 -0.350681 12.9748 7.73071
35 4 -1.86543 11.5078 3.80923
38 4 0.876824 11.244 5.47654
69 1 -2.24038 8.38632 6.30635
82 1 1.03571 8.13192 2.61419
83 1 -1.74462 9.93505 2.74534
84 1 0.851454 9.33729 5.59159
106 3 -5.92804 10.7522 4.99344
107 3 -4.43964 9.79988 6.95368
108 3 -4.95411 12.3582 6.69147
132 3 -2.11092 12.7291 2.77649
133 3 -3.29609 11.1158 4.96373
134 3 1.45511 10.5295 1.05273
138 3 -0.394992 11.4466 4.49741
213 2 -1.20534 8.90413 6.15702
214 2 -2.97067 8.65413 5.43197
215 2 -2.14731 7.18471 6.46895
230 2 0.914759 8.08432 7.67499
289 1 -4.12013 7.18237 1.5283
333 2 -3.56548 12.9855 1.65307
251 2 0.854807 8.60342 3.71799
252 2 1.45439 7.08774 2.56668
253 2 0.109346 8.26519 1.86998
254 2 -1.80706 10.5689 1.70724
255 2 -2.50834 9.20123 3.08954
256 2 -0.660794 9.4595 2.86171
257 2 1.87627 9.09837 5.21314
258 2 0.0165644 8.8294 4.98442
259 2 0.732772 9.07207 6.77003
325 2 -6.83705 11.7036 1.64319
290 2 -2.10577 7.13945 4.73044
294 2 -3.13532 7.63638 1.20256
320 1 -1.38457 8.28358 0.542675
291 2 -1.4573 7.03568 2.96515
322 2 -1.75033 8.18381 1.6069
279 2 2.42837 8.98871 8.34114
324 1 -7.02026 12.0447 2.74655
354 3 -0.17647 12.6557 0.827013
326 2 -6.11036 12.6345 3.24965
364 2 -3.85647 6.73721 6.24622
328 1 -4.68205 10.2453 1.40622
329 2 -3.56788 10.1638 1.87684
330 2 -5.06214 9.23417 1.09
331 2 -5.54949 10.8551 2.10314
332 1 -4.4275 13.1614 0.866934
321 2 -0.304721 8.67608 0.354562
139 3 0.513294 11.7293 7.14161
1 4 -5.83882 12.9802 7.93896
240 2 2.04122 6.58338 6.22689
362 2 -5.40311 13.0869 4.51354
4 4 -6.29391 12.7235 12.8535
212 2 -4.75646 10.1817 14.8173
238 2 -0.643484 7.96473 10.3974
18 4 -2.99646 8.55143 13.4426
19 4 -4.38696 10.6612 11.4298
26 4 -0.143744 12.8268 13.4861
236 2 -0.546455 8.04297 12.2909
130 3 2.89273 6.43595 9.22962
37 4 -1.77321 11.0401 9.64839
39 4 2.45051 8.57695 12.7425
40 4 -1.18262 10.4029 15.1164
41 4 0.923022 10.8696 11.4076
68 1 -5.33395 10.8099 15.6167
75 1 0.714845 7.91706 8.76871
77 1 -0.375624 7.36533 11.3716
104 3 -3.78741 7.50674 8.62139
210 2 -5.71305 11.9226 15.2121
109 3 -3.99935 7.83438 14.6867
110 3 -2.62472 7.19012 12.6705
111 3 -5.68875 10.0308 10.6963
112 3 -3.73128 9.65465 12.5074
113 3 -4.97024 11.9856 12.4238
232 2 -0.419264 7.81246 8.93303
105 3 -6.54884 11.7721 8.83642
237 2 0.67271 6.84707 11.4159
135 3 -2.16453 9.83041 8.64856
136 3 -1.39522 12.3834 8.86984
137 3 -3.24498 11.2975 10.5227
140 3 1.83528 7.17219 13.405
142 3 -1.66686 9.10787 14.1915
143 3 0.109293 9.9605 16.0712
144 3 -1.02108 11.8062 14.3133
145 3 -2.55737 10.5344 16.1072
146 3 -0.517441 10.6495 10.6524
147 3 1.25533 9.47746 12.1269
231 2 1.20438 8.65726 9.42358
28 4 4.10937 6.43627 16.459
14 4 -3.91831 10.7304 16.8149
323 2 -1.51046 8.22229 16.8272
22 4 6.91537 2.76238 0.284057
42 4 9.17377 1.89559 3.96419
363 2 15.3154 1.29389 2.43655
46 4 11.7863 1.88597 5.73038
50 4 10.6135 3.77799 2.04042
269 2 11.0559 5.31863 5.98651
52 4 10.5371 3.75381 8.11504
72 1 6.98251 4.04701 1.7255
85 1 12.776 3.1042 4.64556
86 1 8.44924 6.26745 4.3005
87 1 9.08581 4.38879 7.02263
124 3 6.62535 2.86358 7.33023
149 3 8.58777 0.813899 2.90805
150 3 8.0472 2.26415 5.12546
343 2 5.31963 5.83568 0.188378
155 3 10.5331 1.3651 4.70967
156 3 12.7783 0.757361 6.26822
164 3 9.47047 3.37671 3.05348
165 3 11.5827 2.5984 1.52475
166 3 11.6944 4.98011 3.01069
168 3 10.0084 4.90125 1.01331
170 3 11.3121 2.82491 6.97656
221 2 7.83606 4.666 1.83884
222 2 6.85422 3.45477 2.65814
223 2 5.92921 4.71606 1.45764
247 2 6.48698 5.8767 3.99875
260 2 12.5404 3.04041 3.51632
44 4 13.3112 -0.25278 7.46282
262 2 12.5377 4.0882 5.10626
126 3 5.06118 4.9672 6.787
264 2 8.77991 5.20506 4.4414
88 1 11.1733 6.41251 6.33228
266 2 8.14354 3.77342 7.23823
267 2 9.44488 4.30361 5.95802
268 2 8.99837 5.45215 7.36981
293 2 11.9147 6.24012 0.912137
43 4 11.7218 1.79625 0.097391
306 1 14.1739 1.26681 2.63311
307 3 12.4205 0.0858424 0.734253
308 2 13.6379 2.12847 2.21473
309 2 13.9247 1.09875 3.73683
345 2 4.58427 5.85315 1.9857
80 1 5.2698 5.77197 3.90988
261 2 13.8324 2.7833 4.8415
51 4 9.3158 6.05197 0.145175
207 2 13.235 4.46376 6.94618
358 2 14.9305 1.50419 0.808057
152 3 14.3329 0.50503 8.39031
263 2 7.55723 6.5002 4.89865
2 4 14.7223 1.80833 9.22578
5 4 14.7431 1.55729 15.282
9 4 12.1326 6.24308 9.63601
45 4 9.6172 1.40335 9.83759
351 2 9.18824 4.14732 15.1209
48 4 9.83347 1.53306 15.2077
49 4 12.2552 1.81607 11.4004
55 4 10.9424 3.98987 13.1661
352 2 8.56739 6.04206 15.0277
73 1 7.18897 3.08416 12.348
151 3 13.3402 1.96912 16.1293
248 2 5.43314 5.0173 11.6815
154 3 8.21496 1.44271 10.6086
157 3 14.6017 0.226627 14.5315
158 3 9.02058 0.444895 14.3378
159 3 11.036 0.901378 16.1551
160 3 8.84001 2.13536 16.3964
161 3 13.4502 2.09976 10.2669
162 3 10.8715 1.08128 10.7619
163 3 12.9364 0.83187 12.464
169 3 9.82586 2.83499 9.20449
171 3 11.5605 5.00088 8.81877
172 3 6.53845 4.81011 9.06397
175 3 10.3084 2.81167 14.1789
176 3 11.8513 3.25491 12.1243
177 3 11.6878 5.10861 14.0042
353 2 7.7847 4.81763 16.3234
180 3 9.61237 4.82501 12.3876
224 2 7.23131 3.86112 11.4928
225 2 8.16238 3.06123 12.9219
350 1 8.68751 5.05173 15.6589
226 2 6.20503 3.2399 13.0125
47 4 13.5795 -0.284926 13.2721
153 3 9.12561 0.42435 8.48571
179 3 8.29763 6.29196 10.4875
56 4 9.62922 6.21195 11.5508
13 4 8.6791 10.733 4.00532
278 2 3.32067 10.3131 7.15047
54 4 9.99495 7.17797 5.12208
57 4 7.57322 8.53247 1.68921
58 4 3.70179 10.9339 3.94265
59 4 8.00211 8.58251 7.47948
61 4 6.35226 10.7858 5.81716
79 1 4.53232 7.79321 6.4255
305 4 4.92407 13.0987 1.94623
91 1 7.87453 9.70707 0.216854
90 1 5.67901 8.40759 1.99387
365 2 8.27403 10.6892 0.709805
92 1 3.33162 9.71939 8.13708
244 2 3.68364 7.78726 7.19001
295 2 11.0877 7.86283 1.42695
174 3 11.1084 7.53516 4.06824
181 3 8.32967 7.10301 1.47682
182 3 8.21427 9.46851 3.03281
183 3 3.19602 9.83063 2.96161
184 3 4.33299 12.1697 3.09381
185 3 2.29164 11.5434 4.86856
186 3 7.23188 7.31045 8.07123
187 3 9.09509 7.96418 6.21464
131 3 2.9376 8.41166 0.629699
191 3 7.47844 11.4363 4.7876
192 3 4.81216 10.3318 4.86926
193 3 6.89748 9.52521 6.62878
194 3 5.86895 11.9144 6.79797
242 2 4.50017 8.7074 5.80287
243 2 5.56335 7.55242 6.89449
346 1 6.44442 11.9676 1.27577
349 2 7.25064 12.654 0.927676
348 2 6.767 11.2508 2.1264
274 2 5.2687 7.38785 1.57346
275 2 5.34496 9.27925 1.3683
276 2 5.44788 8.5366 3.10248
347 2 5.83576 11.4492 0.402255
245 2 4.8413 6.67777 3.33546
327 2 8.19239 12.7166 2.81992
189 3 3.68218 12.4424 8.28186
34 4 2.31735 9.30274 1.81119
270 2 10.7744 6.57842 7.33658
265 2 8.41905 6.66389 3.09919
283 2 4.39551 9.61343 16.5825
33 4 4.1061 6.80081 10.5174
206 2 8.63711 11.4493 14.6027
60 4 3.42354 11.2791 9.27916
62 4 3.34951 10.8475 14.5957
63 4 6.30758 10.8736 11.0205
66 1 8.64287 11.3545 13.4621
74 1 5.4954 7.27016 15.4552
89 1 9.31259 7.65435 12.7852
93 1 4.72433 10.4874 15.9326
94 1 6.21519 9.43516 12.1956
356 2 9.03272 10.3514 13.0509
188 3 8.94516 9.16183 8.53814
211 2 9.90001 10.1651 16.152
173 3 5.63736 7.12436 10.1442
178 3 11.0628 6.61981 10.7626
366 2 9.27313 8.3565 16.6258
190 3 2.05923 11.1674 10.2397
195 3 3.36679 9.49956 13.766
196 3 3.96655 12.1334 13.8113
197 3 2.25333 11.1481 15.7621
198 3 7.72773 10.7093 10.2762
199 3 4.96544 10.9472 10.1969
200 3 6.08577 12.2513 12.2249
227 2 5.34292 8.39613 15.6197
229 2 6.46024 6.80081 15.8581
271 2 10.0602 8.3982 12.3871
272 2 9.55462 7.25603 13.7834
273 2 8.20008 8.02284 12.7469
277 2 7.57765 9.16863 16.4852
281 2 4.80392 11.4737 16.5649
282 2 5.57823 10.2246 15.1721
141 3 3.55898 7.97345 11.5248
284 2 7.13276 8.6519 12.0503
285 2 5.216 8.95439 11.8754
286 2 6.1406 9.95089 13.1873
16 4 9.1977 10.3992 9.63032
228 2 5.41 6.96189 14.3422
357 2 7.56945 11.6974 13.0652
148 3 0.914053 12.0903 12.5069
167 3 11.0797 6.21986 16.365
11 4 12.1855 6.30735 15.1692
280 2 4.38012 9.31444 8.48103
53 4 6.9412 6.35071 9.43985
ITEM: TIMESTEP
100
ITEM: NUMBER OF ATOMS
366
ITEM: BOX BOUNDS xy xz yz pp pp pp
-8.3881239999999995e+00 1.6741099999999999e+01 -8.3881239999999995e+00
-6.4910000000000001e-01 1.3422400000000000e+01 6.1619999999999997e-01
0.0000000000000000e+00 1.6908999999999999e+01 -6.4910000000000001e-01
ITEM: ATOMS id type x y z
3 4 1.03433 3.06729 4.40228
8 4 -0.596099 4.09472 7.21404
20 4 7.47109 0.151153 1.90898
21 4 4.11336 2.13306 4.4176
29 4 5.61443 3.98899 8.02299
31 4 4.33281 5.96519 5.76804
319 2 -2.03573 4.40591 0.389728
64 1 0.962188 4.42493 3.17137
65 1 0.751538 1.31706 3.69421
67 1 -2.16833 5.01994 6.81248
70 1 3.72287 0.24327 4.07378
71 1 4.0825 3.08239 2.77387
78 1 2.44666 5.6595 5.63725
98 3 -0.13072 3.38814 5.71801
114 3 2.81507 2.79032 5.13428
115 3 6.62273 1.42329 1.17065
118 3 5.5795 2.05433 5.11699
119 3 7.2875 0.403813 6.69656
217 2 3.93497 -0.0157565 2.86014
125 3 0.661436 5.33801 7.71483
312 2 1.46656 0.390739 6.18522
201 2 1.96291 4.61322 2.55926
202 2 0.655873 5.36216 3.7232
203 2 0.1581 4.06331 2.39855
311 2 0.275632 0.389994 7.60462
205 2 0.482489 1.37669 2.54631
359 2 -0.2818 4.79547 0.704402
208 2 -2.18575 5.5122 5.62775
318 2 -1.60908 5.57626 1.92424
344 2 3.7439 4.80605 0.576269
342 1 4.25781 5.79973 0.857102
218 2 3.16822 3.9519 2.59578
219 2 3.93233 2.10836 2.14636
220 2 5.14404 3.41727 2.44886
239 2 2.22938 5.55056 4.45501
241 2 2.29525 4.64533 6.20275
341 2 3.08698 3.15052 1.00353
288 1 -2.12534 6.22787 3.77996
97 3 -1.12172 3.11071 8.32155
292 2 -1.83843 5.16959 4.05071
209 2 -2.10536 5.78669 7.65656
310 1 1.34818 0.599869 7.28971
204 2 1.80662 0.826645 3.83854
313 2 1.87514 1.64307 7.64286
317 1 -1.3215 5.17198 0.821914
361 2 3.16778 -0.0389753 1.43705
355 2 -0.101991 0.802065 4.2939
246 2 4.80134 4.81405 3.41307
363 2 -1.05803 1.82413 2.30819
216 2 4.69949 -0.0752825 4.68037
126 3 4.96937 4.89531 6.7949
360 2 4.3012 0.414695 0.0244259
6 4 1.11433 1.71451 11.043
130 3 3.05644 6.31455 9.06577
337 2 3.17825 0.132075 15.2367
10 4 -0.0130211 3.72565 13.1804
12 4 -1.78822 6.10118 11.7376
24 4 3.97119 1.95627 9.70603
301 2 4.50103 -0.143348 15.3003
27 4 6.77973 1.38922 11.5054
30 4 1.5593 6.00731 8.92562
76 1 0.906623 5.19156 10.423
81 1 4.39633 5.2117 11.615
95 3 0.036751 1.47507 9.87932
96 3 1.4084 0.247658 11.8294
128 3 3.02629 5.70346 15.5279
99 3 -0.762148 2.86634 14.4913
100 3 0.442862 2.7155 12.0901
120 3 6.13967 2.82823 16.2571
102 3 -2.56817 5.69537 10.4517
103 3 -1.00313 4.81917 12.5367
116 3 3.57171 0.601526 8.88497
117 3 2.61519 2.28544 10.504
121 3 5.30099 1.55526 10.6832
122 3 6.97513 0.292701 12.6787
123 3 4.43504 3.1764 8.7458
127 3 1.48478 4.44741 13.6637
101 3 -2.49103 5.96139 15.7324
233 2 1.64316 4.31498 10.4521
234 2 -0.183368 4.79969 10.197
235 2 1.02733 5.86671 11.3839
249 2 3.69525 4.58409 10.9276
250 2 3.96274 5.54814 12.6411
296 4 4.79053 2.37486 15.5487
297 1 5.38309 0.566132 15.1833
298 1 4.27793 3.51478 14.0515
299 2 6.13536 0.282353 16.0054
300 2 5.92101 0.468904 14.1708
339 2 2.75548 1.45967 16.6184
302 2 4.43943 2.67705 13.2324
303 2 4.95431 4.46044 13.9589
304 2 3.17172 3.83908 14.0366
338 1 3.27707 2.45412 16.874
314 1 -0.208954 1.01162 16.5673
315 2 0.658368 1.72289 16.505
334 1 2.21866 0.387277 14.6266
335 2 1.2956 0.563758 15.2403
336 2 2.47053 1.34134 13.9136
32 4 1.65599 5.84432 14.5124
340 2 2.72719 3.40358 16.5453
7 4 -0.97457 5.86171 16.2832
129 3 0.312707 5.81532 15.3984
226 2 5.97431 3.33307 12.9689
362 2 -5.57021 13.0954 4.52343
15 4 -3.07435 8.95599 7.90554
17 4 -4.51689 11.0603 5.91276
23 4 -0.275479 12.9127 7.74725
35 4 -1.8917 11.4035 3.842
38 4 0.85519 11.07 5.43486
69 1 -2.25317 8.25484 6.31488
82 1 0.957925 8.2917 2.57413
83 1 -1.82002 9.87839 2.69754
84 1 0.778356 9.17899 5.79614
106 3 -5.81266 10.5811 4.92032
107 3 -4.16575 10.0619 7.16908
108 3 -4.83304 12.433 6.51944
132 3 -2.0941 12.6324 2.87554
133 3 -3.27699 11.0915 4.9762
134 3 1.36539 10.5078 0.974322
138 3 -0.460093 11.2909 4.5499
213 2 -1.21493 8.73258 6.24785
214 2 -2.9348 8.68724 5.57659
215 2 -2.25254 7.03755 6.48811
230 2 0.799718 8.1948 7.84008
289 1 -4.0939 7.12652 1.50039
333 2 -3.31376 13.0333 1.61853
251 2 0.585981 8.58915 3.66113
252 2 1.52983 7.32229 2.60339
253 2 0.0335081 8.28394 1.92086
254 2 -1.91661 10.3903 1.70191
255 2 -2.70707 9.22999 3.03387
256 2 -0.766568 9.30636 2.73107
257 2 1.83416 8.66236 5.72238
258 2 -0.0665625 8.71829 5.06424
259 2 0.396067 9.21302 6.88031
325 2 -6.76809 11.6395 1.71219
290 2 -2.16481 6.94118 4.79268
294 2 -3.08259 7.55252 1.11079
320 1 -1.36437 8.26068 0.265755
131 3 2.8341 8.18276 0.638596
322 2 -1.40011 8.19172 1.41105
240 2 1.84292 6.495 6.13094
324 1 -6.96763 11.9365 2.74628
354 3 -0.0948447 12.6338 0.833742
326 2 -6.05845 12.5522 3.256
364 2 -3.90586 7.10691 6.18783
328 1 -4.7337 10.0928 1.34486
329 2 -3.60104 9.99488 1.82759
330 2 -5.1996 9.16854 0.823709
331 2 -5.53707 10.6318 2.07695
332 1 -4.27775 13.1324 0.916323
1 4 -5.52813 12.9757 8.03471
139 3 0.548183 11.8037 6.78688
14 4 -4.53554 11.4477 0.0157725
295 2 -4.88871 7.95009 1.49816
291 2 -1.2957 6.66028 3.12387
4 4 -6.28272 12.7759 12.8718
212 2 -4.87824 10.3231 15.0139
238 2 -0.965368 8.01009 10.1779
18 4 -2.98889 8.55802 13.4787
19 4 -4.37143 10.6687 11.5865
26 4 -0.0875038 12.8621 13.4588
236 2 -0.736597 8.3893 11.9742
148 3 0.696808 12.0126 12.4023
37 4 -1.74251 10.9365 9.75789
39 4 2.35483 8.42449 12.7597
40 4 -1.23081 10.4832 15.0956
41 4 0.887893 10.7697 11.3345
68 1 -5.41658 10.9322 15.8608
75 1 0.712886 7.79792 8.89501
77 1 -0.642616 7.54943 11.2358
104 3 -3.56628 7.64397 8.74476
210 2 -5.7322 12.0264 15.4718
109 3 -4.04527 7.96282 14.5475
110 3 -2.50684 7.1028 12.684
111 3 -5.72549 10.1057 10.833
112 3 -3.81076 9.53755 12.5207
113 3 -4.84311 11.9722 12.545
232 2 -0.400566 7.51772 9.0454
105 3 -6.23599 11.7652 8.81282
237 2 0.355546 7.01597 11.2211
135 3 -1.89724 9.76953 8.61537
136 3 -1.25738 12.2799 8.89055
137 3 -3.17985 11.0695 10.6013
140 3 1.77483 7.09862 13.5247
142 3 -1.44668 9.24785 13.9182
143 3 -0.0786229 9.92104 16.2123
144 3 -0.831352 11.8448 14.4733
145 3 -2.58344 10.6481 16.0701
146 3 -0.547858 10.6365 10.7192
147 3 1.33233 9.3951 12.0102
231 2 1.13386 8.54689 9.71998
28 4 4.03677 6.42371 16.5572
36 4 1.16075 10.8169 16.7935
323 2 -1.54451 8.22819 16.6925
321 2 0.320507 7.82171 16.8043
279 2 2.30683 8.97531 8.48381
22 4 6.93969 2.76988 0.491835
42 4 9.14861 1.88153 3.99811
152 3 14.2976 0.478303 8.41191
46 4 11.8104 1.91833 5.80548
50 4 10.5467 3.75967 2.15565
269 2 11.3931 5.35781 5.92942
52 4 10.5926 3.80469 8.15809
72 1 6.97209 4.11462 1.80086
85 1 12.9672 3.01091 4.71614
86 1 8.77091 6.20593 4.18552
87 1 9.2957 4.80162 7.19924
124 3 6.69941 2.9511 7.46264
149 3 8.55631 0.724517 3.03394
150 3 8.15059 2.4894 5.3322
263 2 7.8147 6.21395 4.7894
155 3 10.6601 1.41786 4.86004
156 3 12.9152 0.801078 6.21372
164 3 9.39976 3.24641 3.08961
165 3 11.3602 2.55334 1.57698
166 3 11.5218 4.91937 2.95866
168 3 9.88363 4.75474 0.722438
170 3 11.3154 2.96242 6.99557
221 2 7.89225 4.81299 1.78398
222 2 6.88939 3.47679 2.79131
223 2 5.98596 4.72887 1.58571
247 2 6.18155 5.96367 4.12572
260 2 12.8144 2.84947 3.59103
207 2 13.1239 4.19152 6.98812
262 2 12.6635 4.11363 4.97979
358 2 14.9072 1.52464 0.803896
264 2 9.16363 5.14168 4.03093
88 1 11.2548 6.44954 6.24708
266 2 8.29043 4.32504 7.4726
267 2 9.49443 4.77208 6.08751
268 2 9.34142 5.85283 7.66242
293 2 11.717 6.16941 0.911149
43 4 11.6631 1.69759 0.186608
306 1 14.0933 1.3587 2.60713
307 3 12.5216 0.189843 0.657272
308 2 13.1796 2.07303 2.37754
309 2 14.2 1.05286 3.72997
345 2 4.47993 5.876 2.00998
80 1 5.06802 5.8958 3.93766
261 2 13.9819 2.68558 5.12082
51 4 9.22195 6.13279 0.244609
25 4 6.97916 1.91368 6.15394
287 4 12.1507 6.33556 3.15056
343 2 5.29415 5.93333 0.199258
2 4 14.7107 1.7507 9.26148
5 4 14.6721 1.60334 15.2491
9 4 12.186 6.25796 9.67255
45 4 9.50373 1.36014 9.80834
351 2 9.37 4.0341 15.1805
48 4 9.82668 1.54894 15.345
49 4 12.1929 1.82302 11.2799
55 4 10.9869 4.06548 13.0977
352 2 8.69155 5.80107 15.176
73 1 6.95642 3.11365 12.316
151 3 13.4211 1.92685 16.2983
248 2 5.47687 4.91103 11.5755
154 3 8.07978 1.2984 10.5764
157 3 14.5017 0.307295 14.2535
158 3 9.16173 0.444953 14.3887
159 3 10.9443 0.844256 16.2677
160 3 8.75041 2.17871 16.2661
161 3 13.4105 2.13299 10.1914
162 3 10.878 1.14458 10.564
163 3 12.6915 0.857161 12.3753
169 3 9.62232 2.96467 9.30191
171 3 11.4804 5.08017 8.72272
172 3 6.50082 5.054 8.88611
175 3 10.4399 2.96053 14.3032
176 3 11.7896 3.32889 11.9406
177 3 11.7018 5.22795 14.0058
353 2 7.74307 4.43027 16.1188
180 3 9.72473 4.61364 12.3653
224 2 6.98957 3.74564 11.2968
225 2 7.9203 3.24296 12.8582
350 1 8.77572 4.83977 15.7562
56 4 9.53066 6.26007 11.392
47 4 13.4723 -0.302118 13.1029
153 3 9.2184 0.39718 8.46057
316 2 16.2301 -0.00198953 16.2724
13 4 8.76998 10.6477 4.04771
278 2 3.04926 10.3133 7.1488
54 4 9.91011 7.28893 5.09797
57 4 7.65236 8.62154 1.74002
58 4 3.68248 10.9153 3.97368
59 4 8.06464 8.64737 7.36632
61 4 6.30564 10.7463 5.8371
79 1 4.52965 7.82517 6.48077
305 4 4.95674 13.0647 1.89563
91 1 7.84783 9.67395 0.106868
90 1 5.78249 8.46589 1.92934
365 2 7.94528 10.7809 0.29064
92 1 3.23829 9.73361 8.13536
44 4 5.07397 13.1156 7.35585
188 3 8.93289 9.43542 8.45084
174 3 11.1159 7.53227 4.11864
181 3 8.27488 7.11433 1.3831
182 3 8.30497 9.39993 3.01899
183 3 3.30414 9.78883 2.89017
184 3 4.25591 12.1869 3.09304
185 3 2.29052 11.2668 4.86553
186 3 7.42398 7.32651 8.0305
187 3 9.02163 8.08316 6.14167
280 2 4.24224 9.28461 8.18104
191 3 7.58214 11.2598 4.85616
192 3 4.88184 10.3346 4.89019
193 3 6.82167 9.56258 6.72215
194 3 5.87929 11.9443 6.70468
242 2 4.68128 8.76828 5.88999
243 2 5.26279 7.73728 7.32431
346 1 6.45059 12.0627 1.21048
349 2 7.31272 12.8343 1.03166
348 2 6.68855 11.3084 1.97947
274 2 5.31481 7.41021 1.54705
275 2 5.56068 9.33096 1.18942
276 2 5.54267 8.69714 2.99529
347 2 6.085 11.6392 0.274279
245 2 4.75578 6.83389 3.37267
270 2 10.7574 6.59396 7.25212
189 3 3.70046 12.5045 8.25139
34 4 2.2755 9.40757 1.76587
327 2 8.1866 12.595 2.90757
244 2 3.47685 7.75359 6.89805
265 2 8.50279 6.63895 3.09179
283 2 4.51227 9.65995 16.6969
33 4 4.20441 6.80129 10.582
206 2 8.62279 11.7063 14.7528
60 4 3.52683 11.2658 9.29074
62 4 3.34712 10.8091 14.6566
63 4 6.35382 10.8309 11.0192
66 1 8.6527 11.5229 13.6363
74 1 5.40647 7.32521 15.4435
89 1 9.23261 7.47143 12.7988
93 1 4.7752 10.505 15.9433
94 1 6.31634 9.37623 12.1124
356 2 9.27392 10.5862 13.3813
179 3 8.26686 6.35514 10.4196
211 2 9.82272 10.2858 16.2105
173 3 5.66529 7.29869 10.153
178 3 11.0132 6.63115 10.6616
366 2 9.32572 8.65881 16.3933
190 3 2.27238 11.1233 10.2808
195 3 3.11806 9.43004 13.8975
196 3 4.13349 11.9536 13.7897
197 3 2.13362 11.3109 15.5077
198 3 7.87197 10.7138 10.3994
199 3 4.90254 10.8315 9.94335
200 3 6.11487 12.2149 12.1206
227 2 5.1811 8.50726 15.624
229 2 6.38812 6.95001 15.8553
271 2 10.043 8.2641 12.4973
272 2 9.55884 6.9628 13.7462
273 2 8.21701 7.97184 12.8624
277 2 7.43099 8.82397 16.5722
281 2 4.71794 11.5354 16.4826
282 2 5.78556 10.369 15.4126
141 3 3.3571 7.86455 11.5858
284 2 7.15629 8.59806 12.1637
285 2 5.33002 8.90759 11.8157
286 2 6.29109 9.99437 13.1607
16 4 9.35548 10.5377 9.65751
228 2 5.09634 7.0747 14.3973
357 2 7.57575 11.6057 13.1629
53 4 7.01138 6.53788 9.40954
167 3 10.9984 6.33647 16.2474
11 4 12.1348 6.30897 15.0297
ITEM: TIMESTEP
200
ITEM: NUMBER OF ATOMS
366
ITEM: BOX BOUNDS xy xz yz pp pp pp
-8.3881239999999995e+00 1.6741099999999999e+01 -8.3881239999999995e+00
-6.4910000000000001e-01 1.3422400000000000e+01 6.1619999999999997e-01
0.0000000000000000e+00 1.6908999999999999e+01 -6.4910000000000001e-01
ITEM: ATOMS id type x y z
3 4 1.02306 3.07105 4.5674
8 4 -0.539241 4.09725 7.18112
20 4 7.42159 0.223019 2.08437
21 4 4.06668 2.18924 4.61589
29 4 5.6019 3.97687 8.13861
31 4 4.32884 6.04662 5.8521
319 2 -2.50134 4.33153 0.360597
64 1 0.942999 4.3124 3.10994
65 1 0.896727 1.47613 3.60949
67 1 -2.14555 4.95777 6.68448
70 1 3.81118 0.241125 4.16562
71 1 4.15464 3.10707 2.92627
78 1 2.46391 5.80902 5.52069
98 3 0.00985118 3.45436 5.74204
114 3 2.67764 2.8451 5.09009
115 3 6.78553 1.4234 1.33565
118 3 5.53265 2.23671 5.38117
119 3 7.21561 0.425858 6.69476
217 2 3.81539 0.0994416 2.93869
125 3 0.708083 5.15561 7.80934
312 2 1.55475 0.340298 6.19919
201 2 2.07702 4.54978 2.67048
202 2 0.376902 5.21272 3.35029
203 2 0.310034 3.74036 2.41606
311 2 0.434007 0.0821836 7.78519
205 2 0.686198 1.46507 2.51086
359 2 -0.566737 4.64288 0.584072
208 2 -2.05622 5.46273 5.54298
318 2 -1.8198 5.34815 1.85147
344 2 3.79595 4.82866 0.496003
342 1 4.39426 5.85514 0.732797
218 2 3.23331 3.75777 2.81879
219 2 3.91149 1.98343 2.37779
220 2 5.1706 3.50717 2.57871
239 2 2.20033 5.54108 4.46563
241 2 2.29125 4.97943 6.14495
341 2 3.26453 3.19667 1.11207
288 1 -2.18521 6.19003 3.68067
97 3 -0.982679 2.9506 8.20188
292 2 -2.04639 5.09109 3.90467
209 2 -2.34897 5.70421 7.56317
310 1 1.33924 0.536231 7.32804
204 2 1.9178 0.922507 3.79982
313 2 1.53342 1.56868 7.73894
317 1 -1.6127 4.97906 0.748642
361 2 3.00346 0.130174 1.45733
355 2 0.0582036 1.05923 4.26145
246 2 4.70829 5.0089 3.51779
362 2 2.89725 -0.0994272 4.78095
216 2 4.74442 -0.032075 4.73222
126 3 5.07683 4.90636 6.79052
338 1 2.75776 3.16676 0.0300582
291 2 -1.45564 6.47254 2.86097
363 2 -0.810234 1.35036 2.28758
6 4 1.13749 1.71106 11.0895
129 3 0.175209 5.84589 15.4213
337 2 3.25896 -0.0277867 15.4026
10 4 -0.0342539 3.77059 13.1723
12 4 -1.84509 6.09535 11.765
24 4 4.04479 1.94837 9.74541
301 2 4.52896 -0.271464 14.9942
27 4 6.85022 1.51617 11.4231
30 4 1.55924 6.02436 8.85994
76 1 1.1149 5.01638 10.3904
81 1 4.46204 5.19818 11.5156
95 3 0.109304 1.36548 9.91287
96 3 1.62254 0.436237 12.0338
128 3 2.97634 5.81666 15.6623
99 3 -0.815045 2.954 14.2834
100 3 0.362646 2.77409 12.0038
120 3 6.16378 2.6447 16.5132
102 3 -2.63635 5.95091 10.3984
103 3 -0.951575 5.01664 12.4493
116 3 3.88347 0.733587 8.60708
117 3 2.51027 2.34184 10.5007
121 3 5.24832 1.68528 10.7948
122 3 6.99965 0.274826 12.5564
123 3 4.39188 3.23537 8.92113
127 3 1.52674 4.4264 13.5973
101 3 -2.63341 5.69691 15.7281
233 2 1.69057 4.06106 10.5335
234 2 0.0490409 4.78687 10.2222
235 2 1.24703 5.76539 11.2309
249 2 4.12114 4.49231 10.6012
250 2 3.72446 5.21928 12.3887
296 4 4.91073 2.19758 15.6293
297 1 5.38317 0.479656 15.0425
298 1 4.51538 3.32488 14.1261
299 2 6.20225 0.233807 15.8746
300 2 5.96083 0.464822 14.008
7 4 -1.12769 5.79868 16.2718
302 2 4.77226 2.45835 13.3871
303 2 5.23606 4.17302 14.0735
304 2 3.3989 3.63646 14.0354
340 2 2.92986 3.52085 16.6914
314 1 -0.242333 0.996289 16.4578
315 2 0.654091 1.67848 16.3381
334 1 2.40119 0.349754 14.7705
335 2 1.44768 0.480603 15.4201
336 2 2.63049 1.26833 14.069
32 4 1.53304 5.85231 14.4783
360 2 4.8462 -0.244541 16.8023
130 3 3.01455 6.35558 9.13823
339 2 2.65871 1.64408 16.8769
34 4 2.22848 9.26528 1.70546
15 4 -3.03259 8.92637 7.8985
17 4 -4.40743 10.8943 5.98272
23 4 -0.233277 12.9239 7.73207
35 4 -1.87181 11.2321 3.77088
38 4 0.87893 10.9788 5.51377
69 1 -2.2164 8.1674 6.22764
82 1 0.898853 8.20496 2.60886
83 1 -2.01701 9.71457 2.74039
84 1 0.774757 9.12502 5.98663
106 3 -5.81303 10.6078 5.1655
107 3 -4.09974 9.77475 7.09041
108 3 -4.66246 12.2384 6.61357
132 3 -2.09847 12.7474 2.67603
133 3 -3.20895 11.0334 4.92168
134 3 1.37516 10.4877 0.963136
138 3 -0.416592 11.0866 4.49889
213 2 -1.15224 8.59684 6.16253
214 2 -2.8693 8.46963 5.40825
215 2 -2.22954 6.97441 6.4246
230 2 0.961294 8.10054 7.74393
289 1 -4.27041 7.1645 1.5059
333 2 -3.541 13.1133 1.55111
251 2 0.558561 8.78253 3.48327
252 2 1.52059 7.20249 2.808
253 2 -0.00498123 8.13027 1.75748
254 2 -2.22418 10.1705 1.70118
255 2 -2.94681 9.12929 3.08233
256 2 -0.949445 9.11443 2.73542
257 2 1.84322 8.89899 5.86803
258 2 0.0770572 8.41197 5.35094
259 2 0.425789 9.22296 7.05107
325 2 -7.09225 11.7754 1.9111
290 2 -2.21444 6.90616 4.62317
294 2 -3.28975 7.75149 1.29845
320 1 -1.47435 8.09887 0.344302
36 4 0.562532 11.4774 0.0326469
322 2 -1.56448 7.7044 1.39284
240 2 1.81151 6.67775 5.89251
324 1 -7.05298 11.9584 3.03121
354 3 0.0637109 12.7139 0.957616
326 2 -6.05204 12.4852 3.37731
364 2 -4.01237 7.26716 6.2499
328 1 -4.87393 10.2116 1.36978
329 2 -3.8613 10.0539 1.98961
330 2 -5.2989 9.17157 0.97363
331 2 -5.73539 10.8285 2.05754
332 1 -4.43908 13.2436 0.887342
1 4 -5.4107 13.0681 7.9059
139 3 0.593603 11.7292 6.88242
323 2 -2.30588 8.82875 0.0423867
321 2 -0.453392 8.4717 0.0395136
279 2 2.43592 8.91695 8.41167
4 4 -6.37143 12.7956 13.0954
212 2 -4.87102 10.2342 14.9292
238 2 -0.974925 7.92345 10.1977
18 4 -3.12314 8.48712 13.4567
19 4 -4.36908 10.7206 11.4072
26 4 -0.0417011 12.8455 13.4426
236 2 -0.745228 8.25712 12.1515
14 4 -4.03181 10.8317 16.8895
37 4 -1.62453 10.8891 9.6444
39 4 2.3786 8.37165 12.8531
40 4 -1.23087 10.5158 15.1093
41 4 0.97552 10.7812 11.4243
68 1 -5.43547 10.8178 15.7376
75 1 0.792447 7.77113 8.79858
77 1 -0.643897 7.51756 11.258
104 3 -3.63145 7.63821 8.71777
210 2 -5.73407 11.9142 15.4002
109 3 -3.86341 7.99027 14.7752
110 3 -2.72268 7.16623 12.5689
111 3 -5.66522 10.1033 10.6374
112 3 -3.94655 9.48393 12.4269
113 3 -5.00073 11.883 12.5335
232 2 -0.37677 7.50831 9.04386
105 3 -6.1912 11.9536 8.95101
237 2 0.376069 6.95635 11.3171
135 3 -1.80238 9.58665 8.63737
136 3 -1.30903 12.2245 8.704
137 3 -3.10231 11.0585 10.4671
140 3 1.6072 7.14191 13.6193
142 3 -1.71851 9.40143 13.9105
143 3 -0.0689915 10.0191 16.1862
144 3 -0.837504 11.8825 14.4906
145 3 -2.67122 10.6261 16.0998
146 3 -0.424443 10.5988 10.6023
147 3 1.34376 9.35998 12.1653
231 2 1.15652 8.43646 9.56466
28 4 4.07865 6.51637 16.5368
22 4 6.89268 2.72742 0.486876
42 4 9.21846 1.96823 4.06954
152 3 14.3605 0.584851 8.33356
46 4 11.8107 1.93877 5.79493
50 4 10.4392 3.86633 2.0779
269 2 11.4748 5.61706 5.87241
52 4 10.657 3.93964 8.11494
72 1 6.92653 4.11267 1.78575
85 1 12.895 3.14067 4.69823
86 1 8.80757 5.97703 4.26523
87 1 9.15802 4.88026 7.35956
124 3 6.78251 2.93872 7.62968
149 3 8.3857 0.850758 3.32027
150 3 8.19942 2.49842 5.41887
263 2 7.9554 5.88544 4.96269
155 3 10.7083 1.57438 4.71191
156 3 12.725 0.712926 6.2791
164 3 9.33962 3.22012 2.97686
165 3 11.2702 2.69404 1.43291
166 3 11.5093 4.86396 3.09435
168 3 9.80279 4.87464 0.94624
170 3 11.3131 2.97413 7.04149
221 2 7.95423 4.53842 1.726
222 2 6.66555 3.6813 2.82593
223 2 6.00187 4.85271 1.38693
247 2 6.12577 6.05549 3.94522
260 2 12.827 2.76405 3.63995
207 2 13.2523 4.07995 6.76004
262 2 12.4027 4.13376 4.81054
358 2 14.8407 1.59221 0.602108
264 2 9.56929 5.2009 4.4
265 2 8.57083 6.30779 3.14698
266 2 8.30265 4.57408 8.04576
267 2 8.90654 4.55688 6.30645
268 2 9.32879 5.99598 7.43498
293 2 11.7306 6.09221 0.95473
43 4 11.6378 1.80944 0.0952097
306 1 14.1792 1.40933 2.57578
307 3 12.3497 0.213731 0.660807
308 2 13.647 2.24435 1.98308