ITEM: TIMESTEP
0
ITEM: NUMBER OF ATOMS
366
ITEM: BOX BOUNDS xy xz yz pp pp pp
-8.2538999999999998e+00 1.6741099999999999e+01 -8.2538999999999998e+00
-6.5559100000000003e-01 1.3556623999999999e+01 6.1619999999999997e-01
0.0000000000000000e+00 1.6908999999999999e+01 -6.5559100000000003e-01
ITEM: ATOMS id type x y z
3 4 0.740122 2.68722 4.82368
8 4 -0.35638 4.44218 7.32233
361 2 3.77855 0.43233 0.785351
21 4 3.92798 2.07687 4.65105
239 2 2.42639 6.46173 4.51404
312 2 1.31538 0.375468 5.95372
338 1 2.78485 2.15852 0.264619
64 1 0.723918 3.71576 3.2538
65 1 -0.265466 0.979333 4.76442
67 1 -1.7815 5.57635 6.89914
70 1 3.93923 0.445889 3.77326
71 1 4.1183 3.23371 3.05801
78 1 2.82412 5.65441 5.25268
98 3 -0.000127053 3.59585 5.84915
114 3 2.47147 2.31665 5.20092
115 3 7.19105 0.922137 1.1331
118 3 5.39597 2.04755 5.49452
119 3 7.12597 0.372397 6.84508
220 2 4.85505 4.23218 3.37792
125 3 1.23032 5.43558 7.7154
25 4 6.91878 1.97483 6.25193
201 2 -0.0842521 4.54728 3.44965
202 2 0.370619 2.80151 2.59582
203 2 1.80952 4.18379 3.00012
204 2 0.308256 -0.0150532 4.51704
341 2 3.2 2.53883 1.33803
339 2 2.31076 1.07284 0.298145
97 3 -1.06596 3.39906 8.4287
209 2 -1.95677 5.65606 5.73007
290 2 -1.4824 6.45721 4.24815
217 2 3.57388 0.909087 2.74451
218 2 2.99201 3.55538 2.81614
219 2 4.67148 2.60221 2.22784
311 2 0.272508 0.35995 7.64034
344 2 4.20588 4.92698 0.396155
241 2 3.06104 4.71213 4.7164
216 2 5.02188 0.0752702 3.63808
288 1 -2.14509 5.72532 3.66059
291 2 -1.63449 5.48737 2.60377
292 2 -2.39481 4.6559 4.20819
359 2 -1.02192 3.98786 0.206151
310 1 1.28556 0.615989 7.13968
240 2 2.11823 5.5342 6.17267
313 2 1.71294 1.6919 7.32452
317 1 -1.26651 5.06495 0.641894
318 2 -0.507936 5.24791 1.39281
319 2 -2.30789 5.03766 1.11938
208 2 -2.71135 5.11994 7.46269
6 4 1.13456 1.72081 10.9333
120 3 6.13125 1.49857 16.2964
334 1 1.95254 0.468321 14.0684
10 4 -0.025379 3.87446 13.136
315 2 0.896829 2.0706 16.5568
24 4 3.9211 2.0029 9.64492
336 2 2.60191 1.46539 13.9195
27 4 6.72661 1.52236 11.5425
32 4 1.63638 5.98328 14.4766
76 1 1.05566 5.21681 10.4144
81 1 4.50686 5.1276 11.3686
95 3 -0.148725 1.53459 10.01
96 3 1.51152 0.29534 11.5873
128 3 3.19695 5.99176 15.495
99 3 -0.866903 2.99527 14.2069
100 3 0.541716 2.8544 12.0192
335 2 0.90418 0.774578 14.1556
102 3 -2.28553 6.16125 10.2341
103 3 -0.900122 5.11952 12.5405
116 3 3.49921 0.658711 8.90002
117 3 2.60093 2.56881 10.3389
121 3 5.19388 1.61935 10.8031
122 3 6.80951 0.165745 12.5647
123 3 4.70721 3.1892 8.76842
127 3 1.38393 4.52609 13.8283
340 2 2.76406 2.26513 16.6761
233 2 1.67533 4.25996 10.33
234 2 -0.0555265 5.06872 10.138
235 2 1.16104 5.70695 11.3926
249 2 3.87213 4.47387 10.627
250 2 3.99795 5.39723 12.3693
296 4 4.71653 1.48094 15.6314
297 1 4.84642 -0.124546 14.6978
298 1 4.29861 3.1266 14.5302
7 4 -0.854221 6.05969 16.4782
300 2 4.43769 0.375936 13.7105
337 2 2.23315 -0.171741 15.0423
302 2 4.50439 2.74647 13.4127
303 2 5.01867 3.94424 14.8427
304 2 3.24019 3.46438 14.6198
226 2 5.94392 3.14912 13.3325
314 1 -0.0649804 1.4046 16.4169
30 4 1.77558 6.23352 8.92365
316 2 0.17465 0.337512 16.0325
129 3 0.465896 6.0645 15.5161
332 1 -3.97483 12.9725 1.11291
15 4 -3.17774 9.0317 7.73832
17 4 -4.49264 11.1167 5.8916
293 2 -3.12157 7.60169 1.3847
35 4 -1.86349 11.4504 3.97607
257 2 2.31307 9.31626 6.48256
69 1 -2.41249 8.42231 6.10133
82 1 2.16793 7.81645 2.84455
83 1 -2.03343 9.87111 2.89428
84 1 1.42925 9.31821 5.64874
106 3 -5.86473 11.0082 4.80349
107 3 -4.27961 9.97704 6.98164
108 3 -4.72754 12.5081 6.72209
132 3 -1.72709 12.8253 3.2517
133 3 -3.14005 11.2465 4.9145
134 3 1.14662 9.99332 1.22464
138 3 -0.216734 11.1261 4.72739
213 2 -2.52074 9.08765 5.20297
214 2 -2.86059 7.4122 5.88616
215 2 -1.30949 8.30115 6.30702
230 2 1.2387 8.51323 7.5806
135 3 -1.76518 9.87299 8.45255
331 2 -5.84183 9.95994 1.77082
289 1 -4.05157 7.0501 1.64546
252 2 2.1954 6.96823 2.09313
253 2 1.13674 8.05023 3.36652
254 2 -2.02908 10.4132 1.87315
255 2 -2.97665 9.29511 3.1237
256 2 -1.14718 9.21246 3.10203
36 4 0.657223 11.1968 0.0882647
258 2 1.74176 8.76349 4.58084
259 2 0.469272 9.0091 6.06795
23 4 -0.13613 13.2178 7.86544
1 4 -5.61127 13.0606 7.92704
360 2 -2.81862 12.9695 1.1295
320 1 -1.31197 8.20711 0.799331
330 2 -4.79638 9.27605 0.288231
322 2 -1.23778 7.39301 1.70778
325 2 -7.0156 12.2731 1.70105
324 1 -6.99507 12.55 2.79546
321 2 -0.441019 8.93027 0.795827
326 2 -6.0332 13.0115 3.16142
333 2 -4.46539 12.4463 2.00453
328 1 -4.80631 10.0308 1.12113
329 2 -3.79181 9.9712 1.80855
323 2 -2.32087 8.74014 0.730396
354 3 0.13737 12.2631 1.13861
38 4 1.14824 11.2268 5.5469
139 3 0.746249 11.9729 7.06023
207 2 -1.32862 6.55798 7.37344
362 2 -5.00106 13.2284 4.2102
251 2 3.06203 7.77971 3.54855
20 4 -0.400218 13.3972 2.12186
327 2 -7.84829 13.2703 3.12249
4 4 -6.13181 12.8117 12.5904
148 3 0.648935 12.0427 12.1077
238 2 -0.640303 8.11427 10.2126
18 4 -2.97297 8.77146 13.3887
19 4 -4.252 10.7583 11.3447
12 4 -1.72784 6.53971 11.6993
26 4 -0.130404 12.9266 13.2025
211 2 -5.14979 11.1244 14.6844
37 4 -1.44166 10.8945 9.59696
39 4 2.52215 8.51093 12.9979
40 4 -1.1335 10.5471 15.0662
41 4 1.16471 10.7909 11.2136
68 1 -5.54386 11.2553 15.7189
75 1 0.951337 8.08953 8.60538
77 1 -0.338903 7.85141 11.2252
301 2 -4.14651 12.5653 14.983
105 3 -6.52693 11.9745 8.73267
109 3 -3.98766 7.98973 14.5768
110 3 -2.58496 7.3904 12.6548
111 3 -5.61065 10.3919 10.5081
112 3 -3.97272 9.76495 12.5033
113 3 -4.70964 12.1511 12.3658
232 2 -0.179401 7.96301 8.76855
231 2 1.38649 8.68215 9.43516
237 2 0.640955 7.3095 11.2875
130 3 3.30977 6.53654 9.17447
136 3 -1.0925 12.4543 8.93454
137 3 -2.80571 10.9781 10.5362
140 3 1.66149 7.18752 13.4609
142 3 -1.56486 9.61445 13.8498
143 3 0.0496153 9.94644 16.039
144 3 -0.747472 12.1219 14.4933
145 3 -2.63541 10.6704 15.9864
146 3 -0.174004 10.3729 10.4012
147 3 1.61848 9.61078 12.2751
236 2 -0.497305 8.70078 11.994
212 2 -5.94416 12.3294 15.9188
101 3 -2.33424 6.27579 15.7978
104 3 -3.48181 7.67906 8.49012
299 2 -2.33233 12.9714 14.6454
14 4 -3.87443 10.8599 16.8838
22 4 6.91178 2.18792 0.152334
42 4 9.22461 1.83968 4.05385
343 2 5.64073 6.34656 0.388019
46 4 11.8907 1.8525 5.92988
50 4 10.3095 3.92708 2.15448
355 2 15.3996 0.96543 5.78599
52 4 10.7499 3.87631 8.11382
72 1 6.77754 3.72679 1.30427
85 1 13.334 2.98706 5.22032
86 1 8.82916 6.05655 4.44553
87 1 9.55875 4.46558 6.66053
124 3 6.99619 3.139 7.37743
149 3 8.96878 0.433515 3.1548
150 3 8.09984 2.04914 5.22054
247 2 6.78441 6.55593 4.49057
155 3 10.7357 1.7252 4.86087
156 3 12.5499 0.500645 6.42382
164 3 9.22122 3.06325 3.03891
165 3 11.1195 2.8866 1.10645
166 3 11.3673 4.80487 3.20229
168 3 9.44881 4.91831 1.1417
170 3 11.4557 2.84384 7.10226
221 2 7.82636 4.21202 1.34213
222 2 6.51017 3.18277 2.31486
223 2 5.95818 4.56291 1.03601
246 2 6.42706 4.79283 3.81393
260 2 12.7765 3.26685 4.2348
261 2 14.2728 2.20999 5.0619
305 4 13.1454 0.00329537 1.92242
263 2 7.84816 6.17756 5.16862
264 2 9.16242 4.94045 4.50206
265 2 8.67225 6.43556 3.45737
266 2 8.89487 3.57695 6.56634
267 2 10.3097 4.62037 5.8116
268 2 8.97683 5.42844 6.97915
287 4 12.1499 6.19715 3.28978
80 1 5.9518 5.78747 4.07753
306 1 13.9201 1.77506 2.33734
307 3 12.1821 0.407527 0.706375
308 2 13.4509 2.51695 1.50966
309 2 13.7033 2.20266 3.40928
51 4 9.02308 6.38632 0.111817
245 2 5.45704 6.18451 3.13931
295 2 11.97 6.00034 1.06089
262 2 13.4891 3.86992 6.02585
205 2 15.1257 1.18391 3.85733
126 3 5.20669 5.1215 6.834
345 2 4.29876 6.31148 1.71516
152 3 14.2092 0.869342 8.43981
31 4 4.68 5.92859 5.61108
363 2 15.0764 1.57964 2.21309
29 4 5.88672 4.08873 8.09865
342 1 4.52273 6.06222 0.693895
270 2 9.7187 6.31597 7.69207
269 2 11.4135 6.32727 6.81191
358 2 14.9358 1.96384 0.596951
2 4 14.6071 2.10825 9.3549
5 4 14.6256 1.69159 15.1509
350 1 8.42588 5.31526 15.709
45 4 9.58261 1.68261 9.69542
351 2 8.90446 5.16466 14.7026
48 4 9.80744 1.53492 14.9169
49 4 12.2504 1.97505 11.4313
55 4 10.9154 4.13124 13.2697
153 3 9.26292 0.618366 8.53518
73 1 6.94987 3.04087 12.6746
151 3 13.4032 1.97255 16.1176
353 2 8.06695 4.23633 16.1663
154 3 8.01206 1.596 10.5817
157 3 14.5441 0.18783 14.48
158 3 9.2479 0.467791 13.8018
159 3 10.9633 0.870274 15.7427
160 3 8.67066 1.91432 16.048
161 3 13.391 2.37724 10.3242
162 3 10.8975 1.48597 10.5656
163 3 12.8554 0.712811 12.3276
169 3 9.8347 3.28734 9.29951
47 4 13.5189 -0.371981 13.2187
172 3 6.63265 5.09887 9.07486
175 3 10.2985 2.97951 14.195
176 3 11.9575 3.34996 12.165
177 3 11.7752 5.31357 13.9746
171 3 11.6567 5.13424 8.74237
180 3 9.6561 4.97665 12.5658
224 2 7.06112 4.0725 12.1436
225 2 7.88067 2.70881 13.2699
43 4 12.1248 1.24178 16.8341
248 2 5.59379 4.85356 11.4765
352 2 7.48093 6.07793 15.6281
13 4 8.87937 10.9512 3.81576
348 2 5.69473 11.4004 1.60292
54 4 10.0038 7.39758 5.36031
57 4 7.58201 8.92405 1.60525
58 4 3.84122 11.3507 3.88301
59 4 7.94725 8.87937 7.34056
61 4 6.4376 10.9666 5.7933
79 1 4.77769 7.76497 6.2016
131 3 3.28212 8.64022 0.343072
88 1 10.473 6.89361 7.03374
90 1 6.01829 8.74477 2.67926
349 2 7.25146 12.3904 1.84194
188 3 8.84428 9.62805 8.39345
189 3 4.28474 12.3362 8.3513
92 1 3.78401 9.49113 8.28378
174 3 11.4912 7.32241 4.46014
181 3 8.12627 7.45323 1.16553
182 3 8.81359 9.95127 2.66034
183 3 3.49945 10.2927 2.7515
184 3 4.28084 12.7854 3.17483
185 3 2.4569 11.7312 4.77254
186 3 7.53372 7.45092 7.98126
187 3 8.92099 8.42322 5.84416
294 2 11.1079 7.63534 1.55703
191 3 7.58493 11.0692 4.63658
192 3 4.95734 10.7936 4.80526
193 3 6.67408 9.72721 6.75383
194 3 6.41413 12.2749 6.70181
242 2 5.41747 8.29385 5.48447
243 2 5.13781 7.888 7.23917
346 1 6.22633 12.3423 1.2957
34 4 2.55106 9.35948 1.65834
364 2 10.6327 8.03866 7.39062
274 2 5.97153 7.58592 3.25374
275 2 5.2551 8.74577 1.7991
276 2 5.83923 9.65777 3.43642
283 2 3.96276 11.039 0.10225
278 2 4.06728 10.0436 7.26309
244 2 3.69406 7.87558 6.06166
347 2 6.24143 12.5325 0.155189
279 2 2.77335 8.89613 8.37963
44 4 5.19963 13.2356 7.44398
16 4 9.2244 10.6701 9.56743
33 4 4.37496 6.89975 10.6487
53 4 7.25568 6.59976 9.38115
60 4 3.85342 11.0773 9.29645
62 4 3.60002 10.7279 14.9013
63 4 6.31426 10.7724 11.1708
66 1 8.71547 11.4893 13.3975
74 1 5.89604 7.29559 15.3132
89 1 9.6484 7.94349 12.6087
93 1 5.09941 10.4093 16.0166
94 1 6.17496 9.46776 12.4598
141 3 3.73686 7.89116 11.751
56 4 9.77505 6.4681 11.4501
366 2 6.93095 9.64693 16.5775
173 3 5.88581 7.29214 10.1275
178 3 11.2266 6.65207 10.6761
206 2 8.72873 11.6352 14.4987
190 3 2.26294 11.1294 10.1253
195 3 3.25178 9.35867 14.1496
196 3 4.23087 12.0939 13.817
197 3 2.39256 11.1152 15.8801
198 3 7.72803 10.715 10.4299
199 3 5.11026 10.7397 10.1382
200 3 6.16334 12.4219 12.2073
227 2 5.24446 7.98593 14.6772
229 2 6.74839 7.96874 15.9425
271 2 8.70658 7.82344 13.1688
272 2 9.57551 8.83285 11.8739
273 2 10.5204 8.02372 13.3179
228 2 6.26747 6.42123 14.6805
281 2 5.96038 11.2032 16.026
282 2 5.50861 9.25718 15.7206
179 3 8.4979 6.5578 10.4072
284 2 7.02851 8.76934 11.9853
285 2 5.20925 8.94503 12.3021
286 2 6.40673 9.75668 13.5283
210 2 9.78137 10.3593 15.9972
356 2 9.11787 10.4618 13.0336
357 2 7.68721 11.8539 12.9474
365 2 8.39992 8.30496 16.1851
11 4 12.1871 6.47396 15.1129
280 2 4.67155 8.98019 8.81132
28 4 4.3094 6.68951 16.4031
167 3 11.0284 6.32418 16.2641
91 1 8.01877 9.23128 16.8562
9 4 12.3312 6.41356 9.56076
277 2 8.8118 10.0655 16.8813
ITEM: TIMESTEP
100
ITEM: NUMBER OF ATOMS
366
ITEM: BOX BOUNDS xy xz yz pp pp pp
-8.2538999999999998e+00 1.6741099999999999e+01 -8.2538999999999998e+00
-6.5559100000000003e-01 1.3556623999999999e+01 6.1619999999999997e-01
0.0000000000000000e+00 1.6908999999999999e+01 -6.5559100000000003e-01
ITEM: ATOMS id type x y z
3 4 0.866171 2.80783 4.93532
8 4 -0.307044 4.34825 7.37907
361 2 3.59536 0.346724 0.739683
21 4 4.05392 2.04939 4.6105
239 2 2.36907 6.44296 4.46741
312 2 1.26699 0.186334 6.04937
338 1 2.69411 2.12642 0.219812
64 1 0.726614 3.73928 3.36356
65 1 -0.302957 1.18055 4.90953
67 1 -1.72082 5.43401 6.80658
70 1 3.86826 0.468083 3.64617
71 1 4.12791 3.09263 2.98603
78 1 2.76927 5.67567 5.24836
98 3 0.152951 3.63335 6.02255
114 3 2.62514 2.36008 5.13279
115 3 7.21895 1.08692 1.14008
118 3 5.38182 1.97504 5.42154
119 3 7.36196 0.474772 6.99733
220 2 4.73459 4.09079 3.26253
125 3 1.21713 5.49996 7.70153
216 2 4.95557 -0.0181796 3.30461
201 2 0.354021 4.83353 3.62764
202 2 -0.173064 3.07599 2.94058
203 2 1.64237 3.69744 2.69476
204 2 0.391183 0.24956 4.90517
341 2 3.22117 2.55496 1.23165
339 2 2.04116 1.25748 0.462979
342 1 4.41756 5.69064 0.512817
209 2 -1.85577 5.48186 5.60969
290 2 -1.77258 6.46215 4.17999
217 2 3.14791 0.561196 2.71031
218 2 2.96113 3.30378 2.79572
219 2 4.55647 2.46487 2.21729
311 2 0.275586 0.240666 7.71666
344 2 3.9143 4.84034 0.190035
241 2 2.94454 4.55727 4.77197
362 2 3.38054 -0.131767 4.52592
288 1 -2.36579 5.66674 3.65506
291 2 -1.9638 5.38558 2.49492
292 2 -2.52063 4.62475 4.25891
359 2 -1.1445 3.87236 0.188625
310 1 1.23755 0.521665 7.14817
240 2 2.10132 5.63785 6.23902
313 2 1.47993 1.64417 7.34531
317 1 -1.42792 4.90276 0.649495
318 2 -0.692899 5.21886 1.43981
319 2 -2.50507 4.91047 1.09814
208 2 -2.60022 4.97592 7.40228
345 2 4.46511 5.79767 1.72358
207 2 -1.21256 6.43059 7.30787
358 2 -1.15715 1.9493 0.480437
6 4 1.12719 1.94749 10.9357
120 3 6.05215 1.67014 16.4552
334 1 2.03702 0.608796 14.2709
10 4 0.00464549 3.85157 13.1526
315 2 0.623724 2.2234 16.2697
24 4 3.99926 1.99291 9.67091
336 2 2.55318 1.6301 13.9689
27 4 6.84231 1.5162 11.5456
32 4 1.73462 5.92873 14.4166
76 1 1.21695 5.32592 10.336
81 1 4.42294 5.19673 11.68
95 3 -0.0284831 1.48249 9.95785
96 3 1.667 0.503978 11.5993
128 3 3.30019 5.79008 15.2396
99 3 -0.98554 2.99193 14.1989
100 3 0.632228 2.88934 12.1051
335 2 0.901995 0.68793 14.3244
102 3 -2.34424 5.94974 10.1395
103 3 -0.846602 5.10381 12.4455
116 3 3.65467 0.655391 8.84563
117 3 2.52398 2.67551 10.2103
121 3 5.04005 1.69757 10.9038
122 3 7.00415 0.225173 12.5484
123 3 4.80314 3.11083 8.88735
127 3 1.43311 4.50218 13.7898
340 2 2.69817 2.26007 16.5636
233 2 1.83492 4.35448 10.271
234 2 0.130819 5.13153 10.1042
235 2 1.39197 5.92603 11.3035
249 2 3.68309 4.41293 11.2079
250 2 4.01373 5.6453 12.6925
296 4 4.69363 1.62977 15.7415
297 1 4.81141 0.0263977 14.4381
298 1 4.35285 3.20541 14.6929
7 4 -0.919572 5.82798 16.4274
300 2 4.49947 0.261746 13.3895
337 2 2.52722 0.100725 15.1909
302 2 3.81085 2.98409 13.8179
303 2 5.13555 4.04594 14.5209
304 2 3.58201 3.56189 15.5267
226 2 5.90769 3.07783 13.3807
314 1 -0.102572 1.38491 16.3393
30 4 1.77734 6.33961 8.90882
316 2 0.37241 0.442423 16.0469
129 3 0.519005 6.04956 15.5642
101 3 -2.34857 6.0585 15.834
97 3 -0.87794 3.36767 8.55313
299 2 5.9515 -0.231386 14.4962
12 4 -1.67946 6.27007 11.6211
332 1 -4.03386 13.0067 1.01726
15 4 -3.07636 9.16462 7.57278
17 4 -4.55667 11.2031 5.89602
293 2 -3.2378 7.76325 1.38832
35 4 -1.85865 11.3862 4.00297
251 2 2.88959 8.08841 3.7636
69 1 -2.27303 8.29037 6.11221
82 1 1.88747 7.99909 3.16866
83 1 -2.02192 9.88471 2.81145
84 1 1.34719 9.40472 5.91227
106 3 -5.74292 11.0429 4.72184
107 3 -4.25812 9.98266 6.95761
108 3 -4.77759 12.5701 6.75198
132 3 -1.87172 12.5766 2.97967
133 3 -3.1479 11.319 5.09968
134 3 1.1366 9.94537 1.01799
138 3 -0.378523 11.1477 4.81286
213 2 -2.45815 8.89679 5.14661
214 2 -2.81518 7.30586 6.01399
215 2 -1.21667 8.13375 6.31869
230 2 1.14404 8.5548 7.73365
135 3 -1.89374 10.0152 8.28551
331 2 -5.87439 10.0123 1.67475
289 1 -4.23947 7.21372 1.72255
252 2 1.56211 7.0243 2.67844
253 2 0.945859 8.56817 3.54461
254 2 -2.0283 10.2672 1.76852
255 2 -2.95473 9.39335 3.19336
256 2 -1.10454 9.28852 2.95776
36 4 0.552395 11.233 0.0635994
258 2 1.57794 8.87389 4.92099
259 2 0.385421 9.061 6.42729
23 4 0.0212669 13.1356 7.93672
1 4 -5.50455 13.2154 8.01897
360 2 -2.91252 13.1837 0.936739
320 1 -1.40065 8.13263 0.64785
330 2 -4.86918 9.30762 0.217344
322 2 -1.52358 7.40679 1.61963
325 2 -7.28453 12.2021 1.85514
324 1 -7.21024 12.7224 2.94275
321 2 -0.473383 8.70809 0.733436
326 2 -6.1649 13.3217 3.15825
333 2 -4.41046 12.3472 1.91408
328 1 -4.82655 10.0247 1.0914
329 2 -3.84464 9.92835 1.78037
323 2 -2.31375 8.69498 0.368661
354 3 0.0502086 12.3924 1.04165
38 4 1.0152 11.2422 5.57001
139 3 0.827114 12.0101 7.00021
257 2 2.32259 9.42217 6.70577
20 4 -0.497884 13.4266 2.06273
34 4 2.39712 9.21997 1.79327
279 2 2.78392 8.82217 8.3027
4 4 -6.05492 13.0446 12.6769
148 3 0.824631 12.1391 12.1586
238 2 -0.484084 8.17112 10.2261
18 4 -3.04299 8.66423 13.355
19 4 -4.26816 10.8814 11.383
210 2 -6.19899 10.5985 16.1917
104 3 -3.69475 7.80353 8.73766
211 2 -5.20402 11.183 14.681
37 4 -1.58851 11.0561 9.67403
39 4 2.57664 8.53044 12.8549
40 4 -1.13878 10.595 14.927
41 4 0.950156 10.8144 11.2824
68 1 -5.41079 11.3736 15.798
75 1 0.966225 8.01771 8.74153
77 1 -0.301921 7.57771 11.2522
301 2 -4.17759 12.7043 14.9331
105 3 -6.45522 12.1156 8.8323
109 3 -3.95304 7.92782 14.5863
110 3 -2.53998 7.42363 12.4421
111 3 -5.56941 10.3083 10.4626
112 3 -3.98415 9.714 12.4731
113 3 -4.68681 12.1964 12.2583
232 2 -0.172438 7.87946 8.91219
231 2 1.4764 8.68696 9.52929
237 2 0.817268 7.15171 11.2644
130 3 3.32151 6.58371 9.41379
136 3 -0.890637 12.4036 9.0607
137 3 -2.9858 11.2245 10.432
140 3 1.79372 7.20969 13.4588
142 3 -1.69746 9.43974 13.8872
143 3 -0.022972 9.95238 15.9989
144 3 -0.564901 12.0113 14.343
145 3 -2.53502 10.7899 15.9628
146 3 -0.390675 10.4037 10.4997
147 3 1.50473 9.50324 12.0821
236 2 -0.543744 8.27547 12.1476
212 2 -5.80587 12.4535 15.9062
14 4 -3.80098 10.8151 16.8196
26 4 0.0528484 13.0172 13.2603
22 4 6.87348 2.37646 0.20886
42 4 9.1907 1.85744 3.98659
25 4 7.00477 1.9169 6.27459
46 4 11.828 1.75786 6.02123
50 4 10.2327 3.85765 2.00766
355 2 15.1911 1.19807 5.86139
52 4 10.7558 3.82627 8.0883
72 1 6.88164 3.82324 1.38438
85 1 13.1538 2.89839 5.20378
86 1 8.8976 6.18534 4.18233
87 1 9.72607 4.49218 6.63115
124 3 6.92264 3.03565 7.32856
149 3 8.78395 0.438138 3.17952
150 3 8.07137 2.31562 5.19324
270 2 9.80094 6.31462 7.72429
155 3 10.6857 1.65065 4.96959
156 3 12.653 0.424052 6.23386
164 3 9.20766 3.08555 3.04145
165 3 11.1955 2.79765 1.3555
166 3 11.251 4.84052 3.01135
168 3 9.58335 4.93505 1.01965
170 3 11.5318 2.56955 7.42906
221 2 7.91286 4.2627 1.16314
222 2 6.86566 3.23048 2.3915
223 2 5.98704 4.57902 1.15929
246 2 6.16769 4.73182 3.74284
260 2 12.6683 3.12766 4.24066
261 2 14.1391 2.20598 5.06448
305 4 13.067 0.00378321 1.93289
263 2 7.83201 6.33956 4.50346
264 2 9.24897 5.16221 4.22658
265 2 9.03422 6.5228 3.04917
266 2 9.12264 3.70208 6.16867
267 2 10.5746 4.64377 5.90129
268 2 9.09775 5.42804 6.95943
287 4 11.9334 6.24404 3.2922
80 1 5.64963 5.76519 3.87807
306 1 14.0192 1.72999 2.33561
307 3 12.0235 0.299276 0.747759
308 2 13.6134 2.44398 1.54642
309 2 13.7357 2.15434 3.44289
51 4 9.10725 6.50956 0.153105
245 2 4.97643 6.1283 2.99001
295 2 11.7887 6.21222 1.04276
262 2 13.4842 3.86861 5.7843
205 2 15.189 1.27346 3.93852
126 3 5.15132 4.96202 6.72612
29 4 5.88517 3.9924 8.09903
152 3 14.2202 0.779312 8.32972
31 4 4.58588 5.88779 5.59575
363 2 15.1278 1.5062 2.22923
247 2 6.52039 6.58479 4.08245
43 4 11.5433 1.80825 0.0054468
2 4 14.675 1.99725 9.24554
5 4 14.5769 1.60785 15.0579
350 1 8.66278 5.48596 15.5343
45 4 9.42629 1.70701 9.74795
351 2 9.39272 5.6985 14.7529
48 4 9.87146 1.72355 14.9199
49 4 12.201 2.04816 11.361
55 4 11.0667 4.12331 13.3636
153 3 9.36141 0.543105 8.63871
73 1 6.95738 2.90229 12.7923
151 3 13.4739 1.85588 16.1658
353 2 8.36592 4.42449 15.6212
154 3 8.12359 1.67777 10.673
157 3 14.4873 0.209132 14.2362
158 3 9.27054 0.69145 13.9422
159 3 10.9859 1.07127 15.8288
160 3 8.62353 1.9715 16.0225
161 3 13.5128 2.45646 10.2721
162 3 10.8934 1.50791 10.671
163 3 12.854 0.824622 12.3305
169 3 9.56805 3.23563 9.0404
47 4 13.4398 -0.433707 13.1784
172 3 6.67063 5.03208 9.08903
175 3 10.2538 3.1287 14.2436
176 3 11.8631 3.31152 12.1639
177 3 11.8598 5.18817 14.2797
171 3 11.8154 5.12931 8.52568
180 3 9.98665 5.17665 12.4656
224 2 7.26398 3.76184 12.2039
225 2 7.80766 2.59885 13.4488
248 2 5.4897 4.77629 11.7263
352 2 7.65686 6.16474 15.5253
343 2 6.14331 5.17622 16.8683
13 4 8.92554 11.0922 3.85246
348 2 5.68062 11.3706 1.3081
54 4 9.95653 7.45635 5.32805
57 4 7.58023 8.92799 1.54983
58 4 3.74923 11.3999 3.92242
59 4 7.98647 8.7982 7.35546
61 4 6.34001 10.969 5.8452
79 1 4.74105 7.74083 6.18569
131 3 3.20607 8.22263 0.587944
88 1 10.4652 7.02387 6.99789
90 1 5.87266 8.68537 2.40599
349 2 7.07573 12.6038 1.81523
188 3 8.92911 9.48996 8.41512
189 3 4.17201 12.2868 8.30121
92 1 3.81619 9.4893 8.11395
174 3 11.294 7.3029 4.37661
181 3 8.19057 7.45617 1.07776
182 3 8.7884 9.85635 2.52596
183 3 3.29849 10.3479 2.56636
184 3 4.26767 12.7281 3.22282
185 3 2.31845 11.5948 4.69407
186 3 7.52331 7.35868 7.99553
187 3 8.98761 8.53715 5.90952
294 2 10.9611 7.8599 1.82716
191 3 7.63335 11.1801 4.73756
192 3 4.88405 10.7524 4.9789
193 3 6.70538 9.70857 6.84192
194 3 6.39645 12.2924 6.62312
242 2 5.05849 8.53167 5.42663
243 2 5.35429 7.67298 7.19086
346 1 6.13264 12.4489 1.09341
280 2 4.78825 8.95474 8.41787
364 2 10.5846 8.07168 7.45274
274 2 5.78797 7.52645 2.93304
275 2 5.0893 8.75639 1.55659
276 2 5.73267 9.47826 3.12508
283 2 3.79841 10.8725 0.0859972
278 2 3.91846 10.1847 7.1429
244 2 3.60502 7.74368 6.36947
269 2 11.4979 6.56546 6.61544
327 2 7.98846 13.334 3.21789
44 4 5.21603 13.2232 7.45498
16 4 9.31165 10.6607 9.46848
33 4 4.37418 6.75555 10.6288
53 4 7.13311 6.57395 9.38034
60 4 3.78744 10.998 9.30959
62 4 3.50409 10.7362 14.9018
63 4 6.45524 10.8377 11.1609
66 1 8.95715 11.5645 13.3393
74 1 5.9224 7.18455 15.2822
89 1 9.85087 7.95735 12.6014
93 1 5.04757 10.2247 15.9551
94 1 6.32868 9.22298 12.1366
141 3 3.65425 7.98684 11.893
56 4 9.85371 6.39916 11.4934
366 2 6.92485 9.62955 16.5089
173 3 5.94357 7.28245 10.2099
178 3 11.1991 6.517 10.7411
206 2 8.91659 11.5392 14.4688
190 3 2.29853 11.0324 10.1434
195 3 3.32881 9.40058 14.0442
196 3 4.12562 12.0688 14.1034
197 3 2.41204 11.0654 16.0805
198 3 7.9927 10.8838 10.4045
199 3 5.07145 10.729 10.2553
200 3 6.11793 12.0458 12.278
227 2 5.2908 7.8531 14.6544
229 2 6.69302 7.8439 15.9188
271 2 8.89275 7.98482 13.1415
272 2 10.0521 8.86576 11.8912
273 2 10.7091 7.82526 13.3382
228 2 6.38303 6.28637 14.6771
281 2 5.80052 11.0477 16.0664
282 2 5.37651 9.15901 15.6857
179 3 8.55084 6.5292 10.5294
284 2 7.04621 8.43791 11.6801
285 2 5.24794 8.8888 12.0927
286 2 6.74165 9.61076 13.1356
91 1 7.99065 9.23661 16.8112
356 2 9.38528 10.6091 12.9366
357 2 7.86953 11.7617 13.0045
365 2 8.41527 8.36581 16.1644
11 4 12.2601 6.46263 15.2343
9 4 12.2845 6.47698 9.61089
28 4 4.3699 6.48681 16.3137
167 3 11.0265 6.47186 16.4576
347 2 6.80305 12.1513 16.8614
277 2 8.83191 10.1254 16.9011
ITEM: TIMESTEP
200
ITEM: NUMBER OF ATOMS
366
ITEM: BOX BOUNDS xy xz yz pp pp pp
-8.2538999999999998e+00 1.6741099999999999e+01 -8.2538999999999998e+00
-6.5559100000000003e-01 1.3556623999999999e+01 6.1619999999999997e-01
0.0000000000000000e+00 1.6908999999999999e+01 -6.5559100000000003e-01
ITEM: ATOMS id type x y z
3 4 0.953506 2.77979 4.88599
8 4 -0.294633 4.41357 7.33689
361 2 3.65447 0.433371 0.697725
21 4 4.05342 2.03963 4.50809
358 2 -1.12792 1.86648 0.580444
312 2 1.3175 0.595879 6.3564
338 1 2.52861 2.03392 0.322351
64 1 0.853185 3.71468 3.2757
65 1 -0.187042 1.14426 4.79133
67 1 -1.7601 5.43064 6.86455
70 1 3.74698 0.435586 3.61314
71 1 4.17172 3.11854 2.96446
78 1 2.65246 5.71955 5.13584
98 3 0.334245 3.63015 6.07824
114 3 2.63141 2.31543 5.13787
115 3 7.07591 1.21558 1.34675
118 3 5.36966 1.85373 5.33533
119 3 7.31472 0.401288 6.89866
220 2 4.78753 4.17625 3.19053
125 3 1.18366 5.57932 7.70562
207 2 -1.40647 6.43613 7.31527
201 2 0.751509 4.7278 3.74373
202 2 -0.1768 3.17206 2.95288
203 2 1.74941 3.63603 2.44787
204 2 0.597879 0.2988 4.63
341 2 3.1231 2.36332 1.38163
339 2 2.26289 0.951888 0.223225
342 1 4.52118 5.58421 0.409204
209 2 -1.96611 5.56031 5.71522
290 2 -1.7382 6.44426 4.26533
217 2 3.0826 0.586029 2.69121
218 2 3.04045 3.28754 2.73199
219 2 4.68686 2.45531 2.19472
311 2 0.310364 0.247558 7.97527
344 2 3.75393 4.642 0.504317
241 2 2.84459 4.7498 4.46297
97 3 -1.00275 3.34635 8.43854
288 1 -2.33743 5.67819 3.70798
291 2 -1.99271 5.45739 2.62629
292 2 -2.48569 4.65218 4.28453
359 2 -1.07392 3.84566 0.241104
310 1 1.30763 0.686442 7.52424
240 2 1.97379 5.57821 6.1015
313 2 1.69374 1.73686 7.88372
317 1 -1.44461 4.91936 0.741747
318 2 -0.690405 5.23292 1.57625
319 2 -2.47551 4.82836 1.14725
208 2 -2.54687 4.91632 7.41448
25 4 6.86833 1.82592 6.23162
31 4 4.47963 5.89151 5.48293
362 2 3.24682 -0.0750018 4.4617
216 2 4.72384 0.0259001 3.29101
340 2 1.66804 2.73932 0.0928752
6 4 1.13488 1.84736 10.9194
120 3 5.9127 2.06984 16.6108
334 1 2.17606 0.769432 14.1541
10 4 0.0169991 3.92158 13.0471
315 2 0.958304 1.86407 16.3675
24 4 4.14433 2.07819 9.80561
336 2 2.83413 1.59017 13.9129
27 4 6.76913 1.51947 11.6391
32 4 1.69261 6.00241 14.5531
76 1 1.17218 5.19615 10.3305
81 1 4.58427 5.23008 11.6599
95 3 0.0819708 1.4977 9.86098
96 3 1.52663 0.417416 11.5235
128 3 3.03014 6.06212 15.4922
99 3 -0.776691 2.90969 14.2749
100 3 0.491241 2.9175 11.9565
335 2 1.08891 1.23199 14.2203
102 3 -2.33618 5.90458 10.1563
103 3 -0.940713 4.97635 12.3539
116 3 3.66161 0.759642 8.89774
117 3 2.73297 2.67154 10.2992
121 3 5.29375 1.75092 11.0149
122 3 7.1325 0.205177 12.4661
123 3 4.65984 3.23425 8.77588
127 3 1.46601 4.56647 13.671
299 2 5.87631 -0.0809498 15.2866
233 2 1.90313 4.22981 10.2967
234 2 0.133066 4.83731 10.1592
235 2 1.3498 5.79068 11.3671
249 2 3.66156 4.57677 11.3924
250 2 4.56826 5.66659 12.8029
296 4 4.64011 1.79518 15.7576
297 1 4.92079 0.20316 14.7551
298 1 4.23414 3.28481 14.6602
7 4 -0.858731 5.93515 16.457
300 2 5.15044 0.26273 13.683
337 2 2.44731 0.198197 15.1516
302 2 4.37452 3.0648 13.4507
303 2 4.77178 4.18713 14.9897
304 2 3.05274 3.22818 15.0492
226 2 5.94805 3.20888 13.5725
314 1 -0.0398894 1.30373 16.4284
30 4 1.74535 6.292 8.94649
316 2 0.10039 0.215819 16.0101
129 3 0.416324 6.0404 15.5032
101 3 -2.25882 6.11513 15.8446
12 4 -1.74368 6.17558 11.6816
332 1 -3.88179 13.0438 0.882241
15 4 -3.07571 9.14406 7.62696
17 4 -4.47745 11.2587 5.7307
293 2 -3.06752 7.49327 1.56015
35 4 -1.79647 11.3802 3.89637
251 2 2.53128 8.25639 4.08504
69 1 -2.25923 8.31977 6.07251
82 1 1.7563 8.15626 3.21716
83 1 -2.14982 9.63275 3.08566
84 1 1.11303 9.54941 6.13745
106 3 -5.86894 11.1651 4.77453
107 3 -4.2977 9.96679 6.82066
108 3 -4.77117 12.5802 6.62453
132 3 -1.84456 12.6079 2.80037
133 3 -3.23295 11.4898 4.7696
134 3 1.09608 9.90899 1.05528
138 3 -0.483636 11.3212 4.67765
213 2 -2.20521 8.86592 5.03006
214 2 -2.92589 7.40344 6.03337
215 2 -1.27297 8.12748 6.47559
230 2 0.975828 8.51771 7.92564
135 3 -2.03539 10.1 8.39278
331 2 -5.7146 10.1521 1.71837
289 1 -4.11145 7.02097 1.78264
252 2 1.82576 7.06435 2.77912
253 2 0.7243 8.50118 3.54544
254 2 -1.91647 9.97634 2.03705
255 2 -3.14226 9.10894 3.13657
256 2 -1.34682 9.05033 3.52715
36 4 0.555852 11.1434 0.0348614
258 2 1.42239 8.87938 5.21219
259 2 0.0836785 9.33891 6.61532
23 4 0.0401873 13.1707 7.93928
1 4 -5.46342 13.1604 8.03795
360 2 -2.82363 13.396 0.889787
320 1 -1.25517 8.00187 0.804784
330 2 -4.83841 9.40306 0.191898
322 2 -1.42733 7.50841 1.83105
325 2 -7.04756 12.0205 1.61818
324 1 -7.13813 12.4801 2.68953
321 2 -0.328301 8.69549 0.772001
326 2 -6.14353 13.021 3.04171
333 2 -4.14753 12.4735 1.89639
328 1 -4.72722 10.0965 1.14786
329 2 -3.75031 9.94608 1.85301
323 2 -2.20245 8.55708 0.501624
354 3 0.137991 12.3738 1.0876
38 4 1.03854 11.3859 5.61064
257 2 1.98714 9.59347 6.91745
20 4 -0.54566 13.4269 2.11647
34 4 2.45291 9.21555 1.81032
239 2 2.24819 6.67903 4.46651
279 2 2.66239 8.84808 8.48765
26 4 0.109864 12.9065 13.1767
238 2 -0.767665 8.14135 10.599
18 4 -2.93798 8.60303 13.3942
19 4 -4.22475 10.8158 11.4108
14 4 -3.81371 10.913 16.7993
104 3 -3.35037 7.66798 8.50531
211 2 -4.93418 11.1355 14.6732
37 4 -1.59753 11.1046 9.63356
39 4 2.50608 8.59799 12.8823
40 4 -1.1688 10.4936 14.9944
41 4 1.05876 10.7311 11.2934
68 1 -5.40718 11.3641 15.6293
75 1 0.900152 7.93869 8.94252
77 1 -0.41196 7.56458 11.4751
301 2 -4.20775 12.8316 15.0155
105 3 -6.14556 12.0055 8.9762
109 3 -3.89202 7.96085 14.5445
110 3 -2.5428 7.24276 12.6118
111 3 -5.58412 10.2146 10.6825
112 3 -3.6966 9.62421 12.3198
113 3 -4.66727 12.2243 12.3409
232 2 -0.231082 7.88566 9.2265
231 2 1.3942 8.47833 9.72991
237 2 0.648607 7.11233 11.4123
130 3 3.29859 6.57806 9.2476
136 3 -1.0005 12.4468 8.90517
137 3 -3.07781 11.2625 10.3755
140 3 1.8317 7.2512 13.4881
142 3 -1.50818 9.29867 13.9186
143 3 -0.0419986 9.87473 16.0535
144 3 -0.582176 11.8464 14.2384
145 3 -2.48664 10.7472 15.9714
146 3 -0.533205 10.5078 10.6496
147 3 1.46199 9.44644 12.0876
236 2 -0.440083 8.20139 12.4477
212 2 -5.98026 12.3667 15.5878
210 2 -6.18353 10.4978 15.8779
4 4 -6.13617 12.9982 12.6241
22 4 6.91609 2.50415 0.420678
42 4 9.19894 1.85166 3.90353
269 2 11.3046 6.16335 6.51576
46 4 11.8041 1.73397 5.88277
50 4 10.3106 3.86628 2.02687
345 2 4.97998 5.85701 1.43793
52 4 10.7833 3.74486 8.02069
72 1 7.03879 3.89592 1.59099
85 1 13.2575 2.87203 5.1855
86 1 8.64262 6.3516 4.33278
87 1 9.79141 4.31763 6.46002
124 3 7.00265 2.92235 7.3855
149 3 8.81777 0.467932 3.21847
150 3 7.90193 2.28858 5.15123
270 2 9.73757 6.23107 7.62946
155 3 10.533 1.78582 4.80886
156 3 12.5819 0.356388 6.10071
164 3 9.17202 3.05371 2.88304
165 3 11.2529 2.86867 1.27433
166 3 11.0698 4.9201 3.22027
168 3 9.67446 4.9348 0.909214
170 3 11.5783 2.5731 7.26248
221 2 8.01934 4.45696 1.39124
222 2 7.0717 3.36406 2.57795
223 2 6.05118 4.50159 1.22623
246 2 6.2397 4.85495 3.64619
260 2 12.6703 3.09964 4.15464
261 2 14.235 2.18163 5.03329
152 3 14.1467 0.840674 8.2709
363 2 15.0731 1.17313 2.21482
264 2 9.01185 5.2945 4.56772
355 2 15.3811 1.01931 5.72541
266 2 9.0247 3.47797 6.09037
267 2 10.5084 4.60982 5.7009
268 2 9.24107 5.23311 6.81049
287 4 11.9324 6.2499 3.47552
80 1 5.78257 5.83965 3.68919
306 1 13.9528 1.4939 2.31009
307 3 11.9774 0.289152 0.708434
308 2 13.7654 2.20646 1.44836
309 2 13.7124 1.9928 3.38057
51 4 9.19097 6.51086 0.0284043
245 2 4.992 6.00996 2.81229
295 2 11.8442 6.05837 1.22732
262 2 13.6541 3.85544 5.76576