ITEM: TIMESTEP
0
ITEM: NUMBER OF ATOMS
366
ITEM: BOX BOUNDS xy xz yz pp pp pp
-8.3364390000000004e+00 1.6908511000000001e+01 -8.3364390000000004e+00
-6.4910000000000001e-01 1.3422400000000000e+01 6.2236199999999997e-01
0.0000000000000000e+00 1.6908999999999999e+01 -6.4910000000000001e-01
ITEM: ATOMS id type x y z
3 4 1.14985 2.91306 4.59582
8 4 -0.542002 4.07252 7.16013
20 4 7.60165 0.251653 1.83701
21 4 4.10845 2.09462 4.44592
29 4 5.76061 3.95799 8.08186
361 2 3.01476 0.117163 1.35733
319 2 -2.15369 4.5265 0.388041
64 1 0.944925 4.06913 3.12928
65 1 0.819059 1.29353 3.76615
67 1 -2.02064 5.19909 6.7693
70 1 3.83349 0.224002 4.00942
71 1 4.24736 2.95741 2.76361
78 1 2.59979 5.74621 5.67351
98 3 -0.0810296 3.47267 5.73854
114 3 2.72472 2.74844 5.13121
115 3 6.68677 1.41311 0.909132
118 3 5.49859 2.07316 5.14387
119 3 7.242 0.430575 6.62635
216 2 4.86069 -0.0534934 4.43288
125 3 0.756738 5.12927 7.87743
312 2 1.32908 0.353723 6.06398
201 2 2.12715 4.25809 3.00922
202 2 0.294062 4.95827 3.44513
203 2 0.445818 3.52593 2.277
311 2 0.0235061 0.464871 7.59935
205 2 0.648307 1.44568 2.63705
359 2 -0.283558 4.71323 0.786034
208 2 -2.0373 5.71844 5.54675
318 2 -1.53818 5.70359 1.89292
344 2 3.80947 4.76034 0.523262
342 1 4.42628 5.78164 0.811844
218 2 3.37357 3.69623 2.76335
219 2 3.91584 1.86948 2.2756
220 2 5.25769 3.28573 2.36379
239 2 2.05771 5.61493 4.74505
241 2 2.63409 4.77676 6.25379
341 2 3.31198 3.02325 0.948664
288 1 -2.04737 6.46902 3.71274
97 3 -1.05733 3.00211 8.17243
292 2 -1.64935 5.4235 3.87005
209 2 -1.87672 5.99083 7.56044
310 1 1.10877 0.534082 7.19219
204 2 1.93453 0.759762 3.86116
313 2 1.5644 1.59634 7.62081
317 1 -1.2929 5.21386 0.806096
25 4 6.92496 1.83541 5.99183
355 2 0.044255 0.686578 4.23501
246 2 5.09225 4.67736 3.41587
287 4 -3.93594 6.4222 3.15786
217 2 3.96184 -0.0592522 2.86897
31 4 4.50208 5.98052 5.70544
6 4 1.28832 1.66994 11.0526
360 2 4.96621 -0.25343 16.8773
337 2 3.24384 -0.00494964 15.3009
10 4 0.0511959 3.67832 13.1832
12 4 -1.79514 6.16006 11.7252
24 4 4.09681 1.93288 9.80919
301 2 4.66138 -0.236169 15.0828
27 4 7.00512 1.43066 11.4843
30 4 1.47173 6.06367 9.00226
76 1 1.21692 5.07455 10.5172
81 1 4.40081 5.21029 11.5908
95 3 0.0304427 1.62678 9.96775
96 3 1.52733 0.217195 11.7707
128 3 3.11613 5.81299 15.374
99 3 -0.600644 2.87982 14.4913
100 3 0.509924 2.56977 12.2027
120 3 6.16608 2.8947 16.2993
102 3 -2.39911 5.75317 10.279
103 3 -0.934066 4.86132 12.5214
116 3 3.70687 0.67737 8.88075
117 3 2.77956 2.32032 10.5972
121 3 5.38342 1.60558 10.7793
122 3 6.99248 0.398519 12.6389
123 3 4.58811 3.21914 8.86615
127 3 1.67585 4.41094 13.6733
101 3 -2.36597 5.98267 15.8138
233 2 2.13572 4.38044 10.3774
234 2 0.25014 4.54888 10.3571
235 2 1.22217 5.53909 11.5106
249 2 3.81852 4.45114 10.9613
250 2 3.91163 5.57154 12.5248
296 4 4.87611 2.30248 15.5048
297 1 5.52242 0.560294 15.1441
298 1 4.49383 3.38755 13.9636
299 2 6.32324 0.280781 15.9034
300 2 6.04954 0.606626 14.0818
339 2 2.69957 1.61424 16.5901
302 2 4.6602 2.44677 13.2993
303 2 5.31024 4.1431 13.8654
304 2 3.40298 3.84906 13.8974
338 1 3.42624 2.45033 16.8327
314 1 -0.0393615 0.898389 16.612
315 2 0.777983 1.69966 16.6351
334 1 2.3796 0.388863 14.6043
335 2 1.42705 0.616107 15.1984
336 2 2.6872 1.30371 14.0094
32 4 1.70588 5.89795 14.388
340 2 2.95328 3.40246 16.6454
7 4 -0.763948 6.0116 16.3912
129 3 0.435372 5.97799 15.3978
316 2 0.36376 -0.102522 16.3315
36 4 0.712432 11.5243 0.00688253
15 4 -3.13328 9.00473 7.79365
17 4 -4.5819 11.004 5.93442
23 4 -0.220145 12.9748 7.73071
35 4 -1.76638 11.5078 3.80923
38 4 1.00128 11.244 5.47654
69 1 -2.17564 8.38632 6.30635
82 1 1.12922 8.13192 2.61419
83 1 -1.66065 9.93505 2.74534
84 1 0.956443 9.33729 5.59159
106 3 -5.87679 10.7522 4.99344
107 3 -4.38236 9.79988 6.95368
108 3 -4.87624 12.3582 6.69147
132 3 -2.00238 12.7291 2.77649
133 3 -3.21486 11.1158 4.96373
134 3 1.57642 10.5295 1.05273
138 3 -0.281588 11.4466 4.49741
213 2 -1.12508 8.90413 6.15702
214 2 -2.91086 8.65413 5.43197
215 2 -2.09371 7.18471 6.46895
230 2 1.00853 8.08432 7.67499
289 1 -4.0882 7.18237 1.5283
333 2 -3.46934 12.9855 1.65307
251 2 0.951691 8.60342 3.71799
252 2 1.54151 7.08774 2.56668
253 2 0.194643 8.26519 1.86998
254 2 -1.71773 10.5689 1.70724
255 2 -2.4393 9.20123 3.08954
256 2 -0.570751 9.4595 2.86171
257 2 1.98895 9.09837 5.21314
258 2 0.10784 8.8294 4.98442
259 2 0.834353 9.07207 6.77003
325 2 -6.78658 11.7036 1.64319
290 2 -2.05289 7.13945 4.73044
294 2 -3.08908 7.63638 1.20256
320 1 -1.31454 8.28358 0.542675
291 2 -1.39966 7.03568 2.96515
322 2 -1.68455 8.18381 1.6069
279 2 2.54667 8.98871 8.34114
324 1 -6.96775 12.0447 2.74655
354 3 -0.050091 12.6557 0.827013
326 2 -6.0426 12.6345 3.24965
364 2 -3.82457 6.73721 6.24622
328 1 -4.62484 10.2453 1.40622
329 2 -3.50017 10.1638 1.87684
330 2 -5.01907 9.23417 1.09
331 2 -5.49454 10.8551 2.10314
332 1 -4.3385 13.1614 0.866934
321 2 -0.220002 8.67608 0.354562
139 3 0.639662 11.7293 7.14161
1 4 -5.76303 12.9802 7.93896
240 2 2.13054 6.58338 6.22689
362 2 -5.32322 13.0869 4.51354
4 4 -6.22336 12.7235 12.8535
212 2 -4.69544 10.1817 14.8173
238 2 -0.565444 7.96473 10.3974
18 4 -2.93484 8.55143 13.4426
19 4 -4.31872 10.6612 11.4298
26 4 -0.010402 12.8268 13.4861
236 2 -0.465921 8.04297 12.2909
130 3 2.99024 6.43595 9.22962
37 4 -1.67569 11.0401 9.64839
39 4 2.56658 8.57695 12.7425
40 4 -1.08352 10.4029 15.1164
41 4 1.04646 10.8696 11.4076
68 1 -5.27206 10.8099 15.6167
75 1 0.805356 7.91706 8.76871
77 1 -0.300582 7.36533 11.3716
104 3 -3.74613 7.50674 8.62139
210 2 -5.64386 11.9226 15.2121
109 3 -3.95452 7.83438 14.6867
110 3 -2.57343 7.19012 12.6705
111 3 -5.64018 10.0308 10.6963
112 3 -3.66623 9.65465 12.5074
113 3 -4.89407 11.9856 12.4238
232 2 -0.341088 7.81246 8.93303
105 3 -6.49201 11.7721 8.83642
237 2 0.753019 6.84707 11.4159
135 3 -2.08353 9.83041 8.64856
136 3 -1.28066 12.3834 8.86984
137 3 -3.15924 11.2975 10.5227
140 3 1.93126 7.17219 13.405
142 3 -1.58604 9.10787 14.1915
143 3 0.217218 9.9605 16.0712
144 3 -0.906494 11.8062 14.3133
145 3 -2.47031 10.5344 16.1072
146 3 -0.410925 10.6495 10.6524
147 3 1.36831 9.47746 12.1269
231 2 1.30751 8.65726 9.42358
28 4 4.22185 6.43627 16.459
14 4 -3.84259 10.7304 16.8149
323 2 -1.436 8.22229 16.8272
22 4 7.01253 2.76238 0.284057
42 4 9.28619 1.89559 3.96419
363 2 15.4826 1.29389 2.43655
46 4 11.9254 1.88597 5.73038
50 4 10.7586 3.77799 2.04042
269 2 11.2225 5.31863 5.98651
52 4 10.6836 3.75381 8.11504
72 1 7.09388 4.04701 1.7255
85 1 12.9369 3.1042 4.64556
86 1 8.5987 6.26745 4.3005
87 1 9.22371 4.38879 7.02263
124 3 6.72337 2.86358 7.33023
149 3 8.683 0.813899 2.90805
150 3 8.15252 2.26415 5.12546
343 2 5.43184 5.83568 0.188378
155 3 10.654 1.3651 4.70967
156 3 12.9162 0.757361 6.26822
164 3 9.60046 3.37671 3.05348
165 3 11.7254 2.5984 1.52475
166 3 11.8628 4.98011 3.01069
168 3 10.1584 4.90125 1.01331
170 3 11.4564 2.82491 6.97656
221 2 7.96226 4.666 1.83884
222 2 6.95868 3.45477 2.65814
223 2 6.0367 4.71606 1.45764
247 2 6.61276 5.8767 3.99875
260 2 12.6978 3.04041 3.51632
44 4 13.4447 -0.25278 7.46282
262 2 12.7064 4.0882 5.10626
126 3 5.16459 4.9672 6.787
264 2 8.922 5.20506 4.4414
88 1 11.3523 6.41251 6.33228
266 2 8.2659 3.77342 7.23823
267 2 9.58511 4.30361 5.95802
268 2 9.14628 5.45215 7.36981
293 2 12.0972 6.24012 0.912137
43 4 11.8572 1.79625 0.097391
306 1 14.3295 1.26681 2.63311
307 3 12.5459 0.0858424 0.734253
308 2 13.7967 2.12847 2.21473
309 2 14.0765 1.09875 3.73683
345 2 4.69 5.85315 1.9857
80 1 5.38231 5.77197 3.90988
261 2 14.0007 2.7833 4.8415
51 4 9.47014 6.05197 0.145175
207 2 13.4151 4.46376 6.94618
358 2 15.0953 1.50419 0.808057
152 3 14.4846 0.50503 8.39031
263 2 7.70035 6.5002 4.89865
2 4 14.8914 1.80833 9.22578
5 4 14.9122 1.55729 15.282
9 4 12.3207 6.24308 9.63601
45 4 9.73136 1.40335 9.83759
351 2 9.32788 4.14732 15.1209
48 4 9.95319 1.53306 15.2077
49 4 12.4005 1.81607 11.4004
55 4 11.0972 3.98987 13.1661
352 2 8.71992 6.04206 15.0277
73 1 7.2968 3.08416 12.348
151 3 13.4997 1.96912 16.1293
248 2 5.54268 5.0173 11.6815
154 3 8.3158 1.44271 10.6086
157 3 14.7556 0.226627 14.5315
158 3 9.12084 0.444895 14.3378
159 3 11.1618 0.901378 16.1551
160 3 8.95634 2.13536 16.3964
161 3 13.6099 2.09976 10.2669
162 3 10.9953 1.08128 10.7619
163 3 13.079 0.83187 12.464
169 3 9.95632 2.83499 9.20449
171 3 11.73 5.00088 8.81877
172 3 6.65594 4.81011 9.06397
175 3 10.4454 2.81167 14.1789
176 3 12.0074 3.25491 12.1243
177 3 11.8617 5.10861 14.0042
353 2 7.91754 4.81763 16.3234
180 3 9.76203 4.82501 12.3876
224 2 7.34707 3.86112 11.4928
225 2 8.27993 3.06123 12.9219
350 1 8.83147 5.05173 15.6589
226 2 6.30485 3.2399 13.0125
47 4 13.7176 -0.284926 13.2721
153 3 9.22445 0.42435 8.48571
179 3 8.44822 6.29196 10.4875
56 4 9.79273 6.21195 11.5508
13 4 8.87585 10.733 4.00532
278 2 3.46081 10.3131 7.15047
54 4 10.1694 7.17797 5.12208
57 4 7.73579 8.53247 1.68921
58 4 3.85077 10.9339 3.94265
59 4 8.17172 8.58251 7.47948
61 4 6.52697 10.7858 5.81716
79 1 4.65885 7.79321 6.4255
305 4 5.10637 13.0987 1.94623
91 1 8.0514 9.70707 0.216854
90 1 5.82149 8.40759 1.99387
365 2 8.46501 10.6892 0.709805
92 1 3.46626 9.71939 8.13708
244 2 3.80192 7.78726 7.19001
295 2 11.2785 7.86283 1.42695
174 3 11.2972 7.53516 4.06824
181 3 8.48528 7.10301 1.47682
182 3 8.39322 9.46851 3.03281
183 3 3.32841 9.83063 2.96161
184 3 4.50043 12.1697 3.09381
185 3 2.43304 11.5434 4.86856
186 3 7.38116 7.31045 8.07123
187 3 9.26888 7.96418 6.21464
131 3 3.05217 8.41166 0.629699
191 3 7.67059 11.4363 4.7876
192 3 4.96652 10.3318 4.86926
193 3 7.06523 9.52521 6.62878
194 3 6.05061 11.9144 6.79797
242 2 4.63536 8.7074 5.80287
243 2 5.69794 7.55242 6.89449
346 1 6.63023 11.9676 1.27577
349 2 7.45131 12.654 0.927676
348 2 6.94912 11.2508 2.1264
274 2 5.39662 7.38785 1.57346
275 2 5.49266 9.27925 1.3683
276 2 5.58978 8.5366 3.10248
347 2 6.00991 11.4492 0.402255
245 2 4.95845 6.67777 3.33546
327 2 8.40385 12.7166 2.81992
189 3 3.84788 12.4424 8.28186
34 4 2.43518 9.30274 1.81119
270 2 10.9515 6.57842 7.33658
265 2 8.57175 6.66389 3.09919
283 2 4.54299 9.61343 16.5825
33 4 4.21993 6.80081 10.5174
206 2 8.84478 11.4493 14.6027
60 4 3.5753 11.2791 9.27916
62 4 3.49823 10.8475 14.5957
63 4 6.48475 10.8736 11.0205
66 1 8.8492 11.3545 13.4621
74 1 5.62977 7.27016 15.4552
89 1 9.48798 7.65435 12.7852
93 1 4.88367 10.4874 15.9326
94 1 6.37737 9.43516 12.1956
356 2 9.23266 10.3514 13.0509
188 3 9.13046 9.16183 8.53814
211 2 10.1079 10.1651 16.152
173 3 5.76963 7.12436 10.1442
178 3 11.2445 6.61981 10.7626
366 2 9.45671 8.3565 16.6258
190 3 2.19658 11.1674 10.2397
195 3 3.50174 9.49956 13.766
196 3 4.13412 12.1334 13.8113
197 3 2.39457 11.1481 15.7621
198 3 7.91716 10.7093 10.2762
199 3 5.12961 10.9472 10.1969
200 3 6.2751 12.2513 12.2249
227 2 5.48721 8.39613 15.6197
229 2 6.59968 6.80081 15.8581
271 2 10.2504 8.3982 12.3871
272 2 9.72879 7.25603 13.7834
273 2 8.36805 8.02284 12.7469
277 2 7.75242 9.16863 16.4852
281 2 4.97427 11.4737 16.5649
282 2 5.74317 10.2246 15.1721
141 3 3.67957 7.97345 11.5248
284 2 7.29615 8.6519 12.0503
285 2 5.3632 8.95439 11.8754
286 2 6.30762 9.95089 13.1873
16 4 9.39844 10.3992 9.63032
228 2 5.53997 6.96189 14.3422
357 2 7.76836 11.6974 13.0652
148 3 1.05015 12.0903 12.5069
167 3 11.2597 6.21986 16.365
11 4 12.3769 6.30735 15.1692
280 2 4.52129 9.31444 8.48103
53 4 7.07841 6.35071 9.43985
ITEM: TIMESTEP
100
ITEM: NUMBER OF ATOMS
366
ITEM: BOX BOUNDS xy xz yz pp pp pp
-8.3364390000000004e+00 1.6908511000000001e+01 -8.3364390000000004e+00
-6.4910000000000001e-01 1.3422400000000000e+01 6.2236199999999997e-01
0.0000000000000000e+00 1.6908999999999999e+01 -6.4910000000000001e-01
ITEM: ATOMS id type x y z
3 4 1.09814 3.09765 4.42491
8 4 -0.542008 4.10044 7.23201
20 4 7.55006 0.145403 1.91872
21 4 4.17325 2.1337 4.42385
29 4 5.72349 3.98861 8.01566
31 4 4.44063 5.97689 5.77243
319 2 -1.92134 4.26352 0.446862
64 1 1.04845 4.40073 3.18318
65 1 0.777529 1.32347 3.69572
67 1 -2.10382 5.04065 6.82788
70 1 3.76642 0.244784 4.07585
71 1 4.19006 3.11365 2.78671
78 1 2.59368 5.6511 5.68702
98 3 -0.0528312 3.4143 5.72227
114 3 2.86459 2.80316 5.13247
115 3 6.72687 1.42424 1.17088
118 3 5.64583 2.03396 5.13685
119 3 7.3855 0.427493 6.71683
217 2 3.96546 -0.0277846 2.85363
125 3 0.720544 5.33537 7.72426
312 2 1.45679 0.427376 6.21197
201 2 2.01711 4.4751 2.52946
202 2 0.849789 5.36417 3.73961
203 2 0.181622 4.06359 2.52147
311 2 0.291409 0.426614 7.62643
205 2 0.453941 1.46494 2.50773
359 2 -0.199202 4.8311 0.694971
208 2 -2.14721 5.52747 5.64268
318 2 -1.57609 5.53984 1.93734
344 2 3.8296 4.82744 0.57427
342 1 4.36823 5.81297 0.877255
218 2 3.27673 3.98915 2.64824
219 2 4.02728 2.15781 2.117
220 2 5.28032 3.46513 2.42592
239 2 2.66514 5.43918 4.54184
241 2 2.4216 4.73741 6.28189
341 2 3.20856 3.16319 1.01618
288 1 -2.1182 6.23189 3.76995
97 3 -1.09467 3.10972 8.31261
292 2 -1.91596 5.15168 4.02915
209 2 -1.98744 5.86185 7.66241
310 1 1.35699 0.599282 7.31449
204 2 1.85734 0.844469 3.79287
313 2 1.89783 1.65064 7.69506
317 1 -1.28114 5.08565 0.846238
363 2 -0.907362 1.66909 2.42386
355 2 -0.0103559 0.827949 4.31732
246 2 4.94023 4.81737 3.44903
126 3 5.03721 4.89667 6.80212
216 2 4.73797 -0.0855281 4.69564
360 2 4.3179 0.437729 0.0268621
6 4 1.1296 1.69391 11.0427
130 3 3.15513 6.29745 9.06728
337 2 3.11487 0.00551866 15.1925
10 4 0.0374483 3.72603 13.2023
12 4 -1.73988 6.11239 11.7383
24 4 4.05591 1.96152 9.70299
301 2 4.4798 -0.0848228 15.2077
27 4 6.87668 1.38281 11.5048
30 4 1.63602 6.00396 8.92232
76 1 0.995806 5.17965 10.4202
81 1 4.51256 5.2124 11.6138
95 3 0.0311817 1.47605 9.88754
96 3 1.43247 0.232908 11.7806
128 3 3.11022 5.69241 15.5452
99 3 -0.734669 2.86079 14.4642
100 3 0.507916 2.72642 12.0849
120 3 6.23913 2.82143 16.2425
102 3 -2.55341 5.69355 10.4841
103 3 -0.929477 4.82715 12.5525
116 3 3.61153 0.603565 8.89038
117 3 2.68427 2.28192 10.4634
121 3 5.40382 1.53541 10.6909
122 3 7.07333 0.294327 12.6977
123 3 4.55041 3.16342 8.74893
127 3 1.51969 4.4217 13.6879
101 3 -2.44248 5.95642 15.7195
233 2 1.76155 4.32719 10.4563
234 2 -0.0777652 4.75633 10.2317
235 2 1.10168 5.89312 11.3596
249 2 3.79155 4.58161 10.9338
250 2 4.11875 5.57271 12.6422
296 4 4.87649 2.40716 15.5365
297 1 5.39814 0.57735 15.1718
298 1 4.32858 3.51681 14.0488
299 2 6.0524 0.19981 16.0635
300 2 5.98255 0.440764 14.1479
339 2 2.80902 1.48096 16.6698
302 2 4.55204 2.72053 13.2314
303 2 5.07077 4.44836 14.1362
304 2 3.21154 3.85646 13.9873
338 1 3.36227 2.46213 16.8831
314 1 -0.162718 1.00581 16.4864
315 2 0.653343 1.79545 16.4437
334 1 2.29167 0.488294 14.509
335 2 1.27922 0.651064 15.1132
336 2 2.66528 1.41262 13.8558
32 4 1.73695 5.83691 14.5264
340 2 2.80047 3.43977 16.5854
7 4 -0.940617 5.9119 16.2627
129 3 0.37924 5.8285 15.4127
226 2 6.06839 3.32752 12.9297
316 2 0.239342 0.0248188 16.1564
323 2 -1.98653 9.10418 0.272897
15 4 -2.99193 8.9748 7.8915
17 4 -4.45144 11.0634 5.89838
23 4 -0.146251 12.9156 7.76126
35 4 -1.78083 11.4141 3.84006
38 4 0.962453 11.0856 5.43328
69 1 -2.19667 8.21898 6.32281
82 1 1.07502 8.34133 2.61366
83 1 -1.69383 9.87675 2.70521
84 1 0.841644 9.1629 5.76282
106 3 -5.7324 10.5794 4.95756
107 3 -4.08003 10.0577 7.16752
108 3 -4.77438 12.4363 6.51874
132 3 -1.96011 12.6346 2.879
133 3 -3.20798 11.109 4.96556
134 3 1.45951 10.4959 0.938441
138 3 -0.362512 11.2932 4.55036
213 2 -1.04295 8.63295 6.14223
214 2 -2.90223 8.66066 5.54241
215 2 -2.26483 7.05467 6.47158
230 2 0.970203 8.31519 7.84264
289 1 -4.03651 7.10005 1.48608
333 2 -3.2097 13.0543 1.59282
251 2 0.759776 8.59769 3.73899
252 2 1.68275 7.3341 2.51509
253 2 0.0656716 8.38171 1.69656
254 2 -1.81629 10.4258 1.69535
255 2 -2.55441 9.18889 2.97083
256 2 -0.672785 9.35717 2.74123
257 2 1.85532 8.61398 5.58901
258 2 -0.031253 8.81825 5.03902
259 2 0.56565 9.19237 6.87062
325 2 -6.73766 11.6049 1.73901
290 2 -2.15122 6.89792 4.75482
294 2 -3.04616 7.5677 1.06804
320 1 -1.29648 8.22951 0.289557
362 2 -5.47776 13.1465 4.53447
322 2 -1.34147 7.46475 1.40664
240 2 1.88051 6.49275 5.98307
324 1 -6.91558 11.941 2.76223
354 3 0.0393983 12.6222 0.824702
326 2 -5.95586 12.5772 3.23404
364 2 -3.84755 7.10176 6.15924
328 1 -4.64815 10.0892 1.38334
329 2 -3.53056 9.96658 1.88273
330 2 -5.13881 9.15635 0.903685
331 2 -5.44235 10.6509 2.11335
332 1 -4.17802 13.138 0.912302
131 3 2.93192 8.18043 0.637917
139 3 0.681336 11.8154 6.76847
1 4 -5.46471 12.9616 8.0429
14 4 -4.41748 11.4196 0.0249882
295 2 -4.85095 7.89954 1.53046
361 2 -5.11724 13.3571 1.44975
291 2 -1.25447 6.64216 3.16563
4 4 -6.2133 12.8187 12.8477
212 2 -4.7523 10.3864 14.9878
238 2 -0.89415 7.99235 10.1175
18 4 -2.91514 8.55951 13.4948
19 4 -4.29707 10.6951 11.5947
26 4 0.0458482 12.869 13.4591
236 2 -0.673952 8.42042 11.9217
321 2 0.40236 7.83325 16.9013
37 4 -1.65082 10.9317 9.74726
39 4 2.46451 8.41966 12.7488
40 4 -1.13364 10.4859 15.1002
41 4 1.00773 10.7715 11.3197
68 1 -5.31189 10.896 15.8897
75 1 0.850466 7.82977 8.88758
77 1 -0.605686 7.55033 11.1987
104 3 -3.51188 7.59688 8.77748
210 2 -5.74141 11.9053 15.6069
109 3 -3.98555 7.97928 14.556
110 3 -2.42645 7.1193 12.7059
111 3 -5.6769 10.1179 10.8097
112 3 -3.74794 9.54798 12.5344
113 3 -4.7423 11.9894 12.5417
232 2 -0.260126 7.52657 9.00476
105 3 -6.18936 11.7588 8.79986
237 2 0.385731 7.02397 11.1857
135 3 -1.82433 9.77104 8.60732
136 3 -1.15412 12.2741 8.8887
137 3 -3.0935 11.0595 10.6192
140 3 1.88026 7.09022 13.5264
142 3 -1.37713 9.23457 13.9252
143 3 0.00182163 9.92274 16.1927
144 3 -0.706131 11.8486 14.4783
145 3 -2.47696 10.6514 16.0589
146 3 -0.431392 10.6498 10.6979
147 3 1.42382 9.3814 12.0006
231 2 1.20958 8.51353 9.75905
28 4 4.127 6.42018 16.5611
36 4 1.28808 10.8183 16.7785
148 3 0.812868 12.0013 12.4138
279 2 2.44747 8.97737 8.5153
22 4 7.0249 2.75417 0.453892
42 4 9.25207 1.87061 3.99779
358 2 15.1244 1.48353 0.745753
46 4 11.9378 1.92117 5.82497
50 4 10.6861 3.75566 2.15157
269 2 11.667 5.41145 6.11922
52 4 10.7429 3.80673 8.17269
72 1 7.07145 4.10905 1.76278
85 1 13.081 3.02679 4.74977
86 1 8.82273 6.24301 4.21427
87 1 9.40903 4.74968 7.22074
124 3 6.81721 2.97711 7.45078
149 3 8.6449 0.726064 3.03502
150 3 8.24056 2.49459 5.30449
152 3 14.4732 0.468662 8.41779
155 3 10.7405 1.4166 4.84568
156 3 13.0297 0.797353 6.22762
164 3 9.53727 3.24886 3.09261
165 3 11.5069 2.54979 1.57494
166 3 11.6835 4.90574 2.9636
168 3 10.0252 4.7525 0.74057
170 3 11.441 2.95496 6.99979
221 2 8.00016 4.79728 1.73084
222 2 7.00153 3.47639 2.73757
223 2 6.087 4.73557 1.60281
247 2 6.37335 5.93951 4.11686
260 2 12.7851 2.94733 3.70141
287 4 12.3189 6.31695 3.13842
262 2 12.8254 4.05645 5.16378
263 2 7.75078 6.13945 4.68614
264 2 9.30709 5.24566 4.14766
25 4 7.06777 1.91472 6.1554
266 2 8.40019 4.30477 7.4856
267 2 9.62227 4.69301 6.10426
268 2 9.4627 5.82371 7.63302
293 2 11.9607 6.17219 0.906845
43 4 11.7965 1.70226 0.170006
306 1 14.2687 1.32007 2.57221
307 3 12.6474 0.191932 0.636984
308 2 13.548 2.08661 2.17891
309 2 14.1317 1.14901 3.67808
345 2 4.65583 5.86939 2.01213
80 1 5.25048 5.91 3.93451
261 2 14.1275 2.63896 4.98072
51 4 9.4003 6.14149 0.262351
207 2 13.3585 4.24378 7.0569
343 2 5.41157 5.92642 0.171102
2 4 14.8746 1.74637 9.27563
5 4 14.8248 1.60624 15.2235
9 4 12.3708 6.25074 9.68443
45 4 9.61137 1.35847 9.81427
351 2 9.51264 4.02243 15.1809
48 4 9.94139 1.54646 15.3475
49 4 12.3365 1.8174 11.2637
55 4 11.1444 4.05182 13.1005
352 2 8.87938 5.81711 15.1703
73 1 7.02541 3.09858 12.3121
151 3 13.5769 1.92565 16.2894
248 2 5.60088 4.90371 11.5355
154 3 8.19304 1.31514 10.5908
157 3 14.6431 0.321758 14.2522
158 3 9.26907 0.427029 14.4041
159 3 11.0807 0.859295 16.2657
160 3 8.86236 2.17036 16.2623
161 3 13.5654 2.11146 10.1854
162 3 11.0126 1.15181 10.5507
163 3 12.8111 0.846251 12.3642
169 3 9.75374 2.9496 9.30592
171 3 11.6472 5.06099 8.74157
172 3 6.60582 5.05852 8.86815
175 3 10.5723 2.95196 14.3091
176 3 11.9416 3.31887 11.934
177 3 11.8717 5.21649 13.9952
353 2 7.94361 4.47064 16.222
180 3 9.90162 4.62155 12.3682
224 2 7.08399 3.72758 11.2818
225 2 7.97145 3.21004 12.8713
350 1 8.96642 4.83883 15.7732
56 4 9.68785 6.259 11.3729
47 4 13.5877 -0.306221 13.1088
153 3 9.30059 0.385583 8.48073
13 4 8.95492 10.6526 4.04278
278 2 3.19771 10.3235 7.14197
54 4 10.0724 7.28812 5.13023
57 4 7.83285 8.60269 1.73018
58 4 3.81488 10.9163 3.96416
59 4 8.22309 8.64517 7.37317
61 4 6.47582 10.7418 5.83743
79 1 4.74663 7.83859 6.46423
305 4 5.13548 13.0485 1.89335
91 1 7.9974 9.63813 0.0781786
90 1 5.9518 8.48046 1.92814
365 2 8.10223 10.725 0.282449
92 1 3.38788 9.74057 8.15375
244 2 3.56939 7.66165 6.91757
188 3 9.11094 9.43459 8.453
174 3 11.2756 7.5114 4.11476
181 3 8.4694 7.11442 1.34492
182 3 8.48782 9.42407 3.03863
183 3 3.41656 9.80517 2.88141
184 3 4.388 12.1807 3.09697
185 3 2.41408 11.2553 4.85816
186 3 7.54718 7.33734 8.04038
187 3 9.17761 8.07185 6.15855
280 2 4.41969 9.33672 8.24241
191 3 7.77192 11.2671 4.85537
192 3 5.05064 10.3399 4.88551
193 3 6.99694 9.56413 6.71566
194 3 6.05965 11.9424 6.70674
242 2 4.79497 8.79886 5.88271
243 2 5.43262 7.86996 7.33266
346 1 6.63453 12.0419 1.23219
349 2 7.51914 12.769 1.03662
348 2 6.88768 11.279 1.97216
274 2 5.44067 7.41954 1.54395
275 2 5.75169 9.35258 1.17787
276 2 5.71629 8.73583 2.98399
347 2 6.29657 11.6166 0.284633
245 2 4.98692 6.82222 3.32337
88 1 11.4814 6.4919 6.28063
189 3 3.88826 12.5053 8.27141
34 4 2.38722 9.4299 1.77302
270 2 10.7925 6.83679 7.2588
327 2 8.39459 12.6065 2.92231
44 4 5.26966 13.101 7.37351
265 2 8.61386 6.60931 3.09807
283 2 4.59527 9.66449 16.6814
33 4 4.30271 6.80356 10.5718
206 2 8.83603 11.7558 14.7475
60 4 3.69253 11.2685 9.28775
62 4 3.4795 10.8107 14.6658
63 4 6.5526 10.8381 11.0047
66 1 8.85458 11.5043 13.6568
74 1 5.5069 7.31686 15.4397
89 1 9.4347 7.46514 12.8101
93 1 4.89803 10.5068 15.9404
94 1 6.47014 9.38099 12.1008
356 2 9.41541 10.5331 13.3947
179 3 8.40878 6.34074 10.4116
211 2 10.0928 10.1765 16.2594
173 3 5.76298 7.29144 10.1349
178 3 11.1812 6.62052 10.6516
366 2 9.45849 8.60489 16.3658
190 3 2.39187 11.1392 10.3272
195 3 3.23373 9.44372 13.8791
196 3 4.31879 11.9663 13.8053
197 3 2.26612 11.3146 15.4995
198 3 8.04848 10.7158 10.3978
199 3 5.06212 10.8297 9.93995
200 3 6.27244 12.223 12.1375
227 2 5.28339 8.53059 15.6302
229 2 6.46573 6.93623 15.8542
271 2 10.2517 8.24646 12.4704
272 2 9.77447 6.85016 13.6996
273 2 8.43477 7.93076 12.9294
277 2 7.58391 8.80831 16.5497
281 2 4.87534 11.5138 16.4785
282 2 5.91973 10.3459 15.4217
141 3 3.45257 7.85541 11.5789
284 2 7.40581 8.71514 11.9801
285 2 5.54052 8.82662 11.8732
286 2 6.45599 9.94248 13.1807
16 4 9.552 10.5407 9.64214
228 2 5.22206 7.09715 14.3812
357 2 7.79083 11.6998 13.1702
53 4 7.13082 6.53464 9.40008
167 3 11.1845 6.32955 16.2438
11 4 12.3344 6.30322 15.0236
ITEM: TIMESTEP
200
ITEM: NUMBER OF ATOMS
366
ITEM: BOX BOUNDS xy xz yz pp pp pp
-8.3364390000000004e+00 1.6908511000000001e+01 -8.3364390000000004e+00
-6.4910000000000001e-01 1.3422400000000000e+01 6.2236199999999997e-01
0.0000000000000000e+00 1.6908999999999999e+01 -6.4910000000000001e-01
ITEM: ATOMS id type x y z
3 4 1.13251 3.18116 4.60287
8 4 -0.484531 4.08754 7.2012
20 4 7.51098 0.228586 2.06709
21 4 4.15103 2.2061 4.6442
29 4 5.71895 3.97338 8.12622
361 2 3.13433 0.24889 1.49468
319 2 -2.60181 4.4262 0.342711
64 1 1.12205 4.415 3.20292
65 1 0.876328 1.48617 3.73594
67 1 -2.1328 4.91041 6.6868
70 1 3.76136 0.300236 4.17804
71 1 4.28262 3.12438 2.95408
78 1 2.69252 5.73336 5.47365
98 3 0.0835529 3.49408 5.77542
114 3 2.74437 2.85429 5.10948
115 3 6.87057 1.42935 1.28287
118 3 5.58709 2.23966 5.41188
119 3 7.33201 0.45156 6.69861
217 2 3.78047 0.21802 3.0549
125 3 0.777111 5.17163 7.83003
312 2 1.59662 0.490237 6.24759
201 2 2.2358 4.72088 2.71191
202 2 0.499727 5.26475 3.59874
203 2 0.390917 3.67332 2.55673
311 2 0.410132 0.159664 7.7318
205 2 0.476348 1.79064 2.62206
359 2 -0.618521 4.57231 0.504175
208 2 -2.03381 5.44332 5.61796
318 2 -1.83062 5.37602 1.87939
344 2 3.8788 4.81288 0.603355
363 2 -0.717925 1.20546 2.18923
218 2 3.27614 3.83572 2.78777
219 2 4.04076 1.99003 2.41797
220 2 5.33754 3.5376 2.61896
239 2 3.03024 5.34199 4.36331
241 2 2.34305 4.95919 6.21476
341 2 3.38583 3.17916 1.15368
288 1 -2.19127 6.17226 3.68169
97 3 -0.929944 2.94761 8.17631
292 2 -2.04275 5.07535 3.93635
209 2 -2.13664 5.61507 7.65007
310 1 1.35344 0.583802 7.36455
204 2 1.9282 1.00422 3.78813
313 2 1.5739 1.62223 7.87998
317 1 -1.6805 5.02562 0.728032
362 2 2.87065 -0.106628 4.71816
355 2 0.0410569 0.871412 4.22836
246 2 5.06224 4.93389 3.56414
126 3 5.17191 4.9192 6.81868
216 2 4.67052 -0.0279358 4.77566
31 4 4.48145 6.00602 5.84744
338 1 2.85357 3.18324 0.0571819
339 2 2.11286 2.37825 0.0297614
291 2 -1.50398 6.45006 2.83454
6 4 1.18532 1.73201 11.055
130 3 3.12866 6.33583 9.13085
337 2 3.35303 -0.0620881 15.1992
10 4 0.0139744 3.78528 13.1793
12 4 -1.8274 6.10502 11.7541
24 4 4.12834 1.91901 9.75205
301 2 4.6177 -0.328373 14.9408
27 4 6.96511 1.52663 11.4327
30 4 1.63854 6.01099 8.85259
76 1 1.15323 5.09524 10.4011
81 1 4.58588 5.19212 11.524
95 3 0.0911129 1.41666 9.9251
96 3 1.64788 0.39115 11.975
128 3 2.96808 5.77398 15.7199
99 3 -0.842374 2.98377 14.2547
100 3 0.500425 2.79157 12.0437
120 3 6.24838 2.65766 16.4415
102 3 -2.69792 5.90134 10.4704
103 3 -0.853564 5.03213 12.4207
116 3 3.96274 0.684558 8.60158
117 3 2.56763 2.25773 10.4734
121 3 5.311 1.62609 10.7688
122 3 7.08888 0.293184 12.5783
123 3 4.53792 3.19561 8.91145
127 3 1.52942 4.39306 13.6685
101 3 -2.52738 5.79072 15.7378
233 2 1.99551 4.35482 10.3843
234 2 0.153823 4.57929 10.3171
235 2 1.18018 5.87107 11.32
249 2 4.24841 4.50893 10.6217
250 2 3.82504 5.2713 12.3643
296 4 4.96914 2.22976 15.6293
297 1 5.5079 0.480234 15.0769
298 1 4.51953 3.32461 14.0999
299 2 6.23977 0.10164 15.8696
300 2 6.08726 0.449198 14.0652
129 3 0.225929 5.94528 15.4727
302 2 4.80809 2.53207 13.2909
303 2 5.17546 4.20361 14.1639
304 2 3.43386 3.627 13.9323
360 2 4.99587 -0.242694 16.865
314 1 -0.256965 0.969772 16.4219
315 2 0.61687 1.75762 16.1636
334 1 2.41644 0.413792 14.6342
335 2 1.37926 0.513436 15.336
336 2 2.66246 1.3469 14.0859
32 4 1.5904 5.86096 14.5281
340 2 3.08155 3.52282 16.7075
7 4 -1.06204 5.77003 16.3409
323 2 -2.10956 8.95062 0.165883
15 4 -2.95302 8.89929 7.90377
17 4 -4.34041 10.8985 5.98089
23 4 -0.0954458 12.9294 7.76565
35 4 -1.80738 11.2402 3.73465
38 4 0.959954 10.9735 5.52761
69 1 -2.18905 8.11342 6.26644
82 1 1.06484 8.29238 2.68716
83 1 -1.86248 9.67619 2.74415
84 1 0.747905 9.14307 5.91359
106 3 -5.75818 10.5799 5.17616
107 3 -4.00364 9.80183 7.09815
108 3 -4.62243 12.2349 6.61501
132 3 -1.96015 12.7526 2.63753
133 3 -3.11998 11.0442 4.89566
134 3 1.52459 10.5174 0.937479
138 3 -0.3488 11.1625 4.49111
213 2 -1.14499 8.56593 6.15735
214 2 -2.94802 8.49821 5.44758
215 2 -2.17172 6.89889 6.41316
230 2 1.28461 8.06939 7.66209
289 1 -4.25277 7.15361 1.56411
333 2 -3.42224 13.0616 1.59654
251 2 0.755421 8.90592 3.58596
252 2 1.79324 7.40334 2.95287
253 2 0.243463 7.96513 1.99716
254 2 -2.08624 10.2129 1.69176
255 2 -2.75612 9.07467 3.08021
256 2 -0.754458 9.13114 2.7999
257 2 1.92517 8.90492 5.63937
258 2 0.112713 8.61521 5.22957
259 2 0.506688 8.97216 6.99747
325 2 -7.03638 11.6172 1.95532
290 2 -2.19506 6.86422 4.63683
294 2 -3.24086 7.67842 1.27974
320 1 -1.41953 8.11853 0.48449
321 2 -0.355943 8.40285 0.281188
322 2 -1.57086 7.81105 1.55724
14 4 -4.58948 11.4817 0.00722978
324 1 -6.98577 12.003 3.04631
354 3 0.166318 12.7024 0.928009
326 2 -6.0158 12.5496 3.30068
364 2 -3.90083 7.05672 6.30923
328 1 -4.74032 10.2074 1.43052
329 2 -3.74929 10.0562 2.0237
330 2 -5.12158 9.16681 0.999221
331 2 -5.52133 10.7333 2.10495
332 1 -4.31342 13.264 0.919944
34 4 2.38685 9.28007 1.67511
139 3 0.727507 11.6413 6.8736
1 4 -5.33676 13.0641 7.90432
279 2 2.62633 8.96605 8.40243
240 2 2.08383 6.71419 5.44027
36 4 0.652107 11.4764 0.00458197
4 4 -6.24787 12.8186 13.0574
212 2 -4.77737 10.4177 14.9024
238 2 -0.906056 7.64719 10.0708
18 4 -3.05009 8.50808 13.4625
19 4 -4.3176 10.7574 11.452
26 4 0.0949913 12.8229 13.4699
236 2 -0.825433 8.38041 11.8304
141 3 3.49817 7.68657 11.5923
37 4 -1.49371 10.898 9.60686
39 4 2.46929 8.37701 12.8305
40 4 -1.13555 10.4854 15.1273
41 4 1.101 10.7585 11.422
68 1 -5.34111 10.8829 15.739
75 1 0.977464 7.83517 8.71546
77 1 -0.673402 7.4648 11.1878
104 3 -3.54135 7.65415 8.72044
210 2 -5.66423 12.0431 15.4587
109 3 -3.82016 7.97779 14.7451
110 3 -2.65681 7.17549 12.5737
111 3 -5.62481 10.1497 10.6621
112 3 -3.92228 9.52487 12.4519
113 3 -4.90247 11.8997 12.4915
232 2 -0.24569 7.76895 8.85905
105 3 -6.11381 11.9582 8.93819
237 2 0.407419 6.96287 11.4472
135 3 -1.72426 9.58798 8.63055
136 3 -1.21285 12.2462 8.6825
137 3 -2.97054 11.0746 10.4668
140 3 1.74694 7.13443 13.6231
142 3 -1.66176 9.44265 13.9124
143 3 0.0255323 9.94974 16.173
144 3 -0.745655 11.8659 14.5243
145 3 -2.60401 10.5917 16.1193
146 3 -0.262747 10.6035 10.563
147 3 1.39745 9.32207 12.1238
231 2 1.43507 8.4022 9.52962
28 4 4.19753 6.49246 16.5639
22 4 6.99828 2.70952 0.433491
42 4 9.30354 1.95805 4.06571
358 2 15.0694 1.57769 0.581885
46 4 11.9644 1.91892 5.79484
50 4 10.6122 3.8574 2.11052
269 2 11.1747 5.47006 5.86977
52 4 10.794 3.94524 8.13657
72 1 7.06227 4.11734 1.735
85 1 13.0343 3.08557 4.70893
86 1 8.77424 6.00485 4.22026
87 1 9.31078 4.91393 7.38295
124 3 6.89593 2.9697 7.59608
149 3 8.50047 0.857115 3.26996
150 3 8.25299 2.49354 5.3593
152 3 14.5277 0.569604 8.33401
155 3 10.7776 1.58275 4.75157
156 3 12.8041 0.711523 6.34145
164 3 9.46438 3.20553 2.98857
165 3 11.4206 2.66536 1.45302
166 3 11.6765 4.78627 3.12046
168 3 9.95714 4.86609 0.958396
170 3 11.4115 2.98756 7.0831
221 2 8.12589 4.4556 1.55388
222 2 6.88159 3.61894 2.76862
223 2 6.14293 4.81835 1.36186
247 2 6.63918 5.86616 4.08652
260 2 12.7777 2.74139 3.60057
287 4 12.1693 6.27143 3.16233
262 2 12.6132 4.09881 5.02167
263 2 7.85424 5.90382 4.96311
264 2 9.23651 5.02392 4.172
25 4 7.03582 1.97918 6.21346
266 2 8.46179 4.55652 8.02815
267 2 9.09319 4.61413 6.29398
268 2 9.37614 6.04862 7.55992
293 2 11.8001 6.11845 0.98114
43 4 11.7878 1.82466 0.0633313
306 1 14.4582 1.37168 2.56188
307 3 12.4849 0.225118 0.602139
308 2 13.813 2.13894 1.89845