ITEM: TIMESTEP
0
ITEM: NUMBER OF ATOMS
366
ITEM: BOX BOUNDS xy xz yz pp pp pp
-8.2538999999999998e+00 1.6910190000000000e+01 -8.2538999999999998e+00
-6.4910000000000001e-01 1.3422400000000000e+01 7.8528999999999993e-01
0.0000000000000000e+00 1.6908999999999999e+01 -6.4910000000000001e-01
ITEM: ATOMS id type x y z
3 4 1.18442 2.91306 4.59582
8 4 -0.465034 4.07252 7.16013
20 4 7.54475 0.251653 1.83701
21 4 4.11223 2.09462 4.44592
29 4 5.78439 3.95799 8.08186
361 2 2.99848 0.117163 1.35733
319 2 -2.12849 4.5265 0.388041
64 1 0.966862 4.06913 3.12928
65 1 0.848611 1.29353 3.76615
67 1 -1.93294 5.19909 6.7693
70 1 3.83563 0.224002 4.00942
71 1 4.23295 2.95741 2.76361
78 1 2.63078 5.74621 5.67351
98 3 -0.0228419 3.47267 5.73854
114 3 2.74906 2.74844 5.13121
115 3 6.62966 1.41311 0.909132
118 3 5.49559 2.07316 5.14387
119 3 7.23656 0.430575 6.62635
216 2 4.8569 -0.0534934 4.43288
125 3 0.82802 5.12927 7.87743
312 2 1.37657 0.353723 6.06398
201 2 2.13618 4.25809 3.00922
202 2 0.325602 4.95827 3.44513
203 2 0.464174 3.52593 2.277
311 2 0.0992669 0.464871 7.59935
205 2 0.668259 1.44568 2.63705
359 2 -0.27289 4.71323 0.786034
208 2 -1.96166 5.71844 5.54675
318 2 -1.50402 5.70359 1.89292
344 2 3.77698 4.76034 0.523262
342 1 4.39058 5.78164 0.811844
218 2 3.3678 3.69623 2.76335
219 2 3.89982 1.86948 2.2756
220 2 5.22927 3.28573 2.36379
239 2 2.08479 5.61493 4.74505
241 2 2.67055 4.77676 6.25379
341 2 3.28868 3.02325 0.948664
288 1 -1.98998 6.46902 3.71274
97 3 -0.965133 3.00211 8.17243
292 2 -1.59432 5.4235 3.87005
209 2 -1.78254 5.99083 7.56044
310 1 1.16972 0.534082 7.19219
204 2 1.95399 0.759762 3.86116
313 2 1.62512 1.59634 7.62081
317 1 -1.27204 5.21386 0.806096
25 4 6.91632 1.83541 5.99183
355 2 0.086167 0.686578 4.23501
246 2 5.07599 4.67736 3.41587
287 4 -3.86539 6.4222 3.15786
217 2 3.95131 -0.0592522 2.86897
31 4 4.51456 5.98052 5.70544
6 4 1.38609 1.66994 11.0526
360 2 5.08581 -0.25343 16.8773
337 2 3.36473 -0.00494964 15.3009
10 4 0.182521 3.67832 13.1832
12 4 -1.66012 6.16006 11.7252
24 4 4.15434 1.93288 9.80919
301 2 4.76606 -0.236169 15.0828
27 4 7.0506 1.43066 11.4843
30 4 1.54718 6.06367 9.00226
76 1 1.31004 5.07455 10.5172
81 1 4.47315 5.21029 11.5908
95 3 0.129819 1.62678 9.96775
96 3 1.62992 0.217195 11.7707
128 3 3.23902 5.81299 15.374
99 3 -0.449783 2.87982 14.4913
100 3 0.626902 2.56977 12.2027
120 3 6.26802 2.8947 16.2993
102 3 -2.27257 5.75317 10.279
103 3 -0.799603 4.86132 12.5214
116 3 3.75898 0.67737 8.88075
117 3 2.85801 2.32032 10.5972
121 3 5.43791 1.60558 10.7793
122 3 7.04963 0.398519 12.6389
123 3 4.63134 3.21914 8.86615
127 3 1.79599 4.41094 13.6733
101 3 -2.1844 5.98267 15.8138
233 2 2.21835 4.38044 10.3774
234 2 0.351235 4.54888 10.3571
235 2 1.32517 5.53909 11.5106
249 2 3.89032 4.45114 10.9613
250 2 3.99815 5.57154 12.5248
296 4 4.98288 2.30248 15.5048
297 1 5.61918 0.560294 15.1441
298 1 4.58897 3.38755 13.9636
299 2 6.41967 0.280781 15.9034
300 2 6.13046 0.606626 14.0818
339 2 2.83874 1.61424 16.5901
302 2 4.74705 2.44677 13.2993
303 2 5.39631 4.1431 13.8654
304 2 3.50826 3.84906 13.8974
338 1 3.56065 2.45033 16.8327
314 1 0.127149 0.898389 16.612
315 2 0.936631 1.69966 16.6351
334 1 2.50208 0.388863 14.6043
335 2 1.56491 0.616107 15.1984
336 2 2.80069 1.30371 14.0094
32 4 1.83287 5.89795 14.388
340 2 3.09049 3.40246 16.6454
7 4 -0.592472 6.0116 16.3912
129 3 0.58504 5.97799 15.3978
316 2 0.523473 -0.102522 16.3315
36 4 0.705447 11.5243 0.00688253
15 4 -3.02432 9.00473 7.79365
17 4 -4.47719 11.004 5.93442
23 4 -0.140658 12.9748 7.73071
35 4 -1.7108 11.5078 3.80923
38 4 1.04613 11.244 5.47654
69 1 -2.09104 8.38632 6.30635
82 1 1.14418 8.13192 2.61419
83 1 -1.61676 9.93505 2.74534
84 1 1.00289 9.33729 5.59159
106 3 -5.76867 10.7522 4.99344
107 3 -4.26943 9.79988 6.95368
108 3 -4.76105 12.3582 6.69147
132 3 -1.95479 12.7291 2.77649
133 3 -3.13339 11.1158 4.96373
134 3 1.57134 10.5295 1.05273
138 3 -0.233826 11.4466 4.49741
213 2 -1.05237 8.90413 6.15702
214 2 -2.82772 8.65413 5.43197
215 2 -2.00829 7.18471 6.46895
230 2 1.0753 8.08432 7.67499
289 1 -4.03244 7.18237 1.5283
333 2 -3.41846 12.9855 1.65307
251 2 0.979448 8.60342 3.71799
252 2 1.55192 7.08774 2.56668
253 2 0.211416 8.26519 1.86998
254 2 -1.68365 10.5689 1.70724
255 2 -2.38425 9.20123 3.08954
256 2 -0.536483 9.4595 2.86171
257 2 2.02139 9.09837 5.21314
258 2 0.156616 8.8294 4.98442
259 2 0.893792 9.07207 6.77003
325 2 -6.70296 11.7036 1.64319
290 2 -1.98526 7.13945 4.73044
294 2 -3.04647 7.63638 1.20256
320 1 -1.2961 8.28358 0.542675
291 2 -1.35615 7.03568 2.96515
322 2 -1.6518 8.18381 1.6069
279 2 2.60487 8.98871 8.34114
324 1 -6.87129 12.0447 2.74655
354 3 -0.0413249 12.6557 0.827013
326 2 -5.95027 12.6345 3.24965
364 2 -3.72424 6.73721 6.24622
328 1 -4.56499 10.2453 1.40622
329 2 -3.44675 10.1638 1.87684
330 2 -4.95848 9.23417 1.09
331 2 -5.4191 10.8551 2.10314
332 1 -4.28688 13.1614 0.866934
321 2 -0.214278 8.67608 0.354562
139 3 0.704744 11.7293 7.14161
1 4 -5.62658 12.9802 7.93896
240 2 2.17171 6.58338 6.22689
362 2 -5.22538 13.0869 4.51354
4 4 -6.03321 12.7235 12.8535
212 2 -4.50078 10.1817 14.8173
238 2 -0.455872 7.96473 10.3974
18 4 -2.77136 8.55143 13.4426
19 4 -4.16166 10.6612 11.4298
26 4 0.124562 12.8268 13.4861
236 2 -0.338399 8.04297 12.2909
130 3 3.05293 6.43595 9.22962
37 4 -1.56262 11.0401 9.64839
39 4 2.66859 8.57695 12.7425
40 4 -0.921627 10.4029 15.1164
41 4 1.15017 10.8696 11.4076
68 1 -5.06369 10.8099 15.6167
75 1 0.885069 7.91706 8.76871
77 1 -0.18389 7.36533 11.3716
104 3 -3.62282 7.50674 8.62139
210 2 -5.43586 11.9226 15.2121
109 3 -3.7685 7.83438 14.6867
110 3 -2.42125 7.19012 12.6705
111 3 -5.47737 10.0308 10.6963
112 3 -3.50485 9.65465 12.5074
113 3 -4.72138 11.9856 12.4238
232 2 -0.24838 7.81246 8.93303
105 3 -6.33936 11.7721 8.83642
237 2 0.859722 6.84707 11.4159
135 3 -1.97642 9.83041 8.64856
136 3 -1.17929 12.3834 8.86984
137 3 -3.02274 11.2975 10.5227
140 3 2.04619 7.17219 13.405
142 3 -1.42842 9.10787 14.1915
143 3 0.37578 9.9605 16.0712
144 3 -0.754386 11.8062 14.3133
145 3 -2.28478 10.5344 16.1072
146 3 -0.300333 10.6495 10.6524
147 3 1.47603 9.47746 12.1269
231 2 1.3888 8.65726 9.42358
28 4 4.34464 6.43627 16.459
14 4 -3.6364 10.7304 16.8149
323 2 -1.25351 8.22229 16.8272
22 4 6.94594 2.76238 0.284057
42 4 9.23389 1.89559 3.96419
363 2 15.3537 1.29389 2.43655
46 4 11.8646 1.88597 5.73038
50 4 10.6724 3.77799 2.04042
269 2 11.1713 5.31863 5.98651
52 4 10.6589 3.75381 8.11504
72 1 7.0409 4.04701 1.7255
85 1 12.8552 3.1042 4.64556
86 1 8.55657 6.26745 4.3005
87 1 9.20262 4.38879 7.02263
124 3 6.7301 2.86358 7.33023
149 3 8.62611 0.813899 2.90805
150 3 8.12306 2.26415 5.12546
343 2 5.37994 5.83568 0.188378
155 3 10.5956 1.3651 4.70967
156 3 12.851 0.757361 6.26822
164 3 9.53594 3.37671 3.05348
165 3 11.6245 2.5984 1.52475
166 3 11.7754 4.98011 3.01069
168 3 10.0679 4.90125 1.01331
170 3 11.4128 2.82491 6.97656
221 2 7.90182 4.666 1.83884
222 2 6.91637 3.45477 2.65814
223 2 5.99151 4.71606 1.45764
247 2 6.58727 5.8767 3.99875
260 2 12.6073 3.04041 3.51632
44 4 13.3862 -0.25278 7.46282
262 2 12.6316 4.0882 5.10626
126 3 5.18133 4.9672 6.787
264 2 8.87808 5.20506 4.4414
88 1 11.3032 6.41251 6.33228
266 2 8.25644 3.77342 7.23823
267 2 9.54978 4.30361 5.95802
268 2 9.12942 5.45215 7.36981
293 2 11.9865 6.24012 0.912137
43 4 11.7408 1.79625 0.097391
306 1 14.2139 1.26681 2.63311
307 3 12.429 0.0858424 0.734253
308 2 13.6822 2.12847 2.21473
309 2 13.9745 1.09875 3.73683
345 2 4.66342 5.85315 1.9857
80 1 5.36812 5.77197 3.90988
261 2 13.9105 2.7833 4.8415
51 4 9.37783 6.05197 0.145175
207 2 13.3518 4.46376 6.94618
358 2 14.9539 1.50419 0.808057
152 3 14.4251 0.50503 8.39031
263 2 7.6731 6.5002 4.89865
2 4 14.8362 1.80833 9.22578
5 4 14.9174 1.55729 15.282
9 4 12.2951 6.24308 9.63601
45 4 9.73339 1.40335 9.83759
351 2 9.38673 4.14732 15.1209
48 4 10.0067 1.53306 15.2077
49 4 12.3917 1.81607 11.4004
55 4 11.119 3.98987 13.1661
352 2 8.78386 6.04206 15.0277
73 1 7.34803 3.08416 12.348
151 3 13.5274 1.96912 16.1293
248 2 5.60461 5.0173 11.6815
154 3 8.33955 1.44271 10.6086
157 3 14.7548 0.226627 14.5315
158 3 9.17391 0.444895 14.3378
159 3 11.2128 0.901378 16.1551
160 3 9.03162 2.13536 16.3964
161 3 13.5778 2.09976 10.2669
162 3 10.994 1.08128 10.7619
163 3 13.0742 0.83187 12.464
169 3 9.94979 2.83499 9.20449
171 3 11.7021 5.00088 8.81877
172 3 6.68067 4.81011 9.06397
175 3 10.4838 2.81167 14.1789
176 3 12.0097 3.25491 12.1243
177 3 11.8843 5.10861 14.0042
353 2 8.00238 4.81763 16.3234
180 3 9.78925 4.82501 12.3876
224 2 7.38926 3.86112 11.4928
225 2 8.32717 3.06123 12.9219
350 1 8.90062 5.05173 15.6589
226 2 6.37255 3.2399 13.0125
47 4 13.7145 -0.284926 13.2721
153 3 9.21797 0.42435 8.48571
179 3 8.46945 6.29196 10.4875
56 4 9.81128 6.21195 11.5508
13 4 8.82802 10.733 4.00532
278 2 3.49805 10.3131 7.15047
54 4 10.1199 7.17797 5.12208
57 4 7.67609 8.53247 1.68921
58 4 3.85207 10.9339 3.94265
59 4 8.1656 8.58251 7.47948
61 4 6.52052 10.7858 5.81716
79 1 4.67698 7.79321 6.4255
305 4 5.07527 13.0987 1.94623
91 1 7.97385 9.70707 0.216854
90 1 5.78379 8.40759 1.99387
365 2 8.38829 10.6892 0.709805
92 1 3.51331 9.71939 8.13708
244 2 3.83617 7.78726 7.19001
295 2 11.1811 7.86283 1.42695
174 3 11.226 7.53516 4.06824
181 3 8.41604 7.10301 1.47682
182 3 8.34045 9.46851 3.03281
183 3 3.32508 9.83063 2.96161
184 3 4.48681 12.1697 3.09381
185 3 2.45763 11.5434 4.86856
186 3 7.38879 7.31045 8.07123
187 3 9.23926 7.96418 6.21464
131 3 3.02825 8.41166 0.629699
191 3 7.64252 11.4363 4.7876
192 3 4.96604 10.3318 4.86926
193 3 7.06156 9.52521 6.62878
194 3 6.05868 11.9144 6.79797
242 2 4.6475 8.7074 5.80287
243 2 5.71046 7.55242 6.89449
346 1 6.57735 11.9676 1.27577
349 2 7.38681 12.654 0.927676
348 2 6.90158 11.2508 2.1264
274 2 5.35892 7.38785 1.57346
275 2 5.45196 9.27925 1.3683
276 2 5.56546 8.5366 3.10248
347 2 5.95443 11.4492 0.402255
245 2 4.94271 6.67777 3.33546
327 2 8.34884 12.7166 2.81992
189 3 3.89261 12.4424 8.28186
34 4 2.42918 9.30274 1.81119
270 2 10.9164 6.57842 7.33658
265 2 8.51787 6.66389 3.09919
283 2 4.66384 9.61343 16.5825
33 4 4.28332 6.80081 10.5174
206 2 8.90324 11.4493 14.6027
60 4 3.63269 11.2791 9.27916
62 4 3.60955 10.8475 14.5957
63 4 6.53075 10.8736 11.0205
66 1 8.89621 11.3545 13.4621
74 1 5.72858 7.27016 15.4552
89 1 9.52189 7.65435 12.7852
93 1 4.99465 10.4874 15.9326
94 1 6.43618 9.43516 12.1956
356 2 9.27176 10.3514 13.0509
188 3 9.12544 9.16183 8.53814
211 2 10.1694 10.1651 16.152
173 3 5.81394 7.12436 10.1442
178 3 11.2408 6.61981 10.7626
366 2 9.52934 8.3565 16.6258
190 3 2.27723 11.1674 10.2397
195 3 3.60473 9.49956 13.766
196 3 4.2313 12.1334 13.8113
197 3 2.52848 11.1481 15.7621
198 3 7.94153 10.7093 10.2762
199 3 5.18079 10.9472 10.1969
200 3 6.33522 12.2513 12.2249
227 2 5.58908 8.39613 15.6197
229 2 6.69292 6.80081 15.8581
271 2 10.2728 8.3982 12.3871
272 2 9.7703 7.25603 13.7834
273 2 8.41267 8.02284 12.7469
277 2 7.84052 9.16863 16.4852
281 2 5.09067 11.4737 16.5649
282 2 5.83802 10.2246 15.1721
141 3 3.75839 7.97345 11.5248
284 2 7.34441 8.6519 12.0503
285 2 5.42886 8.95439 11.8754
286 2 6.37705 9.95089 13.1873
16 4 9.40169 10.3992 9.63032
228 2 5.62854 6.96189 14.3422
357 2 7.8221 11.6974 13.0652
148 3 1.16483 12.0903 12.5069
167 3 11.3119 6.21986 16.365
11 4 12.4061 6.30735 15.1692
280 2 4.56133 9.31444 8.48103
53 4 7.10273 6.35071 9.43985
ITEM: TIMESTEP
100
ITEM: NUMBER OF ATOMS
366
ITEM: BOX BOUNDS xy xz yz pp pp pp
-8.2538999999999998e+00 1.6910190000000000e+01 -8.2538999999999998e+00
-6.4910000000000001e-01 1.3422400000000000e+01 7.8528999999999993e-01
0.0000000000000000e+00 1.6908999999999999e+01 -6.4910000000000001e-01
ITEM: ATOMS id type x y z
3 4 1.10012 3.10142 4.40201
8 4 -0.474929 4.10277 7.21918
20 4 7.48866 0.154599 1.91926
21 4 4.17239 2.1294 4.42735
29 4 5.73694 3.99215 8.02641
31 4 4.43593 5.97371 5.76286
319 2 -1.99285 4.45575 0.33433
64 1 1.04518 4.41881 3.19048
65 1 0.799187 1.33186 3.70527
67 1 -2.05047 5.03585 6.82918
70 1 3.77253 0.245158 4.1069
71 1 4.1369 3.10373 2.78624
78 1 2.5846 5.64724 5.66488
98 3 -0.0309065 3.42219 5.73717
114 3 2.8736 2.79985 5.1341
115 3 6.64021 1.43684 1.18851
118 3 5.64607 2.04114 5.13172
119 3 7.36686 0.408413 6.70604
217 2 3.97676 -0.0459693 2.88627
125 3 0.792038 5.33501 7.71978
312 2 1.52903 0.43894 6.19654
201 2 1.9923 4.60539 2.55204
202 2 0.75918 5.34768 3.76361
203 2 0.221387 4.04389 2.48303
311 2 0.368883 0.406507 7.63043
205 2 0.506067 1.44718 2.52937
359 2 -0.215245 4.78124 0.657097
208 2 -2.08568 5.51203 5.65328
318 2 -1.51854 5.53692 1.90239
344 2 3.79162 4.80118 0.577666
342 1 4.35225 5.79593 0.878284
218 2 3.21698 3.9531 2.59049
219 2 4.02261 2.13669 2.15379
220 2 5.19692 3.46031 2.44447
239 2 2.65898 5.46196 4.45949
241 2 2.44065 4.70803 6.26249
341 2 3.12114 3.1637 1.03164
288 1 -2.03151 6.21376 3.78107
97 3 -0.999566 3.11042 8.32145
292 2 -1.77529 5.15389 4.04452
209 2 -1.97529 5.84385 7.63547
310 1 1.43017 0.618112 7.29443
204 2 1.86089 0.818785 3.83818
313 2 1.96049 1.66284 7.6637
317 1 -1.26151 5.14483 0.80631
363 2 -0.866273 1.64166 2.40169
355 2 -0.0514741 0.806741 4.29547
246 2 4.90504 4.80839 3.44835
361 2 3.16608 -0.0400699 1.4658
216 2 4.75698 -0.0637122 4.70432
126 3 5.05991 4.89567 6.7923
360 2 4.30211 0.415243 0.0356436
6 4 1.24322 1.68801 11.055
130 3 3.21729 6.31141 9.06468
337 2 3.24919 0.0500688 15.1455
10 4 0.163303 3.73948 13.1819
12 4 -1.60757 6.10448 11.7316
24 4 4.10317 1.9577 9.70477
301 2 4.68498 -0.164775 15.3302
27 4 6.91379 1.38408 11.4967
30 4 1.71741 6.00684 8.9111
76 1 1.08406 5.18159 10.4148
81 1 4.56091 5.21375 11.6222
95 3 0.144509 1.46769 9.87321
96 3 1.53227 0.229531 11.8127
128 3 3.25486 5.69693 15.519
99 3 -0.585039 2.87033 14.4829
100 3 0.585799 2.72537 12.0887
120 3 6.33074 2.8263 16.252
102 3 -2.39516 5.69232 10.4493
103 3 -0.827247 4.83267 12.5352
116 3 3.67956 0.597654 8.88192
117 3 2.75763 2.28083 10.4911
121 3 5.43402 1.54947 10.6797
122 3 7.11499 0.303481 12.6764
123 3 4.56708 3.1869 8.75491
127 3 1.65723 4.44234 13.6496
101 3 -2.26114 5.96253 15.727
233 2 1.82405 4.29663 10.3791
234 2 -0.0184917 4.81366 10.2298
235 2 1.23655 5.84956 11.3692
249 2 3.8273 4.5928 10.9775
250 2 4.17283 5.56064 12.6587
296 4 4.96297 2.39055 15.5665
297 1 5.54446 0.570561 15.2024
298 1 4.45344 3.5143 14.0649
299 2 6.26667 0.279846 16.0501
300 2 6.07452 0.455153 14.2031
339 2 2.92791 1.47957 16.6575
302 2 4.63812 2.67281 13.2385
303 2 5.14932 4.43781 14.008
304 2 3.34796 3.84125 14.0177
338 1 3.45855 2.46468 16.9073
314 1 -0.0142 1.02611 16.5238
315 2 0.836153 1.75297 16.4723
334 1 2.39527 0.451103 14.5681
335 2 1.48083 0.605204 15.1767
336 2 2.68819 1.42488 13.949
32 4 1.8712 5.84479 14.5127
340 2 2.93707 3.44859 16.5733
7 4 -0.749367 5.86847 16.2757
129 3 0.53969 5.82145 15.4017
226 2 6.14457 3.3499 12.972
134 3 1.46744 10.5016 0.968163
15 4 -2.89951 8.95196 7.90625
17 4 -4.34612 11.0534 5.91311
23 4 -0.0641916 12.9147 7.75517
35 4 -1.73899 11.4102 3.84059
38 4 1.01593 11.0509 5.43949
69 1 -2.07867 8.24871 6.3062
82 1 1.08327 8.28417 2.53969
83 1 -1.68226 9.88412 2.67885
84 1 0.922337 9.16795 5.83232
106 3 -5.62929 10.5758 4.93606
107 3 -3.98983 10.0587 7.17721
108 3 -4.65072 12.4271 6.52652
132 3 -1.93292 12.6359 2.89741
133 3 -3.10152 11.0814 4.96392
291 2 -1.19 6.60418 3.11332
138 3 -0.308114 11.2872 4.54531
213 2 -1.02373 8.70168 6.25234
214 2 -2.75749 8.68096 5.55747
215 2 -2.0989 7.06361 6.47098
230 2 1.01241 8.23076 7.82996
289 1 -4.00921 7.11773 1.49634
333 2 -3.16729 13.0308 1.63237
251 2 0.702917 8.67377 3.55858
252 2 1.62547 7.28678 2.6276
253 2 0.198443 8.25775 1.76811
254 2 -1.78093 10.4166 1.68366
255 2 -2.57363 9.22431 3.00946
256 2 -0.661996 9.31386 2.7099
257 2 2.00086 8.70477 5.79589
258 2 0.188246 8.69919 4.99564
259 2 0.474512 9.19586 6.89309
325 2 -6.69775 11.6367 1.70813
290 2 -2.03757 6.92015 4.75427
294 2 -3.01348 7.52725 1.11997
320 1 -1.29116 8.21403 0.314337
362 2 -5.40899 13.1452 4.54629
322 2 -1.35457 8.10278 1.42555
240 2 1.90812 6.51454 6.0082
324 1 -6.81871 11.9491 2.7563
354 3 0.0253466 12.6354 0.834738
326 2 -5.88727 12.5793 3.21137
364 2 -3.71902 7.09178 6.1957
328 1 -4.60931 10.0874 1.35865
329 2 -3.47403 9.97393 1.83127
330 2 -5.08985 9.17154 0.855252
331 2 -5.41706 10.6562 2.07747
332 1 -4.13469 13.1266 0.933807
131 3 2.91931 8.19084 0.639562
139 3 0.734832 11.7964 6.79437
1 4 -5.31441 12.976 8.03361
14 4 -4.40519 11.4379 0.0311483
295 2 -4.80126 7.93944 1.52309
4 4 -6.01762 12.8 12.8678
212 2 -4.5854 10.3627 15.0042
238 2 -0.768396 7.99952 10.171
18 4 -2.76675 8.56459 13.4963
19 4 -4.1511 10.6874 11.6068
26 4 0.195055 12.8596 13.4605
236 2 -0.54451 8.38301 11.9691
148 3 0.949958 12.0092 12.4059
37 4 -1.5263 10.9299 9.73751
39 4 2.56322 8.42233 12.7609
40 4 -0.957129 10.4777 15.0863
41 4 1.10472 10.7663 11.3312
68 1 -5.14069 10.9484 15.8668
75 1 0.89972 7.81483 8.88362
77 1 -0.444803 7.5397 11.2305
104 3 -3.38564 7.64441 8.74612
210 2 -5.47093 12.0189 15.5625
109 3 -3.81471 7.98703 14.5665
110 3 -2.29959 7.10854 12.6855
111 3 -5.52819 10.0956 10.8182
112 3 -3.5805 9.54292 12.5355
113 3 -4.5925 11.9929 12.5523
232 2 -0.201983 7.5369 9.02721
105 3 -6.02914 11.7712 8.80766
237 2 0.552034 6.9943 11.2081
135 3 -1.70594 9.76776 8.60357
136 3 -1.04529 12.2808 8.89635
137 3 -2.96136 11.0689 10.5925
140 3 1.99848 7.09375 13.5319
142 3 -1.19071 9.24379 13.907
143 3 0.188799 9.90474 16.2023
144 3 -0.555246 11.8507 14.4812
145 3 -2.29407 10.642 16.0573
146 3 -0.324192 10.6389 10.7071
147 3 1.53661 9.39326 12.0171
231 2 1.3245 8.53171 9.73187
28 4 4.27641 6.42039 16.5427
36 4 1.43894 10.8095 16.79
279 2 2.49051 8.96916 8.48392
321 2 0.572791 7.7884 16.8305
323 2 -1.25321 8.28306 16.7917
22 4 6.96436 2.77144 0.482429
42 4 9.21247 1.87338 3.99285
358 2 14.947 1.52078 0.763779
46 4 11.8858 1.91848 5.80192
50 4 10.6107 3.76249 2.16605
269 2 11.4876 5.35965 5.99051
52 4 10.7189 3.82133 8.16764
72 1 7.01819 4.12721 1.77665
85 1 13.0199 3.02805 4.72578
86 1 8.85714 6.20696 4.21971
87 1 9.41008 4.80695 7.21384
124 3 6.8008 2.95469 7.45924
149 3 8.60251 0.726816 3.0285
150 3 8.22116 2.47902 5.31912
152 3 14.3993 0.477494 8.40342
155 3 10.7297 1.41479 4.84147
156 3 12.9966 0.805053 6.20495
164 3 9.46321 3.25675 3.09441
165 3 11.3993 2.54677 1.58013
166 3 11.6013 4.91844 2.96413
168 3 9.95064 4.76616 0.73124
170 3 11.4064 2.9625 6.99086
221 2 7.92871 4.82685 1.7673
222 2 6.91484 3.501 2.76657
223 2 5.9655 4.77623 1.48417
247 2 6.3133 5.91481 4.11312
260 2 12.7454 2.84889 3.65127
51 4 9.29849 6.13824 0.241428
262 2 12.7604 4.11019 5.06935
207 2 13.2397 4.22325 7.03665
264 2 9.20001 5.12664 4.06616
153 3 9.31552 0.394172 8.45271
266 2 8.4102 4.33914 7.48971
267 2 9.60348 4.77575 6.09694
268 2 9.48267 5.85757 7.68955
293 2 11.8029 6.16381 0.917938
43 4 11.6752 1.68714 0.178056
306 1 14.1339 1.32182 2.58238
307 3 12.539 0.178405 0.640888
308 2 13.3338 2.08798 2.2231
309 2 14.0169 1.13461 3.71213
345 2 4.61603 5.86252 2.00936
80 1 5.21993 5.89985 3.92235
261 2 14.0455 2.63851 4.97358
343 2 5.37517 5.91238 0.183296
287 4 12.2485 6.32923 3.14523
25 4 7.05852 1.9091 6.15337
263 2 7.9182 6.24319 4.80027
88 1 11.3845 6.45987 6.25818
2 4 14.8275 1.74903 9.25041
5 4 14.8329 1.60574 15.2323
9 4 12.3588 6.25346 9.67928
45 4 9.62168 1.35165 9.79947
351 2 9.58328 4.01362 15.188
48 4 10.0061 1.53609 15.343
49 4 12.3243 1.82238 11.279
55 4 11.1641 4.06905 13.0929
352 2 8.94687 5.7842 15.1838
73 1 7.10767 3.11478 12.3012
151 3 13.5899 1.92431 16.2821
248 2 5.62994 4.89034 11.5298
154 3 8.20531 1.29524 10.5722
157 3 14.6648 0.313396 14.2434
158 3 9.31936 0.434865 14.3947
159 3 11.1316 0.834019 16.265
160 3 8.94589 2.17252 16.2607
161 3 13.5311 2.12528 10.188
162 3 11.0059 1.13631 10.5504
163 3 12.8137 0.856367 12.3809
169 3 9.74842 2.96905 9.30861
171 3 11.6268 5.07524 8.72596
172 3 6.645 5.06033 8.87556
175 3 10.6241 2.94832 14.2993
176 3 11.9412 3.33143 11.9336
177 3 11.9017 5.22978 14.0115
353 2 7.98565 4.47121 16.1827
180 3 9.89782 4.63161 12.3773
224 2 7.12634 3.73247 11.2864
225 2 8.08135 3.23936 12.8202
350 1 9.02142 4.83801 15.7678
56 4 9.69877 6.26317 11.4
47 4 13.6022 -0.302377 13.1021
316 2 16.4754 0.0126799 16.2311
13 4 8.90961 10.6478 4.04073
278 2 3.25815 10.3118 7.14197
54 4 10.0265 7.28186 5.10883
57 4 7.75417 8.59918 1.73405
58 4 3.83229 10.9114 3.96738
59 4 8.21416 8.65324 7.369
61 4 6.46859 10.7443 5.83414
79 1 4.73593 7.83429 6.4843
305 4 5.10866 13.0419 1.88924
91 1 7.93578 9.63511 0.0858361
90 1 5.87996 8.47999 1.93988
365 2 8.07382 10.7298 0.283298
92 1 3.44348 9.73004 8.13236
44 4 5.27562 13.1265 7.36742
244 2 3.6072 7.65018 6.94788
174 3 11.2147 7.52564 4.11295
181 3 8.33007 7.14876 1.40255
182 3 8.44124 9.42374 3.02365
183 3 3.4273 9.7894 2.88018
184 3 4.40503 12.1754 3.08703
185 3 2.44567 11.2687 4.86127
186 3 7.57449 7.33313 8.03025
187 3 9.17404 8.08962 6.13562
280 2 4.44988 9.2713 8.17439
191 3 7.74158 11.2577 4.85368
192 3 5.0334 10.325 4.89054
193 3 6.978 9.56851 6.74154
194 3 6.06347 11.937 6.71323
242 2 4.76478 8.8037 5.92873
243 2 5.45219 7.84601 7.3317
346 1 6.6124 12.0563 1.20838
349 2 7.48903 12.818 1.01395
348 2 6.85618 11.2782 1.96008
274 2 5.38928 7.4167 1.54633
275 2 5.6616 9.35415 1.22065
276 2 5.65912 8.7026 3.013
347 2 6.20601 11.6612 0.267462
245 2 4.9729 6.80396 3.30189
327 2 8.33434 12.6062 2.96299
189 3 3.91123 12.5193 8.27017
34 4 2.38842 9.41336 1.76774
270 2 10.9242 6.59905 7.27721
265 2 8.59201 6.64207 3.11223
188 3 9.11902 9.4313 8.45365
283 2 4.80077 9.6356 16.6747
33 4 4.36503 6.80462 10.5826
206 2 8.9014 11.7328 14.7728
60 4 3.73385 11.2644 9.29202
62 4 3.62021 10.8092 14.6553
63 4 6.56694 10.8429 11.0108
66 1 8.90553 11.4894 13.6949
74 1 5.6454 7.3029 15.4311
89 1 9.46548 7.44147 12.8389
93 1 5.04053 10.4947 15.9377
94 1 6.47902 9.38194 12.1135
356 2 9.46461 10.5511 13.4577
179 3 8.43754 6.35007 10.4183
211 2 10.0918 10.3015 16.2241
173 3 5.826 7.2926 10.1529
178 3 11.1865 6.63512 10.6618
366 2 9.55422 8.58347 16.3508
190 3 2.4895 11.1129 10.2798
195 3 3.359 9.43615 13.8824
196 3 4.4074 11.9594 13.8093
197 3 2.4025 11.3129 15.5048
198 3 8.09099 10.7158 10.3845
199 3 5.10924 10.8251 9.94329
200 3 6.32435 12.2163 12.1052
227 2 5.42361 8.52199 15.6224
229 2 6.6481 6.93777 15.7871
271 2 10.0689 8.34043 12.4373
272 2 9.96701 6.99807 13.7638
273 2 8.37829 7.67309 12.9485
277 2 7.66831 8.83651 16.5803
281 2 4.99442 11.5232 16.4948
282 2 6.05181 10.3843 15.4143
141 3 3.55146 7.86378 11.5786
284 2 7.35793 8.72135 11.7326
285 2 5.44181 8.94474 11.8174
286 2 6.60057 9.68092 13.163
16 4 9.55858 10.5416 9.65159
228 2 5.32215 7.0577 14.3927
357 2 7.85636 11.5814 13.2682
53 4 7.17336 6.53182 9.40507
167 3 11.2395 6.34179 16.2458
11 4 12.3673 6.30926 15.0351
ITEM: TIMESTEP
200
ITEM: NUMBER OF ATOMS
366
ITEM: BOX BOUNDS xy xz yz pp pp pp
-8.2538999999999998e+00 1.6910190000000000e+01 -8.2538999999999998e+00
-6.4910000000000001e-01 1.3422400000000000e+01 7.8528999999999993e-01
0.0000000000000000e+00 1.6908999999999999e+01 -6.4910000000000001e-01
ITEM: ATOMS id type x y z
3 4 1.13301 3.18703 4.58888
8 4 -0.457172 4.1246 7.1883
20 4 7.446 0.226225 2.09207
21 4 4.12363 2.18797 4.6532
29 4 5.71421 3.98619 8.12332
31 4 4.45572 6.01068 5.86631
319 2 -2.4629 4.39458 0.254625
64 1 1.07635 4.4647 3.18667
65 1 0.838347 1.46636 3.73942
67 1 -2.03804 4.97003 6.69184
70 1 3.78173 0.290246 4.19722
71 1 4.24218 3.13524 2.94504
78 1 2.65593 5.71664 5.49201
98 3 0.0787745 3.51575 5.75263
114 3 2.72378 2.85674 5.09815
115 3 6.80944 1.43969 1.35257
118 3 5.59865 2.22893 5.40882
119 3 7.29111 0.430784 6.71139
217 2 3.79415 0.212904 3.02589
125 3 0.850206 5.19925 7.8049
312 2 1.72161 0.510288 6.25422
201 2 2.02233 4.71786 2.59337
202 2 0.510566 5.35237 3.49993
203 2 0.254121 3.72036 2.6174
311 2 0.476662 0.103078 7.7027
205 2 0.467378 1.78394 2.64231
359 2 -0.51694 4.54813 0.526877
208 2 -1.94718 5.48826 5.61538
318 2 -1.72915 5.33948 1.81927
344 2 3.81011 4.85506 0.565595
339 2 2.0258 2.37896 0.00539599
218 2 3.2914 3.74999 2.85418
219 2 4.04285 2.01634 2.41252
220 2 5.26823 3.56884 2.60614
239 2 2.90623 5.34922 4.43845
241 2 2.33294 4.95969 6.21821
341 2 3.31445 3.19421 1.14864
288 1 -2.10393 6.17128 3.64629
97 3 -0.857959 2.96526 8.21244
292 2 -1.89871 5.06285 3.88472
209 2 -2.29223 5.62388 7.59059
310 1 1.4315 0.593294 7.37732
204 2 1.85704 0.973255 3.75212
313 2 1.5871 1.60684 7.92392
317 1 -1.55601 4.97804 0.701716
362 2 2.88666 -0.138208 4.76191
355 2 0.0314835 0.961322 4.34372
246 2 4.90091 4.98092 3.5199
361 2 3.09138 0.176336 1.51779
216 2 4.75067 -0.014865 4.79774
126 3 5.17684 4.89489 6.82007
291 2 -1.29237 6.46013 2.87843
338 1 2.78497 3.19195 0.0613239
363 2 -0.709288 1.32943 2.13109
6 4 1.24846 1.71084 11.0927
129 3 0.392048 5.82022 15.4413
337 2 3.40172 0.010543 15.2489
10 4 0.127989 3.78257 13.1717
12 4 -1.67925 6.11341 11.7675
24 4 4.18533 1.9345 9.74826
301 2 4.78069 -0.284487 14.9466
27 4 6.98393 1.50311 11.4213
30 4 1.73303 6.03972 8.83434
76 1 1.27247 5.00858 10.3545
81 1 4.60883 5.19495 11.523
95 3 0.213434 1.36535 9.89431
96 3 1.68543 0.367119 12.0263
128 3 3.17079 5.79251 15.6294
99 3 -0.662641 2.99866 14.2786
100 3 0.530672 2.77082 12.025
120 3 6.35747 2.64513 16.5331
102 3 -2.48053 5.95371 10.4263
103 3 -0.757376 5.02679 12.4441
116 3 4.00702 0.724594 8.58898
117 3 2.63472 2.28335 10.5114
121 3 5.39306 1.63989 10.7807
122 3 7.15781 0.294808 12.5835
123 3 4.52801 3.23455 8.93058
127 3 1.73245 4.42811 13.5687
101 3 -2.39496 5.70617 15.7364
233 2 1.84471 4.06221 10.527
234 2 0.183092 4.79749 10.1792
235 2 1.42637 5.82906 11.2098
249 2 4.25298 4.50906 10.6068
250 2 3.89327 5.19988 12.4085
296 4 5.08394 2.22863 15.6692
297 1 5.57358 0.487927 15.0746
298 1 4.66057 3.3098 14.1475
299 2 6.37101 0.224345 15.824
300 2 6.17731 0.54531 14.0599
7 4 -0.901849 5.79092 16.3268
302 2 4.94229 2.44514 13.4148
303 2 5.39326 4.15649 14.0765
304 2 3.55756 3.6553 13.9863
360 2 5.06616 -0.255004 16.8668
314 1 -0.0534027 0.980382 16.3966
315 2 0.776543 1.74674 16.1572
334 1 2.54901 0.422508 14.6908
335 2 1.60332 0.525849 15.3208
336 2 2.74462 1.40021 13.9966
32 4 1.79254 5.8385 14.4717
340 2 3.16007 3.54573 16.7717
134 3 1.48125 10.4869 0.964089
15 4 -2.81672 8.92347 7.88378
17 4 -4.23038 10.8811 5.9784
23 4 -0.0199162 12.9374 7.74628
35 4 -1.7075 11.2312 3.78409
38 4 1.05358 10.9653 5.52015
69 1 -2.04572 8.13339 6.22636
82 1 1.00651 8.15823 2.58054
83 1 -1.89241 9.72044 2.72456
84 1 0.957111 9.10217 5.89758
106 3 -5.65118 10.5729 5.15704
107 3 -3.92394 9.77526 7.09493
108 3 -4.47285 12.227 6.60598
132 3 -1.92556 12.7673 2.7108
133 3 -3.04118 11.0109 4.92491
323 2 -2.24919 8.81281 0.163552
138 3 -0.287553 11.0294 4.51048
213 2 -0.951556 8.5157 6.05758
214 2 -2.74583 8.45375 5.41598
215 2 -2.06303 6.95053 6.37756
230 2 1.12722 8.12062 7.72515
289 1 -4.19934 7.13333 1.50208
333 2 -3.37336 13.0772 1.61679
251 2 0.620437 8.51915 3.62507
252 2 1.66657 7.22676 2.6612
253 2 0.127943 8.00449 1.85745
254 2 -2.12913 10.2795 1.6929
255 2 -2.83656 9.12131 3.05287
256 2 -0.780147 9.14441 2.70013
257 2 2.01271 8.80653 5.92485
258 2 0.400642 8.5715 5.02259
259 2 0.418159 9.0036 6.88805
325 2 -7.02115 11.673 1.98517
290 2 -2.11101 6.89398 4.62063
294 2 -3.15526 7.70308 1.22036
320 1 -1.36423 8.13367 0.352282
240 2 2.10632 6.72075 5.50874
322 2 -1.34648 7.7542 1.44817
14 4 -4.51591 11.4693 0.00416398
324 1 -6.90505 12.0148 3.05486
354 3 0.14175 12.7046 0.940186
326 2 -5.92721 12.5003 3.27297
364 2 -3.85653 7.27132 6.27512
328 1 -4.74029 10.2186 1.37724
329 2 -3.72235 10.0023 1.90669
330 2 -5.12543 9.26185 0.881388
331 2 -5.57163 10.7295 2.10402
332 1 -4.29593 13.2278 0.941733
34 4 2.31799 9.25526 1.71912
139 3 0.781065 11.7472 6.89215
1 4 -5.1913 13.0744 7.92293
36 4 0.665302 11.458 0.0220111
279 2 2.67099 8.94614 8.38955
4 4 -6.08605 12.7859 13.0868
212 2 -4.44893 10.551 14.8682
238 2 -0.763971 7.95136 10.2318
18 4 -2.90883 8.52268 13.4732
19 4 -4.15789 10.7478 11.4433
26 4 0.22728 12.844 13.4484
236 2 -0.548187 8.23603 12.1651
130 3 3.19962 6.36393 9.12816
37 4 -1.41431 10.897 9.62923
39 4 2.59271 8.37663 12.8479
40 4 -0.957173 10.489 15.1069
41 4 1.18707 10.7631 11.4116
68 1 -5.16172 10.9142 15.7378
75 1 1.01366 7.79724 8.80431
77 1 -0.478517 7.50407 11.2739
104 3 -3.43276 7.61209 8.72866
210 2 -5.5971 11.9538 15.5065
109 3 -3.63177 8.00492 14.7872
110 3 -2.55231 7.1744 12.5621
111 3 -5.49939 10.1422 10.6779
112 3 -3.74325 9.53646 12.4739
113 3 -4.69995 11.8962 12.4961
232 2 -0.157423 7.51283 9.11693
105 3 -5.94672 11.9649 8.95598
237 2 0.553095 6.897 11.3271
135 3 -1.57993 9.58607 8.5993
136 3 -1.09563 12.2341 8.7143
137 3 -2.87562 11.049 10.4494
140 3 1.84664 7.15294 13.6341
142 3 -1.46765 9.3879 13.8986
143 3 0.204959 9.97964 16.1628
144 3 -0.561287 11.8623 14.5025
145 3 -2.38728 10.6007 16.0914
146 3 -0.207551 10.5812 10.5905
147 3 1.52612 9.35258 12.1769
231 2 1.43334 8.4376 9.5694
28 4 4.33775 6.53 16.5036
141 3 3.56089 7.68844 11.6176
321 2 0.433252 7.86628 16.8202
22 4 6.91898 2.7264 0.477573
42 4 9.28162 1.965 4.04292
358 2 14.8298 1.60458 0.636439
46 4 11.9076 1.94001 5.74649
50 4 10.511 3.85487 2.08663
269 2 11.6023 5.65548 5.90677
52 4 10.7861 3.94989 8.14386
72 1 7.00288 4.13402 1.78041
85 1 12.994 3.10135 4.66621
86 1 8.87576 5.98204 4.26445
87 1 9.30411 4.92139 7.37969
124 3 6.89451 2.97433 7.61578
149 3 8.46479 0.85472 3.28733
150 3 8.2551 2.48423 5.39986
152 3 14.4614 0.584793 8.30539
155 3 10.7548 1.57539 4.6967
156 3 12.7827 0.728788 6.29546
164 3 9.38352 3.21829 2.97395
165 3 11.3164 2.6752 1.43844
166 3 11.5883 4.81725 3.10543
168 3 9.87129 4.87069 0.939285
170 3 11.3876 3.01609 7.04217
221 2 8.06399 4.47132 1.60427
222 2 6.76686 3.6923 2.87956
223 2 6.09812 4.9031 1.41107
247 2 6.354 5.92488 4.03953
260 2 12.8507 2.70205 3.57866
51 4 9.2441 6.10749 0.0555886
262 2 12.5401 4.09282 4.83123
207 2 13.371 4.02406 6.7688
264 2 9.64087 5.14663 4.44195
44 4 13.4865 -0.262835 7.42597
266 2 8.48706 4.49305 8.08178
267 2 9.08834 4.68827 6.29908
268 2 9.48747 6.05502 7.56964
293 2 11.7489 6.09783 0.949425
43 4 11.6542 1.78871 0.0773199
306 1 14.2841 1.36808 2.56218
307 3 12.3638 0.196738 0.626399
308 2 13.6379 2.26905 2.06857
309 2 14.2209 1.28337 3.69817