ITEM: TIMESTEP
0
ITEM: NUMBER OF ATOMS
366
ITEM: BOX BOUNDS xy xz yz pp pp pp
-8.2538999999999998e+00 1.6910190000000000e+01 -8.2538999999999998e+00
-6.4910000000000001e-01 1.3422400000000000e+01 7.8528999999999993e-01
0.0000000000000000e+00 1.6908999999999999e+01 -6.4910000000000001e-01
ITEM: ATOMS id type x y z
3 4 0.788359 2.66061 4.82368
8 4 -0.283156 4.3982 7.32233
361 2 3.7864 0.42805 0.785351
21 4 3.97449 2.05631 4.65105
239 2 2.47153 6.39776 4.51404
312 2 1.37492 0.371751 5.95372
338 1 2.7875 2.13715 0.264619
64 1 0.756456 3.67897 3.2538
65 1 -0.217822 0.969637 4.76442
67 1 -1.71251 5.52114 6.89914
70 1 3.97696 0.441474 3.77326
71 1 4.14888 3.2017 3.05801
78 1 2.87665 5.59842 5.25268
98 3 0.0583645 3.56024 5.84915
114 3 2.52348 2.29371 5.20092
115 3 7.20238 0.913007 1.1331
118 3 5.45091 2.02728 5.49452
119 3 7.19443 0.36871 6.84508
220 2 4.88883 4.19028 3.37792
125 3 1.30747 5.38176 7.7154
25 4 6.9813 1.95528 6.25193
201 2 -0.0497556 4.50226 3.44965
202 2 0.396578 2.77377 2.59582
203 2 1.83952 4.14236 3.00012
204 2 0.353426 -0.0149042 4.51704
341 2 3.21338 2.51369 1.33803
339 2 2.31374 1.06222 0.298145
97 3 -0.981668 3.36541 8.4287
209 2 -1.89947 5.60006 5.73007
290 2 -1.43992 6.39328 4.24815
217 2 3.60132 0.900086 2.74451
218 2 3.02017 3.52018 2.81614
219 2 4.69375 2.57644 2.22784
311 2 0.348911 0.356386 7.64034
344 2 4.20984 4.8782 0.396155
241 2 3.1082 4.66547 4.7164
216 2 5.05826 0.074525 3.63808
288 1 -2.10848 5.66863 3.66059
291 2 -1.60846 5.43304 2.60377
292 2 -2.35273 4.6098 4.20819
359 2 -1.01986 3.94838 0.206151
310 1 1.35696 0.60989 7.13968
240 2 2.17996 5.47941 6.17267
313 2 1.78618 1.67515 7.32452
317 1 -1.26009 5.01481 0.641894
318 2 -0.494008 5.19595 1.39281
319 2 -2.2967 4.98778 1.11938
208 2 -2.63672 5.06925 7.46269
6 4 1.24389 1.70378 10.9333
120 3 6.29421 1.48374 16.2964
334 1 2.09322 0.463684 14.0684
10 4 0.105981 3.8361 13.136
315 2 1.0624 2.0501 16.5568
24 4 4.01755 1.98307 9.64492
336 2 2.74111 1.45088 13.9195
27 4 6.84204 1.50729 11.5425
32 4 1.78115 5.92404 14.4766
76 1 1.15981 5.16516 10.4144
81 1 4.62054 5.07683 11.3686
95 3 -0.0486248 1.51939 10.01
96 3 1.62739 0.292416 11.5873
128 3 3.3519 5.93243 15.495
99 3 -0.724834 2.96562 14.2069
100 3 0.661908 2.82614 12.0192
335 2 1.04574 0.766909 14.1556
102 3 -2.18318 6.10025 10.2341
103 3 -0.774717 5.06884 12.5405
116 3 3.58821 0.652189 8.90002
117 3 2.70432 2.54338 10.3389
121 3 5.30191 1.60332 10.8031
122 3 6.93515 0.164104 12.5647
123 3 4.79489 3.15763 8.76842
127 3 1.52222 4.48128 13.8283
340 2 2.93082 2.24271 16.6761
233 2 1.77863 4.21778 10.33
234 2 0.0458532 5.01853 10.138
235 2 1.27497 5.65045 11.3926
249 2 3.9784 4.42958 10.627
250 2 4.12165 5.34379 12.3693
296 4 4.87285 1.46627 15.6314
297 1 4.9934 -0.123313 14.6978
298 1 4.44391 3.09564 14.5302
7 4 -0.689439 5.99969 16.4782
300 2 4.57479 0.372214 13.7105
337 2 2.38357 -0.170041 15.0423
302 2 4.63851 2.71928 13.4127
303 2 5.16709 3.90519 14.8427
304 2 3.38639 3.43008 14.6198
226 2 6.07725 3.11794 13.3325
314 1 0.0991888 1.3907 16.4169
30 4 1.86481 6.1718 8.92365
316 2 0.334975 0.33417 16.0325
129 3 0.621057 6.00446 15.5161
332 1 -3.9637 12.8441 1.11291
15 4 -3.10036 8.94228 7.73832
17 4 -4.43372 11.0067 5.8916
293 2 -3.10772 7.52642 1.3847
35 4 -1.82373 11.3371 3.97607
257 2 2.37789 9.22402 6.48256
69 1 -2.35147 8.33892 6.10133
82 1 2.19637 7.73906 2.84455
83 1 -2.00448 9.77337 2.89428
84 1 1.48574 9.22595 5.64874
106 3 -5.81669 10.8992 4.80349
107 3 -4.2098 9.87826 6.98164
108 3 -4.66032 12.3842 6.72209
132 3 -1.69457 12.6983 3.2517
133 3 -3.0909 11.1352 4.9145
134 3 1.15887 9.89438 1.22464
138 3 -0.16946 11.0159 4.72739
213 2 -2.46871 8.99768 5.20297
214 2 -2.80173 7.33882 5.88616
215 2 -1.24642 8.21896 6.30702
230 2 1.31451 8.42894 7.5806
135 3 -1.68066 9.77523 8.45255
331 2 -5.82413 9.86133 1.77082
289 1 -4.03511 6.9803 1.64546
252 2 2.21633 6.89924 2.09313
253 2 1.17041 7.97052 3.36652
254 2 -2.01035 10.3101 1.87315
255 2 -2.94541 9.20308 3.1237
256 2 -1.11616 9.12125 3.10203
36 4 0.658106 11.0859 0.0882647
258 2 1.78757 8.67672 4.58084
259 2 0.529951 8.9199 6.06795
23 4 -0.0574756 13.0869 7.86544
1 4 -5.532 12.9313 7.92704
360 2 -2.80733 12.8411 1.1295
320 1 -1.30397 8.12585 0.799331
330 2 -4.7935 9.18421 0.288231
322 2 -1.2207 7.31981 1.70778
325 2 -6.99859 12.1516 1.70105
324 1 -6.96711 12.4258 2.79546
321 2 -0.43306 8.84185 0.795827
326 2 -6.00159 12.8827 3.16142
333 2 -4.44534 12.3231 2.00453
328 1 -4.7951 9.93148 1.12113
329 2 -3.77372 9.87248 1.80855
323 2 -2.31356 8.65361 0.730396
354 3 0.148756 12.1417 1.13861
38 4 1.20371 11.1156 5.5469
139 3 0.816851 11.8544 7.06023
207 2 -1.25489 6.49305 7.37344
362 2 -4.95896 13.0975 4.2102
251 2 3.09752 7.70268 3.54855
20 4 -0.378999 13.2646 2.12186
327 2 -7.81707 13.139 3.12249
4 4 -6.00591 12.6848 12.5904
148 3 0.770013 11.9235 12.1077
238 2 -0.538177 8.03393 10.2126
18 4 -2.83909 8.68461 13.3887
19 4 -4.13856 10.6518 11.3447
12 4 -1.61085 6.47496 11.6993
26 4 0.00162103 12.7986 13.2025
211 2 -5.00295 11.0143 14.6844
37 4 -1.34569 10.7866 9.59696
39 4 2.65213 8.42667 12.9979
40 4 -0.982843 10.4427 15.0662
41 4 1.27684 10.6841 11.2136
68 1 -5.38667 11.1439 15.7189
75 1 1.03739 8.00944 8.60538
77 1 -0.226651 7.77367 11.2252
301 2 -3.99668 12.4409 14.983
105 3 -6.4396 11.8559 8.73267
109 3 -3.84189 7.91063 14.5768
110 3 -2.45841 7.31723 12.6548
111 3 -5.50557 10.289 10.5081
112 3 -3.84769 9.66827 12.5033
113 3 -4.58598 12.0308 12.3658
232 2 -0.091716 7.88417 8.76855
231 2 1.48084 8.59619 9.43516
237 2 0.75383 7.23713 11.2875
130 3 3.40152 6.47182 9.17447
136 3 -1.00315 12.331 8.93454
137 3 -2.70035 10.8694 10.5362
140 3 1.7961 7.11635 13.4609
142 3 -1.42636 9.51925 13.8498
143 3 0.210005 9.84796 16.039
144 3 -0.602539 12.0018 14.4933
145 3 -2.47554 10.5647 15.9864
146 3 -0.0699919 10.2702 10.4012
147 3 1.74123 9.51563 12.2751
236 2 -0.377365 8.61464 11.994
212 2 -5.78497 12.2073 15.9188
101 3 -2.17626 6.21366 15.7978
104 3 -3.39691 7.60303 8.49012
299 2 -2.18588 12.8429 14.6454
14 4 -3.70559 10.7524 16.8838
22 4 6.91331 2.16626 0.152334
42 4 9.26514 1.82147 4.05385
343 2 5.64461 6.28373 0.388019
46 4 11.95 1.83416 5.92988
50 4 10.3311 3.8882 2.15448
355 2 15.4575 0.955871 5.78599
52 4 10.831 3.83793 8.11382
72 1 6.79059 3.68989 1.30427
85 1 13.3862 2.95749 5.22032
86 1 8.87362 5.99658 4.44553
87 1 9.62536 4.42137 6.66053
124 3 7.06997 3.10792 7.37743
149 3 9.00033 0.429223 3.1548
150 3 8.15204 2.02885 5.22054
247 2 6.82932 6.49102 4.49057
155 3 10.7843 1.70812 4.86087
156 3 12.6141 0.495688 6.42382
164 3 9.25161 3.03292 3.03891
165 3 11.1305 2.85802 1.10645
166 3 11.3993 4.75729 3.20229
168 3 9.46022 4.86962 1.1417
170 3 11.5267 2.81568 7.10226
221 2 7.83978 4.17032 1.34213
222 2 6.53332 3.15126 2.31486
223 2 5.96854 4.51774 1.03601
246 2 6.4652 4.74538 3.81393
260 2 12.8188 3.2345 4.2348
261 2 14.3234 2.18811 5.0619
305 4 13.1646 0.00326274 1.92242
263 2 7.89984 6.1164 5.16862
264 2 9.20744 4.89153 4.50206
265 2 8.70682 6.37184 3.45737
266 2 8.96053 3.54153 6.56634
267 2 10.3678 4.57462 5.8116
268 2 9.04662 5.3747 6.97915
287 4 12.1828 6.13579 3.28978
80 1 5.99257 5.73017 4.07753
306 1 13.9434 1.75749 2.33734
307 3 12.1892 0.403492 0.706375
308 2 13.466 2.49203 1.50966
309 2 13.7373 2.18086 3.40928
51 4 9.02419 6.32309 0.111817
245 2 5.48844 6.12328 3.13931
295 2 11.9806 5.94093 1.06089
262 2 13.5494 3.83161 6.02585
205 2 15.1643 1.17219 3.85733
126 3 5.27503 5.07079 6.834
345 2 4.31592 6.24899 1.71516
152 3 14.2936 0.860735 8.43981
31 4 4.73611 5.86989 5.61108
363 2 15.0985 1.564 2.21309
29 4 5.96771 4.04825 8.09865
342 1 4.52967 6.0022 0.693895
270 2 9.79562 6.25343 7.69207
269 2 11.4816 6.26463 6.81191
358 2 14.9418 1.94439 0.596951
2 4 14.7006 2.08738 9.3549
5 4 14.7771 1.67484 15.1509
350 1 8.58297 5.26264 15.709
45 4 9.67957 1.66595 9.69542
351 2 9.05149 5.11352 14.7026
48 4 9.95661 1.51972 14.9169
49 4 12.3647 1.95549 11.4313
55 4 11.048 4.09033 13.2697
153 3 9.34827 0.612243 8.53518
73 1 7.07661 3.01077 12.6746
151 3 13.5644 1.95302 16.1176
353 2 8.22862 4.19439 16.1663
154 3 8.11787 1.5802 10.5817
157 3 14.6889 0.18597 14.48
158 3 9.38592 0.463159 13.8018
159 3 11.1208 0.861657 15.7427
160 3 8.83114 1.89537 16.048
161 3 13.4943 2.3537 10.3242
162 3 11.0032 1.47126 10.5656
163 3 12.9787 0.705754 12.3276
169 3 9.9277 3.2548 9.29951
47 4 13.651 -0.368298 13.2187
172 3 6.7234 5.04839 9.07486
175 3 10.4404 2.95001 14.195
176 3 12.0791 3.31679 12.165
177 3 11.9149 5.26096 13.9746
171 3 11.7441 5.08341 8.74237
180 3 9.78176 4.92738 12.5658
224 2 7.18256 4.03218 12.1436
225 2 8.01337 2.68199 13.2699
43 4 12.2932 1.22948 16.8341
248 2 5.70855 4.80551 11.4765
352 2 7.63721 6.01775 15.6281
13 4 8.91752 10.8428 3.81576
348 2 5.71076 11.2875 1.60292
54 4 10.0574 7.32434 5.36031
57 4 7.59806 8.8357 1.60525
58 4 3.88005 11.2383 3.88301
59 4 8.02065 8.79145 7.34056
61 4 6.49553 10.8581 5.7933
79 1 4.83971 7.68809 6.2016
131 3 3.28555 8.55467 0.343072
88 1 10.5433 6.82535 7.03374
90 1 6.04509 8.65819 2.67926
349 2 7.26988 12.2677 1.84194
188 3 8.92821 9.53272 8.39345
189 3 4.36825 12.214 8.3513
92 1 3.86684 9.39716 8.28378
174 3 11.5358 7.24991 4.46014
181 3 8.13793 7.37943 1.16553
182 3 8.8402 9.85274 2.66034
183 3 3.52697 10.1908 2.7515
184 3 4.31258 12.6588 3.17483
185 3 2.50462 11.6151 4.77254
186 3 7.61354 7.37715 7.98126
187 3 8.97943 8.33982 5.84416
294 2 11.1235 7.55974 1.55703
191 3 7.63129 10.9596 4.63658
192 3 5.00539 10.6867 4.80526
193 3 6.74162 9.6309 6.75383
194 3 6.48115 12.1534 6.70181
242 2 5.47231 8.21173 5.48447
243 2 5.2102 7.8099 7.23917
346 1 6.23929 12.2201 1.2957
34 4 2.56764 9.26682 1.65834
364 2 10.7066 7.95907 7.39062
274 2 6.00407 7.51081 3.25374
275 2 5.27309 8.65918 1.7991
276 2 5.87359 9.56214 3.43642
283 2 3.96378 10.9297 0.10225
278 2 4.13992 9.94418 7.26309
244 2 3.75467 7.7976 6.06166
347 2 6.24299 12.4084 0.155189
279 2 2.85715 8.80805 8.37963
44 4 5.27407 13.1046 7.44398
16 4 9.32008 10.5644 9.56743
33 4 4.48145 6.83143 10.6487
53 4 7.3495 6.53441 9.38115
60 4 3.94639 10.9677 9.29645
62 4 3.74903 10.6217 14.9013
63 4 6.42597 10.6657 11.1708
66 1 8.84944 11.3755 13.3975
74 1 6.04917 7.22336 15.3132
89 1 9.77448 7.86485 12.6087
93 1 5.25958 10.3062 16.0166
94 1 6.29956 9.37402 12.4598
141 3 3.85437 7.81303 11.751
56 4 9.88955 6.40406 11.4501
366 2 7.09672 9.55141 16.5775
173 3 5.98709 7.21994 10.1275
178 3 11.3334 6.5862 10.6761
206 2 8.87372 11.52 14.4987
190 3 2.3642 11.0192 10.1253
195 3 3.39328 9.266 14.1496
196 3 4.36904 11.9742 13.817
197 3 2.55136 11.0051 15.8801
198 3 7.83233 10.6089 10.4299
199 3 5.21165 10.6334 10.1382
200 3 6.28541 12.2989 12.2073
227 2 5.39124 7.90686 14.6772
229 2 6.90782 7.88984 15.9425
271 2 8.83827 7.74598 13.1688
272 2 9.69425 8.7454 11.8739
273 2 10.6536 7.94428 13.3179
228 2 6.41427 6.35765 14.6805
281 2 6.12064 11.0922 16.026
282 2 5.66582 9.16553 15.7206
179 3 8.60197 6.49287 10.4072
284 2 7.14837 8.68252 11.9853
285 2 5.33227 8.85647 12.3021
286 2 6.54201 9.66008 13.5283
210 2 9.94134 10.2567 15.9972
356 2 9.24821 10.3583 13.0336
357 2 7.81669 11.7365 12.9474
365 2 8.56177 8.22273 16.1851
11 4 12.3382 6.40986 15.1129
280 2 4.75966 8.89128 8.81132
28 4 4.47343 6.62328 16.4031
167 3 11.1911 6.26157 16.2641
91 1 8.18733 9.13989 16.8562
9 4 12.4268 6.35006 9.56076
277 2 8.98062 9.96587 16.8813
ITEM: TIMESTEP
100
ITEM: NUMBER OF ATOMS
366
ITEM: BOX BOUNDS xy xz yz pp pp pp
-8.2538999999999998e+00 1.6910190000000000e+01 -8.2538999999999998e+00
-6.4910000000000001e-01 1.3422400000000000e+01 7.8528999999999993e-01
0.0000000000000000e+00 1.6908999999999999e+01 -6.4910000000000001e-01
ITEM: ATOMS id type x y z
3 4 0.910771 2.76321 4.92401
8 4 -0.223595 4.29873 7.3739
361 2 3.55962 0.413391 0.746703
21 4 4.09028 2.02663 4.60178
239 2 2.41507 6.35482 4.42059
312 2 1.33774 0.272325 6.09493
338 1 2.71083 2.11289 0.206577
64 1 0.764178 3.7419 3.34974
65 1 -0.267806 1.15023 4.89449
67 1 -1.70324 5.39396 6.85177
70 1 3.90565 0.459987 3.63037
71 1 4.16259 3.0747 2.98744
78 1 2.85054 5.58838 5.23825
98 3 0.21701 3.59687 6.01122
114 3 2.65825 2.3171 5.14004
115 3 7.2338 1.08206 1.14821
118 3 5.42544 1.94577 5.40896
119 3 7.42567 0.445849 6.9612
220 2 4.79963 4.04609 3.27231
125 3 1.27735 5.4355 7.69912
216 2 4.96215 -0.0194665 3.29841
201 2 0.288342 4.80187 3.59574
202 2 -0.0372596 3.01701 2.85304
203 2 1.73167 3.81084 2.75098
204 2 0.407439 0.205865 4.88666
341 2 3.21431 2.53626 1.24882
339 2 2.02806 1.26581 0.401551
290 2 -1.67594 6.40644 4.14738
209 2 -1.82092 5.46915 5.62596
342 1 4.36151 5.60946 0.479729
217 2 3.18468 0.552069 2.67189
218 2 2.99267 3.30215 2.80971
219 2 4.59662 2.43369 2.2197
311 2 0.345805 0.234681 7.73936
344 2 4.01894 4.6835 0.112399
241 2 3.08493 4.47277 4.78016
362 2 3.40582 -0.132199 4.49583
288 1 -2.30548 5.64574 3.63196
291 2 -1.92511 5.34703 2.51313
292 2 -2.4728 4.61802 4.2294
359 2 -1.12934 3.83203 0.158555
310 1 1.3003 0.561344 7.18633
240 2 2.1757 5.57776 6.22137
313 2 1.49235 1.68699 7.41279
317 1 -1.40942 4.83392 0.646057
318 2 -0.668817 5.12182 1.45662
319 2 -2.48906 4.81321 1.10554
208 2 -2.58342 4.92384 7.41788
345 2 4.11849 5.81382 1.58767
207 2 -1.22333 6.36261 7.38373
358 2 -1.16031 1.91634 0.473973
6 4 1.23883 1.9078 10.9339
120 3 6.20122 1.6411 16.4326
334 1 2.19269 0.63417 14.2868
10 4 0.138223 3.79905 13.1483
315 2 0.795663 2.149 16.2605
24 4 4.09278 1.97231 9.67629
336 2 2.69642 1.67946 14.0615
27 4 6.94396 1.51403 11.5494
32 4 1.88284 5.86374 14.4083
76 1 1.28655 5.26626 10.3183
81 1 4.51437 5.13879 11.6871
95 3 0.0855575 1.45335 9.95125
96 3 1.75944 0.483817 11.6
128 3 3.46037 5.74955 15.2236
99 3 -0.831698 2.99035 14.1954
100 3 0.727191 2.84732 12.1139
335 2 1.04371 0.671855 14.2908
102 3 -2.23417 5.87031 10.1163
103 3 -0.740663 5.05751 12.4229
116 3 3.76306 0.658473 8.8529
117 3 2.66059 2.67564 10.2348
121 3 5.15253 1.68053 10.904
122 3 7.11353 0.235473 12.561
123 3 4.89465 3.08559 8.87666
127 3 1.57716 4.43928 13.7869
340 2 2.87429 2.31794 16.5354
233 2 1.90321 4.28498 10.2639
234 2 0.21717 5.10437 10.1166
235 2 1.52245 5.89789 11.3656
249 2 3.72282 4.4056 11.2337
250 2 4.18557 5.56176 12.7006
296 4 4.84574 1.57481 15.7211
297 1 4.95614 0.0496997 14.5675
298 1 4.4462 3.27318 14.6555
7 4 -0.746901 5.77635 16.4301
300 2 4.58723 0.684682 13.6702
337 2 2.64112 0.0778206 15.2246
302 2 4.10434 3.0696 13.6695
303 2 5.34319 3.96553 14.6079
304 2 3.6229 3.77257 15.2464
226 2 5.98718 3.105 13.3638
314 1 0.0459847 1.32076 16.3436
30 4 1.87711 6.28768 8.89526
316 2 0.493679 0.372673 16.0554
129 3 0.671163 5.99021 15.5713
101 3 -2.19402 5.99173 15.8476
299 2 6.05142 -0.278382 14.4397
97 3 -0.762188 3.33792 8.56321
12 4 -1.56505 6.19085 11.6163
332 1 -4.04271 12.8754 1.03103
15 4 -2.99861 9.05786 7.55759
17 4 -4.50682 11.0931 5.90131
293 2 -3.32237 7.85031 1.42759
35 4 -1.82269 11.2734 4.00977
251 2 2.6797 8.05808 4.01995
69 1 -2.23448 8.16341 6.09914
82 1 1.88958 7.88588 3.16057
83 1 -1.99681 9.77103 2.82826
84 1 1.47734 9.26103 5.86208
106 3 -5.67774 10.9475 4.701
107 3 -4.18617 9.88962 6.95952
108 3 -4.71816 12.4607 6.72948
132 3 -1.83971 12.453 3.00428
133 3 -3.08562 11.1823 5.09597
134 3 1.10787 9.79517 1.0219
138 3 -0.341364 11.0104 4.81569
213 2 -2.44094 8.7659 5.13152
214 2 -2.75797 7.17917 6.01751
215 2 -1.17912 8.04123 6.28899
230 2 1.26742 8.52821 7.80689
135 3 -1.78762 9.89553 8.26568
331 2 -5.8566 9.89061 1.66419
289 1 -4.24103 7.17457 1.7337
252 2 1.86698 6.89344 2.54018
253 2 0.800734 8.35102 3.28354
254 2 -1.98452 10.0959 1.76331
255 2 -2.94346 9.27173 3.21932
256 2 -1.07204 9.16294 3.01146
36 4 0.541082 11.121 0.0424732
258 2 1.76219 8.90889 4.8341
259 2 0.571121 8.77315 6.26229
23 4 0.100317 13.0039 7.93515
1 4 -5.43172 13.1044 7.99941
360 2 -2.91563 13.0843 0.972477
320 1 -1.40185 8.06418 0.662725
330 2 -4.82266 9.16447 0.208395
322 2 -1.54876 7.32124 1.60658
325 2 -7.16449 12.0582 1.80247
324 1 -7.17052 12.6073 2.89783
321 2 -0.480591 8.70036 0.83495
326 2 -6.12565 13.1819 3.16137
333 2 -4.42632 12.2029 1.93662
328 1 -4.79755 9.89838 1.09065
329 2 -3.81263 9.82598 1.78556
323 2 -2.33658 8.60363 0.297129
354 3 0.0533767 12.269 1.03844
38 4 1.06686 11.1252 5.5647
139 3 0.888386 11.8656 7.04461
257 2 2.43312 9.26433 6.6544
20 4 -0.470299 13.2963 2.06889
34 4 2.41359 9.11304 1.77471
279 2 2.8709 8.73985 8.36469
4 4 -5.92562 12.9068 12.7034
14 4 -3.6412 10.7084 16.8222
238 2 -0.426998 7.91123 10.2029
18 4 -2.92083 8.57062 13.3651
19 4 -4.15808 10.7886 11.3877
104 3 -3.59438 7.73207 8.73997
26 4 0.194268 12.8968 13.2722
211 2 -5.04021 10.9839 14.6717
37 4 -1.48986 10.9358 9.67486
39 4 2.70332 8.43429 12.8604
40 4 -0.97858 10.483 14.9232
41 4 1.05978 10.7055 11.2737
68 1 -5.27715 11.2095 15.7814
75 1 1.05366 7.97893 8.79559
77 1 -0.170176 7.46256 11.2925
301 2 -4.0481 12.5971 14.9239
105 3 -6.37495 12.0119 8.84079
109 3 -3.79719 7.8742 14.5958
110 3 -2.4226 7.3331 12.4369
111 3 -5.46813 10.2041 10.4655
112 3 -3.87124 9.62595 12.4823
113 3 -4.55459 12.124 12.2819
232 2 -0.111035 7.82085 8.87427
231 2 1.49112 8.6225 9.63501
237 2 0.947234 7.15678 11.3531
130 3 3.40697 6.5347 9.40016
136 3 -0.809284 12.296 9.07355
137 3 -2.89274 11.0988 10.4286
140 3 1.92647 7.12428 13.4656
142 3 -1.55663 9.35511 13.867
143 3 0.141995 9.82546 15.9964
144 3 -0.389392 11.9016 14.3542
145 3 -2.37613 10.6839 15.9588
146 3 -0.286211 10.2842 10.4956
147 3 1.62894 9.41049 12.1021
236 2 -0.479953 8.21416 12.0995
212 2 -5.70309 12.2974 15.8587
210 2 -6.01009 10.4173 16.1824
22 4 6.86167 2.3626 0.210114
42 4 9.23399 1.83237 3.993
343 2 5.52612 5.84912 0.164506
46 4 11.8974 1.75966 6.01891
50 4 10.2543 3.8269 2.01657
355 2 15.2252 1.23845 5.85779
52 4 10.8253 3.79036 8.09285
72 1 6.86278 3.80469 1.40716
85 1 13.2279 2.88106 5.1505
86 1 8.95874 6.11825 4.20041
87 1 9.81568 4.44396 6.63718
124 3 6.97182 3.00304 7.30544
149 3 8.84203 0.426769 3.16582
150 3 8.11378 2.26779 5.17561
270 2 9.95354 6.25396 7.75105
155 3 10.7378 1.64351 4.96996
156 3 12.7214 0.432409 6.21806
164 3 9.23369 3.07144 3.05171
165 3 11.204 2.76194 1.36739
166 3 11.2916 4.79537 3.01596
168 3 9.60595 4.90932 1.01294
170 3 11.5921 2.53417 7.43046
221 2 7.90251 4.24034 1.1834
222 2 6.84419 3.15815 2.38211
223 2 5.95035 4.52959 1.17071
246 2 6.26997 4.68111 3.78823
260 2 12.6677 3.02535 4.20628
261 2 14.198 2.22415 5.00685
305 4 13.1008 0.0157963 1.93508
263 2 7.95972 6.25874 4.59788
264 2 9.32118 5.0931 4.22607
265 2 9.00895 6.49178 3.07193
266 2 9.18692 3.65599 6.14669
267 2 10.6483 4.60372 5.87959
268 2 9.17899 5.40902 6.99596
287 4 11.9664 6.20852 3.2786
80 1 5.75617 5.70674 3.91534
306 1 14.022 1.74927 2.32012
307 3 12.0423 0.258482 0.737749
308 2 13.5878 2.48186 1.55949
309 2 13.7953 2.12554 3.39576
51 4 9.10371 6.42887 0.157808
245 2 5.14407 6.06069 3.05282
295 2 11.8827 6.2205 1.05569
262 2 13.5192 3.85068 5.77677
205 2 15.2078 1.25681 3.88359
126 3 5.21073 4.92836 6.73856
29 4 5.95178 3.94792 8.11211
152 3 14.3033 0.78839 8.32257
31 4 4.65312 5.82514 5.59569
363 2 15.1397 1.50217 2.17693
247 2 6.57889 6.49991 4.15332
43 4 11.555 1.76928 0.00468386
25 4 7.06493 1.88615 6.25278
2 4 14.78 1.9931 9.24332
5 4 14.7314 1.57789 15.0682
350 1 8.83473 5.42482 15.5266
45 4 9.52501 1.68163 9.7613
351 2 9.57341 5.64599 14.692
48 4 10.0288 1.69921 14.9266
49 4 12.3109 2.02368 11.3602
55 4 11.203 4.08605 13.3704
153 3 9.45732 0.537393 8.63039
73 1 7.0535 2.89402 12.7982
151 3 13.6422 1.84114 16.1805
353 2 8.57721 4.37216 15.6426
154 3 8.22122 1.65313 10.6739
157 3 14.6181 0.193061 14.2297
158 3 9.42814 0.691683 13.9277
159 3 11.1523 1.04686 15.8283
160 3 8.77995 1.96389 16.0176
161 3 13.609 2.43734 10.2747
162 3 10.9937 1.47299 10.695
163 3 12.9822 0.804299 12.3436
169 3 9.66238 3.23109 9.07081
47 4 13.5788 -0.439803 13.1609
172 3 6.73932 4.98054 9.13417
175 3 10.405 3.1122 14.25
176 3 11.9881 3.28719 12.1574
177 3 12.0032 5.13648 14.2889
171 3 11.9159 5.0875 8.51436
180 3 10.0975 5.14186 12.4787
224 2 7.38743 3.74699 12.2006
225 2 7.90058 2.60148 13.4776
248 2 5.57941 4.69452 11.6459
352 2 7.80676 6.08413 15.4923
13 4 8.97184 10.9898 3.82861
348 2 5.73499 11.208 1.30712
54 4 10.0238 7.39442 5.32304
57 4 7.57432 8.84319 1.55401
58 4 3.76997 11.2898 3.91008
59 4 8.05463 8.70996 7.34904
61 4 6.40389 10.8438 5.84593
79 1 4.7977 7.68265 6.17769
131 3 3.22692 8.13183 0.55503
88 1 10.5554 6.97723 6.99439
90 1 5.86835 8.61642 2.4244
349 2 7.09066 12.4576 1.80398
188 3 9.01283 9.38781 8.41673
189 3 4.26055 12.1898 8.31485
92 1 3.89853 9.38169 8.11335
174 3 11.3573 7.26061 4.3586
181 3 8.1634 7.38384 1.07577
182 3 8.82036 9.73392 2.51306
183 3 3.31779 10.2449 2.56903
184 3 4.30628 12.6156 3.23104
185 3 2.35691 11.4865 4.69323
186 3 7.62058 7.25772 7.98534
187 3 9.05368 8.48968 5.89456
294 2 10.9119 7.74821 1.85836
191 3 7.68405 11.0655 4.73257
192 3 4.95173 10.6234 4.97813
193 3 6.75751 9.61225 6.85505
194 3 6.45372 12.1705 6.6249
242 2 5.18058 8.45133 5.41697
243 2 5.27756 7.68382 7.25643
346 1 6.15698 12.3045 1.10113
269 2 11.595 6.53492 6.60184
364 2 10.6697 7.99813 7.45034
274 2 5.80314 7.43106 2.9498
275 2 5.14515 8.67996 1.52473
276 2 5.66344 9.40949 3.14574
283 2 3.78739 10.8308 0.0868646
278 2 3.9302 10.031 7.12643
244 2 3.60762 7.72223 6.24283
277 2 8.18233 10.7224 0.0440168
327 2 8.02574 13.2158 3.12775
44 4 5.29828 13.0978 7.44266
280 2 4.89985 8.79306 8.34514
16 4 9.39886 10.5509 9.46993
33 4 4.47707 6.6847 10.631
53 4 7.22962 6.51146 9.39953
60 4 3.89672 10.8811 9.32804
62 4 3.66255 10.6598 14.8921
63 4 6.57261 10.7506 11.1678
66 1 9.10705 11.4536 13.3808
74 1 6.10687 7.11624 15.2734
89 1 9.94479 7.92131 12.6043
93 1 5.21233 10.1489 15.9469
94 1 6.46166 9.12295 12.17
141 3 3.74108 7.88261 11.8829
56 4 9.95974 6.36059 11.4987
366 2 7.07466 9.53794 16.4737
173 3 6.05961 7.23957 10.2133
178 3 11.3138 6.46527 10.7568
206 2 9.0614 11.3955 14.5225
190 3 2.38082 10.9053 10.1559
195 3 3.48994 9.28929 14.0454
196 3 4.25523 11.9384 14.093
197 3 2.56985 10.9743 16.0676
198 3 8.08765 10.7603 10.4014
199 3 5.17504 10.62 10.274
200 3 6.28005 11.8929 12.2565
227 2 5.45219 7.78733 14.6609
229 2 6.86805 7.77868 15.9021
271 2 8.99005 7.91427 13.1317
272 2 10.1481 8.80412 11.8808
273 2 10.817 7.76058 13.3228
228 2 6.58884 6.24117 14.657
281 2 5.98013 10.9377 16.0265
282 2 5.49711 9.06378 15.6968
179 3 8.65373 6.48012 10.5417
284 2 7.18607 8.31989 11.7415
285 2 5.39253 8.78501 12.1525
286 2 6.89255 9.56726 13.1895
148 3 0.955664 12.0327 12.1404
356 2 9.52114 10.4993 12.9402
357 2 7.98582 11.6499 13.0193
365 2 8.62028 8.29101 16.1723
11 4 12.4171 6.41104 15.2526
9 4 12.3958 6.41223 9.6149
28 4 4.53981 6.42906 16.3017
167 3 11.1978 6.42368 16.4771
91 1 8.15182 9.15816 16.8246
347 2 7.00391 12.0373 16.8575
ITEM: TIMESTEP
200
ITEM: NUMBER OF ATOMS
366
ITEM: BOX BOUNDS xy xz yz pp pp pp
-8.2538999999999998e+00 1.6910190000000000e+01 -8.2538999999999998e+00
-6.4910000000000001e-01 1.3422400000000000e+01 7.8528999999999993e-01
0.0000000000000000e+00 1.6908999999999999e+01 -6.4910000000000001e-01
ITEM: ATOMS id type x y z
3 4 0.961988 2.73962 4.86413
8 4 -0.236886 4.41897 7.30398
361 2 3.64737 0.402878 0.655846
21 4 4.09616 2.04719 4.51341
344 2 3.56963 4.80297 0.511812
312 2 1.43196 0.658947 6.37093
338 1 2.70869 2.12973 0.28043
64 1 0.963222 3.68878 3.28159
65 1 -0.117265 1.06712 4.78587
67 1 -1.71802 5.41543 6.82388
70 1 3.8792 0.399408 3.61183
71 1 4.1873 3.14523 2.94104
78 1 2.77679 5.52656 5.19346
98 3 0.347112 3.63274 6.04474
114 3 2.6838 2.29346 5.13297
115 3 7.07506 1.21039 1.36928
118 3 5.43152 1.79451 5.3254
119 3 7.37183 0.360514 6.90101
220 2 4.78945 4.15303 3.15871
125 3 1.17545 5.54859 7.72418
25 4 6.91088 1.78062 6.23092
201 2 0.651696 4.74677 3.78448
202 2 0.0378985 3.07762 2.84629
203 2 1.8517 3.80944 2.47062
204 2 0.659017 0.28207 4.57119
341 2 3.19935 2.4343 1.33181
339 2 2.18695 1.11301 0.192612
290 2 -1.58799 6.41498 4.20998
209 2 -1.85802 5.50659 5.67413
342 1 4.46407 5.50034 0.33067
217 2 3.36774 0.777815 2.68602
218 2 3.0758 3.31742 2.67372
219 2 4.69806 2.53952 2.15295
311 2 0.430978 0.232098 7.86589
208 2 -2.48327 4.76634 7.34748
241 2 3.00584 4.55674 4.62207
31 4 4.58734 5.8436 5.52065
288 1 -2.27187 5.6281 3.71538
291 2 -1.93651 5.34333 2.59778
292 2 -2.37846 4.64917 4.33408
359 2 -1.03969 3.74191 0.279303
310 1 1.37674 0.730919 7.49955
240 2 2.18409 5.41231 6.15255
313 2 1.5766 1.77544 7.87302
317 1 -1.38863 4.80318 0.799267
318 2 -0.637628 5.08766 1.59978
319 2 -2.39874 4.71031 1.19733
207 2 -1.48879 6.41009 7.36438
239 2 2.36983 6.4613 4.50216
216 2 4.9597 -0.0435564 3.31166
6 4 1.2194 1.79878 10.9408
120 3 6.08235 1.99209 16.6021
334 1 2.30719 0.772761 14.2047
10 4 0.151317 3.84965 13.0658
315 2 0.86194 1.90416 16.1165
24 4 4.25993 2.0337 9.81506
336 2 2.84371 1.76039 14.0438
27 4 6.88222 1.55517 11.6702
32 4 1.84954 5.97108 14.5437
76 1 1.2611 5.13598 10.3119
81 1 4.67756 5.17795 11.6307
95 3 0.182781 1.42949 9.86629
96 3 1.64404 0.336601 11.5456
128 3 3.19885 6.02996 15.4363
99 3 -0.655983 2.89191 14.2782
100 3 0.572154 2.83042 11.9647
335 2 1.17895 1.03787 14.3675
102 3 -2.22465 5.87608 10.1793
103 3 -0.821914 4.93016 12.3532
116 3 3.72635 0.737989 8.92183
117 3 2.82094 2.58383 10.3412
121 3 5.39389 1.74646 11.0489
122 3 7.25124 0.238254 12.5239
123 3 4.74856 3.214 8.79539
127 3 1.55219 4.51747 13.632
340 2 2.95987 2.40563 16.7226
233 2 1.92326 4.18115 10.3648
234 2 0.210179 4.85997 10.1606
235 2 1.37437 5.77027 11.2879
249 2 3.71879 4.50321 11.3729
250 2 4.75131 5.51769 12.703
296 4 4.83357 1.67682 15.7776
297 1 5.18544 0.0855829 14.895
298 1 4.28267 3.18652 14.4241
7 4 -0.708021 5.83695 16.4876
300 2 5.0438 0.599737 13.853
337 2 2.68248 0.140896 15.1091
302 2 4.14863 3.03825 13.2562
303 2 5.12419 3.87141 14.6212
304 2 3.33504 3.56053 14.9479
226 2 6.08107 3.15468 13.4341
314 1 0.0638278 1.1921 16.4057
30 4 1.8321 6.23407 8.927
97 3 -0.917406 3.41575 8.47974
129 3 0.567428 5.98584 15.5381
101 3 -2.12701 6.02331 15.8602
299 2 6.20295 -0.34691 14.9998
12 4 -1.62673 6.10519 11.6771
316 2 0.290431 0.181645 16.0425
332 1 -3.89511 12.8521 0.908264
15 4 -2.9806 9.05294 7.62162
17 4 -4.44851 11.1778 5.72755
293 2 -3.22011 8.01423 2.00388
35 4 -1.73478 11.263 3.93525
251 2 2.58318 8.14322 3.93338
69 1 -2.24507 8.23887 6.02258
82 1 1.81509 7.96556 3.18535
83 1 -2.10354 9.52053 3.09666
84 1 1.28476 9.34485 6.05231
106 3 -5.81798 11.0185 4.74413
107 3 -4.23013 9.90443 6.82341
108 3 -4.7643 12.4878 6.57139
132 3 -1.7798 12.4786 2.8246
133 3 -3.15689 11.4196 4.76542
134 3 1.1533 9.74924 1.08799
138 3 -0.424501 11.1506 4.69199
213 2 -2.16946 8.75158 5.05475
214 2 -2.92533 7.33283 5.96631
215 2 -1.23118 8.00753 6.48165
230 2 1.09629 8.43051 7.87151
135 3 -1.90016 10.0008 8.34762
331 2 -5.77128 9.98825 1.72334
289 1 -4.09653 7.25599 1.87322
252 2 1.82834 6.9107 2.80046
253 2 0.802346 8.53432 3.35881
254 2 -1.88446 9.88914 2.03507
255 2 -3.12132 8.99299 3.11809
256 2 -1.32723 8.8543 3.46438
1 4 -5.38951 13.0628 8.04903
258 2 1.55343 8.84057 4.95745
259 2 0.314536 9.10927 6.44383
23 4 0.122994 13.0274 7.93517
34 4 2.40753 9.17486 1.75263
360 2 -2.84532 13.1538 0.897444
320 1 -1.23702 7.91463 0.777811
330 2 -4.79288 9.254 0.223391
322 2 -1.46724 7.22963 1.7498
325 2 -7.03915 11.8812 1.54489
324 1 -7.09454 12.2996 2.6098
321 2 -0.257074 8.4889 0.875288
326 2 -6.08039 12.9036 2.9695
333 2 -4.23241 12.2852 1.8939
328 1 -4.74875 9.98666 1.17208
329 2 -3.77718 9.84084 1.86834
323 2 -2.11352 8.63246 0.524304
354 3 0.105682 12.2204 1.05774
38 4 1.10516 11.207 5.60154
20 4 -0.52896 13.2952 2.09907
257 2 2.16779 9.28188 6.81816
362 2 -5.01796 13.1537 4.22528
279 2 2.72824 8.86726 8.49405
14 4 -3.67395 10.7684 16.7958
238 2 -0.491132 8.14984 10.5803
18 4 -2.83702 8.54408 13.3902
19 4 -4.11014 10.7281 11.449
104 3 -3.24184 7.60991 8.51366
26 4 0.24533 12.8115 13.1875
211 2 -4.93921 10.9905 14.5233
37 4 -1.50154 10.9745 9.62586
39 4 2.59865 8.52253 12.8898
40 4 -1.03191 10.3984 14.9685
41 4 1.16582 10.6145 11.2937
68 1 -5.25759 11.1792 15.5483
75 1 1.01823 7.92671 8.97227
77 1 -0.334134 7.49821 11.4462
301 2 -3.9939 12.6605 15.1533
105 3 -6.06836 11.8859 8.94433
109 3 -3.72626 7.89681 14.5963
110 3 -2.45778 7.1612 12.5865
111 3 -5.49299 10.1711 10.7422
112 3 -3.6125 9.5334 12.3562
113 3 -4.50342 12.1445 12.3923
232 2 -0.0403365 7.78399 9.21454
231 2 1.47867 8.52247 9.70396
237 2 0.753342 6.94513 11.4517
130 3 3.33194 6.51062 9.22071
136 3 -0.917394 12.342 8.93765
137 3 -2.98364 11.1311 10.3847
140 3 1.90757 7.19876 13.4858
142 3 -1.36703 9.21249 13.8605
143 3 0.106886 9.75293 16.0147
144 3 -0.431517 11.7522 14.2431
145 3 -2.30875 10.6446 15.9593
146 3 -0.438316 10.3818 10.6384
147 3 1.56936 9.37513 12.1266
236 2 -0.38037 8.12131 12.3812
212 2 -5.79858 12.1855 15.6996
4 4 -5.96803 12.9001 12.6722
36 4 1.31933 10.3568 16.9033
22 4 6.92493 2.48279 0.415966
42 4 9.21131 1.83274 3.91647
363 2 15.1199 1.27358 2.24212
46 4 11.8634 1.7353 5.89174
50 4 10.3066 3.84278 2.01286
355 2 15.5441 0.94144 5.78451
52 4 10.8848 3.71324 8.03937
72 1 6.97096 3.88329 1.56054
85 1 13.33 2.8268 5.25468
86 1 8.66625 6.28798 4.40896
87 1 9.8348 4.24931 6.47429
124 3 7.09294 2.87733 7.38352
149 3 8.89008 0.456618 3.19426
150 3 7.94312 2.2214 5.10576
270 2 9.87894 6.18257 7.6329
155 3 10.5658 1.77537 4.7765
156 3 12.6379 0.340877 6.06575
164 3 9.14817 3.05699 2.90054
165 3 11.2244 2.81405 1.28873
166 3 11.1671 4.91305 3.0789
168 3 9.66669 4.83165 0.897981
170 3 11.6001 2.48959 7.26658
221 2 7.99752 4.40742 1.31634
222 2 6.97662 3.50935 2.63556
223 2 6.00045 4.50875 1.10224
246 2 6.3767 4.82035 3.87065
260 2 12.7868 3.08711 4.22965
261 2 14.3143 2.20302 5.07258
345 2 4.96338 5.8237 1.31923
263 2 7.62323 6.38836 4.95337
264 2 9.11197 5.29599 4.63683
295 2 12.1897 6.33223 1.16248
266 2 9.04083 3.43463 6.08468
267 2 10.5512 4.64801 5.68161
268 2 9.27207 5.15049 6.88848
287 4 12.0287 6.24888 3.41476
80 1 5.86662 5.78705 3.72759
306 1 13.9891 1.5329 2.35485
307 3 11.9865 0.239508 0.701738
308 2 13.6968 2.22689 1.46217
309 2 13.7396 2.0133 3.44214
51 4 9.2033 6.45618 0.0504603
245 2 5.45558 5.78418 2.61623
265 2 8.65462 6.5675 3.37606
262 2 13.6031 3.79906 5.86744
205 2 15.2525 1.21283 3.91207
126 3 5.28389 4.92239 6.76302
29 4 5.93198 4.01654 7.97718