ITEM: TIMESTEP
0
ITEM: NUMBER OF ATOMS
371
ITEM: BOX BOUNDS xy xz yz pp pp pp
-8.7624900000000014e+00 1.7599724999999999e+01 -8.7624900000000014e+00
0.0000000000000000e+00 1.3020299999999999e+01 4.5431099999999996e-01
0.0000000000000000e+00 1.8640300000000000e+01 2.0540000000000000e-01
ITEM: ATOMS id type x y z
360 2 -2.75241 4.38232 1.51376
2 2 2.36424 1.42282 2.82411
345 2 7.33175 0.413704 9.24338
324 2 0.74041 0.484853 8.05783
68 2 1.86293 1.23456 7.03312
7 4 0.808722 2.46046 6.27766
11 4 0.296673 4.20947 2.4401
14 4 -0.867162 4.68745 7.74544
30 4 5.59713 3.03086 1.73298
31 4 1.5548 6.30346 4.16118
72 2 -2.31482 3.8831 8.18639
33 4 5.57208 4.38203 8.26453
35 4 4.24061 5.80147 5.658
5 4 -1.17364 1.97303 4.02275
70 2 1.38431 3.38835 1.34957
237 3 3.60822 0.885526 9.18036
102 2 2.57445 3.62079 5.26526
103 2 3.00172 1.83374 5.50969
104 2 3.21882 3.06992 6.95005
130 2 4.58034 2.08248 3.8164
131 2 4.11047 1.02001 2.27786
132 2 3.46533 2.8565 2.4462
250 3 4.79428 5.16707 7.07321
192 1 2.68809 2.7995 6.04718
202 1 4.22134 2.06975 2.70391
223 3 -0.0344495 1.69893 5.21651
225 3 -0.609615 2.95242 2.91688
226 3 -0.519475 5.34319 1.68816
227 3 0.226467 3.57543 7.29574
229 3 -1.1986 5.79534 6.56967
243 3 5.9506 2.13502 0.287909
244 3 1.13954 4.89354 3.60074
245 3 4.96071 4.4317 1.44686
246 3 4.64437 3.32297 8.95541
249 3 2.76027 6.15582 5.22774
32 4 4.35627 5.83518 0.755693
247 3 -0.345216 5.52398 8.98501
1 4 1.41874 0.151219 2.16161
3 2 -0.0537646 0.79773 1.75056
329 2 -1.56235 2.50482 0.552701
136 2 4.96719 4.80358 4.48489
139 2 2.31343 4.87385 9.11584
335 2 7.93954 1.04786 2.9265
10 4 1.81864 1.74351 11.6051
17 4 0.183346 4.67812 15.4673
73 2 -2.37171 6.08558 12.4229
24 4 6.85325 1.55337 17.5354
26 4 4.25307 2.27392 10.0283
252 3 5.99595 3.24957 13.437
28 4 4.28115 1.99317 16.0804
29 4 6.48115 2.17982 12.4005
253 3 1.17979 5.40046 16.5394
36 4 5.57402 4.2268 14.6992
37 4 2.16835 6.31939 17.6193
251 3 4.3445 3.62193 15.5377
328 2 0.129757 1.65276 18.0659
254 3 3.22599 5.66506 18.6093
78 2 3.4678 2.18077 17.545
110 2 -0.714859 2.01519 10.887
111 2 0.321814 3.4527 11.8903
112 2 -0.419548 1.82639 12.688
113 2 0.557815 2.89527 13.6423
114 2 0.456834 2.32388 15.4309
115 2 1.97729 3.28243 14.7576
69 2 0.648995 0.864963 10.5474
140 2 2.55492 5.50455 10.9241
326 2 -0.0752189 3.66028 17.9374
142 2 2.91014 4.55234 13.8511
143 2 2.83286 4.16144 12.0063
144 2 1.93832 5.72642 12.7275
195 1 0.00906289 2.25647 11.7596
196 1 0.89147 3.12704 14.7207
205 1 2.29621 5.77952 9.7408
206 1 2.84209 4.98748 12.8111
224 3 2.12097 1.05154 12.9744
230 3 -1.29073 4.02513 16.1144
231 3 -0.116312 5.76819 14.1457
18 4 -0.701965 6.51321 12.8322
238 3 2.69413 2.82096 10.9292
239 3 3.30207 0.998464 15.3863
240 3 5.68887 1.37672 16.3443
241 3 5.44918 1.88167 11.0694
242 3 7.32822 0.881131 13.0823
327 1 -0.583542 2.61018 18.1497
38 4 4.16772 6.33706 12.8301
71 2 -1.56708 6.56686 17.9596
331 2 -5.40604 9.43847 4.3193
313 1 -4.63346 10.6615 0.426957
13 4 -0.691567 6.72249 0.82404
16 4 -2.16288 7.03175 6.8212
20 4 -3.25405 8.46277 9.15531
21 4 -3.62003 10.4628 6.89222
325 1 -7.49804 12.3098 7.93511
40 4 0.84657 9.70986 4.37281
42 4 1.56267 9.07386 8.19865
74 2 -4.33991 9.28396 5.76591
79 2 0.230239 7.09694 4.95866
80 2 -1.12257 8.34107 6.4682
337 2 -2.65472 12.4495 0.551094
84 2 -0.00790369 9.55775 5.97532
86 2 0.646647 10.4159 7.73697
87 2 2.05891 8.44131 6.77198
105 2 -5.22053 8.71368 2.82128
106 2 -3.55286 7.96085 2.16126
107 2 -3.65086 9.2563 3.6579
108 2 -1.3989 8.0613 1.74785
262 3 0.710438 8.02862 9.00444
323 2 -7.00564 12.1059 6.91923
370 3 -7.58475 11.8189 3.25279
145 2 0.0801604 8.59963 3.09628
146 2 -1.6148 9.59539 4.429
147 2 -1.39549 7.75601 4.64817
12 4 -4.40796 6.95697 4.36612
149 2 -2.63849 11.2917 5.0473
150 2 -1.18495 11.3082 6.44377
193 1 -4.16154 8.39288 3.13483
194 1 -2.58031 7.24054 0.540399
334 1 -6.0242 10.0921 5.07487
207 1 -0.845677 8.71465 4.53901
208 1 -2.30847 11.5803 6.16852
228 3 -3.22326 7.08879 5.64832
233 3 -2.91782 6.88439 8.58828
234 3 -3.00173 9.68002 8.04015
235 3 -4.79056 11.4685 7.50845
312 2 -5.17499 9.63559 0.618858
257 3 1.93499 7.38396 3.00001
259 3 0.806497 11.1212 3.64347
333 2 -5.7056 11.1738 5.29671
344 2 -1.05334 11.0909 8.0871
4 3 -6.79764 12.4801 0.843111
148 2 -2.60522 12.6961 6.39881
129 2 -1.29808 12.6181 1.38892
346 1 -0.415563 11.9328 8.47017
6 4 -5.65437 12.23 8.7376
330 2 -2.9232 8.2118 0.0336485
310 2 -4.42323 11.1493 1.46898
128 2 -1.26425 12.0207 3.28528
201 1 -0.807387 12.7679 2.53193
109 2 -3.34998 6.59113 1.01645
347 2 0.386476 11.6784 9.2888
83 2 2.44632 9.02086 4.55349
88 2 -1.97024 11.5718 9.57385
22 4 -3.68996 11.0041 13.4229
121 2 -2.77436 7.88919 12.3736
43 4 -1.88359 10.4227 10.9312
44 4 2.63454 9.06122 13.7656
45 4 1.06453 10.9057 11.7086
75 2 -2.56543 12.0841 15.0198
311 2 -3.27587 10.7989 18.4668
99 2 -5.46471 9.98505 9.97196
100 2 -6.92976 11.3431 10.3293
101 2 -5.17291 11.5615 11.1404
119 2 -1.04377 8.66809 13.0266
120 2 -2.44508 7.93681 14.1937
125 2 -1.73586 10.212 15.0481
126 2 -3.78027 9.42891 14.2278
248 3 0.172891 6.56507 11.5171
151 2 3.15023 8.31507 16.669
127 2 -3.42257 10.4289 15.8959
154 2 0.804077 7.51544 14.5896
155 2 0.27793 9.27312 14.5583
156 2 1.51669 8.68913 15.8508
191 1 -5.7325 11.1496 10.2329
198 1 -2.03579 7.82061 13.1874
200 1 -2.69783 10.7368 15.0783
209 1 3.34859 7.24362 16.5221
210 1 1.10959 8.57852 14.8151
232 3 -4.95396 8.35628 9.73211
236 3 -5.10201 11.6783 13.6761
265 3 3.30539 7.68089 13.2975
263 3 -2.33897 8.96573 10.4402
264 3 -2.87425 10.9487 12.0991
266 3 -0.34215 10.4954 11.3526
339 1 -1.63427 12.6079 18.1662
315 3 -6.38401 11.0774 17.2001
316 3 -7.40531 12.1085 15.0033
319 2 -0.987557 11.3966 14.3009
8 4 -6.19258 12.9017 14.252
116 2 -4.08469 7.5974 12.5901
336 2 -2.11795 12.0041 17.3029
27 4 -0.246911 12.8354 13.7842
338 2 -0.597377 12.2886 18.3275
317 2 -4.13202 12.4235 17.9219
34 4 0.617263 6.60634 9.8076
152 2 2.84425 6.93283 15.508
320 2 1.1155 9.234 18.4683
309 4 -5.69396 11.8015 18.3963
267 3 1.81157 9.93263 12.7697
255 3 0.924984 7.57289 18.5
363 2 -3.69728 6.9154 17.9858
141 2 2.90576 6.63424 9.35007
25 4 8.6736 1.01354 8.09383
47 4 10.9371 1.92991 4.19867
348 2 15.6943 0.979399 0.939526
51 4 13.438 2.24152 5.91489
55 4 12.2026 4.4316 2.41421
357 2 11.1442 2.37404 1.31175
57 4 12.2132 4.4703 7.57683
354 1 15.5909 0.359718 9.26152
350 2 14.5226 0.460171 2.46732
358 2 9.71461 1.31199 0.396336
93 2 13.2146 5.81715 8.03214
284 3 13.1963 3.76913 6.53418
133 2 7.41224 4.53381 2.82097
134 2 8.04806 2.84316 2.19167
352 2 15.5418 1.53842 9.10124
351 1 15.2725 0.108689 1.53944
89 2 15.9778 0.414931 3.3894
157 2 8.91492 0.949368 4.98788
158 2 8.43786 2.62411 4.14739
159 2 9.45599 2.61932 5.92366
371 3 12.7384 0.139932 0.134149
166 2 13.2533 3.02475 0.5511
167 2 13.8785 2.66817 2.401
137 2 6.76062 6.43604 4.98666
172 2 8.47873 4.92045 5.56429
203 1 7.23828 3.40528 2.70397
288 3 11.0294 5.31029 6.88452
211 1 9.11175 2.09078 4.93465
81 2 6.85432 3.45945 7.63803
214 1 13.5857 3.4898 1.6342
359 1 10.526 2.19558 0.358972
269 3 10.594 0.774416 3.16455
271 3 9.68087 1.9896 8.80954
272 3 14.5913 2.19555 4.70209
273 3 11.9183 1.64922 5.36654
274 3 13.9174 1.32839 7.14505
280 3 11.3476 3.31595 3.38499
281 3 12.921 5.6802 3.35649
282 3 11.3845 5.04641 1.02705
283 3 11.9142 3.64834 8.87519
216 1 8.65696 6.05658 5.43527
77 2 8.07792 1.68012 6.5661
170 2 8.56926 6.35067 4.37497
135 2 6.75018 2.84049 3.63998
161 2 9.95198 5.44003 9.03205
9 4 15.324 2.65516 16.7758
48 4 12.1558 1.35255 18.0377
368 2 8.88733 5.97603 17.7832
53 4 9.57611 1.73916 16.0761
54 4 11.8361 1.81234 12.4372
60 4 11.5484 3.47811 14.9569
82 2 6.89816 4.44899 15.7577
212 1 9.60422 4.60609 9.74182
91 2 13.3676 1.26571 12.2358
94 2 11.04 5.76217 10.3406
95 2 12.7705 3.22912 16.2808
96 2 11.862 5.13002 14.643
361 2 12.6311 5.75775 16.654
117 2 11.5477 6.34418 12.7759
369 1 9.53973 5.06343 17.8729
50 4 10.6491 2.99353 9.67579
162 2 9.55957 4.9116 10.8651
163 2 8.14629 4.07677 12.2396
164 2 7.58633 3.34666 10.5635
165 2 8.69651 2.37882 11.8323
175 2 7.90973 6.27336 13.9512
92 2 11.1121 0.298922 12.7007
213 1 7.92132 3.19828 11.6749
367 2 9.7423 4.57036 16.8221
270 3 13.4809 2.73648 17.4799
275 3 15.403 1.32347 15.9348
160 2 8.6251 4.25393 9.39237
277 3 11.0963 1.20566 16.8402
278 3 8.48021 2.01118 17.1833
279 3 11.2169 2.53357 11.1739
256 3 5.21385 5.63126 14.0974
289 3 10.1091 3.43963 15.5334
290 3 11.896 2.64785 13.7516
343 1 6.13343 6.52766 18.1717
341 2 6.22107 5.47979 17.6102
276 3 9.11809 0.758446 14.9798
56 4 11.1438 6.07919 18.5951
286 3 4.8919 6.32553 11.3629
58 4 6.17957 6.48285 10.3819
356 2 10.4928 3.38606 18.48
174 2 9.71077 6.55419 13.9914
285 3 6.35705 5.33169 9.32148
366 2 9.11814 4.32962 18.589
19 4 9.41996 10.5346 4.21172
23 4 0.931969 12.2619 2.53404
299 3 4.1881 11.8597 8.7798
46 4 4.96055 11.8694 0.85978
215 1 9.78564 7.41083 0.632355
59 4 10.3636 6.49404 6.15659
62 4 4.59731 10.4563 3.815
64 4 7.15984 8.56005 8.29954
66 4 6.86582 10.5491 6.02604
138 2 5.40847 6.62353 3.62068
85 2 5.30544 7.76777 5.2224
98 2 8.57972 7.49463 8.13739
122 2 9.50859 8.20166 3.34317
123 2 8.90492 9.41183 2.03372
124 2 7.67113 8.87682 3.33693
261 3 1.37339 11.2809 1.04711
342 2 6.627 6.51866 0.140597
49 4 5.48541 12.7722 8.00213
185 2 7.65412 10.8679 8.89122
179 2 3.04883 10.6224 5.70758
180 2 2.92661 12.0986 4.42968
181 2 4.29695 12.0646 5.63467
182 2 9.55134 8.74181 6.98299
365 2 8.92327 6.73763 1.15104
184 2 10.1024 8.13506 8.5832
41 4 1.90392 10.1016 0.172996
199 1 8.8042 9.07095 3.06228
183 2 11.3646 8.44327 7.47054
219 1 3.56985 11.459 5.04655
220 1 10.3265 8.14789 7.521
322 2 9.10214 11.4343 8.32164
204 1 5.6391 6.6831 4.71249
298 3 2.86782 9.49882 8.78469
287 3 11.2947 7.10544 4.91822
293 3 3.87142 9.02957 3.77633
294 3 4.6135 11.265 2.23253
171 2 8.00407 6.68662 6.17644
260 3 2.6638 9.06146 1.04401
349 2 7.31628 12.1691 1.84075
301 3 8.44111 10.6187 5.46941
302 3 6.07404 10.4554 4.55632
303 3 6.69702 9.23522 6.93441
304 3 6.36265 11.7663 6.97468
258 3 4.3176 7.22553 1.68219
169 2 10.6236 7.84133 1.29961
186 2 9.11683 9.69071 8.99404
39 4 3.15782 8.09429 2.25875
221 1 8.0437 9.88985 9.2824
76 2 0.829564 12.5021 7.22052
355 2 7.8705 12.7353 8.9041
332 2 10.8085 9.44205 6.02975
15 4 11.1671 7.44691 10.7976
153 2 4.43146 7.00798 16.546
61 4 8.31387 7.85619 12.1909
63 4 6.66327 9.92386 17.5561
292 3 7.34874 6.61911 11.4395
67 4 4.28333 10.6697 16.1761
97 2 6.75477 8.4207 18.3657
52 4 6.24485 12.736 15.3442
353 2 6.44159 12.8801 10.2891
321 2 7.41814 11.5473 15.8213
176 2 8.32584 10.4024 12.1229
177 2 7.38596 9.75821 13.5603
178 2 6.47446 9.8082 11.848
340 2 5.7554 7.40285 17.467
187 2 7.88439 9.8529 10.456
188 2 5.33243 9.28074 10.2258
189 2 4.14433 9.7243 11.7401
190 2 5.4039 10.9413 11.0792
268 3 0.823494 12.5819 12.5679
218 1 7.5201 9.72416 12.4617
222 1 4.7668 10.0664 10.8505
314 4 9.75357 10.8862 15.9986
118 2 11.3528 8.24013 13.0315
197 1 11.9516 7.44888 12.5078
90 2 6.42391 12.6759 13.7273
291 3 9.6964 7.97191 11.0191
296 3 6.192 11.0927 18.5857
295 3 8.18406 10.4434 16.7253
173 2 8.55224 8.01608 14.5121
300 3 2.08355 11.3431 10.5652
305 3 3.4817 9.95274 14.8158
306 3 5.56076 9.68797 16.4073
307 3 4.8284 12.1881 15.7423
308 3 3.00295 10.6224 17.5155
318 2 10.1946 9.61808 15.0201
65 4 3.37981 10.8212 9.66139
364 2 12.0827 7.57516 16.8315
217 1 8.69081 7.05176 13.8279
168 2 9.84313 8.33076 18.5291
297 3 6.13238 7.95993 9.38482
362 1 12.535 6.68458 17.3242
ITEM: TIMESTEP
100
ITEM: NUMBER OF ATOMS
371
ITEM: BOX BOUNDS xy xz yz pp pp pp
-8.7624900000000014e+00 1.7599724999999999e+01 -8.7624900000000014e+00
0.0000000000000000e+00 1.3020299999999999e+01 4.5431099999999996e-01
0.0000000000000000e+00 1.8640300000000000e+01 2.0540000000000000e-01
ITEM: ATOMS id type x y z
360 2 -2.60426 4.24099 1.78729
2 2 2.14067 1.65415 2.75119
345 2 7.16301 0.390483 8.78315
324 2 1.2518 0.760165 8.71967
68 2 2.05699 1.44237 7.17934
7 4 0.97118 2.48767 6.27358
11 4 0.234769 4.21256 2.39747
14 4 -0.819653 4.60873 7.74064
30 4 5.4826 3.05557 1.7925
31 4 1.66086 6.21868 4.09092
72 2 -2.20884 3.96424 8.48959
33 4 5.54524 4.33786 8.30311
35 4 4.23698 5.78412 5.69229
5 4 -1.08611 2.04323 4.08633
70 2 1.28642 3.55793 1.29818
135 2 6.62584 2.60465 3.70644
102 2 2.59286 3.68381 5.05617
103 2 3.33759 1.97523 5.66594
104 2 3.42991 3.46695 6.80696
130 2 4.81788 1.10733 3.33266
131 2 3.5975 1.31651 1.93395
132 2 3.56149 2.44286 3.41221
250 3 4.83375 5.17566 7.04632
192 1 2.83378 2.94169 5.92644
202 1 4.14563 1.83576 2.76451
223 3 0.185795 1.6645 5.05595
225 3 -0.726479 3.0942 3.02103
226 3 -0.486901 5.35347 1.48194
227 3 0.0189941 3.39451 7.20712
229 3 -1.29326 5.76343 6.61039
243 3 6.05194 2.15877 0.555441
244 3 1.27271 4.80355 3.4907
245 3 4.96353 4.45312 1.45907
246 3 4.49863 3.39481 8.93391
249 3 2.66246 6.05553 5.4556
32 4 4.397 5.81135 0.739998
247 3 -0.0828398 5.38222 8.85332
1 4 1.4478 0.207729 2.17505
3 2 -0.0484315 0.872775 1.58927
329 2 -1.65403 2.44365 0.489628
136 2 4.8916 5.11983 4.26361
139 2 2.67537 5.28506 8.98187
201 1 7.95443 0.0841563 2.19081
10 4 1.76357 1.73666 11.6786
17 4 0.253607 4.57485 15.3718
73 2 -2.59072 6.24375 12.6758
24 4 6.89656 1.46597 17.6713
26 4 4.16078 2.22622 9.98838
252 3 5.93503 3.18981 13.6173
28 4 4.21798 2.09353 16.2187
29 4 6.51182 2.14584 12.5495
253 3 1.4388 5.18477 16.5952
36 4 5.49981 4.23872 14.7067
37 4 2.22169 6.19034 17.6087
251 3 4.32675 3.59251 15.5268
328 2 0.162241 1.78633 17.9956
71 2 -1.67258 6.33487 17.9766
78 2 3.30468 2.41764 17.6511
110 2 -0.634451 2.29305 10.7667
111 2 0.230278 3.36546 12.1052
112 2 -0.695937 1.64335 12.6108
113 2 0.543187 2.77468 13.6382
114 2 0.742131 2.18905 15.4703
115 2 2.08476 3.17734 14.6943
69 2 0.67263 0.903091 10.5732
140 2 2.56511 5.33362 10.9264
326 2 0.0868473 3.63665 17.9971
142 2 2.90203 4.56146 13.9563
143 2 2.79343 4.1263 12.1197
144 2 1.91825 5.69793 12.7587
195 1 -0.114774 2.21925 11.7757
196 1 0.976017 3.0234 14.6812
205 1 2.40227 5.89881 9.85983
206 1 2.80122 4.96568 12.9142
224 3 2.11709 0.773539 12.9315
230 3 -1.35279 4.0834 15.9497
231 3 -0.0679001 5.5252 14.0553
18 4 -0.69905 6.48953 12.7548
238 3 2.68269 2.76692 10.9426
239 3 3.40321 1.13932 15.2584
240 3 5.61358 1.5696 16.7117
241 3 5.44101 2.05714 11.1584
242 3 7.10425 0.752693 13.0933
327 1 -0.50424 2.69622 18.1263
38 4 4.1584 6.30437 12.8722
34 4 0.58091 6.46353 9.7653
237 3 3.80164 0.846519 9.36954
254 3 3.33047 5.64082 18.6037
27 4 8.4461 0.152283 13.7582
248 3 -0.0600727 6.52546 11.2934
331 2 -5.43402 9.49233 4.35287
313 1 -4.50284 10.6486 0.456892
13 4 -0.778264 6.67845 0.556535
16 4 -2.21213 6.99232 6.73443
20 4 -3.22177 8.35005 9.20302
21 4 -3.6381 10.5215 7.0376
325 1 -7.43057 12.614 8.0553
40 4 0.819631 9.65295 4.42411
42 4 1.4269 8.95315 8.13845
74 2 -4.27396 9.67652 5.5626
79 2 0.283608 7.04278 4.65169
80 2 -1.20037 8.36454 6.3231
337 2 -2.79625 11.9235 0.214197
84 2 -0.0828358 9.57155 5.96502
86 2 0.527987 10.356 7.73862
87 2 1.71438 8.22766 6.66473
105 2 -4.98117 8.93492 2.95139
106 2 -3.49728 8.02873 2.11065
107 2 -3.30636 9.00475 3.84262
108 2 -1.72816 7.97361 1.64961
262 3 0.642613 7.93475 8.97987
323 2 -7.77649 12.8425 7.01372
370 3 -7.54776 11.9455 3.27866
145 2 0.149117 8.36282 3.0737
146 2 -1.48522 9.53712 4.30104
147 2 -1.42241 7.65968 4.49079
12 4 -4.32706 6.96099 4.36178
149 2 -2.57505 11.3311 5.12981
150 2 -1.26396 11.5226 6.4609
193 1 -4.06261 8.38702 3.20035
194 1 -2.6528 7.45732 0.388033
334 1 -6.13348 10.0029 5.11048
207 1 -0.835601 8.67612 4.4697
208 1 -2.34235 11.6001 6.20827
228 3 -3.32918 7.04633 5.67556
233 3 -2.83741 6.92679 8.5123
234 3 -2.94383 9.43128 7.96895
235 3 -4.73917 11.4911 7.77987
312 2 -5.19651 9.70701 0.677328
257 3 2.07376 7.16647 2.92994
259 3 0.747501 11.1202 3.75447
333 2 -5.77115 11.0442 5.46411
344 2 -1.12329 11.1132 8.07965
4 3 -6.56679 12.5195 0.892702
148 2 -2.62132 12.717 6.37989
129 2 -1.20464 12.5955 1.03892
346 1 -0.493652 11.9578 8.43222
6 4 -5.59317 12.2952 8.90823
109 2 -3.56987 6.91784 0.808983
310 2 -3.95311 11.0319 1.36335
128 2 -1.35991 12.2521 3.08127
83 2 2.35541 8.91859 4.7224
88 2 -1.96259 11.4346 9.64684
22 4 -3.71823 11.0533 13.4509
121 2 -2.85692 8.4604 12.7898
43 4 -1.86339 10.3404 10.9365
44 4 2.45215 9.1066 13.9482
45 4 1.11264 11.184 11.8111
75 2 -2.59438 11.9248 15.1349
311 2 -3.28567 10.5183 18.2464
99 2 -5.39347 9.90532 10.1779
100 2 -6.87889 11.002 10.5505
101 2 -5.15456 11.6643 11.0458
119 2 -0.870076 8.31871 13.1157
120 2 -2.38549 7.81982 14.4115
125 2 -1.69271 10.1023 14.9312
126 2 -4.04073 9.55007 14.226
363 2 -3.87098 7.12696 17.9095
151 2 3.02109 8.35653 16.8867
127 2 -3.24473 10.104 15.9715
154 2 0.714376 7.55544 14.6471
155 2 0.101485 9.36276 14.5802
156 2 1.10656 8.75119 16.0383
191 1 -5.77656 11.0275 10.3373
198 1 -2.15277 7.79647 13.3085
200 1 -2.70278 10.6208 15.1277
209 1 3.31184 7.27189 16.5569
210 1 0.943873 8.63868 14.9385
232 3 -4.8508 8.18607 9.79746
236 3 -5.0143 11.8386 13.6141
265 3 3.36702 7.65988 13.2657
263 3 -2.26008 8.89856 10.4277
264 3 -2.94025 10.8349 12.0397
266 3 -0.315516 10.3895 11.5836
339 1 -1.64019 12.443 17.9393
315 3 -6.33214 11.1275 17.2382
316 3 -7.45908 12.0172 14.9685
319 2 -1.12334 11.5351 14.305
8 4 -6.07936 12.8373 14.2059
116 2 -4.13466 7.81005 12.7105
336 2 -2.03474 11.8152 17.0757
141 2 2.98821 6.86464 9.86646
338 2 -0.50304 12.374 18.0985
317 2 -3.92907 12.4173 17.9288
330 2 -2.37827 8.58247 18.442
152 2 3.11965 7.0321 15.4365
320 2 1.09632 9.16048 18.3388
309 4 -5.52603 11.841 18.3829
255 3 0.875079 7.48907 18.3789
347 2 0.176459 11.7188 9.34347
25 4 8.82674 1.01705 7.92262
47 4 11.0058 1.99742 4.10169
348 2 15.6096 0.489293 0.467801
51 4 13.4582 2.20723 5.81173
55 4 12.2835 4.53463 2.41745
357 2 11.2236 2.32014 1.41855
57 4 12.3015 4.4715 7.57601
354 1 15.5432 0.348548 9.22594
350 2 14.697 1.01787 2.0658
358 2 9.70216 1.26005 0.809595
93 2 13.3122 5.63315 8.20723
284 3 13.1615 3.72213 6.45302
133 2 7.19419 4.39139 3.1345
134 2 8.05084 2.9356 2.28756
355 2 16.6614 0.116679 8.83887
351 1 15.1763 0.165273 1.42858
89 2 15.9316 0.553079 3.25448
157 2 9.12698 1.13527 5.15512
158 2 8.52112 2.77981 4.23882
159 2 9.54334 2.93136 5.88748
371 3 12.5266 0.197548 0.197515
166 2 13.4215 3.17365 0.590745
167 2 13.774 2.57777 2.42344
366 2 8.83113 4.00554 0.154625
172 2 8.22016 5.14195 5.99977
203 1 7.11456 3.34201 2.82324
288 3 10.9078 5.10956 7.12879
211 1 9.3214 2.35432 4.98463
81 2 6.63694 3.36741 7.52725
214 1 13.6379 3.46371 1.69084
359 1 10.4793 2.10953 0.499918
269 3 10.5178 0.583316 2.93346
271 3 9.67426 1.87682 8.90103
272 3 14.7209 2.28886 4.83383
273 3 12.0733 1.54016 5.09303
274 3 13.9623 1.19468 7.13446
280 3 11.3899 3.35372 3.34403
281 3 13.0557 5.6392 3.39583
282 3 11.3295 5.20595 1.24081
283 3 12.0562 3.48926 8.79082
216 1 8.58634 6.10534 5.57568
77 2 8.23171 1.99013 6.60499
170 2 8.49993 6.22671 4.46622
352 2 15.3244 1.46986 9.1348
161 2 9.88913 5.34924 9.09918
335 2 7.85447 1.24646 2.35979
9 4 15.3489 2.75873 16.7475
48 4 12.1827 1.55827 18.0766
368 2 8.79 5.93324 17.9777
53 4 9.67985 1.73681 16.1057
54 4 11.819 2.06536 12.3228
60 4 11.4952 3.66769 14.9151
82 2 6.77769 4.39835 15.7675
212 1 9.52464 4.54942 9.77481
91 2 13.4406 2.00938 11.8985
94 2 11.002 5.72208 10.3699
95 2 12.7386 3.31115 16.1841
96 2 11.819 5.34699 14.713
361 2 12.4175 5.66501 16.7385
117 2 11.8312 6.29576 12.8672
369 1 9.57529 5.01954 18.0131
50 4 10.7342 3.04206 9.68111
162 2 9.40965 4.93021 10.8529
163 2 8.07428 4.14603 12.4679
164 2 7.73582 3.39319 10.8239
165 2 8.87567 2.57418 12.0023
285 3 6.32415 5.20384 9.42524
92 2 11.3336 0.475118 12.6483
213 1 7.97792 3.20993 11.9348
367 2 9.8276 4.56004 16.9282
270 3 13.5034 2.92766 17.3858
275 3 15.3765 1.40115 15.9004
58 4 6.07611 6.49988 10.3599
277 3 11.0287 1.14873 16.9182
278 3 8.39076 2.01842 17.0483
279 3 11.0208 2.65558 11.1878
256 3 5.19437 5.78512 14.0483
289 3 10.1145 3.50124 15.5561
290 3 11.7819 2.89365 13.6411
286 3 4.75158 6.32697 11.3051
341 2 6.19609 5.67257 17.5006
276 3 9.16989 0.862315 14.9031
56 4 11.0601 6.18133 18.5489
160 2 8.5947 4.00068 9.3962
356 2 10.4525 3.39074 18.6077
19 4 9.29522 10.665 4.26461
23 4 0.835109 12.1943 2.45659
299 3 4.25302 11.9 8.78841
46 4 5.00453 11.8085 0.936267
215 1 9.97334 7.67126 0.640873
59 4 10.3104 6.49566 6.25986
62 4 4.52315 10.5621 3.74607
64 4 7.13582 8.53055 8.32891
66 4 6.75539 10.4102 5.97898
138 2 5.37088 6.93588 3.69625
85 2 5.10128 7.88685 5.43144
98 2 8.45951 7.39151 8.12626
122 2 9.72238 8.51111 3.49321
123 2 8.92341 9.48025 2.04094
124 2 7.81587 8.66572 3.36914
261 3 1.19632 11.2171 0.844813
342 2 6.60599 6.59599 0.148975
49 4 5.57518 12.6115 7.86843
185 2 7.56703 10.9559 8.69041
179 2 2.93856 11.1588 5.66483
180 2 2.87421 12.402 4.19099
181 2 4.39731 12.3224 5.4227
182 2 9.52457 8.85393 6.94418
365 2 9.43969 7.25637 1.60165
184 2 9.9373 7.97056 8.65017
41 4 1.8785 10.0038 0.143461
199 1 8.8241 9.14261 3.12149
183 2 11.2383 8.52935 7.41354
219 1 3.59205 11.7367 4.94089
220 1 10.2 8.1166 7.5153
322 2 9.06711 11.7242 8.47195
204 1 5.55172 6.89329 4.86637
298 3 2.80107 9.31986 8.67273
287 3 11.1139 7.03248 4.98308
293 3 3.71606 9.12608 3.73904
294 3 4.65705 11.2257 2.31735
171 2 8.07539 7.08717 6.14665
260 3 2.74864 9.18463 1.18292
349 2 7.16646 12.3098 1.94041
301 3 8.39194 10.7431 5.5923
302 3 5.94889 10.357 4.65225
303 3 6.69038 8.86379 6.84831
304 3 6.32252 11.6353 6.84192
258 3 4.45125 7.1559 1.75768
169 2 10.9042 8.29662 1.01915
186 2 9.0616 9.86217 8.84565
39 4 3.24498 8.03142 2.19942
221 1 8.01861 10.0629 9.13212
76 2 0.775849 12.4135 7.09844
332 2 10.7063 9.30499 5.96268
137 2 6.64664 6.65787 5.15108
15 4 11.2462 7.39899 10.8864
153 2 4.34631 7.05445 16.886
61 4 8.31766 7.82077 12.0547
63 4 6.62736 9.9547 17.4936
292 3 7.36896 6.74223 11.2494
67 4 4.18923 10.6535 16.1477
97 2 6.79641 8.53341 18.4259
52 4 6.21868 12.7532 15.4173
353 2 6.62018 12.7435 10.2564
321 2 7.49351 11.6886 15.9382
176 2 8.23325 10.375 12.0683
177 2 7.20423 9.353 13.3782
178 2 6.41446 9.75579 11.7028
340 2 6.12786 7.51492 17.2777
187 2 7.89296 10.0159 10.2923
188 2 5.0708 9.22766 10.5032
189 2 4.07891 9.93739 11.9193
190 2 5.33679 11.0572 10.998
268 3 0.980006 12.5593 12.6126
218 1 7.44387 9.56098 12.2494
222 1 4.59409 10.1237 10.9313
314 4 9.78112 10.9112 15.9965
118 2 11.2203 8.10331 13.1121
197 1 11.9485 7.41586 12.5964
90 2 6.47283 12.6372 13.7984
291 3 9.89335 8.13284 11.1391
296 3 6.13613 11.0186 18.5051
295 3 8.24385 10.4924 16.6439
173 2 8.96338 8.20111 14.4367
300 3 2.04482 11.5194 10.406
305 3 3.44766 9.82874 14.8945
306 3 5.59614 9.52066 16.3876
307 3 4.8071 12.1458 15.6892
308 3 3.10779 10.446 17.4904
318 2 10.4556 9.48495 15.1767
65 4 3.35734 10.8528 9.71705
364 2 11.9928 7.61819 16.478
217 1 8.69208 7.2921 13.8644
168 2 9.7614 8.42252 18.572
297 3 6.05584 7.90353 9.37185
362 1 12.3192 6.76349 17.1847
174 2 9.61574 6.60375 13.7192
343 1 6.16947 6.6924 18.0571
175 2 7.77989 6.79723 14.3522
267 3 2.07734 10.1081 12.73
ITEM: TIMESTEP
200
ITEM: NUMBER OF ATOMS
371
ITEM: BOX BOUNDS xy xz yz pp pp pp
-8.7624900000000014e+00 1.7599724999999999e+01 -8.7624900000000014e+00
0.0000000000000000e+00 1.3020299999999999e+01 4.5431099999999996e-01
0.0000000000000000e+00 1.8640300000000000e+01 2.0540000000000000e-01
ITEM: ATOMS id type x y z
360 2 -2.61671 4.24245 1.55945
2 2 2.1975 1.62157 2.95283
345 2 7.20006 0.544509 8.78252
324 2 0.895327 0.665115 8.44859
68 2 1.96814 1.28341 7.27859
7 4 1.0361 2.40466 6.19258
11 4 0.188643 4.24269 2.30568
14 4 -0.718991 4.46738 7.69348
30 4 5.6405 2.80897 1.85754
31 4 1.6298 6.1538 4.07988
72 2 -1.92811 3.54289 8.37991
33 4 5.42904 4.30499 8.28603
35 4 4.23541 5.97192 5.66239
5 4 -1.11063 2.07401 3.94955
70 2 1.06164 3.31792 1.29818
135 2 6.77327 2.42714 3.91775
102 2 2.82753 3.53783 5.3486
103 2 3.26185 1.66144 5.69168
104 2 3.42052 2.95629 7.09953
130 2 4.73679 1.34194 3.4226
131 2 3.57674 1.17437 1.92924
132 2 3.46279 2.79283 3.04716
250 3 4.79612 5.11314 7.03197
192 1 2.93126 2.67682 6.17643
202 1 4.12383 1.86054 2.64834
223 3 0.309751 1.84856 4.86096
225 3 -0.850747 3.19492 2.89269
226 3 -0.556972 5.40799 1.51519
227 3 0.17999 3.42324 6.95809
229 3 -1.38798 5.52407 6.51974
243 3 6.29261 1.81908 0.668906
244 3 1.16561 4.74157 3.49496
245 3 4.99937 4.47091 1.31496
246 3 4.34835 3.34934 8.97845
249 3 2.72093 6.15408 5.31659
32 4 4.49456 5.93286 0.773914
247 3 0.000862617 5.20386 8.89534
1 4 1.44959 0.260104 2.11018
3 2 -0.0258058 1.0443 1.66039
201 1 8.00036 0.113291 2.14978
136 2 4.94277 5.12518 4.29676
139 2 2.71216 5.07199 9.17143
10 4 1.63845 1.65066 11.5674
17 4 0.301662 4.54787 15.3053
73 2 -2.42106 6.08255 12.8409
24 4 6.96796 1.50432 17.7655
26 4 4.15255 2.25696 10.1851
252 3 5.99546 3.26706 13.7181
28 4 4.08889 2.21598 16.3419
29 4 6.55253 2.30176 12.4878
253 3 1.27111 5.22169 16.4422
36 4 5.52042 4.22589 14.8593
37 4 2.19747 6.1969 17.4273
251 3 4.34946 3.68097 15.7304
328 2 -0.263122 1.64505 17.9735
71 2 -1.89175 6.19269 17.9843
78 2 2.95071 2.37836 17.6264
110 2 -0.840086 2.54581 10.8775
111 2 0.419337 3.54488 11.9952
112 2 -0.58124 1.89826 12.6561
113 2 0.472252 2.6805 13.6503
114 2 0.458899 2.20156 15.6541
115 2 1.99897 3.02134 14.6911
69 2 0.384616 1.10316 10.4486
140 2 2.5392 5.58332 10.9943
326 2 0.0665091 3.49748 17.9548
142 2 2.67508 4.70865 14.1189
143 2 2.7942 4.20818 12.229
144 2 1.90911 5.83579 12.7325
195 1 -0.109633 2.4576 11.7284
196 1 0.888606 2.91131 14.7466
205 1 2.4037 5.89348 9.81534
206 1 2.71915 5.0572 12.9767
224 3 2.0017 0.83276 12.8861
230 3 -1.41101 4.0422 15.9583
231 3 -0.0620841 5.54075 13.9342
18 4 -0.635605 6.31597 12.765
238 3 2.68859 2.73192 11.0593
239 3 3.42491 1.23287 15.2944
240 3 5.49798 1.77243 16.8763
241 3 5.56315 2.23227 11.2376
242 3 7.20803 0.901793 13.0845
327 1 -0.665083 2.67471 18.0702
38 4 4.13572 6.35807 12.926
34 4 0.559025 6.44009 9.70267
237 3 3.84301 0.729609 9.68091
254 3 3.22987 5.94556 18.6174
248 3 -0.0600342 6.41103 11.3057
256 3 5.08038 5.67576 14.0844
152 2 3.00636 6.42875 15.314
331 2 -5.43511 9.5591 4.25592
313 1 -4.37105 10.3949 0.130729
13 4 -0.908874 6.51334 0.428979
16 4 -2.24128 6.82106 6.73612
20 4 -2.95823 8.29221 9.23131
21 4 -3.50316 10.5244 6.98272
325 1 -7.37599 12.4529 8.25922
40 4 0.793362 9.59496 4.2466
42 4 1.42556 8.98946 8.15639
74 2 -4.28961 9.79312 5.66937
79 2 0.173121 6.97881 4.60426
80 2 -1.16897 8.14388 6.4831
337 2 -2.18522 11.6452 0.0718723
84 2 0.0316362 9.33946 5.93284
86 2 0.300495 10.2737 7.84606
87 2 1.46972 8.45665 6.55135
105 2 -5.38195 8.69212 2.82516
106 2 -3.68254 8.13873 2.13605
107 2 -3.79841 9.18589 3.77302
108 2 -1.62371 7.98714 1.58508
262 3 0.753142 7.95594 9.06466
323 2 -7.13744 12.2519 7.21445
370 3 -7.58747 11.9372 3.19807
145 2 0.172142 8.22509 3.14102
146 2 -1.68137 9.35584 4.283
147 2 -1.3622 7.63603 4.71218
12 4 -4.36668 6.93732 4.37381
149 2 -2.86474 11.8136 5.14178
150 2 -1.27355 11.0595 5.71895
193 1 -4.27853 8.41676 3.07786
194 1 -2.64392 7.42874 0.424941
334 1 -6.14599 10.0892 5.07404
207 1 -0.882445 8.60468 4.53689
208 1 -2.25637 11.5591 6.0663
228 3 -3.30675 6.97323 5.67066
233 3 -2.83186 6.83192 8.5587
234 3 -2.7834 9.5026 8.05606
235 3 -4.64444 11.3724 7.85249
312 2 -5.35228 9.67787 0.696347
257 3 2.23767 7.02709 2.97076
259 3 0.581698 11.0876 3.60318
333 2 -5.84911 11.1117 5.38333
344 2 -1.12184 10.9986 8.3264
4 3 -6.43314 12.5611 0.960013
148 2 -2.18699 12.4294 6.74636
129 2 -1.13164 12.7172 1.01193
346 1 -0.534193 11.9567 8.54485
6 4 -5.5527 12.1791 9.03498
109 2 -3.56411 7.02446 0.949862
310 2 -3.83924 10.9962 0.97943
128 2 -1.45697 12.5355 2.92086
83 2 2.32825 9.1952 4.92303
41 4 1.84203 9.83609 0.184003
347 2 0.235183 11.7408 9.29668
88 2 -2.06016 11.5787 9.72734
22 4 -3.65665 10.8697 13.5343
121 2 -2.71553 8.42731 12.6399
43 4 -1.8012 10.3575 10.9866
44 4 2.47696 9.21946 13.9434
45 4 1.13688 11.0691 11.7758
75 2 -2.48329 11.9681 15.028
311 2 -3.22031 9.865 18.3328
99 2 -5.11273 9.90946 10.1888
100 2 -6.97311 10.9116 10.2562
101 2 -5.42209 11.463 11.4276
119 2 -0.805045 8.24389 12.9796
120 2 -2.05591 7.90077 14.4445
125 2 -1.49799 10.0521 14.9731
126 2 -3.71173 9.29713 14.2739
363 2 -3.76055 7.10544 17.9123
151 2 2.9805 8.07173 16.3649
127 2 -3.14084 10.323 15.9601
154 2 1.02106 7.47375 14.693
155 2 0.0511013 9.11322 14.4789
156 2 1.00441 8.76863 16.0309
191 1 -5.68035 10.9916 10.4277
198 1 -1.92426 7.85322 13.3185
200 1 -2.48192 10.6251 15.0836
209 1 3.33119 7.03851 16.2722
210 1 0.972013 8.59366 14.9477
232 3 -4.54333 8.37761 9.98684
236 3 -4.93045 11.7157 13.7066
265 3 3.31329 7.70107 13.3083
263 3 -1.98981 8.82051 10.5325
264 3 -2.81027 10.7327 12.1946
266 3 -0.354551 10.6259 11.3737
339 1 -1.41326 12.4435 17.8819
315 3 -6.39062 11.3955 17.304
316 3 -7.41433 12.0273 14.9517
319 2 -0.839108 11.4319 14.2838
8 4 -6.1182 12.7588 14.2396
116 2 -3.77358 7.39369 12.8543
336 2 -1.82525 12.1534 16.8174
141 2 2.94145 6.87252 9.54889
338 2 -0.303047 12.2876 17.7973
317 2 -3.77698 12.189 17.7953
330 2 -2.59122 8.53635 18.4629
27 4 -0.240899 12.9483 13.6969
320 2 1.171 8.89694 18.2012
309 4 -5.42295 11.8297 18.4533
255 3 0.707363 7.31139 18.1736
267 3 1.76862 10.0391 12.8019
25 4 8.81847 0.921639 7.87732
47 4 11.0341 2.09653 4.01026
348 2 15.8802 0.135671 0.0445712
51 4 13.5049 2.22668 5.85176
55 4 12.314 4.58935 2.46266
357 2 11.2973 2.53239 1.31326
57 4 12.2115 4.46347 7.54736
354 1 15.4731 0.341426 9.10222
350 2 14.9564 1.04367 1.46182
358 2 9.78155 1.40945 0.558932
93 2 13.1737 5.707 8.17813
284 3 13.0729 3.66988 6.53408
133 2 6.40712 4.33272 3.54777
134 2 8.01723 3.46363 2.80516
56 4 10.5966 6.10787 0.123484
351 1 15.4678 0.0873328 1.11304
89 2 15.6149 0.672768 3.09617
157 2 9.25571 1.00103 5.12309
158 2 8.46394 2.64175 4.33537
159 2 9.67478 2.70078 5.83821
371 3 12.7276 0.250986 0.12226
166 2 13.3688 3.2195 0.492487
167 2 13.8886 2.68344 2.28318
366 2 8.79504 4.35348 0.295922
172 2 8.08391 5.32402 6.46166
203 1 6.91562 3.33233 3.18743
288 3 10.8962 5.19089 6.93919
211 1 9.36689 2.14976 4.95861
352 2 15.3875 1.48327 9.13705
214 1 13.6703 3.51317 1.56304
359 1 10.6007 2.30668 0.419289
269 3 10.7119 0.548828 2.83343
271 3 9.67239 1.87155 8.79466
272 3 14.7695 2.32071 4.89616
273 3 12.2414 1.69574 4.96287