ITEM: TIMESTEP
0
ITEM: NUMBER OF ATOMS
371
ITEM: BOX BOUNDS xy xz yz pp pp pp
-8.7624900000000014e+00 1.7599724999999999e+01 -8.7624900000000014e+00
0.0000000000000000e+00 1.3020299999999999e+01 4.5431099999999996e-01
0.0000000000000000e+00 1.8640300000000000e+01 2.0540000000000000e-01
ITEM: ATOMS id type x y z
1 4 1.75678 0.610613 2.63101
2 2 3.27532 1.11925 3.20246
3 2 0.872726 2.05429 2.64913
4 3 1.82392 0.176474 1.12143
68 2 0.957371 1.12084 7.2321
7 4 0.749701 2.58089 6.26922
11 4 -0.295605 4.47032 2.29638
14 4 -0.279563 5.12503 7.72216
30 4 5.60523 2.94696 2.1609
31 4 1.50103 5.97428 4.18115
32 4 3.93369 5.39781 1.00254
139 2 2.40416 4.36459 9.21702
35 4 4.2349 6.0557 5.66269
246 3 4.71723 3.38331 8.82847
70 2 0.311322 3.56459 0.880929
72 2 -1.52392 4.74281 8.77886
102 2 2.17412 3.01655 4.50065
103 2 2.97702 1.76869 5.77535
104 2 3.06129 3.67512 6.049
130 2 5.04209 0.788284 3.57094
131 2 4.1136 2.34304 4.33256
132 2 6.04137 2.21477 4.24577
247 3 0.549636 6.29206 8.39411
192 1 2.51088 2.80306 5.57154
202 1 5.03418 1.90259 3.67368
223 3 -0.352012 2.35485 5.12526
225 3 -1.20411 3.4846 3.07783
226 3 -0.90057 5.80282 1.79262
227 3 0.426163 3.84626 7.28483
229 3 -1.10442 5.92431 6.18206
243 3 6.11662 2.00714 0.923881
244 3 1.1611 4.72181 3.24821
245 3 4.39629 4.18323 1.97627
335 2 8.01052 0.834799 2.4315
249 3 2.79056 5.90822 5.10938
254 3 2.36022 5.15012 0.0865745
324 2 2.10373 1.29469 8.80906
360 2 -3.07749 4.7221 1.6071
250 3 4.82011 5.33743 6.96905
33 4 5.49137 4.64572 8.20959
79 2 0.149449 6.19549 5.24451
325 1 2.11365 0.205407 8.55167
347 2 8.23748 0.122695 9.0101
141 2 3.52969 5.85081 9.28945
353 2 -1.14314 2.13138 8.23096
10 4 2.32549 1.58125 11.6369
17 4 0.0625947 4.36106 15.5105
18 4 -0.611557 5.89625 12.5113
24 4 6.8972 1.39097 18.0495
26 4 4.89238 2.39096 10.1499
38 4 4.43316 6.40402 12.991
28 4 4.33537 2.16133 16.4758
253 3 0.973269 5.23626 16.5915
248 3 0.331398 6.17838 11.2931
8 4 3.08768 0.19963 14.3593
37 4 1.963 6.06516 17.6285
152 2 3.26465 6.24549 15.4661
36 4 5.75117 4.24726 14.8362
73 2 -2.12369 5.22055 12.0138
78 2 3.19115 2.3661 17.6593
110 2 0.417354 2.34258 10.6253
111 2 1.15341 3.65732 11.8215
112 2 0.0205504 2.19067 12.5078
113 2 2.07146 3.24064 15.3762
114 2 1.03721 2.75596 13.7078
115 2 0.562149 2.10337 15.5824
252 3 6.04039 3.20483 13.6397
140 2 2.90866 5.17383 10.9122
251 3 4.69618 3.65406 15.8987
142 2 3.26855 4.60652 13.9483
143 2 3.36739 4.10087 12.1794
144 2 2.30301 5.56052 12.5866
195 1 0.70377 2.65318 11.7305
196 1 1.09745 2.98121 14.921
205 1 2.71631 5.34326 9.76786
206 1 3.1839 4.96309 12.8776
224 3 2.61135 0.958574 13.0679
230 3 -1.35034 3.75152 16.0927
231 3 -0.233034 5.28734 13.927
237 3 4.77049 0.856443 9.60078
238 3 3.51684 2.57839 11.1108
239 3 3.80202 1.11218 15.3996
240 3 5.61678 1.73613 17.2047
241 3 6.33068 2.57269 10.9918
242 3 7.71903 1.27325 12.9541
153 2 4.25342 6.36468 17.1424
326 2 -0.287171 1.77034 17.2111
341 2 5.46304 4.89057 17.5248
330 2 -1.84477 6.01704 17.8371
69 2 1.7465 0.421214 10.4848
276 3 8.59357 0.481827 15.2537
29 4 6.94554 2.62472 12.4646
201 1 -0.936865 12.5285 2.22297
12 4 -4.63041 7.12188 4.34478
13 4 -0.96712 6.9422 0.676793
16 4 -2.25004 7.04348 6.6538
344 2 0.841058 11.4677 9.04142
21 4 -3.63685 10.466 6.92445
39 4 2.9958 7.91019 2.35133
40 4 0.478344 9.61103 4.53902
42 4 2.23686 9.18762 8.71208
74 2 -4.93586 9.5832 6.19008
71 2 -3.50031 6.93407 0.274707
80 2 -1.60843 8.59807 6.65401
83 2 1.91827 8.70935 4.52402
84 2 0.55956 9.78124 6.20561
86 2 0.820539 9.907 8.2325
87 2 2.47541 8.5783 7.14795
105 2 -5.25854 9.12117 3.30604
106 2 -3.49375 8.53775 2.84802
107 2 -3.70315 9.7261 4.27616
108 2 -2.04416 8.33665 0.905379
20 4 -2.91497 8.31863 9.167
128 2 -1.52741 12.0172 3.03956
310 2 -5.83013 10.1016 1.34539
145 2 -0.619378 7.79377 3.66661
146 2 -1.24792 9.50743 3.01159
147 2 -2.10288 8.72329 4.50636
148 2 -3.65507 11.6143 4.79459
149 2 -2.11208 10.3635 4.83052
150 2 -2.20164 12.0635 5.88648
193 1 -4.20932 8.8232 3.62586
337 2 -2.91069 11.5792 0.263076
345 2 -0.605089 11.449 7.66977
207 1 -1.11762 8.88399 3.94811
208 1 -2.78686 11.188 5.38248
228 3 -3.48748 6.96623 5.68623
323 2 -6.58941 12.7443 7.47991
234 3 -2.68026 9.50213 7.69043
235 3 -4.27559 11.4181 8.02152
129 2 -1.37241 12.3081 1.20457
257 3 1.64164 7.17265 3.1625
259 3 0.726492 10.9422 3.66294
346 1 -0.0533198 11.9901 8.50562
309 4 -6.31151 11.9404 0.11499
322 2 -7.4302 12.3834 9.11678
311 2 -4.69968 11.4187 2.14466
312 2 -4.13627 10.5546 0.499954
313 1 -4.94225 11.0324 1.11611
370 3 -7.5789 12.3047 3.57905
6 4 -4.86245 12.3398 9.15002
233 3 -2.81266 6.7564 8.534
333 2 -5.83051 11.1538 5.45986
334 1 -6.66064 10.4542 5.74993
121 2 -2.54769 7.16781 11.5965
22 4 -3.35905 10.8192 13.6586
126 2 -3.68258 8.61287 13.3195
43 4 -1.39545 10.2011 10.9083
317 2 -4.15123 12.5555 18.3865
45 4 1.18764 10.9048 12.2741
75 2 -2.70706 9.93173 15.1574
88 2 -1.49533 11.5489 9.84519
99 2 -4.88142 10.1207 10.3661
100 2 -6.3776 11.242 10.5693
101 2 -4.83576 11.5903 11.6399
119 2 -1.41237 7.99636 12.9173
34 4 1.29002 6.55309 9.7485
125 2 -3.9883 8.00533 15.0296
109 2 -2.23719 7.90841 17.4498
339 1 -1.89783 12.2836 18.0677
151 2 3.06311 7.81849 16.6359
338 2 -0.814191 11.9607 17.9737
154 2 1.32676 7.00842 14.6375
155 2 0.374803 8.68041 14.4099
156 2 1.17543 8.26634 16.0377
191 1 -5.27851 11.1639 10.6524
198 1 -2.05116 7.09895 12.6114
200 1 -4.00599 8.98 14.4311
265 3 3.63074 7.69083 13.4206
210 1 1.22725 8.13505 14.9552
232 3 -4.4436 8.38635 9.97454
236 3 -4.50541 11.8087 13.9405
255 3 0.767918 7.55641 18.4382
263 3 -1.77643 8.733 10.185
264 3 -2.39267 10.4543 12.1071
266 3 0.00541427 10.0603 11.4843
120 2 -2.73127 6.75113 13.4508
315 3 -6.469 11.3481 17.4937
316 3 -6.95581 12.2487 15.0588
319 2 -1.74605 11.7706 13.7296
320 2 1.21299 9.14589 18.2213
44 4 2.71889 8.88619 14.1292
336 2 -2.46425 12.1715 17.0713
127 2 -5.01368 9.33871 14.393
262 3 2.0758 8.0747 9.75237
267 3 2.10862 9.90009 13.0987
209 1 3.30045 6.66638 16.5272
27 4 -0.498648 12.8945 13.7378
194 1 -2.12154 7.16444 18.3044
349 2 15.6075 0.12311 1.45427
47 4 10.7183 1.87354 3.87429
350 2 14.3574 0.0914453 2.88909
51 4 13.072 2.20383 5.68595
55 4 11.8519 4.70312 2.20913
359 1 10.4317 1.96518 0.368377
57 4 12.1555 4.6173 7.28858
81 2 7.02611 4.25865 7.65466
212 1 8.65017 3.89525 8.7649
351 1 14.6078 0.520967 1.81772
136 2 5.12804 5.57891 3.50467
354 1 15.7919 1.09613 8.70352
133 2 6.89828 4.83172 1.83667
134 2 8.27545 3.59386 2.46314
135 2 6.98114 4.32335 3.59576
137 2 6.56932 6.13886 4.76793
89 2 16.0187 0.783599 3.17571
157 2 8.67132 0.942285 4.28933
158 2 8.27048 2.75965 3.75959
159 2 8.96608 2.35918 5.58917
161 2 7.91676 3.06002 8.56862
166 2 12.8003 4.06964 0.184833
167 2 13.6403 2.80034 1.61367
204 1 5.51379 6.41366 4.3099
172 2 8.59945 4.78709 5.55593
203 1 7.20206 3.94615 2.54774
356 2 10.7629 3.0794 0.395149
211 1 8.92127 2.03397 4.51565
357 2 10.5558 1.38586 1.33789
214 1 13.2655 3.96193 1.30061
170 2 8.25517 6.20288 4.41498
269 3 10.7166 0.573102 2.84037
271 3 10.0927 1.51109 8.26386
272 3 14.269 2.09995 4.61383
273 3 11.6425 1.5784 5.15845
274 3 13.4917 1.38867 7.08075
280 3 11.0865 3.30399 3.16442
281 3 12.4388 5.89801 3.1705
282 3 10.8757 5.19516 0.970634
283 3 11.478 3.82384 8.51429
284 3 12.906 3.84433 6.11384
288 3 10.9501 5.4783 6.67465
348 2 14.5248 1.6921 1.70752
93 2 13.2288 5.71264 8.08118
49 4 14.2083 0.389335 8.02387
371 3 12.5701 0.171794 0.0754674
77 2 9.10095 0.672537 5.96596
352 2 16.4838 0.230315 8.35762
162 2 8.84092 4.47492 7.82141
5 4 15.7424 2.22 4.08319
366 2 8.72416 3.855 0.41821
216 1 8.42605 5.90624 5.45567
50 4 10.3365 2.96164 9.04635
25 4 9.88751 0.224539 7.41395
285 3 5.91963 5.70254 9.29023
171 2 7.68524 6.27923 6.21961
342 2 6.29568 5.24131 0.150993
9 4 14.7385 2.36367 16.3286
48 4 12.0738 1.49236 17.8093
92 2 11.2534 0.319583 11.6576
53 4 9.3269 1.54403 16.1594
54 4 11.444 1.9998 11.8519
60 4 10.9504 3.32751 14.5215
82 2 7.0648 4.60057 15.7421
90 2 11.7443 0.869096 15.2001
91 2 13.051 2.03325 11.4336
327 1 15.8069 1.3002 17.3733
95 2 12.1749 3.12893 15.779
96 2 10.8062 4.96051 14.0797
328 2 15.736 0.283656 16.8579
117 2 11.7247 4.86353 10.6529
369 1 9.07166 4.69658 18.0988
364 2 12.4557 5.67167 16.8472
160 2 8.47529 4.55359 9.63493
163 2 8.03818 4.89867 11.8309
164 2 9.1909 3.34083 11.7565
165 2 8.68257 4.09134 13.41
367 2 9.5295 4.22471 17.1789
197 1 12.5218 5.62562 10.9225
213 1 8.38914 3.89657 12.3471
256 3 5.35164 5.67354 14.1828
270 3 13.1519 2.79405 16.9958
275 3 14.4289 1.47015 14.7544
358 2 9.82399 2.12899 18.5639
277 3 11.0574 0.820197 16.6461
278 3 8.41113 1.94086 17.4539
279 3 10.6187 2.69535 10.7804
329 2 15.4366 1.22979 18.5485
289 3 9.68656 2.93662 15.3314
290 3 11.385 2.54307 13.3127
355 2 15.5027 1.08125 9.82872
362 1 11.4404 6.17763 16.8256
174 2 9.20931 5.35139 13.8356
173 2 10.6565 6.5553 13.7488
368 2 7.93763 5.11629 17.9568
292 3 7.78804 6.47697 11.1709
56 4 10.4572 6.02464 18.4347
343 1 5.72242 5.68175 18.3216
363 2 10.7723 5.77305 15.9879
118 2 12.5861 5.74783 12.0598
52 4 13.3379 0.295389 14.8079
217 1 9.55153 6.46703 13.8238
116 2 13.5457 5.43291 10.4547
19 4 9.01189 10.9932 4.47411
23 4 0.830556 11.9006 2.30378
183 2 10.9583 8.60326 7.61208
46 4 4.87521 11.8874 0.988633
261 3 1.15811 11.1541 0.87755
59 4 10.1002 6.66376 6.08398
62 4 4.18769 10.3128 3.83345
64 4 7.08699 8.88653 8.4373
66 4 6.36977 10.7104 6.00456
94 2 11.0041 6.82481 8.6317
85 2 4.77698 7.69491 5.5908
98 2 8.06016 7.61476 7.76146
122 2 9.15739 9.78574 2.26631
123 2 7.7491 9.2227 3.36148
124 2 9.53022 8.8191 3.86963
215 1 8.94221 7.66299 0.318525
298 3 3.30852 10.2392 9.07452
169 2 8.98854 8.11301 1.39936
303 3 6.36068 9.48692 7.15629
179 2 2.65062 10.6937 5.76483
180 2 2.6726 11.9846 4.25247
181 2 3.93451 12.1257 5.63601
182 2 9.21846 8.68802 6.9998
41 4 1.95124 9.91581 0.239758
184 2 9.54757 7.69852 8.57497
185 2 7.9968 11.0865 8.33796
199 1 8.82782 9.48718 3.25324
365 2 7.94548 7.24461 0.0905048
219 1 3.22618 11.441 5.13089
220 1 9.97507 8.03281 7.55811
331 2 10.7594 9.39678 5.5313
76 2 2.52129 12.2585 6.75386
260 3 2.61433 8.94304 1.24958
287 3 10.9216 7.54263 4.99847
293 3 3.53801 8.86352 3.78938
294 3 4.39527 11.0957 2.24587
258 3 4.05222 6.80132 1.80613
304 3 5.84593 11.9304 7.00032
138 2 5.48381 7.43532 3.82192
301 3 7.80314 11.1681 5.44179
302 3 5.55144 10.3059 4.66151
221 1 8.02699 10.3611 9.20084
332 2 10.081 10.6236 6.82288
15 4 11.6749 7.15259 10.2546
97 2 8.05984 9.17259 18.3962
61 4 9.12498 7.3558 12.0993
63 4 7.22008 10.4081 17.5099
307 3 4.8521 11.9478 15.7611
67 4 4.44502 10.5306 16.5269
308 3 3.43596 10.482 17.7626
58 4 6.29939 6.76333 10.3579
361 2 11.5305 7.36783 16.8742
175 2 9.10692 7.11555 14.6799
176 2 9.23084 9.54885 12.7471
177 2 7.34081 8.90937 12.63
178 2 8.2362 9.52238 11.0831
314 4 9.80029 11.2337 16.1715
187 2 7.7203 10.8456 10.1855
188 2 5.38084 9.56788 10.8361
189 2 4.13319 9.97397 12.1406
190 2 5.59033 11.1898 11.8721
65 4 3.7405 11.3142 10.1541
218 1 8.37896 9.02324 12.1615
222 1 4.89905 10.3928 11.4298
318 2 10.1579 9.59622 15.4997
299 3 4.59174 12.5264 9.59479
268 3 0.789198 12.2194 13.1582
321 2 4.4237 12.3354 13.3405
291 3 10.4151 7.4344 11.2132
297 3 6.22726 8.34317 9.73188
295 3 8.26827 11.1782 16.5606
168 2 9.83075 8.60841 18.2155
300 3 2.43004 11.7385 10.9581
305 3 3.67484 9.71767 15.4556
306 3 6.00307 9.71785 16.8606
340 2 5.66222 6.76721 17.9276
286 3 5.15592 6.63631 11.562
296 3 6.57036 11.3504 18.6003
186 2 9.02601 9.72688 9.33427
ITEM: TIMESTEP
100
ITEM: NUMBER OF ATOMS
371
ITEM: BOX BOUNDS xy xz yz pp pp pp
-8.7624900000000014e+00 1.7599724999999999e+01 -8.7624900000000014e+00
0.0000000000000000e+00 1.3020299999999999e+01 4.5431099999999996e-01
0.0000000000000000e+00 1.8640300000000000e+01 2.0540000000000000e-01
ITEM: ATOMS id type x y z
1 4 1.735 0.420052 2.62852
2 2 3.24214 0.972742 3.20129
3 2 1.07311 1.96636 2.76647
250 3 4.98795 5.24105 6.98924
68 2 1.07863 1.1746 7.22181
7 4 0.886542 2.6202 6.26059
11 4 -0.138397 4.31334 2.18902
14 4 -0.324866 5.05647 7.73052
30 4 5.65801 2.82172 2.09941
31 4 1.49669 5.85503 4.09344
32 4 3.90612 5.50053 0.951829
141 2 3.40978 5.7522 9.15062
35 4 4.23339 5.98682 5.74985
246 3 4.93302 3.26892 8.74717
70 2 0.396171 3.51226 0.781394
72 2 -1.52752 4.26956 8.66278
102 2 2.30068 3.01263 4.41782
103 2 3.06804 1.69151 5.62134
104 2 3.25602 3.50598 6.00216
130 2 5.09886 0.69931 3.33848
131 2 4.20379 2.10841 4.32116
132 2 6.03536 2.07848 4.25525
247 3 0.337802 6.13332 8.6051
192 1 2.61972 2.71244 5.51349
202 1 5.05903 1.77124 3.65377
223 3 -0.331621 2.45544 5.08899
225 3 -1.23951 3.35025 2.78934
226 3 -0.90875 5.79965 1.63261
227 3 0.612787 3.90965 7.26994
229 3 -1.03162 6.01286 6.2446
243 3 6.09339 1.7246 1.04228
244 3 1.1382 4.58462 3.15404
245 3 4.41174 4.08966 1.5714
79 2 0.133482 6.11396 5.11686
249 3 2.73495 5.64227 5.17214
254 3 2.2432 5.31836 0.183458
324 2 2.22548 1.39398 8.66942
325 1 2.12772 0.228764 8.56169
10 4 2.26776 1.73725 11.6331
17 4 0.0757295 4.54009 15.3183
18 4 -0.577391 5.96072 12.5651
24 4 6.93797 1.40302 17.9696
26 4 4.82837 2.29087 10.0512
38 4 4.42908 6.33904 13.2184
28 4 4.2232 2.29176 16.4438
253 3 0.82427 5.3874 16.5292
248 3 0.481117 6.21005 11.4664
29 4 6.85059 2.61468 12.4513
37 4 1.8703 6.17795 17.6753
69 2 1.65311 0.691572 10.4168
36 4 5.77845 4.24928 14.8621
73 2 -1.89889 5.17444 11.7626
78 2 3.06682 2.52735 17.714
110 2 0.174783 2.42214 10.6059
111 2 0.866599 3.6465 11.947
112 2 -0.155522 2.09153 12.457
113 2 2.14406 3.57153 15.0232
114 2 0.990514 2.88237 13.6535
115 2 0.840313 2.41156 15.6105
252 3 6.09273 3.16709 13.6697
140 2 2.96158 5.1792 10.9131
251 3 4.40497 3.74046 15.751
142 2 2.96513 4.57251 13.9572
143 2 3.30762 4.11413 12.1975
144 2 2.2517 5.6578 12.7149
195 1 0.490776 2.56798 11.6544
196 1 1.18633 3.12216 14.8119
205 1 2.6503 5.21615 9.79461
206 1 3.17261 5.01268 12.915
224 3 2.6585 0.898382 12.9996
230 3 -1.33755 3.68037 15.9117
231 3 -0.242665 5.26409 13.9228
237 3 4.91978 0.698531 9.69679
238 3 3.33715 2.75351 10.9711
239 3 3.61232 1.21449 15.4527
240 3 5.70474 1.79197 16.9994
241 3 6.05766 2.63069 11.0249
242 3 7.77245 1.2663 12.7931
330 2 -1.71216 6.3636 17.3647
326 2 -0.271429 1.87435 17.315
276 3 8.54502 0.415988 15.2701
139 2 2.34657 4.25109 9.41163
201 1 -0.739284 12.7747 2.17862
12 4 -4.52842 7.36817 4.27065
13 4 -1.00646 6.95307 0.55008
16 4 -2.14352 7.08295 6.68138
347 2 -0.68292 12.7745 8.87025
21 4 -3.56196 10.3787 6.96405
39 4 2.92889 7.95153 2.48439
40 4 0.540439 9.62084 4.54377
42 4 2.23081 9.19507 8.65681
74 2 -4.81861 9.50694 6.14786
260 3 2.3603 8.94971 1.37945
80 2 -1.32921 8.5578 6.63426
83 2 2.01687 8.86921 4.72434
84 2 -0.0513207 10.1762 6.00998
86 2 0.704523 10.0331 8.57807
87 2 2.31844 8.69005 7.03542
105 2 -5.32814 9.16339 2.95677
106 2 -3.59202 8.69139 2.52464
107 2 -3.83866 9.79782 4.13973
108 2 -2.20018 8.0831 1.04275
20 4 -2.91144 8.27986 9.14563
128 2 -1.31802 12.5265 3.06723
310 2 -5.38689 9.68565 0.787426
145 2 -0.46711 7.93118 3.49227
146 2 -1.42672 9.70098 3.33408
147 2 -1.95278 8.47866 4.64125
148 2 -3.81146 11.4935 4.65224
149 2 -2.26598 10.3251 4.86865
150 2 -2.28815 12.044 5.78573
193 1 -4.29245 8.98142 3.37439
337 2 -2.59333 11.5899 0.353958
345 2 -0.0548977 11.4872 7.62627
207 1 -1.08415 8.85128 4.08605
208 1 -2.95691 11.1579 5.33089
228 3 -3.34818 7.27221 5.42669
323 2 -6.54288 12.6538 7.41921
234 3 -2.53618 9.39621 7.63876
235 3 -4.29729 11.4403 7.88989
129 2 -1.3383 12.439 1.11745
257 3 1.83252 7.20953 3.28045
259 3 0.645604 10.9169 3.57923
346 1 -0.0652777 11.8349 8.72303
309 4 -6.15813 11.8081 0.200212
322 2 -7.39067 12.5036 9.22397
311 2 -4.69541 11.0219 1.93699
312 2 -3.63054 10.6964 0.454817
313 1 -4.757 10.7098 0.844469
370 3 -7.5703 12.2531 3.70735
6 4 -4.87386 12.318 9.12885
233 3 -2.85339 6.76761 8.48685
333 2 -5.65328 11.1122 5.30493
334 1 -6.50636 10.391 5.58418
332 2 -6.79869 10.5578 6.63122
41 4 1.80832 9.83701 0.244778
4 3 -6.96808 12.78 1.15451
71 2 -3.39333 6.72377 0.0694665
121 2 -3.03686 6.62118 11.7976
22 4 -3.40183 10.7216 13.6809
126 2 -3.91638 8.49542 13.469
43 4 -1.53507 10.155 11.0025
317 2 -4.16816 12.6541 18.5259
45 4 1.43066 10.9827 12.1628
75 2 -2.53494 9.92579 15.1752
88 2 -1.64258 11.2904 9.73987
99 2 -4.91001 10.0693 10.3538
100 2 -6.35048 11.2592 10.6934
101 2 -4.73161 11.5437 11.5308
119 2 -1.69892 7.95017 12.508
34 4 1.22189 6.5247 9.80206
125 2 -3.52983 8.00548 15.1631
109 2 -2.2661 8.17813 17.4311
339 1 -1.75682 12.2961 17.9573
151 2 2.87672 8.1396 16.9658
338 2 -0.641677 12.1096 17.7151
154 2 1.32801 7.00985 14.8936
155 2 0.452015 8.57381 14.3227
156 2 1.15069 8.51352 16.0678
191 1 -5.22359 11.1324 10.66
198 1 -2.23849 6.86159 12.6205
200 1 -3.8897 8.88203 14.6032
265 3 3.68411 7.64432 13.6893
210 1 1.27552 8.16044 14.988
232 3 -4.53163 8.34762 9.94745
236 3 -4.57618 11.6912 14.0445
255 3 0.693099 7.62363 18.3937
263 3 -1.795 8.6894 10.241
264 3 -2.64016 10.574 12.2
266 3 -0.0798941 10.2887 11.5615
120 2 -2.61671 6.56408 13.6735
315 3 -6.56152 11.5851 17.4773
316 3 -7.08015 12.1761 15.0007
319 2 -1.88883 11.7971 13.8077
320 2 1.06608 9.17205 18.0756
44 4 2.81887 8.92729 14.1969
336 2 -2.47254 12.0751 17.0573
127 2 -4.87881 9.2573 14.949
262 3 2.06121 7.99144 9.62344
8 4 -5.7571 12.9442 14.4081
209 1 3.19375 7.03533 16.7439
27 4 -0.475275 12.9249 13.7156
194 1 -2.0889 7.26761 18.0271
152 2 3.03028 6.672 15.7018
153 2 4.2921 6.74633 17.1798
349 2 15.655 0.164282 1.59054
47 4 10.6996 1.89066 3.98577
350 2 14.197 0.356655 2.88779
51 4 13.1227 2.22712 5.71614
55 4 11.832 4.65905 2.36838
359 1 10.5969 2.02905 0.355372
57 4 12.0972 4.57931 7.22193
81 2 7.3438 4.20481 7.82389
212 1 8.77328 3.91713 9.16379
351 1 14.579 0.646672 1.79178
136 2 5.16194 5.55243 3.74113
354 1 15.9456 0.987987 8.82516
133 2 6.87637 4.96335 2.27282
134 2 7.98417 3.54237 2.11417
135 2 7.22294 3.80467 3.82559
137 2 6.63315 6.34888 4.66937
89 2 15.9531 0.832881 3.23647
157 2 8.61188 0.7959 4.20541
158 2 8.18921 2.58944 3.72529
159 2 8.74715 2.21821 5.56095
161 2 8.06834 2.95902 9.0539
166 2 13.0772 4.16156 0.510509
167 2 13.2944 2.72201 1.85336
33 4 5.70686 4.61818 8.26698
172 2 8.85763 5.05315 5.01676
203 1 7.092 3.9016 2.67063
356 2 11.0662 3.09991 0.347684
211 1 8.74663 1.94855 4.43515
357 2 10.7121 1.55823 1.37163
214 1 13.2947 3.83782 1.65884
353 2 15.8393 2.1095 8.65749
269 3 10.6906 0.621462 3.03516
271 3 10.0286 1.4133 8.27033
272 3 14.2079 2.04477 4.57878
273 3 11.5707 1.58157 5.26875
274 3 13.6369 1.54058 7.28485
280 3 10.9958 3.26904 3.15994
281 3 12.3695 5.8526 3.25615
282 3 10.7712 5.29271 0.909826
283 3 11.5493 3.79768 8.43332
284 3 12.8947 3.7991 6.05852
288 3 10.8538 5.46152 6.66225
348 2 14.395 1.83885 1.59733
93 2 13.206 5.69697 7.80789
49 4 14.3071 0.33396 8.08867
371 3 12.5706 0.169514 0.0635808
77 2 9.07137 0.542082 5.79375
352 2 16.6868 0.443227 8.09516
162 2 8.91483 4.57425 8.21911
360 2 14.1267 4.47339 2.08696
366 2 8.64813 3.71797 0.11455
216 1 8.60422 6.16837 5.0986
50 4 10.3965 2.81972 9.13051
25 4 9.86335 0.170334 7.3072
335 2 8.36444 1.0678 2.08154
5 4 15.6661 2.29637 4.00583
9 4 14.8113 2.45623 16.2483
48 4 12.1929 1.36885 17.8098
92 2 10.8238 0.55457 12.294
53 4 9.36909 1.52734 16.0142
54 4 11.4301 2.04737 11.9257
60 4 11.0657 3.48544 14.5832
82 2 7.16753 4.19542 15.7581
90 2 11.7284 0.863783 15.1336
91 2 12.9228 1.57184 11.5251
327 1 15.8393 1.44477 17.3597
95 2 12.3078 3.27638 15.855
96 2 10.7486 5.15783 14.1776
328 2 15.8836 0.37323 16.9657
117 2 11.8869 4.86792 10.4706
369 1 8.93733 4.7515 18.0332
364 2 12.2129 5.65025 16.5835
160 2 8.46356 4.4902 10.1022
163 2 7.92035 4.82925 11.9206
164 2 9.11562 3.42152 11.7522
165 2 8.58286 4.10298 13.4982
367 2 9.37146 4.50075 16.9613
197 1 12.6406 5.63064 10.8025
213 1 8.2866 3.88119 12.3627
256 3 5.59151 5.79338 14.3737
270 3 13.1177 2.73166 17.131
275 3 14.3431 1.51496 15.0389
358 2 9.99151 2.21839 18.5531
277 3 11.0594 0.993768 16.7026
278 3 8.37447 1.95221 17.4264
279 3 10.6781 2.65411 10.6973
329 2 15.4897 1.34807 18.5485
289 3 9.76035 2.81232 15.1236
290 3 11.5586 2.76075 13.2603
355 2 16.0931 0.721282 9.92009
362 1 11.4067 6.41088 16.758
174 2 8.84855 5.36264 13.9108
116 2 13.6097 5.49736 10.3293
368 2 7.84773 5.05775 18.0784
292 3 7.76886 6.46738 11.0575
56 4 10.3915 6.03594 18.3835
343 1 5.69607 5.88211 18.2712
363 2 10.7334 6.56976 15.9093
118 2 12.6537 5.78543 11.95
52 4 13.2673 0.340804 14.9677
217 1 9.26746 6.43254 13.7317
285 3 5.91007 5.6279 9.38235
341 2 5.27627 5.64131 17.201
342 2 6.53833 5.04612 18.6004
173 2 10.3717 6.55606 13.9594
19 4 9.06545 10.9161 4.45057
23 4 0.880354 11.9046 2.33328
183 2 11.0675 8.4334 7.91228
46 4 4.84175 12.026 0.964052
261 3 1.22188 11.1275 0.906972
59 4 10.1805 6.76029 6.07404
62 4 4.23045 10.4285 3.8133
64 4 7.01637 8.93837 8.44171
66 4 6.48097 10.7706 6.11353
296 3 6.04074 11.2758 0.0542708
85 2 4.62893 7.68877 5.77493
98 2 8.10555 7.7174 7.98938
122 2 8.36229 9.98782 2.28029
123 2 7.7835 8.92667 3.70201
124 2 9.65805 8.8078 3.11759
215 1 8.85658 7.55291 0.17728
298 3 3.32998 10.2388 8.95611
169 2 8.86472 7.84131 1.27553
303 3 6.34367 9.4111 7.10227
179 2 2.3653 10.9836 5.47358
180 2 2.64647 12.3281 4.12914
181 2 3.95145 12.0245 5.569
182 2 9.36002 8.73674 7.21362
94 2 11.0094 6.5371 8.74665
184 2 9.59408 7.56939 8.70163
185 2 8.63262 10.7944 8.1677
199 1 8.6279 9.45338 3.21313
221 1 8.27883 10.2529 9.05596
219 1 3.15435 11.6014 4.91206
220 1 10.0538 7.93678 7.74292
331 2 10.808 9.31903 5.29215
76 2 2.62754 12.5575 6.60933
204 1 5.49393 6.46874 4.46141
287 3 10.9836 7.57667 4.98241
293 3 3.53975 9.02616 3.97298
294 3 4.41166 11.1253 2.32804
258 3 4.10269 6.9301 1.78213
304 3 5.95096 11.981 7.04557
138 2 5.20966 7.52644 4.06544
301 3 7.97215 11.0093 5.52263
302 3 5.55572 10.6529 4.79283
170 2 8.52855 6.65586 4.10434
171 2 7.82431 6.50566 5.89803
344 2 0.953354 11.8189 9.2976
15 4 11.6077 7.15216 10.2703
97 2 8.00019 9.15338 18.4535
61 4 8.88016 7.31056 11.9801
63 4 7.19291 10.362 17.4903
307 3 4.80055 11.8856 15.9044
67 4 4.50475 10.3785 16.4058
308 3 3.28693 10.3575 17.7761
58 4 6.24977 6.66826 10.5229
361 2 11.8105 7.41732 17.1239
175 2 8.65777 7.19009 14.314
176 2 8.93805 9.56475 12.7997
177 2 7.18281 9.16831 12.5344
178 2 8.19708 9.64464 10.9516
314 4 9.72803 11.1598 16.1426
187 2 7.5074 10.9291 9.64558
188 2 5.46384 9.53873 10.8187
189 2 4.58294 9.98985 12.3619
190 2 5.74374 11.2322 11.6361
65 4 3.77562 11.2708 10.1881
218 1 8.18469 9.09981 12.0657
222 1 4.96119 10.4149 11.4227
318 2 10.2684 9.67443 15.7406
299 3 4.61215 12.5472 9.52316
268 3 0.759869 12.181 13.0479
321 2 4.55321 12.7461 13.2898
291 3 10.3515 7.33736 11.2622
297 3 6.15468 8.35932 9.77114
295 3 8.1977 11.0061 16.4636
168 2 9.65463 8.52567 18.1646
300 3 2.41469 11.7598 11.0735
305 3 3.64693 9.75887 15.3238
306 3 5.946 9.65985 16.8253
340 2 6.07111 6.95553 18.3942
286 3 5.27438 6.54965 11.8633
186 2 9.22703 9.92158 9.65215
365 2 8.30284 7.36905 18.4888
267 3 2.18843 9.96218 13.1659
ITEM: TIMESTEP
200
ITEM: NUMBER OF ATOMS
371
ITEM: BOX BOUNDS xy xz yz pp pp pp
-8.7624900000000014e+00 1.7599724999999999e+01 -8.7624900000000014e+00
0.0000000000000000e+00 1.3020299999999999e+01 4.5431099999999996e-01
0.0000000000000000e+00 1.8640300000000000e+01 2.0540000000000000e-01
ITEM: ATOMS id type x y z
1 4 1.93101 0.403282 2.66662
2 2 3.33912 0.936961 3.39317
3 2 1.01184 1.7948 2.60378
250 3 5.00771 5.17774 6.96959
68 2 0.981607 1.17822 7.11929
7 4 0.832002 2.67758 6.23235
11 4 -0.201604 4.31035 2.16209
14 4 -0.487814 5.07358 7.71047
30 4 5.6586 2.79111 2.03254
31 4 1.63922 5.67294 4.15064
32 4 3.8935 5.40154 1.06529
335 2 7.912 0.972971 2.41256
35 4 4.24742 5.86001 5.74042
246 3 5.02867 3.1284 8.59326
70 2 0.656814 3.4919 1.08816
72 2 -1.82392 4.2296 8.35821
102 2 2.22606 3.09828 4.4036
103 2 2.86888 1.56812 5.43471
104 2 3.23059 3.33944 6.0911
130 2 5.14532 0.643552 3.49692
131 2 4.19819 2.20339 4.24206
132 2 6.14087 2.23173 4.17239
247 3 0.283404 5.81931 8.83475
192 1 2.55223 2.65734 5.44722
202 1 5.12115 1.8244 3.6607
223 3 -0.27912 2.46603 5.10183
225 3 -1.26816 3.32713 2.82838
226 3 -0.966365 5.60915 1.40143
227 3 0.519031 3.98796 7.21112
229 3 -1.00412 6.05397 6.22471
243 3 6.06368 1.82476 0.793497
244 3 1.05441 4.60519 3.14514
245 3 4.38634 3.99086 1.76269
79 2 0.291625 5.86027 5.18162
249 3 2.86057 5.36944 5.12113
254 3 2.33944 5.34786 0.0942988
324 2 2.17434 1.22881 8.57403
325 1 2.02407 0.120984 8.38867
360 2 -3.03873 4.62246 1.6667
5 4 -1.39002 2.26373 3.96621
347 2 7.99591 0.115119 9.01004
10 4 2.24497 1.6903 11.4749
17 4 0.156801 4.52174 15.3976
18 4 -0.493021 5.96534 12.5817
24 4 6.86749 1.53634 17.824
26 4 4.91289 2.42835 10.0561
38 4 4.53472 6.3005 13.1649
28 4 4.07504 2.26379 16.3794
253 3 1.11797 5.27774 16.5716
120 2 -2.53558 6.46681 14.0158
29 4 6.96411 2.64521 12.4847
37 4 1.92935 6.30013 17.6326
69 2 1.69806 0.512178 10.3185
36 4 5.7937 4.17529 15.0352
73 2 -1.80135 4.97158 11.9607
78 2 3.08191 2.37985 17.8106
110 2 0.147127 2.10226 10.6752
111 2 1.04242 3.64176 11.6837
112 2 -0.0984251 2.2452 12.6049
113 2 2.23788 3.4678 15.1543
114 2 0.957062 2.84955 13.7358
115 2 0.690593 2.19755 15.6098
252 3 6.17813 3.30896 13.7202
140 2 3.06303 5.2039 11.1279
251 3 4.33854 3.7084 15.7961
142 2 3.33213 4.41837 14.201
143 2 3.33756 4.05851 12.2843
144 2 2.32055 5.62847 12.8733
195 1 0.538936 2.52249 11.7329
196 1 1.15705 3.05692 14.9013
205 1 2.8272 5.47219 10.0572
206 1 3.2887 4.9154 13.0627
224 3 2.55442 0.947493 12.9139
230 3 -1.49346 3.82418 15.9093
231 3 -0.0151694 5.37497 13.9906
237 3 4.58898 0.893675 9.76627
238 3 3.38245 2.83208 10.9809
239 3 3.41578 1.18771 15.4409
240 3 5.52134 1.71114 16.9808
241 3 6.21309 2.59243 11.0041
242 3 7.62372 1.1674 12.7705
330 2 -2.07242 6.2024 17.5387
326 2 -0.0970524 2.25202 17.3483
276 3 8.44548 0.402925 15.2544
121 2 -3.11623 6.22961 12.1904
116 2 -3.38849 5.7161 10.9316
139 2 2.51158 4.58398 9.4535
141 2 3.74638 5.8935 9.5434
201 1 -0.886051 12.695 2.10169
12 4 -4.35106 7.25614 4.1999
13 4 -1.11742 6.83481 0.429765
16 4 -2.03281 7.18832 6.55462
4 3 -6.63584 12.6071 1.26509
21 4 -3.40035 10.3905 7.03217
39 4 2.85586 7.83727 2.54702
40 4 0.437755 9.56381 4.44253
42 4 2.02021 9.27547 8.6503
74 2 -4.69907 9.51884 6.20747
260 3 2.33546 8.86091 1.47405
80 2 -1.15024 8.59189 6.86741
83 2 2.06639 9.12432 4.76489
84 2 -0.219372 9.79852 5.97176
86 2 0.515135 10.1065 8.81056
87 2 1.98814 9.07361 6.99632
105 2 -5.26237 9.25988 2.97046
106 2 -3.58683 8.46054 2.34532
107 2 -3.61755 9.58167 3.99303
108 2 -2.07862 8.18946 1.02976
20 4 -2.91194 8.26657 9.12962
128 2 -1.44851 12.0836 2.86617
310 2 -5.85888 9.73672 0.627997
145 2 -0.303206 7.92642 3.02351
146 2 -1.40272 9.58891 2.92582
147 2 -1.81027 8.24295 4.22216
148 2 -3.64911 11.3758 4.76749
149 2 -2.13133 10.0525 4.69367
150 2 -2.06115 11.7351 5.76952
193 1 -4.23899 8.82611 3.22946
71 2 -3.61046 6.9033 0.421255
345 2 -0.233693 11.4374 7.70009
207 1 -1.01139 8.71402 3.60225
208 1 -2.76605 10.8874 5.3109
228 3 -3.15801 7.42047 5.25461
323 2 -6.67114 12.6146 7.32197
234 3 -2.41658 9.51007 7.75447
235 3 -4.15554 11.4336 8.08184
129 2 -1.26708 12.5156 1.02088
257 3 1.6961 7.10791 3.41557
259 3 0.599025 10.8707 3.57429
346 1 -0.25834 11.9141 8.88957
258 3 3.98539 6.66857 2.05671
322 2 -7.73369 12.502 8.90894
311 2 -4.46235 10.9888 1.65453
331 2 -6.14806 9.24529 5.18285
313 1 -4.77467 10.6716 0.589619
370 3 -7.6188 12.2087 3.65186
6 4 -4.93132 12.3635 9.18497
233 3 -2.78123 6.732 8.28861
333 2 -5.45518 10.9803 4.62986
334 1 -6.19011 10.4154 5.30989
332 2 -6.26549 10.7412 6.39472
267 3 2.12719 9.80415 12.7812
22 4 -3.34338 10.7136 13.7689
126 2 -3.7033 8.44922 13.5914
43 4 -1.50622 10.0494 10.9479
317 2 -4.0731 12.4434 18.1778
45 4 1.2556 10.9195 12.0182
75 2 -2.53453 10.1947 15.2809
88 2 -1.8358 11.2626 9.68191
99 2 -4.97543 10.0628 10.4062
100 2 -6.33646 11.3916 10.7289
101 2 -4.58576 11.6392 11.4451
119 2 -1.89004 7.7635 12.6938
34 4 1.31641 6.56328 9.92795
125 2 -3.60487 8.10602 15.3808
109 2 -2.47512 8.22301 17.651
339 1 -1.61723 12.4634 17.7398
151 2 2.51008 8.33091 16.7867
338 2 -0.524904 12.1428 17.8885
154 2 0.856489 7.34327 14.9
155 2 0.235998 8.96139 14.0522
156 2 1.01145 9.00364 15.8582
191 1 -5.18493 11.2025 10.6152
198 1 -2.24484 6.60095 12.9061
200 1 -3.77157 8.92082 14.6165
265 3 3.50515 7.52943 13.4836
210 1 1.0135 8.47796 14.8006
232 3 -4.55729 8.34791 9.93676
236 3 -4.57437 11.765 13.9508
255 3 0.588588 7.67405 18.2436
263 3 -1.78937 8.48648 10.2915
264 3 -2.56112 10.3025 12.1356
266 3 -0.0646694 10.4076 11.3439
344 2 0.708607 11.8301 9.4961
315 3 -6.52218 11.4439 17.3796
316 3 -7.32314 12.2495 14.9691
319 2 -1.80552 11.8337 13.7828
320 2 0.941086 9.22656 18.3963
44 4 2.62622 8.85027 13.9691
336 2 -2.0018 12.2471 16.7064
127 2 -4.85541 9.38567 14.8196
262 3 1.92399 7.90286 9.40518
8 4 -5.89688 12.9338 14.3373
209 1 3.13701 7.38107 16.8257
27 4 -0.416768 12.8497 13.6946
194 1 -2.33357 7.2404 18.2564
152 2 3.21917 6.87558 15.8008
248 3 0.461468 6.59166 11.5273
337 2 -2.30032 12.0521 18.5472
309 4 -5.76015 11.9852 18.6273
312 2 -3.51113 10.5098 18.6072
353 2 16.1193 1.83784 8.35378
47 4 10.7006 2.12007 3.99715
350 2 14.4815 0.487777 2.75642
51 4 13.1994 2.34171 5.81665
55 4 11.6853 4.80506 2.42128
359 1 10.4292 2.06522 0.258627
57 4 12.0272 4.6181 7.29399
81 2 7.40051 4.17317 7.84542
212 1 8.84338 3.82021 9.13797
351 1 14.9212 0.593864 1.70769
33 4 5.75995 4.5091 8.21536
354 1 15.9542 0.857766 9.02781
133 2 7.05234 4.84374 1.90336
134 2 8.19466 3.32527 2.41871
135 2 6.93829 4.19005 3.60803
137 2 6.51244 6.30344 4.68332
89 2 16.161 0.791842 3.28863
157 2 8.70569 1.04153 4.35914
158 2 8.2788 2.88435 3.89909
159 2 8.79471 2.35647 5.80035
161 2 8.10847 2.84929 9.03053
166 2 12.838 3.73095 0.605441
167 2 13.4422 3.05693 2.25416
366 2 8.45086 3.90926 0.0745081
172 2 8.44131 5.31343 5.33527
203 1 7.16407 3.88475 2.53263
356 2 10.9168 3.1582 0.213124
211 1 8.85846 2.14793 4.6639
357 2 10.5133 1.58946 1.28583
214 1 13.2231 3.99484 1.66239
204 1 5.44238 6.3814 4.38726
269 3 10.6499 0.740939 2.93879
271 3 10.1188 1.1803 8.32702
272 3 14.3138 2.21974 4.64651
273 3 11.7113 1.75632 5.18419
274 3 13.811 1.51713 7.23456
280 3 11 3.5807 3.29855
281 3 12.3984 6.06581 3.21416