ITEM: TIMESTEP
0
ITEM: NUMBER OF ATOMS
371
ITEM: BOX BOUNDS xy xz yz pp pp pp
-8.8510000000000009e+00 1.7777500000000000e+01 -8.8510000000000009e+00
0.0000000000000000e+00 1.2890096999999999e+01 4.5889999999999997e-01
0.0000000000000000e+00 1.8640300000000000e+01 2.0334600000000000e-01
ITEM: ATOMS id type x y z
360 2 -2.78021 4.33849 1.51376
2 2 2.38812 1.4086 2.82411
345 2 7.4058 0.409567 9.24338
324 2 0.747889 0.480005 8.05783
68 2 1.88175 1.22221 7.03312
7 4 0.816891 2.43585 6.27766
11 4 0.29967 4.16738 2.4401
14 4 -0.875921 4.64058 7.74544
30 4 5.65366 3.00055 1.73298
31 4 1.57051 6.24042 4.16118
72 2 -2.3382 3.84427 8.18639
33 4 5.62836 4.3382 8.26453
35 4 4.28344 5.74345 5.658
5 4 -1.1855 1.9533 4.02275
70 2 1.39829 3.35447 1.34957
237 3 3.64467 0.876671 9.18036
102 2 2.60046 3.58458 5.26526
103 2 3.03204 1.8154 5.50969
104 2 3.25133 3.03922 6.95005
130 2 4.62661 2.06166 3.8164
131 2 4.15199 1.00981 2.27786
132 2 3.50033 2.82793 2.4462
250 3 4.84271 5.1154 7.07321
192 1 2.71524 2.7715 6.04718
202 1 4.26398 2.04905 2.70391
223 3 -0.0347974 1.68194 5.21651
225 3 -0.615773 2.9229 2.91688
226 3 -0.524722 5.28976 1.68816
227 3 0.228754 3.53968 7.29574
229 3 -1.21071 5.73739 6.56967
243 3 6.01071 2.11367 0.287909
244 3 1.15105 4.84461 3.60074
245 3 5.01082 4.38738 1.44686
246 3 4.69129 3.28974 8.95541
249 3 2.78815 6.09426 5.22774
32 4 4.40027 5.77683 0.755693
247 3 -0.348703 5.46874 8.98501
1 4 1.43308 0.149707 2.16161
3 2 -0.0543077 0.789752 1.75056
329 2 -1.57813 2.47977 0.552701
136 2 5.01736 4.75554 4.48489
139 2 2.3368 4.82511 9.11584
335 2 8.01973 1.03739 2.9265
10 4 1.83701 1.72607 11.6051
17 4 0.185198 4.63133 15.4673
73 2 -2.39567 6.02472 12.4229
24 4 6.92248 1.53784 17.5354
26 4 4.29603 2.25118 10.0283
252 3 6.05652 3.21707 13.437
28 4 4.32439 1.97323 16.0804
29 4 6.54662 2.15802 12.4005
253 3 1.19171 5.34645 16.5394
36 4 5.63032 4.18453 14.6992
37 4 2.19026 6.2562 17.6193
251 3 4.38838 3.58571 15.5377
328 2 0.131068 1.63623 18.0659
254 3 3.25858 5.60841 18.6093
78 2 3.50283 2.15896 17.545
110 2 -0.72208 1.99504 10.887
111 2 0.325065 3.41818 11.8903
112 2 -0.423786 1.80812 12.688
113 2 0.563449 2.86632 13.6423
114 2 0.461449 2.30065 15.4309
115 2 1.99726 3.24961 14.7576
69 2 0.65555 0.856314 10.5474
140 2 2.58073 5.4495 10.9241
326 2 -0.0759787 3.62367 17.9374
142 2 2.93953 4.50682 13.8511
143 2 2.86148 4.11983 12.0063
144 2 1.9579 5.66915 12.7275
195 1 0.00915444 2.23391 11.7596
196 1 0.900475 3.09577 14.7207
205 1 2.3194 5.72172 9.7408
206 1 2.87079 4.9376 12.8111
224 3 2.14239 1.04102 12.9744
230 3 -1.30377 3.98487 16.1144
231 3 -0.117487 5.7105 14.1457
18 4 -0.709056 6.44808 12.8322
238 3 2.72135 2.79275 10.9292
239 3 3.33543 0.98848 15.3863
240 3 5.74633 1.36295 16.3443
241 3 5.50422 1.86285 11.0694
242 3 7.40225 0.87232 13.0823
327 1 -0.589437 2.58407 18.1497
38 4 4.20982 6.27369 12.8301
71 2 -1.58291 6.50119 17.9596
331 2 -5.46065 9.34409 4.3193
313 1 -4.68026 10.5549 0.426957
13 4 -0.698553 6.65526 0.82404
16 4 -2.18472 6.96143 6.8212
20 4 -3.28692 8.37815 9.15531
21 4 -3.6566 10.3582 6.89222
325 1 -7.57378 12.1867 7.93511
40 4 0.855121 9.61276 4.37281
42 4 1.57846 8.98312 8.19865
74 2 -4.38375 9.19112 5.76591
79 2 0.232565 7.02597 4.95866
80 2 -1.13391 8.25766 6.4682
337 2 -2.68153 12.325 0.551094
84 2 -0.00798352 9.46217 5.97532
86 2 0.653179 10.3118 7.73697
87 2 2.07971 8.35689 6.77198
105 2 -5.27327 8.62654 2.82128
106 2 -3.58875 7.88124 2.16126
107 2 -3.68774 9.16374 3.6579
108 2 -1.41303 7.98069 1.74785
262 3 0.717615 7.94833 9.00444
323 2 -7.07641 11.9849 6.91923
370 3 -7.66136 11.7008 3.25279
145 2 0.0809701 8.51364 3.09628
146 2 -1.63111 9.49944 4.429
147 2 -1.40959 7.67845 4.64817
12 4 -4.45248 6.8874 4.36612
149 2 -2.66514 11.1788 5.0473
150 2 -1.19692 11.1951 6.44377
193 1 -4.20358 8.30895 3.13483
194 1 -2.60638 7.16814 0.540399
334 1 -6.08505 9.99117 5.07487
207 1 -0.854219 8.6275 4.53901
208 1 -2.33179 11.4645 6.16852
228 3 -3.25582 7.0179 5.64832
233 3 -2.94729 6.81555 8.58828
234 3 -3.03205 9.58322 8.04015
235 3 -4.83895 11.3538 7.50845
312 2 -5.22727 9.53923 0.618858
257 3 1.95454 7.31012 3.00001
259 3 0.814644 11.01 3.64347
333 2 -5.76323 11.062 5.29671
344 2 -1.06398 10.98 8.0871
4 3 -6.86631 12.3553 0.843111
148 2 -2.63153 12.5691 6.39881
129 2 -1.31119 12.492 1.38892
346 1 -0.419761 11.8134 8.47017
6 4 -5.71148 12.1077 8.7376
330 2 -2.95273 8.12968 0.0336485
310 2 -4.4679 11.0378 1.46898
128 2 -1.27702 11.9005 3.28528
201 1 -0.815543 12.6402 2.53193
109 2 -3.38382 6.52522 1.01645
347 2 0.39038 11.5616 9.2888
83 2 2.47103 8.93065 4.55349
88 2 -1.99015 11.4561 9.57385
22 4 -3.72724 10.8941 13.4229
121 2 -2.80238 7.8103 12.3736
43 4 -1.90261 10.3185 10.9312
44 4 2.66115 8.97061 13.7656
45 4 1.07528 10.7967 11.7086
75 2 -2.59134 11.9633 15.0198
311 2 -3.30896 10.6909 18.4668
99 2 -5.51991 9.8852 9.97196
100 2 -6.99975 11.2297 10.3293
101 2 -5.22516 11.4459 11.1404
119 2 -1.05431 8.58141 13.0266
120 2 -2.46978 7.85744 14.1937
125 2 -1.7534 10.1099 15.0481
126 2 -3.81845 9.33462 14.2278
248 3 0.174637 6.49942 11.5171
151 2 3.18205 8.23192 16.669
127 2 -3.45714 10.3246 15.8959
154 2 0.812199 7.44028 14.5896
155 2 0.280737 9.18038 14.5583
156 2 1.53201 8.60224 15.8508
191 1 -5.7904 11.0381 10.2329
198 1 -2.05635 7.74241 13.1874
200 1 -2.72508 10.6294 15.0783
209 1 3.38241 7.17119 16.5221
210 1 1.1208 8.49273 14.8151
232 3 -5.004 8.27272 9.73211
236 3 -5.15354 11.5615 13.6761
265 3 3.33878 7.60408 13.2975
263 3 -2.3626 8.87607 10.4402
264 3 -2.90329 10.8393 12.0991
266 3 -0.345606 10.3905 11.3526
339 1 -1.65078 12.4818 18.1662
315 3 -6.4485 10.9666 17.2001
316 3 -7.48012 11.9874 15.0033
319 2 -0.997532 11.2826 14.3009
8 4 -6.25513 12.7727 14.252
116 2 -4.12595 7.52142 12.5901
336 2 -2.13934 11.884 17.3029
27 4 -0.249405 12.707 13.7842
338 2 -0.603411 12.1658 18.3275
317 2 -4.17375 12.2993 17.9219
34 4 0.623498 6.54028 9.8076
152 2 2.87298 6.8635 15.508
320 2 1.12677 9.14166 18.4683
309 4 -5.75148 11.6835 18.3963
267 3 1.82987 9.8333 12.7697
255 3 0.934327 7.49716 18.5
363 2 -3.73463 6.84625 17.9858
141 2 2.93512 6.5679 9.35007
25 4 8.76121 1.00341 8.09383
47 4 11.0476 1.91061 4.19867
348 2 15.8528 0.969605 0.939526
51 4 13.5737 2.21911 5.91489
55 4 12.3259 4.38729 2.41421
357 2 11.2567 2.3503 1.31175
57 4 12.3365 4.4256 7.57683
354 1 15.7484 0.35612 9.26152
350 2 14.6693 0.455569 2.46732
358 2 9.81274 1.29887 0.396336
93 2 13.3481 5.75898 8.03214
284 3 13.3296 3.73144 6.53418
133 2 7.48711 4.48847 2.82097
134 2 8.12936 2.81473 2.19167
352 2 15.6988 1.52303 9.10124
351 1 15.4268 0.107602 1.53944
89 2 16.1392 0.410782 3.3894
157 2 9.00497 0.939875 4.98788
158 2 8.52309 2.59786 4.14739
159 2 9.5515 2.59313 5.92366
371 3 12.867 0.138533 0.134149
166 2 13.3872 2.9945 0.5511
167 2 14.0187 2.64149 2.401
137 2 6.82891 6.37167 4.98666
172 2 8.56437 4.87125 5.56429
203 1 7.3114 3.37123 2.70397
288 3 11.1408 5.25719 6.88452
211 1 9.20378 2.06987 4.93465
81 2 6.92356 3.42485 7.63803
214 1 13.7229 3.4549 1.6342
359 1 10.6324 2.17363 0.358972
269 3 10.701 0.766672 3.16455
271 3 9.77866 1.96971 8.80954
272 3 14.7387 2.17359 4.70209
273 3 12.0387 1.63272 5.36654
274 3 14.058 1.31511 7.14505
280 3 11.4622 3.2828 3.38499
281 3 13.0515 5.6234 3.35649
282 3 11.4995 4.99595 1.02705
283 3 12.0346 3.61186 8.87519
216 1 8.7444 5.99602 5.43527
77 2 8.15952 1.66332 6.5661
170 2 8.65581 6.28716 4.37497
135 2 6.81836 2.81209 3.63998
161 2 10.0525 5.38563 9.03205
9 4 15.4788 2.62861 16.7758
48 4 12.2786 1.33902 18.0377
368 2 8.9771 5.91627 17.7832
53 4 9.67283 1.72177 16.0761
54 4 11.9557 1.79422 12.4372
60 4 11.665 3.44333 14.9569
82 2 6.96784 4.4045 15.7577
212 1 9.70123 4.56002 9.74182
91 2 13.5026 1.25305 12.2358
94 2 11.1515 5.70455 10.3406
95 2 12.8995 3.19683 16.2808
96 2 11.9818 5.07872 14.643
361 2 12.7587 5.70017 16.654
117 2 11.6643 6.28074 12.7759
369 1 9.63609 5.0128 17.8729
50 4 10.7567 2.9636 9.67579
162 2 9.65613 4.86249 10.8651
163 2 8.22857 4.036 12.2396
164 2 7.66296 3.31319 10.5635
165 2 8.78435 2.35503 11.8323
175 2 7.98963 6.21063 13.9512
92 2 11.2244 0.295933 12.7007
213 1 8.00133 3.1663 11.6749
367 2 9.8407 4.52466 16.8221
270 3 13.6171 2.70911 17.4799
275 3 15.5585 1.31024 15.9348
160 2 8.71222 4.21139 9.39237
277 3 11.2083 1.1936 16.8402
278 3 8.56587 1.99107 17.1833
279 3 11.3302 2.50823 11.1739
256 3 5.26651 5.57495 14.0974
289 3 10.2113 3.40524 15.5334
290 3 12.0161 2.62137 13.7516
343 1 6.19539 6.46239 18.1717
341 2 6.28391 5.42499 17.6102
276 3 9.21019 0.750862 14.9798
56 4 11.2564 6.0184 18.5951
286 3 4.94131 6.26227 11.3629
58 4 6.24199 6.41803 10.3819
356 2 10.5988 3.3522 18.48
174 2 9.80885 6.48865 13.9914
285 3 6.42126 5.27837 9.32148
366 2 9.21024 4.28632 18.589
19 4 9.51512 10.4292 4.21172
23 4 0.941383 12.1393 2.53404
299 3 4.23041 11.7411 8.7798
46 4 5.01066 11.7507 0.85978
215 1 9.88448 7.33672 0.632355
59 4 10.4683 6.4291 6.15659
62 4 4.64375 10.3517 3.815
64 4 7.23216 8.47445 8.29954
66 4 6.93517 10.4436 6.02604
138 2 5.4631 6.5573 3.62068
85 2 5.35903 7.6901 5.2224
98 2 8.66638 7.41969 8.13739
122 2 9.60464 8.11965 3.34317
123 2 8.99487 9.31771 2.03372
124 2 7.74862 8.78805 3.33693
261 3 1.38727 11.168 1.04711
342 2 6.69394 6.45348 0.140597
49 4 5.54082 12.6445 8.00213
185 2 7.73143 10.7592 8.89122
179 2 3.07963 10.5161 5.70758
180 2 2.95617 11.9776 4.42968
181 2 4.34036 11.944 5.63467
182 2 9.64782 8.65439 6.98299
365 2 9.0134 6.67025 1.15104
184 2 10.2045 8.05371 8.5832
41 4 1.92315 10.0006 0.172996
199 1 8.89313 8.98024 3.06228
183 2 11.4794 8.35884 7.47054
219 1 3.60591 11.3444 5.04655
220 1 10.4309 8.06641 7.521
322 2 9.19408 11.32 8.32164
204 1 5.69606 6.61627 4.71249
298 3 2.89678 9.40383 8.78469
287 3 11.4088 7.03439 4.91822
293 3 3.91053 8.93927 3.77633
294 3 4.6601 11.1523 2.23253
171 2 8.08492 6.61976 6.17644
260 3 2.6907 8.97084 1.04401
349 2 7.39019 12.0474 1.84075
301 3 8.52637 10.5125 5.46941
302 3 6.1354 10.3508 4.55632
303 3 6.76467 9.14286 6.93441
304 3 6.42692 11.6487 6.97468
258 3 4.36121 7.15327 1.68219
169 2 10.7309 7.76292 1.29961
186 2 9.20892 9.5938 8.99404
39 4 3.18972 8.01334 2.25875
221 1 8.12495 9.79095 9.2824
76 2 0.837943 12.3771 7.22052
355 2 7.95 12.6079 8.9041
332 2 10.9177 9.34762 6.02975
15 4 11.2799 7.37244 10.7976
153 2 4.47622 6.9379 16.546
61 4 8.39785 7.77762 12.1909
63 4 6.73057 9.82463 17.5561
292 3 7.42297 6.55292 11.4395
67 4 4.3266 10.563 16.1761
97 2 6.823 8.33649 18.3657
52 4 6.30793 12.6087 15.3442
353 2 6.50666 12.7513 10.2891
321 2 7.49307 11.4318 15.8213
176 2 8.40994 10.2984 12.1229
177 2 7.46056 9.66063 13.5603
178 2 6.53986 9.71011 11.848
340 2 5.81354 7.32882 17.467
187 2 7.96403 9.75438 10.456
188 2 5.38629 9.18793 10.2258
189 2 4.18619 9.62706 11.7401
190 2 5.45848 10.8319 11.0792
268 3 0.831812 12.4561 12.5679
218 1 7.59606 9.62692 12.4617
222 1 4.81495 9.96572 10.8505
314 4 9.85209 10.7774 15.9986
118 2 11.4675 8.15773 13.0315
197 1 12.0724 7.3744 12.5078
90 2 6.4888 12.5491 13.7273
291 3 9.79435 7.89219 11.0191
296 3 6.25454 10.9817 18.5857
295 3 8.26673 10.3389 16.7253
173 2 8.63862 7.93592 14.5121
300 3 2.1046 11.2297 10.5652
305 3 3.51687 9.85321 14.8158
306 3 5.61693 9.59109 16.4073
307 3 4.87717 12.0662 15.7423
308 3 3.03329 10.5161 17.5155
318 2 10.2976 9.5219 15.0201
65 4 3.41395 10.713 9.66139
364 2 12.2047 7.49941 16.8315
217 1 8.77859 6.98124 13.8279
168 2 9.94256 8.24746 18.5291
297 3 6.19432 7.88033 9.38482
362 1 12.6616 6.61774 17.3242
ITEM: TIMESTEP
100
ITEM: NUMBER OF ATOMS
371
ITEM: BOX BOUNDS xy xz yz pp pp pp
-8.8510000000000009e+00 1.7777500000000000e+01 -8.8510000000000009e+00
0.0000000000000000e+00 1.2890096999999999e+01 4.5889999999999997e-01
0.0000000000000000e+00 1.8640300000000000e+01 2.0334600000000000e-01
ITEM: ATOMS id type x y z
360 2 -2.69763 4.22755 1.81183
2 2 2.18524 1.65108 2.75615
345 2 7.22667 0.389687 8.67874
324 2 1.14438 0.758554 8.72084
68 2 2.04187 1.4514 7.20132
7 4 0.96123 2.46631 6.26533
11 4 0.230668 4.16703 2.40512
14 4 -0.83561 4.5566 7.73908
30 4 5.54033 3.00181 1.79754
31 4 1.69216 6.14302 4.08568
72 2 -2.23154 3.89927 8.45013
33 4 5.60009 4.28764 8.2958
35 4 4.29351 5.73544 5.69082
5 4 -1.11233 2.01564 4.09781
70 2 1.25088 3.48647 1.30192
135 2 6.71793 2.52052 3.68709
102 2 2.57184 3.63118 4.99333
103 2 3.34837 1.97006 5.67588
104 2 3.41062 3.52717 6.73008
130 2 4.84675 1.05815 3.31139
131 2 3.62067 1.32363 1.90699
132 2 3.61446 2.43318 3.40379
250 3 4.87761 5.13624 7.04756
192 1 2.82397 2.93826 5.88857
202 1 4.18274 1.80299 2.76271
223 3 0.176598 1.62357 5.05179
225 3 -0.745946 3.06257 3.02891
226 3 -0.481207 5.30883 1.49387
227 3 0.0118617 3.34987 7.21299
229 3 -1.30191 5.72156 6.60808
243 3 6.12269 2.11856 0.557584
244 3 1.29459 4.74134 3.48153
245 3 5.01775 4.39814 1.4746
246 3 4.53178 3.37644 8.94592
249 3 2.73038 6.00642 5.43907
32 4 4.44056 5.74693 0.735076
247 3 -0.0971964 5.31629 8.85691
1 4 1.46019 0.215708 2.17247
3 2 -0.0607032 0.867454 1.61231
201 1 8.04345 0.111771 2.16359
136 2 4.95224 5.0384 4.26425
139 2 2.65107 5.18435 9.01597
10 4 1.79118 1.71275 11.6862
17 4 0.259874 4.53588 15.3845
73 2 -2.61496 6.0665 12.6974
24 4 6.97544 1.4496 17.6598
26 4 4.20794 2.20292 9.98674
252 3 6.00847 3.16969 13.6239
28 4 4.27683 2.06734 16.2211
29 4 6.59271 2.12518 12.5493
253 3 1.45107 5.1258 16.6014
36 4 5.55289 4.20536 14.7109
37 4 2.2295 6.12013 17.6247
251 3 4.39236 3.56516 15.5352
328 2 0.087541 1.73889 18.0218
71 2 -1.65606 6.26175 17.9467
78 2 3.38068 2.40064 17.6671
110 2 -0.644375 2.20031 10.7723
111 2 0.315084 3.37222 12.0676
112 2 -0.627571 1.62453 12.6558
113 2 0.476614 2.74852 13.6241
114 2 0.694765 2.1278 15.466
115 2 2.06114 3.13642 14.6962
69 2 0.69415 0.84841 10.6177
140 2 2.5789 5.30864 10.9668
326 2 -0.00928526 3.63172 18.0685
142 2 2.94087 4.51092 13.973
143 2 2.84963 4.14465 12.1601
144 2 1.95442 5.6479 12.7873
195 1 -0.096549 2.17005 11.7619
196 1 0.938804 2.96934 14.6797
205 1 2.39186 5.82218 9.87506
206 1 2.84201 4.91375 12.9305
224 3 2.15629 0.770839 12.9441
230 3 -1.37379 4.0852 15.9682
231 3 -0.0494087 5.50784 14.0485
18 4 -0.724032 6.43012 12.7662
238 3 2.69984 2.73487 10.9299
239 3 3.45728 1.11612 15.2712
240 3 5.68044 1.53905 16.7055
241 3 5.47365 2.01957 11.1544
242 3 7.19733 0.744152 13.0824
327 1 -0.58912 2.63983 18.1642
38 4 4.19631 6.25293 12.8672
34 4 0.583219 6.39781 9.77147
237 3 3.82541 0.832961 9.35981
254 3 3.34717 5.55138 18.6123
331 2 -5.47892 9.36904 4.35807
313 1 -4.5665 10.546 0.434287
13 4 -0.787924 6.60607 0.538413
16 4 -2.25165 6.93143 6.73942
20 4 -3.25775 8.26 9.21681
21 4 -3.66535 10.4303 7.01855
325 1 -7.54353 12.533 8.06485
40 4 0.839052 9.55559 4.41971
42 4 1.46613 8.87603 8.13659
74 2 -4.33081 9.43985 5.6227
79 2 0.314439 6.95496 4.69896
80 2 -1.253 8.31567 6.31508
337 2 -2.81967 11.7366 0.207244
84 2 -0.0708145 9.45836 5.97212
86 2 0.549798 10.2755 7.70329
87 2 1.74653 8.13199 6.67371
105 2 -5.05676 8.86094 2.9095
106 2 -3.53094 7.95648 2.12876
107 2 -3.40052 8.96642 3.84999
108 2 -1.68661 7.93856 1.59537
262 3 0.648688 7.87663 8.97822
323 2 -7.90271 12.7317 6.98969
370 3 -7.62089 11.8419 3.29351
145 2 0.174548 8.30466 3.10507
146 2 -1.45546 9.41743 4.27037
147 2 -1.39078 7.57965 4.53021
12 4 -4.38169 6.88511 4.3597
149 2 -2.68477 11.1823 5.10948
150 2 -1.31587 11.5504 6.34713
193 1 -4.12411 8.32827 3.20264
194 1 -2.6692 7.3764 0.405988
334 1 -6.21478 9.90953 5.118
207 1 -0.811969 8.55965 4.46233
208 1 -2.40133 11.5132 6.22202
228 3 -3.37419 6.97389 5.67385
233 3 -2.86033 6.84213 8.5229
234 3 -2.98248 9.34514 7.98284
235 3 -4.78371 11.3726 7.77992
312 2 -5.24816 9.61632 0.629135
257 3 2.09594 7.0979 2.93519
259 3 0.761426 11.007 3.76413
333 2 -5.82993 10.9547 5.47653
344 2 -1.10599 10.8664 8.30433
4 3 -6.66472 12.384 0.896128
148 2 -2.84043 12.5376 6.46752
129 2 -1.21083 12.4722 1.0536
346 1 -0.513147 11.8096 8.42618
6 4 -5.64884 12.1578 8.92636
109 2 -3.54997 6.81934 0.836138
310 2 -4.02797 10.932 1.34991
128 2 -1.3578 12.1165 3.09305
83 2 2.39077 8.86663 4.71854
88 2 -1.95913 11.3482 9.68332
22 4 -3.73727 10.942 13.4454
121 2 -2.84685 8.15527 12.6995
43 4 -1.89707 10.2199 10.9537
44 4 2.47258 9.02882 13.9446
45 4 1.12991 11.0718 11.8045
75 2 -2.60665 11.8366 15.115
311 2 -3.34592 10.4222 18.2335
99 2 -5.42983 9.83971 10.1547
100 2 -6.91976 10.9113 10.4887
101 2 -5.22275 11.5585 11.0651
119 2 -0.71699 8.44153 13.1471
120 2 -2.37057 7.57379 14.4236
125 2 -1.72107 9.9896 14.9578
126 2 -4.00827 9.4163 14.1937
141 2 2.97213 6.80773 9.8542
151 2 2.9548 8.21595 16.864
127 2 -3.3139 10.0118 15.9509
154 2 0.717682 7.43419 14.6564
155 2 0.135198 9.27776 14.5522
156 2 1.12289 8.68139 16.0101
191 1 -5.83335 10.9204 10.335
198 1 -2.03164 7.64598 13.3247
200 1 -2.73212 10.5102 15.116
209 1 3.30914 7.1747 16.5522
210 1 0.9609 8.538 14.9158
232 3 -4.86973 8.08265 9.79076
236 3 -5.0536 11.7018 13.6076
265 3 3.39386 7.59776 13.2453
263 3 -2.29639 8.78795 10.4475
264 3 -2.96075 10.7335 12.0429
266 3 -0.327896 10.2714 11.5897
339 1 -1.65887 12.3055 17.9558
315 3 -6.41363 11.0006 17.2412
316 3 -7.50298 11.8909 14.9611
319 2 -1.1247 11.3797 14.3144
8 4 -6.12521 12.6907 14.205
116 2 -4.15752 7.95808 12.3535
336 2 -2.05563 11.7295 17.0642
27 4 -0.316346 12.8339 13.764
338 2 -0.516184 12.2124 18.1022
317 2 -4.00003 12.3041 17.9282
330 2 -2.48455 8.50239 18.4933
152 2 3.20859 7.00083 15.3839
320 2 1.12033 9.07436 18.3122
309 4 -5.61066 11.7175 18.3801
248 3 -0.0624366 6.47697 11.2989
255 3 0.873454 7.41585 18.3709
363 2 -3.87693 7.06118 17.9261
267 3 2.08064 10.0149 12.7209
347 2 0.179275 11.7103 9.35524
25 4 8.93037 1.00268 7.91379
47 4 11.1208 1.99154 4.10339
348 2 15.8558 0.286574 0.361141
51 4 13.5998 2.18895 5.81156
55 4 12.407 4.49297 2.41578
357 2 11.3499 2.25548 1.44207
57 4 12.4104 4.42566 7.58043
354 1 15.7211 0.377701 9.18396
350 2 15.0714 1.15297 1.84822
358 2 9.90978 1.2612 0.683356
93 2 13.4191 5.61921 8.18963
284 3 13.2941 3.70152 6.45163
133 2 7.23083 4.32636 3.16992
134 2 8.12671 2.91393 2.29383
329 2 15.5365 2.35676 0.496638
351 1 15.3882 0.166757 1.36952
89 2 15.9758 0.52894 3.22628
157 2 9.25697 1.13164 5.15985
158 2 8.60216 2.76397 4.23873
159 2 9.64425 2.94723 5.87001
371 3 12.6623 0.207813 0.209455
166 2 13.5328 3.14061 0.567527
167 2 13.894 2.5087 2.39995
335 2 7.88847 1.21726 2.33641
172 2 8.29072 5.12206 6.01823
203 1 7.18621 3.28413 2.83686
288 3 11.0058 5.02593 7.11422
211 1 9.43485 2.36323 4.98202
81 2 6.6637 3.2841 7.52107
214 1 13.7551 3.40506 1.6828
359 1 10.6102 2.10408 0.478904
269 3 10.6175 0.597641 2.9386
271 3 9.78674 1.84247 8.90889
272 3 14.8782 2.26455 4.85456
273 3 12.1979 1.52893 5.08845
274 3 14.0896 1.18372 7.11435
280 3 11.5168 3.33402 3.33812
281 3 13.1693 5.57735 3.38795
282 3 11.443 5.15714 1.23332
283 3 12.1697 3.43931 8.79085
216 1 8.68566 6.05998 5.57
77 2 8.33667 1.96361 6.59366
170 2 8.61986 6.14347 4.46272
352 2 15.4947 1.52461 9.07036
161 2 10.0119 5.30988 9.10161
366 2 8.93964 3.99517 0.152048
355 2 16.8153 0.136144 8.88202
9 4 15.4866 2.7468 16.7523
48 4 12.3079 1.54112 18.0713
368 2 8.93327 5.93623 17.9788
53 4 9.77001 1.72163 16.1049
54 4 11.9204 2.0371 12.3274
60 4 11.6141 3.63697 14.9162
82 2 6.82568 4.38267 15.7855
212 1 9.62526 4.51116 9.76582
91 2 13.5386 1.9728 11.8839
94 2 11.1044 5.63933 10.3679
95 2 12.8704 3.29943 16.1829
96 2 11.9151 5.321 14.6992
361 2 12.5372 5.62226 16.7449
117 2 12.1699 6.28835 12.7215
369 1 9.69021 5.00496 18.0149
50 4 10.8337 3.00148 9.67827
162 2 9.44941 4.91282 10.8339
163 2 8.17972 4.1365 12.4409
164 2 7.82115 3.42018 10.8128
165 2 8.88384 2.51613 11.9727
285 3 6.39824 5.1315 9.4253
92 2 11.4355 0.450423 12.6559
213 1 8.04138 3.20153 11.9093
367 2 9.93991 4.54582 16.9388
270 3 13.6301 2.91082 17.3743
275 3 15.5301 1.3873 15.9046
58 4 6.14452 6.42582 10.3558
277 3 11.1305 1.13057 16.9207
278 3 8.45389 2.00213 17.0315
279 3 11.1098 2.63187 11.1966
256 3 5.23938 5.75727 14.0477
289 3 10.2294 3.45896 15.5735
290 3 11.9111 2.86394 13.6494
286 3 4.8048 6.2646 11.3018
341 2 6.17866 5.61303 17.4694
276 3 9.25696 0.842472 14.913
56 4 11.1978 6.13729 18.564
356 2 10.6095 3.3893 18.639
160 2 8.72597 3.95698 9.35137
19 4 9.39879 10.5556 4.27076
23 4 0.843452 12.0746 2.44965
299 3 4.31593 11.776 8.79881
46 4 5.07802 11.7156 0.946084
215 1 10.0794 7.63562 0.641171
59 4 10.4197 6.43125 6.25523
62 4 4.56833 10.4427 3.75617
64 4 7.20492 8.42183 8.31383
66 4 6.82972 10.3009 5.97363
138 2 5.47407 6.83679 3.69117
85 2 5.18044 7.83332 5.38853
98 2 8.52612 7.29714 8.13275
122 2 9.83995 8.40691 3.47552
123 2 8.97993 9.38864 2.0566
124 2 7.93794 8.54235 3.40739
261 3 1.2141 11.1264 0.834869
137 2 6.73766 6.59373 5.15318
49 4 5.64499 12.4971 7.87266
185 2 7.60989 10.7913 8.6243
179 2 2.97874 11.0318 5.68767
180 2 2.92888 12.2578 4.17109
181 2 4.44415 12.2172 5.4402
182 2 9.61554 8.77356 7.00203
365 2 9.55614 7.17142 1.58328
184 2 10.0584 7.80682 8.66466
41 4 1.91248 9.9304 0.140114
199 1 8.91802 9.03599 3.12874
183 2 11.3253 8.49354 7.44683
219 1 3.63482 11.6075 4.95264
220 1 10.3005 8.03184 7.5324
322 2 9.14078 11.6676 8.48412
204 1 5.63615 6.8194 4.85438
298 3 2.81792 9.21684 8.68139
287 3 11.2281 6.97469 4.9967
293 3 3.76375 9.03472 3.75145
294 3 4.72475 11.1137 2.32282
171 2 8.20341 7.05701 6.07518
260 3 2.76561 9.10095 1.18568
349 2 7.21645 12.1799 1.96467
301 3 8.4641 10.6449 5.57372
302 3 6.00929 10.255 4.65323
303 3 6.77699 8.7569 6.82924
304 3 6.40203 11.5161 6.84459
258 3 4.46795 7.08674 1.74477
169 2 11.0088 8.23812 1.02135
186 2 9.17118 9.77888 8.84863
39 4 3.26692 7.95434 2.205
221 1 8.11214 9.94188 9.13194
76 2 0.697311 12.2471 7.05296
332 2 10.815 9.22808 5.97276
342 2 6.65789 6.4179 0.106847
15 4 11.3487 7.3308 10.8822
153 2 4.3914 7.01048 16.9924
61 4 8.38925 7.75381 12.0577
63 4 6.68122 9.84604 17.4927
292 3 7.44021 6.64965 11.2558
67 4 4.24162 10.5515 16.154
97 2 6.82961 8.41711 18.4
52 4 6.28261 12.6223 15.3903
353 2 6.66206 12.6942 10.2242
321 2 7.59069 11.5924 15.8907
176 2 8.24989 10.3128 12.101
177 2 7.23791 9.24266 13.3876
178 2 6.47249 9.64741 11.7195
340 2 6.1242 7.45069 17.3028
187 2 7.93612 9.88754 10.3015
188 2 5.13174 9.11326 10.5247
189 2 4.08276 9.80108 11.9053
190 2 5.37024 10.9621 11.0486
268 3 0.981437 12.4367 12.6031
218 1 7.4791 9.47197 12.2535
222 1 4.62693 10.0059 10.9366
314 4 9.86866 10.7984 16.0009
118 2 11.2754 8.00088 13.1094
197 1 12.0962 7.40839 12.5747
90 2 6.48828 12.5535 13.7625
291 3 9.98877 8.06181 11.1481
296 3 6.19367 10.9179 18.5076
295 3 8.31438 10.392 16.6495
173 2 9.02082 8.11855 14.4666
300 3 2.06765 11.418 10.4176
305 3 3.47685 9.74057 14.8897
306 3 5.66308 9.41203 16.3901
307 3 4.86898 12.0217 15.7005
308 3 3.1671 10.3664 17.4875
318 2 10.5163 9.35065 15.2179
65 4 3.38743 10.7428 9.72911
364 2 12.1386 7.57846 16.5187
217 1 8.76851 7.21851 13.8617
168 2 9.8753 8.39761 18.5681
297 3 6.12425 7.82028 9.38983
362 1 12.4616 6.72334 17.2061
174 2 9.71668 6.55295 13.6756
343 1 6.19579 6.58435 18.0233
175 2 7.87729 6.6732 14.3281
ITEM: TIMESTEP
200
ITEM: NUMBER OF ATOMS
371
ITEM: BOX BOUNDS xy xz yz pp pp pp
-8.8510000000000009e+00 1.7777500000000000e+01 -8.8510000000000009e+00
0.0000000000000000e+00 1.2890096999999999e+01 4.5889999999999997e-01
0.0000000000000000e+00 1.8640300000000000e+01 2.0334600000000000e-01
ITEM: ATOMS id type x y z
360 2 -2.60698 4.10458 1.6163
2 2 2.2519 1.60305 2.91748
345 2 7.26971 0.47908 8.73694
324 2 1.087 0.66754 8.63222
68 2 1.91565 1.28685 7.27192
7 4 1.00219 2.38801 6.14481
11 4 0.180311 4.18942 2.31621
14 4 -0.737518 4.43363 7.67945
30 4 5.71874 2.76048 1.82201
31 4 1.67356 6.07651 4.05985
72 2 -1.939 3.50216 8.38913
33 4 5.46845 4.24843 8.2749
35 4 4.31567 5.91261 5.63539
5 4 -1.17555 2.04212 3.95626
70 2 1.0278 3.24468 1.31407
135 2 6.83196 2.31873 3.84847
102 2 2.82322 3.50063 5.26427
103 2 3.27548 1.64898 5.73363
104 2 3.30009 2.98157 7.09036
130 2 4.70631 1.13017 3.38059
131 2 3.62162 1.21188 1.79786
132 2 3.57612 2.71868 3.14572
250 3 4.86859 5.05589 7.00728
192 1 2.88941 2.67222 6.13189
202 1 4.20157 1.77968 2.64655
223 3 0.272782 1.77543 4.87734
225 3 -0.869874 3.18118 2.94676
226 3 -0.551169 5.34512 1.51177
227 3 0.144396 3.40638 6.91929
229 3 -1.41164 5.49392 6.5404
243 3 6.31192 1.76935 0.610791
244 3 1.19286 4.68614 3.47443
245 3 5.06753 4.40463 1.34713
246 3 4.36278 3.30507 8.96564
249 3 2.80386 6.06735 5.27328
32 4 4.48252 5.833 0.764943
247 3 -0.0104525 5.15312 8.91005
1 4 1.45323 0.254824 2.12766
3 2 -0.0277886 1.0837 1.64105
201 1 7.978 0.0755766 2.27259
136 2 5.03523 5.05886 4.2941
139 2 2.66358 4.99214 9.20486
335 2 7.79609 1.18769 2.52557
10 4 1.67688 1.61999 11.6016
17 4 0.314648 4.49244 15.3252
73 2 -2.4602 6.06031 12.8338
24 4 7.07537 1.47392 17.754
26 4 4.16421 2.2398 10.186
252 3 6.07185 3.27575 13.7256
28 4 4.17122 2.18522 16.3405
29 4 6.61531 2.28618 12.487
253 3 1.2886 5.10994 16.472
36 4 5.58278 4.21348 14.8683
37 4 2.20559 6.11476 17.4422
251 3 4.42826 3.6472 15.7305
328 2 -0.519683 1.60162 17.9383
71 2 -1.89209 6.16989 17.9825
78 2 3.03876 2.35888 17.6225
110 2 -0.732502 2.27496 10.83
111 2 0.394816 3.5163 11.9028
112 2 -0.615374 1.92061 12.6944
113 2 0.423992 2.55269 13.6881
114 2 0.40278 2.08924 15.6391
115 2 2.00057 2.89146 14.7943
69 2 0.429534 0.948807 10.5339
140 2 2.57159 5.53488 11.0164
326 2 0.0759456 3.36232 18.0398
142 2 2.75639 4.70383 14.1332
143 2 2.79438 4.13767 12.2269
144 2 1.92479 5.82339 12.7743
195 1 -0.100094 2.36033 11.7612
196 1 0.864479 2.82927 14.795
205 1 2.395 5.82457 9.84577
206 1 2.78093 5.01659 12.9955
224 3 2.0808 0.807984 12.8999
230 3 -1.42433 4.03794 15.9546
231 3 -0.0259776 5.52496 13.9421
18 4 -0.673121 6.22542 12.7953
238 3 2.70925 2.71126 11.0461
239 3 3.49429 1.17822 15.3059
240 3 5.59034 1.73531 16.8651
241 3 5.60319 2.21179 11.2602
242 3 7.29768 0.933237 13.0987
327 1 -0.759257 2.6855 18.1217
38 4 4.16796 6.29099 12.9125
34 4 0.55597 6.38586 9.72983
237 3 3.85307 0.700109 9.66877
254 3 3.23057 5.84711 18.6269
248 3 -0.0495312 6.34633 11.3529
152 2 3.08049 6.39005 15.3167
256 3 5.12361 5.65206 14.0707
331 2 -5.54518 9.53994 4.29434
313 1 -4.41848 10.3401 0.0919725
13 4 -0.879894 6.4689 0.43834
16 4 -2.28503 6.77218 6.75825
20 4 -3.0272 8.23069 9.21319
21 4 -3.57161 10.4228 6.99969
325 1 -7.4941 12.3361 8.2765
40 4 0.795352 9.52589 4.20258
42 4 1.49371 8.87567 8.15011
74 2 -4.37159 9.5573 5.82659
79 2 0.240746 6.85842 4.60735
80 2 -1.26265 8.11827 6.50209
337 2 -2.181 11.5247 0.0917579
84 2 0.0441161 9.22934 5.86422
86 2 0.428458 10.1986 7.80509
87 2 1.53162 8.33979 6.5291
105 2 -5.38358 8.76606 2.85053
106 2 -3.78298 8.02472 2.10115
107 2 -3.74937 9.04233 3.76205
108 2 -1.55698 7.89226 1.56978
262 3 0.745189 7.91173 9.08485
323 2 -7.54637 12.2171 7.16236
370 3 -7.68531 11.8201 3.20133
145 2 0.156671 8.16601 3.09117
146 2 -1.66774 9.2422 4.24305
147 2 -1.32021 7.52249 4.72988
12 4 -4.40371 6.89876 4.38309
149 2 -3.09144 11.797 5.20161
150 2 -1.48791 10.9551 5.78656
193 1 -4.33848 8.37309 3.09188
194 1 -2.71744 7.35229 0.461436
334 1 -6.18072 10.0308 5.09913
207 1 -0.846428 8.50545 4.54992
208 1 -2.38924 11.5305 6.10681
228 3 -3.3363 6.92996 5.65765
233 3 -2.8949 6.77168 8.5724
234 3 -2.70814 9.43175 8.02982
235 3 -4.72599 11.2578 7.8683
312 2 -5.41241 9.47703 0.477214
257 3 2.26373 6.95479 2.93971
259 3 0.612386 10.9625 3.54787
333 2 -5.73267 10.9988 5.4868
344 2 -1.14498 10.7796 8.30883
4 3 -6.54356 12.4036 0.968545
148 2 -2.17922 12.4233 6.77037
129 2 -1.12589 12.536 1.13155
346 1 -0.599283 11.7539 8.52148
6 4 -5.58418 12.0352 9.0353
109 2 -3.63334 6.88847 1.03679
310 2 -3.95712 10.7907 1.05408
128 2 -1.34923 12.0218 3.02225
83 2 2.33464 9.10916 4.76209
88 2 -2.13523 11.39 9.6806
22 4 -3.64831 10.7334 13.56
121 2 -2.67797 7.85543 12.7786
43 4 -1.82192 10.2211 10.9922
44 4 2.5124 9.12735 13.969
45 4 1.14193 10.9529 11.7628
75 2 -2.46928 11.9402 14.9938
311 2 -3.21169 9.89768 18.225
99 2 -5.29934 9.79197 10.1061
100 2 -6.9425 10.9047 10.457
101 2 -5.34791 11.3444 11.3543
119 2 -0.757631 8.43816 13.0162
120 2 -1.82967 7.8435 14.5201
125 2 -1.48342 9.93937 15.1573
126 2 -3.64336 9.17261 14.3265
141 2 2.92487 6.80672 9.54417
151 2 2.99031 7.99579 16.409
127 2 -3.22599 10.2811 15.9275
154 2 1.19929 7.33545 14.7639
155 2 0.102892 8.82773 14.3591
156 2 0.959424 8.7396 15.9875
191 1 -5.79685 10.9116 10.4176
198 1 -1.68255 7.74858 13.4034
200 1 -2.48228 10.539 15.1103
209 1 3.33699 6.9042 16.2589
210 1 1.00535 8.45833 14.9288
232 3 -4.66511 8.30984 9.82065
236 3 -4.96793 11.5407 13.7058
265 3 3.34686 7.66688 13.3175
263 3 -2.06001 8.69723 10.5805
264 3 -2.80385 10.5983 12.2229
266 3 -0.357462 10.488 11.3647
339 1 -1.31289 12.3067 17.9384
315 3 -6.51982 11.2549 17.3095
316 3 -7.44886 11.8732 14.943
319 2 -0.829967 11.3429 14.2496
8 4 -6.14914 12.606 14.2644
116 2 -3.98601 7.99617 12.415
336 2 -1.55383 11.9953 16.856
27 4 -0.234434 12.8329 13.6905
338 2 -0.219831 12.1994 18.0365
317 2 -3.9312 12.1467 17.7663
330 2 -2.70078 8.43154 18.4726
267 3 1.77606 9.95935 12.8135
320 2 1.26307 8.86433 18.1799
309 4 -5.52706 11.7026 18.4406
347 2 0.154492 11.6693 9.33468
255 3 0.770594 7.26279 18.1583
363 2 -3.84542 7.0508 17.965
25 4 8.90393 0.879155 7.8681
47 4 11.1777 2.08361 4.00045
161 2 10.1492 5.37304 9.0222
51 4 13.628 2.21488 5.84091
55 4 12.4452 4.5478 2.46313
357 2 11.3863 2.48949 1.32092
57 4 12.3014 4.40548 7.56688
354 1 15.661 0.394567 9.03596
350 2 15.341 1.03334 1.38629
358 2 9.92025 1.35597 0.569412
93 2 13.2704 5.67226 8.23426
284 3 13.1953 3.6469 6.5543
133 2 6.77921 4.24078 3.34741
134 2 8.18939 3.05327 2.64837
56 4 10.7226 6.10553 0.104657
81 2 6.67791 3.32634 7.69272
89 2 15.7139 0.635479 3.0201
157 2 9.46276 0.941096 5.27404
158 2 8.66963 2.57676 4.45418
159 2 9.91726 2.6789 5.98249
371 3 12.9418 0.285749 0.14171
166 2 13.4933 3.18639 0.47541
167 2 13.8036 2.63776 2.3239
366 2 8.89964 4.38499 0.244318
172 2 8.14521 5.24936 6.40983
203 1 7.13263 3.11599 3.07254
288 3 10.9974 5.11912 6.94192
211 1 9.58444 2.10901 5.05958
352 2 15.5465 1.49799 8.91986
214 1 13.7458 3.49442 1.5673
359 1 10.7353 2.2726 0.420376
269 3 10.7834 0.559778 2.81944
271 3 9.8172 1.82846 8.77142
272 3 14.9004 2.32601 4.89134
273 3 12.3908 1.71012 4.91119
274 3 13.7632 1.0802 7.03674
280 3 11.4247 3.51147 3.22039