ITEM: TIMESTEP
0
ITEM: NUMBER OF ATOMS
371
ITEM: BOX BOUNDS xy xz yz pp pp pp
-8.7228510000000004e+00 1.7777500000000000e+01 -8.7228510000000004e+00
0.0000000000000000e+00 1.3020299999999999e+01 4.5889999999999997e-01
0.0000000000000000e+00 1.8640300000000000e+01 2.0540000000000000e-01
ITEM: ATOMS id type x y z
1 4 1.78034 0.610613 2.63101
2 2 3.31924 1.11925 3.20246
3 2 0.901793 2.05429 2.64913
4 3 1.84399 0.176474 1.12143
68 2 0.977453 1.12084 7.2321
7 4 0.782392 2.58089 6.26922
11 4 -0.254141 4.47032 2.29638
14 4 -0.231988 5.12503 7.72216
30 4 5.69108 2.94696 2.1609
31 4 1.57547 5.97428 4.18115
32 4 4.02729 5.39781 1.00254
139 2 2.47108 4.36459 9.21702
35 4 4.33761 6.0557 5.66269
246 3 4.79774 3.38331 8.82847
70 2 0.350016 3.56459 0.880929
72 2 -1.49285 4.74281 8.77886
102 2 2.22575 3.01655 4.50065
103 2 3.02414 1.76869 5.77535
104 2 3.1283 3.67512 6.049
130 2 5.10051 0.788284 3.57094
131 2 4.1781 2.34304 4.33256
132 2 6.12407 2.21477 4.24577
247 3 0.617183 6.29206 8.39411
192 1 2.56366 2.80306 5.57154
202 1 5.10365 1.90259 3.67368
223 3 -0.332584 2.35485 5.12526
225 3 -1.18177 3.4846 3.07783
226 3 -0.851836 5.80282 1.79262
227 3 0.468128 3.84626 7.28483
229 3 -1.05701 5.92431 6.18206
243 3 6.19838 2.00714 0.923881
244 3 1.21969 4.72181 3.24821
245 3 4.48231 4.18323 1.97627
335 2 8.09952 0.834799 2.4315
249 3 2.87727 5.90822 5.10938
254 3 2.43556 5.15012 0.0865745
324 2 2.13696 1.29469 8.80906
360 2 -3.06153 4.7221 1.6071
250 3 4.92141 5.33743 6.96905
33 4 5.5924 4.64572 8.20959
79 2 0.212335 6.19549 5.24451
325 1 2.13611 0.205407 8.55167
347 2 8.32092 0.122695 9.0101
141 2 3.62283 5.85081 9.28945
353 2 -1.13428 2.13138 8.23096
10 4 2.36351 1.58125 11.6369
17 4 0.105128 4.36106 15.5105
18 4 -0.560151 5.89625 12.5113
24 4 6.97879 1.39097 18.0495
26 4 4.96459 2.39096 10.1499
38 4 4.54055 6.40402 12.991
28 4 4.39896 2.16133 16.4758
253 3 1.03363 5.23626 16.5915
248 3 0.395285 6.17838 11.2931
8 4 3.11928 0.19963 14.3593
37 4 2.04154 6.06516 17.6285
152 2 3.35837 6.24549 15.4661
36 4 5.8501 4.24726 14.8362
73 2 -2.09426 5.22055 12.0138
78 2 3.2451 2.3661 17.6593
110 2 0.443825 2.34258 10.6253
111 2 1.20033 3.65732 11.8215
112 2 0.0412864 2.19067 12.5078
113 2 2.12309 3.24064 15.3762
114 2 1.07373 2.75596 13.7078
115 2 0.587144 2.10337 15.5824
252 3 6.13195 3.20483 13.6397
140 2 2.98857 5.17383 10.9122
251 3 4.77841 3.65406 15.8987
142 2 3.34609 4.60652 13.9483
143 2 3.44107 4.10087 12.1794
144 2 2.38049 5.56052 12.5866
195 1 0.736118 2.65318 11.7305
196 1 1.1367 2.98121 14.921
205 1 2.7961 5.34326 9.76786
206 1 3.26428 4.96309 12.8776
224 3 2.64588 0.958574 13.0679
230 3 -1.32824 3.75152 16.0927
231 3 -0.18405 5.28734 13.927
237 3 4.82618 0.856443 9.60078
238 3 3.57692 2.57839 11.1108
239 3 3.84985 1.11218 15.3996
240 3 5.68898 1.73613 17.2047
241 3 6.41914 2.57269 10.9918
242 3 7.80831 1.27325 12.9541
153 2 4.35814 6.36468 17.1424
326 2 -0.274265 1.77034 17.2111
341 2 5.5652 4.89057 17.5248
330 2 -1.8052 6.01704 17.8371
69 2 1.7672 0.421214 10.4848
276 3 8.68351 0.481827 15.2537
29 4 7.04057 2.62472 12.4646
201 1 -0.821288 12.5285 2.22297
12 4 -4.60644 7.12188 4.34478
13 4 -0.907541 6.9422 0.676793
16 4 -2.20307 7.04348 6.6538
344 2 0.963234 11.4677 9.04142
21 4 -3.56969 10.466 6.92445
39 4 3.1049 7.91019 2.35133
40 4 0.578785 9.61103 4.53902
42 4 2.35037 9.18762 8.71208
74 2 -4.89057 9.5832 6.19008
71 2 -3.46635 6.93407 0.274707
80 2 -1.53943 8.59807 6.65401
83 2 2.02424 8.70935 4.52402
84 2 0.66234 9.78124 6.20561
86 2 0.92699 9.907 8.2325
87 2 2.58541 8.5783 7.14795
105 2 -5.2208 9.12117 3.30604
106 2 -3.44398 8.53775 2.84802
107 2 -3.64376 9.7261 4.27616
108 2 -1.98154 8.33665 0.905379
20 4 -2.86224 8.31863 9.167
128 2 -1.423 12.0172 3.03956
310 2 -5.78816 10.1016 1.34539
145 2 -0.5481 7.79377 3.66661
146 2 -1.16578 9.50743 3.01159
147 2 -2.03738 8.72329 4.50636
148 2 -3.57637 11.6143 4.79459
149 2 -2.03031 10.3635 4.83052
150 2 -2.1039 12.0635 5.88648
193 1 -4.16401 8.8232 3.62586
337 2 -2.82433 11.5792 0.263076
345 2 -0.497556 11.449 7.66977
207 1 -1.0405 8.88399 3.94811
208 1 -2.70372 11.188 5.38248
228 3 -3.45367 6.96623 5.68623
323 2 -6.52935 12.7443 7.47991
234 3 -2.61316 9.50213 7.69043
235 3 -4.20548 11.4181 8.02152
129 2 -1.26332 12.3081 1.20457
257 3 1.7296 7.17265 3.1625
259 3 0.842848 10.9422 3.66294
346 1 0.0651056 11.9901 8.50562
309 4 -6.25587 11.9404 0.11499
322 2 -7.38243 12.3834 9.11678
311 2 -4.6332 11.4187 2.14466
312 2 -4.07256 10.5546 0.499954
313 1 -4.88197 11.0324 1.11611
370 3 -7.5328 12.3047 3.57905
6 4 -4.78917 12.3398 9.15002
233 3 -2.77444 6.7564 8.534
333 2 -5.77847 11.1538 5.45986
334 1 -6.62401 10.4542 5.74993
121 2 -2.50302 7.16781 11.5965
22 4 -3.28629 10.8192 13.6586
126 2 -3.63512 8.61287 13.3195
43 4 -1.30874 10.2011 10.9083
317 2 -4.06963 12.5555 18.3865
45 4 1.30733 10.9048 12.2741
75 2 -2.63675 9.93173 15.1574
88 2 -1.39603 11.5489 9.84519
99 2 -4.83066 10.1207 10.3661
100 2 -6.33077 11.242 10.5693
101 2 -4.76999 11.5903 11.6399
119 2 -1.3481 7.99636 12.9173
34 4 1.36751 6.55309 9.7485
125 2 -3.95019 8.00533 15.0296
109 2 -2.18263 7.90841 17.4498
339 1 -1.79615 12.2836 18.0677
151 2 3.1704 7.81849 16.6359
338 2 -0.704789 11.9607 17.9737
154 2 1.40863 7.00842 14.6375
155 2 0.463805 8.68041 14.4099
156 2 1.2682 8.26634 16.0377
191 1 -5.22137 11.1639 10.6524
198 1 -2.00228 7.09895 12.6114
200 1 -3.95825 8.98 14.4311
265 3 3.74285 7.69083 13.4206
210 1 1.31935 8.13505 14.9552
232 3 -4.40572 8.38635 9.97454
236 3 -4.43436 11.8087 13.9405
255 3 0.849207 7.55641 18.4382
263 3 -1.70817 8.733 10.185
264 3 -2.31362 10.4543 12.1071
266 3 0.104807 10.0603 11.4843
120 2 -2.69283 6.75113 13.4508
315 3 -6.42279 11.3481 17.4937
316 3 -6.90524 12.2487 15.0588
319 2 -1.64749 11.7706 13.7296
320 2 1.3147 9.14589 18.2213
44 4 2.83366 8.88619 14.1292
336 2 -2.3693 12.1715 17.0713
127 2 -4.97252 9.33871 14.393
262 3 2.17644 8.0747 9.75237
267 3 2.22748 9.90009 13.0987
209 1 3.39863 6.66638 16.5272
27 4 -0.376253 12.8945 13.7378
194 1 -2.07334 7.16444 18.3044
349 2 15.7662 0.12311 1.45427
47 4 10.8449 1.87354 3.87429
350 2 14.5031 0.0914453 2.88909
51 4 13.2255 2.20383 5.68595
55 4 12.0184 4.70312 2.20913
359 1 10.5566 1.96518 0.368377
57 4 12.3236 4.6173 7.28858
81 2 7.13883 4.25865 7.65466
212 1 8.77553 3.89525 8.7649
351 1 14.7604 0.520967 1.81772
136 2 5.23525 5.57891 3.50467
354 1 15.9614 1.09613 8.70352
133 2 7.01607 4.83172 1.83667
134 2 8.39471 3.59386 2.46314
135 2 7.0945 4.32335 3.59576
137 2 6.69654 6.13886 4.76793
89 2 16.188 0.783599 3.17571
157 2 8.76786 0.942285 4.28933
158 2 8.3812 2.75965 3.75959
159 2 9.07963 2.35918 5.58917
161 2 8.02638 3.06002 8.56862
166 2 12.9703 4.06964 0.184833
167 2 13.8059 2.80034 1.61367
204 1 5.63314 6.41366 4.3099
172 2 8.73357 4.78709 5.55593
203 1 7.31399 3.94615 2.54774
356 2 10.9024 3.0794 0.395149
211 1 9.03122 2.03397 4.51565
357 2 10.6761 1.38586 1.33789
214 1 13.439 3.96193 1.30061
170 2 8.40009 6.20288 4.41498
269 3 10.8303 0.573102 2.84037
271 3 10.2088 1.51109 8.26386
272 3 14.4336 2.09995 4.61383
273 3 11.7753 1.5784 5.15845
274 3 13.6411 1.38867 7.08075
280 3 11.2312 3.30399 3.16442
281 3 12.623 5.89801 3.1705
282 3 11.0374 5.19516 0.970634
283 3 11.6313 3.82384 8.51429
284 3 13.0741 3.84433 6.11384
288 3 11.1148 5.4783 6.67465
348 2 14.6883 1.6921 1.70752
93 2 13.4187 5.71264 8.08118
49 4 14.3549 0.389335 8.02387
371 3 12.6988 0.171794 0.0754674
77 2 9.19895 0.672537 5.96596
352 2 16.6517 0.230315 8.35762
162 2 8.97411 4.47492 7.82141
5 4 15.9232 2.22 4.08319
366 2 8.85078 3.855 0.41821
216 1 8.56962 5.90624 5.45567
50 4 10.4695 2.96164 9.04635
25 4 9.98881 0.224539 7.41395
285 3 6.03543 5.70254 9.29023
171 2 7.82498 6.27923 6.21961
342 2 6.41167 5.24131 0.150993
9 4 14.9092 2.36367 16.3286
48 4 12.2087 1.49236 17.8093
92 2 11.3689 0.319583 11.6576
53 4 9.43477 1.54403 16.1594
54 4 11.5783 1.9998 11.8519
60 4 11.0927 3.32751 14.5215
82 2 7.18043 4.60057 15.7421
90 2 11.8699 0.869096 15.2001
91 2 13.2019 2.03325 11.4336
327 1 15.9776 1.3002 17.3733
95 2 12.3274 3.12893 15.779
96 2 10.9634 4.96051 14.0797
328 2 15.896 0.283656 16.8579
117 2 11.8906 4.86353 10.6529
369 1 9.20827 4.69658 18.0988
364 2 12.6364 5.67167 16.8472
160 2 8.60537 4.55359 9.63493
163 2 8.16706 4.89867 11.8309
164 2 9.31585 3.34083 11.7565
165 2 8.80971 4.09134 13.41
367 2 9.66611 4.22471 17.1789
197 1 12.7034 5.62562 10.9225
213 1 8.51148 3.89657 12.3471
256 3 5.46087 5.67354 14.1828
270 3 13.3108 2.79405 16.9958
275 3 14.5877 1.47015 14.7544
358 2 9.94247 2.12899 18.5639
277 3 11.1755 0.820197 16.6461
278 3 8.51358 1.94086 17.4539
279 3 10.7518 2.69535 10.7804
329 2 15.6028 1.22979 18.5485
289 3 9.81208 2.93662 15.3314
290 3 11.524 2.54307 13.3127
355 2 15.669 1.08125 9.82872
362 1 11.6159 6.17763 16.8256
174 2 9.35432 5.35139 13.8356
173 2 10.8282 6.5553 13.7488
368 2 8.067 5.11629 17.9568
292 3 7.93024 6.47697 11.1709
56 4 10.621 6.02464 18.4347
343 1 5.83503 5.68175 18.3216
363 2 10.937 5.77305 15.9879
118 2 12.7694 5.74783 12.0598
52 4 13.474 0.295389 14.8079
217 1 9.71116 6.46703 13.8238
116 2 13.7357 5.43291 10.4547
19 4 9.21235 10.9932 4.47411
23 4 0.957699 11.9006 2.30378
183 2 11.1541 8.60326 7.61208
46 4 5.04322 11.8874 0.988633
261 3 1.28126 11.1541 0.87755
59 4 10.2681 6.66376 6.08398
62 4 4.3327 10.3128 3.83345
64 4 7.24651 8.88653 8.4373
66 4 6.54056 10.7104 6.00456
94 2 11.1825 6.82481 8.6317
85 2 4.90157 7.69491 5.5908
98 2 8.21687 7.61476 7.76146
122 2 9.3475 9.78574 2.26631
123 2 7.91923 9.2227 3.36148
124 2 9.71425 8.8191 3.86963
215 1 9.10913 7.66299 0.318525
298 3 3.44333 10.2392 9.07452
169 2 9.16031 8.11301 1.39936
303 3 6.51901 9.48692 7.15629
179 2 2.78369 10.6937 5.76483
180 2 2.81897 11.9846 4.25247
181 2 4.09489 12.1257 5.63601
182 2 9.39769 8.68802 6.9998
41 4 2.07009 9.91581 0.239758
184 2 9.72005 7.69852 8.57497
185 2 8.18752 11.0865 8.33796
199 1 9.01151 9.48718 3.25324
365 2 8.09818 7.24461 0.0905048
219 1 3.37261 11.441 5.13089
220 1 10.1553 8.03281 7.55811
331 2 10.9615 9.39678 5.5313
76 2 2.6686 12.2585 6.75386
260 3 2.73003 8.94304 1.24958
287 3 11.1068 7.54263 4.99847
293 3 3.66197 8.86352 3.78938
294 3 4.55037 11.0957 2.24587
258 3 4.16096 6.80132 1.80613
304 3 6.02351 11.9304 7.00032
138 2 5.61313 7.43532 3.82192
301 3 7.99304 11.1681 5.44179
302 3 5.71006 10.3059 4.66151
221 1 8.21067 10.3611 9.20084
332 2 10.2883 10.6236 6.82288
15 4 11.8632 7.15259 10.2546
97 2 8.23095 9.17259 18.3962
61 4 9.28937 7.3558 12.0993
63 4 7.39516 10.4081 17.5099
307 3 5.01885 11.9478 15.7611
67 4 4.59341 10.5306 16.5269
308 3 3.57353 10.482 17.7626
58 4 6.42951 6.76333 10.3579
361 2 11.7188 7.36783 16.8742
175 2 9.26845 7.11555 14.6799
176 2 9.41817 9.54885 12.7471
177 2 7.50266 8.90937 12.63
178 2 8.4134 9.52238 11.0831
314 4 10.0098 11.2337 16.1715
187 2 7.90562 10.8456 10.1855
188 2 5.52968 9.56788 10.8361
189 2 4.27334 9.97397 12.1406
190 2 5.75739 11.1898 11.8721
65 4 3.8903 11.3142 10.1541
218 1 8.55249 9.02324 12.1615
222 1 5.05121 10.3928 11.4298
318 2 10.3547 9.59622 15.4997
299 3 4.76233 12.5264 9.59479
268 3 0.917914 12.2194 13.1582
321 2 4.59027 12.3354 13.3405
291 3 10.5934 7.4344 11.2132
297 3 6.37252 8.34317 9.73188
295 3 8.46175 11.1782 16.5606
168 2 10.0141 8.60841 18.2155
300 3 2.57076 11.7385 10.9581
305 3 3.80743 9.71767 15.4556
306 3 6.15903 9.71785 16.8606
340 2 5.78511 6.76721 17.9276
286 3 5.27309 6.63631 11.562
296 3 6.74818 11.3504 18.6003
186 2 9.21342 9.72688 9.33427
ITEM: TIMESTEP
100
ITEM: NUMBER OF ATOMS
371
ITEM: BOX BOUNDS xy xz yz pp pp pp
-8.7228510000000004e+00 1.7777500000000000e+01 -8.7228510000000004e+00
0.0000000000000000e+00 1.3020299999999999e+01 4.5889999999999997e-01
0.0000000000000000e+00 1.8640300000000000e+01 2.0540000000000000e-01
ITEM: ATOMS id type x y z
1 4 1.73963 0.402723 2.64731
2 2 3.24982 0.998259 3.20145
3 2 1.04794 1.93846 2.73364
250 3 5.06319 5.21819 7.02609
68 2 1.0606 1.16401 7.22792
7 4 0.906057 2.60077 6.24647
11 4 -0.0889009 4.32362 2.21518
14 4 -0.258805 5.0653 7.73041
30 4 5.72298 2.81089 2.09097
31 4 1.58154 5.85796 4.10987
32 4 4.01103 5.50003 0.954807
141 2 3.46028 5.74404 9.13959
35 4 4.33744 5.95151 5.74971
246 3 5.01976 3.2803 8.7776
70 2 0.401903 3.5008 0.801495
72 2 -1.46163 4.29372 8.67286
102 2 2.24665 2.984 4.42464
103 2 3.02284 1.65966 5.58726
104 2 3.29426 3.46936 5.92672
130 2 5.14003 0.701493 3.31857
131 2 4.20191 2.08471 4.33
132 2 6.06052 2.07932 4.25596
247 3 0.40968 6.14099 8.60395
192 1 2.62633 2.70022 5.47535
202 1 5.09385 1.74876 3.6297
223 3 -0.311752 2.43409 5.07687
225 3 -1.21181 3.39048 2.82497
226 3 -0.843382 5.80675 1.64091
227 3 0.646339 3.91152 7.23933
229 3 -0.978605 6.05116 6.24959
243 3 6.15683 1.70669 0.992055
244 3 1.19823 4.5876 3.16748
245 3 4.49018 4.08504 1.5776
325 1 2.16539 0.251883 8.55469
249 3 2.83425 5.62379 5.13977
254 3 2.32961 5.3319 0.173469
324 2 2.2323 1.4044 8.69757
79 2 0.260231 6.12587 5.12866
10 4 2.33779 1.74359 11.6434
17 4 0.10032 4.52646 15.313
18 4 -0.508278 5.9638 12.565
24 4 6.9461 1.39044 18.0123
26 4 4.89425 2.28467 10.0636
38 4 4.55166 6.34248 13.219
28 4 4.29652 2.28586 16.4375
253 3 0.89251 5.38798 16.5512
248 3 0.555568 6.22555 11.4664
29 4 6.95495 2.61694 12.4498
37 4 1.9366 6.17193 17.67
69 2 1.75122 0.691156 10.4512
36 4 5.87151 4.24387 14.8456
73 2 -1.83922 5.19099 11.7349
78 2 3.18582 2.53463 17.7385
110 2 0.241532 2.4452 10.5699
111 2 0.983058 3.5945 11.9605
112 2 -0.0898685 2.0851 12.425
113 2 2.22403 3.63238 15.0678
114 2 1.01525 2.89468 13.678
115 2 0.843802 2.39575 15.6109
252 3 6.20548 3.16642 13.6692
140 2 3.04529 5.17623 10.9023
251 3 4.48176 3.72129 15.7198
142 2 3.07159 4.56495 13.9011
143 2 3.41418 4.13658 12.1737
144 2 2.42797 5.69932 12.7156
195 1 0.555381 2.56232 11.6432
196 1 1.20536 3.10888 14.8153
205 1 2.72687 5.21854 9.79466
206 1 3.28095 5.00473 12.8992
224 3 2.70712 0.89467 13.0137
230 3 -1.33021 3.64739 15.9092
231 3 -0.197844 5.24956 13.9205
237 3 4.9713 0.706779 9.69668
238 3 3.40549 2.77044 10.9869
239 3 3.65321 1.20265 15.4653
240 3 5.7934 1.77348 16.9765
241 3 6.13276 2.60693 11.0526
242 3 7.86065 1.27594 12.7927
330 2 -1.60649 6.37972 17.3443
326 2 -0.315915 1.84375 17.3102
276 3 8.64372 0.414486 15.2647
139 2 2.40131 4.26467 9.41758
120 2 -2.55424 6.54558 13.6551
201 1 -0.581105 12.7993 2.17231
12 4 -4.50002 7.35759 4.28268
13 4 -0.92895 6.95644 0.552464
16 4 -2.12117 7.06747 6.68724
347 2 -0.621935 12.7133 8.88672
21 4 -3.53573 10.3856 6.96688
39 4 3.03941 7.98715 2.53752
40 4 0.6204 9.64276 4.5585
42 4 2.36989 9.19672 8.6595
74 2 -4.83876 9.46938 6.19125
344 2 0.996573 11.6286 9.22471
80 2 -1.3458 8.49965 6.65737
83 2 1.98355 8.77268 5.02146
84 2 -0.666895 9.90629 5.67426
86 2 0.855934 10.0618 8.44826
87 2 2.49285 8.69871 7.03638
105 2 -5.33605 9.13397 2.99528
106 2 -3.5955 8.69627 2.54506
107 2 -3.80812 9.7654 4.15833
108 2 -2.14467 8.10093 1.00762
20 4 -2.87036 8.29704 9.15912
128 2 -1.15801 12.5389 3.08502
310 2 -5.25564 9.67462 0.707836
145 2 -0.304656 7.98057 3.49657
146 2 -1.31006 9.76199 3.38234
147 2 -1.97236 8.43292 4.61257
148 2 -3.80252 11.4696 4.68763
149 2 -2.23783 10.316 4.87002
150 2 -2.23833 11.9865 5.87593
193 1 -4.27337 8.97357 3.38598
337 2 -2.47269 11.5893 0.375309
345 2 -0.323439 11.1983 7.69768
207 1 -1.0334 8.86789 4.09567
208 1 -2.89329 11.1191 5.34462
228 3 -3.31061 7.25751 5.44519
323 2 -6.54433 12.7159 7.41036
234 3 -2.51144 9.39579 7.65899
235 3 -4.22601 11.4732 7.89385
129 2 -1.23755 12.4514 1.11454
257 3 1.91233 7.22302 3.30582
259 3 0.777087 10.9052 3.56036
346 1 0.0624944 11.8947 8.47359
309 4 -6.11593 11.816 0.199672
322 2 -7.266 12.5311 9.24164
311 2 -4.66902 11.0163 1.89957
312 2 -3.54291 10.724 0.4587
313 1 -4.6859 10.7282 0.799396
370 3 -7.54678 12.2343 3.72908
6 4 -4.79606 12.3377 9.13107
233 3 -2.82175 6.72796 8.48938
333 2 -5.63021 11.1282 5.36838
334 1 -6.49304 10.3923 5.60701
332 2 -6.8049 10.5658 6.65371
260 3 2.48591 8.97045 1.40176
4 3 -6.87998 12.7758 1.17174
41 4 1.94848 9.82991 0.243533
71 2 -3.34869 6.71245 0.02738
121 2 -2.95656 6.68476 11.7691
22 4 -3.30525 10.7485 13.6951
126 2 -3.82397 8.51153 13.4318
43 4 -1.4144 10.1673 10.9789
317 2 -4.1329 12.6872 18.4664
45 4 1.5281 10.983 12.1589
75 2 -2.44246 9.97259 15.1641
88 2 -1.45836 11.3451 9.71105
99 2 -4.84164 10.0919 10.386
100 2 -6.27578 11.2983 10.7382
101 2 -4.65342 11.5967 11.566
119 2 -1.61416 7.96054 12.5266
34 4 1.29894 6.52604 9.80458
125 2 -3.25774 8.19592 15.1491
109 2 -2.16393 8.20711 17.4381
339 1 -1.66569 12.3067 17.9988
151 2 2.89886 8.17336 17.0038
338 2 -0.537955 12.1804 17.7348
154 2 1.45332 7.06213 14.8969
155 2 0.531012 8.57306 14.3285
156 2 1.26206 8.55033 16.0372
191 1 -5.15088 11.1777 10.6633
198 1 -2.1694 6.86384 12.6124
200 1 -3.82169 8.94058 14.5614
265 3 3.79137 7.65603 13.688
210 1 1.37762 8.18816 14.9826
232 3 -4.47204 8.3747 9.98036
236 3 -4.48062 11.6904 14.0573
255 3 0.764911 7.61313 18.4012
263 3 -1.71724 8.67105 10.2494
264 3 -2.51474 10.6048 12.151
266 3 0.0283681 10.2555 11.5519
267 3 2.28898 9.95471 13.1707
315 3 -6.53106 11.5951 17.4924
316 3 -7.02833 12.1963 15.0217
319 2 -1.78917 11.8322 13.8109
320 2 1.23243 9.14388 18.078
44 4 2.95695 8.95576 14.2089
336 2 -2.40804 12.1135 17.0811
127 2 -4.8216 9.16108 14.9311
262 3 2.13631 7.98111 9.62483
8 4 -5.68239 12.9421 14.4283
209 1 3.27571 7.05597 16.7105
27 4 -0.372934 12.9263 13.7131
194 1 -2.00357 7.27105 18.0318
152 2 3.07557 6.67657 15.6691
153 2 4.33961 6.73542 17.1732
349 2 15.7501 0.22447 1.56828
47 4 10.846 1.87872 3.97788
350 2 14.423 0.32995 2.86774
51 4 13.2788 2.21617 5.71691
55 4 11.9949 4.65837 2.37001
359 1 10.7051 2.0155 0.356134
57 4 12.2474 4.57282 7.21155
81 2 7.42831 4.23376 7.8649
212 1 8.89927 3.91574 9.13403
351 1 14.7296 0.657586 1.79517
136 2 5.33567 5.47634 3.72796
354 1 16.0731 0.997217 8.80953
133 2 6.97997 4.91515 2.34572
134 2 8.11986 3.51672 2.17578
135 2 7.22718 3.71046 3.88779
137 2 6.76808 6.3771 4.68568
89 2 16.1194 0.820678 3.21122
157 2 8.71345 0.799173 4.29123
158 2 8.33275 2.55228 3.82798
159 2 8.99101 2.22681 5.61367
161 2 8.201 2.98684 9.04365
166 2 13.2436 4.17906 0.508464
167 2 13.4379 2.68358 1.82383
353 2 15.9469 2.11536 8.76086
172 2 8.95959 5.09847 4.93366
203 1 7.17305 3.84825 2.69598
356 2 11.1826 3.09836 0.353048
211 1 8.92469 1.92205 4.48566
357 2 10.7475 1.49201 1.3625
214 1 13.4621 3.8216 1.66728
360 2 14.3062 4.44013 2.12158
269 3 10.7831 0.621132 3.04187
271 3 10.1881 1.44859 8.26073
272 3 14.3919 2.0794 4.58396
273 3 11.7463 1.56687 5.24915
274 3 13.7753 1.53271 7.2732
280 3 11.1506 3.25543 3.16542
281 3 12.5349 5.84379 3.26027
282 3 10.9341 5.29034 0.927819
283 3 11.6968 3.80017 8.45133
284 3 13.0366 3.79013 6.05899
288 3 11.0092 5.45331 6.65086
348 2 14.5822 1.86797 1.70211
93 2 13.3688 5.65674 7.84112
49 4 14.4426 0.309029 8.06914
371 3 12.7031 0.187806 0.0719853
77 2 9.10213 0.524383 5.89568
352 2 16.7795 0.505815 8.02001
162 2 9.08377 4.52959 8.17576
5 4 15.8611 2.29852 4.00353
366 2 8.71423 3.86589 0.244516
216 1 8.77182 6.22589 5.08298
50 4 10.5578 2.83256 9.12867
25 4 9.91441 0.184915 7.41594
335 2 8.46536 1.07619 2.09426
33 4 5.80517 4.61616 8.28886
9 4 14.976 2.47196 16.2467
48 4 12.3321 1.38992 17.813
92 2 10.968 0.514104 12.242
53 4 9.49626 1.52688 16.0243
54 4 11.5416 2.0432 11.9115
60 4 11.2035 3.46255 14.5738
82 2 7.25694 4.17855 15.777
90 2 11.8493 0.869812 15.0775
91 2 13.0258 1.55078 11.4969
327 1 15.9714 1.43484 17.3613
95 2 12.4152 3.22311 15.8253
96 2 10.9062 5.14233 14.1714
328 2 15.9753 0.373349 16.9704
117 2 12.0634 4.91129 10.3917
369 1 9.12381 4.73846 17.9691
364 2 12.3865 5.59895 16.625
160 2 8.5922 4.52517 10.0395
163 2 7.98188 4.84762 11.8556
164 2 9.21589 3.41375 11.6853
165 2 8.74714 4.07426 13.4279
367 2 9.38699 4.21069 17.0089
197 1 12.8066 5.63962 10.7553
213 1 8.37072 3.85909 12.3231
256 3 5.68712 5.77916 14.3815
270 3 13.2546 2.71126 17.1339
275 3 14.5032 1.52299 15.0657
358 2 10.0485 2.20762 18.4563
277 3 11.2318 0.977055 16.6982
278 3 8.60977 1.97463 17.3572
279 3 10.7879 2.67926 10.6993
329 2 15.634 1.35471 18.5472
289 3 9.8735 2.81442 15.1099
290 3 11.679 2.7228 13.2582
355 2 16.1422 0.591127 9.86223
362 1 11.5687 6.41215 16.7794
174 2 9.03757 5.35646 13.888
116 2 13.7987 5.49041 10.3512
368 2 8.19289 5.33252 17.9807
292 3 7.87102 6.44315 10.9955
56 4 10.5529 6.04741 18.3811
343 1 5.78957 5.84994 18.2784
363 2 10.8247 6.4942 15.9241
118 2 12.7253 5.89443 11.9211
52 4 13.4023 0.341267 14.9802
217 1 9.41077 6.38629 13.6962
285 3 6.00208 5.63852 9.39587
341 2 5.45348 5.64557 17.189
173 2 10.4972 6.49635 13.9891
342 2 6.57098 5.10801 18.629
19 4 9.26404 10.9196 4.45717
23 4 1.02872 11.91 2.33213
183 2 11.2154 8.44305 7.95553
46 4 5.01458 12.028 0.969684
261 3 1.36325 11.1305 0.886708
59 4 10.3581 6.76978 6.07808
62 4 4.39498 10.4423 3.81679
64 4 7.17869 8.93154 8.4481
66 4 6.64977 10.7799 6.09659
94 2 11.2634 6.58123 8.75827
85 2 4.72268 7.64644 5.79922
98 2 8.25653 7.68497 8.01057
122 2 8.55544 10.0079 2.27328
123 2 7.98488 8.94418 3.71495
124 2 9.85837 8.85054 3.14291
215 1 9.01611 7.54547 0.181529
298 3 3.487 10.2194 8.99745
169 2 9.02171 7.88727 1.27163
303 3 6.52484 9.40446 7.11104
179 2 2.49067 10.9322 5.48022
180 2 2.77436 12.2849 4.13857
181 2 4.07601 12.0102 5.62207
182 2 9.5151 8.72717 7.22011
296 3 6.21709 11.2771 0.0233467
184 2 9.77056 7.46701 8.65027
185 2 8.74385 10.7379 8.13233
199 1 8.82986 9.46472 3.21145
221 1 8.43406 10.241 9.06669
219 1 3.26382 11.5834 4.9298
220 1 10.2369 7.9389 7.72994
331 2 11.0216 9.31015 5.32839
76 2 2.65563 12.5361 6.60933
170 2 8.69514 6.77465 4.1126
287 3 11.1949 7.5694 4.9824
293 3 3.76172 9.00459 3.87794
294 3 4.58899 11.1416 2.31943
258 3 4.18919 6.90765 1.79432
304 3 6.14038 11.9837 7.03681
138 2 5.34537 7.48845 4.01076
301 3 8.1385 10.9989 5.49752
302 3 5.69596 10.6545 4.81871
204 1 5.62839 6.46949 4.47859
171 2 8.02426 6.5698 5.91073
15 4 11.7993 7.14434 10.2735
97 2 8.19244 9.18364 18.4398
61 4 9.10025 7.30757 11.9799
63 4 7.36805 10.3884 17.4719
307 3 4.95047 11.8771 15.926
67 4 4.65725 10.3745 16.4195
308 3 3.46246 10.3478 17.7788
58 4 6.3685 6.67747 10.507
361 2 11.9947 7.48564 17.0468
175 2 8.74125 7.15738 14.2587
176 2 9.03389 9.58062 12.7599
177 2 7.33268 9.09164 12.5583
178 2 8.31687 9.60846 10.9758
314 4 9.92963 11.1678 16.154
187 2 7.66812 10.8789 9.63148
188 2 5.61543 9.55169 10.7994
189 2 4.68501 9.96442 12.3314
190 2 5.8378 11.2094 11.6413
65 4 3.94208 11.2571 10.1648
218 1 8.33981 9.07183 12.0672
222 1 5.09358 10.4073 11.4074
318 2 10.4641 9.67327 15.7569
299 3 4.74394 12.5205 9.50673
268 3 0.852242 12.1655 13.0365
321 2 4.72479 12.7416 13.3053
291 3 10.5362 7.3295 11.2248
297 3 6.30105 8.36867 9.76123
295 3 8.3916 11.0274 16.4489
168 2 9.888 8.45933 18.1089
300 3 2.46775 11.7742 11.0884
305 3 3.78312 9.76121 15.2992
306 3 6.11679 9.66177 16.7913
340 2 6.06189 6.97641 18.4786
286 3 5.41375 6.56623 11.8722
186 2 9.39603 9.95565 9.63769
365 2 8.453 7.34018 18.491
ITEM: TIMESTEP
200
ITEM: NUMBER OF ATOMS
371
ITEM: BOX BOUNDS xy xz yz pp pp pp
-8.7228510000000004e+00 1.7777500000000000e+01 -8.7228510000000004e+00
0.0000000000000000e+00 1.3020299999999999e+01 4.5889999999999997e-01
0.0000000000000000e+00 1.8640300000000000e+01 2.0540000000000000e-01
ITEM: ATOMS id type x y z
1 4 1.91344 0.364716 2.67884
2 2 3.28608 0.940518 3.44979
3 2 1.02016 1.76331 2.53692
250 3 5.08844 5.12791 6.93124
68 2 0.891553 1.17738 7.19885
7 4 0.844466 2.62874 6.23477
11 4 -0.141142 4.35807 2.19393
14 4 -0.410299 5.06698 7.70365
30 4 5.69768 2.73298 2.04883
31 4 1.76206 5.67991 4.19789
32 4 3.96656 5.38172 1.06522
33 4 5.81309 4.50497 8.19178
35 4 4.37305 5.81423 5.7235
246 3 5.09727 3.1255 8.61067
70 2 0.699389 3.48525 1.15727
72 2 -1.76131 4.23269 8.30432
102 2 2.2808 3.06037 4.39837
103 2 2.74747 1.47712 5.3718
104 2 3.34274 3.1999 5.97943
130 2 5.09428 0.501865 3.54663
131 2 4.19511 2.16686 4.23256
132 2 6.10769 2.04267 4.17916
247 3 0.348477 5.79464 8.84678
192 1 2.55595 2.62472 5.39621
202 1 5.12334 1.70643 3.64029
223 3 -0.242172 2.45141 5.08547
225 3 -1.24175 3.42228 2.8685
226 3 -0.878726 5.65265 1.403
227 3 0.594613 4.02182 7.14214
229 3 -0.944281 6.09826 6.21995
243 3 6.10253 1.81388 0.7843
244 3 1.12352 4.68167 3.15109
245 3 4.5056 3.94906 1.74666
325 1 2.05038 0.184761 8.4112
249 3 2.95084 5.31829 5.14729
254 3 2.43248 5.3101 0.0657201
324 2 2.17026 1.3048 8.49067
79 2 0.410758 5.92839 5.17029
5 4 -1.36408 2.30055 3.96238
10 4 2.32354 1.71281 11.5121
17 4 0.173119 4.51613 15.3992
18 4 -0.428596 5.95398 12.5824
24 4 6.99153 1.49762 17.7704
26 4 4.98061 2.41994 10.0836
38 4 4.65741 6.31581 13.1751
28 4 4.15875 2.25947 16.3864
253 3 1.16135 5.26203 16.5271
120 2 -2.47754 6.501 13.9453
29 4 7.08405 2.65582 12.4934
37 4 1.99581 6.30149 17.6422
69 2 1.67053 0.590777 10.3051
36 4 5.88812 4.16841 15.0543
73 2 -1.73933 4.94006 11.9073
78 2 3.20275 2.42062 17.8188
110 2 0.224371 2.11254 10.6653
111 2 1.08661 3.62489 11.6412
112 2 -0.0606557 2.26792 12.5906
113 2 2.23095 3.4224 15.2374
114 2 0.940253 2.83608 13.6813
115 2 0.601151 2.21196 15.61
252 3 6.30768 3.33024 13.7331
140 2 3.27679 5.41579 11.0815
251 3 4.43073 3.69629 15.7777
142 2 3.37803 4.5846 14.1016
143 2 3.40881 4.11105 12.2876
144 2 2.42209 5.66689 12.7923
195 1 0.616216 2.55444 11.7219
196 1 1.14881 3.01924 14.9078
205 1 2.93419 5.51234 10.0232
206 1 3.37397 4.97259 13.0378
224 3 2.60987 0.970147 12.9219
230 3 -1.50624 3.8095 15.9116
231 3 0.0213133 5.37232 13.9978
237 3 4.63355 0.915787 9.76992
238 3 3.47375 2.85175 11.0186
239 3 3.4377 1.19516 15.4859
240 3 5.62669 1.68912 16.9546
241 3 6.27475 2.57873 11.0054
242 3 7.73994 1.20458 12.7808
330 2 -1.99093 6.25262 17.5336
326 2 -0.133588 2.21682 17.3758
276 3 8.53022 0.411154 15.2934
121 2 -2.9805 6.21743 12.114
116 2 -3.35427 5.69597 10.7119
139 2 2.55959 4.54453 9.63002
141 2 3.76282 5.88676 9.35462
201 1 -0.710543 12.7204 2.12808
12 4 -4.35458 7.22003 4.18766
13 4 -0.989136 6.87196 0.437045
16 4 -2.01447 7.14978 6.61869
347 2 -1.08087 12.5116 8.158
21 4 -3.45672 10.4293 7.10011
39 4 3.07636 7.93163 2.70776
40 4 0.588936 9.42712 4.16988
42 4 2.32087 9.17397 8.52329
74 2 -4.74923 9.52596 6.37962
258 3 3.99173 6.65432 2.06469
80 2 -1.18712 8.63271 6.79145
83 2 1.78867 8.62197 5.01798
84 2 -0.754897 9.51768 5.41113
86 2 0.912339 10.0215 8.26432
87 2 2.82286 8.6798 6.99564
105 2 -5.24169 9.20337 2.94676
106 2 -3.50713 8.45742 2.42334
107 2 -3.72802 9.63348 4.03011
108 2 -1.9426 8.24151 0.994266
20 4 -2.87465 8.2464 9.10899
128 2 -1.32055 12.1711 2.95081
310 2 -5.46815 9.67388 0.202199
145 2 -0.205192 8.06054 2.87828
146 2 -1.56606 9.76243 3.18415
147 2 -2.07093 8.34567 4.26013
148 2 -4.01844 11.396 4.77292
149 2 -2.30012 10.1851 4.84579
150 2 -2.42907 11.9815 5.75652
193 1 -4.22931 8.84688 3.26699
331 2 -6.09731 9.2368 5.20944
345 2 -0.347511 10.5966 8.09788
207 1 -1.19614 8.88789 3.74473
208 1 -3.04609 11.0827 5.35038
228 3 -3.17953 7.28311 5.3251
323 2 -6.7847 12.5601 7.3868
234 3 -2.37624 9.51294 7.7134
235 3 -4.16032 11.4481 8.12628
129 2 -1.20922 12.5021 1.05179
257 3 1.89472 7.1417 3.60142
259 3 0.838824 10.8158 3.43009
346 1 -0.109684 11.7212 8.40919
71 2 -3.50863 6.87547 0.398364
322 2 -7.49302 12.5584 9.12966
311 2 -4.76104 10.9167 1.73179
312 2 -3.60003 10.5398 0.189977
313 1 -4.6748 10.7495 0.56017
370 3 -7.6035 12.1878 3.67893
6 4 -4.878 12.3862 9.20949
233 3 -2.74974 6.7074 8.34571
333 2 -5.38602 11.0389 4.82619
334 1 -6.20972 10.421 5.36956
332 2 -6.34066 10.7001 6.44902
260 3 2.40369 8.9086 1.58949
4 3 -6.58666 12.5632 1.26871
344 2 0.32865 11.8423 9.48586
22 4 -3.2422 10.7933 13.7423
126 2 -3.39625 8.53691 13.4641
43 4 -1.37739 10.1093 10.8371
317 2 -4.12486 12.5858 18.1495
45 4 1.35175 10.9743 12.0496
75 2 -2.35262 10.0594 15.2683
88 2 -1.67154 11.1933 9.56568
99 2 -4.83926 10.025 10.4271
100 2 -6.21699 11.3529 10.788
101 2 -4.45094 11.6357 11.5256
119 2 -1.79951 7.78025 12.5947
34 4 1.35635 6.55368 9.92709
125 2 -3.42108 8.06146 15.2939
109 2 -2.44713 8.20358 17.6593
339 1 -1.61761 12.4208 17.844
151 2 2.5476 8.39918 16.8122
338 2 -0.651426 11.848 18.1097
154 2 1.14023 7.44859 14.8785
155 2 0.344608 8.97522 14.0325
156 2 1.13047 9.1158 15.8615
191 1 -5.06308 11.2085 10.6647
198 1 -2.16961 6.61033 12.8489
200 1 -3.62805 8.9309 14.5649
265 3 3.61598 7.55066 13.4984
210 1 1.1204 8.56071 14.7969
232 3 -4.4825 8.36954 9.98462
236 3 -4.52221 11.7822 14.0053
255 3 0.684876 7.66241 18.2439
263 3 -1.68922 8.52801 10.2219
264 3 -2.43284 10.4057 12.1168
266 3 0.0625995 10.3837 11.2489
152 2 3.24518 6.93421 15.7449
315 3 -6.51047 11.4061 17.3875
316 3 -7.2502 12.2671 14.9828
319 2 -1.84414 11.8109 13.8043
320 2 1.10514 9.20107 18.4563
44 4 2.77163 8.89563 13.9948
336 2 -1.92045 12.2822 16.6858
127 2 -4.70961 9.1823 14.6896
262 3 1.93524 7.95763 9.38384
8 4 -5.81602 12.9396 14.379
209 1 3.17335 7.39472 16.811
27 4 -0.348204 12.8385 13.7504
194 1 -2.24191 7.25259 18.2584
309 4 -5.71587 11.9957 18.6172
248 3 0.555801 6.56149 11.5503
337 2 -2.49191 12.0427 18.5828
267 3 2.36105 9.84402 12.7838
349 2 15.9595 0.437623 1.39344
47 4 10.8672 2.05967 4.00297
350 2 14.5982 0.543099 2.87659
51 4 13.3545 2.32287 5.79676
55 4 11.8811 4.74181 2.41686
359 1 10.6609 2.07703 0.294667
57 4 12.1554 4.62309 7.24657
81 2 7.47864 4.1919 7.82195
212 1 9.01891 3.87397 9.01436
351 1 14.8851 0.794829 1.74408
136 2 5.23618 5.28175 3.65963
354 1 16.0521 0.887323 9.06134
133 2 6.98006 4.66376 2.10184
134 2 8.23489 3.15224 2.3258
135 2 7.13594 3.88127 3.77344
137 2 6.6862 6.2764 4.63938
89 2 16.3122 0.845433 3.16223
157 2 8.88133 0.910376 4.44838
158 2 8.46998 2.71753 3.97543
159 2 8.99229 2.34806 5.78891
161 2 8.29266 2.93816 9.12219
166 2 12.9756 3.91348 0.556883
167 2 13.7858 2.90535 2.00584
204 1 5.59879 6.29824 4.37891
172 2 8.46257 5.48736 5.23335
203 1 7.23576 3.71377 2.6478
356 2 11.1591 3.25403 0.19363
211 1 9.04882 2.0565 4.69805
357 2 10.7394 1.63776 1.3785
214 1 13.372 3.9017 1.64436
335 2 8.09406 1.0146 2.41191
269 3 10.8161 0.70976 2.90667
271 3 10.24 1.28231 8.42991
272 3 14.5108 2.17989 4.65311
273 3 11.8933 1.70696 5.12879
274 3 13.9284 1.52449 7.16727
280 3 11.1321 3.55077 3.31727
281 3 12.5772 6.0391 3.17263
282 3 10.8692 5.29966 1.16645