ITEM: TIMESTEP
0
ITEM: NUMBER OF ATOMS
371
ITEM: BOX BOUNDS xy xz yz pp pp pp
-8.8510000000000009e+00 1.7963902999999998e+01 -8.8510000000000009e+00
0.0000000000000000e+00 1.3020299999999999e+01 6.4530299999999996e-01
0.0000000000000000e+00 1.8640300000000000e+01 2.0540000000000000e-01
ITEM: ATOMS id type x y z
360 2 -2.76507 4.38232 1.51376
2 2 2.41636 1.42282 2.82411
345 2 7.49824 0.413704 9.24338
324 2 0.828467 0.484853 8.05783
68 2 1.95208 1.23456 7.03312
7 4 0.879667 2.46046 6.27766
11 4 0.324071 4.20947 2.4401
14 4 -0.798467 4.68745 7.74544
30 4 5.67099 3.03086 1.73298
31 4 1.61212 6.30346 4.16118
72 2 -2.25633 3.8831 8.18639
33 4 5.71101 4.38203 8.26453
35 4 4.34002 5.80147 5.658
5 4 -1.14527 1.97303 4.02275
70 2 1.41179 3.38835 1.34957
237 3 3.73647 0.885526 9.18036
102 2 2.65311 3.62079 5.26526
103 2 3.08713 1.83374 5.50969
104 2 3.32083 3.06992 6.95005
130 2 4.66477 2.08248 3.8164
131 2 4.17476 1.02001 2.27786
132 2 3.52479 2.8565 2.4462
250 3 4.91344 5.16707 7.07321
192 1 2.77572 2.7995 6.04718
202 1 4.29101 2.06975 2.70391
223 3 0.0173677 1.69893 5.21651
225 3 -0.586604 2.95242 2.91688
226 3 -0.507841 5.34319 1.68816
227 3 0.301712 3.57543 7.29574
229 3 -1.14501 5.79534 6.56967
243 3 6.01359 2.13502 0.287909
244 3 1.18706 4.89354 3.60074
245 3 5.02528 4.4317 1.44686
246 3 4.78084 3.32297 8.95541
249 3 2.84043 6.15582 5.22774
32 4 4.40783 5.83518 0.755693
247 3 -0.258853 5.52398 8.98501
1 4 1.45469 0.151219 2.16161
3 2 -0.0368021 0.79773 1.75056
329 2 -1.57261 2.50482 0.552701
136 2 5.06221 4.80358 4.48489
139 2 2.42796 4.87385 9.11584
335 2 8.049 1.04786 2.9265
10 4 1.95306 1.74351 11.6051
17 4 0.339872 4.67812 15.4673
73 2 -2.27144 6.08558 12.4229
24 4 7.09783 1.55337 17.5354
26 4 4.39631 2.27392 10.0283
252 3 6.19089 3.24957 13.437
28 4 4.4852 1.99317 16.0804
29 4 6.67062 2.17982 12.4005
253 3 1.35711 5.40046 16.5394
36 4 5.77731 4.2268 14.6992
37 4 2.36645 6.31939 17.6193
251 3 4.54376 3.62193 15.5377
328 2 0.311727 1.65276 18.0659
254 3 3.44467 5.66506 18.6093
78 2 3.67828 2.18077 17.545
110 2 -0.61321 2.01519 10.887
111 2 0.443967 3.4527 11.8903
112 2 -0.296906 1.82639 12.688
113 2 0.699873 2.89527 13.6423
114 2 0.615758 2.32388 15.4309
115 2 2.14484 3.28243 14.7576
69 2 0.761025 0.864963 10.5474
140 2 2.68997 5.50455 10.9241
326 2 0.103395 3.66028 17.9374
142 2 3.07804 4.55234 13.8511
143 2 2.98154 4.16144 12.0063
144 2 2.08517 5.72642 12.7275
195 1 0.12675 2.25647 11.7596
196 1 1.04768 3.12704 14.7207
205 1 2.41681 5.77952 9.7408
206 1 2.9989 4.98748 12.8111
224 3 2.27213 1.05154 12.9744
230 3 -1.14263 4.02513 16.1144
231 3 0.02397 5.76819 14.1457
18 4 -0.580734 6.51321 12.8322
238 3 2.83064 2.82096 10.9292
239 3 3.48929 0.998464 15.3863
240 3 5.90978 1.37672 16.3443
241 3 5.61492 1.88167 11.0694
242 3 7.53307 0.881131 13.0823
327 1 -0.40794 2.61018 18.1497
38 4 4.33812 6.33706 12.8301
71 2 -1.40331 6.56686 17.9596
331 2 -5.41745 9.43847 4.3193
313 1 -4.67599 10.6615 0.426957
13 4 -0.690313 6.72249 0.82404
16 4 -2.11651 7.03175 6.8212
20 4 -3.19537 8.46277 9.15531
21 4 -3.58767 10.4628 6.89222
325 1 -7.49443 12.3098 7.93511
40 4 0.898849 9.70986 4.37281
42 4 1.66044 9.07386 8.19865
74 2 -4.32609 9.28396 5.76591
79 2 0.282152 7.09694 4.95866
80 2 -1.06923 8.34107 6.4682
337 2 -2.67602 12.4495 0.551094
84 2 0.0517697 9.55775 5.97532
86 2 0.730549 10.4159 7.73697
87 2 2.14743 8.44131 6.77198
105 2 -5.24505 8.71368 2.82128
106 2 -3.56714 7.96085 2.16126
107 2 -3.65116 9.2563 3.6579
108 2 -1.39555 8.0613 1.74785
262 3 0.807659 8.02862 9.00444
323 2 -7.00721 12.1059 6.91923
370 3 -7.62883 11.8189 3.25279
145 2 0.111933 8.59963 3.09628
146 2 -1.58682 9.59539 4.429
147 2 -1.36311 7.75601 4.64817
12 4 -4.40882 6.95697 4.36612
149 2 -2.61467 11.2917 5.0473
150 2 -1.13248 11.3082 6.44377
193 1 -4.17223 8.39288 3.13483
194 1 -2.60097 7.24054 0.540399
334 1 -6.0343 10.0921 5.07487
207 1 -0.808829 8.71465 4.53901
208 1 -2.2701 11.5803 6.16852
228 3 -3.19933 7.08879 5.64832
233 3 -2.86141 6.88439 8.58828
234 3 -2.95165 9.68002 8.04015
235 3 -4.76386 11.4685 7.50845
312 2 -5.22108 9.63559 0.618858
257 3 1.98454 7.38396 3.00001
259 3 0.851078 11.1212 3.64347
333 2 -5.71026 11.1738 5.29671
344 2 -0.983113 11.0909 8.0871
4 3 -6.85787 12.4801 0.843111
148 2 -2.56754 12.6961 6.39881
129 2 -1.2973 12.6181 1.38892
346 1 -0.335059 11.9328 8.47017
6 4 -5.62411 12.23 8.7376
330 2 -2.95239 8.2118 0.0336485
310 2 -4.45321 11.1493 1.46898
128 2 -1.24416 12.0207 3.28528
201 1 -0.790223 12.7679 2.53193
109 2 -3.37365 6.59113 1.01645
347 2 0.483268 11.6784 9.2888
83 2 2.51657 9.02086 4.55349
88 2 -1.89441 11.5718 9.57385
22 4 -3.59301 11.0041 13.4229
121 2 -2.67865 7.88919 12.3736
43 4 -1.7933 10.4227 10.9312
44 4 2.79881 9.06122 13.7656
45 4 1.19237 10.9057 11.7086
75 2 -2.44114 12.0841 15.0198
311 2 -3.12429 10.7989 18.4668
99 2 -5.42019 9.98505 9.97196
100 2 -6.89646 11.3431 10.3293
101 2 -5.11375 11.5615 11.1404
119 2 -0.924047 8.66809 13.0266
120 2 -2.32784 7.93681 14.1937
125 2 -1.60292 10.212 15.0481
126 2 -3.67617 9.42891 14.2278
248 3 0.289809 6.56507 11.5171
151 2 3.34874 8.31507 16.669
127 2 -3.29818 10.4289 15.8959
154 2 0.958094 7.51544 14.5896
155 2 0.42632 9.27312 14.5583
156 2 1.69052 8.68913 15.8508
191 1 -5.68807 11.1496 10.2329
198 1 -1.92448 7.82061 13.1874
200 1 -2.5743 10.7368 15.0783
209 1 3.54763 7.24362 16.5221
210 1 1.26895 8.57852 14.8151
232 3 -4.90668 8.35628 9.73211
236 3 -5.01678 11.6783 13.6761
265 3 3.47175 7.68089 13.2975
263 3 -2.2582 8.96573 10.4402
264 3 -2.7823 10.9487 12.0991
266 3 -0.23208 10.4954 11.3526
339 1 -1.46912 12.6079 18.1662
315 3 -6.2765 11.0774 17.2001
316 3 -7.33008 12.1085 15.0033
319 2 -0.854523 11.3966 14.3009
8 4 -6.11261 12.9017 14.252
116 2 -4.00005 7.5974 12.5901
336 2 -1.96631 12.0041 17.3029
27 4 -0.111563 12.8354 13.7842
338 2 -0.420137 12.2886 18.3275
317 2 -3.99453 12.4235 17.9219
34 4 0.721574 6.60634 9.8076
152 2 3.02806 6.93283 15.508
320 2 1.31146 9.234 18.4683
309 4 -5.56752 11.8015 18.3963
267 3 1.95756 9.93263 12.7697
255 3 1.11933 7.57289 18.5
363 2 -3.55477 6.9154 17.9858
141 2 3.02862 6.63424 9.35007
25 4 8.84215 1.01354 8.09383
47 4 11.0896 1.92991 4.19867
348 2 15.8622 0.979399 0.939526
51 4 13.6328 2.24152 5.91489
55 4 12.35 4.4316 2.41421
357 2 11.2698 2.37404 1.31175
57 4 12.4123 4.4703 7.57683
354 1 15.841 0.359718 9.26152
350 2 14.694 0.460171 2.46732
358 2 9.8167 1.31199 0.396336
93 2 13.4284 5.81715 8.03214
284 3 13.395 3.76913 6.53418
133 2 7.51532 4.53381 2.82097
134 2 8.15127 2.84316 2.19167
352 2 15.7898 1.53842 9.10124
351 1 15.4422 0.108689 1.53944
89 2 16.1731 0.414931 3.3894
157 2 9.05485 0.949368 4.98788
158 2 8.56457 2.62411 4.14739
159 2 9.61074 2.61932 5.92366
371 3 12.8684 0.139932 0.134149
166 2 13.3927 3.02475 0.5511
167 2 14.0427 2.66817 2.401
137 2 6.87877 6.43604 4.98666
172 2 8.62001 4.92045 5.56429
203 1 7.33844 3.40528 2.70397
288 3 11.2096 5.31029 6.88452
211 1 9.25313 2.09078 4.93465
81 2 6.99994 3.45945 7.63803
214 1 13.7393 3.4898 1.6342
359 1 10.6359 2.19558 0.358972
269 3 10.7327 0.774416 3.16455
271 3 9.86675 1.9896 8.80954
272 3 14.7857 2.19555 4.70209
273 3 12.0924 1.64922 5.36654
274 3 14.1295 1.32839 7.14505
280 3 11.496 3.31595 3.38499
281 3 13.0851 5.6802 3.35649
282 3 11.5098 5.04641 1.02705
283 3 12.1233 3.64834 8.87519
216 1 8.79875 6.05658 5.43527
77 2 8.22518 1.68012 6.5661
170 2 8.69956 6.35067 4.37497
135 2 6.85476 2.84049 3.63998
161 2 10.1428 5.44003 9.03205
9 4 15.6466 2.65516 16.7758
48 4 12.459 1.35255 18.0377
368 2 9.15493 5.97603 17.7832
53 4 9.83359 1.73916 16.0761
54 4 12.0801 1.81234 12.4372
60 4 11.8146 3.47811 14.9569
82 2 7.12542 4.44899 15.7577
212 1 9.79865 4.60609 9.74182
91 2 13.625 1.26571 12.2358
94 2 11.255 5.76217 10.3406
95 2 13.0623 3.22912 16.2808
96 2 12.1283 5.13002 14.643
361 2 12.9253 5.75775 16.654
117 2 11.7921 6.34418 12.7759
369 1 9.81482 5.06343 17.8729
50 4 10.8534 2.99353 9.67579
162 2 9.76478 4.9116 10.8651
163 2 8.35097 4.07677 12.2396
164 2 7.76859 3.34666 10.5635
165 2 8.90267 2.37882 11.8323
175 2 8.12914 6.27336 13.9512
92 2 11.3514 0.298922 12.7007
213 1 8.11808 3.19828 11.6749
367 2 10.0089 4.57036 16.8221
270 3 13.7919 2.73648 17.4799
275 3 15.7179 1.32347 15.9348
160 2 8.80614 4.25393 9.39237
277 3 11.3767 1.20566 16.8402
278 3 8.7377 2.01118 17.1833
279 3 11.4419 2.53357 11.1739
256 3 5.40749 5.63126 14.0974
289 3 10.3666 3.43963 15.5334
290 3 12.1536 2.64785 13.7516
343 1 6.3771 6.52766 18.1717
341 2 6.46001 5.47979 17.6102
276 3 9.35999 0.758446 14.9798
56 4 11.4423 6.07919 18.5951
286 3 5.05494 6.32553 11.3629
58 4 6.34581 6.48285 10.3819
356 2 10.7836 3.38606 18.48
174 2 9.94877 6.55419 13.9914
285 3 6.51448 5.33169 9.32148
366 2 9.39613 4.32962 18.589
19 4 9.55723 10.5346 4.21172
23 4 0.966723 12.2619 2.53404
299 3 4.3182 11.8597 8.7798
46 4 5.01925 11.8694 0.85978
215 1 9.89081 7.41083 0.632355
59 4 10.5299 6.49404 6.15659
62 4 4.6819 10.4563 3.815
64 4 7.31516 8.56005 8.29954
66 4 6.99543 10.5491 6.02604
138 2 5.49931 6.62353 3.62068
85 2 5.41126 7.76777 5.2224
98 2 8.74776 7.49463 8.13739
122 2 9.63807 8.20166 3.34317
123 2 9.01521 9.41183 2.03372
124 2 7.78199 8.87682 3.33693
261 3 1.39774 11.2809 1.04711
342 2 6.69535 6.51866 0.140597
49 4 5.62084 12.7722 8.00213
185 2 7.82034 10.8679 8.89122
179 2 3.1367 10.6224 5.70758
180 2 3.00047 12.0986 4.42968
181 2 4.3967 12.0646 5.63467
182 2 9.71765 8.74181 6.98299
365 2 9.02491 6.73763 1.15104
184 2 10.2903 8.13506 8.5832
41 4 1.92488 10.1016 0.172996
199 1 8.92376 9.07095 3.06228
183 2 11.5541 8.44327 7.47054
219 1 3.65638 11.459 5.04655
220 1 10.5061 8.14789 7.521
322 2 9.2773 11.4343 8.32164
204 1 5.74319 6.6831 4.71249
298 3 2.98463 9.49882 8.78469
287 3 11.458 7.10544 4.91822
293 3 3.94829 9.02957 3.77633
294 3 4.68242 11.265 2.23253
171 2 8.14668 6.68662 6.17644
260 3 2.70115 9.06146 1.04401
349 2 7.40859 12.1691 1.84075
301 3 8.58106 10.6187 5.46941
302 3 6.18096 10.4554 4.55632
303 3 6.83401 9.23522 6.93441
304 3 6.49666 11.7663 6.97468
258 3 4.37803 7.22553 1.68219
169 2 10.7439 7.84133 1.29961
186 2 9.29886 9.69071 8.99404
39 4 3.21231 8.09429 2.25875
221 1 8.21778 9.88985 9.2824
76 2 0.910149 12.5021 7.22052
355 2 8.03904 12.7353 8.9041
332 2 10.978 9.44205 6.02975
15 4 11.3879 7.44691 10.7976
153 2 4.64168 7.00798 16.546
61 4 8.51976 7.85619 12.1909
63 4 6.90614 9.92386 17.5561
292 3 7.53737 6.61911 11.4395
67 4 4.48836 10.6697 16.1761
97 2 7.00665 8.4207 18.3657
52 4 6.46137 12.736 15.3442
353 2 6.60955 12.8801 10.2891
321 2 7.65128 11.5473 15.8213
176 2 8.53117 10.4024 12.1229
177 2 7.59617 9.75821 13.5603
178 2 6.65834 9.8082 11.848
340 2 5.98821 7.40285 17.467
187 2 8.06859 9.8529 10.456
188 2 5.48855 9.28074 10.2258
189 2 4.30359 9.7243 11.7401
190 2 5.56928 10.9413 11.0792
268 3 0.957492 12.5819 12.5679
218 1 7.72068 9.72416 12.4617
222 1 4.92345 10.0664 10.8505
314 4 10.0121 10.8862 15.9986
118 2 11.5978 8.24013 13.0315
197 1 12.1974 7.44888 12.5078
90 2 6.62607 12.6759 13.7273
291 3 9.90454 7.97191 11.0191
296 3 6.4404 11.0927 18.5857
295 3 8.43398 10.4434 16.7253
173 2 8.78374 8.01608 14.5121
300 3 2.21025 11.3431 10.5652
305 3 3.66503 9.95274 14.8158
306 3 5.78101 9.68797 16.4073
307 3 5.0346 12.1881 15.7423
308 3 3.20844 10.6224 17.5155
318 2 10.4478 9.61808 15.0201
65 4 3.51056 10.8212 9.66139
364 2 12.373 7.57516 16.8315
217 1 8.91687 7.05176 13.8279
168 2 10.1278 8.33076 18.5291
297 3 6.28817 7.95993 9.38482
362 1 12.8349 6.68458 17.3242
ITEM: TIMESTEP
100
ITEM: NUMBER OF ATOMS
371
ITEM: BOX BOUNDS xy xz yz pp pp pp
-8.8510000000000009e+00 1.7963902999999998e+01 -8.8510000000000009e+00
0.0000000000000000e+00 1.3020299999999999e+01 6.4530299999999996e-01
0.0000000000000000e+00 1.8640300000000000e+01 2.0540000000000000e-01
ITEM: ATOMS id type x y z
360 2 -2.67616 4.24246 1.72411
2 2 2.21778 1.64979 2.72157
345 2 7.32447 0.376584 8.70799
324 2 1.22445 0.736865 8.74607
68 2 2.10984 1.49147 7.17707
7 4 1.00529 2.49408 6.27265
11 4 0.255468 4.23327 2.40988
14 4 -0.757323 4.62258 7.74162
30 4 5.54965 3.04816 1.79861
31 4 1.74381 6.21673 4.09399
72 2 -2.15146 3.98432 8.50481
33 4 5.67052 4.35173 8.29162
35 4 4.34139 5.77503 5.69879
5 4 -1.0633 2.06079 4.09638
70 2 1.26042 3.56142 1.27885
135 2 6.73823 2.52624 3.66163
102 2 2.57862 3.68524 5.00413
103 2 3.36436 2.00851 5.64322
104 2 3.46777 3.528 6.74155
130 2 4.83654 1.10135 3.33461
131 2 3.68367 1.38531 1.87935
132 2 3.59323 2.47412 3.40215
250 3 4.92757 5.17252 7.06863
192 1 2.87255 2.97471 5.88664
202 1 4.20471 1.85995 2.76358
223 3 0.220565 1.65238 5.04389
225 3 -0.692855 3.12381 3.05318
226 3 -0.470644 5.37367 1.51138
227 3 0.0602104 3.39319 7.20756
229 3 -1.23574 5.77869 6.60755
243 3 6.11988 2.16675 0.553637
244 3 1.31501 4.81617 3.48845
245 3 5.04248 4.4582 1.46055
246 3 4.63627 3.4038 8.94894
249 3 2.80137 6.03585 5.41991
32 4 4.42312 5.81139 0.696593
247 3 0.0066339 5.39816 8.83403
1 4 1.4846 0.196583 2.16532
3 2 -0.0420047 0.78933 1.58265
201 1 8.07807 0.0849689 2.17502
136 2 5.01819 5.08863 4.29084
139 2 2.77076 5.23381 9.00287
10 4 1.91847 1.73173 11.7001
17 4 0.419689 4.57963 15.3887
73 2 -2.38028 6.05084 12.6801
24 4 7.13887 1.47594 17.6603
26 4 4.31532 2.21943 9.99282
252 3 6.13163 3.19331 13.619
28 4 4.43253 2.07697 16.2178
29 4 6.7273 2.13834 12.5559
253 3 1.6293 5.19891 16.6093
36 4 5.68251 4.24468 14.6949
37 4 2.43808 6.19345 17.6108
251 3 4.52195 3.58352 15.5252
328 2 0.269296 1.75749 17.9837
71 2 -1.41866 6.28533 17.9817
78 2 3.5286 2.36239 17.6576
110 2 -0.485648 2.25781 10.7767
111 2 0.4277 3.37314 12.0931
112 2 -0.508807 1.64546 12.6383
113 2 0.62586 2.76853 13.6288
114 2 0.862318 2.20307 15.5014
115 2 2.21886 3.17187 14.6737
69 2 0.833871 0.866195 10.6378
140 2 2.69842 5.38472 10.9657
326 2 0.162393 3.63303 18.0263
142 2 3.03972 4.57361 13.9537
143 2 2.93315 4.16173 12.1387
144 2 2.0726 5.70947 12.7604
195 1 0.0386688 2.20117 11.7817
196 1 1.10377 3.02619 14.6866
205 1 2.4987 5.88997 9.86885
206 1 2.96318 4.97706 12.9172
224 3 2.28655 0.77788 12.9482
230 3 -1.1883 4.08463 15.9587
231 3 0.0967096 5.57238 14.063
18 4 -0.588109 6.48635 12.7703
238 3 2.82327 2.75668 10.9468
239 3 3.62703 1.13112 15.2568
240 3 5.85235 1.56591 16.7065
241 3 5.57563 2.04819 11.1397
242 3 7.3355 0.775519 13.0918
327 1 -0.416864 2.66105 18.141
38 4 4.32569 6.30571 12.8718
34 4 0.683893 6.46488 9.76357
237 3 3.9275 0.851057 9.3704
254 3 3.50939 5.61338 18.6078
27 4 8.66958 0.157312 13.7635
331 2 -5.40803 9.42692 4.31225
313 1 -4.57123 10.654 0.413706
13 4 -0.762554 6.64919 0.549447
16 4 -2.17241 6.98526 6.74874
20 4 -3.17294 8.35421 9.18616
21 4 -3.60177 10.5403 7.03905
325 1 -7.45673 12.665 8.08598
40 4 0.878452 9.65324 4.41348
42 4 1.56033 8.9719 8.15373
74 2 -4.21245 9.63566 5.61176
79 2 0.396339 7.06149 4.7069
80 2 -1.17473 8.37278 6.32932
337 2 -2.83226 11.9481 0.233891
84 2 0.019497 9.49837 5.9798
86 2 0.629583 10.3709 7.72898
87 2 1.85614 8.26087 6.67171
105 2 -5.02126 8.91799 2.90433
106 2 -3.49045 8.0222 2.10052
107 2 -3.34262 9.01001 3.84729
108 2 -1.66753 7.9511 1.61426
262 3 0.757235 7.9375 8.98666
323 2 -7.83589 12.8836 7.03677
370 3 -7.58016 11.9457 3.29969
145 2 0.222286 8.37167 3.07623
146 2 -1.41743 9.51909 4.3173
147 2 -1.34613 7.67875 4.5274
12 4 -4.32743 6.95067 4.36911
149 2 -2.34915 11.3809 5.09073
150 2 -1.29991 11.4882 6.57115
193 1 -4.08218 8.38572 3.19503
194 1 -2.65208 7.42964 0.409688
334 1 -6.14861 9.98487 5.11496
207 1 -0.762 8.64755 4.48055
208 1 -2.33608 11.6168 6.18276
228 3 -3.31138 7.01656 5.64691
233 3 -2.80126 6.92987 8.51722
234 3 -2.91376 9.42737 7.9541
235 3 -4.70569 11.4933 7.80258
312 2 -5.26388 9.71785 0.605564
257 3 2.133 7.16281 2.93487
259 3 0.778981 11.1307 3.77996
333 2 -5.75243 11.0343 5.49749
344 2 -0.950918 10.9552 8.3066
4 3 -6.6542 12.4964 0.881763
148 2 -2.70525 12.655 6.42171
129 2 -1.18549 12.6168 1.04839
346 1 -0.381576 11.9345 8.4379
6 4 -5.57043 12.2967 8.92249
109 2 -3.59076 6.9215 0.796116
310 2 -4.05813 11.0553 1.33858
128 2 -1.31835 12.2626 3.08473
83 2 2.44812 8.97668 4.68448
88 2 -1.81797 11.4673 9.7199
22 4 -3.59938 11.0691 13.4472
121 2 -2.75267 8.10848 12.6955
43 4 -1.77592 10.3285 10.9507
44 4 2.61734 9.11923 13.9457
45 4 1.25118 11.1813 11.8152
75 2 -2.50382 12.0075 14.9716
311 2 -3.15978 10.5444 18.2044
99 2 -5.34679 9.93729 10.1432
100 2 -6.86419 11.0313 10.4747
101 2 -5.12475 11.6466 11.0626
119 2 -0.657569 8.51044 13.1312
120 2 -2.25297 7.65673 14.4452
125 2 -1.58233 10.1032 14.9144
126 2 -3.86092 9.50721 14.2486
141 2 3.08082 6.86863 9.84091
151 2 2.8837 8.33592 16.5602
127 2 -3.04923 10.1793 16.0444
154 2 0.880381 7.53245 14.629
155 2 0.26665 9.34812 14.4926
156 2 1.18755 8.79204 15.9896
191 1 -5.72764 11.026 10.3346
198 1 -1.89965 7.72791 13.3557
200 1 -2.59543 10.624 15.1096
209 1 3.50365 7.32604 16.6441
210 1 1.09386 8.62551 14.8952
232 3 -4.81624 8.18388 9.81256
236 3 -4.91363 11.8432 13.6182
265 3 3.53568 7.67147 13.2565
263 3 -2.17023 8.89119 10.4326
264 3 -2.84367 10.828 12.0324
266 3 -0.220264 10.3611 11.5894
339 1 -1.49224 12.458 17.9537
315 3 -6.25423 11.1226 17.243
316 3 -7.34599 12.0564 14.9943
319 2 -0.992998 11.5729 14.3261
8 4 -5.98076 12.844 14.2099
116 2 -4.07321 8.10186 12.2986
336 2 -1.91831 11.8536 17.0809
267 3 2.21149 10.1065 12.7442
338 2 -0.356894 12.3743 18.0714
317 2 -3.83603 12.4077 17.9008
248 3 0.0442487 6.53288 11.2958
152 2 3.56251 6.67481 15.6442
320 2 1.3135 9.14757 18.3148
309 4 -5.43382 11.8318 18.3731
330 2 -2.21961 8.53763 18.4634
255 3 1.08276 7.46575 18.369
363 2 -3.66742 7.11067 17.8715
347 2 0.277902 11.8624 9.37149
25 4 9.01365 1.00392 7.91735
47 4 11.1668 2.00741 4.10237
348 2 15.8853 0.23217 0.403179
51 4 13.6452 2.19358 5.80424
55 4 12.4127 4.53272 2.40671
357 2 11.3843 2.29042 1.45689
57 4 12.5002 4.47126 7.56555
354 1 15.7953 0.359915 9.17669
350 2 15.0791 1.17216 1.87531
358 2 9.92223 1.27796 0.719579
93 2 13.5214 5.67386 8.17887
284 3 13.3577 3.72168 6.43984
133 2 7.24893 4.33661 3.18095
134 2 8.11981 2.94715 2.23882
352 2 15.5501 1.513 9.02025
351 1 15.3807 0.164417 1.41947
89 2 16.0668 0.566508 3.24146
157 2 9.29759 1.14648 5.16789
158 2 8.62952 2.76488 4.19441
159 2 9.68019 2.9784 5.86157
371 3 12.6622 0.225378 0.18619
166 2 13.4871 3.15601 0.544232
167 2 13.9281 2.55788 2.36673
356 2 10.1597 3.19298 0.0244921
172 2 8.40368 5.15976 6.03033
203 1 7.1977 3.30221 2.83255
288 3 11.0973 5.07985 7.12458
211 1 9.47556 2.36934 4.96517
81 2 6.73151 3.38837 7.4629
214 1 13.7531 3.44706 1.64367
359 1 10.619 2.12461 0.512651
269 3 10.6491 0.579826 2.94669
271 3 9.86607 1.8608 8.91175
272 3 14.9283 2.29429 4.8632
273 3 12.2536 1.55066 5.08749
274 3 14.1408 1.17536 7.11419
280 3 11.5582 3.34938 3.32657
281 3 13.207 5.6369 3.38647
282 3 11.4339 5.23196 1.2188
283 3 12.2466 3.48552 8.77988
216 1 8.73771 6.11892 5.59083
77 2 8.42439 1.96165 6.59791
170 2 8.69767 6.21412 4.47538
366 2 8.92711 4.04177 0.162152
161 2 10.0864 5.35806 9.10114
355 2 16.8764 0.129372 8.8265
329 2 15.5458 2.37134 0.499479
335 2 8.01545 1.2403 2.36353
9 4 15.6487 2.75691 16.7363
48 4 12.4855 1.53433 18.0824
368 2 9.19772 5.97727 18.0183
53 4 9.92895 1.72841 16.1159
54 4 12.0309 2.05862 12.3131
60 4 11.7688 3.65584 14.9138
82 2 6.96236 4.43784 15.7453
212 1 9.74085 4.56187 9.79214
91 2 13.6405 1.96376 11.8449
94 2 11.2115 5.76636 10.311
95 2 13.0517 3.30996 16.1869
96 2 12.0759 5.32594 14.6745
361 2 12.6988 5.6459 16.7701
117 2 12.3982 6.3468 12.6656
369 1 9.89276 5.03229 18.0281
50 4 10.9387 3.04918 9.6856
162 2 9.61494 4.95321 10.8751
163 2 8.32251 4.15559 12.3943
164 2 7.9001 3.3889 10.7992
165 2 9.00697 2.50313 11.9711
285 3 6.47807 5.20432 9.41544
92 2 11.5516 0.465718 12.6511
213 1 8.16097 3.21536 11.9029
367 2 10.1379 4.5716 16.9459
270 3 13.7827 2.92776 17.3729
275 3 15.6808 1.4031 15.9033
58 4 6.24655 6.49124 10.3552
277 3 11.3038 1.14823 16.9276
278 3 8.60614 1.99994 17.0183
279 3 11.228 2.66281 11.1955
256 3 5.34084 5.77164 14.0409
289 3 10.3927 3.47583 15.5841
290 3 12.0529 2.87588 13.6415
286 3 4.9236 6.31942 11.3129
341 2 6.42423 5.7321 17.4206
276 3 9.43809 0.868757 14.8948
56 4 11.3976 6.17193 18.5897
160 2 8.79051 3.97494 9.41006
19 4 9.46016 10.6563 4.28125
23 4 0.878665 12.2011 2.45881
299 3 4.4052 11.8857 8.79256
46 4 5.09405 11.8343 0.946862
215 1 10.0832 7.66668 0.655818
59 4 10.4889 6.49292 6.26588
62 4 4.60883 10.5658 3.7547
64 4 7.28679 8.52469 8.31461
66 4 6.87404 10.4057 5.97502
138 2 5.52154 6.89824 3.72996
85 2 5.23057 7.86241 5.43472
98 2 8.58716 7.40428 8.09297
122 2 9.87683 8.49488 3.4682
123 2 9.051 9.50536 2.05714
124 2 7.98169 8.68222 3.40453
261 3 1.24725 11.2053 0.851119
137 2 6.7979 6.64325 5.18518
49 4 5.70668 12.6096 7.85356
185 2 7.71291 10.9043 8.63427
179 2 3.01553 11.1225 5.64721
180 2 2.96011 12.3988 4.15985
181 2 4.50467 12.2987 5.423
182 2 9.72818 8.85271 6.99255
365 2 9.58909 7.22565 1.62243
184 2 10.0767 7.89282 8.66324
41 4 1.93448 10.0038 0.145748
199 1 8.97299 9.15317 3.12904
183 2 11.4444 8.49448 7.47854
219 1 3.66519 11.7299 4.9319
220 1 10.3762 8.09396 7.5442
322 2 9.29271 11.7826 8.48553
204 1 5.68243 6.86657 4.88779
298 3 2.89202 9.32904 8.69308
287 3 11.2973 7.0355 4.9973
293 3 3.79758 9.13348 3.73016
294 3 4.75607 11.2321 2.32806
171 2 8.29689 7.07786 6.12702
260 3 2.78908 9.18744 1.18986
349 2 7.17955 12.2567 2.05199
301 3 8.51427 10.747 5.56659
302 3 6.03188 10.3446 4.66321
303 3 6.83293 8.87075 6.83356
304 3 6.46047 11.6347 6.83732
258 3 4.48374 7.17745 1.74151
169 2 11.0383 8.27725 1.00035
186 2 9.25222 9.86413 8.81912
39 4 3.29091 8.04529 2.20596
221 1 8.19604 10.0515 9.11136
76 2 0.734263 12.3791 6.98854
332 2 10.8664 9.30712 5.94249
342 2 6.69147 6.58188 0.0269181
15 4 11.4492 7.41663 10.8657
153 2 4.58086 7.53385 17.0549
61 4 8.48302 7.82575 12.0304
63 4 6.83562 9.98071 17.4631
292 3 7.56923 6.73902 11.2286
67 4 4.41255 10.637 16.1506
97 2 6.94306 8.50714 18.2958
52 4 6.44573 12.7486 15.4225
353 2 6.71763 12.8009 10.2336
321 2 7.77798 11.7134 15.9072
176 2 8.39648 10.3565 12.0804
177 2 7.34783 9.32891 13.3792
178 2 6.58084 9.73333 11.685
340 2 5.89589 7.4714 17.469
187 2 8.04822 9.99878 10.292
188 2 5.21376 9.21581 10.4704
189 2 4.20134 9.92245 11.9293
190 2 5.52231 11.073 11.0173
268 3 1.09738 12.5459 12.617
218 1 7.58853 9.54863 12.2481
222 1 4.71951 10.129 10.9171
314 4 10.0261 10.9241 16.0052
118 2 11.3865 7.99413 13.1201
197 1 12.2294 7.49224 12.5446
90 2 6.67413 12.6298 13.7962
291 3 10.0903 8.1388 11.1621
296 3 6.37626 11.018 18.5109
295 3 8.48881 10.5068 16.6466
173 2 9.11519 8.21778 14.4102
300 3 2.16632 11.5255 10.4374
305 3 3.61344 9.83009 14.8799
306 3 5.80968 9.53983 16.3702
307 3 5.03705 12.136 15.7062
308 3 3.34963 10.4331 17.5106
318 2 10.684 9.50738 15.1717
65 4 3.48485 10.8471 9.72645
364 2 12.3274 7.61462 16.5088
217 1 8.88804 7.30866 13.8305
168 2 10.052 8.4113 18.5815
297 3 6.22287 7.91481 9.36671
362 1 12.6555 6.77539 17.2056
174 2 9.82727 6.62349 13.7418
343 1 6.35667 6.62051 18.0727
175 2 7.97801 6.78807 14.2995
ITEM: TIMESTEP
200
ITEM: NUMBER OF ATOMS
371
ITEM: BOX BOUNDS xy xz yz pp pp pp
-8.8510000000000009e+00 1.7963902999999998e+01 -8.8510000000000009e+00
0.0000000000000000e+00 1.3020299999999999e+01 6.4530299999999996e-01
0.0000000000000000e+00 1.8640300000000000e+01 2.0540000000000000e-01
ITEM: ATOMS id type x y z
360 2 -2.65218 4.19773 1.54597
2 2 2.21463 1.62684 2.92048
345 2 7.4791 0.467809 8.93367
324 2 1.16336 0.669141 8.67708
68 2 2.01846 1.27941 7.20272
7 4 1.03974 2.41117 6.19596
11 4 0.226684 4.25623 2.35008
14 4 -0.655995 4.5183 7.7185
30 4 5.7128 2.7755 1.85754
31 4 1.72891 6.16348 4.09833
72 2 -1.84675 3.63953 8.47959
33 4 5.5371 4.31231 8.27218
35 4 4.36527 5.96616 5.65762
5 4 -1.09341 2.10248 3.97712
70 2 1.07411 3.27588 1.37142
135 2 6.84594 2.36513 3.9215
102 2 2.86887 3.54206 5.31675
103 2 3.31118 1.69385 5.8012
104 2 3.32912 3.07247 7.10847
130 2 4.7308 1.34046 3.40458
131 2 3.6048 1.15746 1.87652
132 2 3.51688 2.77207 2.97401
250 3 4.93695 5.108 6.99636
192 1 2.9397 2.71887 6.16467
202 1 4.1783 1.84924 2.61319
223 3 0.311051 1.86158 4.9015
225 3 -0.830959 3.28222 2.98854
226 3 -0.4849 5.41345 1.51919
227 3 0.200686 3.44354 6.95221
229 3 -1.36361 5.53821 6.56316
243 3 6.35868 1.83264 0.644194
244 3 1.23165 4.77585 3.5026
245 3 5.02728 4.43227 1.41859
246 3 4.48595 3.30272 8.98294
249 3 2.87151 6.13064 5.27755
32 4 4.46927 5.84876 0.79879
247 3 0.107609 5.24879 8.8957
1 4 1.49921 0.250412 2.12322
3 2 0.0121455 0.993884 1.62583
201 1 8.1669 0.176287 2.09686
136 2 5.06232 5.13271 4.27344
139 2 2.77714 5.07382 9.16104
10 4 1.81874 1.64985 11.6086
17 4 0.499678 4.57012 15.3365
73 2 -2.33212 5.99571 12.8702
24 4 7.21459 1.49257 17.7634
26 4 4.28921 2.24012 10.1871
252 3 6.20094 3.29582 13.7271
28 4 4.31281 2.20184 16.3439
29 4 6.76018 2.29562 12.4808
253 3 1.52087 5.22909 16.4148
36 4 5.68928 4.26086 14.854
37 4 2.41539 6.2421 17.4425
251 3 4.54284 3.67052 15.7284
256 3 5.19688 5.65668 14.0648
71 2 -1.63214 6.19013 17.9689
78 2 3.16656 2.35445 17.6151
110 2 -0.629258 2.36678 10.8794
111 2 0.52598 3.53678 11.9877
112 2 -0.44187 1.87983 12.7025
113 2 0.592442 2.62896 13.743
114 2 0.62499 2.16548 15.6352
115 2 2.1788 2.92491 14.7671
69 2 0.555998 1.02328 10.4802
140 2 2.70201 5.60441 11.0221
326 2 0.250529 3.26452 18.069
142 2 2.86774 4.73054 14.1134
143 2 2.90473 4.23101 12.202
144 2 2.01173 5.8816 12.7654
195 1 0.0271455 2.40444 11.7824
196 1 1.04407 2.89962 14.799
205 1 2.51515 5.90308 9.83574
206 1 2.86722 5.06857 12.9815
224 3 2.22016 0.84095 12.9151
230 3 -1.22755 4.0814 15.9762
231 3 0.150636 5.57979 13.978
18 4 -0.57717 6.22268 12.8106
238 3 2.83249 2.75738 11.08
239 3 3.66551 1.1878 15.306
240 3 5.74811 1.78 16.8896
241 3 5.7511 2.18573 11.2602
242 3 7.45807 0.919923 13.1494
327 1 -0.616943 2.64066 18.1251
38 4 4.25681 6.37678 12.9362
34 4 0.7008 6.47909 9.70634
237 3 3.94443 0.731891 9.67615
254 3 3.47077 5.93191 18.5324
248 3 0.0293999 6.38531 11.3808
27 4 8.77613 0.169136 13.7181
331 2 -5.47735 9.52532 4.26733
313 1 -4.44017 10.4403 0.0825859
13 4 -0.871623 6.52443 0.43103
16 4 -2.21346 6.84582 6.7552
20 4 -2.9023 8.34161 9.16201
21 4 -3.50146 10.5537 7.02829
325 1 -7.41892 12.4538 8.29696
40 4 0.841229 9.59192 4.25997
42 4 1.58354 8.97636 8.15394
74 2 -4.2743 9.71982 5.66714
79 2 0.313654 6.9657 4.68872
80 2 -1.14708 8.14726 6.47797
337 2 -2.36756 11.7682 0.0973692
84 2 0.0631591 9.25958 5.91323
86 2 0.539104 10.2956 7.73012
87 2 1.59263 8.39944 6.53857
105 2 -5.36298 8.64359 2.84788
106 2 -3.65255 8.03554 2.08425
107 2 -3.782 9.17852 3.77939
108 2 -1.59911 7.93427 1.56709
262 3 0.86396 7.98878 9.07448
323 2 -7.39811 12.4414 7.15617
370 3 -7.59835 11.9206 3.23136
145 2 0.216793 8.27337 3.07835
146 2 -1.58135 9.28809 4.32514
147 2 -1.32938 7.55336 4.71878
12 4 -4.34941 6.92606 4.3639
149 2 -2.43582 11.5935 5.15189
150 2 -1.04633 11.4455 6.35973
193 1 -4.27088 8.38833 3.08965
194 1 -2.65073 7.38401 0.44166
334 1 -6.17496 10.0215 5.06868
207 1 -0.802991 8.54391 4.54354
208 1 -2.18704 11.6315 6.25488
228 3 -3.31827 7.00719 5.64151
233 3 -2.84502 6.87101 8.57055
234 3 -2.73748 9.45875 8.02474
235 3 -4.65291 11.4109 7.85478
312 2 -5.40623 9.50824 0.405927
257 3 2.31646 7.05354 2.97523
259 3 0.593376 11.0861 3.62383
333 2 -5.93917 11.0959 5.36362
344 2 -1.01177 10.9828 8.24441
4 3 -6.50687 12.5306 0.95469
148 2 -2.42984 12.659 6.62695
129 2 -1.12633 12.7969 0.997258
346 1 -0.376427 11.9072 8.51679
6 4 -5.52808 12.1983 9.05052
109 2 -3.54233 6.97206 0.94158
310 2 -3.91953 10.7555 1.05222
128 2 -1.35 12.499 2.89146
83 2 2.3947 9.18328 4.86391
88 2 -1.95307 11.4567 9.6053
22 4 -3.50535 10.8701 13.5351
121 2 -2.70231 7.55182 13.0991
43 4 -1.70942 10.3352 10.9555
44 4 2.64111 9.24323 13.9483
45 4 1.23243 11.0284 11.75
75 2 -2.39121 12.0042 15.018
311 2 -3.08056 10.2067 18.021
99 2 -5.27994 9.93581 10.2067
100 2 -6.8923 11.0879 10.5585
101 2 -5.20096 11.5022 11.3715
119 2 -0.952715 8.49485 12.7407
120 2 -1.38148 7.87322 14.5151
125 2 -1.32366 10.1819 14.9704
126 2 -3.52757 9.33731 14.3123
141 2 3.06282 6.89037 9.52993
151 2 2.96027 8.32371 16.701
127 2 -2.99117 10.3556 15.9973
154 2 1.10756 7.43282 14.8136
155 2 0.192581 9.02767 14.3178
156 2 1.21306 8.96467 15.8674
191 1 -5.72245 11.0388 10.4541
198 1 -1.57994 7.73092 13.3878
200 1 -2.35515 10.6911 15.1001
209 1 3.4778 7.2591 16.4281
210 1 1.10305 8.56438 14.8423
232 3 -4.72323 8.4001 9.93618
236 3 -4.85385 11.6356 13.6881
265 3 3.43714 7.74082 13.29
263 3 -1.99308 8.79732 10.4653
264 3 -2.64724 10.7028 12.1894
266 3 -0.219621 10.5553 11.3461
339 1 -1.28864 12.431 17.8669
315 3 -6.33083 11.3777 17.2967
316 3 -7.32221 12.0719 14.9791
319 2 -0.67385 11.4213 14.318
8 4 -6.00061 12.7646 14.2796
116 2 -4.09921 8.2508 12.4859
336 2 -1.54067 12.0028 16.8324
267 3 1.92099 10.0265 12.7747
338 2 -0.184654 12.3165 17.9909
317 2 -3.79234 12.2587 17.7308
347 2 0.394075 11.6926 9.32059
152 2 3.11307 6.81249 15.3961
320 2 1.38708 8.90414 18.2155
309 4 -5.32211 11.8031 18.4179
330 2 -2.376 8.41206 18.4135
255 3 0.935329 7.27941 18.2205
363 2 -3.59779 6.99607 18.0497
25 4 9.03217 0.865435 7.9053
47 4 11.189 2.09709 4.00347
335 2 8.49361 1.25802 2.26911
51 4 13.658 2.21147 5.83037
55 4 12.439 4.56055 2.45595
357 2 11.4514 2.4368 1.2839
57 4 12.3841 4.4552 7.55917
354 1 15.7227 0.369648 9.04468
350 2 15.3676 1.07747 1.34092
358 2 9.89233 1.40079 0.561157
93 2 13.3929 5.72788 8.2054
284 3 13.252 3.64468 6.54952
133 2 6.56503 4.27318 3.62918
134 2 8.08957 3.36912 2.8511
56 4 10.7629 6.15659 0.115643
81 2 6.75221 3.3971 7.70785
89 2 16.0248 0.653972 2.96395
157 2 9.39524 0.99214 5.084
158 2 8.61572 2.63675 4.34396
159 2 9.86931 2.67696 5.83043
371 3 12.9433 0.249067 0.12955
166 2 13.5819 3.14992 0.512557
167 2 13.9882 2.71677 2.29255
329 2 15.3802 2.685 0.406929
172 2 8.21986 5.38407 6.53635
203 1 7.01431 3.29032 3.22705
288 3 11.0648 5.17005 6.94975
211 1 9.51533 2.11909 4.94451
352 2 15.6435 1.51129 8.89016
214 1 13.8026 3.5253 1.54493
359 1 10.7493 2.27212 0.40572
269 3 10.8849 0.536072 2.83818
271 3 9.90557 1.92491 8.78176
272 3 14.9395 2.28591 4.88819
273 3 12.388 1.72516 4.94076
274 3 13.7897 1.06519 7.00854
280 3 11.4565 3.52323 3.24437
281 3 13.2791 5.66024 3.40278
282 3 11.5892 5.33064 1.20971