ITEM: TIMESTEP
0
ITEM: NUMBER OF ATOMS
371
ITEM: BOX BOUNDS xy xz yz pp pp pp
-8.8510000000000009e+00 1.7777500000000000e+01 -8.8510000000000009e+00
0.0000000000000000e+00 1.3206702999999999e+01 4.5889999999999997e-01
0.0000000000000000e+00 1.8640300000000000e+01 3.9180300000000001e-01
ITEM: ATOMS id type x y z
360 2 -2.78021 4.39745 1.51376
2 2 2.38812 1.45107 2.82411
345 2 7.4058 0.506138 9.24338
324 2 0.747889 0.565432 8.05783
68 2 1.88175 1.30489 7.03312
7 4 0.816891 2.52323 6.27766
11 4 0.29967 4.23387 2.4401
14 4 -0.875921 4.76491 7.74544
30 4 5.65366 3.04819 1.73298
31 4 1.57051 6.34507 4.16118
72 2 -2.3382 3.96497 8.18639
33 4 5.62836 4.46467 8.26453
35 4 4.28344 5.85805 5.658
5 4 -1.1855 2.01326 4.02275
70 2 1.39829 3.40185 1.34957
237 3 3.64467 0.97733 9.18036
102 2 2.60046 3.67344 5.26526
103 2 3.03204 1.88884 5.50969
104 2 3.25133 3.13942 6.95005
130 2 4.62661 2.12065 3.8164
131 2 4.15199 1.04279 2.27786
132 2 3.50033 2.88096 2.4462
250 3 4.84271 5.2378 7.07321
192 1 2.71524 2.85997 6.04718
202 1 4.26398 2.09679 2.70391
223 3 -0.0347974 1.75109 5.21651
225 3 -0.615773 2.98159 2.91688
226 3 -0.524722 5.36007 1.68816
227 3 0.228754 3.64839 7.29574
229 3 -1.21071 5.86104 6.56967
243 3 6.01071 2.1379 0.287909
244 3 1.15105 4.92955 3.60074
245 3 5.01082 4.44617 1.44686
246 3 4.69129 3.41253 8.95541
249 3 2.78815 6.20809 5.22774
32 4 4.40027 5.84273 0.755693
247 3 -0.348703 5.61383 8.98501
1 4 1.43308 0.172836 2.16161
3 2 -0.0543077 0.815235 1.75056
329 2 -1.57813 2.51035 0.552701
136 2 5.01736 4.84843 4.48489
139 2 2.3368 4.96501 9.11584
335 2 8.01973 1.07713 2.9265
10 4 1.83701 1.85956 11.6051
17 4 0.185198 4.83279 15.4673
73 2 -2.39567 6.2098 12.4229
24 4 6.92248 1.72873 17.5354
26 4 4.29603 2.3742 10.0283
252 3 6.05652 3.38394 13.437
28 4 4.32439 2.15397 16.0804
29 4 6.54662 2.30382 12.4005
253 3 1.19171 5.56585 16.5394
36 4 5.63032 4.37379 14.6992
37 4 2.19026 6.49559 17.6193
251 3 4.38838 3.77731 15.5377
328 2 0.131068 1.83342 18.0659
254 3 3.25858 5.85116 18.6093
78 2 3.50283 2.35622 17.545
110 2 -0.72208 2.12406 10.887
111 2 0.325065 3.57161 11.8903
112 2 -0.423786 1.95327 12.688
113 2 0.563449 3.03169 13.6423
114 2 0.461449 2.47819 15.4309
115 2 1.99726 3.43001 14.7576
69 2 0.65555 0.970438 10.5474
140 2 2.58073 5.61379 10.9241
326 2 -0.0759787 3.83965 17.9374
142 2 2.93953 4.69086 13.8511
143 2 2.86148 4.2815 12.0063
144 2 1.9579 5.85369 12.7275
195 1 0.00915444 2.37407 11.7596
196 1 0.900475 3.27424 14.7207
205 1 2.3194 5.87693 9.7408
206 1 2.87079 5.11559 12.8111
224 3 2.14239 1.18128 12.9744
230 3 -1.30377 4.18627 16.1144
231 3 -0.117487 5.90964 14.1457
18 4 -0.709056 6.64153 12.8322
238 3 2.72135 2.93025 10.9292
239 3 3.33543 1.15233 15.3863
240 3 5.74633 1.54016 16.3443
241 3 5.50422 1.99236 11.0694
242 3 7.40225 1.01195 13.0823
327 1 -0.589437 2.79167 18.1497
38 4 4.20982 6.46536 12.8301
71 2 -1.58291 6.74645 17.9596
331 2 -5.46065 9.48166 4.3193
313 1 -4.68026 10.6658 0.426957
13 4 -0.698553 6.73073 0.82404
16 4 -2.18472 7.09996 6.8212
20 4 -3.28692 8.55433 9.15531
21 4 -3.6566 10.5317 6.89222
325 1 -7.57378 12.3892 7.93511
40 4 0.855121 9.75359 4.37281
42 4 1.57846 9.15585 8.19865
74 2 -4.38375 9.34161 5.76591
79 2 0.232565 7.14653 4.95866
80 2 -1.13391 8.40575 6.4682
337 2 -2.68153 12.455 0.551094
84 2 -0.00798352 9.6175 5.97532
86 2 0.653179 10.4933 7.73697
87 2 2.07971 8.50903 6.77198
105 2 -5.27327 8.74189 2.82128
106 2 -3.58875 7.98246 2.16126
107 2 -3.68774 9.29288 3.6579
108 2 -1.41303 8.07878 1.74785
262 3 0.717615 8.11866 9.00444
323 2 -7.07641 12.1751 6.91923
370 3 -7.66136 11.8515 3.25279
145 2 0.0809701 8.6306 3.09628
146 2 -1.63111 9.63968 4.429
147 2 -1.40959 7.80249 4.64817
12 4 -4.45248 7.00063 4.36612
149 2 -2.66514 11.3421 5.0473
150 2 -1.19692 11.3726 6.44377
193 1 -4.20358 8.42423 3.13483
194 1 -2.60638 7.24595 0.540399
334 1 -6.08505 10.1428 5.07487
207 1 -0.854219 8.76004 4.53901
208 1 -2.33179 11.642 6.16852
228 3 -3.25582 7.14527 5.64832
233 3 -2.94729 6.97027 8.58828
234 3 -3.03205 9.76042 8.04015
235 3 -4.83895 11.5436 7.50845
312 2 -5.22727 9.64178 0.618858
257 3 1.95454 7.41396 3.00001
259 3 0.814644 11.1576 3.64347
333 2 -5.76323 11.2267 5.29671
344 2 -1.06398 11.1718 8.0871
4 3 -6.86631 12.4886 0.843111
148 2 -2.63153 12.7601 6.39881
129 2 -1.31119 12.632 1.38892
346 1 -0.419761 12.0175 8.47017
6 4 -5.71148 12.3174 8.7376
330 2 -2.95273 8.21213 0.0336485
310 2 -4.4679 11.1639 1.46898
128 2 -1.27702 12.0535 3.28528
201 1 -0.815543 12.7932 2.53193
109 2 -3.38382 6.6013 1.01645
347 2 0.39038 11.7713 9.2888
83 2 2.47103 9.0664 4.55349
88 2 -1.99015 11.6675 9.57385
22 4 -3.72724 11.1384 13.4229
121 2 -2.80238 8.01293 12.3736
43 4 -1.90261 10.532 10.9312
44 4 2.66115 9.19888 13.7656
45 4 1.07528 11.0228 11.7086
75 2 -2.59134 12.2343 15.0198
311 2 -3.30896 10.9836 18.4668
99 2 -5.51991 10.0848 9.97196
100 2 -6.99975 11.4464 10.3293
101 2 -5.22516 11.6729 11.1404
119 2 -1.05431 8.79836 13.0266
120 2 -2.46978 8.07875 14.1937
125 2 -1.7534 10.3625 15.0481
126 2 -3.81845 9.57119 14.2278
248 3 0.174637 6.68025 11.5171
151 2 3.18205 8.48176 16.669
127 2 -3.45714 10.5879 15.8959
154 2 0.812199 7.66133 14.5896
155 2 0.280737 9.4187 14.5583
156 2 1.53201 8.84764 15.8508
191 1 -5.7904 11.2519 10.2329
198 1 -2.05635 7.95249 13.1874
200 1 -2.72508 10.8876 15.0783
209 1 3.38241 7.40884 16.5221
210 1 1.1208 8.72667 14.8151
232 3 -5.004 8.4536 9.73211
236 3 -5.15354 11.8151 13.6761
265 3 3.33878 7.81387 13.2975
263 3 -2.3626 9.07013 10.4402
264 3 -2.90329 11.0697 12.0991
266 3 -0.345606 10.609 11.3526
339 1 -1.65078 12.7896 18.1662
315 3 -6.4485 11.2494 17.2001
316 3 -7.48012 12.2585 15.0033
319 2 -0.997532 11.5396 14.3009
8 4 -6.25513 13.0443 14.252
116 2 -4.12595 7.7233 12.5901
336 2 -2.13934 12.1771 17.3029
27 4 -0.249405 12.9732 13.7842
338 2 -0.603411 12.4719 18.3275
317 2 -4.17375 12.6027 17.9219
34 4 0.623498 6.70442 9.8076
152 2 2.87298 7.08791 15.508
320 2 1.12677 9.41868 18.4683
309 4 -5.75148 11.9855 18.3963
267 3 1.82987 10.0603 12.7697
255 3 0.934327 7.75789 18.5
363 2 -3.73463 7.09526 17.9858
141 2 2.93512 6.72774 9.35007
25 4 8.76121 1.09448 8.09383
47 4 11.0476 1.97189 4.19867
348 2 15.8528 0.988794 0.939526
51 4 13.5737 2.30067 5.91489
55 4 12.3259 4.45574 2.41421
357 2 11.2567 2.38716 1.31175
57 4 12.3365 4.54607 7.57683
354 1 15.7484 0.452333 9.26152
350 2 14.6693 0.484844 2.46732
358 2 9.81274 1.31595 0.396336
93 2 13.3481 5.89747 8.03214
284 3 13.3296 3.83447 6.53418
133 2 7.48711 4.56202 2.82097
134 2 8.12936 2.86508 2.19167
352 2 15.6988 1.62943 9.10124
351 1 15.4268 0.124083 1.53944
89 2 16.1392 0.448825 3.3894
157 2 9.00497 0.999247 4.98788
158 2 8.52309 2.66558 4.14739
159 2 9.5515 2.67856 5.92366
371 3 12.867 0.141274 0.134149
166 2 13.3872 3.03026 0.5511
167 2 14.0187 2.69218 2.401
137 2 6.82891 6.4859 4.98666
172 2 8.56437 4.9761 5.56429
203 1 7.3114 3.43232 2.70397
288 3 11.1408 5.37914 6.88452
211 1 9.20378 2.14013 4.93465
81 2 6.92356 3.53583 7.63803
214 1 13.7229 3.50614 1.6342
359 1 10.6324 2.19917 0.358972
269 3 10.701 0.806062 3.16455
271 3 9.77866 2.0777 8.80954
272 3 14.7387 2.24257 4.70209
273 3 12.0387 1.70288 5.36654
274 3 14.058 1.39984 7.14505
280 3 11.4622 3.3498 3.38499
281 3 13.0515 5.71377 3.35649
282 3 11.4995 5.05668 1.02705
283 3 12.0346 3.73709 8.87519
216 1 8.7444 6.11094 5.43527
77 2 8.15952 1.74578 6.5661
170 2 8.65581 6.39442 4.37497
135 2 6.81836 2.87689 3.63998
161 2 10.0525 5.53035 9.03205
9 4 15.4788 2.82292 16.7758
48 4 12.2786 1.53293 18.0377
368 2 8.9771 6.15386 17.7832
53 4 9.67283 1.89992 16.0761
54 4 11.9557 1.93671 12.4372
60 4 11.665 3.62768 14.9569
82 2 6.96784 4.60657 15.7577
212 1 9.70123 4.7035 9.74182
91 2 13.5026 1.38807 12.2358
94 2 11.1515 5.86557 10.3406
95 2 12.8995 3.39192 16.2808
96 2 11.9818 5.27645 14.643
361 2 12.7587 5.92429 16.654
117 2 11.6643 6.47194 12.7759
369 1 9.63609 5.24216 17.8729
50 4 10.7567 3.09029 9.67579
162 2 9.65613 5.02025 10.8651
163 2 8.22857 4.19916 12.2396
164 2 7.66296 3.45229 10.5635
165 2 8.78435 2.49714 11.8323
175 2 7.98963 6.41287 13.9512
92 2 11.2244 0.425929 12.7007
213 1 8.00133 3.31503 11.6749
367 2 9.8407 4.73858 16.8221
270 3 13.6171 2.91127 17.4799
275 3 15.5585 1.48282 15.9348
160 2 8.71222 4.34785 9.39237
277 3 11.2083 1.37406 16.8402
278 3 8.56587 2.18302 17.1833
279 3 11.3302 2.64531 11.1739
256 3 5.26651 5.77223 14.0974
289 3 10.2113 3.59497 15.5334
290 3 12.0161 2.78536 13.7516
343 1 6.19539 6.70938 18.1717
341 2 6.28391 5.65589 17.6102
276 3 9.21019 0.908244 14.9798
56 4 11.2564 6.26514 18.5951
286 3 4.94131 6.43915 11.3629
58 4 6.24199 6.58667 10.3819
356 2 10.5988 3.57086 18.48
174 2 9.80885 6.6941 13.9914
285 3 6.42126 5.42491 9.32148
366 2 9.21024 4.51551 18.589
19 4 9.51512 10.5767 4.21172
23 4 0.941383 12.2873 2.53404
299 3 4.23041 11.9475 8.7798
46 4 5.01066 11.878 0.85978
215 1 9.88448 7.41716 0.632355
59 4 10.4683 6.55561 6.15659
62 4 4.64375 10.4944 3.815
64 4 7.23216 8.64305 8.29954
66 4 6.93517 10.6094 6.02604
138 2 5.4631 6.65974 3.62068
85 2 5.35903 7.82 5.2224
98 2 8.66638 7.57601 8.13739
122 2 9.60464 8.23509 3.34317
123 2 8.99487 9.43217 2.03372
124 2 7.74862 8.91019 3.33693
261 3 1.38727 11.2913 1.04711
342 2 6.69394 6.52007 0.140597
49 4 5.54082 12.8522 8.00213
185 2 7.73143 10.9568 8.89122
179 2 3.07963 10.6794 5.70758
180 2 2.95617 12.1429 4.42968
181 2 4.34036 12.121 5.63467
182 2 9.64782 8.81164 6.98299
365 2 9.0134 6.74914 1.15104
184 2 10.2045 8.22089 8.5832
41 4 1.92315 10.1033 0.172996
199 1 8.89313 9.10157 3.06228
183 2 11.4794 8.51798 7.47054
219 1 3.60591 11.5094 5.04655
220 1 10.4309 8.2231 7.521
322 2 9.19408 11.5176 8.32164
204 1 5.69606 6.73022 4.71249
298 3 2.89678 9.58667 8.78469
287 3 11.4088 7.15463 4.91822
293 3 3.91053 9.06733 3.77633
294 3 4.6601 11.2873 2.23253
171 2 8.08492 6.74839 6.17644
260 3 2.6907 9.0719 1.04401
349 2 7.39019 12.1875 1.84075
301 3 8.52637 10.6734 5.46941
302 3 6.1354 10.5009 4.55632
303 3 6.76467 9.30456 6.93441
304 3 6.42692 11.8361 6.97468
258 3 4.36121 7.24235 1.68219
169 2 10.7309 7.85433 1.29961
186 2 9.20892 9.78065 8.99404
39 4 3.18972 8.11687 2.25875
221 1 8.12495 9.98268 9.2824
76 2 0.837943 12.5743 7.22052
355 2 7.95 12.8243 8.9041
332 2 10.9177 9.50234 6.02975
15 4 11.2799 7.55488 10.7976
153 2 4.47622 7.17344 16.546
61 4 8.39785 7.97809 12.1909
63 4 6.73057 10.0994 17.5561
292 3 7.42297 6.73351 11.4395
67 4 4.3266 10.8315 16.1761
97 2 6.823 8.60436 18.3657
52 4 6.30793 12.8895 15.3442
353 2 6.50666 12.983 10.2891
321 2 7.49307 11.7055 15.8213
176 2 8.40994 10.5236 12.1229
177 2 7.46056 9.89381 13.5603
178 2 6.53986 9.92668 11.848
340 2 5.81354 7.57752 17.467
187 2 7.96403 9.95746 10.456
188 2 5.38629 9.383 10.2258
189 2 4.18619 9.84171 11.7401
190 2 5.45848 11.0521 11.0792
268 3 0.831812 12.7076 12.5679
218 1 7.59606 9.84878 12.4617
222 1 4.81495 10.1749 10.8505
314 4 9.85209 11.0462 15.9986
118 2 11.4675 8.37044 13.0315
197 1 12.0724 7.57396 12.5078
90 2 6.4888 12.8131 13.7273
291 3 9.79435 8.0821 11.0191
296 3 6.25454 11.2785 18.5857
295 3 8.26673 10.6106 16.7253
173 2 8.63862 8.1612 14.5121
300 3 2.1046 11.4488 10.5652
305 3 3.51687 10.1009 14.8158
306 3 5.61693 9.85204 16.4073
307 3 4.87717 12.3455 15.7423
308 3 3.03329 10.7975 17.5155
318 2 10.2976 9.76828 15.0201
65 4 3.41395 10.9178 9.66139
364 2 12.2047 7.74348 16.8315
217 1 8.77859 7.19004 13.8279
168 2 9.94256 8.51605 18.5291
297 3 6.19432 8.05378 9.38482
362 1 12.6616 6.85782 17.3242
ITEM: TIMESTEP
100
ITEM: NUMBER OF ATOMS
371
ITEM: BOX BOUNDS xy xz yz pp pp pp
-8.8510000000000009e+00 1.7777500000000000e+01 -8.8510000000000009e+00
0.0000000000000000e+00 1.3206702999999999e+01 4.5889999999999997e-01
0.0000000000000000e+00 1.8640300000000000e+01 3.9180300000000001e-01
ITEM: ATOMS id type x y z
360 2 -2.70322 4.27269 1.76826
2 2 2.20605 1.6627 2.71663
345 2 7.23974 0.453788 8.69903
324 2 1.19304 0.847353 8.71864
68 2 2.04128 1.5497 7.20673
7 4 0.944793 2.56319 6.27806
11 4 0.228746 4.25341 2.40925
14 4 -0.828945 4.6978 7.73526
30 4 5.53929 3.06176 1.78516
31 4 1.69759 6.25651 4.08821
72 2 -2.21806 4.03633 8.48516
33 4 5.59325 4.43633 8.31815
35 4 4.29071 5.83778 5.69769
5 4 -1.11572 2.11193 4.10236
70 2 1.25091 3.57672 1.29734
135 2 6.72419 2.55815 3.65438
102 2 2.53752 3.74616 5.01241
103 2 3.31362 2.08306 5.67031
104 2 3.40882 3.60787 6.7494
130 2 4.84634 1.12715 3.34419
131 2 3.67333 1.36519 1.90256
132 2 3.58033 2.49958 3.38018
250 3 4.87518 5.25166 7.05092
192 1 2.80138 3.03922 5.90773
202 1 4.19587 1.86818 2.76002
223 3 0.168658 1.70052 5.06289
225 3 -0.730545 3.15295 3.0451
226 3 -0.490259 5.38049 1.48683
227 3 -0.00214095 3.4786 7.20924
229 3 -1.31522 5.85847 6.63299
243 3 6.12685 2.17223 0.554726
244 3 1.27712 4.84631 3.49513
245 3 5.02582 4.4628 1.4633
246 3 4.54129 3.49653 8.94696
249 3 2.73436 6.09801 5.43082
32 4 4.43221 5.82641 0.732468
247 3 -0.0786214 5.47071 8.83943
1 4 1.46313 0.212585 2.1595
3 2 -0.0304239 0.884671 1.6183
201 1 8.05784 0.116573 2.16696
136 2 4.96033 5.15348 4.28934
139 2 2.67943 5.33876 8.99653
10 4 1.79281 1.86657 11.6999
17 4 0.260482 4.7273 15.371
73 2 -2.54155 6.21404 12.6784
24 4 6.97198 1.65225 17.6582
26 4 4.2045 2.32057 9.9961
252 3 6.00827 3.32444 13.6208
28 4 4.27046 2.23354 16.2124
29 4 6.59891 2.27207 12.5616
253 3 1.45133 5.35506 16.6153
36 4 5.55191 4.37557 14.6956
37 4 2.22193 6.37018 17.6188
251 3 4.37589 3.72897 15.5098
328 2 0.070479 1.90041 18.0318
71 2 -1.67575 6.54674 17.9255
78 2 3.36339 2.54395 17.649
110 2 -0.569724 2.42434 10.7501
111 2 0.294349 3.53501 12.1083
112 2 -0.666685 1.79473 12.6061
113 2 0.515337 2.89821 13.6395
114 2 0.689573 2.36281 15.5229
115 2 2.07127 3.31648 14.7243
69 2 0.719486 1.00876 10.6128
140 2 2.58948 5.48223 10.9619
326 2 -0.0309376 3.79055 18.117
142 2 2.91382 4.67971 13.9404
143 2 2.82458 4.24894 12.1059
144 2 1.94189 5.82983 12.7315
195 1 -0.0707827 2.34865 11.7752
196 1 0.95512 3.17161 14.6974
205 1 2.39546 5.99604 9.85893
206 1 2.8366 5.09617 12.9163
224 3 2.15668 0.904313 12.9463
230 3 -1.35661 4.24011 15.938
231 3 -0.0427269 5.68294 14.0561
18 4 -0.708894 6.61587 12.7667
238 3 2.73029 2.8778 10.9347
239 3 3.46507 1.27606 15.2558
240 3 5.68206 1.73345 16.7137
241 3 5.46179 2.15861 11.1588
242 3 7.20977 0.901637 13.092
327 1 -0.616756 2.80418 18.1743
38 4 4.19315 6.43313 12.8658
34 4 0.579351 6.5589 9.75049
237 3 3.81484 0.944953 9.3777
254 3 3.3418 5.84038 18.6148
248 3 -0.0679718 6.64196 11.2868
331 2 -5.4818 9.48323 4.32467
313 1 -4.57015 10.6714 0.445329
13 4 -0.785483 6.6853 0.53743
16 4 -2.25605 7.06436 6.75566
20 4 -3.25501 8.43824 9.19559
21 4 -3.67117 10.6243 7.04476
325 1 -7.53391 12.7359 8.06637
40 4 0.839389 9.68528 4.40746
42 4 1.4639 9.06656 8.15536
74 2 -4.26474 9.74171 5.61867
79 2 0.34573 7.10227 4.7003
80 2 -1.2623 8.45213 6.32549
337 2 -2.83718 11.9158 0.232684
84 2 -0.0339248 9.53266 5.98121
86 2 0.533675 10.4689 7.727
87 2 1.78436 8.34713 6.67938
105 2 -5.08344 8.95131 2.91172
106 2 -3.52403 8.05 2.10541
107 2 -3.39669 9.06146 3.8388
108 2 -1.68182 8.03292 1.62584
262 3 0.650846 8.03408 8.97399
323 2 -7.86224 12.9284 6.98458
370 3 -7.61428 11.98 3.2951
145 2 0.189437 8.39694 3.07398
146 2 -1.4644 9.54483 4.30642
147 2 -1.36846 7.72206 4.5559
12 4 -4.38042 6.99723 4.36998
149 2 -2.42574 11.5522 4.99763
150 2 -1.37079 11.5181 6.53631
193 1 -4.12689 8.41857 3.18731
194 1 -2.64543 7.44493 0.406344
334 1 -6.20971 10.0233 5.11008
207 1 -0.805735 8.69749 4.4759
208 1 -2.41307 11.7012 6.14269
228 3 -3.37818 7.08665 5.66253
233 3 -2.89096 7.01545 8.52738
234 3 -2.96545 9.50463 7.97039
235 3 -4.78224 11.5821 7.79322
312 2 -5.2559 9.74846 0.650979
257 3 2.09813 7.19654 2.92444
259 3 0.758774 11.1602 3.77515
333 2 -5.82066 11.0841 5.49598
344 2 -1.0363 11.0452 8.30332
4 3 -6.68378 12.5014 0.881783
148 2 -2.77353 12.7403 6.44887
129 2 -1.20247 12.6354 1.0344
346 1 -0.46013 12.0221 8.45572
6 4 -5.64479 12.3722 8.92348
109 2 -3.50743 6.87457 0.867586
310 2 -4.04497 11.0606 1.35825
128 2 -1.3517 12.2998 3.07302
83 2 2.38139 9.00956 4.71208
88 2 -1.93832 11.5552 9.70729
22 4 -3.72181 11.2003 13.4433
121 2 -2.87483 8.35534 12.7492
43 4 -1.89402 10.4359 10.9515
44 4 2.48635 9.25392 13.9404
45 4 1.12721 11.3043 11.814
75 2 -2.62258 12.175 14.9431
311 2 -3.34591 10.7273 18.2634
99 2 -5.41783 10.0223 10.1589
100 2 -6.91902 11.1128 10.4406
101 2 -5.21205 11.7474 11.0684
119 2 -0.727373 8.59707 13.1022
120 2 -2.33919 7.79543 14.4305
125 2 -1.72691 10.2235 14.8838
126 2 -3.98051 9.63341 14.249
141 2 2.97255 6.97727 9.84163
151 2 2.92899 8.48885 16.8571
127 2 -3.16356 10.3226 16.0485
154 2 0.821677 7.67616 14.6515
155 2 0.0862861 9.43347 14.5041
156 2 1.0589 8.94354 15.9922
191 1 -5.80899 11.1141 10.3253
198 1 -2.02939 7.85633 13.3424
200 1 -2.72784 10.7607 15.1051
209 1 3.30911 7.42489 16.5579
210 1 0.959964 8.7727 14.8979
232 3 -4.89959 8.26165 9.8169
236 3 -5.04122 11.9835 13.6151
265 3 3.39633 7.79812 13.2482
263 3 -2.27626 8.97706 10.4468
264 3 -2.97345 10.9415 12.0236
266 3 -0.347362 10.4897 11.5985
339 1 -1.67563 12.633 17.9584
315 3 -6.43383 11.3007 17.2568
316 3 -7.49002 12.192 14.9806
319 2 -1.11225 11.704 14.3647
8 4 -6.12125 12.9715 14.207
116 2 -4.1844 8.19227 12.3291
336 2 -2.11058 12.0505 17.0693
27 4 -0.31455 13.1028 13.7715
338 2 -0.53662 12.5253 18.0911
317 2 -4.01923 12.6035 17.9268
330 2 -2.46061 8.76036 18.5093
152 2 3.14713 7.19448 15.4158
320 2 1.12004 9.32293 18.3295
309 4 -5.62215 12.0226 18.3808
363 2 -3.86419 7.29854 17.8895
255 3 0.861572 7.67799 18.3636
347 2 0.1591 11.9289 9.40071
25 4 8.92048 1.07645 7.91461
47 4 11.1267 2.04158 4.1025
348 2 15.9762 0.123166 0.374058
51 4 13.5928 2.25231 5.80637
55 4 12.3885 4.54911 2.40374
357 2 11.382 2.30287 1.45243
57 4 12.4324 4.53932 7.57606
354 1 15.6904 0.44567 9.17441
350 2 15.1526 1.23357 1.69945
358 2 9.91708 1.311 0.715844
93 2 13.4617 5.73881 8.18858
284 3 13.2858 3.78781 6.43806
133 2 7.22537 4.3636 3.18734
134 2 8.10819 2.98438 2.26647
329 2 15.4934 2.29671 0.508708
351 1 15.4129 0.153609 1.35567
89 2 15.9318 0.642701 3.19041
157 2 9.25914 1.19172 5.17475
158 2 8.61241 2.80772 4.20785
159 2 9.64626 3.01094 5.84732
371 3 12.664 0.217937 0.194454
166 2 13.5054 3.17028 0.552813
167 2 13.9158 2.57458 2.38533
335 2 8.00461 1.27034 2.33656
172 2 8.3109 5.23351 6.02836
203 1 7.17619 3.3322 2.83175
288 3 11.034 5.15539 7.12431
211 1 9.44299 2.42052 4.97225
81 2 6.67862 3.45199 7.54354
214 1 13.7462 3.46158 1.66041
359 1 10.6308 2.14248 0.495965
269 3 10.6276 0.604552 2.95157
271 3 9.77398 1.94112 8.90624
272 3 14.8806 2.35906 4.86248
273 3 12.2102 1.5897 5.08828
274 3 14.0851 1.25074 7.12634
280 3 11.5171 3.37663 3.32697
281 3 13.1787 5.67627 3.40718
282 3 11.4449 5.21399 1.24717
283 3 12.1763 3.55044 8.7885
216 1 8.67477 6.18388 5.585
77 2 8.35403 2.03655 6.58003
170 2 8.64564 6.2769 4.47001
366 2 8.93309 4.02097 0.119598
161 2 10.0066 5.47418 9.09564
352 2 15.501 1.57982 9.05325
356 2 10.1787 3.22076 0.00705401
355 2 16.7643 0.208568 8.92975
9 4 15.4811 2.92778 16.7527
48 4 12.3124 1.72552 18.0747
368 2 8.99179 6.15289 17.9521
53 4 9.76332 1.89254 16.1109
54 4 11.9002 2.1753 12.3339
60 4 11.6124 3.81439 14.917
82 2 6.81424 4.55841 15.7718
212 1 9.65294 4.66278 9.76253
91 2 13.5227 2.08767 11.901
94 2 11.1114 5.86158 10.3246
95 2 12.8855 3.47218 16.1768
96 2 11.9375 5.47396 14.6717
361 2 12.5279 5.83804 16.764
117 2 12.2361 6.46242 12.6714
369 1 9.7062 5.21501 17.9862
50 4 10.846 3.14489 9.68303
162 2 9.46747 5.02536 10.8386
163 2 8.19772 4.28398 12.4128
164 2 7.79746 3.54323 10.8086
165 2 8.88178 2.63972 11.9934
285 3 6.36995 5.30076 9.44554
92 2 11.4273 0.577394 12.6628
213 1 8.03687 3.35117 11.9098
367 2 9.97017 4.74896 16.9142
270 3 13.6266 3.10721 17.3717
275 3 15.5169 1.56528 15.9269
58 4 6.13969 6.60229 10.3706
277 3 11.1356 1.32334 16.9325
278 3 8.43743 2.16143 17.0087
279 3 11.1178 2.77219 11.1913
256 3 5.2232 5.9133 14.0359
289 3 10.2297 3.63329 15.5646
290 3 11.8778 3.01091 13.6505
286 3 4.80094 6.44505 11.3059
341 2 6.2043 5.94246 17.474
276 3 9.29752 1.02854 14.886
56 4 11.1864 6.3864 18.5542
160 2 8.72033 4.07139 9.32938
19 4 9.40515 10.6992 4.27065
23 4 0.849758 12.2241 2.46116
299 3 4.31393 11.9683 8.78245
46 4 5.08566 11.8469 0.938962
215 1 10.0719 7.67976 0.639033
59 4 10.4271 6.55672 6.25609
62 4 4.56748 10.5879 3.75093
64 4 7.21883 8.59915 8.31184
66 4 6.818 10.4735 5.9725
138 2 5.46223 6.95679 3.70911
85 2 5.17196 7.92389 5.41558
98 2 8.50049 7.45835 8.0888
122 2 9.81499 8.51965 3.49022
123 2 9.02275 9.52813 2.0525
124 2 7.92309 8.72126 3.38798
261 3 1.22269 11.2169 0.839613
342 2 6.62041 6.56353 0.153436
49 4 5.63985 12.6853 7.86025
185 2 7.65821 10.9701 8.59627
179 2 2.94861 11.2089 5.6149
180 2 2.90838 12.4516 4.14881
181 2 4.41024 12.371 5.41993
182 2 9.63865 8.91516 6.97571
365 2 9.59873 7.24226 1.62049
184 2 10.0011 7.97595 8.67166
41 4 1.92091 10.0062 0.138576
199 1 8.93018 9.18081 3.12891
183 2 11.3364 8.5359 7.45999
219 1 3.61728 11.7893 4.90574
220 1 10.285 8.15772 7.53696
322 2 9.16884 11.8672 8.48117
204 1 5.62587 6.92438 4.86817
298 3 2.79731 9.43798 8.7144
287 3 11.2317 7.0833 4.99238
293 3 3.76924 9.15656 3.7404
294 3 4.73801 11.2417 2.31926
171 2 8.2222 7.15302 6.09848
260 3 2.7878 9.20363 1.18766
349 2 7.102 12.2609 2.13088
301 3 8.46446 10.8 5.56595
302 3 5.9888 10.4021 4.6626
303 3 6.76392 8.94067 6.83459
304 3 6.39632 11.7134 6.83569
258 3 4.47844 7.17313 1.76938
169 2 11.0432 8.27783 0.961926
186 2 9.18926 9.9302 8.83418
39 4 3.2737 8.0587 2.20597
221 1 8.12727 10.1264 9.10543
76 2 0.633217 12.4255 6.99925
332 2 10.7725 9.33731 5.94097
137 2 6.73322 6.70268 5.16197
15 4 11.3476 7.52274 10.8671
153 2 4.38426 7.278 16.9893
61 4 8.38295 7.92826 12.0428
63 4 6.67358 10.1356 17.497
292 3 7.45496 6.85223 11.2472
67 4 4.24403 10.8061 16.149
97 2 6.82696 8.72504 18.44
52 4 6.27956 12.9128 15.4187
353 2 6.56279 12.8744 10.2128
321 2 7.60897 11.8867 15.9036
176 2 8.27581 10.4786 12.057
177 2 7.24294 9.44916 13.363
178 2 6.47387 9.83271 11.6845
340 2 6.08025 7.76796 17.3492
187 2 7.95235 10.0978 10.2751
188 2 5.12665 9.31252 10.4814
189 2 4.08487 9.98253 11.9072
190 2 5.39165 11.1589 11.0504
268 3 0.982652 12.6745 12.6181
218 1 7.48369 9.66362 12.2356
222 1 4.61531 10.2117 10.9215
314 4 9.86081 11.0877 16.0179
118 2 11.2646 8.1226 13.1199
197 1 12.0991 7.60228 12.5597
90 2 6.51484 12.812 13.7961
291 3 9.98719 8.25419 11.1475
296 3 6.19242 11.2047 18.5101
295 3 8.31876 10.6872 16.6537
173 2 9.0254 8.33237 14.4232
300 3 2.04171 11.6461 10.4352
305 3 3.46735 9.97494 14.8879
306 3 5.65027 9.70065 16.3996
307 3 4.86809 12.2963 15.6896
308 3 3.16917 10.6268 17.4845
318 2 10.5256 9.64069 15.2298
65 4 3.3808 10.944 9.72915
364 2 12.1772 7.81268 16.4986
217 1 8.7682 7.42989 13.8454
168 2 9.84689 8.60948 18.572
297 3 6.13453 7.99856 9.36471
362 1 12.4823 6.97193 17.2109
174 2 9.70673 6.74358 13.7089
343 1 6.18133 6.88989 18.063
175 2 7.872 6.91044 14.3327
267 3 2.08285 10.2459 12.7322
ITEM: TIMESTEP
200
ITEM: NUMBER OF ATOMS
371
ITEM: BOX BOUNDS xy xz yz pp pp pp
-8.8510000000000009e+00 1.7777500000000000e+01 -8.8510000000000009e+00
0.0000000000000000e+00 1.3206702999999999e+01 4.5889999999999997e-01
0.0000000000000000e+00 1.8640300000000000e+01 3.9180300000000001e-01
ITEM: ATOMS id type x y z
360 2 -2.6826 4.22117 1.5284
2 2 2.26011 1.60052 2.95798
345 2 7.36988 0.596538 8.89023
324 2 0.954728 0.723603 8.58633
68 2 1.88287 1.38669 7.2751
7 4 0.950146 2.49928 6.15945
11 4 0.172754 4.30086 2.33646
14 4 -0.734578 4.59852 7.69702
30 4 5.72394 2.81567 1.83867
31 4 1.67817 6.20935 4.08404
72 2 -1.92021 3.70859 8.4543
33 4 5.47103 4.38985 8.30653
35 4 4.31937 6.02416 5.65728
5 4 -1.15674 2.15537 3.96264
70 2 1.01252 3.31754 1.36349
135 2 6.78994 2.40623 3.92334
102 2 2.80964 3.55567 5.2588
103 2 3.26255 1.73022 5.8875
104 2 3.2132 3.18566 7.13267
130 2 4.76444 1.32568 3.38588
131 2 3.61705 1.15477 1.85391
132 2 3.56441 2.78777 2.96485
250 3 4.86435 5.18815 7.01718
192 1 2.84489 2.78308 6.18143
202 1 4.2079 1.8324 2.60233
223 3 0.252915 1.90322 4.90579
225 3 -0.874002 3.31879 2.97438
226 3 -0.533609 5.44821 1.50903
227 3 0.109725 3.52902 6.91458
229 3 -1.44669 5.6369 6.58759
243 3 6.36858 1.85042 0.640936
244 3 1.1819 4.81429 3.47596
245 3 5.06196 4.50197 1.31529
246 3 4.4086 3.39483 8.97929
249 3 2.81974 6.1812 5.27414
32 4 4.49132 5.93443 0.766318
247 3 0.0237315 5.30529 8.89197
1 4 1.48342 0.273773 2.14817
3 2 0.0220237 1.05817 1.65466
201 1 8.15819 0.180691 2.06784
136 2 5.05833 5.16111 4.3135
139 2 2.70581 5.1864 9.18261
254 3 2.75542 5.74688 0.000622989
10 4 1.68127 1.79632 11.5908
17 4 0.31933 4.67454 15.3363
73 2 -2.45865 6.1581 12.8167
24 4 7.0371 1.66668 17.7505
26 4 4.17922 2.35212 10.1962
252 3 6.08475 3.41137 13.7283
28 4 4.1498 2.3493 16.3335
29 4 6.6467 2.42611 12.4958
253 3 1.29768 5.3622 16.475
36 4 5.55872 4.37832 14.8501
37 4 2.20157 6.38328 17.44
251 3 4.38152 3.81941 15.7031
256 3 5.10403 5.79951 14.0588
71 2 -1.91036 6.45711 18.0065
78 2 2.99565 2.5009 17.5908
110 2 -0.755879 2.67829 10.907
111 2 0.463255 3.68895 12.0415
112 2 -0.591517 2.09239 12.6995
113 2 0.464758 2.7524 13.7152
114 2 0.470371 2.31088 15.6735
115 2 2.02205 3.16242 14.8134
69 2 0.373027 1.22324 10.4826
140 2 2.56206 5.76165 11.002
326 2 -0.0384023 3.4818 18.2186
142 2 2.72562 4.94247 14.1296
143 2 2.80666 4.41796 12.2606
144 2 1.91228 6.03262 12.7537
195 1 -0.0751081 2.60102 11.7808
196 1 0.885754 3.02607 14.8092
205 1 2.41493 6.01966 9.8255
206 1 2.75718 5.23748 12.9766
224 3 2.07412 0.982901 12.9055
230 3 -1.3575 4.18682 15.9907
231 3 -0.034506 5.69218 13.927
18 4 -0.69454 6.36663 12.778
238 3 2.72269 2.88044 11.0511
239 3 3.51632 1.3154 15.2938
240 3 5.57872 1.93636 16.8882
241 3 5.63875 2.31043 11.2656
242 3 7.34151 1.05971 13.1287
327 1 -0.889046 2.75947 18.1676
38 4 4.15073 6.50142 12.9131
34 4 0.574238 6.55858 9.68823
237 3 3.84301 0.850077 9.68526
27 4 8.64548 0.302521 13.716
248 3 -0.0621282 6.51366 11.3326
152 2 3.00119 6.61253 15.3022
331 2 -5.52116 9.57087 4.2763
313 1 -4.4315 10.4838 0.151218
13 4 -0.898654 6.54421 0.412579
16 4 -2.29937 6.93579 6.76361
20 4 -2.98349 8.42275 9.1761
21 4 -3.52481 10.6795 7.02953
325 1 -7.47374 12.5534 8.29338
40 4 0.794259 9.6091 4.22873
42 4 1.48947 9.06826 8.16494
74 2 -4.38531 9.87554 5.74897
79 2 0.250935 6.99984 4.63503
80 2 -1.22012 8.23008 6.49875
337 2 -2.33857 11.7078 0.102493
84 2 0.0161415 9.32167 5.92027
86 2 0.449549 10.3648 7.75428
87 2 1.60307 8.54562 6.56163
105 2 -5.43801 8.70646 2.83583
106 2 -3.70874 8.12154 2.10353
107 2 -3.83752 9.22327 3.78001
108 2 -1.712 7.96296 1.42752
262 3 0.71599 8.08897 9.0494
323 2 -7.33053 12.4789 7.22943
370 3 -7.63481 11.9497 3.22048
145 2 0.161721 8.26377 3.10615
146 2 -1.6643 9.36028 4.30263
147 2 -1.3986 7.59132 4.72173
12 4 -4.4261 6.95188 4.35814
149 2 -2.61697 11.8783 5.09945
150 2 -1.26879 11.1323 6.24298
193 1 -4.34441 8.4298 3.10059
194 1 -2.74106 7.42988 0.496039
334 1 -6.18339 10.103 5.08879
207 1 -0.872634 8.59042 4.55126
208 1 -2.26588 11.7644 6.15531
228 3 -3.37401 7.06665 5.64731
233 3 -2.92395 6.93575 8.59321
234 3 -2.85916 9.52152 7.98184
235 3 -4.72836 11.5372 7.84253
312 2 -5.39541 9.61464 0.614491
257 3 2.26292 7.09773 2.96884
259 3 0.575108 11.1039 3.60094
333 2 -5.74625 11.1465 5.50713
344 2 -1.08691 10.9869 8.36172
4 3 -6.52833 12.5537 0.973097
148 2 -2.32859 12.7004 6.77235
129 2 -1.13793 12.7826 0.963991
346 1 -0.53009 11.9684 8.50861
6 4 -5.60272 12.2658 9.06381
109 2 -3.5796 6.94237 1.07337
310 2 -3.85745 10.9103 1.06061
128 2 -1.34531 12.4568 2.91004
83 2 2.37252 9.19278 4.78721
347 2 0.312957 11.9266 9.30279
88 2 -2.07147 11.6486 9.67342
22 4 -3.62954 11.006 13.5418
121 2 -2.68874 7.85307 12.77
43 4 -1.83412 10.436 10.9773
44 4 2.51682 9.36677 13.9832
45 4 1.10716 11.1665 11.7473
75 2 -2.48022 12.1363 15.0148
311 2 -3.30492 10.3283 18.0949
99 2 -5.33978 10.0226 10.2186
100 2 -6.97768 11.1422 10.4984
101 2 -5.37095 11.5148 11.4542
119 2 -0.852074 8.61329 12.8851
120 2 -1.75419 8.02839 14.5333
125 2 -1.44697 10.3139 14.9708
126 2 -3.65742 9.47554 14.3458
141 2 2.94462 7.02773 9.51483
151 2 3.03301 8.27259 16.4081
127 2 -3.06387 10.458 15.9791
154 2 1.11342 7.60875 14.8853
155 2 0.140407 9.12083 14.3096
156 2 0.934052 9.14679 15.9682
191 1 -5.78916 11.1264 10.4739
198 1 -1.68836 7.84907 13.3543
200 1 -2.44663 10.8065 15.1015
209 1 3.33622 7.16134 16.2787
210 1 1.0088 8.75165 14.9308
232 3 -4.7921 8.46656 9.94971
236 3 -4.98338 11.7758 13.6962
265 3 3.34299 7.84706 13.3135
263 3 -2.07358 8.8814 10.4954
264 3 -2.7797 10.8125 12.1835
266 3 -0.343897 10.7034 11.3404
339 1 -1.46447 12.6032 17.8769
315 3 -6.52016 11.539 17.331
316 3 -7.46567 12.1747 14.9601
319 2 -0.765562 11.5802 14.3151
8 4 -6.15628 12.8914 14.2819
116 2 -3.97625 8.15198 12.4921
336 2 -1.74847 12.2045 16.8169
255 3 0.737281 7.53002 18.1407
338 2 -0.337019 12.4468 17.9617
317 2 -3.98303 12.4754 17.7702
330 2 -2.75373 8.65833 18.5223
267 3 1.77799 10.1662 12.7885
320 2 1.24593 9.12648 18.1641
309 4 -5.52796 12.0123 18.4625
363 2 -3.81057 7.40466 17.864
25 4 8.9305 0.931284 7.89597
47 4 11.1559 2.10771 3.98625
329 2 15.3459 2.32273 0.504716
51 4 13.6153 2.2914 5.84363
55 4 12.4146 4.59138 2.47406
357 2 11.4662 2.52907 1.28148
57 4 12.3236 4.52792 7.5738
354 1 15.6515 0.405056 9.05477
350 2 15.5149 1.20067 1.29038
358 2 9.95207 1.37032 0.571
93 2 13.3266 5.80617 8.19032
284 3 13.1821 3.71897 6.56028
133 2 6.50698 4.30879 3.53205
134 2 8.0714 3.366 2.83497
56 4 10.7677 6.16367 0.0606637
351 1 15.7015 0.0628851 1.18741
89 2 15.8552 0.718238 3.04917
157 2 9.3977 1.00554 5.12716
158 2 8.60059 2.67135 4.33011
159 2 9.80808 2.74466 5.86813
371 3 12.9981 0.285856 0.146195
166 2 13.5555 3.19655 0.504444
167 2 13.9689 2.71804 2.28985
335 2 8.48627 1.28173 2.24245
172 2 8.15128 5.39942 6.46981
203 1 7.00246 3.29496 3.21087
288 3 10.9862 5.23134 6.93916
211 1 9.50107 2.14335 4.95033
81 2 6.70893 3.50137 7.75862
214 1 13.7819 3.55037 1.54482
359 1 10.7553 2.2838 0.410662
269 3 10.8391 0.59345 2.7991
271 3 9.79715 1.99974 8.77776
272 3 14.8801 2.39998 4.88059
273 3 12.3592 1.76806 4.93553
274 3 13.7643 1.13526 7.0351
280 3 11.4343 3.55666 3.24744
281 3 13.2211 5.71064 3.41986