ITEM: TIMESTEP
0
ITEM: NUMBER OF ATOMS
371
ITEM: BOX BOUNDS xy xz yz pp pp pp
-8.9395100000000003e+00 1.7955275000000000e+01 -8.9395100000000003e+00
0.0000000000000000e+00 1.3020299999999999e+01 4.6348899999999998e-01
0.0000000000000000e+00 1.8640300000000000e+01 2.0540000000000000e-01
ITEM: ATOMS id type x y z
360 2 -2.80801 4.38232 1.51376
2 2 2.412 1.42282 2.82411
345 2 7.47986 0.413704 9.24338
324 2 0.755367 0.484853 8.05783
68 2 1.90056 1.23456 7.03312
7 4 0.82506 2.46046 6.27766
11 4 0.302666 4.20947 2.4401
14 4 -0.884681 4.68745 7.74544
30 4 5.7102 3.03086 1.73298
31 4 1.58621 6.30346 4.16118
72 2 -2.36158 3.8831 8.18639
33 4 5.68465 4.38203 8.26453
35 4 4.32627 5.80147 5.658
5 4 -1.19735 1.97303 4.02275
70 2 1.41227 3.38835 1.34957
237 3 3.68111 0.885526 9.18036
102 2 2.62646 3.62079 5.26526
103 2 3.06236 1.83374 5.50969
104 2 3.28385 3.06992 6.95005
130 2 4.67288 2.08248 3.8164
131 2 4.19351 1.02001 2.27786
132 2 3.53533 2.8565 2.4462
250 3 4.89114 5.16707 7.07321
192 1 2.7424 2.7995 6.04718
202 1 4.30662 2.06975 2.70391
223 3 -0.0351454 1.69893 5.21651
225 3 -0.621931 2.95242 2.91688
226 3 -0.529969 5.34319 1.68816
227 3 0.231042 3.57543 7.29574
229 3 -1.22282 5.79534 6.56967
243 3 6.07082 2.13502 0.287909
244 3 1.16256 4.89354 3.60074
245 3 5.06092 4.4317 1.44686
246 3 4.7382 3.32297 8.95541
249 3 2.81603 6.15582 5.22774
32 4 4.44428 5.83518 0.755693
247 3 -0.35219 5.52398 8.98501
1 4 1.44741 0.151219 2.16161
3 2 -0.0548507 0.79773 1.75056
329 2 -1.59392 2.50482 0.552701
136 2 5.06754 4.80358 4.48489
139 2 2.36017 4.87385 9.11584
335 2 8.09993 1.04786 2.9265
10 4 1.85538 1.74351 11.6051
17 4 0.18705 4.67812 15.4673
73 2 -2.41962 6.08558 12.4229
24 4 6.9917 1.55337 17.5354
26 4 4.33899 2.27392 10.0283
252 3 6.11709 3.24957 13.437
28 4 4.36764 1.99317 16.0804
29 4 6.61208 2.17982 12.4005
253 3 1.20363 5.40046 16.5394
36 4 5.68663 4.2268 14.6992
37 4 2.21216 6.31939 17.6193
251 3 4.43226 3.62193 15.5377
328 2 0.132379 1.65276 18.0659
254 3 3.29116 5.66506 18.6093
78 2 3.53786 2.18077 17.545
110 2 -0.729301 2.01519 10.887
111 2 0.328315 3.4527 11.8903
112 2 -0.428024 1.82639 12.688
113 2 0.569084 2.89527 13.6423
114 2 0.466063 2.32388 15.4309
115 2 2.01723 3.28243 14.7576
69 2 0.662106 0.864963 10.5474
140 2 2.60653 5.50455 10.9241
326 2 -0.0767385 3.66028 17.9374
142 2 2.96893 4.55234 13.8511
143 2 2.89009 4.16144 12.0063
144 2 1.97748 5.72642 12.7275
195 1 0.00924598 2.25647 11.7596
196 1 0.90948 3.12704 14.7207
205 1 2.3426 5.77952 9.7408
206 1 2.8995 4.98748 12.8111
224 3 2.16381 1.05154 12.9744
230 3 -1.31681 4.02513 16.1144
231 3 -0.118662 5.76819 14.1457
18 4 -0.716146 6.51321 12.8322
238 3 2.74856 2.82096 10.9292
239 3 3.36878 0.998464 15.3863
240 3 5.8038 1.37672 16.3443
241 3 5.55927 1.88167 11.0694
242 3 7.47627 0.881131 13.0823
327 1 -0.595331 2.61018 18.1497
38 4 4.25192 6.33706 12.8301
71 2 -1.59873 6.56686 17.9596
331 2 -5.51525 9.43847 4.3193
313 1 -4.72706 10.6615 0.426957
13 4 -0.705539 6.72249 0.82404
16 4 -2.20657 7.03175 6.8212
20 4 -3.31979 8.46277 9.15531
21 4 -3.69316 10.4628 6.89222
325 1 -7.64952 12.3098 7.93511
40 4 0.863672 9.70986 4.37281
42 4 1.59424 9.07386 8.19865
74 2 -4.42759 9.28396 5.76591
79 2 0.234891 7.09694 4.95866
80 2 -1.14525 8.34107 6.4682
337 2 -2.70835 12.4495 0.551094
84 2 -0.00806336 9.55775 5.97532
86 2 0.659711 10.4159 7.73697
87 2 2.10051 8.44131 6.77198
105 2 -5.326 8.71368 2.82128
106 2 -3.62464 7.96085 2.16126
107 2 -3.72461 9.2563 3.6579
108 2 -1.42716 8.0613 1.74785
262 3 0.724791 8.02862 9.00444
323 2 -7.14717 12.1059 6.91923
370 3 -7.73797 11.8189 3.25279
145 2 0.0817798 8.59963 3.09628
146 2 -1.64742 9.59539 4.429
147 2 -1.42368 7.75601 4.64817
12 4 -4.49701 6.95697 4.36612
149 2 -2.69179 11.2917 5.0473
150 2 -1.20889 11.3082 6.44377
193 1 -4.24561 8.39288 3.13483
194 1 -2.63244 7.24054 0.540399
334 1 -6.1459 10.0921 5.07487
207 1 -0.862761 8.71465 4.53901
208 1 -2.3551 11.5803 6.16852
228 3 -3.28838 7.08879 5.64832
233 3 -2.97676 6.88439 8.58828
234 3 -3.06237 9.68002 8.04015
235 3 -4.88734 11.4685 7.50845
312 2 -5.27954 9.63559 0.618858
257 3 1.97408 7.38396 3.00001
259 3 0.82279 11.1212 3.64347
333 2 -5.82086 11.1738 5.29671
344 2 -1.07462 11.0909 8.0871
4 3 -6.93497 12.4801 0.843111
148 2 -2.65785 12.6961 6.39881
129 2 -1.32431 12.6181 1.38892
346 1 -0.423958 11.9328 8.47017
6 4 -5.7686 12.23 8.7376
330 2 -2.98226 8.2118 0.0336485
310 2 -4.51258 11.1493 1.46898
128 2 -1.28979 12.0207 3.28528
201 1 -0.823698 12.7679 2.53193
109 2 -3.41766 6.59113 1.01645
347 2 0.394284 11.6784 9.2888
83 2 2.49574 9.02086 4.55349
88 2 -2.01005 11.5718 9.57385
22 4 -3.76451 11.0041 13.4229
121 2 -2.83041 7.88919 12.3736
43 4 -1.92164 10.4227 10.9312
44 4 2.68776 9.06122 13.7656
45 4 1.08604 10.9057 11.7086
75 2 -2.61726 12.0841 15.0198
311 2 -3.34205 10.7989 18.4668
99 2 -5.57511 9.98505 9.97196
100 2 -7.06975 11.3431 10.3293
101 2 -5.27741 11.5615 11.1404
119 2 -1.06486 8.66809 13.0266
120 2 -2.49448 7.93681 14.1937
125 2 -1.77093 10.212 15.0481
126 2 -3.85663 9.42891 14.2278
248 3 0.176384 6.56507 11.5171
151 2 3.21387 8.31507 16.669
127 2 -3.49171 10.4289 15.8959
154 2 0.820321 7.51544 14.5896
155 2 0.283545 9.27312 14.5583
156 2 1.54733 8.68913 15.8508
191 1 -5.8483 11.1496 10.2329
198 1 -2.07692 7.82061 13.1874
200 1 -2.75234 10.7368 15.0783
209 1 3.41624 7.24362 16.5221
210 1 1.13201 8.57852 14.8151
232 3 -5.05404 8.35628 9.73211
236 3 -5.20508 11.6783 13.6761
265 3 3.37217 7.68089 13.2975
263 3 -2.38622 8.96573 10.4402
264 3 -2.93232 10.9487 12.0991
266 3 -0.349062 10.4954 11.3526
339 1 -1.66729 12.6079 18.1662
315 3 -6.51298 11.0774 17.2001
316 3 -7.55492 12.1085 15.0033
319 2 -1.00751 11.3966 14.3009
8 4 -6.31768 12.9017 14.252
116 2 -4.16721 7.5974 12.5901
336 2 -2.16074 12.0041 17.3029
27 4 -0.251899 12.8354 13.7842
338 2 -0.609445 12.2886 18.3275
317 2 -4.21549 12.4235 17.9219
34 4 0.629733 6.60634 9.8076
152 2 2.90171 6.93283 15.508
320 2 1.13804 9.234 18.4683
309 4 -5.80899 11.8015 18.3963
267 3 1.84816 9.93263 12.7697
255 3 0.943671 7.57289 18.5
363 2 -3.77198 6.9154 17.9858
141 2 2.96447 6.63424 9.35007
25 4 8.84883 1.01354 8.09383
47 4 11.158 1.92991 4.19867
348 2 16.0113 0.979399 0.939526
51 4 13.7094 2.24152 5.91489
55 4 12.4491 4.4316 2.41421
357 2 11.3693 2.37404 1.31175
57 4 12.4599 4.4703 7.57683
354 1 15.9059 0.359718 9.26152
350 2 14.816 0.460171 2.46732
358 2 9.91087 1.31199 0.396336
93 2 13.4816 5.81715 8.03214
284 3 13.4629 3.76913 6.53418
133 2 7.56198 4.53381 2.82097
134 2 8.21065 2.84316 2.19167
352 2 15.8558 1.53842 9.10124
351 1 15.581 0.108689 1.53944
89 2 16.3006 0.414931 3.3894
157 2 9.09502 0.949368 4.98788
158 2 8.60832 2.62411 4.14739
159 2 9.64702 2.61932 5.92366
371 3 12.9957 0.139932 0.134149
166 2 13.5211 3.02475 0.5511
167 2 14.1588 2.66817 2.401
137 2 6.8972 6.43604 4.98666
172 2 8.65001 4.92045 5.56429
203 1 7.38451 3.40528 2.70397
288 3 11.2522 5.31029 6.88452
211 1 9.29582 2.09078 4.93465
81 2 6.99279 3.45945 7.63803
214 1 13.8601 3.4898 1.6342
359 1 10.7387 2.19558 0.358972
269 3 10.808 0.774416 3.16455
271 3 9.87644 1.9896 8.80954
272 3 14.8861 2.19555 4.70209
273 3 12.1591 1.64922 5.36654
274 3 14.1986 1.32839 7.14505
280 3 11.5768 3.31595 3.38499
281 3 13.1821 5.6802 3.35649
282 3 11.6145 5.04641 1.02705
283 3 12.1549 3.64834 8.87519
216 1 8.83184 6.05658 5.43527
77 2 8.24111 1.68012 6.5661
170 2 8.74237 6.35067 4.37497
135 2 6.88655 2.84049 3.63998
161 2 10.153 5.44003 9.03205
9 4 15.6336 2.65516 16.7758
48 4 12.4014 1.35255 18.0377
368 2 9.06687 5.97603 17.7832
53 4 9.76956 1.73916 16.0761
54 4 12.0752 1.81234 12.4372
60 4 11.7817 3.47811 14.9569
82 2 7.03752 4.44899 15.7577
212 1 9.79824 4.60609 9.74182
91 2 13.6376 1.26571 12.2358
94 2 11.2631 5.76217 10.3406
95 2 13.0285 3.22912 16.2808
96 2 12.1017 5.13002 14.643
361 2 12.8863 5.75775 16.654
117 2 11.781 6.34418 12.7759
369 1 9.73245 5.06343 17.8729
50 4 10.8642 2.99353 9.67579
162 2 9.75269 4.9116 10.8651
163 2 8.31086 4.07677 12.2396
164 2 7.73958 3.34666 10.5635
165 2 8.8722 2.37882 11.8323
175 2 8.06952 6.27336 13.9512
92 2 11.3366 0.298922 12.7007
213 1 8.08134 3.19828 11.6749
367 2 9.93911 4.57036 16.8221
270 3 13.7533 2.73648 17.4799
275 3 15.7141 1.32347 15.9348
160 2 8.79934 4.25393 9.39237
277 3 11.3204 1.20566 16.8402
278 3 8.65153 2.01118 17.1833
279 3 11.4435 2.53357 11.1739
256 3 5.31918 5.63126 14.0974
289 3 10.3134 3.43963 15.5334
290 3 12.1363 2.64785 13.7516
343 1 6.25734 6.52766 18.1717
341 2 6.34675 5.47979 17.6102
276 3 9.30229 0.758446 14.9798
56 4 11.3689 6.07919 18.5951
286 3 4.99072 6.32553 11.3629
58 4 6.30441 6.48285 10.3819
356 2 10.7048 3.38606 18.48
174 2 9.90694 6.55419 13.9914
285 3 6.48548 5.33169 9.32148
366 2 9.30235 4.32962 18.589
19 4 9.61027 10.5346 4.21172
23 4 0.950797 12.2619 2.53404
299 3 4.27271 11.8597 8.7798
46 4 5.06076 11.8694 0.85978
215 1 9.98333 7.41083 0.632355
59 4 10.573 6.49404 6.15659
62 4 4.69019 10.4563 3.815
64 4 7.30448 8.56005 8.29954
66 4 7.00452 10.5491 6.02604
138 2 5.51773 6.62353 3.62068
85 2 5.41262 7.76777 5.2224
98 2 8.75305 7.49463 8.13739
122 2 9.70069 8.20166 3.34317
123 2 9.08482 9.41183 2.03372
124 2 7.82611 8.87682 3.33693
261 3 1.40114 11.2809 1.04711
342 2 6.76088 6.51866 0.140597
49 4 5.59623 12.7722 8.00213
185 2 7.80875 10.8679 8.89122
179 2 3.11042 10.6224 5.70758
180 2 2.98573 12.0986 4.42968
181 2 4.38376 12.0646 5.63467
182 2 9.74429 8.74181 6.98299
365 2 9.10353 6.73763 1.15104
184 2 10.3065 8.13506 8.5832
41 4 1.94238 10.1016 0.172996
199 1 8.98207 9.07095 3.06228
183 2 11.5942 8.44327 7.47054
219 1 3.64197 11.459 5.04655
220 1 10.5352 8.14789 7.521
322 2 9.28602 11.4343 8.32164
204 1 5.75302 6.6831 4.71249
298 3 2.92575 9.49882 8.78469
287 3 11.5229 7.10544 4.91822
293 3 3.94963 9.02957 3.77633
294 3 4.7067 11.265 2.23253
171 2 8.16576 6.68662 6.17644
260 3 2.71761 9.06146 1.04401
349 2 7.46409 12.1691 1.84075
301 3 8.61163 10.6187 5.46941
302 3 6.19675 10.4554 4.55632
303 3 6.83232 9.23522 6.93441
304 3 6.49118 11.7663 6.97468
258 3 4.40482 7.22553 1.68219
169 2 10.8382 7.84133 1.29961
186 2 9.30101 9.69071 8.99404
39 4 3.22161 8.09429 2.25875
221 1 8.2062 9.88985 9.2824
76 2 0.846323 12.5021 7.22052
355 2 8.0295 12.7353 8.9041
332 2 11.0268 9.44205 6.02975
15 4 11.3927 7.44691 10.7976
153 2 4.52098 7.00798 16.546
61 4 8.48183 7.85619 12.1909
63 4 6.79788 9.92386 17.5561
292 3 7.4972 6.61911 11.4395
67 4 4.36986 10.6697 16.1761
97 2 6.89123 8.4207 18.3657
52 4 6.37101 12.736 15.3442
353 2 6.57172 12.8801 10.2891
321 2 7.568 11.5473 15.8213
176 2 8.49404 10.4024 12.1229
177 2 7.53517 9.75821 13.5603
178 2 6.60526 9.8082 11.848
340 2 5.87167 7.40285 17.467
187 2 8.04367 9.8529 10.456
188 2 5.44016 9.28074 10.2258
189 2 4.22805 9.7243 11.7401
190 2 5.51307 10.9413 11.0792
268 3 0.84013 12.5819 12.5679
218 1 7.67202 9.72416 12.4617
222 1 4.8631 10.0664 10.8505
314 4 9.95061 10.8862 15.9986
118 2 11.5822 8.24013 13.0315
197 1 12.1931 7.44888 12.5078
90 2 6.55368 12.6759 13.7273
291 3 9.89229 7.97191 11.0191
296 3 6.31709 11.0927 18.5857
295 3 8.3494 10.4434 16.7253
173 2 8.72501 8.01608 14.5121
300 3 2.12565 11.3431 10.5652
305 3 3.55204 9.95274 14.8158
306 3 5.6731 9.68797 16.4073
307 3 4.92595 12.1881 15.7423
308 3 3.06362 10.6224 17.5155
318 2 10.4005 9.61808 15.0201
65 4 3.44809 10.8212 9.66139
364 2 12.3268 7.57516 16.8315
217 1 8.86638 7.05176 13.8279
168 2 10.042 8.33076 18.5291
297 3 6.25627 7.95993 9.38482
362 1 12.7882 6.68458 17.3242
ITEM: TIMESTEP
100
ITEM: NUMBER OF ATOMS
371
ITEM: BOX BOUNDS xy xz yz pp pp pp
-8.9395100000000003e+00 1.7955275000000000e+01 -8.9395100000000003e+00
0.0000000000000000e+00 1.3020299999999999e+01 4.6348899999999998e-01
0.0000000000000000e+00 1.8640300000000000e+01 2.0540000000000000e-01
ITEM: ATOMS id type x y z
360 2 -2.79228 4.25044 1.75506
2 2 2.26102 1.63759 2.73416
345 2 7.36505 0.395117 8.72524
324 2 1.18452 0.758138 8.65208
68 2 2.10201 1.48194 7.17295
7 4 0.917807 2.47978 6.29399
11 4 0.21649 4.23892 2.42628
14 4 -0.849238 4.63459 7.72798
30 4 5.58655 3.04432 1.7899
31 4 1.74374 6.21311 4.07703
72 2 -2.24271 3.96406 8.48915
33 4 5.62433 4.35085 8.31154
35 4 4.33644 5.76806 5.70921
5 4 -1.1318 2.09392 4.11106
70 2 1.19862 3.52387 1.27982
201 1 8.14961 0.0709142 2.1541
102 2 2.4385 3.68913 5.05451
103 2 3.3248 2.04493 5.59736
104 2 3.4285 3.57969 6.71563
130 2 4.85057 1.09933 3.31217
131 2 3.72307 1.5006 1.81053
132 2 3.63009 2.54117 3.35342
250 3 4.90167 5.15123 7.06726
192 1 2.77529 2.97364 5.9097
202 1 4.22622 1.87839 2.74764
223 3 0.166806 1.64895 5.04941
225 3 -0.751437 3.16128 3.07885
226 3 -0.496197 5.38061 1.52264
227 3 -0.0249364 3.40893 7.21164
229 3 -1.33141 5.79818 6.61688
243 3 6.19366 2.17207 0.548841
244 3 1.29696 4.81623 3.48198
245 3 5.08133 4.46969 1.45607
246 3 4.56165 3.43157 8.95989
249 3 2.8127 6.04777 5.40238
32 4 4.45353 5.82115 0.7241
247 3 -0.0927351 5.40787 8.82442
1 4 1.47618 0.179413 2.16667
3 2 -0.0506946 0.750237 1.59064
135 2 6.76329 2.51882 3.65121
136 2 5.0141 5.07455 4.31714
139 2 2.65987 5.21357 9.00201
10 4 1.83402 1.72911 11.7153
17 4 0.259068 4.5726 15.3955
73 2 -2.47098 6.01396 12.6519
24 4 7.04738 1.49066 17.6441
26 4 4.24294 2.22165 10.0119
252 3 6.07691 3.1957 13.6248
28 4 4.32949 2.07107 16.2075
29 4 6.67466 2.14677 12.5522
253 3 1.45875 5.2024 16.6128
36 4 5.59543 4.24394 14.6873
37 4 2.23728 6.19283 17.6334
251 3 4.41509 3.56718 15.4935
328 2 0.0365945 1.73574 18.0006
71 2 -1.64163 6.39302 17.9668
78 2 3.4577 2.34305 17.6648
110 2 -0.503631 2.28777 10.7258
111 2 0.386325 3.41766 12.11
112 2 -0.62255 1.6594 12.5847
113 2 0.498626 2.75279 13.6503
114 2 0.64907 2.21171 15.5235
115 2 2.06544 3.15488 14.7418
69 2 0.780079 0.861944 10.6285
140 2 2.62708 5.41157 10.9637
326 2 -0.117278 3.64036 18.1105
142 2 2.92096 4.53045 13.931
143 2 2.86633 4.1354 12.0918
144 2 1.97136 5.70746 12.7253
195 1 -0.0278336 2.2058 11.7534
196 1 0.929102 3.02048 14.6963
205 1 2.39394 5.88774 9.86762
206 1 2.88392 4.96846 12.9046
224 3 2.19395 0.764777 12.9601
230 3 -1.3495 4.08521 15.9577
231 3 -0.0377959 5.55276 14.0632
18 4 -0.708098 6.48179 12.7759
238 3 2.79217 2.76064 10.9373
239 3 3.51008 1.11952 15.2654
240 3 5.76252 1.56766 16.6915
241 3 5.51255 2.05014 11.162
242 3 7.30177 0.790859 13.0645
327 1 -0.671808 2.62501 18.1706
38 4 4.23442 6.30002 12.8682
34 4 0.587565 6.47515 9.75413
237 3 3.83305 0.856053 9.36641
254 3 3.36843 5.63013 18.6218
27 4 8.61655 0.15355 13.7639
331 2 -5.56587 9.4288 4.30518
313 1 -4.63663 10.6799 0.415402
13 4 -0.794228 6.62056 0.506006
16 4 -2.28566 6.99947 6.75852
20 4 -3.30738 8.34967 9.19211
21 4 -3.73118 10.5523 7.04942
325 1 -7.61481 12.6376 8.04859
40 4 0.861789 9.64188 4.39777
42 4 1.49528 8.99059 8.17503
74 2 -4.35496 9.68483 5.6125
79 2 0.401916 7.07011 4.69149
80 2 -1.31121 8.40168 6.33164
337 2 -2.84867 11.9938 0.235768
84 2 -0.023717 9.43547 6.01349
86 2 0.545415 10.4126 7.7696
87 2 1.77562 8.2865 6.67704
105 2 -5.15874 8.85546 2.89163
106 2 -3.541 8.00663 2.11714
107 2 -3.46519 9.02903 3.82757
108 2 -1.53839 8.05095 1.56763
262 3 0.675439 7.94711 8.99808
323 2 -7.82157 12.8252 6.96084
370 3 -7.68541 11.9372 3.32634
145 2 0.226281 8.38996 3.07331
146 2 -1.45641 9.46193 4.31252
147 2 -1.33825 7.68866 4.64306
12 4 -4.42707 6.94547 4.37598
149 2 -2.55984 11.549 5.04144
150 2 -1.48188 11.2224 6.46146
193 1 -4.17077 8.35472 3.17751
194 1 -2.69059 7.39999 0.439289
334 1 -6.27339 9.963 5.12343
207 1 -0.788387 8.64061 4.4933
208 1 -2.50378 11.6165 6.10514
228 3 -3.40696 7.01302 5.63692
233 3 -2.93485 6.94347 8.51807
234 3 -3.04491 9.42867 7.966
235 3 -4.81425 11.4979 7.80121
312 2 -5.29739 9.72838 0.602899
257 3 2.13701 7.15804 2.92212
259 3 0.751557 11.1333 3.78357
333 2 -5.87829 11.0309 5.50343
344 2 -0.994305 10.9976 8.31248
4 3 -6.77781 12.4605 0.88542
148 2 -2.70962 12.6275 6.55759
129 2 -1.22231 12.6467 1.03641
346 1 -0.418359 11.9578 8.50999
6 4 -5.70417 12.2829 8.91442
109 2 -3.5292 6.90483 0.956258
310 2 -4.14083 11.1068 1.33823
128 2 -1.36591 12.2831 3.04837
83 2 2.43338 9.04755 4.66682
330 2 -3.01856 8.3366 0.00354338
88 2 -1.9256 11.4601 9.73218
22 4 -3.75237 11.0878 13.4192
121 2 -2.89567 8.07572 12.6584
43 4 -1.91166 10.3317 10.9529
44 4 2.52353 9.1149 13.9221
45 4 1.14153 11.1712 11.8077
75 2 -2.63323 12.0873 14.9725
311 2 -3.4118 10.5977 18.2186
99 2 -5.46928 9.93682 10.0917
100 2 -6.99793 10.986 10.4531
101 2 -5.30271 11.5673 11.1157
119 2 -0.822791 8.5351 13.1461
120 2 -2.42755 7.65182 14.393
125 2 -1.7368 10.0884 14.9053
126 2 -3.92666 9.51894 14.2171
141 2 2.97993 6.87584 9.80969
151 2 2.9445 8.36463 16.9155
127 2 -3.14124 10.2293 16.0879
154 2 0.876493 7.50561 14.5539
155 2 0.106689 9.28176 14.5165
156 2 1.17959 8.78155 15.9538
191 1 -5.86319 11.0348 10.316
198 1 -2.03835 7.71395 13.3402
200 1 -2.73702 10.6135 15.1134
209 1 3.31603 7.29615 16.5817
210 1 0.980535 8.62088 14.8431
232 3 -4.96927 8.15716 9.83934
236 3 -5.087 11.8412 13.6189
265 3 3.44464 7.66346 13.2438
263 3 -2.29845 8.88281 10.4261
264 3 -2.99292 10.8324 12.0117
266 3 -0.363323 10.3601 11.5984
339 1 -1.69765 12.4633 17.9566
315 3 -6.51449 11.1216 17.2433
316 3 -7.53861 12.0775 14.9825
319 2 -1.15374 11.5637 14.3536
8 4 -6.17197 12.8305 14.2138
116 2 -4.23811 8.0716 12.3487
336 2 -2.17558 11.9073 17.0673
347 2 0.152203 11.8531 9.48872
338 2 -0.548785 12.314 18.0554
317 2 -4.12347 12.4612 17.9188
248 3 -0.0542865 6.54504 11.2931
152 2 3.11179 6.99615 15.462
320 2 1.19571 9.12139 18.2951
309 4 -5.70322 11.8317 18.3763
267 3 2.10251 10.1021 12.7384
255 3 0.86183 7.48229 18.3873
363 2 -3.79281 7.08255 17.9458
25 4 9.02082 0.973602 7.90665
47 4 11.2478 2.01349 4.09587
348 2 16.1711 0.0875355 0.385435
51 4 13.7225 2.1825 5.80248
55 4 12.5018 4.53079 2.40954
357 2 11.4874 2.311 1.47654
57 4 12.552 4.47213 7.56881
354 1 15.7814 0.457636 9.18964
350 2 15.3208 1.21501 1.68064
358 2 10.02 1.20365 0.690687
93 2 13.5687 5.70014 8.18961
284 3 13.4117 3.71645 6.44819
133 2 7.23969 4.33688 3.2017
134 2 8.15346 2.959 2.2718
355 2 16.9529 0.191111 8.80613
351 1 15.5781 0.140861 1.34896
89 2 16.093 0.63436 3.16709
157 2 9.41925 1.13472 5.15898
158 2 8.66685 2.75293 4.20876
159 2 9.7413 2.97231 5.84945
371 3 12.7992 0.241071 0.18418
166 2 13.6001 3.15018 0.552355
167 2 14.0592 2.53236 2.34633
366 2 9.03492 4.09406 0.152322
172 2 8.44923 5.18194 6.03036
203 1 7.22891 3.29252 2.86567
288 3 11.1482 5.06948 7.12435
211 1 9.56118 2.37216 4.95542
81 2 6.68241 3.35766 7.50619
214 1 13.8478 3.43083 1.63599
359 1 10.7868 2.13586 0.487685
269 3 10.7269 0.572501 2.96242
271 3 9.8857 1.83419 8.89236
272 3 15.0388 2.31011 4.88868
273 3 12.3525 1.56276 5.07618
274 3 14.1919 1.14883 7.10683
280 3 11.6396 3.35222 3.32205
281 3 13.2773 5.62339 3.38998
282 3 11.5477 5.23317 1.21956
283 3 12.2814 3.47391 8.78659
216 1 8.78213 6.14146 5.58423
77 2 8.48206 1.91047 6.56432
170 2 8.79485 6.20779 4.4671
335 2 8.2285 1.20223 2.36069
161 2 10.0993 5.37999 9.08994
329 2 15.602 2.28441 0.499154
352 2 15.5535 1.55375 9.1947
356 2 10.2713 3.19698 0.0447712
9 4 15.6154 2.75759 16.7402
48 4 12.4438 1.53136 18.0737
368 2 9.18172 6.11041 18.047
53 4 9.84685 1.7297 16.1064
54 4 11.9972 2.05954 12.3222
60 4 11.7269 3.64415 14.9267
82 2 6.84586 4.46366 15.7697
212 1 9.77344 4.56707 9.76162
91 2 13.6177 1.91512 11.892
94 2 11.2351 5.80329 10.3038
95 2 12.9531 3.26526 16.2306
96 2 12.0308 5.29947 14.6868
361 2 12.6782 5.73673 16.8038
117 2 12.384 6.34253 12.6549
369 1 9.84811 5.01707 18.015
50 4 10.9616 3.05332 9.67325
162 2 9.60535 4.92273 10.8384
163 2 8.22557 4.17345 12.4095
164 2 7.86678 3.41647 10.8288
165 2 8.97344 2.53735 12.0026
285 3 6.4208 5.21349 9.42844
92 2 11.5212 0.456523 12.6454
213 1 8.11301 3.2341 11.9123
367 2 10.0332 4.57022 16.9671
270 3 13.7539 2.91788 17.3779
275 3 15.6645 1.41379 15.9111
58 4 6.20548 6.50923 10.3584
277 3 11.2699 1.14968 16.948
278 3 8.48852 1.98892 17.0001
279 3 11.2345 2.67951 11.1862
256 3 5.23352 5.76256 14.0395
289 3 10.3339 3.42982 15.5963
290 3 12.0019 2.85976 13.6565
286 3 4.88101 6.3456 11.3132
341 2 6.21627 5.75234 17.4458
276 3 9.39163 0.871414 14.8877
56 4 11.3547 6.17473 18.6081
160 2 8.81697 3.96295 9.33137
19 4 9.50222 10.6516 4.28699
23 4 0.863976 12.1935 2.45766
299 3 4.38814 11.8776 8.78161
46 4 5.16423 11.8492 0.947602
215 1 10.1873 7.67836 0.65831
59 4 10.5511 6.49161 6.26057
62 4 4.61574 10.5537 3.74801
64 4 7.29982 8.51977 8.29321
66 4 6.88598 10.4076 5.96655
138 2 5.52787 6.8745 3.75789
85 2 5.25913 7.80876 5.43666
98 2 8.58429 7.38167 8.02784
122 2 9.92213 8.48233 3.45751
123 2 9.09918 9.53563 2.06006
124 2 8.04021 8.69643 3.39956
261 3 1.2562 11.1971 0.843304
137 2 6.85594 6.62997 5.18322
49 4 5.68162 12.6032 7.85436
185 2 7.76398 10.8979 8.6015
179 2 2.99581 11.1629 5.60523
180 2 2.95026 12.4146 4.16555
181 2 4.45162 12.3152 5.4221
182 2 9.75752 8.82511 6.97012
365 2 9.73334 7.2287 1.62486
184 2 10.0461 7.83504 8.65881
41 4 1.96312 10.0058 0.144823
199 1 9.02937 9.15366 3.12989
183 2 11.4412 8.45388 7.52443
219 1 3.65966 11.7491 4.90346
220 1 10.383 8.07127 7.55779
322 2 9.26449 11.7319 8.45085
204 1 5.69926 6.84971 4.90001
298 3 2.82598 9.34997 8.71265
287 3 11.3637 7.02134 5.01331
293 3 3.78681 9.15619 3.73879
294 3 4.80896 11.222 2.32579
171 2 8.33711 7.098 6.0788
260 3 2.79836 9.18625 1.19531
349 2 7.16712 12.2358 2.15308
301 3 8.52992 10.7489 5.55018
302 3 6.02889 10.3295 4.67089
303 3 6.8375 8.88128 6.82065
304 3 6.46898 11.6335 6.85078
258 3 4.49493 7.15214 1.75014
169 2 11.1246 8.29877 0.954252
186 2 9.30396 9.78752 8.84215
39 4 3.30077 8.03824 2.20705
221 1 8.22409 10.0489 9.09885
76 2 0.582208 12.262 7.029
332 2 10.8972 9.29837 5.96288
342 2 6.67043 6.57153 0.142835
15 4 11.4615 7.43495 10.8552
153 2 4.35825 7.10718 16.9511
61 4 8.46449 7.82352 12.0092
63 4 6.73581 9.98596 17.468
292 3 7.53687 6.73406 11.2194
67 4 4.30094 10.6328 16.1671
97 2 6.88526 8.56173 18.4011
52 4 6.33783 12.7449 15.4275
353 2 6.57223 12.7059 10.1584
321 2 7.71489 11.7736 15.8758
176 2 8.35705 10.3432 12.053
177 2 7.33296 9.30675 13.3723
178 2 6.49973 9.71844 11.663
340 2 6.11055 7.59065 17.3862
187 2 8.01678 10.0001 10.2907
188 2 5.2327 9.13832 10.4331
189 2 4.08761 9.80985 11.8611
190 2 5.44167 11.0171 11.0238
268 3 0.97928 12.5421 12.6303
218 1 7.53836 9.54267 12.2354
222 1 4.65797 10.0796 10.9001
314 4 9.9379 10.9408 16.0068
118 2 11.3542 8.02883 13.0868
197 1 12.243 7.49198 12.5497
90 2 6.52231 12.6294 13.7972
291 3 10.0809 8.16189 11.1477
296 3 6.2551 11.0223 18.51
295 3 8.40575 10.538 16.6443
173 2 9.06465 8.22576 14.3994
300 3 2.04329 11.5536 10.4722
305 3 3.49177 9.83023 14.8771
306 3 5.71786 9.5408 16.3867
307 3 4.9277 12.1286 15.7305
308 3 3.25166 10.449 17.507
318 2 10.5694 9.49716 15.2033
65 4 3.43225 10.8269 9.72455
364 2 12.3873 7.64169 16.5998
217 1 8.83937 7.31673 13.8148
175 2 7.95369 6.76743 14.2981
297 3 6.19991 7.93188 9.38681
362 1 12.6569 6.79933 17.2797
174 2 9.79215 6.64291 13.7165
343 1 6.22535 6.72035 18.0817
168 2 9.9504 8.38399 18.5864
ITEM: TIMESTEP
200
ITEM: NUMBER OF ATOMS
371
ITEM: BOX BOUNDS xy xz yz pp pp pp
-8.9395100000000003e+00 1.7955275000000000e+01 -8.9395100000000003e+00
0.0000000000000000e+00 1.3020299999999999e+01 4.6348899999999998e-01
0.0000000000000000e+00 1.8640300000000000e+01 2.0540000000000000e-01
ITEM: ATOMS id type x y z
360 2 -2.73679 4.2114 1.57945
2 2 2.28971 1.5512 2.90961
345 2 7.42944 0.555584 8.79036
324 2 1.07317 0.647457 8.71445
68 2 1.8577 1.36939 7.30186
7 4 0.907006 2.43847 6.21405
11 4 0.156113 4.25837 2.36816
14 4 -0.782564 4.54992 7.72591
30 4 5.79355 2.82985 1.85393
31 4 1.72955 6.15446 4.0786
72 2 -1.99149 3.71176 8.49649
33 4 5.47726 4.30582 8.2996
35 4 4.37426 5.92603 5.63807
5 4 -1.21691 2.14617 3.98803
70 2 0.939191 3.21587 1.41387
201 1 8.27424 0.152845 1.97166
102 2 2.76618 3.49986 5.3287
103 2 3.2853 1.74245 5.87585
104 2 3.18823 3.12249 7.14177
130 2 4.63603 0.994756 3.0811
131 2 3.62765 1.64979 1.65667
132 2 3.62784 2.60322 3.37232
250 3 4.90281 5.09727 6.99388
192 1 2.80201 2.74319 6.20501
202 1 4.22084 1.89405 2.62183
223 3 0.194012 1.86226 4.92945
225 3 -0.918133 3.3663 3.0969
226 3 -0.52447 5.41034 1.49997
227 3 0.061865 3.47809 6.9563
229 3 -1.47761 5.5881 6.55458
243 3 6.40777 1.87903 0.643348
244 3 1.20651 4.78925 3.44554
245 3 5.11577 4.50063 1.29992
246 3 4.4244 3.3323 9.01125
249 3 2.88839 6.09608 5.24757
32 4 4.54225 5.92256 0.764615
247 3 0.0062653 5.29417 8.88672
1 4 1.49385 0.219997 2.19323
3 2 0.0839976 0.96171 1.73985
135 2 6.67556 2.26659 3.86309
136 2 5.11029 5.08097 4.30011
139 2 2.68685 5.05681 9.16289
10 4 1.75017 1.64633 11.6114
17 4 0.318349 4.52477 15.3487
73 2 -2.44766 5.98571 12.8208
24 4 7.11712 1.49715 17.7178
26 4 4.23418 2.23995 10.2318
252 3 6.15442 3.28572 13.7204
28 4 4.22139 2.18132 16.3166
29 4 6.73886 2.33045 12.4795
253 3 1.31696 5.15977 16.4758
36 4 5.60193 4.24791 14.8259
37 4 2.25573 6.21113 17.4282
251 3 4.42515 3.66148 15.677
256 3 5.12536 5.65755 14.0497
71 2 -1.92364 6.28542 18.071
78 2 3.06487 2.32266 17.5558
110 2 -0.681923 2.40284 10.8494
111 2 0.495677 3.52025 11.9989
112 2 -0.536225 1.91224 12.698
113 2 0.532819 2.64086 13.7229
114 2 0.440207 2.12668 15.5641
115 2 2.05756 2.97354 14.8322
69 2 0.493845 1.05181 10.459
140 2 2.62646 5.64082 11.0053
326 2 -0.0150258 3.23549 18.1916
142 2 2.76827 4.83026 14.0947
143 2 2.88649 4.2592 12.2256
144 2 1.9399 5.94038 12.7157
195 1 -0.030011 2.40862 11.7608
196 1 0.906453 2.88132 14.794
205 1 2.44594 5.91672 9.85043
206 1 2.79219 5.1181 12.9933
224 3 2.14099 0.838549 12.9417
230 3 -1.39129 4.04689 15.9705
231 3 0.004434 5.54855 13.9552
18 4 -0.700156 6.19824 12.7936
238 3 2.77983 2.77159 11.1098
239 3 3.5951 1.13219 15.3008
240 3 5.66933 1.78872 16.8845
241 3 5.70691 2.18238 11.2273
242 3 7.44808 0.949681 13.1265
327 1 -0.920056 2.58225 18.1625
38 4 4.17948 6.37895 12.9069
34 4 0.619759 6.50541 9.71553
237 3 3.8716 0.766937 9.65876
254 3 3.32593 5.96794 18.5397
248 3 -0.0631302 6.37318 11.344
27 4 8.72534 0.173382 13.7142
331 2 -5.57673 9.51007 4.30362
313 1 -4.50289 10.5186 0.094827
13 4 -0.897593 6.5909 0.467013
16 4 -2.32975 6.881 6.75352
20 4 -3.07415 8.35412 9.15889
21 4 -3.63733 10.5949 7.05314
325 1 -7.58336 12.4558 8.3153
40 4 0.791319 9.57854 4.24564
42 4 1.5124 8.99018 8.1784
74 2 -4.50079 9.84519 5.71856
79 2 0.310178 6.90982 4.69544
80 2 -1.2422 8.16976 6.48675
337 2 -2.43019 12.004 0.15398
84 2 0.06182 9.19244 5.94351
86 2 0.469972 10.3064 7.84099
87 2 1.54884 8.42167 6.59439
105 2 -5.45688 8.71672 2.85248
106 2 -3.73474 8.02791 2.16974
107 2 -3.88501 9.1667 3.82525
108 2 -1.57152 7.97687 1.57526
262 3 0.769533 8.0301 9.10932
323 2 -7.55918 12.5198 7.18329
370 3 -7.71967 11.8876 3.2442
145 2 0.180333 8.22404 3.08962
146 2 -1.60624 9.29965 4.27055
147 2 -1.35604 7.51302 4.71555
12 4 -4.45905 6.91432 4.39009
149 2 -2.82979 11.991 5.19633
150 2 -1.40963 11.0322 6.00664
193 1 -4.38279 8.38684 3.13378
194 1 -2.7699 7.32748 0.537199
334 1 -6.29263 10.0006 5.10062
207 1 -0.810113 8.47867 4.54413
208 1 -2.38962 11.6219 6.11174
228 3 -3.40754 7.03349 5.65188
233 3 -2.97121 6.89125 8.55565
234 3 -2.913 9.44039 7.98722
235 3 -4.80426 11.4347 7.84631
312 2 -5.42003 9.5134 0.394735
257 3 2.29221 7.08125 2.98274
259 3 0.544842 11.0612 3.6366
333 2 -6.00923 11.0345 5.45048
344 2 -1.11459 10.9712 8.14537
4 3 -6.67448 12.4485 0.996955
148 2 -2.28612 12.5021 6.88081
129 2 -1.07871 12.7032 0.892937
346 1 -0.576061 11.9203 8.43428
6 4 -5.658 12.1857 9.06913
109 2 -3.52433 6.80173 1.17911
310 2 -3.936 10.7453 1.05402
128 2 -1.34675 12.568 2.87645
83 2 2.35483 9.17938 4.74249
347 2 0.179394 11.7721 9.20791
330 2 -3.25859 8.24828 0.0752559
88 2 -2.03388 11.5727 9.70276
22 4 -3.61066 10.9876 13.5413
121 2 -2.81859 8.04549 13.13
43 4 -1.83759 10.3298 10.9675
44 4 2.5745 9.21135 13.9626
45 4 1.10951 11.0362 11.7274
75 2 -2.52786 12.1619 14.5788
311 2 -3.34547 10.3693 17.9525
99 2 -5.36079 9.95846 10.2707
100 2 -7.05321 11.0047 10.4504
101 2 -5.48232 11.5887 11.343
119 2 -0.861834 8.43788 12.902
120 2 -1.56277 7.60823 14.5693
125 2 -1.44375 10.1582 14.8198
126 2 -3.55111 9.53602 14.7123
141 2 3.00385 6.89521 9.5004
151 2 3.02199 8.16158 16.3184
127 2 -2.32772 10.6784 16.3353
154 2 1.13395 7.42334 14.8668
155 2 0.127345 8.88525 14.2203
156 2 0.989992 9.01466 15.8573
191 1 -5.8496 11.0521 10.4604
198 1 -1.74568 7.68264 13.3933
200 1 -2.38948 10.6199 15.2367
209 1 3.23172 7.09367 16.2046
210 1 1.04664 8.55424 14.8322
232 3 -4.84072 8.38604 9.94154
236 3 -5.09079 11.5757 13.6714
265 3 3.35703 7.73997 13.3052
263 3 -2.1271 8.81456 10.4544
264 3 -2.79471 10.7105 12.1613
266 3 -0.317066 10.5722 11.3429
339 1 -1.46621 12.4258 17.7913
315 3 -6.60061 11.3575 17.2843
316 3 -7.54156 12.0614 14.9645
319 2 -0.932378 11.4221 14.2502
8 4 -6.2172 12.7598 14.3051
116 2 -4.02114 8.13257 12.4654
336 2 -1.76236 11.8351 16.8305
153 2 4.29595 6.75701 16.503
338 2 -0.350873 12.288 17.9437
317 2 -4.11277 12.3786 17.7827
363 2 -3.85853 7.01259 17.9891
255 3 0.793592 7.34373 18.2251
320 2 1.26006 8.96872 18.1422
309 4 -5.62492 11.7926 18.4421
267 3 1.84637 10.023 12.7687
152 2 2.86669 6.60396 15.2406
25 4 9.06955 0.831251 7.8333
47 4 11.251 2.07699 3.97376
352 2 15.5596 1.5237 8.86572
51 4 13.7277 2.21474 5.84725
55 4 12.5382 4.55561 2.4794
357 2 11.5655 2.31967 1.3082
57 4 12.4385 4.45988 7.57717
354 1 15.7902 0.415585 9.00934
350 2 15.6966 1.10537 1.30512
358 2 10.0711 1.41363 0.577836
93 2 13.4105 5.72945 8.22372
284 3 13.3211 3.64191 6.58913
133 2 6.58602 4.27383 3.56256
134 2 8.05485 3.24403 2.81151
81 2 6.67608 3.35796 7.7795
351 1 15.8627 0.0349841 1.16593
89 2 16.0474 0.823385 2.99311
157 2 9.47515 0.966743 5.12295
158 2 8.70124 2.60823 4.27618
159 2 9.95776 2.70743 5.80012
371 3 13.1734 0.265106 0.160866
166 2 13.6378 3.12677 0.561829
167 2 14.0907 2.63865 2.36894
366 2 9.10306 4.28668 0.231266
172 2 8.25342 5.3922 6.50654
203 1 7.02084 3.24873 3.23054
288 3 11.0987 5.13821 6.93574
211 1 9.60053 2.08855 4.91265
329 2 15.3811 2.57356 0.4097
214 1 13.8866 3.50428 1.59031
359 1 10.8683 2.21377 0.451639
269 3 10.987 0.532552 2.7918
271 3 9.94335 1.83315 8.78313
272 3 15.0135 2.33663 4.92324
273 3 12.4741 1.77521 4.87359
274 3 13.8407 1.01471 7.01858