ITEM: TIMESTEP
0
ITEM: NUMBER OF ATOMS
350
ITEM: BOX BOUNDS xy xz yz pp pp pp
-6.7931589207117060e+00 1.5235469585769128e+01 -6.7859860257739273e+00
-9.2236853537990759e-01 1.4228599782302123e+01 -9.9033091685488094e-03
-2.1607667323829638e-01 1.7224576673238090e+01 -1.1965687530777740e+00
ITEM: ATOMS id type x y z
7 4 -0.944954 2.81443 3.51659
14 4 0.0387226 5.21121 1.83326
164 3 -1.34126 4.14213 2.64176
166 3 -0.614549 6.38143 0.912119
79 2 -1.79782 4.71326 7.33457
17 4 -1.05454 5.9726 6.35723
78 2 0.0836197 1.90241 6.20501
167 3 -2.24065 6.66697 5.46633
77 2 0.619468 2.93636 4.18064
190 3 0.261801 5.38719 5.64556
57 1 1.01361 2.51715 6.11329
105 2 0.669006 3.71712 5.91604
165 3 1.01722 4.27437 0.894917
189 3 0.864499 5.97136 2.95795
26 4 4.0373 2.28855 3.35516
315 1 1.56761 1.36009 0.231218
33 4 1.17773 6.26797 4.54093
270 2 7.21621 1.00884 -0.0403903
62 1 3.11989 3.92428 2.97804
82 2 3.8542 4.78482 2.9666
117 2 2.34548 4.10283 2.19602
118 2 2.53025 3.77965 4.10153
119 2 4.41391 3.09458 1.81586
182 3 5.25263 2.29618 4.40415
183 3 6.3933 0.427332 5.86695
194 3 2.74846 6.298 4.78489
195 3 4.60732 5.00455 6.33435
268 1 6.49826 1.816 1.40634
272 2 5.45441 1.35866 1.54381
180 3 3.35711 0.91889 2.99358
143 2 1.04679 0.573811 6.60828
280 2 4.51917 6.10934 0.344532
318 2 1.40122 1.82036 1.37036
104 2 1.64723 2.46577 7.07535
181 3 3.25686 0.721435 8.19779
103 2 1.64868 2.17348 5.20633
191 3 4.452 3.12581 8.30301
36 4 4.31535 6.36142 5.48446
316 2 2.686 1.25917 0.0486342
34 4 5.45511 3.95869 7.40367
317 2 1.01018 0.362289 0.0196263
18 4 -0.058323 3.11147 12.7234
19 4 -0.59913 5.43327 10.8872
161 3 -0.222672 1.58778 15.9412
170 3 -0.691238 4.05276 11.5755
110 2 -1.54764 5.27158 9.44635
133 2 -0.360933 6.07335 14.3846
168 3 -1.21595 2.69376 13.6925
67 1 0.710268 5.74997 14.4789
132 2 1.3227 5.83745 13.5243
169 3 0.683477 1.82496 12.1409
134 2 0.77937 4.82162 15.0612
193 3 0.848399 5.69025 10.4394
85 2 1.13051 4.00999 13.5595
84 2 2.29329 3.92436 9.44386
8 4 1.14094 1.78611 16.8753
13 4 0.987326 0.305079 11.5554
28 4 4.16824 1.75764 9.08576
31 4 3.88171 1.77741 15.2853
35 4 2.35668 5.53248 10.0397
63 1 2.97439 2.40337 10.5146
64 1 4.34569 3.44851 14.423
83 2 2.25878 0.47142 10.4659
120 2 1.92514 2.21922 10.1821
121 2 3.20444 3.53488 10.8952
122 2 3.33813 1.63624 11.3011
123 2 4.26614 3.18104 13.3266
210 3 7.38586 -0.743209 14.6699
125 2 3.48789 4.06613 14.86
184 3 3.67006 0.605589 14.0584
185 3 5.19557 1.59615 16.2913
186 3 2.50993 2.10998 16.2305
187 3 5.37521 1.38991 9.95459
198 3 3.30113 5.59455 11.2948
188 3 6.85669 0.463988 12.3411
86 2 4.53172 5.28973 13.8195
308 2 -3.29078 6.31134 10.9887
126 2 5.42858 3.79487 11.1071
200 3 2.90502 6.54283 8.76434
60 1 -4.6043 9.66288 4.7643
141 2 -3.67986 12.7456 5.33281
142 2 -2.06167 13.5227 6.2386
295 2 -5.98911 13.5956 2.21188
3 2 -2.83751 11.885 6.81785
70 1 -3.04595 12.8929 6.28316
1 4 -4.10842 13.4096 2.47599
6 3 -3.54206 12.9464 1.10461
16 4 -0.266274 7.96828 0.720419
20 4 -2.38861 10.093 1.08785
22 4 -0.424173 8.89951 7.11281
39 4 -1.06777 11.6779 3.55953
138 2 -1.13696 13.0354 1.63663
115 2 -2.33091 12.3869 4.52138
285 2 2.22872 7.96221 2.42962
171 3 -1.60861 8.75256 0.914481
173 3 -0.665214 7.29872 7.30928
199 3 -1.77782 10.8712 2.37238
202 3 -0.826073 10.0011 8.15453
80 2 -0.503988 9.37902 5.35377
69 1 -0.540875 13.2104 2.67749
111 2 -3.99802 9.58542 1.4508
2 1 -5.51543 12.6032 3.55924
205 3 0.178576 11.2003 4.35346
334 2 -4.01997 11.8131 3.67919
203 3 0.0375365 12.5721 7.99197
4 2 -5.518 13.2793 4.40399
112 2 -3.50623 8.81222 4.55796
139 2 0.610822 13.4865 2.35594
337 2 -4.23209 10.636 5.21443
174 3 -5.11098 12.4589 8.26589
286 2 1.37885 9.35135 3.49127
252 2 -4.64403 9.8904 6.821
99 2 0.667233 8.46114 2.11449
87 2 0.732018 7.91048 4.85768
241 1 -4.69772 9.74904 8.06125
61 1 1.10581 9.26419 6.24815
116 2 2.0558 8.70948 5.86741
40 4 3.53345 7.79084 8.01721
42 4 1.52336 11.1156 5.18204
88 2 2.28751 8.99887 7.80441
100 2 1.57944 10.7343 7.12302
278 1 2.32108 8.90496 3.09156
290 3 2.19621 10.9764 1.1563
287 2 3.21012 8.79303 3.84155
140 2 -1.09591 13.9545 3.44273
9 4 -4.39776 13.6675 7.31845
27 4 0.739548 13.5548 6.91508
214 3 1.05872 12.025 12.2065
163 3 -5.22047 13.2908 12.736
149 2 -3.49914 6.64712 13.6598
213 3 1.49577 9.34572 12.0475
196 3 2.94599 6.19369 16.1244
45 4 1.65502 10.7777 11.3608
208 3 3.43131 7.63882 13.0957
175 3 -1.05967 6.69912 11.6785
21 4 -3.00773 11.3755 17.0912
258 2 -3.84761 8.5855 10.8403
339 2 -3.69329 12.025 14.4936
23 4 -5.07383 11.1266 9.19821
24 4 -1.49358 8.03984 12.5273
25 4 -2.44607 11.3848 11.1029
41 4 -0.295308 11.3254 8.91325
44 4 -0.297231 11.841 15.7385
73 1 -0.494907 10.4562 14.5534
150 2 -1.49496 9.98447 14.8837
151 2 0.408097 9.68581 14.6689
176 3 -4.41281 11.2794 15.8286
177 3 -3.82451 11.0894 10.2103
178 3 -2.08528 9.84785 11.8015
179 3 -2.68658 12.6792 12.119
204 3 -1.4859 11.6629 9.97959
211 3 -1.88309 12.2599 16.3461
72 1 -2.81276 7.53542 13.9646
81 2 -2.36609 7.33532 14.9525
147 2 -0.972409 8.06747 14.196
102 2 -0.625461 9.51758 11.9467
152 2 -0.446277 10.8411 13.4191
207 3 1.72334 8.49104 14.7469
148 2 -3.38831 8.53413 13.8812
197 3 0.515151 7.16277 16.8646
43 4 2.60157 8.93571 13.4642
37 4 1.63044 7.06033 15.6615
209 3 0.68261 11.4448 17.0159
212 3 1.16849 10.8889 9.75775
11 4 -3.6639 13.2058 13.2891
38 4 4.05775 6.38663 12.497
250 2 -3.77484 9.32563 8.52157
172 3 -2.56096 9.76712 17.2098
229 3 8.05228 5.93793 5.4722
192 3 6.43947 3.10035 6.50102
271 2 6.47653 3.46761 1.4587
331 2 12.3371 0.302892 3.24432
95 2 7.32503 4.96892 3.24948
51 4 7.1655 6.30336 4.20759
130 2 7.67234 4.83135 8.21321
342 2 11.9391 5.41833 8.37656
215 3 8.05043 2.06359 4.49425
269 2 7.07302 1.59874 2.28248
219 3 13.319 2.40514 4.72262
46 4 9.47882 2.35943 3.86696
49 4 11.9754 1.94411 5.41006
50 4 10.7756 4.96575 2.8416
53 4 10.5782 3.65652 7.59986
91 2 9.35535 1.6483 2.29136
94 2 12.2461 4.21765 2.55941
220 3 10.6729 1.48142 4.32919
221 3 12.3204 0.581374 6.3061
222 3 9.96322 3.81055 3.49653
223 3 11.2158 6.24001 3.63609
225 3 9.9216 5.16872 1.54491
227 3 11.4402 3.23859 6.34619
230 3 9.48708 4.87257 7.5176
217 3 8.47574 0.691351 7.57544
294 4 13.3817 1.02458 1.33896
297 3 12.2911 2.00771 0.664039
52 4 9.22537 5.74583 0.189246
54 4 9.12686 6.06061 6.54873
232 3 8.45957 7.10955 0.563766
288 2 8.12799 0.701131 1.4062
224 3 5.58085 6.64964 4.49682
296 3 14.2938 1.60387 2.39398
29 4 6.61909 1.96325 5.3273
347 2 9.98435 0.368992 0.838094
97 2 12.9829 3.74559 8.1982
310 2 11.7205 6.06973 -0.185012
162 3 14.9382 -0.0573822 10.6895
128 2 6.49691 3.15004 12.661
30 4 7.81777 -0.604346 13.0533
131 2 6.55457 4.33271 9.71016
321 2 13.9421 2.14787 9.33917
12 4 13.8141 1.45695 14.8636
65 1 6.41539 3.40491 11.5126
137 2 5.96572 6.50941 10.5073
226 3 10.1615 2.45197 8.7651
249 2 6.72609 4.99898 13.7323
127 2 7.35413 3.96001 11.2704
240 1 7.60877 5.21667 14.4898
245 2 7.63358 4.41595 15.3176
93 2 11.0613 -0.084321 9.51861
218 3 8.03547 1.56848 10.1449
107 2 9.77514 -0.149302 10.9421
323 1 13.8202 -0.149933 13.7616
256 2 10.1703 5.95682 10.2977
340 2 11.6871 3.25376 17.2117
303 2 7.85795 0.678999 15.232
247 2 8.69616 5.18309 13.88
96 2 10.4919 5.93943 16.2376
129 2 6.21829 5.922 8.64874
298 4 11.5856 1.55327 16.886
312 3 9.89816 1.11879 16.8557
335 2 14.8875 -0.485648 13.9498
320 2 12.9864 2.48989 11.1539
336 2 10.7758 4.00023 15.7764
313 3 7.90962 3.21623 16.9064
109 2 11.9514 4.0925 9.91174
319 1 12.4073 1.66287 10.5563
348 2 9.39992 0.877144 12.2812
10 4 13.7603 0.499528 9.76561
48 4 9.06074 1.25687 8.95499
58 1 9.94704 -0.270943 9.76644
299 4 8.93636 1.90671 15.8142
300 4 10.4329 3.23841 13.1472
301 1 10.501 5.15635 13.045
302 1 10.7553 4.8524 16.6063
304 2 9.22649 4.21709 12.1203
305 2 11.9487 4.2625 13.5126
306 2 11.1792 2.12156 12.0149
307 2 10.7197 5.78545 12.0507
309 2 10.0992 5.74319 13.9013
311 3 12.333 1.29595 15.508
314 3 9.70059 2.64606 14.4266
322 2 12.0624 0.762624 11.3081
349 2 9.97196 0.318506 14.001
328 1 9.64475 -0.0257648 12.9571
108 2 11.4975 2.04565 9.86537
343 2 13.6449 0.156157 12.7015
59 1 12.1163 4.29636 8.68616
66 1 6.63945 4.85407 8.65361
32 4 6.66568 1.6054 10.8989
135 2 6.37611 6.09693 12.3299
267 4 6.51121 1.54913 17.1668
124 2 5.39615 3.8346 14.7758
157 2 10.24 8.54763 2.43207
156 2 8.53615 11.1959 6.10482
281 2 4.28149 13.8513 1.89443
251 2 9.48625 9.1793 8.34549
47 4 5.5244 13.2816 7.31573
155 2 9.57793 10.9577 2.4157
92 2 3.97158 13.153 8.02114
201 3 4.29461 7.58625 6.61222
206 3 1.73556 12.489 5.8724
274 4 3.38418 9.85571 1.65263
276 4 5.47214 11.6829 3.03158
277 4 6.82734 11.0762 5.72821
282 2 4.47655 12.9762 3.72814
98 2 8.31329 7.03802 7.72579
289 3 3.88905 8.71842 0.620204
5 2 8.79921 11.8732 3.63774
291 3 4.49855 10.5617 2.52884
292 3 6.61198 11.2528 4.17412
293 3 5.954 11.9058 6.70814
330 1 5.38155 13.8091 2.18959
333 2 6.37712 12.4044 1.57779
332 2 7.52142 14.0464 0.166398
275 4 2.05867 12.2561 0.17884
153 2 7.65522 9.85968 1.62942
326 2 9.15926 12.0995 0.522922
75 1 7.71138 9.48553 6.39896
158 2 6.66278 8.93806 6.40426
283 2 8.11265 9.4654 7.40343
114 2 10.1473 9.83314 3.71788
55 4 8.45852 8.06896 1.92713
154 2 9.58436 10.0588 0.719288
113 2 9.90916 9.23759 5.43075
74 1 9.34147 9.96179 1.78931
231 3 7.87459 7.44968 3.26609
284 2 8.45417 9.00271 5.63763
346 2 2.66306 13.3575 2.29695
279 1 2.33519 13.8709 1.35617
15 4 11.5414 6.96829 4.93832
89 2 2.80916 10.4895 4.31601
228 3 10.34 6.89078 5.94991
262 3 5.5416 6.54363 16.1926
237 4 9.6906 8.00077 10.9905
324 2 6.24763 13.0775 14.2142
329 2 3.69538 13.1686 12.4684
68 1 5.74188 6.76739 11.5966
273 4 4.25547 6.3818 17.0032
236 4 6.90227 6.82492 15.1685
265 3 8.52889 10.0275 14.4286
235 4 9.24562 11.0709 15.6802
136 2 5.72021 7.94025 11.8585
325 1 8.31363 11.1931 17.1846
145 2 3.93895 9.492 9.63994
144 2 5.0743 7.9729 10.1279
106 2 2.68719 12.7336 9.34079
71 1 4.66128 8.66401 9.24098
350 2 6.17131 11.5017 14.3923
341 2 4.68411 11.1367 12.3609
56 4 3.84595 11.2668 15.1205
76 1 5.68874 11.1909 15.3666
90 2 3.30505 11.1247 11.3751
101 2 6.11347 11.7726 16.2786
159 2 3.3741 12.8968 14.5411
160 2 5.79824 10.0075 15.5073
233 3 3.50961 10.1502 14.0046
234 3 3.2532 11.1252 16.559
239 4 7.13943 11.1573 11.3192
244 1 5.11587 11.9767 11.7076
260 2 5.8427 11.4093 10.0627
261 2 4.39392 12.5644 10.9831
263 3 6.98815 7.947 14.0857
246 2 5.70062 12.7677 12.4356
266 3 7.16419 9.84651 12.0847
254 2 7.21015 7.32599 10.3927
344 2 7.56592 12.5202 12.3444
238 4 7.99528 9.0103 13.3449
248 2 8.48191 6.48744 15.7118
242 1 8.04542 7.60905 9.62551
243 1 11.178 6.74517 10.3384
259 2 8.77226 9.27734 10.0254
264 3 9.12548 7.9428 12.5132
327 2 8.32243 12.6418 15.9464
338 2 8.63437 11.1167 10.2217
345 2 7.47235 10.3687 17.0248
253 2 8.75657 6.6886 9.44991
255 2 7.49523 7.92637 8.70609
216 3 6.34454 13.6055 8.6079
257 2 11.5813 7.11706 9.3038
146 2 5.55844 9.06582 8.55404
ITEM: TIMESTEP
100
ITEM: NUMBER OF ATOMS
350
ITEM: BOX BOUNDS xy xz yz pp pp pp
-6.7931589207117060e+00 1.5235469585769128e+01 -6.7859860257739273e+00
-9.2236853537990759e-01 1.4228599782302123e+01 -9.9033091685488094e-03
-2.1607667323829638e-01 1.7215856346564852e+01 -1.1965687530777740e+00
ITEM: ATOMS id type x y z
7 4 -0.929417 2.85574 3.49185
14 4 0.0113844 5.16482 1.83611
164 3 -1.43784 4.15892 2.69032
166 3 -0.664775 6.26116 0.852741
79 2 -1.68421 4.92913 7.44332
17 4 -1.05403 6.13676 6.36371
78 2 0.0622173 1.88145 5.66313
167 3 -2.31179 6.65384 5.42622
77 2 0.589028 3.08963 4.14881
190 3 0.306302 5.42908 5.40041
57 1 0.966878 2.5629 6.03623
105 2 0.765769 3.61726 5.80637
165 3 0.815767 4.03128 0.996481
189 3 0.838685 5.83998 2.96776
26 4 3.97644 2.14072 3.34153
315 1 1.36433 1.33775 0.480568
33 4 1.17358 6.30416 4.47008
34 4 5.51565 3.95812 7.26988
62 1 3.10713 3.77819 3.03986
82 2 3.70966 4.76342 2.96459
117 2 2.28444 3.7432 2.3
118 2 2.6835 3.69296 4.31822
119 2 4.34203 2.93233 1.80022
182 3 5.42195 2.06877 4.18467
183 3 6.34643 0.220116 6.04663
194 3 2.75501 6.35011 4.83991
195 3 4.94345 5.17949 6.42985
268 1 6.49928 1.80468 1.24752
272 2 5.54311 1.26819 1.13466
180 3 3.09169 0.859387 3.07299
143 2 1.24533 0.738277 6.71581
280 2 4.40211 6.24586 0.520143
318 2 1.06087 1.76452 1.55449
104 2 1.00843 2.48874 7.17973
181 3 3.23846 0.777355 8.39694
103 2 1.9865 2.22189 5.64901
191 3 4.50623 3.10796 8.15994
9 4 2.47053 -0.222463 7.47442
316 2 2.50649 1.19342 0.346025
29 4 6.61507 1.92203 5.28035
18 4 -0.196414 3.18216 12.6966
19 4 -0.52107 5.46904 10.81
161 3 -0.155869 1.45401 15.9299
170 3 -0.655624 4.06426 11.5129
110 2 -1.64284 5.40893 9.5712
133 2 -0.44724 6.12574 14.4323
168 3 -1.36458 2.76101 13.8121
67 1 0.616068 5.74681 14.5205
132 2 1.14193 5.76368 13.5422
169 3 0.625887 1.91126 12.2817
134 2 0.751653 4.81039 15.1243
193 3 0.863651 5.58245 10.0698
85 2 1.01245 4.06577 13.5654
84 2 2.56756 3.90078 9.23902
8 4 1.07164 1.6932 16.9242
13 4 0.9589 0.525087 11.6173
28 4 4.17286 1.80809 9.15365
31 4 3.8863 1.72315 15.189
35 4 2.36638 5.44056 9.94264
63 1 3.16861 2.59225 10.6391
64 1 4.34008 3.42132 14.4725
83 2 2.20089 0.891803 10.4835
120 2 1.99257 2.71657 10.6482
121 2 3.55071 3.67685 10.8521
122 2 3.52677 1.89941 11.4636
123 2 4.42003 3.12905 13.3657
124 2 5.24895 3.76653 14.9737
125 2 3.34052 3.95603 14.7168
184 3 3.72266 0.606362 13.892
185 3 5.20929 1.58676 16.2029
186 3 2.4625 1.95355 16.1073
187 3 5.36437 1.24546 9.94192
198 3 3.23261 5.51634 11.305
163 3 1.70966 -0.493828 12.6266
86 2 4.25716 5.32137 13.8174
196 3 3.07829 6.1001 15.9379
38 4 4.14055 6.33906 12.3751
200 3 3.06682 6.51034 8.88027
60 1 -4.63523 9.61705 4.91552
141 2 -3.65191 13.2781 5.26142
142 2 -2.06324 13.5219 6.22913
295 2 -6.22373 13.4992 2.28098
3 2 -3.07156 11.7884 6.55644
70 1 -3.10346 12.9626 6.27855
1 4 -4.2593 13.4598 2.37215
6 3 -3.72027 12.991 0.863245
16 4 -0.22124 7.91817 0.853405
20 4 -2.43935 10.028 1.01114
22 4 -0.389514 8.94754 7.12723
39 4 -1.16873 11.6418 3.47262
138 2 -0.805896 12.8559 1.40559
115 2 -2.42806 12.2875 4.57244
285 2 2.45845 7.90527 2.42632
171 3 -1.60262 8.6646 0.853445
173 3 -0.564896 7.28179 7.44827
199 3 -1.80166 10.7366 2.35741
202 3 -0.589307 10.1288 8.13006
80 2 -0.677419 9.43343 5.42821
69 1 -0.52436 13.0571 2.43137
111 2 -4.10816 9.62065 1.34491
2 1 -5.56306 12.6887 3.67465
205 3 0.15253 11.1552 4.25181
334 2 -4.09425 11.9729 3.47598
203 3 -0.0819521 12.5751 8.07124
4 2 -5.41802 13.5164 4.46244
112 2 -3.63908 8.84039 4.64813
139 2 0.630529 13.1783 2.69398
337 2 -4.29822 10.5462 5.38234
174 3 -4.99225 12.4936 8.22359
286 2 1.45316 9.18352 3.65186
252 2 -4.69789 9.74897 6.93176
99 2 0.743881 8.4032 2.16063
87 2 0.662455 7.94226 4.5685
241 1 -4.72505 9.67977 8.20176
61 1 1.05618 9.14662 6.12434
116 2 1.94868 8.54726 5.75718
40 4 3.49663 7.81458 8.13045
42 4 1.51326 11.0241 5.23231
88 2 2.05442 8.78893 7.73585
100 2 1.70372 10.4678 7.0814
278 1 2.45945 8.89184 3.10791
290 3 2.21267 10.9844 1.13611
27 4 0.635385 13.52 7.01362
140 2 -1.17933 13.8747 2.90511
317 2 -6.01726 14.175 0.223637
214 3 1.04794 11.8217 12.2837
172 3 -2.36977 9.72377 17.1714
149 2 -3.55182 6.84874 13.5509
213 3 1.61776 9.40328 12.2833
11 4 -3.70357 13.1983 13.262
45 4 1.78166 10.814 11.3783
208 3 3.52632 7.71136 12.8756
175 3 -1.09888 6.72648 11.6863
21 4 -3.03073 11.2359 16.9261
258 2 -3.94734 8.63968 10.8676
339 2 -3.92736 12.1048 14.6064
23 4 -5.04539 11.1807 9.17325
24 4 -1.50248 8.11002 12.5653
25 4 -2.5189 11.3274 11.2297
41 4 -0.209456 11.3949 9.09907
44 4 -0.384488 11.9262 15.7575
73 1 -0.571978 10.3442 14.667
150 2 -1.54552 9.94811 15.0225
151 2 0.350404 9.57138 14.802
176 3 -4.50021 11.1874 15.7687
177 3 -4.03408 11.1295 10.4111
178 3 -2.20387 9.90073 11.9438
179 3 -2.69908 12.4659 12.3213
204 3 -1.30713 11.7276 10.269
211 3 -1.91416 12.293 16.3085
72 1 -2.98686 7.79078 13.8032
81 2 -2.7634 7.90754 14.9235
147 2 -1.12803 7.8991 14.2883
102 2 -0.666865 9.5722 12.0665
152 2 -0.695383 10.9232 13.6904
207 3 1.70124 8.32629 14.8632
148 2 -3.57224 8.72889 13.4014
197 3 0.641826 6.96845 16.9901
43 4 2.58993 8.93265 13.4856
37 4 1.57267 6.97603 15.7422
209 3 0.585297 11.4509 16.9189
212 3 1.198 10.9623 9.73628
250 2 -3.83208 9.19087 8.71488
210 3 0.493838 13.1992 14.5947
308 2 -3.16439 6.52996 11.0906
229 3 7.99497 6.13412 5.37396
192 3 6.54261 3.05403 6.40244
271 2 6.23959 3.47479 1.43923
331 2 12.5502 0.238226 3.4958
95 2 6.8912 4.78153 3.43679
51 4 7.06308 6.2606 4.16051
130 2 7.65787 4.69252 8.15031
342 2 12.0436 5.59592 8.36079
215 3 8.02522 2.11555 4.39569
269 2 7.01219 1.4977 2.20986
219 3 13.1978 2.51108 4.57673
46 4 9.44401 2.34524 3.70653
49 4 11.9079 1.87429 5.47335
50 4 10.7091 4.89314 2.93116
53 4 10.6466 3.67309 7.63917
91 2 9.23314 1.85058 2.09128
94 2 12.1942 4.07875 2.52316
220 3 10.6668 1.45502 4.22907
221 3 12.1746 0.628957 6.37797
222 3 9.81429 3.89965 3.69084
223 3 11.0874 6.29912 3.52342
225 3 10.0751 5.12321 1.35805
227 3 11.2986 3.11846 6.31587
230 3 9.50735 4.85368 7.27585
217 3 8.38672 0.584984 7.69681
294 4 13.296 0.956299 1.45886
297 3 12.3 1.9491 0.69799
52 4 9.26918 5.81629 0.167825
54 4 9.15676 6.15539 6.52683
270 2 7.47314 1.24991 -0.0674679
288 2 8.1285 0.684426 1.40164
224 3 5.49218 6.79825 4.42345
296 3 14.4087 1.58758 2.38509
36 4 4.4594 6.48727 5.61221
347 2 10.0076 0.549807 0.792812
97 2 13.0915 3.94063 8.2846
226 3 10.2688 2.36284 8.47844
162 3 14.9208 -0.0943213 10.8715
128 2 6.64365 3.24702 12.6956
310 2 11.5552 5.264 16.984
131 2 6.64164 4.25009 9.7421
93 2 11.2666 -0.274742 9.42812
12 4 13.7876 1.44693 14.8139
65 1 6.67441 3.3693 11.5802
267 4 6.53529 1.73804 17.0866
216 3 13.1834 -0.334803 8.66349
249 2 6.6909 5.00993 13.9261
127 2 7.5675 3.90292 11.0786
240 1 7.65461 5.25265 14.614
245 2 7.71515 4.49741 15.4115
137 2 6.01017 6.36398 10.5908
218 3 8.13237 1.85017 10.0021
107 2 9.91617 -0.280291 10.8206
323 1 13.732 -0.236141 13.7855
256 2 10.3856 5.92077 10.4066
135 2 6.42462 6.09633 12.5212
303 2 7.91894 0.697524 15.0626
247 2 8.7227 5.25918 13.9902
96 2 10.1668 5.77606 15.7807
129 2 6.30921 5.8246 8.65298
298 4 11.6117 1.72047 16.8634
312 3 10.1014 1.31322 16.5745
126 2 5.70155 3.84309 11.2682
320 2 12.6393 2.64146 11.2251
336 2 10.9278 4.13796 15.639
313 3 8.01988 3.21561 16.855
109 2 11.9667 4.24665 9.69567
319 1 12.3411 1.74671 10.6102
348 2 9.45422 0.696692 12.0665
10 4 13.707 0.456253 9.90892
48 4 9.11959 1.25478 8.89162
58 1 10.1286 -0.313029 9.66044
299 4 8.96097 1.93512 15.6228
300 4 10.367 3.32197 13.2305
301 1 10.5261 5.23627 13.137
302 1 10.6428 4.87876 16.3921
304 2 9.13159 4.25581 12.2868
305 2 11.8551 4.55839 13.8222
306 2 11.1767 2.23141 12.169
307 2 10.7742 5.78462 12.1444
309 2 10.0478 5.99884 13.8511
311 3 12.4454 1.4417 15.5728
314 3 9.55983 2.65818 14.3842
322 2 12.0014 0.699698 11.3291
349 2 10.0254 0.342627 13.7944
328 1 9.67347 -0.204185 12.8142
108 2 11.5796 2.03863 9.85764
343 2 13.6778 0.0921051 12.7313
59 1 12.1349 4.43052 8.65876
66 1 6.64756 4.77809 8.67595
32 4 6.84044 1.57069 10.9051
324 2 12.7891 -0.694337 14.1788
188 3 7.17113 0.584993 12.1659
321 2 13.8453 2.18179 9.5043
340 2 11.7652 3.42669 17.1003
157 2 10.1236 8.56274 2.63397
156 2 8.54142 10.9749 6.33641
281 2 4.30759 13.7953 2.00629
325 1 8.41031 12.3299 -0.167906
47 4 5.51104 13.3355 7.30458
155 2 9.48614 10.9649 2.57708
92 2 3.91712 12.9909 7.86943
201 3 4.38691 7.66543 6.76674
206 3 1.7333 12.3378 6.02476
274 4 3.33779 9.86368 1.5605
276 4 5.66177 11.5291 2.93745
277 4 6.91655 11.0717 5.74437
282 2 4.6303 12.7415 3.77094
98 2 8.45659 7.06422 7.77545
289 3 3.75926 8.69231 0.561971
5 2 8.97199 11.9181 4.0406
291 3 4.62251 10.6285 2.18152
292 3 6.72979 11.2089 4.14881
293 3 5.97441 11.9757 6.6345
330 1 5.47898 13.7345 2.36789
333 2 6.51698 12.3794 1.58265
332 2 7.22449 13.6717 0.355415
275 4 2.1568 12.363 0.302214
153 2 7.68888 9.89768 1.66895
232 3 8.65817 7.2889 0.547309
75 1 7.49891 9.3388 6.43358
158 2 6.51525 8.83773 5.8847
283 2 7.53416 9.07753 7.53889
114 2 10.0793 9.83121 3.86587
55 4 8.46855 8.06136 1.93516
154 2 9.58533 10.2325 0.861005
113 2 9.8062 9.02094 5.59648
74 1 9.29069 10.0255 1.95134
231 3 7.64534 7.34713 3.09336
284 2 8.40462 8.95296 5.86928
346 2 2.66031 13.4455 2.35179
279 1 2.40602 13.9908 1.3544
15 4 11.5045 7.01704 4.90098
89 2 2.88042 10.3869 4.29709
228 3 10.4935 6.83305 6.17141
251 2 9.5279 9.14869 8.44795
287 2 3.36946 8.83579 3.77716
326 2 9.24568 12.2464 0.531042
262 3 5.56425 6.70881 16.2255
237 4 9.6946 7.94891 11.1366
30 4 0.999648 13.2821 12.9789
329 2 3.65709 12.9778 12.4132
68 1 5.81132 6.74351 11.6395
273 4 4.2346 6.40783 16.9716
236 4 6.75752 6.88605 15.1587
265 3 8.42963 10.0319 14.5201
235 4 9.07501 11.039 15.572
136 2 5.91658 7.90391 11.7298
146 2 5.46815 9.10113 8.62011
145 2 3.88464 9.48065 9.62158
144 2 5.1111 7.90949 10.1613
106 2 2.7642 12.7552 9.1983
71 1 4.67024 8.64515 9.29765
350 2 6.28306 11.2377 14.3284
341 2 4.84185 11.0724 12.1952
56 4 3.97235 11.2562 15.0116
76 1 5.7772 10.8483 15.2468
90 2 3.47815 11.2234 11.3168
101 2 6.36574 11.0746 16.1829
159 2 3.75221 12.86 14.3792
160 2 5.66742 9.68876 15.1472
233 3 3.45735 10.2683 13.9346
234 3 3.24131 11.2776 16.5366
239 4 7.19455 11.0784 11.3456
244 1 5.27763 11.9591 11.6143
260 2 5.98156 11.0316 10.0623
261 2 4.53751 12.5737 10.9109
263 3 6.78798 8.0421 14.1538
246 2 5.86952 12.734 12.3188
266 3 7.18789 9.74571 12.1428
254 2 7.18071 7.40813 10.3132
344 2 7.55626 12.4092 12.4934
238 4 7.8663 9.02175 13.385
248 2 8.38268 6.66767 15.7683
242 1 8.0225 7.77494 9.60582
243 1 11.17 6.77191 10.425
259 2 8.77589 9.24439 10.1637
264 3 9.20561 8.04693 12.6659
327 2 8.12388 12.5167 16.0581
338 2 8.65079 11.1585 10.1504
335 2 7.90569 13.0749 14.0509
253 2 8.80728 6.83495 9.41928
255 2 7.54306 8.09915 8.64141
257 2 11.4581 7.02772 9.37336
345 2 7.77217 10.0659 17.184
ITEM: TIMESTEP
200
ITEM: NUMBER OF ATOMS
350
ITEM: BOX BOUNDS xy xz yz pp pp pp
-6.7931589207117060e+00 1.5235469585769128e+01 -6.7859860257739273e+00
-9.2236853537990759e-01 1.4228599782302123e+01 -9.9033091685488094e-03
-2.1607667323829638e-01 1.7207136019891614e+01 -1.1965687530777740e+00
ITEM: ATOMS id type x y z
7 4 -1.00322 2.76407 3.51336
14 4 0.164871 5.13301 2.02189
164 3 -1.34428 4.31692 2.80692
166 3 -0.514411 6.25758 1.0637
79 2 -1.85493 4.72968 7.19599
17 4 -1.08102 5.9736 6.30592
78 2 -0.00987771 1.92151 5.77149
167 3 -2.18008 6.62668 5.25461
77 2 0.529409 2.83063 4.2982
190 3 0.377043 5.46826 5.60454
57 1 0.851099 2.52199 6.24938
105 2 0.7742 3.67172 5.92913
165 3 0.960685 3.99719 1.06832
189 3 1.14935 5.80537 3.07699
26 4 3.95214 2.13981 3.27173
315 1 1.60237 1.08467 0.251394
33 4 1.32564 6.3493 4.64014
316 2 2.72148 1.02702 -0.11762
62 1 3.05434 3.79499 3.03189
82 2 3.61146 4.72501 3.13795
117 2 2.22768 3.81909 2.19046
118 2 2.56094 3.45668 4.28146
119 2 4.23504 3.02567 1.73312
182 3 5.26551 2.01004 4.15822
183 3 6.49406 0.252956 5.78236
194 3 2.85857 6.20988 5.13109
195 3 4.86878 5.04191 6.38101
268 1 6.45091 1.78849 1.13005
272 2 5.48066 1.23342 1.30032
180 3 3.23587 0.799326 2.89052
143 2 1.06513 0.633471 6.78778
280 2 4.20329 6.14921 0.386859
318 2 1.54295 1.46031 1.40581
104 2 0.761499 2.49487 7.40512
181 3 3.40366 0.795726 8.33187
103 2 1.81034 2.07761 6.01217
191 3 4.67413 3.1004 8.22409
9 4 2.44304 -0.249471 7.54789
36 4 4.33065 6.42166 5.65673
29 4 6.65291 1.74373 5.22487
18 4 -0.248728 3.30157 12.5447
19 4 -0.594778 5.62141 10.7365
161 3 -0.114399 1.33547 15.9806
170 3 -0.847018 4.27097 11.4919
110 2 -1.65614 5.55154 9.40512
133 2 -0.671045 6.03435 14.6744
168 3 -1.31177 2.85903 13.694
67 1 0.380286 5.65646 14.5208
132 2 0.893948 5.8861 13.5076
169 3 0.513106 1.99837 12.068
134 2 0.529164 4.58129 14.9971
193 3 0.825902 5.64589 10.1585
85 2 0.986864 4.19213 13.3759
84 2 2.78112 4.01787 9.38133
8 4 1.186 1.53788 16.9765
13 4 0.956006 0.543871 11.5927
28 4 4.42588 1.78308 9.14319
31 4 3.95301 1.80039 15.1214
35 4 2.36836 5.59698 9.91582
63 1 3.27868 2.50476 10.5715
64 1 3.99485 3.37748 14.0375
83 2 2.11374 0.868374 10.3996
120 2 2.12256 2.47256 10.5017
121 2 3.73647 3.53781 10.7208
122 2 3.73158 1.72646 11.4103
123 2 3.85555 2.93626 12.9953
124 2 4.92252 3.8967 14.1491
125 2 3.06343 3.88649 14.5313
184 3 3.74507 0.694628 13.9647
185 3 5.2334 1.84321 16.1593
186 3 2.43036 1.86009 16.0466
187 3 5.7474 1.36782 9.83561
198 3 3.11399 5.72618 11.3531
163 3 1.72793 -0.407345 12.7352
86 2 3.93719 5.34044 13.8639
11 4 3.11282 -0.653319 13.3957
38 4 3.99437 6.35266 12.4386
126 2 5.46426 3.78002 11.1387
210 3 7.31947 -0.673629 14.6229
60 1 -4.78891 9.78143 4.86752
141 2 -4.06659 13.4009 5.30479
142 2 -2.1149 13.5657 5.99816
295 2 -6.21006 13.6015 2.21568
3 2 -3.22892 11.9853 6.36227
70 1 -3.19876 13.1389 6.13241
1 4 -4.27856 13.3626 2.45886
6 3 -3.75659 12.856 0.976288
16 4 -0.258368 7.81102 0.856766
20 4 -2.51668 9.93726 1.03475
22 4 -0.423077 8.81241 7.10728
39 4 -1.24197 11.6992 3.39506
138 2 -0.320376 12.8564 1.42521
115 2 -2.50102 12.2144 4.50442
285 2 2.25239 7.96045 2.30179
171 3 -1.62333 8.64574 0.792388
173 3 -0.801209 7.11806 7.3684
199 3 -2.03153 10.7304 2.42607
202 3 -0.811217 9.94954 8.31882
80 2 -0.718322 9.49794 5.57595
69 1 -0.500917 13.2023 2.49022
111 2 -4.10601 9.31205 1.28075
2 1 -5.86567 12.6259 3.46929
205 3 0.0292431 11.1628 4.21832
334 2 -4.3862 11.8801 3.58597
203 3 0.022345 12.5766 8.1394
4 2 -5.90199 13.3094 4.43692
112 2 -3.89797 8.97459 4.82583
139 2 0.457042 13.6762 2.96055
337 2 -4.39917 10.8056 5.14671
174 3 -5.04977 12.5349 8.36374
286 2 1.47943 9.51284 3.01698
252 2 -4.68485 9.92563 6.9617
99 2 0.586512 8.39115 2.15183
87 2 0.86965 8.03074 4.70188
241 1 -4.70652 9.85161 8.12418
61 1 1.13584 9.279 6.22689
116 2 1.93065 8.56707 5.9231
40 4 3.56799 7.99945 8.17514
42 4 1.40554 11.0441 5.14523
88 2 2.16077 9.01961 7.85223
100 2 1.60048 10.5182 7.14848
278 1 2.3858 8.90357 2.90912
317 2 -5.94471 14.0802 0.0472111
27 4 0.845971 13.4368 6.91185
140 2 -1.47612 13.8639 2.70174
287 2 3.04334 8.67242 3.84271
214 3 1.27481 12.0585 12.3283
172 3 -2.56901 9.56154 17.1179
149 2 -3.57223 6.87452 13.6682
213 3 1.5543 9.37423 11.9869
208 3 3.50672 7.78083 12.8495
45 4 1.78324 10.8276 11.3937
257 2 -3.3275 7.24308 9.80648
175 3 -1.04105 6.76665 11.7991
21 4 -3.10621 11.1283 16.9767
258 2 -3.96731 8.83398 10.8103
339 2 -3.92355 12.3891 14.803
23 4 -4.97972 11.2483 9.27966
24 4 -1.43726 8.08089 12.631
25 4 -2.42618 11.2814 11.271
41 4 -0.200026 11.2848 9.15164
44 4 -0.42085 11.9406 15.7059
73 1 -0.552886 10.4798 14.5515
150 2 -1.61148 10.0837 14.8342
151 2 0.193647 9.56814 14.6005
176 3 -4.48815 11.143 15.7244
177 3 -3.69234 11.2427 10.3125
178 3 -1.95632 9.84841 11.9211
179 3 -2.71596 12.3674 12.5795
204 3 -1.26214 11.6952 10.2501
211 3 -1.91788 12.0976 16.3505
72 1 -2.95385 7.82584 13.967
81 2 -2.78782 7.95265 15.0658
147 2 -1.12372 7.87464 14.4031
102 2 -0.381116 9.4595 12.221
152 2 -0.473513 11.1694 13.5441
207 3 1.4465 8.22424 14.7174
148 2 -3.4806 8.73136 13.5397
197 3 0.692599 6.87547 16.9882
43 4 2.47684 8.86861 13.4127
37 4 1.49422 6.86508 15.6103
209 3 0.668475 11.6036 16.7668
212 3 1.2364 10.8945 9.71675
308 2 -3.33539 6.53907 11.4761
200 3 3.04145 6.69651 8.90406
196 3 3.0291 6.16934 15.7675
250 2 -3.67952 9.39647 8.51791
229 3 7.92144 6.22099 5.47144
192 3 6.70844 2.91275 6.3887
269 2 7.08586 1.66415 2.00408
331 2 12.484 0.0954343 3.27194
95 2 7.03156 4.85223 3.55886
51 4 6.99661 6.3909 4.25047
130 2 7.77415 4.62155 8.23931
342 2 12.0744 5.61293 8.22566
215 3 8.03434 1.89579 4.2856
340 2 11.9239 4.57112 -0.0947959
219 3 13.2225 2.26511 4.59207
46 4 9.34944 2.39394 3.63106
49 4 11.9009 1.87387 5.35609
50 4 10.6236 5.03592 2.90468
53 4 10.6049 3.59664 7.59054
91 2 9.17136 1.75588 2.03358
94 2 12.2146 4.42994 3.03618
220 3 10.6179 1.65051 4.32966
221 3 12.1533 0.483877 6.24035
222 3 9.63931 3.96066 3.5369
223 3 10.8852 6.39786 3.64593
225 3 10.3158 5.23053 1.38136
227 3 11.47 3.263 6.25133
230 3 9.39192 4.63754 7.34273
217 3 8.56979 0.63816 7.52752
294 4 13.2162 1.00274 1.26351
297 3 12.1947 2.05736 0.751168
52 4 9.45183 5.78181 0.148498
54 4 9.07141 6.14613 6.55283
228 3 10.567 6.79364 6.27542
288 2 8.14135 0.697639 1.24233
224 3 5.44158 6.90785 4.54457
296 3 14.3469 1.56234 2.33697
34 4 5.646 3.90105 7.30666
347 2 10.1793 0.481871 0.775604
232 3 8.75382 7.15895 0.506683
271 2 6.04024 3.57874 1.36943
270 2 7.25717 1.23011 -0.0832005
162 3 14.9402 -0.0251175 10.814
128 2 6.39398 3.19659 12.7478
310 2 12.0684 4.91541 16.8509
131 2 6.63411 4.22354 9.73597
93 2 11.1243 -0.308361 9.59867
12 4 13.8261 1.50746 14.8464
65 1 6.40461 3.40519 11.6102
267 4 6.46981 1.78901 17.0927
216 3 13.1513 -0.140116 8.56114
249 2 6.6913 4.9252 13.7818
127 2 7.34645 4.0098 11.4529
240 1 7.57272 5.11857 14.5738
245 2 7.58518 4.33571 15.4644
137 2 5.57578 6.1046 10.5264
218 3 8.31228 1.82757 10.041
107 2 9.80678 -0.169007 10.9456
323 1 13.7675 -0.0833983 13.7464
256 2 10.4332 6.12256 10.2176
135 2 6.38333 5.96941 12.2003
303 2 7.96421 0.667698 15.2704
247 2 8.65273 5.17301 14.0632
96 2 10.6206 5.96857 16.1703
129 2 6.30777 5.73751 8.6387
298 4 11.606 1.64836 16.9802
312 3 9.98296 1.34941 16.7112
30 4 7.83381 -0.51395 13.0841
320 2 12.6215 2.64849 11.447
336 2 10.8576 4.10162 15.5535
313 3 8.0346 3.28842 16.8539
109 2 11.4718 4.66242 9.75837
319 1 12.3946 1.75125 10.7638
348 2 9.39956 1.01932 12.3588
10 4 13.6944 0.558983 9.88129
48 4 9.18936 1.18422 8.86277
58 1 9.98708 -0.338552 9.80697
299 4 8.92637 1.9931 15.6912
300 4 10.159 3.33621 13.1225
301 1 10.5245 5.21874 13.3084
302 1 10.9713 4.83704 16.4684
304 2 9.13342 4.6536 12.2768
305 2 11.7864 4.23959 13.7453
306 2 10.8443 2.30143 11.8864
307 2 10.7864 5.81147 12.381
309 2 10.1755 5.84863 14.1909
311 3 12.4758 1.44958 15.6679
314 3 9.45192 2.66947 14.3726
322 2 12.0572 0.733089 11.3997
349 2 10.1549 0.424469 13.9741
328 1 9.68632 0.0562409 13.0412
108 2 11.5609 1.9954 9.9165
343 2 13.44 0.297559 12.7365
59 1 11.9433 4.61549 8.65657
66 1 6.7229 4.70553 8.67752
32 4 6.93722 1.68714 10.8521
335 2 14.8504 -0.429123 13.7748
188 3 7.08891 0.554507 12.1206
321 2 13.9296 2.25374 9.61975
97 2 12.8995 4.01791 8.71635
226 3 10.3739 2.38607 8.5968
157 2 10.059 8.56701 2.6097
156 2 8.57689 10.8556 6.31797
281 2 4.36642 13.6568 1.85536
326 2 8.99702 12.3481 0.461923
47 4 5.48977 13.324 7.38663
155 2 9.36399 10.8556 2.42846