ITEM: TIMESTEP
0
ITEM: NUMBER OF ATOMS
350
ITEM: BOX BOUNDS xy xz yz pp pp pp
-6.7931589207117060e+00 1.5235469585769128e+01 -6.7859860257739273e+00
-9.2236853537990759e-01 1.4228599782302123e+01 -9.9033091685488094e-03
-2.1607667323829638e-01 1.7224576673238090e+01 -1.1965687530777740e+00
ITEM: ATOMS id type x y z
7 4 -0.944954 2.81443 3.51659
14 4 0.0387226 5.21121 1.83326
164 3 -1.34126 4.14213 2.64176
166 3 -0.614549 6.38143 0.912119
79 2 -1.79782 4.71326 7.33457
17 4 -1.05454 5.9726 6.35723
78 2 0.0836197 1.90241 6.20501
167 3 -2.24065 6.66697 5.46633
77 2 0.619468 2.93636 4.18064
190 3 0.261801 5.38719 5.64556
57 1 1.01361 2.51715 6.11329
105 2 0.669006 3.71712 5.91604
165 3 1.01722 4.27437 0.894917
189 3 0.864499 5.97136 2.95795
26 4 4.0373 2.28855 3.35516
315 1 1.56761 1.36009 0.231218
33 4 1.17773 6.26797 4.54093
270 2 7.21621 1.00884 -0.0403903
62 1 3.11989 3.92428 2.97804
82 2 3.8542 4.78482 2.9666
117 2 2.34548 4.10283 2.19602
118 2 2.53025 3.77965 4.10153
119 2 4.41391 3.09458 1.81586
182 3 5.25263 2.29618 4.40415
183 3 6.3933 0.427332 5.86695
194 3 2.74846 6.298 4.78489
195 3 4.60732 5.00455 6.33435
268 1 6.49826 1.816 1.40634
272 2 5.45441 1.35866 1.54381
180 3 3.35711 0.91889 2.99358
143 2 1.04679 0.573811 6.60828
280 2 4.51917 6.10934 0.344532
318 2 1.40122 1.82036 1.37036
104 2 1.64723 2.46577 7.07535
181 3 3.25686 0.721435 8.19779
103 2 1.64868 2.17348 5.20633
191 3 4.452 3.12581 8.30301
36 4 4.31535 6.36142 5.48446
316 2 2.686 1.25917 0.0486342
34 4 5.45511 3.95869 7.40367
317 2 1.01018 0.362289 0.0196263
18 4 -0.058323 3.11147 12.7234
19 4 -0.59913 5.43327 10.8872
161 3 -0.222672 1.58778 15.9412
170 3 -0.691238 4.05276 11.5755
110 2 -1.54764 5.27158 9.44635
133 2 -0.360933 6.07335 14.3846
168 3 -1.21595 2.69376 13.6925
67 1 0.710268 5.74997 14.4789
132 2 1.3227 5.83745 13.5243
169 3 0.683477 1.82496 12.1409
134 2 0.77937 4.82162 15.0612
193 3 0.848399 5.69025 10.4394
85 2 1.13051 4.00999 13.5595
84 2 2.29329 3.92436 9.44386
8 4 1.14094 1.78611 16.8753
13 4 0.987326 0.305079 11.5554
28 4 4.16824 1.75764 9.08576
31 4 3.88171 1.77741 15.2853
35 4 2.35668 5.53248 10.0397
63 1 2.97439 2.40337 10.5146
64 1 4.34569 3.44851 14.423
83 2 2.25878 0.47142 10.4659
120 2 1.92514 2.21922 10.1821
121 2 3.20444 3.53488 10.8952
122 2 3.33813 1.63624 11.3011
123 2 4.26614 3.18104 13.3266
210 3 7.38586 -0.743209 14.6699
125 2 3.48789 4.06613 14.86
184 3 3.67006 0.605589 14.0584
185 3 5.19557 1.59615 16.2913
186 3 2.50993 2.10998 16.2305
187 3 5.37521 1.38991 9.95459
198 3 3.30113 5.59455 11.2948
188 3 6.85669 0.463988 12.3411
86 2 4.53172 5.28973 13.8195
308 2 -3.29078 6.31134 10.9887
126 2 5.42858 3.79487 11.1071
200 3 2.90502 6.54283 8.76434
60 1 -4.6043 9.66288 4.7643
141 2 -3.67986 12.7456 5.33281
142 2 -2.06167 13.5227 6.2386
295 2 -5.98911 13.5956 2.21188
3 2 -2.83751 11.885 6.81785
70 1 -3.04595 12.8929 6.28316
1 4 -4.10842 13.4096 2.47599
6 3 -3.54206 12.9464 1.10461
16 4 -0.266274 7.96828 0.720419
20 4 -2.38861 10.093 1.08785
22 4 -0.424173 8.89951 7.11281
39 4 -1.06777 11.6779 3.55953
138 2 -1.13696 13.0354 1.63663
115 2 -2.33091 12.3869 4.52138
285 2 2.22872 7.96221 2.42962
171 3 -1.60861 8.75256 0.914481
173 3 -0.665214 7.29872 7.30928
199 3 -1.77782 10.8712 2.37238
202 3 -0.826073 10.0011 8.15453
80 2 -0.503988 9.37902 5.35377
69 1 -0.540875 13.2104 2.67749
111 2 -3.99802 9.58542 1.4508
2 1 -5.51543 12.6032 3.55924
205 3 0.178576 11.2003 4.35346
334 2 -4.01997 11.8131 3.67919
203 3 0.0375365 12.5721 7.99197
4 2 -5.518 13.2793 4.40399
112 2 -3.50623 8.81222 4.55796
139 2 0.610822 13.4865 2.35594
337 2 -4.23209 10.636 5.21443
174 3 -5.11098 12.4589 8.26589
286 2 1.37885 9.35135 3.49127
252 2 -4.64403 9.8904 6.821
99 2 0.667233 8.46114 2.11449
87 2 0.732018 7.91048 4.85768
241 1 -4.69772 9.74904 8.06125
61 1 1.10581 9.26419 6.24815
116 2 2.0558 8.70948 5.86741
40 4 3.53345 7.79084 8.01721
42 4 1.52336 11.1156 5.18204
88 2 2.28751 8.99887 7.80441
100 2 1.57944 10.7343 7.12302
278 1 2.32108 8.90496 3.09156
290 3 2.19621 10.9764 1.1563
287 2 3.21012 8.79303 3.84155
140 2 -1.09591 13.9545 3.44273
9 4 -4.39776 13.6675 7.31845
27 4 0.739548 13.5548 6.91508
214 3 1.05872 12.025 12.2065
163 3 -5.22047 13.2908 12.736
149 2 -3.49914 6.64712 13.6598
213 3 1.49577 9.34572 12.0475
196 3 2.94599 6.19369 16.1244
45 4 1.65502 10.7777 11.3608
208 3 3.43131 7.63882 13.0957
175 3 -1.05967 6.69912 11.6785
21 4 -3.00773 11.3755 17.0912
258 2 -3.84761 8.5855 10.8403
339 2 -3.69329 12.025 14.4936
23 4 -5.07383 11.1266 9.19821
24 4 -1.49358 8.03984 12.5273
25 4 -2.44607 11.3848 11.1029
41 4 -0.295308 11.3254 8.91325
44 4 -0.297231 11.841 15.7385
73 1 -0.494907 10.4562 14.5534
150 2 -1.49496 9.98447 14.8837
151 2 0.408097 9.68581 14.6689
176 3 -4.41281 11.2794 15.8286
177 3 -3.82451 11.0894 10.2103
178 3 -2.08528 9.84785 11.8015
179 3 -2.68658 12.6792 12.119
204 3 -1.4859 11.6629 9.97959
211 3 -1.88309 12.2599 16.3461
72 1 -2.81276 7.53542 13.9646
81 2 -2.36609 7.33532 14.9525
147 2 -0.972409 8.06747 14.196
102 2 -0.625461 9.51758 11.9467
152 2 -0.446277 10.8411 13.4191
207 3 1.72334 8.49104 14.7469
148 2 -3.38831 8.53413 13.8812
197 3 0.515151 7.16277 16.8646
43 4 2.60157 8.93571 13.4642
37 4 1.63044 7.06033 15.6615
209 3 0.68261 11.4448 17.0159
212 3 1.16849 10.8889 9.75775
11 4 -3.6639 13.2058 13.2891
38 4 4.05775 6.38663 12.497
250 2 -3.77484 9.32563 8.52157
172 3 -2.56096 9.76712 17.2098
229 3 8.05228 5.93793 5.4722
192 3 6.43947 3.10035 6.50102
271 2 6.47653 3.46761 1.4587
331 2 12.3371 0.302892 3.24432
95 2 7.32503 4.96892 3.24948
51 4 7.1655 6.30336 4.20759
130 2 7.67234 4.83135 8.21321
342 2 11.9391 5.41833 8.37656
215 3 8.05043 2.06359 4.49425
269 2 7.07302 1.59874 2.28248
219 3 13.319 2.40514 4.72262
46 4 9.47882 2.35943 3.86696
49 4 11.9754 1.94411 5.41006
50 4 10.7756 4.96575 2.8416
53 4 10.5782 3.65652 7.59986
91 2 9.35535 1.6483 2.29136
94 2 12.2461 4.21765 2.55941
220 3 10.6729 1.48142 4.32919
221 3 12.3204 0.581374 6.3061
222 3 9.96322 3.81055 3.49653
223 3 11.2158 6.24001 3.63609
225 3 9.9216 5.16872 1.54491
227 3 11.4402 3.23859 6.34619
230 3 9.48708 4.87257 7.5176
217 3 8.47574 0.691351 7.57544
294 4 13.3817 1.02458 1.33896
297 3 12.2911 2.00771 0.664039
52 4 9.22537 5.74583 0.189246
54 4 9.12686 6.06061 6.54873
232 3 8.45957 7.10955 0.563766
288 2 8.12799 0.701131 1.4062
224 3 5.58085 6.64964 4.49682
296 3 14.2938 1.60387 2.39398
29 4 6.61909 1.96325 5.3273
347 2 9.98435 0.368992 0.838094
97 2 12.9829 3.74559 8.1982
310 2 11.7205 6.06973 -0.185012
162 3 14.9382 -0.0573822 10.6895
128 2 6.49691 3.15004 12.661
30 4 7.81777 -0.604346 13.0533
131 2 6.55457 4.33271 9.71016
321 2 13.9421 2.14787 9.33917
12 4 13.8141 1.45695 14.8636
65 1 6.41539 3.40491 11.5126
137 2 5.96572 6.50941 10.5073
226 3 10.1615 2.45197 8.7651
249 2 6.72609 4.99898 13.7323
127 2 7.35413 3.96001 11.2704
240 1 7.60877 5.21667 14.4898
245 2 7.63358 4.41595 15.3176
93 2 11.0613 -0.084321 9.51861
218 3 8.03547 1.56848 10.1449
107 2 9.77514 -0.149302 10.9421
323 1 13.8202 -0.149933 13.7616
256 2 10.1703 5.95682 10.2977
340 2 11.6871 3.25376 17.2117
303 2 7.85795 0.678999 15.232
247 2 8.69616 5.18309 13.88
96 2 10.4919 5.93943 16.2376
129 2 6.21829 5.922 8.64874
298 4 11.5856 1.55327 16.886
312 3 9.89816 1.11879 16.8557
335 2 14.8875 -0.485648 13.9498
320 2 12.9864 2.48989 11.1539
336 2 10.7758 4.00023 15.7764
313 3 7.90962 3.21623 16.9064
109 2 11.9514 4.0925 9.91174
319 1 12.4073 1.66287 10.5563
348 2 9.39992 0.877144 12.2812
10 4 13.7603 0.499528 9.76561
48 4 9.06074 1.25687 8.95499
58 1 9.94704 -0.270943 9.76644
299 4 8.93636 1.90671 15.8142
300 4 10.4329 3.23841 13.1472
301 1 10.501 5.15635 13.045
302 1 10.7553 4.8524 16.6063
304 2 9.22649 4.21709 12.1203
305 2 11.9487 4.2625 13.5126
306 2 11.1792 2.12156 12.0149
307 2 10.7197 5.78545 12.0507
309 2 10.0992 5.74319 13.9013
311 3 12.333 1.29595 15.508
314 3 9.70059 2.64606 14.4266
322 2 12.0624 0.762624 11.3081
349 2 9.97196 0.318506 14.001
328 1 9.64475 -0.0257648 12.9571
108 2 11.4975 2.04565 9.86537
343 2 13.6449 0.156157 12.7015
59 1 12.1163 4.29636 8.68616
66 1 6.63945 4.85407 8.65361
32 4 6.66568 1.6054 10.8989
135 2 6.37611 6.09693 12.3299
267 4 6.51121 1.54913 17.1668
124 2 5.39615 3.8346 14.7758
157 2 10.24 8.54763 2.43207
156 2 8.53615 11.1959 6.10482
281 2 4.28149 13.8513 1.89443
251 2 9.48625 9.1793 8.34549
47 4 5.5244 13.2816 7.31573
155 2 9.57793 10.9577 2.4157
92 2 3.97158 13.153 8.02114
201 3 4.29461 7.58625 6.61222
206 3 1.73556 12.489 5.8724
274 4 3.38418 9.85571 1.65263
276 4 5.47214 11.6829 3.03158
277 4 6.82734 11.0762 5.72821
282 2 4.47655 12.9762 3.72814
98 2 8.31329 7.03802 7.72579
289 3 3.88905 8.71842 0.620204
5 2 8.79921 11.8732 3.63774
291 3 4.49855 10.5617 2.52884
292 3 6.61198 11.2528 4.17412
293 3 5.954 11.9058 6.70814
330 1 5.38155 13.8091 2.18959
333 2 6.37712 12.4044 1.57779
332 2 7.52142 14.0464 0.166398
275 4 2.05867 12.2561 0.17884
153 2 7.65522 9.85968 1.62942
326 2 9.15926 12.0995 0.522922
75 1 7.71138 9.48553 6.39896
158 2 6.66278 8.93806 6.40426
283 2 8.11265 9.4654 7.40343
114 2 10.1473 9.83314 3.71788
55 4 8.45852 8.06896 1.92713
154 2 9.58436 10.0588 0.719288
113 2 9.90916 9.23759 5.43075
74 1 9.34147 9.96179 1.78931
231 3 7.87459 7.44968 3.26609
284 2 8.45417 9.00271 5.63763
346 2 2.66306 13.3575 2.29695
279 1 2.33519 13.8709 1.35617
15 4 11.5414 6.96829 4.93832
89 2 2.80916 10.4895 4.31601
228 3 10.34 6.89078 5.94991
262 3 5.5416 6.54363 16.1926
237 4 9.6906 8.00077 10.9905
324 2 6.24763 13.0775 14.2142
329 2 3.69538 13.1686 12.4684
68 1 5.74188 6.76739 11.5966
273 4 4.25547 6.3818 17.0032
236 4 6.90227 6.82492 15.1685
265 3 8.52889 10.0275 14.4286
235 4 9.24562 11.0709 15.6802
136 2 5.72021 7.94025 11.8585
325 1 8.31363 11.1931 17.1846
145 2 3.93895 9.492 9.63994
144 2 5.0743 7.9729 10.1279
106 2 2.68719 12.7336 9.34079
71 1 4.66128 8.66401 9.24098
350 2 6.17131 11.5017 14.3923
341 2 4.68411 11.1367 12.3609
56 4 3.84595 11.2668 15.1205
76 1 5.68874 11.1909 15.3666
90 2 3.30505 11.1247 11.3751
101 2 6.11347 11.7726 16.2786
159 2 3.3741 12.8968 14.5411
160 2 5.79824 10.0075 15.5073
233 3 3.50961 10.1502 14.0046
234 3 3.2532 11.1252 16.559
239 4 7.13943 11.1573 11.3192
244 1 5.11587 11.9767 11.7076
260 2 5.8427 11.4093 10.0627
261 2 4.39392 12.5644 10.9831
263 3 6.98815 7.947 14.0857
246 2 5.70062 12.7677 12.4356
266 3 7.16419 9.84651 12.0847
254 2 7.21015 7.32599 10.3927
344 2 7.56592 12.5202 12.3444
238 4 7.99528 9.0103 13.3449
248 2 8.48191 6.48744 15.7118
242 1 8.04542 7.60905 9.62551
243 1 11.178 6.74517 10.3384
259 2 8.77226 9.27734 10.0254
264 3 9.12548 7.9428 12.5132
327 2 8.32243 12.6418 15.9464
338 2 8.63437 11.1167 10.2217
345 2 7.47235 10.3687 17.0248
253 2 8.75657 6.6886 9.44991
255 2 7.49523 7.92637 8.70609
216 3 6.34454 13.6055 8.6079
257 2 11.5813 7.11706 9.3038
146 2 5.55844 9.06582 8.55404
ITEM: TIMESTEP
100
ITEM: NUMBER OF ATOMS
350
ITEM: BOX BOUNDS xy xz yz pp pp pp
-6.7897609760442350e+00 1.5227853216183359e+01 -6.7825930327610404e+00
-9.2236853537990759e-01 1.4228599782302123e+01 -9.8983575139648394e-03
-2.1607667323829638e-01 1.7224576673238090e+01 -1.1965687530777740e+00
ITEM: ATOMS id type x y z
7 4 -0.928951 2.85574 3.4937
14 4 0.0113801 5.16482 1.83714
164 3 -1.43712 4.15892 2.69177
166 3 -0.664442 6.26116 0.853276
79 2 -1.68337 4.92913 7.44715
17 4 -1.0535 6.13676 6.36701
78 2 0.0621876 1.88145 5.66607
167 3 -2.31063 6.65384 5.42904
77 2 0.588735 3.08963 4.151
190 3 0.30615 5.42908 5.40322
57 1 0.966396 2.5629 6.03935
105 2 0.765387 3.61726 5.80939
165 3 0.815361 4.03128 0.997088
189 3 0.838267 5.83998 2.96935
26 4 3.97445 2.14072 3.34331
315 1 1.36365 1.33775 0.480917
33 4 1.173 6.30416 4.47242
34 4 5.51289 3.95812 7.27362
62 1 3.10558 3.77819 3.04149
82 2 3.70781 4.76342 2.96618
117 2 2.2833 3.7432 2.30126
118 2 2.68216 3.69296 4.32048
119 2 4.33986 2.93233 1.80122
182 3 5.41924 2.06877 4.18687
183 3 6.34326 0.220116 6.04976
194 3 2.75363 6.35011 4.84244
195 3 4.94098 5.17949 6.43318
268 1 6.49604 1.80468 1.24825
272 2 5.54034 1.26819 1.13534
180 3 3.09014 0.859387 3.07464
143 2 1.24471 0.738277 6.71928
280 2 4.39991 6.24586 0.520511
318 2 1.06034 1.76452 1.55537
104 2 1.00793 2.48874 7.18343
181 3 3.23684 0.777355 8.40125
103 2 1.98551 2.22189 5.65194
191 3 4.50398 3.10796 8.16413
9 4 2.4693 -0.222463 7.47827
316 2 2.50524 1.19342 0.346306
29 4 6.61176 1.92203 5.2831
18 4 -0.196314 3.18216 12.703
19 4 -0.520809 5.46904 10.8155
161 3 -0.15579 1.45401 15.938
170 3 -0.655295 4.06426 11.5188
110 2 -1.64202 5.40893 9.5761
133 2 -0.447015 6.12574 14.4397
168 3 -1.3639 2.76101 13.8191
67 1 0.615761 5.74681 14.5279
132 2 1.14136 5.76368 13.549
169 3 0.625576 1.91126 12.288
134 2 0.751279 4.81039 15.1319
193 3 0.863221 5.58245 10.075
85 2 1.01195 4.06577 13.5723
84 2 2.56628 3.90078 9.24375
8 4 1.07111 1.6932 16.9328
13 4 0.958422 0.525087 11.6232
28 4 4.17078 1.80809 9.15834
31 4 3.88435 1.72315 15.1967
35 4 2.3652 5.44056 9.94773
63 1 3.16703 2.59225 10.6446
64 1 4.33791 3.42132 14.4799
83 2 2.19979 0.891803 10.4888
120 2 1.99158 2.71657 10.6536
121 2 3.54894 3.67685 10.8576
122 2 3.52501 1.89941 11.4694
123 2 4.41782 3.12905 13.3725
124 2 5.24633 3.76653 14.9813
125 2 3.33885 3.95603 14.7243
184 3 3.7208 0.606362 13.8991
185 3 5.20669 1.58676 16.2111
186 3 2.46127 1.95355 16.1155
187 3 5.36169 1.24546 9.947
198 3 3.231 5.51634 11.3108
163 3 1.70881 -0.493828 12.633
86 2 4.25503 5.32137 13.8244
196 3 3.07675 6.1001 15.9459
38 4 4.13848 6.33906 12.3814
200 3 3.06529 6.51034 8.88482
60 1 -4.63291 9.61705 4.91808
141 2 -3.65008 13.2781 5.26416
142 2 -2.06221 13.5219 6.23235
295 2 -6.22062 13.4992 2.28222
3 2 -3.07002 11.7884 6.55983
70 1 -3.10191 12.9626 6.28179
1 4 -4.25717 13.4598 2.37344
6 3 -3.71841 12.991 0.863785
16 4 -0.221128 7.91817 0.85394
20 4 -2.43813 10.028 1.01175
22 4 -0.389318 8.94754 7.1309
39 4 -1.16815 11.6418 3.47446
138 2 -0.805492 12.8559 1.4064
115 2 -2.42685 12.2875 4.57484
285 2 2.45722 7.90527 2.42764
171 3 -1.60181 8.6646 0.85398
173 3 -0.564612 7.28179 7.4521
199 3 -1.80076 10.7366 2.3587
202 3 -0.589011 10.1288 8.13423
80 2 -0.677079 9.43343 5.43104
69 1 -0.524097 13.0571 2.4327
111 2 -4.1061 9.62065 1.34569
2 1 -5.56027 12.6887 3.6766
205 3 0.152455 11.1552 4.25405
334 2 -4.0922 11.9729 3.47783
203 3 -0.0819097 12.5751 8.07538
4 2 -5.41531 13.5164 4.46478
112 2 -3.63726 8.84039 4.65056
139 2 0.630215 13.1783 2.69543
337 2 -4.29607 10.5462 5.38514
174 3 -4.98975 12.4936 8.22782
286 2 1.45243 9.18352 3.65379
252 2 -4.69554 9.74897 6.93533
99 2 0.743511 8.4032 2.16181
87 2 0.662125 7.94226 4.57089
241 1 -4.72268 9.67977 8.20598
61 1 1.05566 9.14662 6.12751
116 2 1.94771 8.54726 5.76017
40 4 3.49488 7.81458 8.13462
42 4 1.51251 11.0241 5.23503
88 2 2.05339 8.78893 7.73983
100 2 1.70287 10.4678 7.08505
278 1 2.45822 8.89184 3.10958
290 3 2.21157 10.9844 1.13679
27 4 0.635069 13.52 7.01724
140 2 -1.17874 13.8747 2.90667
317 2 -6.01425 14.175 0.223857
214 3 1.04741 11.8217 12.2899
172 3 -2.36858 9.72377 17.1801
149 2 -3.55004 6.84874 13.5578
213 3 1.61696 9.40328 12.2896
11 4 -3.70172 13.1983 13.2688
45 4 1.78077 10.814 11.3841
208 3 3.52455 7.71136 12.8821
175 3 -1.09833 6.72648 11.6922
21 4 -3.02922 11.2359 16.9347
258 2 -3.94536 8.63968 10.8732
339 2 -3.92539 12.1048 14.6139
23 4 -5.04287 11.1807 9.17795
24 4 -1.50173 8.11002 12.5717
25 4 -2.51764 11.3274 11.2355
41 4 -0.20935 11.3949 9.10373
44 4 -0.384295 11.9262 15.7655
73 1 -0.57169 10.3442 14.6744
150 2 -1.54474 9.94811 15.0301
151 2 0.35023 9.57138 14.8095
176 3 -4.49795 11.1874 15.7767
177 3 -4.03206 11.1295 10.4164
178 3 -2.20276 9.90073 11.9498
179 3 -2.69773 12.4659 12.3276
204 3 -1.30647 11.7276 10.2742
211 3 -1.91321 12.293 16.3168
72 1 -2.98536 7.79078 13.8102
81 2 -2.76201 7.90754 14.9311
147 2 -1.12746 7.8991 14.2956
102 2 -0.66653 9.5722 12.0726
152 2 -0.695034 10.9232 13.6974
207 3 1.70039 8.32629 14.8707
148 2 -3.57045 8.72889 13.4082
197 3 0.641506 6.96845 16.9987
43 4 2.58864 8.93265 13.4925
37 4 1.57188 6.97603 15.7501
209 3 0.585006 11.4509 16.9275
212 3 1.1974 10.9623 9.74126
250 2 -3.83016 9.19087 8.71935
210 3 0.493592 13.1992 14.6021
308 2 -3.16281 6.52996 11.0962
229 3 7.99097 6.13412 5.37676
192 3 6.53934 3.05403 6.40575
271 2 6.23647 3.47479 1.44005
331 2 12.5439 0.238226 3.49766
95 2 6.88775 4.78153 3.43862
51 4 7.05955 6.2606 4.1627
130 2 7.65404 4.69252 8.15449
342 2 12.0376 5.59592 8.36508
215 3 8.02121 2.11555 4.39799
269 2 7.00869 1.4977 2.21107
219 3 13.1912 2.51108 4.57913
46 4 9.43929 2.34524 3.7085
49 4 11.902 1.87429 5.4762
50 4 10.7038 4.89314 2.93273
53 4 10.6413 3.67309 7.6431
91 2 9.22853 1.85058 2.09244
94 2 12.1882 4.07875 2.52453
220 3 10.6615 1.45502 4.23129
221 3 12.1685 0.628957 6.38127
222 3 9.80939 3.89965 3.6928
223 3 11.0818 6.29912 3.52529
225 3 10.0701 5.12321 1.35884
227 3 11.2929 3.11846 6.31914
230 3 9.5026 4.85368 7.2796
217 3 8.38253 0.584984 7.70076
294 4 13.2893 0.956299 1.45969
297 3 12.2938 1.9491 0.698447
52 4 9.26454 5.81629 0.168017
54 4 9.15219 6.15539 6.53021
270 2 7.4694 1.24991 -0.0673935
288 2 8.12444 0.684426 1.40245
224 3 5.48944 6.79825 4.42577
296 3 14.4015 1.58758 2.38639
36 4 4.45717 6.48727 5.61513
347 2 10.0026 0.549807 0.793316
97 2 13.085 3.94063 8.28885
226 3 10.2637 2.36284 8.48279
162 3 14.9133 -0.0943213 10.8771
128 2 6.64033 3.24702 12.7021
310 2 11.5495 5.264 16.9926
131 2 6.63832 4.25009 9.74708
93 2 11.261 -0.274742 9.43295
12 4 13.7807 1.44693 14.8214
65 1 6.67107 3.3693 11.5861
267 4 6.53202 1.73804 17.0952
216 3 13.1769 -0.334803 8.66793
249 2 6.68756 5.00993 13.9332
127 2 7.56371 3.90292 11.0842
240 1 7.65079 5.25265 14.6214
245 2 7.71129 4.49741 15.4193
137 2 6.00717 6.36398 10.5962
218 3 8.12831 1.85017 10.0072
107 2 9.91122 -0.280291 10.8261
323 1 13.7252 -0.236141 13.7925
256 2 10.3804 5.92077 10.4119
135 2 6.42141 6.09633 12.5275
303 2 7.91498 0.697524 15.0703
247 2 8.71834 5.25918 13.9973
96 2 10.1617 5.77606 15.7887
129 2 6.30605 5.8246 8.65741
298 4 11.6059 1.72047 16.8719
312 3 10.0963 1.31322 16.5829
126 2 5.6987 3.84309 11.2739
320 2 12.633 2.64146 11.2308
336 2 10.9223 4.13796 15.6469
313 3 8.01587 3.21561 16.8635
109 2 11.9607 4.24665 9.70063
319 1 12.335 1.74671 10.6156
348 2 9.4495 0.696692 12.0726
10 4 13.7001 0.456253 9.91398
48 4 9.11504 1.25478 8.89617
58 1 10.1236 -0.313029 9.66538
299 4 8.95649 1.93512 15.6308
300 4 10.3618 3.32197 13.2372
301 1 10.5209 5.23627 13.1437
302 1 10.6375 4.87876 16.4004
304 2 9.12702 4.25581 12.2931
305 2 11.8492 4.55839 13.8292
306 2 11.1711 2.23141 12.1752
307 2 10.7688 5.78462 12.1506
309 2 10.0428 5.99884 13.8581
311 3 12.4392 1.4417 15.5807
314 3 9.55505 2.65818 14.3915
322 2 11.9954 0.699698 11.3349
349 2 10.0203 0.342627 13.8014
328 1 9.66863 -0.204185 12.8208
108 2 11.5739 2.03863 9.86268
343 2 13.671 0.0921051 12.7377
59 1 12.1289 4.43052 8.6632
66 1 6.64424 4.77809 8.6804
32 4 6.83702 1.57069 10.9107
324 2 12.7827 -0.694337 14.186
188 3 7.16755 0.584993 12.1721
321 2 13.8384 2.18179 9.50917
340 2 11.7594 3.42669 17.109
157 2 10.1186 8.56274 2.63539
156 2 8.53715 10.9749 6.33969
281 2 4.30544 13.7953 2.0074
325 1 8.4061 12.3299 -0.167882
47 4 5.50829 13.3355 7.30834
155 2 9.4814 10.9649 2.57847
92 2 3.91516 12.9909 7.87347
201 3 4.38471 7.66543 6.77023
206 3 1.73243 12.3378 6.02788
274 4 3.33612 9.86368 1.56139
276 4 5.65894 11.5291 2.93903
277 4 6.91309 11.0717 5.74735
282 2 4.62799 12.7415 3.77294
98 2 8.45236 7.06422 7.77945
289 3 3.75738 8.69231 0.56236
5 2 8.9675 11.9181 4.04272
291 3 4.6202 10.6285 2.18272
292 3 6.72643 11.2089 4.151
293 3 5.97142 11.9757 6.63793
330 1 5.47624 13.7345 2.36918
333 2 6.51372 12.3794 1.58355
332 2 7.22088 13.6717 0.355701
275 4 2.15572 12.363 0.302473
153 2 7.68503 9.89768 1.66989
232 3 8.65385 7.2889 0.547691
75 1 7.49516 9.3388 6.43691
158 2 6.51199 8.83773 5.88775
283 2 7.5304 9.07753 7.54277
114 2 10.0742 9.83121 3.86791
55 4 8.46432 8.06136 1.93623
154 2 9.58054 10.2325 0.861544
113 2 9.8013 9.02094 5.59939
74 1 9.28605 10.0255 1.95243
231 3 7.64152 7.34713 3.09501
284 2 8.40042 8.95296 5.87232
346 2 2.65898 13.4455 2.35308
279 1 2.40481 13.9908 1.35519
15 4 11.4988 7.01704 4.90354
89 2 2.87898 10.3869 4.29935
228 3 10.4882 6.83305 6.1746
251 2 9.52313 9.14869 8.45228
287 2 3.36778 8.83579 3.77915
326 2 9.24106 12.2464 0.531416
262 3 5.56147 6.70881 16.2337
237 4 9.68975 7.94891 11.1423
30 4 0.99915 13.2821 12.9855
329 2 3.65526 12.9778 12.4195
68 1 5.80842 6.74351 11.6455
273 4 4.23249 6.40783 16.9802
236 4 6.75414 6.88605 15.1664
265 3 8.42542 10.0319 14.5274
235 4 9.07047 11.039 15.5799
136 2 5.91362 7.90391 11.7357
146 2 5.46541 9.10113 8.62453
145 2 3.8827 9.48065 9.6265
144 2 5.10855 7.90949 10.1665
106 2 2.76282 12.7552 9.20301
71 1 4.66791 8.64515 9.30241
350 2 6.27992 11.2377 14.3356
341 2 4.83943 11.0724 12.2014
56 4 3.97037 11.2562 15.0192
76 1 5.77431 10.8483 15.2545
90 2 3.47642 11.2234 11.3226
101 2 6.36256 11.0746 16.1911
159 2 3.75034 12.86 14.3865
160 2 5.66458 9.68876 15.1549
233 3 3.45562 10.2683 13.9416
234 3 3.23969 11.2776 16.545
239 4 7.19095 11.0784 11.3514
244 1 5.275 11.9591 11.6203
260 2 5.97857 11.0316 10.0675
261 2 4.53525 12.5737 10.9165
263 3 6.78458 8.0421 14.161
246 2 5.86659 12.734 12.3251
266 3 7.1843 9.74571 12.149
254 2 7.17712 7.40813 10.3184
344 2 7.55248 12.4092 12.4998
238 4 7.86237 9.02175 13.3918
248 2 8.37849 6.66767 15.7763
242 1 8.01849 7.77494 9.61074
243 1 11.1645 6.77191 10.4303
259 2 8.7715 9.24439 10.1689
264 3 9.20101 8.04693 12.6723
327 2 8.11981 12.5167 16.0663
338 2 8.64646 11.1585 10.1556
335 2 7.90174 13.0749 14.058
253 2 8.80288 6.83495 9.4241
255 2 7.53929 8.09915 8.64584
257 2 11.4524 7.02772 9.37815
345 2 7.76829 10.0659 17.1927
ITEM: TIMESTEP
200
ITEM: NUMBER OF ATOMS
350
ITEM: BOX BOUNDS xy xz yz pp pp pp
-6.7863630313767631e+00 1.5220236846597590e+01 -6.7792000397481536e+00
-9.2236853537990759e-01 1.4228599782302123e+01 -9.8934058593798113e-03
-2.1607667323829638e-01 1.7224576673238090e+01 -1.1965687530777740e+00
ITEM: ATOMS id type x y z
7 4 -1.00092 2.76406 3.51725
14 4 0.16485 5.1329 2.02403
164 3 -1.34217 4.31601 2.81117
166 3 -0.514081 6.25736 1.06537
79 2 -1.85361 4.72927 7.20377
17 4 -1.07963 5.97358 6.31232
78 2 -0.0102202 1.92127 5.77648
167 3 -2.17746 6.62681 5.26008
77 2 0.531001 2.82949 4.30076
190 3 0.377189 5.46771 5.61015
57 1 0.850675 2.52117 6.2544
105 2 0.773569 3.67109 5.93467
165 3 0.959975 3.99761 1.06948
189 3 1.1487 5.80562 3.07965
26 4 3.94759 2.13947 3.27556
315 1 1.6011 1.08462 0.25157
33 4 1.32455 6.34982 4.6451
316 2 2.72011 1.02882 -0.121368
62 1 3.05124 3.79447 3.03574
82 2 3.60642 4.72571 3.14262
117 2 2.22523 3.81813 2.19287
118 2 2.55614 3.45729 4.28401
119 2 4.23838 3.02908 1.73875
182 3 5.25925 2.01023 4.16429
183 3 6.48846 0.253096 5.78984
194 3 2.85541 6.21041 5.13662
195 3 4.86352 5.04153 6.38824
268 1 6.44486 1.78877 1.13171
272 2 5.47111 1.2376 1.29565
180 3 3.23268 0.798433 2.89285
143 2 1.06116 0.631772 6.78868
280 2 4.20037 6.1485 0.385008
318 2 1.54351 1.45833 1.40447
104 2 0.76151 2.49254 7.40969
181 3 3.40068 0.794779 8.3404
103 2 1.80857 2.07669 6.01615
191 3 4.6693 3.09973 8.23194
9 4 2.44045 -0.250342 7.55645
36 4 4.32624 6.42132 5.66263
29 4 6.64615 1.74322 5.23155
18 4 -0.248367 3.30175 12.5574
19 4 -0.594594 5.62188 10.749
161 3 -0.113864 1.33505 15.9966
170 3 -0.847896 4.27175 11.5049
110 2 -1.65704 5.5528 9.41816
133 2 -0.671914 6.03294 14.6926
168 3 -1.31075 2.85911 13.7081
67 1 0.379316 5.65602 14.5359
132 2 0.890152 5.88727 13.522
169 3 0.512705 1.99825 12.0802
134 2 0.530387 4.58086 15.0107
193 3 0.823906 5.64638 10.1686
85 2 0.986591 4.19381 13.3878
84 2 2.77701 4.01898 9.38925
8 4 1.18476 1.53793 16.9937
13 4 0.954967 0.543367 11.6054
28 4 4.42153 1.78253 9.15149
31 4 3.94925 1.79976 15.1369
35 4 2.36594 5.5978 9.92562
63 1 3.27586 2.50516 10.5811
64 1 3.99181 3.37753 14.0525
83 2 2.11089 0.868906 10.413
120 2 2.1203 2.47182 10.5121
121 2 3.73483 3.53755 10.7311
122 2 3.72909 1.72627 11.4197
123 2 3.85217 2.93602 13.0108
124 2 4.91792 3.89815 14.1626
125 2 3.05942 3.88549 14.5472
184 3 3.7416 0.693722 13.9797
185 3 5.2284 1.84305 16.1748
186 3 2.42794 1.85998 16.0633
187 3 5.7412 1.36742 9.84535
198 3 3.1111 5.72757 11.3637
163 3 1.72612 -0.407843 12.7486
86 2 3.93197 5.34023 13.8752
11 4 3.11011 -0.653769 13.4091
38 4 3.99084 6.35302 12.4507
126 2 5.45673 3.78033 11.1504
210 3 7.31289 -0.674207 14.6367
60 1 -4.78514 9.78091 4.87194
141 2 -4.06972 13.3945 5.31987
142 2 -2.11722 13.566 5.99899
295 2 -6.20589 13.6063 2.21009
3 2 -3.22832 11.9893 6.37803
70 1 -3.19987 13.1385 6.13578
1 4 -4.27613 13.3628 2.46176
6 3 -3.75408 12.8564 0.978047
16 4 -0.25744 7.81091 0.858069
20 4 -2.5144 9.93765 1.03638
22 4 -0.423757 8.81282 7.11412
39 4 -1.24173 11.6994 3.39891
138 2 -0.318154 12.8574 1.42828
115 2 -2.50107 12.2171 4.50728
285 2 2.25218 7.95898 2.30654
171 3 -1.62161 8.64605 0.793596
173 3 -0.800225 7.118 7.37536
199 3 -2.03008 10.7306 2.42831
202 3 -0.810283 9.94949 8.32798
80 2 -0.719158 9.4993 5.58288
69 1 -0.499884 13.202 2.49342
111 2 -4.10294 9.31262 1.28096
2 1 -5.85809 12.627 3.47187
205 3 0.0284831 11.1628 4.22314
334 2 -4.38217 11.8752 3.59195
203 3 0.0227335 12.5762 8.14744
4 2 -5.89353 13.3152 4.43836
112 2 -3.89398 8.97451 4.83175
139 2 0.45759 13.6737 2.96641
337 2 -4.39659 10.8051 5.15185
174 3 -5.04531 12.5349 8.37261
286 2 1.47763 9.51432 3.01752
252 2 -4.68024 9.92615 6.96888
99 2 0.586191 8.3897 2.15532
87 2 0.868696 8.02983 4.70496
241 1 -4.70059 9.85199 8.13128
61 1 1.13535 9.27908 6.23334
116 2 1.93218 8.56904 5.92218
40 4 3.56437 7.99916 8.18348
42 4 1.40475 11.043 5.15049
88 2 2.16129 9.01982 7.8609
100 2 1.59877 10.5152 7.15058
278 1 2.38402 8.90457 2.91219
317 2 -5.9376 14.0795 0.0461235
27 4 0.845359 13.4368 6.91909
140 2 -1.47348 13.8644 2.70363
287 2 3.03414 8.67242 3.84941
214 3 1.27336 12.0586 12.3407
172 3 -2.56611 9.56249 17.1368
149 2 -3.56764 6.87411 13.6819
213 3 1.55129 9.3744 11.9999
208 3 3.50339 7.78118 12.8621
45 4 1.78121 10.8276 11.4057
257 2 -3.32433 7.23958 9.81936
175 3 -1.03922 6.76717 11.8126
21 4 -3.10313 11.1292 16.9941
258 2 -3.96712 8.82895 10.8243
339 2 -3.92019 12.3874 14.8168
23 4 -4.97493 11.2481 9.28851
24 4 -1.4356 8.08169 12.6445
25 4 -2.42335 11.2814 11.2822
41 4 -0.199627 11.285 9.16124
44 4 -0.420429 11.9411 15.7209
73 1 -0.553214 10.4798 14.5668
150 2 -1.61259 10.0839 14.8499
151 2 0.19217 9.56745 14.6144
176 3 -4.48344 11.142 15.7405
177 3 -3.68828 11.2422 10.3218
178 3 -1.95438 9.84855 11.9334
179 3 -2.71257 12.3676 12.5918
204 3 -1.26099 11.6956 10.26
211 3 -1.91652 12.0977 16.3667
72 1 -2.95068 7.82665 13.9807
81 2 -2.78612 7.9549 15.0797
147 2 -1.12369 7.87527 14.4175
102 2 -0.381246 9.46139 12.2358
152 2 -0.474366 11.1702 13.5592
207 3 1.44493 8.22336 14.7314
148 2 -3.47912 8.73241 13.5531
197 3 0.691246 6.87536 17.0045
43 4 2.4742 8.86841 13.4267
37 4 1.4924 6.86477 15.626
209 3 0.667871 11.6036 16.7831
212 3 1.23518 10.8947 9.72744
308 2 -3.32812 6.5407 11.4859
200 3 3.03924 6.69616 8.91358
196 3 3.02605 6.16967 15.7846
250 2 -3.67225 9.39823 8.52456
229 3 7.91343 6.22094 5.47658
192 3 6.70233 2.91269 6.3962
269 2 7.07563 1.65347 2.00641
331 2 12.4676 0.0983433 3.27741
95 2 7.0231 4.85094 3.56428
51 4 6.9897 6.39061 4.25519
130 2 7.76537 4.62143 8.24789
342 2 12.063 5.61147 8.23217
215 3 8.02597 1.89561 4.29079
340 2 11.9123 4.56971 -0.0964691
219 3 13.2102 2.26444 4.59656
46 4 9.34038 2.39398 3.63485
49 4 11.8896 1.87328 5.3618
50 4 10.6119 5.03647 2.90716
53 4 10.5941 3.59588 7.59736
91 2 9.16447 1.75491 2.03835
94 2 12.2027 4.42827 3.04317
220 3 10.6072 1.65076 4.33476
221 3 12.1415 0.484167 6.24755
222 3 9.62876 3.96017 3.53923
223 3 10.8738 6.3976 3.64992
225 3 10.3051 5.23167 1.38328
227 3 11.4591 3.26219 6.25756
230 3 9.38283 4.63772 7.34933
217 3 8.56154 0.637516 7.53615
294 4 13.204 1.00323 1.26575
297 3 12.1829 2.05736 0.75203
52 4 9.44185 5.78267 0.149106
54 4 9.06114 6.14616 6.55914
228 3 10.5559 6.79459 6.28125
288 2 8.13437 0.696604 1.24342
224 3 5.43647 6.90796 4.55014
296 3 14.334 1.56285 2.33967
34 4 5.6401 3.90096 7.31438
347 2 10.1711 0.483243 0.777368
232 3 8.74461 7.15991 0.507395
271 2 6.02906 3.58022 1.36849
270 2 7.24751 1.23158 -0.0799996
162 3 14.9249 -0.0257998 10.8259
128 2 6.38808 3.19579 12.7579
310 2 12.0563 4.91709 16.8693
131 2 6.62708 4.2242 9.74499
93 2 11.1141 -0.310287 9.60716
12 4 13.8124 1.50679 14.8606
65 1 6.39745 3.40559 11.6202
267 4 6.46319 1.78894 17.1093
216 3 13.1383 -0.139464 8.57004
249 2 6.68121 4.92623 13.7974
127 2 7.33764 4.01175 11.4637
240 1 7.5646 5.11883 14.589
245 2 7.57703 4.33668 15.4797
137 2 5.57439 6.10526 10.5363
218 3 8.30434 1.82723 10.0515
107 2 9.79725 -0.169014 10.956
323 1 13.7536 -0.0827049 13.7599
256 2 10.4311 6.12429 10.234
135 2 6.37727 5.96859 12.2115
303 2 7.95403 0.665757 15.2834
247 2 8.64527 5.17293 14.0765
96 2 10.6084 5.97273 16.1884
129 2 6.30103 5.73853 8.64762
298 4 11.5946 1.64743 16.997
312 3 9.97295 1.34965 16.7276
30 4 7.82586 -0.513405 13.0968
320 2 12.6074 2.64809 11.4586
336 2 10.8512 4.10429 15.5686
313 3 8.02667 3.28893 16.8703
109 2 11.4581 4.66199 9.76759
319 1 12.3813 1.75058 10.775
348 2 9.38751 1.01974 12.3685
10 4 13.6806 0.559002 9.89138
48 4 9.1801 1.18359 8.87207
58 1 9.97688 -0.33974 9.81628
299 4 8.91707 1.99277 15.7062
300 4 10.149 3.33576 13.1365
301 1 10.5156 5.21786 13.3215
302 1 10.9606 4.83738 16.4852
304 2 9.12325 4.65297 12.2907
305 2 11.7754 4.23881 13.7595
306 2 10.8328 2.30086 11.8995
307 2 10.7784 5.81161 12.3906
309 2 10.1666 5.84837 14.2036
311 3 12.4633 1.44833 15.6839
314 3 9.44365 2.6695 14.3875
322 2 12.044 0.732297 11.4102
349 2 10.146 0.429808 13.9833
328 1 9.67666 0.0597597 13.0511
108 2 11.5483 1.99552 9.92647
343 2 13.4326 0.299957 12.7472
59 1 11.9311 4.61434 8.66465
66 1 6.7155 4.70629 8.68626
32 4 6.93029 1.68723 10.8632
335 2 14.8372 -0.428289 13.7931
188 3 7.07986 0.554208 12.1336
321 2 13.9156 2.25415 9.63116
97 2 12.887 4.01644 8.72507
226 3 10.3631 2.38558 8.60451
157 2 10.0499 8.56847 2.61257
156 2 8.56686 10.8557 6.32619
281 2 4.36105 13.655 1.85842
326 2 8.98824 12.3485 0.461571
47 4 5.48426 13.3245 7.3947
155 2 9.35547 10.8544 2.43061