ITEM: TIMESTEP
0
ITEM: NUMBER OF ATOMS
350
ITEM: BOX BOUNDS xy xz yz pp pp pp
-6.7931589207117060e+00 1.5235469585769128e+01 -6.7859860257739273e+00
-9.2236853537990759e-01 1.4228599782302123e+01 -9.9033091685488094e-03
-2.1607667323829638e-01 1.7224576673238090e+01 -1.1965687530777740e+00
ITEM: ATOMS id type x y z
7 4 -0.944954 2.81443 3.51659
14 4 0.0387226 5.21121 1.83326
164 3 -1.34126 4.14213 2.64176
166 3 -0.614549 6.38143 0.912119
79 2 -1.79782 4.71326 7.33457
17 4 -1.05454 5.9726 6.35723
78 2 0.0836197 1.90241 6.20501
167 3 -2.24065 6.66697 5.46633
77 2 0.619468 2.93636 4.18064
190 3 0.261801 5.38719 5.64556
57 1 1.01361 2.51715 6.11329
105 2 0.669006 3.71712 5.91604
165 3 1.01722 4.27437 0.894917
189 3 0.864499 5.97136 2.95795
26 4 4.0373 2.28855 3.35516
315 1 1.56761 1.36009 0.231218
33 4 1.17773 6.26797 4.54093
270 2 7.21621 1.00884 -0.0403903
62 1 3.11989 3.92428 2.97804
82 2 3.8542 4.78482 2.9666
117 2 2.34548 4.10283 2.19602
118 2 2.53025 3.77965 4.10153
119 2 4.41391 3.09458 1.81586
182 3 5.25263 2.29618 4.40415
183 3 6.3933 0.427332 5.86695
194 3 2.74846 6.298 4.78489
195 3 4.60732 5.00455 6.33435
268 1 6.49826 1.816 1.40634
272 2 5.45441 1.35866 1.54381
180 3 3.35711 0.91889 2.99358
143 2 1.04679 0.573811 6.60828
280 2 4.51917 6.10934 0.344532
318 2 1.40122 1.82036 1.37036
104 2 1.64723 2.46577 7.07535
181 3 3.25686 0.721435 8.19779
103 2 1.64868 2.17348 5.20633
191 3 4.452 3.12581 8.30301
36 4 4.31535 6.36142 5.48446
316 2 2.686 1.25917 0.0486342
34 4 5.45511 3.95869 7.40367
317 2 1.01018 0.362289 0.0196263
18 4 -0.058323 3.11147 12.7234
19 4 -0.59913 5.43327 10.8872
161 3 -0.222672 1.58778 15.9412
170 3 -0.691238 4.05276 11.5755
110 2 -1.54764 5.27158 9.44635
133 2 -0.360933 6.07335 14.3846
168 3 -1.21595 2.69376 13.6925
67 1 0.710268 5.74997 14.4789
132 2 1.3227 5.83745 13.5243
169 3 0.683477 1.82496 12.1409
134 2 0.77937 4.82162 15.0612
193 3 0.848399 5.69025 10.4394
85 2 1.13051 4.00999 13.5595
84 2 2.29329 3.92436 9.44386
8 4 1.14094 1.78611 16.8753
13 4 0.987326 0.305079 11.5554
28 4 4.16824 1.75764 9.08576
31 4 3.88171 1.77741 15.2853
35 4 2.35668 5.53248 10.0397
63 1 2.97439 2.40337 10.5146
64 1 4.34569 3.44851 14.423
83 2 2.25878 0.47142 10.4659
120 2 1.92514 2.21922 10.1821
121 2 3.20444 3.53488 10.8952
122 2 3.33813 1.63624 11.3011
123 2 4.26614 3.18104 13.3266
210 3 7.38586 -0.743209 14.6699
125 2 3.48789 4.06613 14.86
184 3 3.67006 0.605589 14.0584
185 3 5.19557 1.59615 16.2913
186 3 2.50993 2.10998 16.2305
187 3 5.37521 1.38991 9.95459
198 3 3.30113 5.59455 11.2948
188 3 6.85669 0.463988 12.3411
86 2 4.53172 5.28973 13.8195
308 2 -3.29078 6.31134 10.9887
126 2 5.42858 3.79487 11.1071
200 3 2.90502 6.54283 8.76434
60 1 -4.6043 9.66288 4.7643
141 2 -3.67986 12.7456 5.33281
142 2 -2.06167 13.5227 6.2386
295 2 -5.98911 13.5956 2.21188
3 2 -2.83751 11.885 6.81785
70 1 -3.04595 12.8929 6.28316
1 4 -4.10842 13.4096 2.47599
6 3 -3.54206 12.9464 1.10461
16 4 -0.266274 7.96828 0.720419
20 4 -2.38861 10.093 1.08785
22 4 -0.424173 8.89951 7.11281
39 4 -1.06777 11.6779 3.55953
138 2 -1.13696 13.0354 1.63663
115 2 -2.33091 12.3869 4.52138
285 2 2.22872 7.96221 2.42962
171 3 -1.60861 8.75256 0.914481
173 3 -0.665214 7.29872 7.30928
199 3 -1.77782 10.8712 2.37238
202 3 -0.826073 10.0011 8.15453
80 2 -0.503988 9.37902 5.35377
69 1 -0.540875 13.2104 2.67749
111 2 -3.99802 9.58542 1.4508
2 1 -5.51543 12.6032 3.55924
205 3 0.178576 11.2003 4.35346
334 2 -4.01997 11.8131 3.67919
203 3 0.0375365 12.5721 7.99197
4 2 -5.518 13.2793 4.40399
112 2 -3.50623 8.81222 4.55796
139 2 0.610822 13.4865 2.35594
337 2 -4.23209 10.636 5.21443
174 3 -5.11098 12.4589 8.26589
286 2 1.37885 9.35135 3.49127
252 2 -4.64403 9.8904 6.821
99 2 0.667233 8.46114 2.11449
87 2 0.732018 7.91048 4.85768
241 1 -4.69772 9.74904 8.06125
61 1 1.10581 9.26419 6.24815
116 2 2.0558 8.70948 5.86741
40 4 3.53345 7.79084 8.01721
42 4 1.52336 11.1156 5.18204
88 2 2.28751 8.99887 7.80441
100 2 1.57944 10.7343 7.12302
278 1 2.32108 8.90496 3.09156
290 3 2.19621 10.9764 1.1563
287 2 3.21012 8.79303 3.84155
140 2 -1.09591 13.9545 3.44273
9 4 -4.39776 13.6675 7.31845
27 4 0.739548 13.5548 6.91508
214 3 1.05872 12.025 12.2065
163 3 -5.22047 13.2908 12.736
149 2 -3.49914 6.64712 13.6598
213 3 1.49577 9.34572 12.0475
196 3 2.94599 6.19369 16.1244
45 4 1.65502 10.7777 11.3608
208 3 3.43131 7.63882 13.0957
175 3 -1.05967 6.69912 11.6785
21 4 -3.00773 11.3755 17.0912
258 2 -3.84761 8.5855 10.8403
339 2 -3.69329 12.025 14.4936
23 4 -5.07383 11.1266 9.19821
24 4 -1.49358 8.03984 12.5273
25 4 -2.44607 11.3848 11.1029
41 4 -0.295308 11.3254 8.91325
44 4 -0.297231 11.841 15.7385
73 1 -0.494907 10.4562 14.5534
150 2 -1.49496 9.98447 14.8837
151 2 0.408097 9.68581 14.6689
176 3 -4.41281 11.2794 15.8286
177 3 -3.82451 11.0894 10.2103
178 3 -2.08528 9.84785 11.8015
179 3 -2.68658 12.6792 12.119
204 3 -1.4859 11.6629 9.97959
211 3 -1.88309 12.2599 16.3461
72 1 -2.81276 7.53542 13.9646
81 2 -2.36609 7.33532 14.9525
147 2 -0.972409 8.06747 14.196
102 2 -0.625461 9.51758 11.9467
152 2 -0.446277 10.8411 13.4191
207 3 1.72334 8.49104 14.7469
148 2 -3.38831 8.53413 13.8812
197 3 0.515151 7.16277 16.8646
43 4 2.60157 8.93571 13.4642
37 4 1.63044 7.06033 15.6615
209 3 0.68261 11.4448 17.0159
212 3 1.16849 10.8889 9.75775
11 4 -3.6639 13.2058 13.2891
38 4 4.05775 6.38663 12.497
250 2 -3.77484 9.32563 8.52157
172 3 -2.56096 9.76712 17.2098
229 3 8.05228 5.93793 5.4722
192 3 6.43947 3.10035 6.50102
271 2 6.47653 3.46761 1.4587
331 2 12.3371 0.302892 3.24432
95 2 7.32503 4.96892 3.24948
51 4 7.1655 6.30336 4.20759
130 2 7.67234 4.83135 8.21321
342 2 11.9391 5.41833 8.37656
215 3 8.05043 2.06359 4.49425
269 2 7.07302 1.59874 2.28248
219 3 13.319 2.40514 4.72262
46 4 9.47882 2.35943 3.86696
49 4 11.9754 1.94411 5.41006
50 4 10.7756 4.96575 2.8416
53 4 10.5782 3.65652 7.59986
91 2 9.35535 1.6483 2.29136
94 2 12.2461 4.21765 2.55941
220 3 10.6729 1.48142 4.32919
221 3 12.3204 0.581374 6.3061
222 3 9.96322 3.81055 3.49653
223 3 11.2158 6.24001 3.63609
225 3 9.9216 5.16872 1.54491
227 3 11.4402 3.23859 6.34619
230 3 9.48708 4.87257 7.5176
217 3 8.47574 0.691351 7.57544
294 4 13.3817 1.02458 1.33896
297 3 12.2911 2.00771 0.664039
52 4 9.22537 5.74583 0.189246
54 4 9.12686 6.06061 6.54873
232 3 8.45957 7.10955 0.563766
288 2 8.12799 0.701131 1.4062
224 3 5.58085 6.64964 4.49682
296 3 14.2938 1.60387 2.39398
29 4 6.61909 1.96325 5.3273
347 2 9.98435 0.368992 0.838094
97 2 12.9829 3.74559 8.1982
310 2 11.7205 6.06973 -0.185012
162 3 14.9382 -0.0573822 10.6895
128 2 6.49691 3.15004 12.661
30 4 7.81777 -0.604346 13.0533
131 2 6.55457 4.33271 9.71016
321 2 13.9421 2.14787 9.33917
12 4 13.8141 1.45695 14.8636
65 1 6.41539 3.40491 11.5126
137 2 5.96572 6.50941 10.5073
226 3 10.1615 2.45197 8.7651
249 2 6.72609 4.99898 13.7323
127 2 7.35413 3.96001 11.2704
240 1 7.60877 5.21667 14.4898
245 2 7.63358 4.41595 15.3176
93 2 11.0613 -0.084321 9.51861
218 3 8.03547 1.56848 10.1449
107 2 9.77514 -0.149302 10.9421
323 1 13.8202 -0.149933 13.7616
256 2 10.1703 5.95682 10.2977
340 2 11.6871 3.25376 17.2117
303 2 7.85795 0.678999 15.232
247 2 8.69616 5.18309 13.88
96 2 10.4919 5.93943 16.2376
129 2 6.21829 5.922 8.64874
298 4 11.5856 1.55327 16.886
312 3 9.89816 1.11879 16.8557
335 2 14.8875 -0.485648 13.9498
320 2 12.9864 2.48989 11.1539
336 2 10.7758 4.00023 15.7764
313 3 7.90962 3.21623 16.9064
109 2 11.9514 4.0925 9.91174
319 1 12.4073 1.66287 10.5563
348 2 9.39992 0.877144 12.2812
10 4 13.7603 0.499528 9.76561
48 4 9.06074 1.25687 8.95499
58 1 9.94704 -0.270943 9.76644
299 4 8.93636 1.90671 15.8142
300 4 10.4329 3.23841 13.1472
301 1 10.501 5.15635 13.045
302 1 10.7553 4.8524 16.6063
304 2 9.22649 4.21709 12.1203
305 2 11.9487 4.2625 13.5126
306 2 11.1792 2.12156 12.0149
307 2 10.7197 5.78545 12.0507
309 2 10.0992 5.74319 13.9013
311 3 12.333 1.29595 15.508
314 3 9.70059 2.64606 14.4266
322 2 12.0624 0.762624 11.3081
349 2 9.97196 0.318506 14.001
328 1 9.64475 -0.0257648 12.9571
108 2 11.4975 2.04565 9.86537
343 2 13.6449 0.156157 12.7015
59 1 12.1163 4.29636 8.68616
66 1 6.63945 4.85407 8.65361
32 4 6.66568 1.6054 10.8989
135 2 6.37611 6.09693 12.3299
267 4 6.51121 1.54913 17.1668
124 2 5.39615 3.8346 14.7758
157 2 10.24 8.54763 2.43207
156 2 8.53615 11.1959 6.10482
281 2 4.28149 13.8513 1.89443
251 2 9.48625 9.1793 8.34549
47 4 5.5244 13.2816 7.31573
155 2 9.57793 10.9577 2.4157
92 2 3.97158 13.153 8.02114
201 3 4.29461 7.58625 6.61222
206 3 1.73556 12.489 5.8724
274 4 3.38418 9.85571 1.65263
276 4 5.47214 11.6829 3.03158
277 4 6.82734 11.0762 5.72821
282 2 4.47655 12.9762 3.72814
98 2 8.31329 7.03802 7.72579
289 3 3.88905 8.71842 0.620204
5 2 8.79921 11.8732 3.63774
291 3 4.49855 10.5617 2.52884
292 3 6.61198 11.2528 4.17412
293 3 5.954 11.9058 6.70814
330 1 5.38155 13.8091 2.18959
333 2 6.37712 12.4044 1.57779
332 2 7.52142 14.0464 0.166398
275 4 2.05867 12.2561 0.17884
153 2 7.65522 9.85968 1.62942
326 2 9.15926 12.0995 0.522922
75 1 7.71138 9.48553 6.39896
158 2 6.66278 8.93806 6.40426
283 2 8.11265 9.4654 7.40343
114 2 10.1473 9.83314 3.71788
55 4 8.45852 8.06896 1.92713
154 2 9.58436 10.0588 0.719288
113 2 9.90916 9.23759 5.43075
74 1 9.34147 9.96179 1.78931
231 3 7.87459 7.44968 3.26609
284 2 8.45417 9.00271 5.63763
346 2 2.66306 13.3575 2.29695
279 1 2.33519 13.8709 1.35617
15 4 11.5414 6.96829 4.93832
89 2 2.80916 10.4895 4.31601
228 3 10.34 6.89078 5.94991
262 3 5.5416 6.54363 16.1926
237 4 9.6906 8.00077 10.9905
324 2 6.24763 13.0775 14.2142
329 2 3.69538 13.1686 12.4684
68 1 5.74188 6.76739 11.5966
273 4 4.25547 6.3818 17.0032
236 4 6.90227 6.82492 15.1685
265 3 8.52889 10.0275 14.4286
235 4 9.24562 11.0709 15.6802
136 2 5.72021 7.94025 11.8585
325 1 8.31363 11.1931 17.1846
145 2 3.93895 9.492 9.63994
144 2 5.0743 7.9729 10.1279
106 2 2.68719 12.7336 9.34079
71 1 4.66128 8.66401 9.24098
350 2 6.17131 11.5017 14.3923
341 2 4.68411 11.1367 12.3609
56 4 3.84595 11.2668 15.1205
76 1 5.68874 11.1909 15.3666
90 2 3.30505 11.1247 11.3751
101 2 6.11347 11.7726 16.2786
159 2 3.3741 12.8968 14.5411
160 2 5.79824 10.0075 15.5073
233 3 3.50961 10.1502 14.0046
234 3 3.2532 11.1252 16.559
239 4 7.13943 11.1573 11.3192
244 1 5.11587 11.9767 11.7076
260 2 5.8427 11.4093 10.0627
261 2 4.39392 12.5644 10.9831
263 3 6.98815 7.947 14.0857
246 2 5.70062 12.7677 12.4356
266 3 7.16419 9.84651 12.0847
254 2 7.21015 7.32599 10.3927
344 2 7.56592 12.5202 12.3444
238 4 7.99528 9.0103 13.3449
248 2 8.48191 6.48744 15.7118
242 1 8.04542 7.60905 9.62551
243 1 11.178 6.74517 10.3384
259 2 8.77226 9.27734 10.0254
264 3 9.12548 7.9428 12.5132
327 2 8.32243 12.6418 15.9464
338 2 8.63437 11.1167 10.2217
345 2 7.47235 10.3687 17.0248
253 2 8.75657 6.6886 9.44991
255 2 7.49523 7.92637 8.70609
216 3 6.34454 13.6055 8.6079
257 2 11.5813 7.11706 9.3038
146 2 5.55844 9.06582 8.55404
ITEM: TIMESTEP
100
ITEM: NUMBER OF ATOMS
350
ITEM: BOX BOUNDS xy xz yz pp pp pp
-6.7931589207117060e+00 1.5235469585769128e+01 -6.7859860257739273e+00
-9.1364820870666907e-01 1.4228599782302123e+01 -9.9033091685488094e-03
-2.1607667323829638e-01 1.7224576673238090e+01 -1.1878484264045355e+00
ITEM: ATOMS id type x y z
7 4 -0.929417 2.85759 3.4937
14 4 0.0113844 5.16585 1.83714
164 3 -1.43784 4.16037 2.69177
166 3 -0.664775 6.26169 0.853276
79 2 -1.68421 4.93296 7.44715
17 4 -1.05403 6.14005 6.36701
78 2 0.0622173 1.88439 5.66607
167 3 -2.31179 6.65667 5.42904
77 2 0.589028 3.09181 4.151
190 3 0.306302 5.43189 5.40322
57 1 0.966878 2.56602 6.03935
105 2 0.765769 3.62028 5.80939
165 3 0.815767 4.03189 0.997088
189 3 0.838685 5.84157 2.96935
26 4 3.97644 2.1425 3.34331
315 1 1.36433 1.3381 0.480917
33 4 1.17358 6.30651 4.47242
34 4 5.51565 3.96187 7.27362
62 1 3.10713 3.77982 3.04149
82 2 3.70966 4.76501 2.96618
117 2 2.28444 3.74446 2.30126
118 2 2.6835 3.69523 4.32048
119 2 4.34203 2.93334 1.80122
182 3 5.42195 2.07097 4.18687
183 3 6.34643 0.223249 6.04976
194 3 2.75501 6.35264 4.84244
195 3 4.94345 5.18281 6.43318
268 1 6.49928 1.80541 1.24825
272 2 5.54311 1.26887 1.13534
180 3 3.09169 0.861032 3.07464
143 2 1.24533 0.741745 6.71928
280 2 4.40211 6.24623 0.520511
318 2 1.06087 1.76541 1.55537
104 2 1.00843 2.49244 7.18343
181 3 3.23846 0.781663 8.40125
103 2 1.9865 2.22483 5.65194
191 3 4.50623 3.11215 8.16413
9 4 2.47053 -0.218616 7.47827
316 2 2.50649 1.19371 0.346306
29 4 6.61507 1.92478 5.2831
18 4 -0.196414 3.18862 12.703
19 4 -0.52107 5.47456 10.8155
161 3 -0.155869 1.46209 15.938
170 3 -0.655624 4.07012 11.5188
110 2 -1.64284 5.41382 9.5761
133 2 -0.44724 6.13307 14.4397
168 3 -1.36458 2.76803 13.8191
67 1 0.616068 5.75418 14.5279
132 2 1.14193 5.77056 13.549
169 3 0.625887 1.91751 12.288
134 2 0.751653 4.81806 15.1319
193 3 0.863651 5.5876 10.075
85 2 1.01245 4.07266 13.5723
84 2 2.56756 3.90551 9.24375
8 4 1.07164 1.70177 16.9328
13 4 0.9589 0.531006 11.6232
28 4 4.17286 1.81278 9.15834
31 4 3.8863 1.73086 15.1967
35 4 2.36638 5.44565 9.94773
63 1 3.16861 2.59769 10.6446
64 1 4.34008 3.42867 14.4799
83 2 2.20089 0.897156 10.4888
120 2 1.99257 2.72201 10.6536
121 2 3.55071 3.68238 10.8576
122 2 3.52677 1.90526 11.4694
123 2 4.42003 3.13584 13.3725
124 2 5.24895 3.77413 14.9813
125 2 3.34052 3.9635 14.7243
184 3 3.72266 0.61342 13.8991
185 3 5.20929 1.59497 16.2111
186 3 2.4625 1.96172 16.1155
187 3 5.36437 1.25055 9.947
198 3 3.23261 5.52211 11.3108
163 3 1.70966 -0.487404 12.633
86 2 4.25716 5.32839 13.8244
196 3 3.07829 6.10818 15.9459
38 4 4.14055 6.34535 12.3814
200 3 3.06682 6.51489 8.88482
60 1 -4.63523 9.61961 4.91808
141 2 -3.65191 13.2808 5.26416
142 2 -2.06324 13.5251 6.23235
295 2 -6.22373 13.5004 2.28222
3 2 -3.07156 11.7918 6.55983
70 1 -3.10346 12.9659 6.28179
1 4 -4.2593 13.4611 2.37344
6 3 -3.72027 12.9915 0.863785
16 4 -0.22124 7.9187 0.85394
20 4 -2.43935 10.0286 1.01175
22 4 -0.389514 8.95122 7.1309
39 4 -1.16873 11.6437 3.47446
138 2 -0.805896 12.8567 1.4064
115 2 -2.42806 12.2899 4.57484
285 2 2.45845 7.9066 2.42764
171 3 -1.60262 8.66513 0.85398
173 3 -0.564896 7.28563 7.4521
199 3 -1.80166 10.7379 2.3587
202 3 -0.589307 10.133 8.13423
80 2 -0.677419 9.43625 5.43104
69 1 -0.52436 13.0584 2.4327
111 2 -4.10816 9.62143 1.34569
2 1 -5.56306 12.6907 3.6766
205 3 0.15253 11.1574 4.25405
334 2 -4.09425 11.9747 3.47783
203 3 -0.0819521 12.5792 8.07538
4 2 -5.41802 13.5187 4.46478
112 2 -3.63908 8.84282 4.65056
139 2 0.630529 13.1798 2.69543
337 2 -4.29822 10.549 5.38514
174 3 -4.99225 12.4978 8.22782
286 2 1.45316 9.18546 3.65379
252 2 -4.69789 9.75254 6.93533
99 2 0.743881 8.40439 2.16181
87 2 0.662455 7.94465 4.57089
241 1 -4.72505 9.68398 8.20598
61 1 1.05618 9.14979 6.12751
116 2 1.94868 8.55025 5.76017
40 4 3.49663 7.81876 8.13462
42 4 1.51326 11.0268 5.23503
88 2 2.05442 8.79291 7.73983
100 2 1.70372 10.4714 7.08505
278 1 2.45945 8.8935 3.10958
290 3 2.21267 10.985 1.13679
27 4 0.635385 13.5236 7.01724
140 2 -1.17933 13.8762 2.90667
317 2 -6.01726 14.1752 0.223857
214 3 1.04794 11.8279 12.2899
172 3 -2.36977 9.73246 17.1801
149 2 -3.55182 6.85562 13.5578
213 3 1.61776 9.40953 12.2896
11 4 -3.70357 13.2051 13.2688
45 4 1.78166 10.8198 11.3841
208 3 3.52632 7.71791 12.8821
175 3 -1.09888 6.73244 11.6922
21 4 -3.03073 11.2445 16.9347
258 2 -3.94734 8.64522 10.8732
339 2 -3.92736 12.1123 14.6139
23 4 -5.04539 11.1854 9.17795
24 4 -1.50248 8.11641 12.5717
25 4 -2.5189 11.3331 11.2355
41 4 -0.209456 11.3996 9.10373
44 4 -0.384488 11.9342 15.7655
73 1 -0.571978 10.3517 14.6744
150 2 -1.54552 9.95574 15.0301
151 2 0.350404 9.57889 14.8095
176 3 -4.50021 11.1954 15.7767
177 3 -4.03408 11.1348 10.4164
178 3 -2.20387 9.90681 11.9498
179 3 -2.69908 12.4722 12.3276
204 3 -1.30713 11.7328 10.2742
211 3 -1.91416 12.3013 16.3168
72 1 -2.98686 7.7978 13.8102
81 2 -2.7634 7.91512 14.9311
147 2 -1.12803 7.90635 14.2956
102 2 -0.666865 9.57834 12.0726
152 2 -0.695383 10.9301 13.6974
207 3 1.70124 8.33383 14.8707
148 2 -3.57224 8.7357 13.4082
197 3 0.641826 6.97705 16.9987
43 4 2.58993 8.93951 13.4925
37 4 1.57267 6.98401 15.7501
209 3 0.585297 11.4595 16.9275
212 3 1.198 10.9673 9.74126
250 2 -3.83208 9.19533 8.71935
210 3 0.493838 13.2066 14.6021
308 2 -3.16439 6.53562 11.0962
229 3 7.99497 6.13692 5.37676
192 3 6.54261 3.05734 6.40575
271 2 6.23959 3.47562 1.44005
331 2 12.5502 0.240083 3.49766
95 2 6.8912 4.78335 3.43862
51 4 7.06308 6.26279 4.1627
130 2 7.65787 4.69671 8.15449
342 2 12.0436 5.60021 8.36508
215 3 8.02522 2.11786 4.39799
269 2 7.01219 1.49891 2.21107
219 3 13.1978 2.51348 4.57913
46 4 9.44401 2.3472 3.7085
49 4 11.9079 1.87713 5.4762
50 4 10.7091 4.89471 2.93273
53 4 10.6466 3.67702 7.6431
91 2 9.23314 1.85173 2.09244
94 2 12.1942 4.08012 2.52453
220 3 10.6668 1.45724 4.23129
221 3 12.1746 0.632256 6.38127
222 3 9.81429 3.90161 3.6928
223 3 11.0874 6.30099 3.52529
225 3 10.0751 5.124 1.35884
227 3 11.2986 3.12172 6.31914
230 3 9.50735 4.85743 7.2796
217 3 8.38672 0.588942 7.70076
294 4 13.296 0.957137 1.45969
297 3 12.3 1.94956 0.698447
52 4 9.26918 5.81648 0.168017
54 4 9.15676 6.15877 6.53021
270 2 7.47314 1.24998 -0.0673935
288 2 8.1285 0.685236 1.40245
224 3 5.49218 6.80057 4.42577
296 3 14.4087 1.58888 2.38639
36 4 4.4594 6.49018 5.61513
347 2 10.0076 0.550312 0.793316
97 2 13.0915 3.94488 8.28885
226 3 10.2688 2.36719 8.48279
162 3 14.9208 -0.0887747 10.8771
128 2 6.64365 3.25347 12.7021
310 2 11.5552 5.2726 16.9926
131 2 6.64164 4.25507 9.74708
93 2 11.2666 -0.269917 9.43295
12 4 13.7876 1.45445 14.8214
65 1 6.67441 3.3752 11.5861
267 4 6.53529 1.7467 17.0952
216 3 13.1834 -0.330361 8.66793
249 2 6.6909 5.01701 13.9332
127 2 7.5675 3.90857 11.0842
240 1 7.65461 5.26007 14.6214
245 2 7.71515 4.50522 15.4193
137 2 6.01017 6.36938 10.5962
218 3 8.13237 1.85528 10.0072
107 2 9.91617 -0.27477 10.8261
323 1 13.732 -0.229137 13.7925
256 2 10.3856 5.92609 10.4119
135 2 6.42462 6.1027 12.5275
303 2 7.91894 0.705167 15.0703
247 2 8.7227 5.26628 13.9973
96 2 10.1668 5.78406 15.7887
129 2 6.30921 5.82904 8.65741
298 4 11.6117 1.72901 16.8719
312 3 10.1014 1.32162 16.5829
126 2 5.70155 3.84883 11.2739
320 2 12.6393 2.64719 11.2308
336 2 10.9278 4.14589 15.6469
313 3 8.01988 3.22415 16.8635
109 2 11.9667 4.25161 9.70063
319 1 12.3411 1.75213 10.6156
348 2 9.45422 0.702836 12.0726
10 4 13.707 0.461318 9.91398
48 4 9.11959 1.25934 8.89617
58 1 10.1286 -0.308089 9.66538
299 4 8.96097 1.94304 15.6308
300 4 10.367 3.3287 13.2372
301 1 10.5261 5.24295 13.1437
302 1 10.6428 4.88706 16.4004
304 2 9.13159 4.26206 12.2931
305 2 11.8551 4.56541 13.8292
306 2 11.1767 2.2376 12.1752
307 2 10.7742 5.7908 12.1506
309 2 10.0478 6.00588 13.8581
311 3 12.4454 1.4496 15.5807
314 3 9.55983 2.66548 14.3915
322 2 12.0014 0.705474 11.3349
349 2 10.0254 0.349636 13.8014
328 1 9.67347 -0.197667 12.8208
108 2 11.5796 2.04366 9.86268
343 2 13.6778 0.098582 12.7377
59 1 12.1349 4.43496 8.6632
66 1 6.64756 4.78254 8.6804
32 4 6.84044 1.57625 10.9107
324 2 12.7891 -0.687135 14.186
188 3 7.17113 0.591187 12.1721
321 2 13.8453 2.18665 9.50917
340 2 11.7652 3.43535 17.109
157 2 10.1236 8.56417 2.63539
156 2 8.54142 10.9782 6.33969
281 2 4.30759 13.7964 2.0074
325 1 8.41031 12.3299 -0.167882
47 4 5.51104 13.3393 7.30834
155 2 9.48614 10.9663 2.57847
92 2 3.91712 12.995 7.87347
201 3 4.38691 7.66892 6.77023
206 3 1.7333 12.3409 6.02788
274 4 3.33779 9.86457 1.56139
276 4 5.66177 11.5307 2.93903
277 4 6.91655 11.0746 5.74735
282 2 4.6303 12.7435 3.77294
98 2 8.45659 7.06822 7.77945
289 3 3.75926 8.69269 0.56236
5 2 8.97199 11.9202 4.04272
291 3 4.62251 10.6297 2.18272
292 3 6.72979 11.2111 4.151
293 3 5.97441 11.9792 6.63793
330 1 5.47898 13.7358 2.36918
333 2 6.51698 12.3803 1.58355
332 2 7.22449 13.672 0.355701
275 4 2.1568 12.3633 0.302473
153 2 7.68888 9.89862 1.66989
232 3 8.65817 7.28928 0.547691
75 1 7.49891 9.34212 6.43691
158 2 6.51525 8.84078 5.88775
283 2 7.53416 9.08141 7.54277
114 2 10.0793 9.83325 3.86791
55 4 8.46855 8.06244 1.93623
154 2 9.58533 10.2331 0.861544
113 2 9.8062 9.02384 5.59939
74 1 9.29069 10.0266 1.95243
231 3 7.64534 7.34878 3.09501
284 2 8.40462 8.95601 5.87232
346 2 2.66031 13.4468 2.35308
279 1 2.40602 13.9915 1.35519
15 4 11.5045 7.0196 4.90354
89 2 2.88042 10.3892 4.29935
228 3 10.4935 6.83624 6.1746
251 2 9.5279 9.15302 8.45228
287 2 3.36946 8.83778 3.77915
326 2 9.24568 12.2468 0.531416
262 3 5.56425 6.71703 16.2337
237 4 9.6946 7.95459 11.1423
30 4 0.999648 13.2887 12.9855
329 2 3.65709 12.9841 12.4195
68 1 5.81132 6.74945 11.6455
273 4 4.2346 6.41642 16.9802
236 4 6.75752 6.89374 15.1664
265 3 8.42963 10.0393 14.5274
235 4 9.07501 11.0469 15.5799
136 2 5.91658 7.90988 11.7357
146 2 5.46815 9.10555 8.62453
145 2 3.88464 9.48557 9.6265
144 2 5.1111 7.91468 10.1665
106 2 2.7642 12.76 9.20301
71 1 4.67024 8.64991 9.30241
350 2 6.28306 11.245 14.3356
341 2 4.84185 11.0786 12.2014
56 4 3.97235 11.2638 15.0192
76 1 5.7772 10.856 15.2545
90 2 3.47815 11.2292 11.3226
101 2 6.36574 11.0828 16.1911
159 2 3.75221 12.8673 14.3865
160 2 5.66742 9.69645 15.1549
233 3 3.45735 10.2753 13.9416
234 3 3.24131 11.286 16.545
239 4 7.19455 11.0842 11.3514
244 1 5.27763 11.965 11.6203
260 2 5.98156 11.0368 10.0675
261 2 4.53751 12.5793 10.9165
263 3 6.78798 8.04928 14.161
246 2 5.86952 12.7403 12.3251
266 3 7.18789 9.75189 12.149
254 2 7.18071 7.4134 10.3184
344 2 7.55626 12.4155 12.4998
238 4 7.8663 9.02855 13.3918
248 2 8.38268 6.67567 15.7763
242 1 8.0225 7.77985 9.61074
243 1 11.17 6.77724 10.4303
259 2 8.77589 9.24958 10.1689
264 3 9.20561 8.05337 12.6723
327 2 8.12388 12.5248 16.0663
338 2 8.65079 11.1637 10.1556
335 2 7.90569 13.082 14.058
253 2 8.80728 6.83977 9.4241
255 2 7.54306 8.10358 8.64584
257 2 11.4581 7.03252 9.37815
345 2 7.77217 10.0746 17.1927
ITEM: TIMESTEP
200
ITEM: NUMBER OF ATOMS
350
ITEM: BOX BOUNDS xy xz yz pp pp pp
-6.7931589207117060e+00 1.5235469585769128e+01 -6.7859860257739273e+00
-9.0492788203343100e-01 1.4228599782302123e+01 -9.9033091685488094e-03
-2.1607667323829638e-01 1.7224576673238090e+01 -1.1791280997312974e+00
ITEM: ATOMS id type x y z
7 4 -1.00367 2.76753 3.51625
14 4 0.165042 5.13512 2.02396
164 3 -1.34357 4.31842 2.8102
166 3 -0.513433 6.25942 1.06633
79 2 -1.85351 4.73701 7.20133
17 4 -1.08124 5.9802 6.31161
78 2 -0.0181535 1.93348 5.78233
167 3 -2.18059 6.6317 5.25988
77 2 0.529549 2.83105 4.29916
190 3 0.376787 5.4751 5.60917
57 1 0.850664 2.52832 6.25532
105 2 0.777806 3.67944 5.9381
165 3 0.960822 3.99924 1.06927
189 3 1.14883 5.80815 3.08056
26 4 3.95191 2.14256 3.27529
315 1 1.60209 1.086 0.251989
33 4 1.32523 6.35425 4.64524
316 2 2.72168 1.02824 -0.118092
62 1 3.05326 3.79732 3.03475
82 2 3.61039 4.72718 3.13994
117 2 2.22694 3.82004 2.19214
118 2 2.56055 3.45916 4.28508
119 2 4.23676 3.02899 1.73861
182 3 5.26425 2.01426 4.16393
183 3 6.49523 0.2601 5.78983
194 3 2.8583 6.21545 5.13717
195 3 4.86944 5.04785 6.38805
268 1 6.45285 1.78966 1.1298
272 2 5.48228 1.23661 1.30085
180 3 3.23762 0.802544 2.89187
143 2 1.06765 0.638306 6.78195
280 2 4.2049 6.15045 0.386607
318 2 1.54226 1.4626 1.40426
104 2 0.769399 2.49689 7.41185
181 3 3.40499 0.803098 8.34087
103 2 1.80472 2.07847 6.0073
191 3 4.67403 3.10819 8.23206
9 4 2.44566 -0.243102 7.55641
36 4 4.33057 6.42734 5.66306
29 4 6.65344 1.74919 5.23125
18 4 -0.248773 3.31404 12.5582
19 4 -0.594773 5.63176 10.7481
161 3 -0.114908 1.35121 15.9957
170 3 -0.847642 4.28286 11.5052
110 2 -1.65791 5.55867 9.41731
133 2 -0.668461 6.04658 14.6929
168 3 -1.31159 2.87104 13.7087
67 1 0.382068 5.66937 14.5361
132 2 0.893611 5.90115 13.5237
169 3 0.51325 2.01066 12.0811
134 2 0.534959 4.5955 15.0123
193 3 0.825284 5.65629 10.1694
85 2 0.987597 4.20571 13.3879
84 2 2.78089 4.02737 9.39353
8 4 1.18584 1.55583 16.9937
13 4 0.955739 0.556322 11.6045
28 4 4.426 1.79189 9.1524
31 4 3.95242 1.81486 15.1364
35 4 2.36821 5.60792 9.92639
63 1 3.27961 2.51524 10.5823
64 1 3.99326 3.39138 14.0518
83 2 2.11324 0.880448 10.4111
120 2 2.12308 2.48289 10.5143
121 2 3.73655 3.54822 10.729
122 2 3.73353 1.73865 11.4207
123 2 3.85348 2.94941 13.0091
124 2 4.9236 3.90616 14.1652
125 2 3.06427 3.90217 14.5447
184 3 3.74385 0.706349 13.9803
185 3 5.2341 1.85945 16.1746
186 3 2.43015 1.87655 16.0628
187 3 5.74741 1.37759 9.84591
198 3 3.11394 5.73889 11.3638
163 3 1.72789 -0.39453 12.7468
86 2 3.93433 5.35468 13.8769
11 4 3.113 -0.63955 13.4088
38 4 3.99473 6.36569 12.4494
126 2 5.46402 3.79063 11.1492
210 3 7.32045 -0.659731 14.6368
60 1 -4.78974 9.78467 4.87227
141 2 -4.06843 13.4032 5.32021
142 2 -2.11734 13.5744 5.99866
295 2 -6.20992 13.6007 2.21523
3 2 -3.2317 12.002 6.37712
70 1 -3.20069 13.1468 6.13481
1 4 -4.27773 13.3646 2.46006
6 3 -3.75703 12.8578 0.977136
16 4 -0.257846 7.81265 0.858161
20 4 -2.51588 9.93942 1.03739
22 4 -0.422516 8.81955 7.11419
39 4 -1.24312 11.7032 3.39942
138 2 -0.322531 12.8558 1.42882
115 2 -2.50205 12.2202 4.50738
285 2 2.25361 7.96377 2.3042
171 3 -1.62159 8.64812 0.794478
173 3 -0.801467 7.12642 7.37503
199 3 -2.03157 10.7331 2.42898
202 3 -0.808737 9.95676 8.32859
80 2 -0.721334 9.5056 5.58249
69 1 -0.501483 13.2055 2.49385
111 2 -4.10552 9.31357 1.28429
2 1 -5.8639 12.6277 3.47165
205 3 0.0274941 11.1683 4.22443
334 2 -4.38547 11.8802 3.58685
203 3 0.0230292 12.584 8.14879
4 2 -5.89931 13.3139 4.43893
112 2 -3.89832 8.97839 4.83154
139 2 0.457106 13.6803 2.96095
337 2 -4.40162 10.8088 5.15146
174 3 -5.04983 12.5442 8.37241
286 2 1.48131 9.5198 3.01563
252 2 -4.68541 9.93269 6.97125
99 2 0.585617 8.39159 2.15544
87 2 0.870659 8.03538 4.70773
241 1 -4.70674 9.86132 8.13215
61 1 1.13409 9.28617 6.23206
116 2 1.925 8.56856 5.9365
40 4 3.56726 8.00719 8.1821
42 4 1.40482 11.0493 5.15015
88 2 2.16177 9.02715 7.85747
100 2 1.59916 10.5249 7.15529
278 1 2.38648 8.9077 2.91202
317 2 -5.94575 14.0808 0.0463127
27 4 0.846622 13.4429 6.91932
140 2 -1.47549 13.8668 2.70534
287 2 3.03892 8.67657 3.84912
214 3 1.27377 12.0707 12.3412
172 3 -2.56973 9.58001 17.1371
149 2 -3.57191 6.88733 13.6819
213 3 1.55508 9.38752 12.0006
308 2 -3.33552 6.55601 11.4888
45 4 1.78381 10.8403 11.4065
257 2 -3.32844 7.25322 9.82395
175 3 -1.0413 6.77913 11.8103
21 4 -3.10667 11.1461 16.9937
258 2 -3.97874 8.84461 10.8238
339 2 -3.92337 12.4007 14.816
23 4 -4.98006 11.2584 9.28905
24 4 -1.43706 8.0939 12.6431
25 4 -2.42613 11.293 11.2815
41 4 -0.19952 11.294 9.1618
44 4 -0.420376 11.9563 15.7217
73 1 -0.552571 10.4943 14.568
150 2 -1.61033 10.0976 14.8515
151 2 0.193149 9.58158 14.6161
176 3 -4.48867 11.1586 15.7417
177 3 -3.69243 11.253 10.3222
178 3 -1.95712 9.86099 11.9338
179 3 -2.71614 12.3814 12.5906
204 3 -1.2624 11.7057 10.2598
211 3 -1.91804 12.1137 16.3662
72 1 -2.953 7.84017 13.9802
81 2 -2.78904 7.97082 15.0788
147 2 -1.12273 7.88701 14.4177
102 2 -0.381093 9.47231 12.2341
152 2 -0.474986 11.1833 13.56
207 3 1.44628 8.23776 14.7314
148 2 -3.48061 8.74522 13.55
197 3 0.692075 6.89303 17.0053
43 4 2.47729 8.88175 13.4263
37 4 1.4946 6.88093 15.6265
209 3 0.668759 11.6208 16.7837
212 3 1.23521 10.9052 9.72884
208 3 3.5069 7.79411 12.8622
200 3 3.0412 6.70594 8.91351
196 3 3.02842 6.18664 15.7845
250 2 -3.67874 9.40817 8.52725
229 3 7.92048 6.22841 5.47857
192 3 6.70783 2.91925 6.39577
269 2 7.08709 1.66615 2.00355
331 2 12.4779 0.102675 3.27266
95 2 7.03095 4.85536 3.56712
51 4 6.99674 6.39587 4.25644
130 2 7.77465 4.62785 8.24679
342 2 12.0765 5.62079 8.23213
215 3 8.03464 1.90146 4.29246
340 2 11.9227 4.56996 -0.0967981
219 3 13.2216 2.26981 4.59573
46 4 9.34911 2.39765 3.636
49 4 11.9009 1.87943 5.36197
50 4 10.6228 5.03944 2.90768
53 4 10.6052 3.6036 7.59815
91 2 9.17161 1.7535 2.04001
94 2 12.2197 4.43237 3.04204
220 3 10.617 1.65566 4.33598
221 3 12.1532 0.49023 6.24831
222 3 9.63917 3.96361 3.53911
223 3 10.8844 6.40148 3.65023
225 3 10.3162 5.23444 1.38345
227 3 11.4703 3.26856 6.25784
230 3 9.3913 4.64472 7.34906
217 3 8.57023 0.645065 7.53613
294 4 13.216 1.00436 1.2658
297 3 12.1957 2.05842 0.750748
52 4 9.45121 5.78237 0.149882
54 4 9.07118 6.15251 6.56054
228 3 10.5666 6.79914 6.28094
288 2 8.14288 0.697862 1.24288
224 3 5.44223 6.91459 4.55043
296 3 14.3472 1.56505 2.3408
34 4 5.64613 3.90796 7.31401
347 2 10.1805 0.484277 0.774977
232 3 8.75371 7.16001 0.508136
271 2 6.04269 3.58057 1.36852
270 2 7.25717 1.22941 -0.0829679
162 3 14.9395 -0.013241 10.8261
128 2 6.39605 3.20846 12.7567
310 2 12.0666 4.93454 16.87
131 2 6.63486 4.23417 9.7433
93 2 11.126 -0.299396 9.60861
12 4 13.8266 1.52159 14.8602
65 1 6.40496 3.4165 11.619
267 4 6.47118 1.80675 17.1083
216 3 13.1517 -0.130588 8.57132
249 2 6.6863 4.94168 13.7976
127 2 7.34537 4.02264 11.4614
240 1 7.57206 5.13475 14.5905
245 2 7.58364 4.35478 15.4823
137 2 5.57704 6.11955 10.5351
218 3 8.3117 1.8369 10.0499
107 2 9.80697 -0.157222 10.9558
323 1 13.7655 -0.069302 13.7583
256 2 10.4457 6.1426 10.2366
135 2 6.38097 5.97635 12.2117
303 2 7.964 0.680929 15.283
247 2 8.65268 5.18788 14.0782
96 2 10.6169 5.98534 16.1866
129 2 6.3122 5.74747 8.64576
298 4 11.6062 1.66532 16.996
312 3 9.9833 1.36493 16.7271
30 4 7.83363 -0.49996 13.0977
320 2 12.6184 2.65998 11.4586
336 2 10.8583 4.11723 15.5722
313 3 8.03662 3.30484 16.8709
109 2 11.4715 4.67323 9.76482
319 1 12.3931 1.76141 10.7741
348 2 9.39866 1.03194 12.3671
10 4 13.694 0.569115 9.8921
48 4 9.18968 1.19296 8.87154
58 1 9.98761 -0.32854 9.817
299 4 8.92652 2.00741 15.7063
300 4 10.1591 3.34897 13.1363
301 1 10.5241 5.23197 13.3225
302 1 10.9698 4.85543 16.4864
304 2 9.13245 4.6656 12.2904
305 2 11.7843 4.2535 13.76
306 2 10.8461 2.31497 11.9007
307 2 10.7873 5.82584 12.3906
309 2 10.1758 5.86223 14.2046
311 3 12.4761 1.46459 15.6829
314 3 9.45333 2.6831 14.3873
322 2 12.0576 0.743688 11.4113
349 2 10.1533 0.439434 13.9858
328 1 9.68644 0.0708164 13.0516
108 2 11.5599 2.00489 9.92767
343 2 13.4423 0.311876 12.7461
59 1 11.9438 4.62399 8.6628
66 1 6.72363 4.71338 8.68419
32 4 6.93696 1.69747 10.8618
335 2 14.8512 -0.412995 13.7914
188 3 7.08853 0.566479 12.1326
321 2 13.9273 2.26383 9.63099
97 2 12.8993 4.02416 8.72588
226 3 10.3733 2.39424 8.60473
157 2 10.0592 8.56711 2.61502
156 2 8.57608 10.8619 6.32391
281 2 4.36352 13.6566 1.85827
326 2 8.99509 12.3478 0.460651
47 4 5.49069 13.332 7.39568
155 2 9.36589 10.856 2.43176
92 2 3.93516 13.049 8.02752