ITEM: TIMESTEP
0
ITEM: NUMBER OF ATOMS
373
ITEM: BOX BOUNDS xy xz yz pp pp pp
-1.0794400000000000e+01 2.0438599999999997e+01 -1.0794400000000000e+01
-3.3405999999999998e+00 1.4057499999999999e+01 1.3894000000000000e+00
0.0000000000000000e+00 1.7550000000000001e+01 -3.3405999999999998e+00
ITEM: ATOMS id type x y z
3 4 4.63716 1.3511 2.88143
4 4 6.3355 -1.25238 7.06241
5 4 5.95793 1.48154 5.50986
7 4 4.30669 4.37066 2.06584
9 4 5.22429 3.37765 7.9909
327 2 -0.0728501 5.77232 6.04858
33 3 5.91965 0.62539 2.10391
34 2 3.26674 0.531446 2.39725
356 1 -1.62017 5.18886 8.31953
36 3 4.65093 1.39804 4.45671
37 3 6.39903 0.0602617 6.09064
41 3 4.48732 2.84071 2.32766
42 1 3.1165 4.89922 0.641965
43 2 2.67935 4.90551 2.51896
325 1 -0.261828 4.85653 5.4167
46 3 5.57716 2.44624 6.71803
214 2 -3.25973 5.51241 0.429624
48 3 4.3253 4.57713 7.52041
328 2 0.588324 4.66222 4.59851
321 1 -3.5447 4.55243 4.80451
359 2 -1.06377 5.06865 7.25654
117 2 2.34017 4.02266 0.673152
330 2 7.98409 0.0882522 3.86988
178 4 1.80061 1.13267 6.78771
35 2 5.67949 -1.06042 8.68864
181 1 1.90048 2.58563 5.60314
329 1 8.31829 -0.432175 2.93454
183 3 0.622462 1.47915 7.87582
326 2 -0.489369 3.90673 6.04659
190 2 2.15931 2.08693 4.60243
191 2 2.9236 3.00154 6.08991
192 2 1.03627 3.36954 5.53938
199 4 -0.990433 4.61203 1.27176
200 4 -1.81153 5.26059 4.31146
202 2 0.738457 4.67732 1.51704
203 1 0.0786041 2.98475 0.799592
205 3 -1.39557 4.84254 2.72671
210 2 -1.02848 2.41608 0.799379
211 2 0.736925 2.72595 1.69582
119 2 2.72777 5.91462 0.739774
320 2 3.27738 0.663339 7.50729
10 4 4.01079 5.76903 6.52694
337 2 1.4484 -0.231693 5.93818
322 2 -4.13765 5.19947 5.49794
283 2 4.31617 0.314698 0.307706
61 2 7.2691 2.03364 4.56358
331 2 9.27437 -0.0223883 2.45924
204 1 -2.21697 5.43852 0.032735
213 2 -1.70038 6.51743 0.219409
357 2 -2.60955 4.47905 8.3639
2 4 3.93312 -0.609688 10.6967
6 4 4.05934 -0.101162 14.1296
287 2 7.4185 -0.907307 16.4776
32 1 5.80203 -0.335919 10.512
38 3 3.37678 -0.316767 12.2534
39 3 4.83748 -1.30602 14.7599
40 1 2.71212 0.198531 15.2857
50 3 5.05895 1.35568 13.957
52 1 2.64176 4.34305 10.8401
111 2 5.7086 0.533072 9.71433
112 2 6.53343 -1.0534 10.1661
113 2 5.94373 0.0360977 11.6585
114 2 1.82413 0.23029 14.5859
115 2 2.87667 1.25788 15.6904
116 2 2.82109 -0.646394 16.0325
129 2 2.89944 3.74475 9.88747
131 2 1.83475 3.73435 11.7051
118 2 5.49937 1.37792 17.3777
180 4 0.329052 0.973937 11.9437
185 2 1.9218 0.161311 12.2176
186 3 0.0729344 1.35952 10.408
188 1 0.552727 2.73216 12.838
196 2 0.20647 3.60468 12.2036
197 2 1.61507 2.72763 13.2052
198 2 -0.321671 2.37735 13.5991
45 2 4.32198 2.37618 9.03543
189 2 -0.642913 3.55968 8.88913
314 2 0.213101 -1.32525 14.3438
215 2 -0.77458 1.69056 16.6027
285 2 8.01011 -1.80425 14.8723
279 4 5.95525 -2.58238 15.392
212 2 1.89592 -0.243938 17.3079
281 1 7.65313 -1.92307 15.974
11 4 5.94983 2.69083 13.5164
286 2 8.22826 -2.68822 16.7168
53 3 4.95415 3.65889 12.3528
339 2 3.02976 0.256394 9.57786
179 4 -0.484152 1.87624 8.97366
126 2 7.53785 1.01048 12.898
258 2 1.0749 -2.7169 17.3433
358 2 -0.913627 5.20755 9.27454
143 2 -0.635617 12.5742 5.06489
257 2 -9.54005 13.8987 0.512908
31 1 -4.93434 11.966 1.77691
49 1 3.13036 7.43299 7.16895
55 1 2.39298 7.37597 3.98108
332 2 -2.47077 12.3962 2.99317
57 2 0.805614 8.47452 3.6277
59 1 -0.769086 11.479 5.27203
60 1 0.41666 9.28708 7.2313
1 4 -3.86022 13.5634 1.63482
108 2 -4.80429 11.247 0.917135
109 2 -6.02631 12.4177 1.89388
110 2 -4.38162 11.5818 2.72495
352 1 -3.78066 11.1376 6.36825
365 2 -2.76182 11.9846 7.34122
125 2 2.00783 7.65265 7.41088
236 2 -1.95677 10.103 0.602467
137 2 2.55955 7.41259 5.20675
141 2 -1.8947 11.3257 5.67038
145 2 0.113238 8.71584 6.27848
144 2 1.33525 8.77545 7.78909
248 2 -7.12835 11.477 7.77079
146 2 -0.499461 9.26484 7.95003
201 4 -2.30991 8.49197 4.24159
206 1 -2.05059 9.09082 2.39746
207 3 -1.97145 6.94893 4.47565
208 1 -4.21725 8.4957 4.57103
209 2 -1.52719 9.6439 5.35666
216 2 -1.36838 8.17539 2.1317
217 2 -1.5607 10.0238 2.60582
218 2 -2.91954 9.18605 1.71957
219 2 -4.44242 8.90527 3.47299
220 2 -4.55708 9.2483 5.38603
221 2 -4.51826 7.41837 4.76931
142 2 -0.482719 10.7925 4.42532
354 2 -3.64758 10.0251 6.53468
243 1 -7.20956 10.3196 7.87716
247 2 -6.33543 9.71682 7.50582
353 2 -5.5252 11.3869 6.39423
360 2 -4.57379 6.47963 7.81671
355 2 -3.60728 11.4012 5.29996
297 2 -4.43437 8.33673 8.37716
290 1 -4.01812 7.52736 7.68831
295 2 -4.04919 7.86182 6.54294
296 2 -2.25698 8.15628 7.78097
136 2 1.62236 6.66341 3.68229
56 3 2.41899 8.97935 1.40548
135 2 3.45887 7.06733 3.38821
47 2 2.22166 5.96062 6.34067
234 2 -0.764442 11.9887 0.401377
13 4 2.37671 9.03983 3.07304
282 2 -6.8665 10.7436 16.8915
44 1 2.54748 4.80464 16.5634
121 2 1.93371 5.61981 16.0951
74 1 -3.99531 6.93207 14.9057
280 1 -5.63508 10.6667 16.8141
252 1 -8.88257 10.5493 17.188
132 2 2.70643 6.13649 13.0829
348 1 -4.86753 9.88694 13.9816
162 2 -3.01803 6.51505 14.4079
163 2 -4.04473 6.95129 16.0765
164 2 -4.36518 8.00535 14.5491
166 2 -6.74211 9.4326 13.4993
233 3 -1.60062 10.1368 17.4697
338 2 -1.51915 7.24952 16.378
231 4 -0.551209 9.21423 16.734
232 1 -0.461885 7.34282 17.0427
12 4 4.26226 4.857 11.7389
235 2 0.456209 6.94732 16.4675
238 4 -7.14802 10.295 9.75774
336 2 -0.752834 10.7426 14.4036
241 2 -5.67833 9.51466 10.1418
242 3 -6.95882 11.7999 10.2724
140 2 -0.368665 11.8493 9.01756
120 2 3.00417 4.13457 15.7515
334 2 -0.139587 9.00264 14.2238
351 2 -5.24537 10.0835 12.9456
159 2 -4.4136 4.71277 13.3558
284 2 -5.31698 9.58858 16.4498
256 2 -8.41693 10.5528 16.1863
289 4 -2.57135 7.67073 11.9935
291 1 -1.92596 9.44855 12.1456
292 3 -2.57204 7.17879 10.397
293 1 -1.37702 6.65643 12.9367
294 2 -3.93552 7.23118 12.9454
298 2 -1.3002 9.80328 11.2481
299 2 -1.32787 9.56251 13.2884
300 2 -2.99807 9.84806 12.1146
301 2 -0.98164 5.69882 12.3923
302 2 -1.69874 6.38529 14.0254
303 2 -0.532659 7.44929 13.0006
333 1 -0.193049 9.92803 14.8911
349 2 -5.4757 9.2424 14.6632
350 2 -3.74037 9.51592 13.9629
122 2 2.00448 4.22022 17.3565
8 4 4.01099 5.63887 17.3626
134 2 3.98788 5.56361 14.2619
288 4 -2.60896 6.72678 8.86258
174 2 2.75603 7.7752 9.91319
54 1 3.8022 6.05654 13.2526
130 2 2.21909 5.35011 10.6436
67 1 11.3786 4.63242 8.44853
16 4 7.48257 6.50238 0.757921
17 4 10.3817 3.90436 6.96837
347 2 13.8762 1.02241 2.03865
324 2 14.8812 4.43458 3.80557
184 2 14.311 2.86836 7.34563
65 1 8.99015 2.62267 7.69268
66 1 11.5385 3.09461 5.57296
341 2 13.3482 3.27583 2.32393
62 3 5.26759 5.44448 2.60874
71 3 7.29878 5.66396 4.66305
72 3 9.44699 5.13895 6.22583
138 2 10.4223 -1.0011 7.56513
139 2 11.997 -1.35874 8.5646
147 2 8.70587 1.98237 6.75107
148 2 7.99071 3.03198 8.09584
150 2 11.1341 3.49647 4.61032
151 2 11.4117 1.98745 5.69487
152 2 12.5093 3.47552 5.88959
372 2 16.688 0.781945 3.83373
157 2 10.3859 5.9764 3.70033
177 4 15.7376 1.12409 7.83737
64 2 6.69089 5.38047 1.72243
223 1 11.6812 6.22473 0.492414
225 2 10.7689 5.88324 1.11211
343 2 11.8737 4.55567 1.63263
342 2 11.7755 3.85491 3.41477
259 4 11.9188 2.17157 1.02283
262 2 10.6027 2.57166 2.25096
304 4 15.4007 0.0949039 4.76611
305 1 14.8761 1.55972 3.68119
306 3 15.563 0.493482 6.28727
307 2 13.6713 1.19389 3.8298
308 2 15.2305 1.30126 2.6057
309 2 15.113 2.71408 4.05227
346 2 12.2424 -0.0126016 1.3954
340 1 12.1294 3.63976 2.3388
149 2 9.53151 2.02854 8.50534
344 1 13.0912 0.756693 1.11172
319 2 13.3084 1.85468 8.59632
345 2 13.6294 0.582232 0.150408
316 1 14.3395 2.2796 8.38192
182 3 17.1271 1.3953 8.48301
155 2 12.1671 3.86272 8.59032
68 3 6.56817 3.77897 8.76189
370 3 8.55638 5.83131 0.107771
323 2 15.915 3.59307 5.31232
317 2 14.7787 2.84217 9.22064
51 1 7.49713 2.0732 12.6565
187 1 17.8181 -0.00991581 12.3958
311 2 15.9191 -1.85988 14.2732
76 3 6.53495 3.55198 14.711
368 2 15.1353 -2.227 16.1366
127 2 8.31426 2.66749 13.0983
128 2 7.41104 2.26376 11.5366
369 2 16.7651 -2.85101 16.7346
310 4 17.4906 -2.64185 14.6505
161 2 13.3543 3.38712 14.0981
169 2 8.70042 4.53774 10.5755
153 2 10.6136 4.65072 9.27669
193 2 17.0696 0.257708 11.5406
315 2 19.6684 -2.2788 15.9581
77 3 7.76047 3.68393 17.2689
366 1 15.9321 -2.92201 15.863
260 4 12.3938 -0.0357412 15.5529
261 4 12.8389 -2.31798 13.1448
263 3 12.8339 -0.672215 17.1771
264 1 13.1711 1.64607 15.0629
265 1 10.4905 0.222862 15.8184
266 3 12.6729 -1.25983 14.3457
194 2 17.4839 0.224665 13.4275
269 1 11.6387 -1.85087 11.7799
270 2 13.3507 1.43741 13.9008
271 2 14.0982 2.11556 15.5807
272 2 12.1763 2.25088 15.2693
273 2 10.1896 0.346335 14.7078
274 2 10.32 1.24887 16.6
275 2 10.0396 -0.700887 16.1856
276 2 12.4463 -1.85131 10.9345
277 2 11.0486 -0.949885 11.8957
195 2 18.3065 -1.03 12.2418
318 2 14.5252 0.454178 9.02753
227 2 13.1671 2.47917 16.9465
312 1 18.8691 -1.64546 15.3645
313 2 18.3165 -0.809185 15.9454
73 1 13.4879 4.4128 13.6172
63 3 4.70747 6.16546 5.22406
23 4 7.13706 8.83738 2.89125
24 4 3.44125 11.1294 5.21915
25 4 5.63266 11.2665 1.75964
26 4 7.42232 7.99652 7.86099
28 4 5.84189 10.3714 6.82287
364 2 2.43884 11.5069 0.336368
156 2 8.98973 7.11475 3.04618
83 3 6.22418 7.8701 3.72415
84 3 8.10647 7.94078 1.7921
85 3 8.14432 10.1061 3.65796
86 3 2.81973 10.3178 3.92439
87 3 4.23616 12.6614 4.38367
88 3 2.11431 11.4372 6.13683
89 3 6.20735 9.87776 1.95167
90 2 4.98506 12.0191 3.08877
92 3 8.25627 7.67022 6.58565
371 3 6.72088 12.194 1.1405
97 3 7.1773 10.6509 6.00459
98 3 4.49409 10.4087 6.08677
99 3 5.79911 8.69559 7.48042
100 2 5.83749 11.4206 8.13659
255 2 8.50651 9.94191 0.599817
123 2 3.6296 8.29351 6.59956
70 1 9.61522 6.8134 3.9692
19 4 8.60742 6.17884 5.38444
158 2 10.1858 7.68614 4.49486
222 4 11.432 7.93123 0.329513
229 2 9.5498 11.4826 5.36546
228 4 8.40145 10.2482 5.18855
373 2 4.2663 11.1679 0.651282
230 2 9.19646 8.89394 5.86757
249 2 10.8348 9.9106 7.681
224 2 10.508 8.83907 1.37264
58 1 0.21605 12.3043 8.21839
251 1 9.09286 10.7142 0.0290847
91 3 7.08868 6.6598 8.62459
124 2 3.75764 7.20172 8.26271
15 4 5.90544 6.38209 4.18532
226 2 12.9552 7.35189 1.18255
154 2 11.7079 5.65132 8.15569
14 4 0.63953 11.117 6.70259
253 2 9.90598 11.2623 0.68181
18 4 6.61657 5.52472 9.58243
362 2 3.35324 7.6742 16.1653
21 4 6.78292 4.4905 16.0806
22 4 10.7976 7.24787 13.5757
27 4 4.52486 9.19761 10.4856
29 4 7.89247 7.13213 14.8942
30 4 6.95507 8.80726 12.6848
69 3 5.22265 5.58488 10.5168
75 3 13.1072 5.11407 16.4013
20 4 13.4172 5.79959 14.9121
78 3 5.47051 4.9006 16.715
244 2 9.18847 11.7337 10.4081
80 1 8.11483 5.4365 10.7642
81 1 11.1195 6.4131 11.8586
82 3 12.1033 6.86677 14.5301
254 2 10.9418 6.94456 16.6163
94 2 4.20437 10.8359 10.4451
95 1 3.02322 8.24977 10.9704
367 2 4.79538 10.091 15.7966
101 3 7.45609 5.92515 15.8694
102 3 9.3101 6.88437 14.1507
103 3 8.3186 8.39864 16.0857
104 3 8.28083 8.60994 11.6085
105 3 5.63308 8.91082 11.6012
106 3 6.71522 7.51459 13.7989
107 3 7.09888 10.164 13.5409
133 2 4.23589 7.05892 13.1198
335 2 0.809261 10.3445 15.3815
268 2 3.62176 11.2621 12.8651
240 3 10.6317 9.49673 10.3353
165 2 10.9364 9.23414 12.1312
167 2 10.4485 9.63045 13.9589
168 2 8.69588 6.41398 10.6225
170 2 7.50963 5.3379 11.7478
171 2 11.7963 5.43499 12.0774
172 2 11.6888 7.09963 11.2302
173 2 10.0669 6.0924 11.4877
175 2 2.35997 9.1526 11.3214
237 4 8.71799 9.34553 10.2718
239 1 8.1991 11.1419 10.5178
245 2 7.75184 11.1464 11.5494
250 4 9.22097 8.75689 17.286
246 2 7.44253 11.3544 9.67649
96 2 5.12752 9.01163 8.88557
278 2 0.229641 11.1521 11.8508
267 2 1.38616 10.1952 13.713
160 2 12.7407 4.66628 12.7137
361 1 4.16422 7.61077 16.9376
176 2 3.34207 7.4205 11.874
363 2 5.14179 7.96134 16.505
79 1 11.157 9.11668 13.2573
93 3 8.18051 9.0077 8.78784
ITEM: TIMESTEP
100
ITEM: NUMBER OF ATOMS
373
ITEM: BOX BOUNDS xy xz yz pp pp pp
-1.0794400000000000e+01 2.0438599999999997e+01 -1.0794400000000000e+01
-3.3318250000000003e+00 1.4057499999999999e+01 1.3894000000000000e+00
0.0000000000000000e+00 1.7550000000000001e+01 -3.3318250000000003e+00
ITEM: ATOMS id type x y z
3 4 4.6647 1.3588 2.84478
4 4 6.4611 -1.23048 7.02086
5 4 5.86909 1.48217 5.54642
7 4 4.19264 4.44007 2.09522
9 4 5.25899 3.40255 8.01326
117 2 2.3305 3.98971 0.54682
33 3 5.87713 0.56661 2.21295
34 2 3.35526 0.417033 2.43498
356 1 -1.44613 5.19419 8.50042
36 3 4.68757 1.3727 4.39906
37 3 6.20249 0.0492447 6.15852
41 3 4.31115 2.85482 2.32272
42 1 3.15078 4.87582 0.613815
43 2 2.57053 5.04145 2.44041
325 1 -0.19474 4.96135 5.5412
46 3 5.56519 2.48552 6.81382
214 2 -3.45059 5.70878 0.344654
48 3 4.29742 4.55285 7.58019
328 2 0.535917 4.87633 4.68469
321 1 -3.54735 4.54973 4.98173
359 2 -1.02324 5.04896 7.38182
204 1 -2.38615 5.53507 0.0963652
330 2 8.11091 -0.172659 4.08385
178 4 1.81555 1.20013 6.68866
35 2 5.99932 -1.04067 8.71338
181 1 2.0702 2.65177 5.4737
61 2 7.21766 2.23524 4.8994
183 3 0.729815 1.60281 7.76337
326 2 -0.627251 3.95657 5.95504
190 2 2.16623 1.93789 4.51111
191 2 3.0348 3.00327 5.94724
192 2 1.28691 3.43204 5.45593
199 4 -1.11393 4.76788 1.2522
200 4 -1.86382 5.25799 4.40028
202 2 0.653048 5.01171 1.23605
203 1 0.0207147 3.27021 0.682709
205 3 -1.58439 4.81933 2.73396
210 2 -1.00663 2.55974 0.756284
211 2 0.793657 2.94172 1.4097
119 2 2.8139 5.92235 0.551049
320 2 3.19857 0.433959 7.29187
331 2 9.19907 -0.382564 2.57496
337 2 1.20843 0.0277208 5.63712
322 2 -4.07838 5.28418 5.63825
257 2 1.39433 0.000821663 0.259885
2 4 4.03283 -0.686999 10.685
6 4 4.16748 -0.0571039 14.0683
287 2 7.83465 -1.12014 16.035
32 1 5.86024 -0.278414 10.5202
38 3 3.48647 -0.338773 12.2058
39 3 5.03219 -1.43518 14.64
40 1 2.83566 0.108517 15.303
50 3 5.09541 1.39031 14.1388
52 1 2.56049 4.57502 10.8344
111 2 5.60535 0.577118 9.61885
112 2 6.73248 -1.00528 10.3287
113 2 6.16254 0.294549 11.449
114 2 1.95024 -0.244743 14.5952
115 2 2.95315 1.20485 15.6589
116 2 3.19426 -0.721374 16.087
129 2 2.87199 3.9788 9.86359
131 2 1.81057 3.94018 11.5814
213 2 -0.382127 3.18898 17.4985
180 4 0.461236 1.0271 11.8982
185 2 2.04646 0.301059 12.0246
186 3 -0.0119327 1.43068 10.3485
188 1 0.649519 2.80282 12.8046
196 2 0.181471 3.62245 12.1601
197 2 1.62757 3.03873 13.2296
198 2 -0.114457 2.34471 13.6581
45 2 4.346 2.48375 9.081
189 2 -0.416572 3.62467 9.05459
314 2 0.372223 -1.47675 14.3495
215 2 -0.840681 1.48164 16.6647
285 2 8.13899 -2.34307 14.5997
279 4 5.84418 -2.65015 15.2903
212 2 1.85171 0.049231 17.167
281 1 7.671 -2.1612 15.6158
11 4 6.00424 2.74964 13.7
286 2 8.19321 -2.88325 16.4338
53 3 5.02243 3.62924 12.4501
339 2 3.14635 0.375516 9.69455
179 4 -0.320965 1.90247 8.82428
283 2 5.46177 -2.64202 17.5482
120 2 2.74973 3.91098 16.1733
118 2 5.42197 1.36215 17.3468
357 2 -2.27182 4.43615 8.84197
329 1 -2.51278 13.261 3.08395
327 2 -0.241093 5.90707 6.10424
31 1 -4.83752 11.7473 1.96788
49 1 3.16947 7.47517 7.18698
55 1 2.37136 7.36486 4.09577
332 2 -2.35796 12.1884 3.32876
57 2 0.841085 8.47967 3.64871
59 1 -0.567428 11.375 5.20503
60 1 0.435985 9.18685 7.40342
1 4 -3.87857 13.4291 1.82086
108 2 -4.90303 11.2394 0.962924
109 2 -5.81424 11.9137 2.46611
110 2 -4.18278 11.2648 2.72463
352 1 -3.63168 11.3125 6.12819
365 2 -2.49076 12.1729 7.11189
125 2 2.12586 8.18376 7.20983
236 2 -1.92014 9.89583 0.557358
137 2 2.64777 7.50684 5.2119
141 2 -1.71579 11.3923 5.56141
145 2 0.864526 8.4455 6.62251
144 2 0.974472 9.21106 8.3768
248 2 -7.31507 11.152 7.39503
146 2 -0.642022 9.10923 7.57299
201 4 -2.418 8.47451 4.23764
206 1 -1.99697 8.8985 2.42487
207 3 -1.96822 6.96174 4.44244
208 1 -4.31677 8.47438 4.68338
209 2 -1.63084 9.75953 5.21459
216 2 -1.16115 8.2047 2.22731
217 2 -1.64837 9.97216 2.35336
218 2 -3.00113 8.70952 1.88029
219 2 -4.55042 8.80233 3.53924
220 2 -4.57106 9.19325 5.51261
221 2 -4.71243 7.44203 4.84092
142 2 -0.148713 10.5326 4.59309
354 2 -3.40605 10.2675 6.30077
243 1 -7.22232 10.1618 7.89001
247 2 -6.27243 9.62765 7.60877
353 2 -5.27339 11.2603 6.55201
360 2 -4.62418 6.69437 7.97065
355 2 -3.50307 11.6737 5.01486
297 2 -4.09651 8.66754 8.42225
290 1 -3.82431 7.75985 7.79042
295 2 -3.99595 7.98663 6.6847
296 2 -1.97909 7.9694 7.73272
136 2 1.43284 6.75475 3.89095
234 2 -0.754007 11.738 0.282423
135 2 3.32799 6.94283 3.50552
47 2 2.31421 6.0476 6.31324
140 2 -0.763498 11.971 8.6822
56 3 2.38368 9.01764 1.56942
143 2 -0.385574 12.3544 4.67335
10 4 4.01994 5.80413 6.53758
122 2 0.426038 8.04334 0.102894
282 2 -6.93431 10.5075 16.8053
44 1 2.43073 4.8792 16.715
121 2 1.92414 5.61105 16.0252
74 1 -4.10687 7.02786 15.1722
280 1 -5.75998 10.5713 16.8206
252 1 -8.92073 10.5232 17.1827
132 2 2.69441 6.15638 13.122
348 1 -4.82364 9.83429 13.9435
162 2 -3.1447 6.6443 14.7328
163 2 -4.11077 6.98748 16.2856
164 2 -4.424 8.10892 14.7783
166 2 -6.71441 9.49603 13.4253
233 3 -1.66974 10.131 17.5286
338 2 -1.85609 7.30069 16.968
231 4 -0.590479 9.18884 16.8082
232 1 -0.688153 7.23421 17.1621
12 4 4.2551 4.90291 11.6751
235 2 -0.184419 6.75987 16.2512
238 4 -7.09093 10.2918 9.72791
336 2 -1.21061 10.4276 14.7299
241 2 -5.69844 9.50153 10.2531
242 3 -7.01211 11.8174 10.2015
79 1 -7.88443 9.21599 13.1426
159 2 -4.41192 4.81894 13.5251
334 2 -0.156469 8.92418 14.2139
351 2 -4.87439 10.0237 12.8647
130 2 2.21001 5.62071 10.6853
284 2 -5.22877 9.54852 16.9678
256 2 -8.8937 10.7844 16.0793
289 4 -2.65589 7.57721 12.0605
291 1 -2.01227 9.37738 12.1268
292 3 -2.74045 7.1349 10.4179
293 1 -1.54741 6.4818 13.0959
294 2 -4.00781 7.26705 13.2313
298 2 -1.45534 9.7139 11.1677
299 2 -1.4346 9.47649 13.2003
300 2 -2.99052 9.88751 12.1882
301 2 -1.52985 5.47017 12.4764
302 2 -1.81521 6.38626 14.1966
303 2 -0.570667 7.2547 12.9003
333 1 -0.396372 9.68998 14.9819
349 2 -5.59943 9.09372 14.33
350 2 -3.82301 9.3592 14.2118
358 2 -0.674727 5.44905 9.30539
54 1 3.8198 6.02837 13.1947
134 2 4.14515 5.52745 14.1395
288 4 -2.59946 6.68308 8.87184
67 1 11.5713 4.55843 8.50742
16 4 7.48457 6.50668 0.750467
17 4 10.4385 3.95889 7.05877
347 2 13.8815 0.982355 2.00934
324 2 15.0313 4.36033 4.0338
184 2 14.7246 3.16131 7.42242
65 1 9.01235 2.60089 7.64299
66 1 11.365 3.00253 5.60113
341 2 13.4961 3.26687 2.07833
62 3 5.33638 5.45082 2.56394
71 3 7.34177 5.56832 4.80323
72 3 9.59208 5.15322 6.36676
138 2 11.2185 -0.814617 8.01541
155 2 12.6005 3.96165 8.422
147 2 8.83172 2.21973 6.62433
148 2 8.1369 3.16772 8.14886
150 2 11.4211 3.62961 4.66992
151 2 10.7912 2.02588 5.41706
152 2 12.4275 2.85029 6.13484
372 2 16.8222 0.533741 3.8608
157 2 10.314 5.80532 3.62481
177 4 15.6941 1.16428 7.71975
64 2 6.79459 5.3607 1.84414
223 1 11.596 6.24817 0.482093
225 2 10.5406 5.90163 1.10958
343 2 12.108 4.68372 1.6227
342 2 12.0501 3.84748 3.3174
259 4 11.8314 2.25409 1.01334
262 2 10.6772 2.6075 2.36215
304 4 15.4081 0.0807175 4.84052
305 1 15.1506 1.45741 3.52284
306 3 15.4875 0.671417 6.29604
307 2 13.7853 1.12996 3.7831
308 2 15.512 1.34183 2.45318
309 2 15.4604 2.4831 3.98867
346 2 12.1335 0.0400747 1.39419
340 1 12.3218 3.67518 2.25938
149 2 9.68365 1.88599 8.28868
344 1 13.0481 0.815359 1.10819
319 2 13.3836 1.79319 8.17021
345 2 13.5723 0.583454 0.03649
316 1 14.3499 2.33402 8.35144
182 3 17.2062 1.40581 8.37549
370 3 8.58997 5.85697 0.182539
323 2 15.681 3.61454 5.56967
258 2 18.5731 0.320399 0.222974
226 2 12.9193 6.7715 1.34634
317 2 14.246 2.96282 9.31063
51 1 7.60812 2.29112 12.8319
187 1 17.9897 0.093269 12.5254
311 2 15.9005 -1.81485 14.4227
76 3 6.61774 3.63849 14.8848
368 2 14.9489 -2.49715 16.1656
127 2 8.3414 2.77207 13.5961
128 2 7.46993 2.937 11.8581
68 3 6.53049 3.82796 8.86519
310 4 17.5132 -2.65925 14.6257
161 2 13.5291 3.40441 14.2231
169 2 8.57429 4.07258 10.6348
153 2 11.0177 4.29799 9.43898
193 2 17.1866 0.214513 11.7559
313 2 18.4548 -0.835709 15.7779
126 2 7.80907 1.22238 12.6701
315 2 19.678 -2.37084 16.0735
260 4 12.2703 0.0280403 15.5823
261 4 12.5712 -2.37261 13.2496
263 3 12.8947 -0.534924 17.1153
264 1 13.3392 1.59006 15.1318
265 1 10.4475 0.508123 15.6828
266 3 12.2587 -1.01389 14.3413
194 2 17.7197 0.498802 13.528
269 1 11.8283 -1.89342 11.6192
270 2 13.6433 1.47526 14.0815
271 2 14.1555 1.91854 15.7867
272 2 12.3805 2.30704 15.1931
273 2 9.89626 0.864883 14.7036
274 2 10.2794 1.35021 16.5844
275 2 10.0582 -0.487433 16.0292
276 2 12.8189 -1.39677 11.2306
277 2 10.8913 -1.20682 11.7494
195 2 18.568 -0.944667 12.5603
318 2 14.4307 0.500976 8.89224
227 2 13.1719 2.3606 16.9637
312 1 18.9276 -1.75562 15.3254
63 3 4.83318 6.13257 5.23303
23 4 7.17242 8.82316 2.80947
24 4 3.41607 11.0607 5.20243
25 4 5.63101 11.2907 1.67962
26 4 7.51446 7.96 7.91775
28 4 5.84942 10.2031 6.8721
364 2 2.60816 11.7732 0.0841803
156 2 9.15572 7.19392 3.05984
83 3 6.24844 7.83698 3.79478
84 3 8.17244 7.97884 1.86752
85 3 8.27504 9.86471 3.65266
86 3 3.03945 10.1462 3.97765
87 3 4.27874 12.6301 4.41449
88 3 2.15312 11.3965 6.22028
89 3 6.10921 9.79497 1.93311
90 2 5.00948 12.015 3.10561
92 3 8.33818 7.69424 6.62062
371 3 6.70699 12.2578 1.11321
97 3 7.23216 10.6109 6.0805
98 3 4.52704 10.3332 5.92129
99 3 5.86238 8.78034 7.56281
100 2 5.70115 11.3727 8.07413
255 2 8.60644 9.8861 0.833675
123 2 3.88844 8.20186 6.59736
70 1 9.7515 6.74766 3.93045
19 4 8.66838 6.23984 5.34276
158 2 10.4652 7.51096 4.43105
222 4 11.492 7.90136 0.460096
229 2 9.44196 11.5607 5.14658
228 4 8.3948 10.2753 5.17378
373 2 4.16359 11.3806 0.70771
230 2 9.23104 9.00952 5.96955
249 2 10.8503 9.45265 7.83675
224 2 11.0691 9.03425 1.67871
58 1 0.266378 12.1625 8.32006
251 1 9.00954 10.6668 0.156477
91 3 7.18957 6.60069 8.75936
124 2 3.58818 7.23948 8.28888
15 4 5.98677 6.32968 4.21437
13 4 2.40913 9.00955 3.13231
154 2 11.7485 5.63473 8.34219
14 4 0.691253 11.1326 6.82363
253 2 9.81252 11.3568 0.645186
18 4 6.61883 5.51623 9.7389
362 2 3.31182 7.41616 16.091
21 4 6.84042 4.5882 16.2163
22 4 10.8404 7.29963 13.494
27 4 4.59086 9.3018 10.5728
29 4 8.01256 7.27186 14.897
30 4 6.97044 8.81958 12.635
69 3 5.44959 5.91623 10.7345
75 3 13.1359 5.15042 16.5485
20 4 13.3135 5.82082 15.087
78 3 5.27286 4.93989 16.8582
244 2 9.04095 11.8368 10.8085
80 1 8.17256 5.13966 10.8634
81 1 11.101 6.2879 11.9076
82 3 12.1448 6.61742 14.4284
254 2 10.763 6.8366 16.7207
94 2 4.5359 10.9941 10.0687
95 1 3.14199 8.29374 10.9617
367 2 4.67578 9.96663 15.342
101 3 7.51014 5.96232 15.6276
102 3 9.39636 6.90146 14.0438
103 3 8.36851 8.50568 15.958
104 3 8.13965 8.75103 11.4937
105 3 5.60596 9.04817 11.7452
106 3 6.75541 7.65417 13.7563
107 3 7.00211 10.2784 13.5203
133 2 4.28619 7.04705 13.1534
335 2 0.807117 10.322 15.685
268 2 3.36519 11.2577 13.0982
240 3 10.6487 9.59066 10.297
165 2 10.8706 9.3739 12.0375
167 2 10.4465 9.70167 13.8096
168 2 8.76727 6.08077 10.4131
170 2 7.82743 5.35321 11.9415
171 2 12.101 5.58619 12.115
172 2 11.3052 7.16785 11.1785
173 2 10.1541 5.65389 11.723
175 2 2.44949 9.13787 11.2755
237 4 8.71177 9.60934 10.2527
239 1 8.01359 11.3262 10.4521
245 2 7.17362 11.2984 11.2657
250 4 9.12953 8.77538 17.4422
246 2 7.65905 11.6714 9.44108
96 2 5.25696 8.81263 9.04693
278 2 0.74113 11.1054 11.2302
267 2 0.978277 10.191 13.6792
93 3 8.23483 9.1041 8.85203
361 1 4.2615 7.62503 16.8389
176 2 3.34412 7.45511 11.7961
363 2 5.11081 7.95514 16.2444
366 1 5.0746 10.9157 15.8012
73 1 13.5365 4.47589 13.7955
160 2 12.6794 4.62773 12.8736
139 2 1.06902 11.8294 9.13205
369 2 5.91849 10.712 16.6454
174 2 2.95144 7.90253 9.91729
8 4 3.96701 5.73325 17.4261
77 3 7.81351 3.768 17.2536
ITEM: TIMESTEP
200
ITEM: NUMBER OF ATOMS
373
ITEM: BOX BOUNDS xy xz yz pp pp pp
0.0000000000000000e+00 2.8693399999999997e+01 8.2547999999999995e+00
-3.3230500000000003e+00 1.4057499999999999e+01 1.3894000000000000e+00
0.0000000000000000e+00 1.7550000000000001e+01 -3.3230500000000003e+00
ITEM: ATOMS id type x y z
3 4 4.55673 1.42656 2.86095
4 4 6.47747 -1.2544 7.11651
5 4 5.9218 1.53591 5.4857
7 4 4.17909 4.40493 2.0484
9 4 5.2118 3.42997 7.87739
342 2 11.9893 3.72948 3.41405
33 3 5.66549 0.590087 2.1874
34 2 3.12219 0.618915 2.50688
337 2 1.59972 -0.185798 5.75735
36 3 4.67634 1.44152 4.50214
37 3 6.1496 0.0954001 6.3084
41 3 4.40637 2.88743 2.34101
42 1 3.18444 5.02728 0.589129
63 3 4.87487 5.99096 5.28934
320 2 3.3161 0.857896 7.534
46 3 5.70167 2.6631 6.61524
191 2 3.23166 2.90537 5.8127
48 3 4.24631 4.65277 7.63383
68 3 6.48815 3.87528 8.79105
61 2 7.30748 1.84286 4.63161
154 2 11.9753 5.36484 8.21841
330 2 8.07512 -0.0210357 3.91785
67 1 11.686 4.30751 8.564
343 2 12.0386 4.58764 1.67021
16 4 7.59676 6.68006 0.64194
17 4 10.368 3.87167 7.07386
370 3 8.59784 5.87709 0.047632
65 1 9.04541 2.71154 7.94381
66 1 11.3962 3.03984 5.65928
62 3 5.33444 5.46706 2.66122
71 3 7.51275 5.58676 4.61253
72 3 9.66393 5.07086 6.31565
283 2 4.35105 0.530531 0.0420883
155 2 12.6007 3.51566 8.40108
147 2 8.7992 1.96274 7.13788
148 2 8.12097 3.26523 8.20858
150 2 11.2747 3.46136 4.55022
151 2 10.8129 1.99707 5.8239
157 2 10.761 6.03141 3.88876
64 2 6.55361 5.60295 1.62166
223 1 11.7448 6.23364 0.521258
262 2 10.7297 2.56677 2.37604
225 2 10.6048 6.00667 1.11696
190 2 2.18452 2.16726 4.42287
2 4 3.98263 -0.66411 10.6249
6 4 4.15812 -0.0860407 14.053
287 2 7.66119 -1.11314 16.11
32 1 5.81472 -0.344789 10.638
38 3 3.54944 -0.182613 12.3153
39 3 5.04558 -1.33296 14.6628
118 2 5.51299 1.34126 17.3564
50 3 5.05802 1.30369 14.1482
264 1 13.1283 1.52839 15.071
111 2 5.72593 0.56117 9.76446
112 2 6.50864 -1.25308 10.3789
113 2 5.89273 0.0427737 11.7992
339 2 2.95615 0.150714 9.52301
53 3 5.01191 3.62107 12.5238
116 2 2.55419 -0.986721 15.6859
286 2 8.30955 -2.9471 16.6044
11 4 5.8817 2.7112 13.6329
281 1 7.6985 -2.20274 15.8351
279 4 5.94179 -2.72691 15.3816
285 2 8.04917 -2.30006 14.778
35 2 6.06516 -1.13603 8.80685
51 1 7.49285 2.06315 12.9041
76 3 6.34944 3.62768 14.8387
227 2 13.2313 2.40173 16.9009
127 2 8.28426 2.59052 13.5791
128 2 7.35669 2.53591 11.8315
265 1 10.2372 0.428502 15.6605
260 4 12.0739 -0.0307264 15.6488
275 2 9.79025 -0.535525 16.1137
274 2 10.1553 1.395 16.4969
273 2 9.93513 0.551327 14.558
272 2 12.2418 2.33063 15.2189
161 2 13.4346 3.41227 14.3371
169 2 8.37542 4.07309 10.7906
153 2 10.9612 4.1943 9.45571
126 2 7.5321 0.895691 12.9741
45 2 4.34061 2.38379 8.8191
149 2 9.47653 2.20679 8.87323
329 1 16.5198 13.3026 3.1143
295 2 15.0968 8.13465 6.50388
31 1 14.0879 11.6382 1.83313
290 1 15.3265 7.71267 7.63015
297 2 14.8619 8.40406 8.34587
332 2 16.5602 12.2527 3.55986
355 2 15.7456 11.9714 5.02373
257 2 9.52746 13.6357 0.394971
353 2 13.8781 11.2595 6.47679
1 4 15.0999 13.2746 1.84834
108 2 14.0399 11.3661 0.745168
109 2 13.0756 11.8231 2.28449
110 2 14.7894 11.0044 2.46056
352 1 15.5875 11.4802 6.0039
365 2 16.5298 12.151 7.22019
247 2 12.7335 9.65999 7.63945
243 1 11.7784 10.3239 7.93509
354 2 15.9656 10.4241 5.94647
221 2 14.2236 7.80548 4.92877
220 2 14.6887 9.61755 5.33549
219 2 14.605 9.14633 3.42001
248 2 11.7504 11.3966 7.61811
208 1 14.7588 8.75152 4.5767
360 2 14.6436 6.37587 7.75196
253 2 9.84067 11.2291 0.896238
23 4 7.13722 8.84361 2.82802
226 2 13.0848 6.83248 1.34246
26 4 7.54561 8.06022 7.93418
15 4 6.08365 6.3356 4.20869
156 2 9.42173 7.14036 3.14587
89 3 6.18875 9.87542 2.02789
233 3 15.9478 13.317 0.153105
83 3 6.285 7.81833 3.78421
224 2 10.9416 8.97405 1.71767
249 2 10.8124 9.79533 7.71371
230 2 9.24791 9.05898 6.17384
84 3 8.22579 7.85747 1.79052
228 4 8.43751 10.2373 5.22069
229 2 9.66322 11.411 5.3512
222 4 11.5965 7.93651 0.554347
158 2 10.2919 7.7954 4.78284
19 4 8.74551 6.19862 5.37054
70 1 9.94514 6.82625 4.10654
85 3 8.26485 9.78629 3.75272
255 2 8.49376 10.0352 0.189552
92 3 8.31394 7.78069 6.45798
331 2 17.4196 13.5584 2.51474
282 2 12.1271 10.6073 16.926
350 2 15.304 9.5788 13.8298
349 2 13.5398 9.02787 14.1732
74 1 14.9687 7.07358 15.2277
280 1 13.2905 10.5174 16.7865
252 1 10.1235 10.6674 17.2345
300 2 16.0535 9.7038 11.9342
348 1 14.1895 9.8163 13.795
162 2 15.9529 6.52185 14.9627
163 2 14.8746 7.12322 16.3635
164 2 14.7059 8.10177 14.7057
166 2 12.2559 9.43593 13.3695
167 2 10.4464 9.55007 13.8483
294 2 15.149 7.01762 13.2884
291 1 17.0792 9.34852 12.1984
256 2 10.5327 10.661 16.1665
284 2 13.7381 9.44285 16.5395
351 2 13.8563 10.3242 12.8541
238 4 12.1022 10.2918 9.72572
336 2 17.642 10.456 14.8385
241 2 13.3361 9.21985 10.2353
242 3 12.3139 11.8884 10.1924
79 1 11.1635 9.14659 13.0964
159 2 14.6652 4.83949 13.5326
18 4 6.78863 5.4577 9.76239
77 3 7.93582 3.83981 17.0748
21 4 6.84657 4.61133 16.1386
22 4 10.9953 7.26912 13.5394
29 4 8.04634 7.19961 14.8227
75 3 13.1566 5.23302 16.6023
160 2 12.8923 4.65231 12.8297
73 1 13.5629 4.5326 13.819
20 4 13.3576 5.87133 15.0771
165 2 10.856 9.34058 11.9616
80 1 8.02396 5.14658 11.1232
81 1 11.1496 6.16726 12.0039
93 3 8.35718 9.13696 8.89858
82 3 12.169 6.82904 14.5988
254 2 11.1429 7.5786 16.5825
101 3 7.57169 5.89114 15.604
102 3 9.41199 6.94602 14.0315
250 4 9.10578 8.8981 17.2893
103 3 8.50347 8.49248 15.8132
104 3 8.20004 9.01105 11.6321
237 4 8.76136 9.67712 10.3216
240 3 10.6275 9.77522 10.3283
173 2 10.1165 5.731 11.7941
172 2 11.3532 7.05581 11.3242
171 2 11.8808 5.29447 12.1273
170 2 7.46085 5.12387 12.1028
168 2 8.89661 5.88016 11.1453
91 3 7.37255 6.68595 8.87209
299 2 17.4819 9.65041 13.2005
69 3 5.39009 5.69082 10.6022
251 1 10.5653 7.65153 17.5226
204 1 16.5595 5.62871 0.0912306
323 2 16.3673 3.44745 5.65699
182 3 17.2103 1.71573 8.26194
347 2 13.7728 0.85531 1.94938
324 2 15.0944 3.86546 4.25125
184 2 14.7595 3.29801 8.06355
316 1 14.1906 2.21534 8.36095
152 2 12.4829 3.07612 6.05079
341 2 13.484 3.25847 2.14992
319 2 13.3331 1.92555 7.6221
344 1 12.9994 0.735059 1.00549
340 1 12.3056 3.64581 2.27983
138 2 11.8764 -1.21274 8.55185
346 2 12.1572 -0.0567672 1.18699
309 2 15.6018 2.3322 3.65433
308 2 15.3297 0.862507 2.37309
307 2 13.8285 1.37533 3.76643
306 3 15.5612 0.601529 6.25603
178 4 20.9887 1.22867 6.63763
372 2 16.782 0.543499 3.87034
305 1 15.0909 1.39464 3.34366
177 4 15.7638 1.33854 7.77208
304 4 15.3316 0.0513202 4.68159
259 4 11.8738 2.18529 1.01145
117 2 21.2753 4.48401 0.367074
213 2 16.8548 6.69301 0.290113
322 2 15.1328 4.92127 5.80896
43 2 21.6165 4.97008 2.41935
325 1 18.9074 4.96405 5.55405
214 2 15.6117 5.30654 0.568406
119 2 22.065 6.14035 0.583911
211 2 19.5641 2.88704 1.23378
210 2 17.8346 2.62311 0.537533
205 3 17.6633 4.88246 2.83633
203 1 18.8469 3.28589 0.454836
202 2 19.4578 5.10106 0.604701
200 4 17.2275 5.24604 4.52822
199 4 17.7685 4.74764 1.23273
192 2 20.4874 3.49274 5.52671
328 2 19.6706 4.79563 4.72988