ITEM: TIMESTEP
0
ITEM: NUMBER OF ATOMS
373
ITEM: BOX BOUNDS xy xz yz pp pp pp
-1.0794400000000000e+01 2.0438599999999997e+01 -1.0794400000000000e+01
-3.3405999999999998e+00 1.4057499999999999e+01 1.3894000000000000e+00
0.0000000000000000e+00 1.7550000000000001e+01 -3.3405999999999998e+00
ITEM: ATOMS id type x y z
3 4 4.63716 1.3511 2.88143
4 4 6.3355 -1.25238 7.06241
5 4 5.95793 1.48154 5.50986
7 4 4.30669 4.37066 2.06584
9 4 5.22429 3.37765 7.9909
327 2 -0.0728501 5.77232 6.04858
33 3 5.91965 0.62539 2.10391
34 2 3.26674 0.531446 2.39725
356 1 -1.62017 5.18886 8.31953
36 3 4.65093 1.39804 4.45671
37 3 6.39903 0.0602617 6.09064
41 3 4.48732 2.84071 2.32766
42 1 3.1165 4.89922 0.641965
43 2 2.67935 4.90551 2.51896
325 1 -0.261828 4.85653 5.4167
46 3 5.57716 2.44624 6.71803
214 2 -3.25973 5.51241 0.429624
48 3 4.3253 4.57713 7.52041
328 2 0.588324 4.66222 4.59851
321 1 -3.5447 4.55243 4.80451
359 2 -1.06377 5.06865 7.25654
117 2 2.34017 4.02266 0.673152
330 2 7.98409 0.0882522 3.86988
178 4 1.80061 1.13267 6.78771
35 2 5.67949 -1.06042 8.68864
181 1 1.90048 2.58563 5.60314
329 1 8.31829 -0.432175 2.93454
183 3 0.622462 1.47915 7.87582
326 2 -0.489369 3.90673 6.04659
190 2 2.15931 2.08693 4.60243
191 2 2.9236 3.00154 6.08991
192 2 1.03627 3.36954 5.53938
199 4 -0.990433 4.61203 1.27176
200 4 -1.81153 5.26059 4.31146
202 2 0.738457 4.67732 1.51704
203 1 0.0786041 2.98475 0.799592
205 3 -1.39557 4.84254 2.72671
210 2 -1.02848 2.41608 0.799379
211 2 0.736925 2.72595 1.69582
119 2 2.72777 5.91462 0.739774
320 2 3.27738 0.663339 7.50729
10 4 4.01079 5.76903 6.52694
337 2 1.4484 -0.231693 5.93818
322 2 -4.13765 5.19947 5.49794
283 2 4.31617 0.314698 0.307706
61 2 7.2691 2.03364 4.56358
331 2 9.27437 -0.0223883 2.45924
204 1 -2.21697 5.43852 0.032735
213 2 -1.70038 6.51743 0.219409
357 2 -2.60955 4.47905 8.3639
2 4 3.93312 -0.609688 10.6967
6 4 4.05934 -0.101162 14.1296
287 2 7.4185 -0.907307 16.4776
32 1 5.80203 -0.335919 10.512
38 3 3.37678 -0.316767 12.2534
39 3 4.83748 -1.30602 14.7599
40 1 2.71212 0.198531 15.2857
50 3 5.05895 1.35568 13.957
52 1 2.64176 4.34305 10.8401
111 2 5.7086 0.533072 9.71433
112 2 6.53343 -1.0534 10.1661
113 2 5.94373 0.0360977 11.6585
114 2 1.82413 0.23029 14.5859
115 2 2.87667 1.25788 15.6904
116 2 2.82109 -0.646394 16.0325
129 2 2.89944 3.74475 9.88747
131 2 1.83475 3.73435 11.7051
118 2 5.49937 1.37792 17.3777
180 4 0.329052 0.973937 11.9437
185 2 1.9218 0.161311 12.2176
186 3 0.0729344 1.35952 10.408
188 1 0.552727 2.73216 12.838
196 2 0.20647 3.60468 12.2036
197 2 1.61507 2.72763 13.2052
198 2 -0.321671 2.37735 13.5991
45 2 4.32198 2.37618 9.03543
189 2 -0.642913 3.55968 8.88913
314 2 0.213101 -1.32525 14.3438
215 2 -0.77458 1.69056 16.6027
285 2 8.01011 -1.80425 14.8723
279 4 5.95525 -2.58238 15.392
212 2 1.89592 -0.243938 17.3079
281 1 7.65313 -1.92307 15.974
11 4 5.94983 2.69083 13.5164
286 2 8.22826 -2.68822 16.7168
53 3 4.95415 3.65889 12.3528
339 2 3.02976 0.256394 9.57786
179 4 -0.484152 1.87624 8.97366
126 2 7.53785 1.01048 12.898
258 2 1.0749 -2.7169 17.3433
358 2 -0.913627 5.20755 9.27454
143 2 -0.635617 12.5742 5.06489
257 2 -9.54005 13.8987 0.512908
31 1 -4.93434 11.966 1.77691
49 1 3.13036 7.43299 7.16895
55 1 2.39298 7.37597 3.98108
332 2 -2.47077 12.3962 2.99317
57 2 0.805614 8.47452 3.6277
59 1 -0.769086 11.479 5.27203
60 1 0.41666 9.28708 7.2313
1 4 -3.86022 13.5634 1.63482
108 2 -4.80429 11.247 0.917135
109 2 -6.02631 12.4177 1.89388
110 2 -4.38162 11.5818 2.72495
352 1 -3.78066 11.1376 6.36825
365 2 -2.76182 11.9846 7.34122
125 2 2.00783 7.65265 7.41088
236 2 -1.95677 10.103 0.602467
137 2 2.55955 7.41259 5.20675
141 2 -1.8947 11.3257 5.67038
145 2 0.113238 8.71584 6.27848
144 2 1.33525 8.77545 7.78909
248 2 -7.12835 11.477 7.77079
146 2 -0.499461 9.26484 7.95003
201 4 -2.30991 8.49197 4.24159
206 1 -2.05059 9.09082 2.39746
207 3 -1.97145 6.94893 4.47565
208 1 -4.21725 8.4957 4.57103
209 2 -1.52719 9.6439 5.35666
216 2 -1.36838 8.17539 2.1317
217 2 -1.5607 10.0238 2.60582
218 2 -2.91954 9.18605 1.71957
219 2 -4.44242 8.90527 3.47299
220 2 -4.55708 9.2483 5.38603
221 2 -4.51826 7.41837 4.76931
142 2 -0.482719 10.7925 4.42532
354 2 -3.64758 10.0251 6.53468
243 1 -7.20956 10.3196 7.87716
247 2 -6.33543 9.71682 7.50582
353 2 -5.5252 11.3869 6.39423
360 2 -4.57379 6.47963 7.81671
355 2 -3.60728 11.4012 5.29996
297 2 -4.43437 8.33673 8.37716
290 1 -4.01812 7.52736 7.68831
295 2 -4.04919 7.86182 6.54294
296 2 -2.25698 8.15628 7.78097
136 2 1.62236 6.66341 3.68229
56 3 2.41899 8.97935 1.40548
135 2 3.45887 7.06733 3.38821
47 2 2.22166 5.96062 6.34067
234 2 -0.764442 11.9887 0.401377
13 4 2.37671 9.03983 3.07304
282 2 -6.8665 10.7436 16.8915
44 1 2.54748 4.80464 16.5634
121 2 1.93371 5.61981 16.0951
74 1 -3.99531 6.93207 14.9057
280 1 -5.63508 10.6667 16.8141
252 1 -8.88257 10.5493 17.188
132 2 2.70643 6.13649 13.0829
348 1 -4.86753 9.88694 13.9816
162 2 -3.01803 6.51505 14.4079
163 2 -4.04473 6.95129 16.0765
164 2 -4.36518 8.00535 14.5491
166 2 -6.74211 9.4326 13.4993
233 3 -1.60062 10.1368 17.4697
338 2 -1.51915 7.24952 16.378
231 4 -0.551209 9.21423 16.734
232 1 -0.461885 7.34282 17.0427
12 4 4.26226 4.857 11.7389
235 2 0.456209 6.94732 16.4675
238 4 -7.14802 10.295 9.75774
336 2 -0.752834 10.7426 14.4036
241 2 -5.67833 9.51466 10.1418
242 3 -6.95882 11.7999 10.2724
140 2 -0.368665 11.8493 9.01756
120 2 3.00417 4.13457 15.7515
334 2 -0.139587 9.00264 14.2238
351 2 -5.24537 10.0835 12.9456
159 2 -4.4136 4.71277 13.3558
284 2 -5.31698 9.58858 16.4498
256 2 -8.41693 10.5528 16.1863
289 4 -2.57135 7.67073 11.9935
291 1 -1.92596 9.44855 12.1456
292 3 -2.57204 7.17879 10.397
293 1 -1.37702 6.65643 12.9367
294 2 -3.93552 7.23118 12.9454
298 2 -1.3002 9.80328 11.2481
299 2 -1.32787 9.56251 13.2884
300 2 -2.99807 9.84806 12.1146
301 2 -0.98164 5.69882 12.3923
302 2 -1.69874 6.38529 14.0254
303 2 -0.532659 7.44929 13.0006
333 1 -0.193049 9.92803 14.8911
349 2 -5.4757 9.2424 14.6632
350 2 -3.74037 9.51592 13.9629
122 2 2.00448 4.22022 17.3565
8 4 4.01099 5.63887 17.3626
134 2 3.98788 5.56361 14.2619
288 4 -2.60896 6.72678 8.86258
174 2 2.75603 7.7752 9.91319
54 1 3.8022 6.05654 13.2526
130 2 2.21909 5.35011 10.6436
67 1 11.3786 4.63242 8.44853
16 4 7.48257 6.50238 0.757921
17 4 10.3817 3.90436 6.96837
347 2 13.8762 1.02241 2.03865
324 2 14.8812 4.43458 3.80557
184 2 14.311 2.86836 7.34563
65 1 8.99015 2.62267 7.69268
66 1 11.5385 3.09461 5.57296
341 2 13.3482 3.27583 2.32393
62 3 5.26759 5.44448 2.60874
71 3 7.29878 5.66396 4.66305
72 3 9.44699 5.13895 6.22583
138 2 10.4223 -1.0011 7.56513
139 2 11.997 -1.35874 8.5646
147 2 8.70587 1.98237 6.75107
148 2 7.99071 3.03198 8.09584
150 2 11.1341 3.49647 4.61032
151 2 11.4117 1.98745 5.69487
152 2 12.5093 3.47552 5.88959
372 2 16.688 0.781945 3.83373
157 2 10.3859 5.9764 3.70033
177 4 15.7376 1.12409 7.83737
64 2 6.69089 5.38047 1.72243
223 1 11.6812 6.22473 0.492414
225 2 10.7689 5.88324 1.11211
343 2 11.8737 4.55567 1.63263
342 2 11.7755 3.85491 3.41477
259 4 11.9188 2.17157 1.02283
262 2 10.6027 2.57166 2.25096
304 4 15.4007 0.0949039 4.76611
305 1 14.8761 1.55972 3.68119
306 3 15.563 0.493482 6.28727
307 2 13.6713 1.19389 3.8298
308 2 15.2305 1.30126 2.6057
309 2 15.113 2.71408 4.05227
346 2 12.2424 -0.0126016 1.3954
340 1 12.1294 3.63976 2.3388
149 2 9.53151 2.02854 8.50534
344 1 13.0912 0.756693 1.11172
319 2 13.3084 1.85468 8.59632
345 2 13.6294 0.582232 0.150408
316 1 14.3395 2.2796 8.38192
182 3 17.1271 1.3953 8.48301
155 2 12.1671 3.86272 8.59032
68 3 6.56817 3.77897 8.76189
370 3 8.55638 5.83131 0.107771
323 2 15.915 3.59307 5.31232
317 2 14.7787 2.84217 9.22064
51 1 7.49713 2.0732 12.6565
187 1 17.8181 -0.00991581 12.3958
311 2 15.9191 -1.85988 14.2732
76 3 6.53495 3.55198 14.711
368 2 15.1353 -2.227 16.1366
127 2 8.31426 2.66749 13.0983
128 2 7.41104 2.26376 11.5366
369 2 16.7651 -2.85101 16.7346
310 4 17.4906 -2.64185 14.6505
161 2 13.3543 3.38712 14.0981
169 2 8.70042 4.53774 10.5755
153 2 10.6136 4.65072 9.27669
193 2 17.0696 0.257708 11.5406
315 2 19.6684 -2.2788 15.9581
77 3 7.76047 3.68393 17.2689
366 1 15.9321 -2.92201 15.863
260 4 12.3938 -0.0357412 15.5529
261 4 12.8389 -2.31798 13.1448
263 3 12.8339 -0.672215 17.1771
264 1 13.1711 1.64607 15.0629
265 1 10.4905 0.222862 15.8184
266 3 12.6729 -1.25983 14.3457
194 2 17.4839 0.224665 13.4275
269 1 11.6387 -1.85087 11.7799
270 2 13.3507 1.43741 13.9008
271 2 14.0982 2.11556 15.5807
272 2 12.1763 2.25088 15.2693
273 2 10.1896 0.346335 14.7078
274 2 10.32 1.24887 16.6
275 2 10.0396 -0.700887 16.1856
276 2 12.4463 -1.85131 10.9345
277 2 11.0486 -0.949885 11.8957
195 2 18.3065 -1.03 12.2418
318 2 14.5252 0.454178 9.02753
227 2 13.1671 2.47917 16.9465
312 1 18.8691 -1.64546 15.3645
313 2 18.3165 -0.809185 15.9454
73 1 13.4879 4.4128 13.6172
63 3 4.70747 6.16546 5.22406
23 4 7.13706 8.83738 2.89125
24 4 3.44125 11.1294 5.21915
25 4 5.63266 11.2665 1.75964
26 4 7.42232 7.99652 7.86099
28 4 5.84189 10.3714 6.82287
364 2 2.43884 11.5069 0.336368
156 2 8.98973 7.11475 3.04618
83 3 6.22418 7.8701 3.72415
84 3 8.10647 7.94078 1.7921
85 3 8.14432 10.1061 3.65796
86 3 2.81973 10.3178 3.92439
87 3 4.23616 12.6614 4.38367
88 3 2.11431 11.4372 6.13683
89 3 6.20735 9.87776 1.95167
90 2 4.98506 12.0191 3.08877
92 3 8.25627 7.67022 6.58565
371 3 6.72088 12.194 1.1405
97 3 7.1773 10.6509 6.00459
98 3 4.49409 10.4087 6.08677
99 3 5.79911 8.69559 7.48042
100 2 5.83749 11.4206 8.13659
255 2 8.50651 9.94191 0.599817
123 2 3.6296 8.29351 6.59956
70 1 9.61522 6.8134 3.9692
19 4 8.60742 6.17884 5.38444
158 2 10.1858 7.68614 4.49486
222 4 11.432 7.93123 0.329513
229 2 9.5498 11.4826 5.36546
228 4 8.40145 10.2482 5.18855
373 2 4.2663 11.1679 0.651282
230 2 9.19646 8.89394 5.86757
249 2 10.8348 9.9106 7.681
224 2 10.508 8.83907 1.37264
58 1 0.21605 12.3043 8.21839
251 1 9.09286 10.7142 0.0290847
91 3 7.08868 6.6598 8.62459
124 2 3.75764 7.20172 8.26271
15 4 5.90544 6.38209 4.18532
226 2 12.9552 7.35189 1.18255
154 2 11.7079 5.65132 8.15569
14 4 0.63953 11.117 6.70259
253 2 9.90598 11.2623 0.68181
18 4 6.61657 5.52472 9.58243
362 2 3.35324 7.6742 16.1653
21 4 6.78292 4.4905 16.0806
22 4 10.7976 7.24787 13.5757
27 4 4.52486 9.19761 10.4856
29 4 7.89247 7.13213 14.8942
30 4 6.95507 8.80726 12.6848
69 3 5.22265 5.58488 10.5168
75 3 13.1072 5.11407 16.4013
20 4 13.4172 5.79959 14.9121
78 3 5.47051 4.9006 16.715
244 2 9.18847 11.7337 10.4081
80 1 8.11483 5.4365 10.7642
81 1 11.1195 6.4131 11.8586
82 3 12.1033 6.86677 14.5301
254 2 10.9418 6.94456 16.6163
94 2 4.20437 10.8359 10.4451
95 1 3.02322 8.24977 10.9704
367 2 4.79538 10.091 15.7966
101 3 7.45609 5.92515 15.8694
102 3 9.3101 6.88437 14.1507
103 3 8.3186 8.39864 16.0857
104 3 8.28083 8.60994 11.6085
105 3 5.63308 8.91082 11.6012
106 3 6.71522 7.51459 13.7989
107 3 7.09888 10.164 13.5409
133 2 4.23589 7.05892 13.1198
335 2 0.809261 10.3445 15.3815
268 2 3.62176 11.2621 12.8651
240 3 10.6317 9.49673 10.3353
165 2 10.9364 9.23414 12.1312
167 2 10.4485 9.63045 13.9589
168 2 8.69588 6.41398 10.6225
170 2 7.50963 5.3379 11.7478
171 2 11.7963 5.43499 12.0774
172 2 11.6888 7.09963 11.2302
173 2 10.0669 6.0924 11.4877
175 2 2.35997 9.1526 11.3214
237 4 8.71799 9.34553 10.2718
239 1 8.1991 11.1419 10.5178
245 2 7.75184 11.1464 11.5494
250 4 9.22097 8.75689 17.286
246 2 7.44253 11.3544 9.67649
96 2 5.12752 9.01163 8.88557
278 2 0.229641 11.1521 11.8508
267 2 1.38616 10.1952 13.713
160 2 12.7407 4.66628 12.7137
361 1 4.16422 7.61077 16.9376
176 2 3.34207 7.4205 11.874
363 2 5.14179 7.96134 16.505
79 1 11.157 9.11668 13.2573
93 3 8.18051 9.0077 8.78784
ITEM: TIMESTEP
100
ITEM: NUMBER OF ATOMS
373
ITEM: BOX BOUNDS xy xz yz pp pp pp
-1.0794400000000000e+01 2.0438599999999997e+01 -1.0794400000000000e+01
-3.3405999999999998e+00 1.4057499999999999e+01 1.3894000000000000e+00
0.0000000000000000e+00 1.7558775000000001e+01 -3.3405999999999998e+00
ITEM: ATOMS id type x y z
3 4 4.6647 1.35738 2.8462
4 4 6.4611 -1.23399 7.02437
5 4 5.86909 1.47939 5.54919
7 4 4.19264 4.43902 2.09626
9 4 5.25899 3.39855 8.01727
117 2 2.3305 3.98944 0.547093
33 3 5.87713 0.565503 2.21405
34 2 3.35526 0.415815 2.4362
356 1 -1.44613 5.18994 8.50467
36 3 4.68757 1.3705 4.40126
37 3 6.20249 0.0461655 6.1616
41 3 4.31115 2.85366 2.32388
42 1 3.15078 4.87551 0.614121
43 2 2.57053 5.04023 2.44163
325 1 -0.19474 4.95858 5.54397
46 3 5.56519 2.48212 6.81723
214 2 -3.45059 5.70861 0.344826
48 3 4.29742 4.54906 7.58398
328 2 0.535917 4.87399 4.68703
321 1 -3.54735 4.54724 4.98422
359 2 -1.02324 5.04527 7.38551
204 1 -2.38615 5.53502 0.0964134
330 2 8.11091 -0.174701 4.08589
178 4 1.81555 1.19678 6.692
35 2 5.99932 -1.04503 8.71774
181 1 2.0702 2.64903 5.47644
61 2 7.21766 2.23279 4.90185
183 3 0.729815 1.59893 7.76725
326 2 -0.627251 3.95359 5.95802
190 2 2.16623 1.93563 4.51336
191 2 3.0348 3.00029 5.95022
192 2 1.28691 3.42932 5.45866
199 4 -1.11393 4.76726 1.25283
200 4 -1.86382 5.25579 4.40248
202 2 0.653048 5.01109 1.23667
203 1 0.0207147 3.26987 0.68305
205 3 -1.58439 4.81796 2.73533
210 2 -1.00663 2.55937 0.756662
211 2 0.793657 2.94102 1.41041
119 2 2.8139 5.92207 0.551325
320 2 3.19857 0.430314 7.29551
331 2 9.19907 -0.383852 2.57625
337 2 1.20843 0.0249022 5.63994
322 2 -4.07838 5.28136 5.64107
257 2 1.39433 0.000691721 0.260015
2 4 4.03283 -0.692341 10.6904
6 4 4.16748 -0.064138 14.0753
287 2 7.83465 -1.12816 16.043
32 1 5.86024 -0.283674 10.5254
38 3 3.48647 -0.344876 12.212
39 3 5.03219 -1.4425 14.6474
40 1 2.83566 0.100866 15.3106
50 3 5.09541 1.38324 14.1458
52 1 2.56049 4.5696 10.8398
111 2 5.60535 0.572309 9.62366
112 2 6.73248 -1.01044 10.3338
113 2 6.16254 0.288825 11.4547
114 2 1.95024 -0.252041 14.6025
115 2 2.95315 1.19702 15.6668
116 2 3.19426 -0.729418 16.095
129 2 2.87199 3.97387 9.86852
131 2 1.81057 3.93439 11.5872
213 2 -0.382127 3.18023 17.5073
180 4 0.461236 1.02115 11.9042
185 2 2.04646 0.295047 12.0306
186 3 -0.0119327 1.4255 10.3537
188 1 0.649519 2.79642 12.811
196 2 0.181471 3.61637 12.1661
197 2 1.62757 3.03212 13.2362
198 2 -0.114457 2.33789 13.6649
45 2 4.346 2.47921 9.08554
189 2 -0.416572 3.62015 9.05912
314 2 0.372223 -1.48393 14.3567
215 2 -0.840681 1.47331 16.673
285 2 8.13899 -2.35037 14.607
279 4 5.84418 -2.6578 15.2979
212 2 1.85171 0.0406475 17.1756
281 1 7.671 -2.16901 15.6236
11 4 6.00424 2.74279 13.7068
286 2 8.19321 -2.89146 16.4421
53 3 5.02243 3.62301 12.4563
339 2 3.14635 0.370669 9.69939
179 4 -0.320965 1.89806 8.8287
283 2 5.46177 -2.65079 17.5569
120 2 2.74973 3.90289 16.1814
118 2 5.42197 1.35348 17.3555
357 2 -2.27182 4.43173 8.84639
329 1 -2.51278 13.2595 3.08549
327 2 -0.241093 5.90401 6.10729
31 1 -4.83752 11.7463 1.96886
49 1 3.16947 7.47157 7.19057
55 1 2.37136 7.36282 4.09782
332 2 -2.35796 12.1867 3.33042
57 2 0.841085 8.47785 3.65054
59 1 -0.567428 11.3724 5.20763
60 1 0.435985 9.18315 7.40712
1 4 -3.87857 13.4282 1.82177
108 2 -4.90303 11.2389 0.963406
109 2 -5.81424 11.9125 2.46735
110 2 -4.18278 11.2635 2.72599
352 1 -3.63168 11.3094 6.13125
365 2 -2.49076 12.1693 7.11545
125 2 2.12586 8.18016 7.21344
236 2 -1.92014 9.89555 0.557637
137 2 2.64777 7.50423 5.2145
141 2 -1.71579 11.3895 5.56419
145 2 0.864526 8.44219 6.62582
144 2 0.974472 9.20687 8.38098
248 2 -7.31507 11.1483 7.39873
146 2 -0.642022 9.10545 7.57678
201 4 -2.418 8.47239 4.23976
206 1 -1.99697 8.89729 2.42608
207 3 -1.96822 6.95952 4.44466
208 1 -4.31677 8.47203 4.68572
209 2 -1.63084 9.75692 5.2172
216 2 -1.16115 8.20358 2.22843
217 2 -1.64837 9.97098 2.35454
218 2 -3.00113 8.70858 1.88123
219 2 -4.55042 8.80056 3.54101
220 2 -4.57106 9.19049 5.51536
221 2 -4.71243 7.43961 4.84334
142 2 -0.148713 10.5303 4.59539
354 2 -3.40605 10.2644 6.30392
243 1 -7.22232 10.1579 7.89395
247 2 -6.27243 9.62385 7.61257
353 2 -5.27339 11.257 6.55529
360 2 -4.62418 6.69038 7.97463
355 2 -3.50307 11.6711 5.01737
297 2 -4.09651 8.66333 8.42646
290 1 -3.82431 7.75595 7.79431
295 2 -3.99595 7.98329 6.68805
296 2 -1.97909 7.96554 7.73658
136 2 1.43284 6.75281 3.89289
234 2 -0.754007 11.7378 0.282564
135 2 3.32799 6.94108 3.50727
47 2 2.31421 6.04445 6.3164
140 2 -0.763498 11.9666 8.68654
56 3 2.38368 9.01685 1.57021
143 2 -0.385574 12.352 4.67569
10 4 4.01994 5.80086 6.54085
122 2 0.426038 8.04329 0.102946
282 2 -6.93431 10.4991 16.8137
44 1 2.43073 4.87084 16.7234
121 2 1.92414 5.60304 16.0332
74 1 -4.10687 7.02027 15.1797
280 1 -5.75998 10.5629 16.829
252 1 -8.92073 10.5146 17.1913
132 2 2.69441 6.14981 13.1286
348 1 -4.82364 9.82732 13.9505
162 2 -3.1447 6.63694 14.7402
163 2 -4.11077 6.97934 16.2937
164 2 -4.424 8.10153 14.7857
166 2 -6.71441 9.48931 13.4321
233 3 -1.66974 10.1222 17.5374
338 2 -1.85609 7.2922 16.9765
231 4 -0.590479 9.18043 16.8166
232 1 -0.688153 7.22563 17.1707
12 4 4.2551 4.89707 11.6809
235 2 -0.184419 6.75174 16.2593
238 4 -7.09093 10.287 9.73277
336 2 -1.21061 10.4203 14.7373
241 2 -5.69844 9.4964 10.2582
242 3 -7.01211 11.8123 10.2066
79 1 -7.88443 9.20942 13.1491
159 2 -4.41192 4.81217 13.5319
334 2 -0.156469 8.91708 14.221
351 2 -4.87439 10.0173 12.8711
130 2 2.21001 5.61536 10.6906
284 2 -5.22877 9.54004 16.9763
256 2 -8.8937 10.7764 16.0873
289 4 -2.65589 7.57118 12.0666
291 1 -2.01227 9.37132 12.1328
292 3 -2.74045 7.12969 10.4231
293 1 -1.54741 6.47525 13.1024
294 2 -4.00781 7.26043 13.2379
298 2 -1.45534 9.70832 11.1733
299 2 -1.4346 9.46989 13.2069
300 2 -2.99052 9.88142 12.1942
301 2 -1.52985 5.46393 12.4827
302 2 -1.81521 6.37916 14.2037
303 2 -0.570667 7.24825 12.9067
333 1 -0.396372 9.68249 14.9894
349 2 -5.59943 9.08655 14.3371
350 2 -3.82301 9.3521 14.219
358 2 -0.674727 5.4444 9.31004
54 1 3.8198 6.02177 13.2012
134 2 4.14515 5.52038 14.1466
288 4 -2.59946 6.67865 8.87627
67 1 11.5713 4.55418 8.51167
16 4 7.48457 6.50631 0.750842
17 4 10.4385 3.95536 7.0623
347 2 13.8815 0.98135 2.01034
324 2 15.0313 4.35831 4.03582
184 2 14.7246 3.1576 7.42614
65 1 9.01235 2.59707 7.64681
66 1 11.365 2.99973 5.60393
341 2 13.4961 3.26583 2.07937
62 3 5.33638 5.44953 2.56522
71 3 7.34177 5.56592 4.80563
72 3 9.59208 5.15004 6.36994
138 2 11.2185 -0.818625 8.01941
155 2 12.6005 3.95744 8.42621
147 2 8.83172 2.21642 6.62765
148 2 8.1369 3.16365 8.15294
150 2 11.4211 3.62728 4.67225
151 2 10.7912 2.02317 5.41977
152 2 12.4275 2.84723 6.1379
372 2 16.8222 0.531811 3.86273
157 2 10.314 5.8035 3.62662
177 4 15.6941 1.16042 7.72361
64 2 6.79459 5.35977 1.84506
223 1 11.596 6.24793 0.482334
225 2 10.5406 5.90107 1.11014
343 2 12.108 4.68291 1.62351
342 2 12.0501 3.84582 3.31906
259 4 11.8314 2.25359 1.01385
262 2 10.6772 2.60632 2.36333
304 4 15.4081 0.0782972 4.84294
305 1 15.1506 1.45565 3.5246
306 3 15.4875 0.668269 6.29919
307 2 13.7853 1.12807 3.78499
308 2 15.512 1.34061 2.45441
309 2 15.4604 2.48111 3.99067
346 2 12.1335 0.0393776 1.39489
340 1 12.3218 3.67405 2.26051
149 2 9.68365 1.88185 8.29282
344 1 13.0481 0.814805 1.10874
319 2 13.3836 1.7891 8.17429
345 2 13.5723 0.583436 0.0365083
316 1 14.3499 2.32985 8.35561
182 3 17.2062 1.40162 8.37967
370 3 8.58997 5.85688 0.18263
323 2 15.681 3.61176 5.57246
258 2 18.5731 0.320288 0.223085
226 2 12.9193 6.77083 1.34701
317 2 14.246 2.95816 9.31528
51 1 7.60812 2.28471 12.8383
187 1 17.9897 0.0870063 12.5317
311 2 15.9005 -1.82206 14.4299
76 3 6.61774 3.63105 14.8922
368 2 14.9489 -2.50523 16.1737
127 2 8.3414 2.76527 13.6029
128 2 7.46993 2.93108 11.864
68 3 6.53049 3.82353 8.86962
310 4 17.5132 -2.66656 14.633
161 2 13.5291 3.3973 14.2302
169 2 8.57429 4.06726 10.6401
153 2 11.0177 4.29327 9.4437
193 2 17.1866 0.208635 11.7618
313 2 18.4548 -0.843598 15.7857
126 2 7.80907 1.21604 12.6764
315 2 19.678 -2.37887 16.0815
260 4 12.2703 0.0202491 15.5901
261 4 12.5712 -2.37923 13.2563
263 3 12.8947 -0.543482 17.1239
264 1 13.3392 1.58249 15.1394
265 1 10.4475 0.500281 15.6907
266 3 12.2587 -1.02106 14.3485
194 2 17.7197 0.492038 13.5347
269 1 11.8283 -1.89923 11.625
270 2 13.6433 1.46822 14.0886
271 2 14.1555 1.91064 15.7946
272 2 12.3805 2.29944 15.2007
273 2 9.89626 0.857531 14.711
274 2 10.2794 1.34192 16.5927
275 2 10.0582 -0.495448 16.0372
276 2 12.8189 -1.40238 11.2362
277 2 10.8913 -1.21269 11.7553
195 2 18.568 -0.950947 12.5666
318 2 14.4307 0.49653 8.89668
227 2 13.1719 2.35212 16.9722
312 1 18.9276 -1.76328 15.3331
63 3 4.83318 6.12995 5.23565
23 4 7.17242 8.82176 2.81087
24 4 3.41607 11.0581 5.20503
25 4 5.63101 11.2898 1.68046
26 4 7.51446 7.95605 7.92171
28 4 5.84942 10.1997 6.87553
364 2 2.60816 11.7732 0.0842224
156 2 9.15572 7.19239 3.06137
83 3 6.24844 7.83508 3.79667
84 3 8.17244 7.97791 1.86846
85 3 8.27504 9.86289 3.65449
86 3 3.03945 10.1442 3.97964
87 3 4.27874 12.6279 4.4167
88 3 2.15312 11.3934 6.22339
89 3 6.10921 9.79401 1.93408
90 2 5.00948 12.0134 3.10716
92 3 8.33818 7.69093 6.62393
371 3 6.70699 12.2573 1.11377
97 3 7.23216 10.6078 6.08354
98 3 4.52704 10.3302 5.92425
99 3 5.86238 8.77656 7.56659
100 2 5.70115 11.3687 8.07817
255 2 8.60644 9.88568 0.834092
123 2 3.88844 8.19856 6.60065
70 1 9.7515 6.74569 3.93241
19 4 8.66838 6.23717 5.34543
158 2 10.4652 7.50874 4.43326
222 4 11.492 7.90113 0.460326
229 2 9.44196 11.5581 5.14915
228 4 8.3948 10.2727 5.17636
373 2 4.16359 11.3802 0.708064
230 2 9.23104 9.00653 5.97253
249 2 10.8503 9.44873 7.84067
224 2 11.0691 9.03341 1.67955
58 1 0.266378 12.1583 8.32422
251 1 9.00954 10.6667 0.156556
91 3 7.18957 6.59631 8.76374
124 2 3.58818 7.23533 8.29303
15 4 5.98677 6.32758 4.21647
13 4 2.40913 9.00798 3.13387
154 2 11.7485 5.63056 8.34636
14 4 0.691253 11.1292 6.82704
253 2 9.81252 11.3565 0.645509
18 4 6.61883 5.51136 9.74377
362 2 3.31182 7.40812 16.0991
21 4 6.84042 4.58009 16.2244
22 4 10.8404 7.29288 13.5008
27 4 4.59086 9.29651 10.5781
29 4 8.01256 7.26441 14.9044
30 4 6.97044 8.81326 12.6413
69 3 5.44959 5.91086 10.7399
75 3 13.1359 5.14214 16.5567
20 4 13.3135 5.81328 15.0946
78 3 5.27286 4.93146 16.8666
244 2 9.04095 11.8314 10.8139
80 1 8.17256 5.13423 10.8688
81 1 11.101 6.28195 11.9136
82 3 12.1448 6.61021 14.4356
254 2 10.763 6.82824 16.729
94 2 4.5359 10.9891 10.0737
95 1 3.14199 8.28825 10.9672
367 2 4.67578 9.95896 15.3497
101 3 7.51014 5.95451 15.6354
102 3 9.39636 6.89443 14.0508
103 3 8.36851 8.4977 15.966
104 3 8.13965 8.74529 11.4994
105 3 5.60596 9.0423 11.7511
106 3 6.75541 7.6473 13.7631
107 3 7.00211 10.2716 13.5271
133 2 4.28619 7.04047 13.16
335 2 0.807117 10.3142 15.6929
268 2 3.36519 11.2512 13.1048
240 3 10.6487 9.58551 10.3021
165 2 10.8706 9.36788 12.0435
167 2 10.4465 9.69477 13.8165
168 2 8.76727 6.07556 10.4183
170 2 7.82743 5.34724 11.9474
171 2 12.101 5.58014 12.121
172 2 11.3052 7.16226 11.1841
173 2 10.1541 5.64803 11.7289
175 2 2.44949 9.13223 11.2812
237 4 8.71177 9.60421 10.2578
239 1 8.01359 11.321 10.4573
245 2 7.17362 11.2927 11.2714
250 4 9.12953 8.76666 17.4509
246 2 7.65905 11.6666 9.4458
96 2 5.25696 8.8081 9.05145
278 2 0.74113 11.0998 11.2358
267 2 0.978277 10.1842 13.686
93 3 8.23483 9.09968 8.85646
361 1 4.2615 7.61661 16.8473
176 2 3.34412 7.44921 11.802
363 2 5.11081 7.94702 16.2525
366 1 5.0746 10.9078 15.8091
73 1 13.5365 4.469 13.8024
160 2 12.6794 4.6213 12.8801
139 2 1.06902 11.8249 9.13661
369 2 5.91849 10.7036 16.6538
174 2 2.95144 7.89757 9.92225
8 4 3.96701 5.72453 17.4348
77 3 7.81351 3.75938 17.2622
ITEM: TIMESTEP
200
ITEM: NUMBER OF ATOMS
373
ITEM: BOX BOUNDS xy xz yz pp pp pp
-1.0794400000000000e+01 2.0438599999999997e+01 -1.0794400000000000e+01
-3.3405999999999998e+00 1.4057499999999999e+01 1.3894000000000000e+00
0.0000000000000000e+00 1.7567550000000001e+01 -3.3405999999999998e+00
ITEM: ATOMS id type x y z
3 4 4.61069 1.45449 2.88547
4 4 6.44372 -1.23668 7.0228
5 4 5.88556 1.53862 5.52679
7 4 4.2529 4.45624 2.0756
9 4 5.30379 3.36297 8.00679
117 2 2.33612 4.57663 0.144693
33 3 5.72138 0.484794 2.22115
34 2 3.1328 0.805423 2.43204
356 1 -1.46439 5.30921 8.38437
36 3 4.67791 1.36059 4.45647
37 3 6.22439 0.148611 6.26538
41 3 4.5424 2.91429 2.39677
42 1 3.26789 4.98931 0.50431
43 2 2.58844 4.97825 2.34366
325 1 -0.104053 4.99517 5.44754
46 3 5.59022 2.59046 6.65047
214 2 -3.49862 5.76058 0.575651
48 3 4.37573 4.6504 7.58048
328 2 0.454906 4.86486 4.4115
321 1 -3.38646 4.54641 5.23579
359 2 -1.01256 5.19573 7.23802
204 1 -2.49204 5.58642 0.0575916
330 2 7.6786 -0.342705 4.09014
178 4 1.93006 1.20132 6.55659
35 2 5.94603 -1.25919 8.66128
181 1 2.15549 2.65368 5.45889
61 2 7.27053 2.04292 4.77065
183 3 0.658728 1.52888 7.68713
326 2 -0.266455 4.04083 6.0755
190 2 2.26465 2.28312 4.422
191 2 3.24156 2.9147 5.9552
192 2 1.32649 3.5388 5.56948
199 4 -1.15968 4.88819 1.21075
200 4 -1.85733 5.34415 4.54675
202 2 0.522603 5.24226 0.676646
203 1 -0.134347 3.42966 0.451572
205 3 -1.44639 4.98925 2.75717
210 2 -1.24275 2.80229 0.46903
211 2 0.537665 2.96966 1.26778
119 2 3.14542 6.14655 0.554768
320 2 3.31521 0.591979 7.22804
331 2 8.96323 -0.130184 2.76515
337 2 1.49407 0.0714093 5.33966
322 2 -4.006 5.30131 5.8052
283 2 4.18839 0.364156 0.03932
258 2 -0.208188 0.66242 0.38665
10 4 4.02829 5.75191 6.5939
323 2 -2.84269 3.79397 5.98254
179 4 -0.499186 1.89717 8.72151
189 2 -0.569199 3.62934 8.77215
357 2 -2.2187 4.38025 8.75425
2 4 3.96315 -0.669432 10.5612
6 4 4.23548 -0.0809661 14.06
287 2 7.83007 -1.13908 15.9351
32 1 5.80515 -0.510581 10.4819
38 3 3.48207 -0.245535 12.2988
39 3 5.05414 -1.36866 14.6469
40 1 2.73784 -0.033872 15.1375
50 3 5.10161 1.29598 14.1476
52 1 2.81593 4.37401 11.0965
111 2 5.87139 0.234462 9.6165
112 2 6.22765 -1.57783 10.2665
113 2 5.99009 0.0429363 11.4895
114 2 1.74315 -0.13792 14.5781
115 2 2.86724 1.00451 15.6097
116 2 2.90468 -0.823344 15.9368
129 2 3.29787 3.85417 10.1351
131 2 2.08266 3.72057 11.7595
118 2 5.68089 1.29546 17.4358
180 4 0.389532 1.00994 11.8161
185 2 2.10663 0.483337 12.0681
186 3 -0.0839212 1.36719 10.2905
188 1 0.647088 2.69842 12.7963
196 2 0.477993 3.63413 12.2157
197 2 1.69533 2.67862 13.3839
198 2 -0.263744 2.45779 13.4449
45 2 4.3481 2.46395 9.0602
126 2 7.60111 1.04284 12.7511
314 2 0.600193 -1.94072 14.4532
215 2 -1.26606 1.63419 16.7453
285 2 8.14948 -2.45234 14.6577
279 4 5.88348 -2.74818 15.3293
212 2 1.71891 0.0923055 16.9633
281 1 7.73291 -2.233 15.6813
11 4 5.89768 2.69743 13.7239
286 2 8.22875 -2.92528 16.5491
53 3 5.07378 3.58903 12.5133
339 2 2.96715 0.193759 9.44843
213 2 -0.474705 3.22305 17.4216
194 2 -0.711663 0.107744 13.891
187 1 -0.768475 -0.0213937 12.7958
329 1 -2.59892 13.2491 3.20498
13 4 2.36004 9.05256 3.17489
31 1 -5.02817 11.6758 1.76179
49 1 3.19288 7.4918 7.15536
55 1 2.09352 7.39385 4.0498
332 2 -2.24261 12.1601 3.38321
57 2 0.69907 8.64463 3.64582
59 1 -0.424358 11.2474 5.26103
60 1 0.519637 9.16614 7.54372
1 4 -4.05054 13.3255 1.8813
108 2 -4.51796 10.9883 1.05365
109 2 -6.09677 11.6971 1.49091
110 2 -4.81381 11.3864 2.92117
352 1 -3.57136 11.5634 5.81625
365 2 -2.67708 12.0629 7.16464
125 2 2.2458 8.02113 7.41331
236 2 -2.24704 9.84715 0.518462
137 2 2.44472 7.58108 5.22021
141 2 -1.5566 11.4464 5.56489
145 2 0.48559 8.46563 6.63372
144 2 1.43887 9.12375 8.18169
248 2 -7.26611 11.2797 7.5675
146 2 -0.403441 9.02447 8.12433
201 4 -2.40019 8.48423 4.23924
206 1 -2.05676 8.95988 2.3858
207 3 -2.09381 6.94883 4.53018
208 1 -4.31983 8.59458 4.59621
209 2 -1.5951 9.62476 5.28554
216 2 -1.20659 8.34438 1.88556
217 2 -1.939 10.0915 2.29216
218 2 -3.11506 8.53685 2.0434
219 2 -4.53733 8.9188 3.45456
220 2 -4.51618 9.41761 5.33378
221 2 -4.59253 7.50376 4.96464
142 2 -0.263043 10.4489 4.52276
354 2 -3.36697 10.4203 5.71045
243 1 -7.19506 10.2282 7.8766
247 2 -6.18623 9.67471 7.6338
353 2 -5.29839 11.3983 6.17539
360 2 -4.49121 6.38807 7.67748
355 2 -3.23585 12.1486 4.83708
297 2 -4.28108 8.27864 8.25684
290 1 -3.90868 7.51353 7.57762
295 2 -4.08547 7.9653 6.48886
296 2 -2.15961 7.82194 7.82422
136 2 1.15664 6.74492 4.01979
234 2 -1.00038 11.3975 0.431269
135 2 3.02803 6.88143 3.45511
47 2 2.29128 5.95391 6.46587
257 2 -9.44085 13.8198 0.622345
122 2 0.40906 8.51949 0.19259
233 3 -3.17324 13.2281 0.150562
140 2 -0.681684 12.0684 8.58027
327 2 0.0738003 6.00403 6.0175
282 2 -6.93021 10.5672 17.0504
44 1 2.5368 5.07343 16.8494
121 2 2.39637 5.88324 15.9906
74 1 -4.00172 6.97436 15.1685
280 1 -5.81858 10.4466 16.8138
252 1 -8.90239 10.6219 17.516
132 2 2.89835 6.63147 13.3504
348 1 -4.94941 9.93902 13.8896
162 2 -2.9972 6.37676 15.0202
163 2 -4.12193 7.09372 16.2721
164 2 -4.10117 7.99833 14.6787
166 2 -6.90789 9.42979 13.5176
120 2 2.73669 4.00022 16.5006
338 2 -1.96376 7.06821 16.5895
231 4 -0.769003 8.98034 16.9591
232 1 -0.872203 7.0347 17.0582
12 4 4.37157 4.96121 11.8782
235 2 -0.180475 6.44315 16.3458
238 4 -6.96739 10.2482 9.71166
336 2 -1.19562 10.5993 14.9276
241 2 -5.65979 9.33289 10.2702
242 3 -6.83399 11.8098 10.1239
335 2 0.625347 10.0252 15.5543
159 2 -4.31309 4.72854 13.4974
334 2 -0.62816 8.68923 14.6881
351 2 -5.57165 10.3565 13.0191
130 2 2.37356 5.44612 10.8096
284 2 -5.46638 9.39319 16.8614
256 2 -8.54078 10.8987 16.4032
289 4 -2.59688 7.5758 12.0941
291 1 -1.73171 9.35564 12.1625
292 3 -2.76949 7.04752 10.5805
293 1 -1.59788 6.32505 13.0488
294 2 -3.87364 7.05186 13.2364
298 2 -1.01677 9.50796 11.2721
299 2 -1.27348 9.54486 13.3113
300 2 -2.83649 9.82767 12.078
301 2 -1.62351 5.41915 12.3975
302 2 -1.91782 6.12954 14.1789
303 2 -0.647631 6.96537 13.052
333 1 -0.523306 9.69403 15.1689
349 2 -5.24661 8.88527 14.0652
350 2 -3.86709 9.97281 13.5989
358 2 -0.615884 5.65594 9.15372
267 2 0.407332 10.52 13.6319
134 2 4.07036 5.69863 14.2601
288 4 -2.69016 6.5702 9.03192
174 2 2.69807 7.94966 10.1348
67 1 11.6225 4.49695 8.38755
16 4 7.54416 6.56818 0.695657
17 4 10.3193 3.85071 7.10896
347 2 13.7743 1.0812 1.96443
324 2 14.997 3.96257 4.44913
184 2 14.8367 3.38116 7.7889
65 1 9.18008 2.58483 8.03485
66 1 11.3883 2.93192 5.55057
341 2 13.5709 3.3034 1.98837
62 3 5.26214 5.51579 2.66118
71 3 7.4131 5.66987 4.63761
72 3 9.4576 5.0476 6.28801
138 2 11.7031 -1.06408 8.24527
155 2 12.5822 3.83644 8.37282
147 2 9.04053 1.96622 7.09628
148 2 8.19872 3.11214 8.31024
150 2 11.6122 3.6027 4.63901
151 2 10.7689 2.09232 5.26064
152 2 12.3274 2.64143 6.17041
372 2 16.7938 0.396802 3.8131
157 2 10.6007 6.18193 3.93572
177 4 15.6677 1.2848 7.78895
64 2 6.5971 5.55433 1.72769
223 1 11.7966 6.29017 0.413087