ITEM: TIMESTEP
0
ITEM: NUMBER OF ATOMS
373
ITEM: BOX BOUNDS xy xz yz pp pp pp
-1.0902343999999999e+01 2.0642985999999997e+01 -1.0902343999999999e+01
-3.3405999999999998e+00 1.4057499999999999e+01 1.4032940000000000e+00
0.0000000000000000e+00 1.7550000000000001e+01 -3.3405999999999998e+00
ITEM: ATOMS id type x y z
3 4 4.96322 1.18225 2.916
212 2 0.884418 2.63633 0.342338
5 4 6.49972 1.44708 5.55513
7 4 4.26067 4.19124 2.33374
9 4 5.05598 3.1798 7.80992
119 2 2.42117 5.57829 1.17628
33 3 6.04911 0.566659 1.85265
34 2 3.56212 0.299151 2.78526
325 1 -0.643032 4.17186 5.46323
36 3 5.45352 0.916959 4.41574
37 3 7.36842 0.245967 6.15338
41 3 4.59504 2.65002 2.61294
190 2 1.81315 -0.701817 5.00644
43 2 2.78657 4.67159 3.09553
111 2 6.11946 0.910454 8.64701
46 3 5.70221 2.27219 6.63224
326 2 -0.845613 3.20762 6.1269
48 3 3.92687 4.18952 7.31459
284 2 4.67214 0.459965 0.466713
4 4 7.39151 -1.11853 7.02485
328 2 0.200347 4.02944 4.70457
320 2 2.38222 2.63345 5.80905
35 2 6.5633 -0.818299 8.5339
178 4 1.90127 1.12221 6.34521
179 4 -0.25433 1.55586 8.70531
181 1 0.961257 0.29803 4.93477
42 1 2.85331 4.49449 1.07816
183 3 0.856906 1.37441 7.42414
327 2 -0.5858 5.12952 6.03952
182 3 -1.85512 1.99531 8.02594
191 2 0.93536 0.952478 3.96222
118 2 3.59401 4.27255 0.130673
199 4 -1.39118 3.95897 1.20954
200 4 -2.22558 4.55706 4.47306
202 2 0.173761 4.61732 0.941384
203 1 0.130198 2.63836 1.1905
205 3 -1.91657 4.27405 2.64652
210 2 -0.864661 1.833 0.944878
211 2 0.622166 2.34948 2.20438
337 2 3.37615 0.458142 7.01234
117 2 1.85825 3.74561 1.12063
192 2 -0.0333145 0.206873 5.44446
331 2 7.61809 -0.674863 4.05201
207 3 -2.77388 6.06237 4.95388
63 3 4.68996 5.89043 5.06168
2 4 4.73063 -1.05384 10.6113
6 4 4.75166 -0.216548 13.7042
339 2 3.93419 0.298508 9.43965
32 1 5.6366 0.518778 9.61881
38 3 4.45865 -0.736366 12.122
39 3 5.76622 -1.25626 14.6903
40 1 3.03521 -0.195182 14.5258
50 3 5.32562 1.31969 13.7609
11 4 6.18564 2.6946 13.5966
285 2 8.65671 -0.654512 16.0095
112 2 6.57726 -0.870309 10.2436
113 2 5.88844 1.23311 10.4711
114 2 2.14843 -0.429771 13.668
115 2 2.9388 0.833576 15.0001
116 2 3.17917 -1.11005 15.2447
129 2 2.04645 3.27014 12.1442
280 1 5.32537 -2.9795 17.1555
130 2 2.18162 4.63641 10.7694
286 2 8.76558 -2.35601 16.9145
189 2 0.382194 2.86248 9.55435
186 3 -0.264008 0.366309 9.68276
188 1 0.878243 -0.638098 12.1606
196 2 1.88283 -0.287932 11.8256
197 2 0.944106 -1.70353 12.6498
198 2 0.337636 0.177125 12.8609
315 2 0.0299818 -0.612584 15.1159
213 2 -0.886623 1.73712 16.9842
53 3 5.19833 3.8214 12.7688
287 2 7.39376 -1.11388 17.4001
52 1 2.38198 4.35359 11.8665
279 4 6.47923 -2.23907 15.6929
204 1 -1.20126 0.629892 17.2865
281 1 8.07997 -1.51406 16.5183
45 2 4.49977 2.03434 8.98081
283 2 4.42738 -2.27494 17.2526
1 4 -3.79918 13.2858 1.55019
13 4 2.26818 8.97063 2.55255
31 1 -4.95828 11.8985 0.793192
357 2 -0.724171 5.59053 8.46853
55 1 1.97682 7.17409 3.12004
359 2 -1.12848 7.89297 8.32586
57 2 0.605307 8.57562 2.61096
59 1 -0.584142 12.2699 5.93381
60 1 0.0867947 10.068 8.48507
352 1 -4.30763 11.5055 6.20322
10 4 4.01621 5.82587 6.49637
109 2 -5.98211 12.3875 0.910861
110 2 -4.90753 10.9556 1.44829
249 2 -8.43488 10.4436 7.39891
235 2 -0.553015 11.6199 0.965449
365 2 -1.90591 12.5399 7.47021
136 2 2.03996 7.04437 4.19271
145 2 -0.951956 10.0336 7.99429
141 2 -1.48433 11.5633 5.91066
137 2 2.94895 6.78193 2.54437
144 2 0.783818 9.18133 8.41139
353 2 -5.43325 11.1419 6.67409
124 2 2.52471 7.60749 8.25355
201 4 -3.47026 7.47764 5.41185
206 1 -3.0745 8.90559 4.25996
49 1 3.18606 7.52848 7.31564
208 1 -5.41198 7.19967 5.7845
209 2 -3.2387 7.95685 7.0759
216 2 -2.23113 9.33936 5.15757
217 2 -3.96684 9.56235 4.20742
218 2 -2.46394 8.7661 3.34633
219 2 -5.67105 7.99344 4.99851
220 2 -5.65105 7.44799 6.80081
248 2 -6.98901 11.6874 7.14542
233 3 -2.55741 13.61 0.147948
355 2 -4.41443 12.0543 5.1186
243 1 -7.2821 10.6185 7.3168
247 2 -6.67291 9.81662 6.81401
332 2 -1.84931 12.6948 2.98861
47 2 2.35524 6.38691 6.03897
354 2 -3.50152 10.7106 6.18077
330 2 -3.4704 11.6453 3.16521
297 2 -3.00319 9.42533 8.02723
329 1 -2.96154 12.726 3.15522
296 2 -4.31665 7.93042 8.41362
135 2 0.990072 6.79826 2.67999
257 2 -8.38906 10.0661 16.6498
44 1 2.84674 5.47293 15.8922
146 2 0.107012 10.5227 9.53347
74 1 -4.82343 7.24151 15.5297
120 2 2.26646 6.47383 15.7297
360 2 -2.48528 5.64807 9.73016
131 2 1.94342 5.10961 12.6363
348 1 -4.04635 10.2406 14.6382
162 2 -4.28451 7.31466 16.4965
163 2 -5.69822 8.04969 15.374
164 2 -4.06868 7.20236 14.7112
108 2 -3.2962 8.39396 17.3057
12 4 4.16472 4.9035 12.0025
338 2 -0.298622 8.72027 15.596
231 4 0.0983008 10.0343 16.8014
298 2 0.272463 10.02 10.866
349 2 -4.40606 9.1603 15.0066
351 2 -4.44066 10.4574 13.572
238 4 -6.96098 10.247 9.17446
159 2 -4.12157 5.25855 13.798
241 2 -5.63141 9.15555 9.01359
242 3 -6.47412 11.6572 9.8833
121 2 2.40002 4.80976 16.7371
300 2 -0.9079 11.3712 11.7539
303 2 0.588304 8.46292 14.2335
134 2 3.7343 6.17104 14.2139
282 2 -5.90984 9.98554 16.8812
350 2 -2.78453 10.518 14.8933
288 4 -2.42266 7.55953 9.84345
289 4 -1.51783 9.19697 12.5552
291 1 -0.200514 10.4826 11.8816
292 3 -2.05777 8.22004 11.2727
293 1 -0.407011 8.08026 13.7496
294 2 -2.72767 10.2895 13.1691
356 1 -1.00504 6.42393 9.18016
299 2 0.436553 10.3276 12.9414
167 2 -6.20518 7.62415 12.0949
301 2 -0.236026 7.17018 13.146
302 2 -1.40443 7.9668 14.4618
358 2 -0.259583 6.46951 10.0554
174 2 1.60117 8.85222 11.8439
295 2 -4.08943 9.51435 9.63571
122 2 3.13489 4.94007 14.9107
290 1 -3.64713 8.833 8.78805
342 2 12.1631 3.54267 3.47601
153 2 12.3592 5.14853 7.34769
17 4 10.3727 3.58438 7.19878
58 1 12.6937 -1.13922 7.90532
227 2 11.3767 5.61694 0.371437
64 2 6.16802 6.46989 1.45285
65 1 9.08798 2.82189 8.51772
66 1 11.1425 2.26819 5.94938
67 1 11.8768 4.55472 8.13856
61 2 7.63121 2.45519 4.84279
71 3 7.31695 5.41005 4.51887
72 3 9.51573 4.56847 6.35759
138 2 11.9406 -0.337043 7.64939
321 1 15.6097 3.21406 4.85689
147 2 9.15393 1.73139 8.24705
148 2 8.01319 3.26992 8.47212
150 2 10.3224 1.50299 6.22785
151 2 12.1825 1.86222 6.03381
152 2 10.9459 2.72616 4.9445
154 2 12.5382 3.78081 8.57329
139 2 13.6726 -1.07764 7.33484
177 4 16.2575 0.843099 7.85831
343 2 12.5487 4.89304 1.82245
223 1 13.0018 6.49626 1.09716
214 2 15.6056 3.85064 0.269207
322 2 15.9046 3.20499 5.9721
346 2 12.6159 0.501481 1.85592
259 4 13.13 2.51396 0.993105
262 2 11.1663 3.19875 1.84115
304 4 15.4062 -0.594407 4.97613
305 1 16.1746 0.464062 3.3171
306 3 15.8393 0.210379 6.41682
307 2 14.595 0.893108 4.06206
308 2 16.0729 0.389546 2.16442
309 2 17.0203 1.09065 3.61897
317 2 13.9042 1.20117 8.13128
323 2 15.7984 2.1467 4.25745
324 2 14.5672 3.64888 4.70117
344 1 13.6472 0.775415 1.36503
340 1 12.2158 3.5619 2.33478
341 2 14.073 3.65999 2.03909
62 3 5.33415 5.32644 2.42056
347 2 14.6093 0.674416 2.09582
370 3 8.81804 6.24778 0.342719
143 2 10.2118 -0.713562 6.24373
68 3 6.28551 3.98214 8.49678
226 2 13.8909 6.49014 0.349397
345 2 13.7849 0.23984 0.404515
19 4 8.51914 5.91125 5.45404
15 4 5.87763 6.09134 4.02028
156 2 10.788 6.14152 4.61576
258 2 19.2054 -0.0791712 0.495942
225 2 10.3844 3.16904 16.8906
51 1 7.66557 2.20279 12.4411
184 2 15.0192 2.21904 9.35051
310 4 17.3347 -2.23736 14.1891
76 3 6.86587 3.23082 14.9093
126 2 7.25298 2.2632 11.335
312 1 18.9404 -1.65471 15.2592
128 2 8.41289 3.03271 12.6832
180 4 18.6204 -0.515419 10.924
316 1 14.7606 1.17538 8.97976
336 2 11.7438 -1.47761 16.6809
169 2 7.55075 3.9885 11.4858
187 1 16.903 0.247211 11.6461
193 2 16.3928 0.900101 10.9649
127 2 8.09137 1.17759 12.7213
195 2 16.4309 -0.865821 11.5585
335 2 12.7953 -2.73179 15.7893
260 4 14.052 0.161487 15.4828
261 4 13.2073 -1.76469 12.8535
263 3 14.2847 -0.440574 17.0084
264 1 15.6456 1.1383 15.1173
265 1 12.5788 1.44246 15.4981
266 3 13.7059 -0.923427 14.1264
267 2 11.4147 -1.93158 12.6388
269 1 13.8119 -0.715527 11.4794
270 2 15.9075 0.691203 14.043
271 2 16.519 1.0073 15.9136
272 2 15.112 2.20531 15.1144
273 2 11.9957 1.50673 14.549
274 2 13.122 2.45299 15.7127
275 2 11.9504 1.1888 16.4017
276 2 14.4771 -1.43357 10.9284
277 2 14.274 0.200279 12.0457
278 2 12.7223 -0.558264 10.9533
318 2 14.3907 0.470513 9.90028
311 2 17.0486 -0.735844 13.3256
140 2 12.8792 -1.35691 9.02658
319 2 15.9582 -0.306538 9.26719
333 1 11.765 -2.46187 16.0823
194 2 16.812 0.676086 12.6515
171 2 10.3384 3.95427 13.1781
161 2 14.3645 3.50749 13.9648
81 1 10.3661 4.55227 12.2776
334 2 10.9667 -2.39355 15.2228
149 2 9.63025 3.06643 9.45953
173 2 9.27496 4.70594 11.7147
369 2 16.5966 -2.37236 16.4097
314 2 18.956 -1.86468 16.3585
313 2 19.5861 -2.40331 14.7123
172 2 11.1786 4.2742 11.5999
155 2 11.3526 5.17745 8.94964
368 2 15.2141 -2.61137 15.0046
215 2 18.2075 -0.164453 16.4909
256 2 19.9848 -3.09815 16.2977
14 4 0.815617 11.428 7.16532
23 4 6.9186 9.06305 3.03996
24 4 3.24853 10.6809 5.21182
25 4 5.48748 11.3059 1.65271
26 4 7.3431 7.77399 7.95998
28 4 5.85755 10.3647 6.92449
246 2 8.74362 10.6493 7.71269
70 1 9.81368 6.69616 4.35862
83 3 6.224 7.69406 3.68157
84 3 7.89002 8.59226 1.46763
85 3 7.83595 9.87872 4.08424
86 3 2.79927 9.82033 3.79845
87 3 3.50772 12.2283 4.69249
88 3 1.88063 10.6648 6.2364
89 3 5.78817 9.97624 2.47022
90 2 5.52522 12.7194 2.6324
92 3 8.03402 6.93696 6.56808
56 3 2.6128 9.21597 1.06594
97 3 6.9547 11.2737 6.17216
98 3 4.54004 10.137 5.87267
99 3 6.48449 9.04806 7.41978
100 2 5.35079 11.0782 8.31413
229 2 8.51568 12.6075 4.37977
91 3 6.44526 6.76152 8.75605
123 2 4.45562 7.11595 7.75134
371 3 6.39449 11.5739 0.380673
158 2 9.53243 6.60776 3.25972
373 2 3.79413 11.2576 1.21054
254 2 8.45019 9.70654 0.19818
228 4 8.114 11.0632 5.09762
224 2 12.8909 7.69209 2.1268
230 2 9.66584 10.6602 5.69932
157 2 9.86424 7.76739 4.717
364 2 2.68065 12.1518 0.137573
255 2 9.70916 11.1233 0.062586
125 2 3.23575 8.51901 6.73549
222 4 11.7239 7.32555 0.449489
232 1 0.0642685 12.3459 0.325507
142 2 -0.139052 12.3102 4.88694
16 4 7.35698 7.41612 0.625767
96 2 4.16571 8.55961 8.72354
236 2 0.310545 13.3677 0.844465
221 2 13.632 6.11314 5.52587
372 2 6.13633 13.1168 4.21758
18 4 6.11986 5.37473 9.55206
20 4 13.2797 5.58043 15.2148
21 4 7.07675 4.80893 15.5861
22 4 10.9471 6.29622 12.9775
27 4 4.18838 9.06803 10.3716
29 4 8.14538 7.30336 13.9583
30 4 6.95457 9.3313 12.0815
168 2 8.46707 5.2831 10.3292
75 3 13.2472 4.71102 16.5388
77 3 8.10351 4.56235 16.8026
78 3 5.68913 5.419 16.2646
79 1 12.0224 7.18145 11.6793
73 1 14.122 4.57553 13.8055
170 2 7.159 5.91324 11.6313
82 3 11.8765 6.09095 14.6247
8 4 4.34149 6.12108 16.8849
94 2 2.83941 10.3575 10.6273
95 1 2.72759 8.89537 11.7001
363 2 5.63004 8.54756 16.571
101 3 7.69783 5.83409 14.5181
102 3 9.58105 7.08808 13.1667
103 3 8.30787 8.27264 15.358
104 3 8.25641 9.47351 11.1247
105 3 5.50451 9.41435 11.1503
106 3 7.05124 7.93186 12.905
107 3 6.88925 10.6719 13.1154
133 2 5.34168 6.81808 13.2562
268 2 2.85538 10.5768 12.6263
132 2 3.61967 7.38378 12.6795
93 3 8.7107 8.16549 8.82784
165 2 11.4279 7.97238 11.1112
361 1 4.60279 8.15135 16.8768
176 2 3.28993 7.45569 10.9609
252 1 9.75045 10.2325 16.9689
80 1 7.47505 5.04288 10.8767
185 2 7.82283 11.8196 10.4892
367 2 5.33997 9.8672 15.8069
175 2 3.34895 9.2411 12.6174
237 4 9.12539 9.4265 9.78877
239 1 8.6415 11.0227 8.79722
245 2 7.55959 11.3376 8.96953
250 4 8.9413 8.45354 16.7338
362 2 3.9331 8.16129 15.927
251 1 10.3227 7.18852 17.0408
240 3 11.0081 9.53774 9.72825
54 1 4.24104 6.5402 13.1863
253 2 10.8132 6.75725 16.0799
366 1 5.30722 11.0204 15.5208
166 2 12.1657 6.22163 10.9994
244 2 9.47665 11.7606 9.07803
234 2 2.37545 8.5027 17.4586
160 2 13.4363 4.66384 12.889
69 3 4.74513 5.3797 10.4446
ITEM: TIMESTEP
100
ITEM: NUMBER OF ATOMS
373
ITEM: BOX BOUNDS xy xz yz pp pp pp
-1.0902343999999999e+01 2.0642985999999997e+01 -1.0902343999999999e+01
-3.3405999999999998e+00 1.4057499999999999e+01 1.4032940000000000e+00
0.0000000000000000e+00 1.7550000000000001e+01 -3.3405999999999998e+00
ITEM: ATOMS id type x y z
3 4 4.95029 1.11329 2.88244
212 2 0.648056 2.60133 0.0343794
5 4 6.57004 1.58584 5.40413
7 4 4.2597 4.23574 2.35287
9 4 5.26775 3.25537 7.70639
119 2 2.53682 5.73071 1.35735
33 3 5.86277 0.329375 1.79911
34 2 3.44719 0.284777 2.86575
325 1 -0.577237 4.23501 5.33804
36 3 5.61405 0.931303 4.28987
37 3 7.26807 0.320931 6.14402
41 3 4.63369 2.70555 2.57178
190 2 1.95615 -0.79525 5.30123
43 2 2.7691 4.65498 3.12515
111 2 5.76777 0.607626 8.43501
46 3 5.79657 2.35555 6.53792
326 2 -0.628729 3.10936 5.57829
48 3 4.12864 4.32083 7.33413
284 2 4.44536 0.496396 0.52218
4 4 7.45202 -1.05021 6.98786
328 2 0.212405 4.52088 4.56942
320 2 2.21383 2.85137 5.41753
35 2 6.61195 -0.905304 8.52657
178 4 1.87882 1.39134 6.27395
179 4 -0.20813 1.68431 8.70739
181 1 1.21891 0.112201 5.07542
42 1 2.80289 4.60371 1.16612
183 3 0.918777 1.49467 7.47443
327 2 -0.565628 4.93025 6.31556
182 3 -1.72658 1.64605 7.9815
191 2 1.36164 0.621683 4.01469
118 2 3.55645 4.55873 0.218668
199 4 -1.47237 3.99975 1.26852
200 4 -2.21068 4.5121 4.44768
202 2 0.0510403 4.79344 0.837708
203 1 0.108146 2.86097 0.98077
205 3 -1.93111 4.27615 2.90059
210 2 -0.777277 1.89967 1.23935
211 2 0.833927 2.8527 1.80327
337 2 3.41781 0.990954 6.81313
117 2 1.82435 3.9296 1.10547
192 2 0.165377 -0.0320422 5.44995
331 2 7.57669 -0.507309 4.02736
135 2 1.67287 6.53193 2.53432
10 4 4.00854 5.73424 6.44863
287 2 6.05681 2.04588 0.000700273
357 2 -0.984215 5.44405 8.28898
226 2 -5.34143 6.85529 0.642996
45 2 4.6532 2.08402 8.74844
2 4 4.76044 -0.975318 10.5951
6 4 4.85389 -0.276776 13.8065
339 2 3.92746 0.454605 9.70159
32 1 5.64497 0.490716 9.50734
38 3 4.66723 -0.734504 12.1983
39 3 5.95696 -1.29867 14.8005
40 1 3.16143 -0.28338 14.6339
50 3 5.25687 1.31246 13.7712
11 4 6.01994 2.7766 13.4987
285 2 8.71359 -0.759897 16.2245
112 2 6.59641 -0.841872 10.3158
113 2 6.10661 1.28085 10.1103
114 2 2.25679 -0.447041 13.8035
115 2 3.17327 0.701842 15.184
116 2 3.33754 -1.18614 15.3174
129 2 2.4433 3.06333 12.5155
280 1 5.19179 -2.84743 17.1326
130 2 2.19482 3.66413 10.8799
286 2 8.88013 -2.48585 17.0912
189 2 -0.0104983 3.16742 9.44107
186 3 -0.339597 0.565541 9.88682
188 1 0.78326 -0.602284 12.4799
196 2 1.76189 -0.306319 11.9663
197 2 0.628528 -1.64504 12.7932
198 2 0.299146 0.126929 13.1266
315 2 -0.0748114 -0.37822 14.954
213 2 -1.27293 1.48902 17.0874
53 3 5.07976 3.7569 12.5828
127 2 7.705 1.09988 12.276
52 1 2.52123 3.94167 11.895
279 4 6.58934 -2.33808 15.7617
204 1 -1.33461 0.387988 17.4536
281 1 8.18097 -1.62052 16.6978
283 2 4.5301 -1.97431 17.0995
313 2 0.936981 -1.82962 14.8187
1 4 -3.8423 13.2542 1.57088
13 4 2.24144 8.95639 2.63682
31 1 -4.77428 11.6648 0.781195
49 1 3.27794 7.35893 7.48094
55 1 2.21434 7.15184 3.26384
359 2 -1.21623 7.46755 8.25858
57 2 0.693455 8.42305 3.02042
59 1 -0.424536 12.2129 5.87593
60 1 0.062339 10.2616 8.48722
352 1 -4.27578 11.6737 6.07243
365 2 -1.78439 12.5548 7.23715
109 2 -5.85772 12.0159 1.00203
110 2 -4.47758 10.721 1.29827
249 2 -7.9794 9.88649 7.01542
235 2 -0.48285 11.4583 0.608381
329 1 -2.98788 12.9261 3.19511
136 2 1.92884 6.98678 4.32031
145 2 -0.929014 10.3202 8.14647
141 2 -1.28409 11.4894 6.00655
137 2 3.40792 7.04242 3.04964
144 2 0.481171 9.22925 8.31639
353 2 -5.2552 11.177 6.60776
124 2 2.68823 7.0712 8.37897
201 4 -3.54192 7.44678 5.5306
206 1 -3.03438 8.73269 4.17265
207 3 -2.95856 6.08496 5.02608
208 1 -5.37609 7.19917 5.83194
209 2 -3.05498 8.16627 7.11854
216 2 -2.36169 9.45503 4.81586
217 2 -3.93593 9.2394 3.78834
218 2 -2.50777 8.24935 3.27427
219 2 -5.68249 7.75921 4.80582
220 2 -5.84998 7.67437 6.78981
248 2 -6.9479 11.4792 7.21233
233 3 -2.43775 13.581 0.240199
355 2 -4.66099 12.2946 5.14153
243 1 -7.0428 10.3626 7.30872
247 2 -6.0724 9.71803 7.15943
332 2 -1.8473 13.0939 2.91071
47 2 2.29799 6.21693 6.35258
354 2 -3.3888 10.947 5.93529
330 2 -3.23341 11.7848 3.29511
297 2 -4.19726 9.25431 7.77619
290 1 -3.89427 8.78616 8.73143
257 2 -8.44008 10.2202 16.7347
44 1 2.5776 5.68375 16.0137
146 2 0.220636 10.7001 9.56229
74 1 -4.92566 7.21458 15.6969
120 2 2.53897 6.8175 15.565
360 2 -2.63308 5.69666 10.0127
131 2 1.89507 4.87885 12.3043
348 1 -3.85024 10.1039 14.7691
162 2 -4.39856 7.40175 16.7297
163 2 -5.62428 8.02275 15.5299
164 2 -4.23267 7.0396 14.7482
108 2 -3.14669 8.27559 17.1903
12 4 4.13522 4.92981 11.9726
338 2 -0.401149 8.7852 15.5598
231 4 0.14924 9.90271 16.8357
298 2 0.248691 10.366 10.9318
349 2 -4.16847 9.06724 15.124
351 2 -4.28547 10.3033 13.751
238 4 -6.91219 10.2426 9.25051
159 2 -4.09829 5.00705 13.8051
241 2 -5.58339 9.23252 9.70373
242 3 -6.52786 11.7466 9.78172
121 2 1.68854 5.46832 16.7161
300 2 -0.745366 11.3861 12.1237
303 2 0.332548 8.29266 14.2349
134 2 3.50394 6.09199 14.2208
282 2 -6.18432 10.2374 16.908
350 2 -2.62032 10.4837 15.0343
288 4 -2.51243 7.53397 9.82814
289 4 -1.44864 9.18749 12.4828
291 1 -0.130115 10.4717 11.9726
292 3 -1.97123 8.37464 11.147
293 1 -0.559531 7.92016 13.7787
294 2 -2.60936 10.2566 13.2561
356 1 -1.20913 6.26689 9.02531
299 2 0.532048 10.2076 12.8858
167 2 -6.01554 7.28396 12.2216
301 2 -0.378391 6.843 13.3833
302 2 -1.58584 8.03749 14.4226
358 2 -0.398191 6.29287 9.77047
174 2 1.70276 8.8902 11.8836
295 2 -3.56438 9.5748 9.56951
122 2 2.73158 4.82621 15.2794
296 2 -4.65097 7.87471 9.15273
342 2 12.7821 3.67807 3.5469
153 2 12.3008 4.90004 7.51539
17 4 10.2643 3.51305 7.19986
58 1 12.6512 -1.20946 8.16112
227 2 11.9247 5.5576 0.474283
64 2 6.28647 6.25968 1.2908
65 1 9.10426 2.61702 8.47826
66 1 11.1688 2.10725 6.11886
67 1 11.7443 4.31806 8.27676
61 2 7.7117 2.59194 4.65585
71 3 7.20242 5.09793 4.44609
72 3 9.48781 4.58747 6.34705
138 2 11.751 -0.510458 8.09344
321 1 15.7637 3.06886 5.0025
147 2 9.00985 1.61786 7.9869
148 2 8.03701 3.13636 8.47458
150 2 10.7866 1.07763 6.41106
151 2 12.2469 2.28941 6.45331
152 2 10.9443 2.44225 5.05227
154 2 12.332 3.45942 8.69448
139 2 13.5337 -0.788548 7.57663
177 4 16.2142 0.740576 7.80558
343 2 12.6075 4.96068 2.02798
223 1 12.8936 6.74897 1.21102
214 2 15.5106 3.52121 0.283336
322 2 15.762 2.93297 6.13602
346 2 12.6236 0.469367 1.75601
259 4 13.0126 2.55676 0.994207
262 2 11.3245 3.28654 2.28792
304 4 15.3278 -0.472098 5.07832
305 1 16.0872 0.372945 3.28436
306 3 15.7386 0.150095 6.40506
307 2 14.552 0.830162 3.94518
308 2 16.0411 0.270328 2.19369
309 2 16.8885 1.17208 3.37075
317 2 14.101 1.65467 7.88634
323 2 15.8791 2.02968 4.36789
324 2 14.793 3.62383 4.63724
344 1 13.6503 0.838029 1.28711
340 1 12.4524 3.8081 2.51556
341 2 14.2403 3.55822 1.77355
62 3 5.29326 5.46719 2.37258
347 2 14.5496 0.650178 2.00364
370 3 8.75698 6.13564 0.0176862
143 2 10.206 -0.805372 6.28379
68 3 6.48231 3.85922 8.49639
158 2 9.52725 6.35206 3.44848
345 2 13.8184 0.395761 0.245065
19 4 8.54251 5.78144 5.60035
15 4 6.0004 6.08956 4.0548
63 3 4.75375 5.90211 5.03229
225 2 10.4064 3.35047 16.6967
51 1 7.4509 2.23753 12.2691
184 2 15.2465 2.46775 9.19008
310 4 17.5653 -2.29233 14.2962
76 3 6.73058 3.49541 14.7149
256 2 20.0411 -2.97966 16.3407
312 1 19.2292 -1.51131 15.1833
128 2 8.2336 2.94073 12.7898
180 4 18.602 -0.530596 11.0541
316 1 14.7612 1.54877 8.85286
336 2 11.4233 -1.66387 16.8102
169 2 7.49937 4.10628 11.4634
187 1 16.8139 -0.0359159 11.8192
193 2 16.7364 0.826899 10.9573
366 1 16.1941 -2.76678 15.4062
195 2 16.4157 -1.09571 11.3627
335 2 13.0519 -2.51637 16.3724
260 4 14.0203 0.195007 15.4532
261 4 13.4374 -1.56706 12.7223
263 3 14.0252 -0.363214 17.0696
264 1 15.7589 0.872282 15.0847
265 1 12.7001 1.61138 15.4038
266 3 13.729 -0.965024 14.1183
267 2 11.7328 -1.94943 12.4733
269 1 13.8098 -0.413604 11.3228
270 2 16.2921 0.452738 14.1252
271 2 16.4793 0.82498 16.0365
272 2 15.2847 1.96882 14.8541
273 2 12.2987 1.70836 14.3887
274 2 13.4019 2.46563 15.7419
275 2 11.8941 1.3107 16.2026
276 2 14.4291 -1.26814 10.724
277 2 14.4225 0.427822 11.8822
278 2 12.7414 -0.167568 11.0021
318 2 14.2905 0.96259 9.72642
311 2 17.6141 -0.72098 13.4521
140 2 12.8541 -1.5079 9.18498
319 2 15.557 -0.129632 9.21447
333 1 11.8722 -2.5364 16.3069
194 2 16.2739 0.251096 12.7727
171 2 10.3893 3.85182 13.0192
161 2 14.216 3.39899 14.1078
81 1 10.3839 4.64269 12.1641
334 2 11.5481 -2.68587 15.1607
149 2 9.53679 2.54906 9.51164
215 2 18.3593 -0.396729 16.5827
369 2 16.6276 -2.25632 16.3934
314 2 19.1257 -1.76969 16.2895
126 2 7.06555 2.56619 11.2736
172 2 11.1759 4.42082 11.3567
155 2 11.2556 4.95751 9.05452
368 2 15.3194 -2.18289 14.884
14 4 0.992537 11.3877 7.1398
23 4 6.86641 9.00634 2.96589
24 4 3.17683 10.7003 5.14719
25 4 5.43994 11.2327 1.56714
26 4 7.42229 7.70268 7.98452
28 4 5.71273 10.2603 6.83428
246 2 8.83218 10.6606 7.65859
70 1 9.76619 6.69544 4.50114
83 3 6.41771 7.56698 3.70135
84 3 7.79172 8.40277 1.64938
85 3 7.76865 9.98348 3.89104
86 3 2.71661 9.98516 3.71201
87 3 3.47079 12.3292 4.95295
88 3 2.00367 10.559 6.30365
89 3 5.5829 9.95281 2.41441
90 2 5.1627 12.5305 2.63412
92 3 8.00018 6.89399 6.61075
56 3 2.48922 9.2059 1.05076
97 3 6.85296 11.1898 6.1104
98 3 4.43954 9.97108 5.79202
99 3 6.36337 9.04075 7.47107
100 2 5.11498 11.2531 8.08145
229 2 8.69722 12.3868 4.66069
258 2 8.20723 13.9173 0.538229
123 2 4.64322 7.13402 7.77373
371 3 6.45636 11.631 0.447516
156 2 10.8229 6.36024 4.82723
373 2 3.84494 11.3504 1.00328
221 2 13.7617 6.06166 5.71547
228 4 8.05471 10.8713 5.11834
224 2 12.4319 8.02245 2.15798
230 2 9.34909 10.4089 6.05597
157 2 9.57343 7.81905 4.63962
239 1 8.46454 11.0447 8.74917
372 2 5.99591 13.0756 4.2017
125 2 3.03463 8.32677 7.05551
222 4 11.5886 7.34057 0.46632
232 1 0.143719 12.3659 0.360985
142 2 -0.0130858 12.1736 4.8036
16 4 7.40708 7.27338 0.533534
96 2 4.20222 8.65884 8.61513
236 2 0.332132 13.0384 1.21077
255 2 9.58271 11.0871 0.052508
18 4 6.15885 5.40418 9.63652
20 4 13.299 5.62477 15.1526
21 4 6.92697 4.85281 15.5682
22 4 10.9196 6.3677 12.9428
27 4 4.23688 9.01352 10.341
29 4 8.10285 7.43681 13.9027
30 4 7.04406 9.38881 12.0051
168 2 8.45186 5.51905 10.3952
75 3 13.1245 4.84274 16.6295
77 3 8.10061 4.51633 16.799
78 3 5.51425 5.41236 16.236
79 1 12.1945 7.20719 11.8276
73 1 14.172 4.50227 13.8038
170 2 7.33034 6.0625 11.76
82 3 11.866 6.03869 14.5289
8 4 4.20695 6.04485 16.8925
94 2 3.02931 10.434 10.6298
95 1 2.80014 9.01325 11.7014
363 2 5.6377 8.0979 16.5851
101 3 7.61596 5.95163 14.4942
102 3 9.60863 7.25082 13.0806
103 3 8.22548 8.44663 15.1805
104 3 8.45271 9.72643 11.1896
105 3 5.63946 9.27471 11.0197
106 3 7.06301 7.92094 12.7649
107 3 6.83987 10.5541 13.2326
133 2 5.11528 6.50381 13.413
268 2 3.026 10.7911 12.4144
132 2 3.59002 7.4147 12.6693
93 3 8.6333 8.2528 8.83935
165 2 11.7228 8.21546 11.6035
361 1 4.51078 8.02366 16.6786
176 2 3.25181 7.52894 10.8202
252 1 9.73194 10.3033 17.0137
80 1 7.52992 5.29292 10.9759
185 2 7.71211 11.9265 10.3291
367 2 4.90671 10.2234 15.5795
175 2 3.38914 9.17808 12.663
237 4 9.15294 9.5206 9.77802
91 3 6.52971 6.70678 8.8063
245 2 7.38044 11.0669 8.84504
250 4 8.88109 8.50681 16.7671
362 2 3.96921 8.1079 15.6414
251 1 10.272 7.21296 16.975
240 3 10.835 9.62043 9.70751
54 1 4.04208 6.38922 13.2232
253 2 10.7475 6.8358 16.0283
173 2 9.31814 4.83823 11.7079
166 2 12.1267 6.41513 10.9683
244 2 8.96231 11.9505 9.11536
234 2 2.55229 8.85798 17.2689
364 2 4.00693 8.71184 17.4245
69 3 4.73412 5.3931 10.4062
160 2 13.6226 4.73029 12.8376
254 2 9.7581 6.35187 17.5243
ITEM: TIMESTEP
200
ITEM: NUMBER OF ATOMS
373
ITEM: BOX BOUNDS xy xz yz pp pp pp
-1.0902343999999999e+01 2.0642985999999997e+01 -1.0902343999999999e+01
-3.3405999999999998e+00 1.4057499999999999e+01 1.4032940000000000e+00
0.0000000000000000e+00 1.7550000000000001e+01 -3.3405999999999998e+00
ITEM: ATOMS id type x y z
3 4 4.9361 1.19018 2.87711
45 2 4.62366 1.96539 8.51369
5 4 6.62613 1.6574 5.34662
7 4 4.30394 4.21496 2.25761
9 4 5.35972 3.2702 7.68579
119 2 2.55965 5.75265 1.2675
33 3 5.79584 0.317535 1.95354
34 2 3.37876 0.467384 2.97858
325 1 -0.593139 4.3374 5.3474
36 3 5.44553 1.18266 4.41535
37 3 7.37214 0.38124 6.00835
41 3 4.64787 2.66431 2.48102
190 2 2.30348 -0.787843 5.44793
43 2 2.72279 4.6981 3.01473
111 2 5.74274 0.440062 8.17928
46 3 6.10386 2.57762 6.48776
326 2 -0.961247 3.44544 6.10783
48 3 4.26421 4.20624 7.18421
284 2 4.29034 0.0193559 0.412299
4 4 7.54913 -0.963315 6.90492
328 2 0.171357 3.95557 4.59491
320 2 1.98415 2.90687 5.54084
35 2 6.83802 -0.81033 8.51936
178 4 1.8641 1.36715 6.26604
179 4 -0.24807 1.75727 8.63497
181 1 1.32048 -0.163361 5.3299
42 1 2.84522 4.65998 1.1108
183 3 0.882856 1.49473 7.48795
327 2 -0.233741 5.22922 5.90403
182 3 -1.74376 1.70913 8.03726
191 2 1.21061 0.325466 4.31786
118 2 3.53388 4.55729 0.138877
199 4 -1.49935 4.06559 1.21756
200 4 -2.25798 4.49093 4.57484
202 2 0.0211286 4.87075 0.794701
203 1 0.111291 2.94089 1.00597
205 3 -1.87638 4.27072 2.82402
210 2 -0.644166 1.97088 0.77201
211 2 0.583686 2.71519 2.0455
337 2 3.38672 0.968912 6.80964
117 2 1.8421 3.99149 0.965698
192 2 0.339502 -0.542833 5.7909
331 2 7.77847 -0.496057 3.87787
207 3 -2.97486 5.94743 5.09717
135 2 2.21612 6.21132 2.52478
212 2 0.864599 2.97548 0.136146
365 2 9.23302 -1.24903 7.19956
2 4 4.86604 -0.933509 10.6284
6 4 4.92716 -0.292967 13.8784
339 2 3.90308 0.45579 9.72607
32 1 5.62153 0.45325 9.34911
38 3 4.70475 -0.602077 12.1501
39 3 5.88943 -1.28733 14.7683
40 1 3.22271 -0.403024 14.5663
50 3 5.39647 1.32445 13.9843
11 4 6.06168 2.84622 13.5063
285 2 8.8098 -0.971724 15.9103
112 2 6.69101 -0.755078 10.3207
113 2 6.19677 1.32307 9.85486
114 2 2.36737 -0.425156 13.794
115 2 3.11609 0.544306 15.1669
116 2 3.3214 -1.37476 15.1957
129 2 2.36219 2.98745 12.4172
280 1 5.10776 -2.79905 17.1292
130 2 2.29978 3.694 10.5806
286 2 8.84111 -2.53348 17.0113
189 2 0.149546 3.26007 9.2491
186 3 -0.193191 0.681582 9.94843
188 1 0.857273 -0.42838 12.4709
196 2 1.79396 0.0217982 12.0699
197 2 0.992456 -1.54798 12.76
198 2 0.212289 0.366787 13.157
315 2 0.187953 -0.461485 14.9579
283 2 4.62867 -1.80714 17.4133
53 3 4.9302 3.81281 12.7442
127 2 7.47312 1.25399 12.3143
52 1 2.43671 3.89706 11.6995
279 4 6.56314 -2.34105 15.8315
287 2 7.62845 -1.09273 17.3482
281 1 8.2334 -1.61442 16.5574
131 2 1.73763 4.73045 12.0709
213 2 -1.86434 1.17682 17.4376
1 4 -3.88774 13.0519 1.47054
13 4 2.33853 8.95944 2.70837
31 1 -4.60007 11.3519 0.855976
49 1 3.1692 7.27982 7.60623
55 1 2.3676 7.12652 3.26973
359 2 -0.880307 7.3762 8.31566
57 2 0.78129 8.27645 2.92583
59 1 -0.447209 12.1364 5.74911
60 1 -0.117483 10.2542 8.43767
352 1 -4.44603 11.8833 6.02654
226 2 -5.51867 7.25347 0.715842
109 2 -5.6814 11.7511 0.903739
110 2 -4.42883 10.5689 1.62572
249 2 -7.72482 9.60855 7.07699
10 4 4.14246 5.81574 6.48466
329 1 -2.89173 12.8244 3.01098
136 2 1.59236 7.03651 4.12327
145 2 -1.14667 10.3306 7.8318
141 2 -1.28746 11.4805 5.9176
137 2 3.50831 7.19043 3.59966
144 2 0.4623 9.29457 8.20906
353 2 -5.35355 11.3443 6.58667
124 2 2.64658 6.8911 8.54503
201 4 -3.55788 7.35939 5.52436
206 1 -3.18548 8.66191 4.14236
357 2 -2.04847 5.71432 8.20104
208 1 -5.39419 7.25171 5.74545
209 2 -3.36932 8.05163 7.18255
216 2 -2.58117 9.5467 4.46433
217 2 -4.24419 9.0918 3.84173
218 2 -2.62482 8.21614 3.22496
219 2 -5.66328 7.93823 4.78819
220 2 -5.76875 7.70122 6.74226
248 2 -7.02157 11.405 7.25641
233 3 -2.52102 13.582 0.162123
355 2 -4.7878 12.4547 5.07997
243 1 -6.88331 10.2811 7.47696
247 2 -5.86033 9.82913 7.31332
332 2 -1.80244 12.8932 2.66692
47 2 2.26015 6.39447 6.42517
354 2 -3.47314 11.152 5.72227
330 2 -3.27198 11.7279 3.2418
297 2 -5.05692 8.02009 7.97766
232 1 0.0312305 12.0226 0.199858
257 2 -8.60549 10.0384 16.7893
44 1 2.53803 5.58041 15.9801
146 2 -0.183306 10.3804 9.54297
74 1 -4.98879 7.25 15.7645
120 2 2.27795 6.74106 15.6473
360 2 -2.97987 5.97406 10.1321
296 2 -4.7647 7.66864 10.0058
348 1 -3.92659 10.141 14.8173
162 2 -4.36187 7.56439 16.8056
163 2 -5.9059 7.96301 15.6039
164 2 -4.25666 7.24616 14.8201
108 2 -2.8866 7.70495 17.3638
12 4 4.02576 4.89759 11.9297
338 2 -0.175421 9.20154 15.2449
231 4 0.219773 9.89562 16.8889
298 2 0.507682 10.212 10.8674
349 2 -4.34412 9.10238 15.1471
351 2 -4.18027 10.42 13.7688
238 4 -6.9784 10.3195 9.39629
159 2 -4.01355 5.09197 14.136
241 2 -5.87962 9.0007 9.73251
242 3 -6.47462 11.7281 9.97836
121 2 1.9588 5.23931 16.9479
300 2 -0.703527 11.3045 12.183
303 2 0.318421 7.6779 14.2286
134 2 3.29166 6.04536 14.1409
282 2 -6.48691 10.5855 16.6095
350 2 -2.70882 10.401 15.1318
288 4 -2.55843 7.65895 9.75868
289 4 -1.26185 9.10892 12.4571
291 1 0.0679663 10.3634 11.9498
292 3 -1.85562 8.38575 11.0355
293 1 -0.791737 7.86646 13.9717
294 2 -2.52369 9.79922 13.477
356 1 -1.44989 6.32124 8.92837
299 2 0.820077 10.0423 12.8116
167 2 -5.94253 7.53406 12.2095
301 2 -1.09599 6.97434 13.2893
302 2 -1.40333 7.76403 14.8658
358 2 -0.607203 5.70856 9.40536
69 3 4.57674 5.36657 10.4923
295 2 -3.99119 9.29636 8.94122
122 2 2.46007 4.8347 15.1275
244 2 -9.92568 12.1078 8.9413
235 2 0.845873 7.73008 17.4594
290 1 -4.31938 8.1574 8.80457
342 2 13.3724 3.96318 3.50588
153 2 12.2034 4.8917 7.65262
17 4 10.2958 3.31832 7.26258
58 1 12.76 -1.26889 8.27093
227 2 11.9883 5.51859 0.562804
64 2 6.37 6.10286 1.21954
65 1 9.05722 2.24652 8.48616
66 1 11.115 2.12375 6.03502
67 1 11.5931 4.30482 8.44237
61 2 7.82927 2.55067 4.53118
71 3 7.28617 5.30516 4.58896
72 3 9.40259 4.46452 6.43473
138 2 12.0385 -0.379383 8.26769
321 1 15.9209 2.92508 5.06078
147 2 8.86413 1.25923 7.98314
148 2 8.11111 2.81003 8.62946
150 2 11.3152 1.08898 6.40153
151 2 12.1033 2.82722 5.96018
152 2 10.4524 2.12615 5.14781
19 4 8.50143 5.76157 5.65834
139 2 13.7554 -1.10063 7.78504
177 4 16.1359 0.813811 7.88218
343 2 12.7504 5.11717 2.0591
345 2 13.5712 0.376874 0.341332
214 2 15.6084 2.72911 0.669155
322 2 16.112 2.63159 6.13672
346 2 12.4519 0.447784 1.86765
259 4 12.8233 2.54179 1.17128
262 2 11.6423 3.57082 2.78251
304 4 15.3006 -0.524601 5.00845
305 1 16.0655 0.28123 3.20784
306 3 15.7006 0.169113 6.47231
307 2 14.509 0.777971 3.93138
308 2 16.0057 -0.0294084 2.12046
309 2 16.6354 1.21918 3.2616
317 2 13.8724 1.72398 8.18374
323 2 15.893 1.9108 4.29342
324 2 14.9275 3.55133 4.91142
344 1 13.4421 0.83525 1.31678
340 1 12.7715 3.91992 2.54147
341 2 14.3544 2.95156 2.01169
62 3 5.50488 5.30334 2.34137
347 2 14.5082 0.644861 2.06091
204 1 16.3557 3.38468 0.176138
143 2 10.3128 -0.852124 5.89554
15 4 6.00739 6.15789 4.03626