ITEM: TIMESTEP
0
ITEM: NUMBER OF ATOMS
310
ITEM: BOX BOUNDS xy xz yz pp pp pp
-9.0288000000000004e+00 1.5411400000000000e+01 -7.2027000000000001e+00
0.0000000000000000e+00 1.3079499999999999e+01 -1.8261000000000001e+00
0.0000000000000000e+00 1.7328365999999999e+01 3.3839999999999998e-01
ITEM: ATOMS id type x y z
168 2 2.22282 4.77324 7.80101
3 4 3.10688 2.01904 3.23782
4 4 4.19915 4.50134 1.90309
22 2 5.58164 2.2902 3.29576
294 2 5.7088 0.599515 7.70314
24 2 4.78043 1.82648 4.91272
25 2 1.22104 0.909363 4.71781
26 2 1.26981 2.87085 4.98235
27 2 2.83389 1.75396 5.4533
41 1 4.88385 1.61943 3.81326
42 1 1.86516 1.85437 4.71261
48 3 2.73448 0.682972 1.83468
49 3 3.04067 3.51255 2.66572
51 3 3.79543 5.78872 0.922477
71 4 -1.32617 2.52137 3.15875
72 2 0.376506 2.28737 3.51506
176 1 1.64602 5.81423 7.86703
74 2 -0.342902 5.00655 2.23567
75 2 -1.6 4.82622 3.63778
76 1 -1.1361 4.3763 2.72722
310 3 6.86238 1.24358 0.896709
23 2 5.09392 0.545171 3.66421
160 2 1.37251 6.40917 6.05466
150 4 -0.0239394 4.77554 7.90802
159 2 0.00453676 5.06376 4.20153
163 2 0.34892 3.34592 5.92529
164 2 -0.933722 2.54595 7.05971
165 2 0.867508 2.48604 7.50538
175 1 0.0931332 3.12183 6.99685
179 3 -2.99695 5.52471 5.02527
180 3 -1.09197 5.51841 6.99686
195 2 -1.27952 6.1069 1.84419
287 2 1.16316 1.58762 0.305755
50 3 5.28462 3.49609 1.09789
280 2 2.19654 0.257162 5.88307
152 4 -2.07416 6.46951 5.98051
293 1 6.14153 0.971233 8.62562
73 2 -2.16565 4.10175 1.86405
1 4 2.90041 0.0328468 0.4127
132 3 1.89979 1.42164 8.60528
286 2 0.241437 0.120717 2.35626
94 4 0.436961 3.11898 11.5989
95 4 2.74501 2.57879 9.80634
97 4 4.86272 2.1757 11.7565
291 2 5.41616 1.12672 9.41037
103 2 -0.751097 1.9385 11.1472
104 2 -0.324898 4.58242 12.0109
105 2 1.17393 2.66642 13.0531
108 2 1.17147 5.94762 15.5953
111 2 2.63594 3.63188 14.5809
289 2 0.445833 1.57955 15.9033
218 2 4.01573 2.64547 15.9305
301 2 0.148137 1.27215 9.02702
133 3 1.50968 3.28872 10.494
134 3 3.63102 1.46855 10.9249
290 1 -0.288392 1.16616 16.7516
136 3 3.8498 3.74669 9.1757
142 4 -2.19018 5.72359 16.197
135 3 5.81508 1.14295 12.5397
144 2 -1.06572 3.91988 16.5796
43 1 -0.968352 1.20251 9.35295
146 2 -1.81174 3.96754 14.523
147 2 -0.13174 4.78175 14.7939
148 1 -1.13965 4.54249 15.2465
149 3 -3.7168 5.50204 15.9932
156 2 -0.685199 4.37699 9.37176
28 2 -1.48226 2.14769 9.60474
145 2 -1.36718 6.34813 14.7283
137 3 4.39323 3.26737 12.7616
217 2 2.44466 1.87174 15.1857
275 2 -2.12049 1.92936 16.5575
219 2 2.26054 3.17764 16.4342
220 1 2.89007 2.3558 16.1208
276 2 0.834772 0.291218 13.5502
16 2 2.78924 1.00155 17.1893
98 4 2.39969 6.56404 16.7538
166 2 1.33089 6.16684 8.99376
162 2 -3.66899 5.23347 9.82202
302 2 -1.09837 0.424911 10.1548
83 2 -4.16197 11.2675 6.33149
87 1 -4.94271 12.0787 6.67653
177 1 -3.02251 9.88734 7.88846
153 4 -3.96269 8.22692 7.94341
154 4 0.466793 6.65715 4.60464
155 4 1.94252 8.17666 2.26163
197 2 -1.98268 6.99212 0.186502
232 1 0.38842 11.8059 4.69177
196 2 -0.45677 7.82449 1.17687
279 2 -6.04659 11.6448 6.73424
171 2 -1.95189 9.52468 7.9793
182 3 -3.08483 7.50178 6.89509
183 3 -0.86926 7.38876 5.01434
184 3 1.28735 7.38117 3.4914
185 3 1.10919 8.76701 1.01893
193 4 -2.98554 8.00192 1.95283
194 2 -1.4003 8.7743 2.32375
170 2 -3.16883 10.5202 6.91191
198 1 -1.42508 7.2022 1.21345
199 3 -3.46502 6.90016 2.89206
200 3 -3.87862 8.85891 0.982504
202 2 -4.95752 12.1035 2.9113
203 2 -4.91468 10.179 3.39027
204 2 -5.26143 11.5113 4.71891
143 2 0.0947852 6.41184 0.047058
206 1 -5.38137 11.2237 3.6105
224 2 0.371477 9.4261 6.53595
212 2 -0.492327 12.5547 3.14753
80 2 -3.40448 12.2942 7.86988
167 2 2.30572 6.64097 7.39309
228 2 -0.574218 11.0781 4.73006
77 4 -5.00898 12.6345 8.49913
214 3 0.742005 11.5721 0.855687
309 3 -4.46531 11.2173 0.0623773
158 2 -5.49042 8.69197 7.31471
126 2 0.0433636 7.8954 16.2613
78 4 -6.31599 10.5398 10.4942
79 4 -5.76994 11.4827 13.4096
277 2 -1.92466 11.5239 13.7323
81 2 -6.80205 10.7763 14.564
119 2 1.31398 8.78892 13.125
84 2 -3.59651 11.6246 12.585
85 2 -4.06538 10.2184 14.102
169 2 -3.38367 10.3919 8.81446
88 1 -3.87566 11.3714 13.6934
89 3 -5.62544 11.5232 9.42689
90 3 -6.01372 10.9727 11.9428
226 2 -0.412043 11.5187 10.3779
225 2 0.914595 10.3103 9.68634
124 2 1.21962 7.83332 14.8271
237 2 -1.77754 9.84146 15.2725
82 2 -5.71674 8.97453 10.2401
129 1 1.23238 7.70589 12.7828
131 1 1.15613 7.81037 16.0214
238 2 -2.95889 10.7682 16.3882
157 2 -3.33896 6.8974 11.856
86 2 -3.89706 12.2115 14.4699
118 2 0.968001 7.6751 11.6898
120 2 0.612305 7.0036 13.403
283 2 -5.05605 8.23131 15.7265
181 3 -4.00394 7.82921 9.41522
236 2 -2.64862 8.99653 16.7947
239 1 -2.23919 9.9362 16.3058
210 2 -6.23704 9.498 15.7171
151 4 -4.2648 6.69817 10.5109
234 4 -0.75525 10.4118 17.2998
208 4 -6.56482 9.97465 17.2592
288 2 -8.18195 13.0305 16.4504
2 4 11.2826 5.75848 3.77002
211 4 7.50395 0.0887239 1.6551
5 4 11.0419 1.13081 0.34552
9 4 6.0776 6.3509 3.49171
7 4 12.128 1.65387 5.62155
8 4 10.0665 3.27565 2.28546
110 2 4.19737 5.73754 7.01237
10 4 9.16284 5.61116 0.507078
11 4 10.0153 3.50782 7.00259
12 4 8.79768 6.05855 5.50762
46 1 11.3412 4.1518 8.2089
191 3 10.8438 5.62712 0.102793
19 2 8.89723 2.51382 7.95217
29 2 9.44415 1.53034 3.96174
30 2 7.8386 2.21102 2.98339
31 2 8.88056 3.31254 4.25711
115 2 6.42617 5.1372 6.11571
274 2 13.9441 1.31029 1.91734
44 1 8.88987 2.41489 3.46949
117 2 6.63441 4.25836 8.25468
128 1 5.64044 4.70781 6.90204
213 2 8.8039 0.753336 2.37136
53 3 13.1721 2.16035 4.33397
54 3 12.9397 1.54893 7.01849
55 3 10.7591 1.98075 1.62097
56 3 10.9429 4.36507 3.06692
57 3 5.26366 5.02728 2.97339
58 3 8.79475 4.18578 1.08354
59 3 10.8145 2.53256 5.94247
215 4 6.35934 2.59709 0.343837
61 3 7.38332 5.87119 4.84031
62 3 9.22972 4.6995 6.31896
292 2 6.7813 2.00519 8.39492
99 4 4.81062 4.84533 8.5873
6 4 13.2784 0.276 7.94458
230 2 7.46718 0.134142 5.13646
35 2 11.2563 5.2304 8.10953
116 2 5.30723 3.71326 6.57126
33 2 4.04064 6.40561 4.74056
60 3 9.96171 6.39443 4.37402
36 2 12.3854 3.75157 8.01493
216 2 7.77927 3.54616 0.0799969
17 2 7.89747 1.47713 16.5944
295 2 10.1494 1.62736 9.06296
37 2 10.7487 3.64255 9.18171
100 4 3.96124 4.35905 13.7644
91 4 11.6505 2.18588 16.0011
92 2 11.5037 1.62312 14.3926
93 2 11.5979 3.87547 15.8216
296 2 9.15213 0.811217 10.5207
251 2 7.02895 4.61514 10.0084
102 4 5.28628 6.18789 15.5032
52 3 10.4723 1.74306 16.8598
107 2 5.98927 2.9093 10.6558
141 3 3.84645 6.559 16.1916
114 2 6.88817 2.56146 15.1294
127 1 7.01635 0.751 14.9727
297 2 8.52233 2.52132 9.76479
138 3 3.44241 5.74462 13.1753
139 3 5.24855 4.57356 15.0336
140 3 6.46433 6.3752 16.5119
186 4 9.75542 5.86919 15.9754
187 4 8.16144 3.54258 14.1893
188 2 8.54789 1.88575 14.4396
189 2 8.50487 3.14951 12.5799
190 2 6.50629 3.99501 13.9376
303 2 13.1905 0.971673 14.8158
192 3 9.03428 4.70018 14.9804
122 2 3.53511 5.97867 10.5156
255 1 7.53463 4.09962 11.1269
298 1 9.10486 1.48104 9.54344
241 2 12.4161 1.93133 12.4779
242 2 10.9992 1.49713 11.2585
243 2 12.929 1.27382 10.7
252 2 7.94145 6.24732 13.254
245 1 12.077 1.34672 11.5787
257 3 9.66517 6.36235 10.9418
247 4 8.0852 6.0017 11.3471
249 2 6.76751 4.19295 11.9564
250 2 7.90373 2.98113 10.932
253 2 5.79242 6.53388 12.6986
109 2 5.00923 6.28974 9.58708
300 2 6.23451 0.310745 15.712
13 4 7.79964 7.94443 1.7072
14 4 7.29522 7.85138 7.19649
15 4 6.56662 10.6182 6.094
285 2 6.56222 12.4873 2.68558
21 2 6.21667 6.60042 7.00322
278 2 3.85471 12.2742 0.762732
34 2 4.25288 8.05457 3.95787
38 2 4.20193 9.87863 5.96345
39 2 4.88663 11.1502 4.56865
40 2 4.02745 11.7558 6.30961
207 1 7.46436 12.2259 2.14841
47 1 4.58001 10.9417 5.73451
63 3 6.57346 7.27455 2.3058
64 3 8.98924 6.95574 1.45674
65 3 8.22178 9.3624 2.51977
66 3 7.38825 8.9245 0.0279564
67 3 8.81993 7.35522 6.881
68 3 7.41149 10.8355 4.67982
69 3 6.60299 9.0859 6.52275
70 3 6.95192 11.7954 7.08282
172 2 2.55758 10.3897 2.46031
173 2 4.23834 9.40205 2.58456
174 2 3.13626 9.41684 4.01245
178 1 3.19602 9.43814 2.94175
201 4 8.23824 10.7706 3.28528
161 2 3.6025 7.80601 1.95615
222 4 1.07027 10.9463 6.1934
223 2 2.63509 10.3925 5.91119
229 2 1.38383 11.5588 4.01558
233 3 1.01327 11.9598 7.59003
267 2 3.5951 10.434 7.41688
205 2 7.37592 11.8261 1.09184
32 2 5.21902 7.72405 5.46683
45 1 4.79437 7.26529 4.56453
18 2 4.52259 12.8299 5.13401
101 4 3.04891 7.16395 12.5382
112 2 3.82245 8.47409 13.4558
113 2 5.59897 7.31375 14.2448
246 1 5.4638 12.7523 14.5156
123 2 4.63309 7.5901 10.905
130 1 3.61033 7.1625 10.6519
304 2 6.27644 11.9195 14.4459
235 2 0.620825 10.5984 16.3341
227 2 1.3878 11.4213 11.1794
248 2 6.88382 7.29146 10.8388
125 2 1.79295 8.73761 16.5064
254 2 6.79841 8.04035 13.224
256 1 6.79009 7.09622 12.6591
258 4 5.07158 10.1388 16.2004
259 2 5.83222 11.6666 16.0852
260 2 5.24463 9.36216 14.5268
261 2 3.06981 8.67918 15.0844
262 2 3.15449 10.4015 14.124
240 4 4.72309 12.4036 12.583
264 1 3.599 9.6557 14.9627
265 4 4.16037 11.0656 8.89517
266 4 6.11823 10.1816 10.791
268 2 2.6163 11.2397 9.75264
269 2 6.36476 8.6827 11.6586
271 3 7.53531 10.434 10.219
272 3 5.01726 9.90997 9.48704
273 3 5.45921 11.2526 11.7924
281 2 8.45785 7.84423 15.6528
284 1 9.54443 7.56748 15.3145
231 1 0.735692 11.2801 10.2171
106 2 0.759024 12.0172 12.738
221 4 0.608558 12.8136 8.87956
305 2 2.81925 11.92 13.8663
306 2 2.67392 10.7693 12.4375
263 2 3.27536 10.6264 16.4763
308 1 2.4367 11.7837 12.8668
20 2 7.07254 7.91994 8.80432
282 2 9.62817 7.34572 14.1755
307 2 2.82302 12.5981 12.1535
121 2 2.99532 7.82697 9.97466
244 2 4.50703 12.4373 15.1498
270 3 4.77939 12.5253 8.71984
96 4 -0.740203 12.7967 13.475
299 2 0.907788 12.9392 15.044
209 2 7.16029 9.52045 17.2889
ITEM: TIMESTEP
100
ITEM: NUMBER OF ATOMS
310
ITEM: BOX BOUNDS xy xz yz pp pp pp
-9.0288000000000004e+00 1.5411400000000000e+01 -7.2027000000000001e+00
0.0000000000000000e+00 1.3079499999999999e+01 -1.8261000000000001e+00
0.0000000000000000e+00 1.7328365999999999e+01 3.3839999999999998e-01
ITEM: ATOMS id type x y z
168 2 2.17016 4.54702 7.67097
3 4 3.07673 2.07513 3.17207
4 4 4.32523 4.45972 1.93783
22 2 5.51296 2.16454 3.15941
294 2 5.75541 0.557463 7.41774
24 2 4.78544 1.92517 4.83012
25 2 1.17241 0.968213 4.68599
26 2 1.32014 2.83624 5.00487
27 2 2.85265 1.68771 5.42276
41 1 4.81007 1.55337 3.80954
42 1 1.83534 1.86169 4.68624
48 3 2.69177 0.755014 1.86531
49 3 3.04159 3.63966 2.69566
51 3 3.63509 5.62244 0.894335
71 4 -1.38825 2.54271 3.13282
72 2 0.239377 2.04508 3.53731
176 1 1.65798 5.58126 7.83279
74 2 -0.0827908 4.36082 2.6448
75 2 -1.65886 4.907 3.7772
76 1 -1.23134 4.40394 2.83282
310 3 6.77566 1.25676 0.984166
23 2 4.94323 0.462362 3.67374
211 4 7.50809 0.053666 1.67099
150 4 -0.0856309 4.85714 8.05098
159 2 -0.0981366 5.12959 4.26199
163 2 0.696119 3.52242 6.10201
164 2 -0.826415 2.61784 6.95496
165 2 0.902692 2.48926 7.71099
175 1 0.177458 3.19465 7.13849
179 3 -2.88429 5.35959 5.03803
180 3 -0.926766 5.78972 7.06989
195 2 -1.29786 6.07387 1.70677
287 2 1.07792 1.69633 0.269161
50 3 5.21043 3.47766 1.05307
280 2 2.09546 0.249586 5.87804
167 2 2.23903 6.34468 7.29597
293 1 6.03931 0.710343 8.50837
73 2 -2.07799 4.23142 1.82692
1 4 2.80723 0.196663 0.390497
132 3 2.12377 1.45097 8.46959
286 2 -0.0533688 0.378542 2.18479
215 4 6.17845 2.61226 0.259694
94 4 0.520263 3.04943 11.588
95 4 2.81379 2.50889 9.81671
97 4 4.94844 2.28712 11.7736
291 2 5.20559 0.387533 9.19987
103 2 -0.217364 1.59682 11.2239
104 2 -0.57476 4.21751 11.8408
105 2 1.20463 2.71565 13.0487
108 2 1.017 6.12076 15.5489
111 2 2.46389 3.84319 14.668
289 2 0.297457 1.77462 15.9028
218 2 4.03991 2.79741 15.8472
301 2 0.152385 1.1065 9.14219
133 3 1.51572 3.40952 10.484
134 3 3.63429 1.68284 10.9224
290 1 -0.36252 1.25152 16.7482
136 3 3.957 3.59005 9.00026
142 4 -2.03153 5.73509 16.2012
135 3 5.85028 1.11733 12.6377
144 2 -1.04167 3.95638 16.3944
43 1 -0.928072 0.984835 9.45268
146 2 -1.68887 4.10014 14.3964
147 2 0.0936021 4.53487 14.7338
148 1 -0.980591 4.62539 15.1015
149 3 -3.63779 5.58451 15.942
156 2 -0.719485 4.62627 9.66068
28 2 -1.43298 2.03307 9.69925
145 2 -1.04765 6.44881 14.8071
137 3 4.34357 3.39333 12.7406
217 2 2.51646 1.85506 14.9421
275 2 -2.26086 1.98903 16.5446
219 2 2.07361 3.02803 16.2467
220 1 2.82248 2.29055 15.9161
276 2 0.990087 0.476672 13.6798
16 2 2.71852 1.03784 17.0095
98 4 2.23153 6.58801 16.8354
166 2 1.65941 5.80165 9.06819
162 2 -3.60591 5.12566 9.84353
122 2 2.97538 6.26043 10.3561
288 2 -1.13316 0.497847 16.3177
100 4 3.73934 4.46442 13.7481
151 4 -4.3021 6.52746 10.4358
83 2 -4.01369 11.2955 6.30996
87 1 -4.90388 12.0273 6.55967
177 1 -2.88512 9.97886 8.14306
153 4 -3.89088 8.41218 8.05817
154 4 0.322015 6.73135 4.70794
155 4 1.96854 8.0601 2.44417
160 2 1.21989 6.51597 6.141
232 1 0.257802 11.9145 4.62795
196 2 -0.404053 7.84255 1.1286
279 2 -5.86953 11.4166 6.75603
171 2 -1.78714 9.74182 8.28016
182 3 -3.03106 7.42379 6.93983
183 3 -1.04439 7.53392 4.8505
184 3 1.20403 7.42262 3.61921
185 3 1.18522 8.63425 1.13144
193 4 -2.98225 7.86767 1.91527
194 2 -1.40915 8.46206 2.53084
170 2 -3.11554 10.6504 7.16031
198 1 -1.32718 7.1581 1.10455
199 3 -3.64101 6.85601 2.84226
200 3 -3.75216 8.91122 1.0442
202 2 -5.1002 11.9576 2.80974
203 2 -5.11273 10.0454 3.25848
204 2 -5.20929 11.429 4.65537
309 3 -4.59156 11.3144 0.127265
206 1 -5.43724 11.1392 3.49507
224 2 0.492743 9.40169 6.36188
212 2 -0.729304 12.1683 2.9334
80 2 -3.33619 12.1977 7.71685
152 4 -2.1349 6.52685 5.95946
228 2 -0.609881 11.0374 4.50597
77 4 -4.86578 12.6148 8.41303
214 3 0.693351 11.4338 0.750266
158 2 -5.5112 8.54135 7.5099
208 4 -4.61067 9.73424 0.0496697
143 2 0.242129 6.39795 0.217152
197 2 -1.93031 7.13585 0.00884732
126 2 0.177443 7.82468 16.618
78 4 -6.20828 10.5621 10.3894
79 4 -5.73787 11.5483 13.523
277 2 -1.99052 11.412 13.8559
81 2 -6.8135 10.802 14.5873
119 2 1.13175 8.78127 13.5463
84 2 -3.59567 11.318 12.8186
85 2 -4.2263 10.4089 14.7084
169 2 -3.32523 10.4347 9.12766
88 1 -3.88163 11.4703 14.0128
89 3 -5.52127 11.5432 9.36159
90 3 -5.97098 11.0354 11.9337
226 2 -0.532432 11.7855 10.485
225 2 0.564524 10.2715 10.054
124 2 1.15846 7.93198 14.8417
237 2 -1.82399 10.0569 15.1618
82 2 -5.29883 9.06394 10.2543
129 1 1.31395 7.83186 12.838
131 1 1.1871 7.96702 16.0802
238 2 -3.15998 10.9169 16.3731
157 2 -3.37318 6.79936 11.7619
86 2 -3.95771 12.5529 14.5027
118 2 1.10833 8.00396 11.7178
120 2 0.733786 6.91675 13.2678
283 2 -4.86897 8.23802 15.246
181 3 -4.04329 7.6722 9.48783
236 2 -2.5987 9.01963 16.5364
239 1 -2.32694 10.0788 16.2243
210 2 -6.02081 9.50331 15.845
96 4 -0.812605 12.692 13.6058
234 4 -0.901566 10.4153 17.2441
2 4 11.2523 5.72453 3.80731
36 2 12.0474 3.53227 8.34005
5 4 11.1455 1.03724 0.458177
9 4 6.11816 6.4032 3.66448
7 4 12.1689 1.6327 5.63593
8 4 9.99221 3.2361 2.27083
110 2 4.19273 5.50365 6.82559
10 4 9.3141 5.74636 0.505199
11 4 9.99149 3.28563 6.94427
12 4 8.84795 5.98469 5.57211
46 1 11.0791 4.09905 8.26848
216 2 7.62023 3.57315 0.0713808
19 2 8.76908 2.38682 7.8654
29 2 9.39709 1.42924 4.08575
30 2 7.80166 2.28895 3.30949
31 2 9.06985 3.3082 4.39447
115 2 6.44325 5.07084 6.04915
274 2 13.9085 1.37184 1.8169
44 1 8.92747 2.38248 3.67783
117 2 6.68063 4.62318 8.26169
128 1 5.76358 4.57647 6.83287
213 2 8.69479 0.608351 2.73102
53 3 13.1439 2.21576 4.36689
54 3 13.1454 1.65043 6.87955
55 3 10.6902 1.97903 1.62417
56 3 11.0088 4.33126 2.94177
57 3 5.27797 5.01717 3.26103
58 3 8.91475 4.05573 1.0456
59 3 10.7679 2.26329 5.98561
60 3 9.99561 6.32655 4.48703
61 3 7.42765 5.88175 4.83614
62 3 9.30277 4.58257 6.33895
21 2 6.1578 6.49293 7.04657
99 4 4.7254 4.76908 8.45349
6 4 13.3239 0.236924 8.09576
230 2 7.26527 0.153209 5.22619
35 2 11.162 5.24727 8.11572
116 2 5.58763 3.49258 6.58221
33 2 4.02676 6.33834 4.78885
17 2 7.99975 0.944491 16.7508
295 2 10.1974 1.54425 8.98602
37 2 10.3168 3.75241 9.14253
253 2 5.80054 6.59661 12.5972
91 4 11.6231 2.32081 15.9884
92 2 11.56 1.7416 14.412
109 2 4.49889 6.27072 9.29473
296 2 9.40211 0.535088 10.3362
251 2 6.9236 4.69732 10.0485
102 4 5.34035 6.07178 15.5302
52 3 10.4666 1.83053 16.8765
107 2 6.01243 3.11582 10.7081
141 3 3.75069 6.46264 16.1664
114 2 6.86765 2.48971 14.998
127 1 7.07647 0.665333 15.0554
297 2 8.72223 2.25252 9.90747
138 3 3.29765 5.90131 13.2257
139 3 5.1359 4.6234 14.8264
140 3 6.45772 6.11355 16.5641
186 4 9.76024 5.86697 15.808
187 4 8.11919 3.5682 14.1259
188 2 8.53389 1.90518 14.506
189 2 8.57585 3.5535 12.4819
190 2 6.53473 4.14331 13.8593
303 2 13.2858 0.980729 14.5284
192 3 9.00456 4.7518 14.9825
250 2 8.32797 3.50914 10.457
255 1 7.59792 4.26343 10.8803
298 1 9.2627 1.35754 9.44201
241 2 12.0982 1.97527 12.3934
242 2 11.1176 1.65144 10.7164
243 2 13.0286 1.2117 10.8048
252 2 7.93507 6.36855 13.4116
245 1 11.9968 1.33399 11.4092
257 3 9.65415 6.30089 11.0065
247 4 8.15397 6.06968 11.4995
249 2 6.97655 3.86286 11.781
191 3 8.98767 6.03076 17.3023
292 2 6.3499 1.79339 8.7114
93 2 11.6229 4.02515 15.823
13 4 7.70043 8.012 1.72272
14 4 7.38711 7.74344 7.31682
15 4 6.5996 10.5793 6.15628
285 2 6.33346 12.5357 2.42572
45 1 4.76963 7.22019 4.69728
278 2 4.34662 12.2877 1.04872
34 2 4.28212 8.10723 4.06611
38 2 4.50927 9.73515 5.77158
39 2 4.94027 11.2263 4.62493
40 2 3.82634 11.5893 6.17434
207 1 7.39612 12.3192 1.99062
47 1 4.64484 10.9316 5.72152
63 3 6.3699 7.55254 2.42012
64 3 8.78133 6.87371 1.57325
65 3 7.97067 9.47303 2.46001
32 2 5.12452 7.43589 5.70591
67 3 8.89324 7.46643 6.71788
68 3 7.38335 10.9128 4.66044
69 3 6.80576 9.11089 6.70196
70 3 6.94385 11.7785 7.33161
172 2 3.04457 10.152 1.96794
173 2 4.50682 9.44067 2.90731
174 2 2.78808 9.58825 3.93086
178 1 3.38498 9.37148 2.75765
201 4 8.10826 10.8752 3.18496
161 2 3.69499 7.63072 2.14924
222 4 1.08677 10.9544 6.06268
223 2 2.73227 10.5732 5.64906
229 2 1.23112 11.8712 3.95511
233 3 1.04448 11.831 7.35839
267 2 3.78065 10.2371 7.37261
205 2 7.36338 11.9638 0.927739
209 2 9.16954 9.27151 0.106078
18 2 4.57864 12.7845 5.10712
101 4 3.14514 7.32435 12.5754
112 2 4.12526 8.43938 13.5392
113 2 5.72562 7.29658 14.3375
246 1 5.49008 12.7915 14.3737
123 2 4.62208 7.36316 10.708
130 1 3.43068 7.28397 10.5974
304 2 6.15036 11.7914 14.3171
235 2 0.402592 10.441 16.1584
227 2 1.30674 11.5366 11.1815
248 2 7.05859 7.41623 10.878
125 2 1.90215 8.8362 16.6081
254 2 6.57489 8.20066 13.1626
256 1 6.71549 7.19032 12.6423
258 4 5.08203 10.0857 16.2286
259 2 5.78314 11.7726 16.0104
260 2 5.34495 9.5472 14.4338
261 2 3.2109 8.6556 15.0072
262 2 3.17805 10.3717 14.1781
240 4 4.63755 12.4907 12.4347
264 1 3.69622 9.66083 15.0192
265 4 4.00457 10.9435 8.87044
266 4 6.20863 10.1847 10.7063
268 2 2.42201 10.9325 9.64852
269 2 5.98629 8.70971 11.6459
271 3 7.66151 10.2403 10.1502
272 3 5.02924 9.90551 9.6096
273 3 5.64732 11.4078 11.6396
281 2 8.56543 7.94028 15.5553
284 1 9.57845 7.57792 15.0974
231 1 0.6248 11.3681 10.2441
106 2 0.748779 11.7324 12.9594
221 4 0.608869 12.7436 8.80795
305 2 2.97161 12.1191 13.8713
306 2 2.84427 10.6918 12.5622
263 2 3.23884 10.4025 16.6008
308 1 2.51269 11.7538 12.839
20 2 7.45713 7.61015 8.95214
282 2 9.48616 7.24129 13.9435
307 2 2.75442 12.5662 11.8513
121 2 2.79596 8.1087 10.1632
244 2 4.63029 12.7385 15.0728
270 3 4.58368 12.4383 8.68608
66 3 5.83429 9.12103 17.1945
299 2 0.981084 12.9704 15.0568
300 2 -0.976046 12.9089 15.8543
302 2 7.13979 12.8842 10.2262
ITEM: TIMESTEP
200
ITEM: NUMBER OF ATOMS
310
ITEM: BOX BOUNDS xy xz yz pp pp pp
-9.0288000000000004e+00 1.5411400000000000e+01 -7.2027000000000001e+00
0.0000000000000000e+00 1.3079499999999999e+01 -1.8261000000000001e+00
0.0000000000000000e+00 1.7328365999999999e+01 3.3839999999999998e-01
ITEM: ATOMS id type x y z
168 2 2.26727 4.90476 7.62084
3 4 3.09291 1.94094 3.21808
4 4 4.29966 4.4932 1.93012
22 2 5.52439 2.07995 3.19542
294 2 5.59512 0.43296 7.53891
24 2 4.58772 1.88382 4.97147
25 2 1.15201 0.783354 4.75003
26 2 1.20947 2.74713 4.78791
27 2 2.55551 1.72796 5.54949
41 1 4.77493 1.454 3.89953
42 1 1.8175 1.6982 4.69717
48 3 2.65962 0.746925 1.74242
49 3 3.09588 3.56145 2.57178
51 3 3.82803 5.7701 0.950321
71 4 -1.37054 2.40893 3.13495
72 2 0.293574 2.01518 3.47534
176 1 1.6289 5.87373 7.81816
74 2 0.0946939 4.22084 2.70263
75 2 -1.51943 4.88936 3.69041
76 1 -1.04055 4.22834 2.87243
310 3 6.69366 1.12819 0.798334
23 2 4.97012 0.367887 3.90922
1 4 2.80335 0.132044 0.308378
150 4 0.0283849 4.81925 7.92084
159 2 0.032961 5.122 4.32494
163 2 0.568736 3.31259 5.89409
164 2 -0.804478 2.64465 7.02839
165 2 1.01912 2.52626 7.57049
175 1 0.25465 3.18327 6.97068
179 3 -2.93424 5.46493 5.02522
180 3 -1.1328 5.61462 7.11519
195 2 -1.08586 6.17699 1.77618
287 2 0.846401 1.48781 0.423728
50 3 5.30028 3.4512 0.982617
73 2 -1.69958 4.17334 1.77737
132 3 1.85347 1.35623 8.50342
293 1 6.10883 0.618328 8.547
94 4 0.665844 2.93131 11.5744
95 4 2.84322 2.49474 9.74852
97 4 4.89764 2.24731 11.7952
291 2 5.43242 0.433953 9.47865
103 2 -0.206112 1.49536 11.1719
104 2 -0.589441 4.01188 11.8954
105 2 1.33894 2.46588 13.0199
108 2 1.06197 5.94121 15.7382
111 2 2.48255 3.82195 14.4984
289 2 0.232745 2.17878 16.2058
218 2 4.13056 2.79236 15.6021
301 2 0.106314 1.19337 9.06236
133 3 1.68886 3.43087 10.531
134 3 3.81258 1.54915 10.7873
290 1 -0.397988 1.45204 16.8109
136 3 3.82655 3.64494 8.89476
142 4 -2.06451 5.71416 16.1525
135 3 5.70049 1.19142 12.7799
144 2 -1.24285 3.97182 16.444
43 1 -1.00182 1.00775 9.44313
146 2 -1.65457 4.24409 14.1293
147 2 0.0258563 4.56822 14.6585
148 1 -1.02939 4.79049 14.9037
149 3 -3.85447 5.57725 15.9108
156 2 -0.593375 4.41975 9.41124
28 2 -1.44657 1.98023 9.72304
145 2 -1.30351 6.478 14.6997
137 3 4.36024 3.47765 12.6748
217 2 2.5586 1.91273 14.8913
275 2 -2.33722 1.78594 16.6091
219 2 2.30468 3.30877 16.226
220 1 2.99613 2.39385 15.8158
276 2 0.780622 0.498888 13.7089
16 2 2.5664 1.07255 16.944
98 4 2.37737 6.54934 16.8468
166 2 1.43406 6.10265 9.07812
151 4 -4.33158 6.4969 10.6247
122 2 3.00479 6.18481 10.3721
288 2 -1.0078 0.542832 16.2673
100 4 3.84138 4.48055 13.711
83 2 -3.53698 11.556 6.30203
87 1 -4.61889 12.0089 6.65469
177 1 -2.83658 9.84747 8.01338
153 4 -3.97979 8.38713 7.96294
154 4 0.337358 6.80287 4.6624
155 4 2.05091 8.18735 2.40862
197 2 -1.85507 7.21755 0.138497
232 1 0.136931 12.0298 4.5968
196 2 -0.18498 7.83319 1.20966
279 2 -5.51875 11.1416 6.77783
171 2 -1.77791 9.41058 8.07445
182 3 -3.09912 7.36971 6.99302
183 3 -0.995308 7.53639 5.08465
184 3 1.22559 7.50157 3.60652
185 3 1.2768 8.79621 1.11818
193 4 -2.88877 7.94566 1.98311
194 2 -1.45775 8.64181 2.69817
170 2 -3.00724 10.531 7.08486
198 1 -1.20622 7.21587 1.3366
199 3 -3.47511 6.79679 2.87254
200 3 -3.67838 8.93312 1.05324
202 2 -5.17023 12.2358 2.86955
203 2 -5.01335 10.3459 3.23512
204 2 -5.17157 11.5671 4.65623
309 3 -4.55368 11.2984 0.123203
206 1 -5.4668 11.3179 3.58492
224 2 0.0955472 9.56365 5.9771
212 2 -0.788785 12.2799 2.91118
80 2 -3.26151 12.262 8.03344
160 2 1.32522 6.74605 6.11735
228 2 -0.495141 11.0291 4.25376
77 4 -4.93267 12.5587 8.46908
214 3 0.543827 11.5124 0.849727
158 2 -5.47865 8.52194 7.14971
208 4 -4.57742 9.74069 0.0725493
167 2 2.15516 6.78308 7.30352
143 2 0.213733 6.39777 0.18017
234 4 0.991062 10.2246 0.04023
152 4 -2.15558 6.51631 6.07626
230 2 -0.327326 12.6974 5.47765
286 2 -7.14585 12.5778 2.00238
211 4 0.126421 12.7592 1.61403
280 2 -4.93017 12.8546 5.92511
126 2 0.0804342 7.47123 16.293
78 4 -6.17913 10.5525 10.4895
79 4 -5.77975 11.7062 13.5
277 2 -1.98742 11.5873 14.0298
81 2 -6.7508 10.9454 14.6483
210 2 -5.84108 9.57369 15.9033
84 2 -3.56869 10.9575 12.8703
85 2 -4.1334 10.72 14.7413
169 2 -3.19798 10.2972 8.98218
88 1 -3.93078 11.4554 13.8166
89 3 -5.41787 11.4917 9.45163
90 3 -5.96652 11.1174 11.988
226 2 -0.487826 11.2551 10.3207
225 2 0.877641 10.1542 9.50105
124 2 1.25434 8 14.905
237 2 -1.79969 9.96274 15.3311
82 2 -5.48742 8.94434 10.4415
129 1 1.34203 8.19685 12.8623
131 1 1.13878 7.77814 16.0457
238 2 -3.04395 11.1069 16.3895
157 2 -3.24753 6.72907 11.8846
86 2 -3.69295 12.5798 13.9994
118 2 1.09972 8.35112 11.6781
120 2 0.728881 7.43828 13.3528
283 2 -4.80654 8.23736 15.2518
181 3 -4.1039 7.65594 9.56472
236 2 -2.93897 9.25515 16.8369
239 1 -2.3799 10.1343 16.4002
284 1 -5.76259 7.71291 15.0182
2 4 11.3596 5.69627 3.8871
36 2 12.1894 3.50188 8.29012
5 4 11.1315 0.884371 0.520071
215 4 6.29374 2.59754 0.0733522
7 4 12.2629 1.56244 5.6597
8 4 9.92901 3.27628 2.15274
110 2 4.07064 5.40553 6.64847
10 4 9.20098 5.73133 0.559167
11 4 9.96506 3.31305 6.84046
12 4 8.86213 5.99537 5.60102
46 1 11.0918 3.82748 8.30846
35 2 10.9447 4.94311 8.17954
19 2 9.01747 2.23087 7.82231
29 2 9.31154 1.41764 3.90088
30 2 7.85504 2.01094 3.00631
31 2 8.67628 3.17738 4.18912
115 2 6.41821 5.2072 6.06795
274 2 14.0924 1.18686 1.85885
44 1 8.76857 2.31109 3.45436
117 2 6.54955 4.7528 8.45046
128 1 5.73317 4.76379 6.85564
213 2 8.77746 0.677592 2.16804
53 3 13.2172 2.04064 4.36411
54 3 13.0723 1.80794 7.05523
55 3 10.6792 2.05699 1.45013
56 3 10.8432 4.3133 3.08804
57 3 5.21547 5.15028 3.12498
58 3 8.8558 3.98127 1.27559
59 3 10.9107 2.37705 5.95251
60 3 10.0422 6.39693 4.649
61 3 7.39191 6.03098 4.75211
62 3 9.04047 4.53221 6.25763
6 4 13.2849 0.249891 8.07995
99 4 4.64553 4.83027 8.37952
116 2 5.65942 3.69205 6.61402
216 2 7.72079 3.54362 0.0409185
292 2 6.69209 1.73574 8.59388
17 2 7.97465 0.605667 17.0029
295 2 10.2266 1.20967 8.91398
37 2 10.402 3.30166 9.11116
299 2 8.19981 0.468156 15.1627
91 4 11.5357 2.2679 15.9204
92 2 11.338 1.76473 14.2972
109 2 4.39625 6.38949 9.26908
296 2 9.22694 0.491932 10.4223
251 2 7.04441 4.56514 10.2359
102 4 5.19271 6.08776 15.592
52 3 10.4446 1.70374 16.8688
107 2 6.13196 2.9553 10.8135
141 3 3.77033 6.44409 16.1221
114 2 6.88485 2.57563 14.8914
127 1 7.13941 0.885065 15.211
297 2 8.81395 2.31454 9.72198
138 3 3.34343 5.91672 13.075
139 3 5.30759 4.59729 14.9417
140 3 6.34477 6.15242 16.7188
186 4 9.70287 6.00749 15.778
187 4 8.21571 3.61125 13.9821
188 2 8.58096 1.9345 14.4344
189 2 9.0448 3.2637 12.4175
190 2 6.58224 4.10969 13.912
303 2 13.1816 1.2613 14.6798
192 3 8.94413 4.74634 14.8458
250 2 8.05983 3.02032 10.7238
255 1 7.74031 4.02607 11.1851
298 1 9.18603 1.27283 9.49847
241 2 11.9304 2.07662 12.167
242 2 10.9809 1.41219 10.5769
243 2 12.8868 1.21571 10.6835
252 2 7.91532 6.34445 13.4999
245 1 11.9176 1.29241 11.2577
257 3 9.63322 6.34334 11.1227
247 4 8.06418 6.0892 11.5251
249 2 7.04261 3.80437 12.0853
191 3 8.9895 6.16268 17.2509
93 2 11.467 3.9607 15.8938
162 2 11.4381 4.9921 9.88721
253 2 5.87734 6.61175 12.8562
13 4 7.67698 7.89094 1.68737
14 4 7.40184 7.81698 7.31999
15 4 6.63901 10.5918 6.0726
285 2 6.37178 12.4745 2.65919
45 1 4.80257 7.44299 4.87701
278 2 4.29773 12.2064 1.32707
34 2 4.19699 8.17054 4.22725
38 2 4.52655 9.53609 6.15796
39 2 4.95464 11.0059 4.59029
40 2 4.46297 11.5525 6.58471
207 1 7.19054 12.0229 2.01288
47 1 4.53337 10.7008 5.77305
63 3 6.32463 7.36643 2.36583
64 3 8.87168 6.83985 1.59348
65 3 8.14333 9.3098 2.57469
32 2 5.46743 8.06503 5.6258
67 3 8.92058 7.31338 7.00149
68 3 7.31732 10.8158 4.64992
69 3 6.9686 9.06337 6.56507
70 3 6.81219 11.8378 7.13969
172 2 3.39718 10.0675 1.89022
173 2 4.55217 9.12771 3.19068
174 2 2.82941 9.86913 3.75214
178 1 3.44911 9.40558 2.85118
201 4 8.11232 10.7311 3.28215
161 2 3.65827 7.58007 2.14856
222 4 1.02538 10.9682 5.91576
223 2 2.60545 10.342 5.48833
229 2 1.19321 12.3973 4.15569
233 3 1.02919 11.8002 7.39715
267 2 3.52326 10.3217 7.43706
205 2 6.88877 11.4682 1.09512
18 2 4.65797 12.68 5.36989
66 3 7.55095 8.87797 0.0268836
21 2 6.15872 6.64729 6.93461
9 4 5.95977 6.45776 3.61864
33 2 4.2143 6.56936 5.26645
209 2 9.15437 9.25578 0.112694
101 4 3.10346 7.43442 12.4701
112 2 3.99626 8.75776 13.2265
113 2 5.71508 7.26053 14.3753
246 1 5.42206 12.9718 14.4025
123 2 4.50704 7.52344 10.6379
130 1 3.33314 7.32011 10.5569
304 2 6.12205 12.128 14.2733
235 2 0.534173 11.0087 16.4097
227 2 1.36534 11.2642 11.1391
248 2 7.02355 7.40164 10.8733
125 2 1.61895 8.67285 16.8325
254 2 6.76534 8.2075 13.2312
256 1 6.81445 7.23837 12.7292
258 4 5.20827 10.117 16.0571
259 2 5.75546 11.7375 15.9089
260 2 5.29287 9.34726 14.3022
261 2 3.1993 8.67026 15.2451
262 2 3.21054 10.366 14.1491
240 4 4.67035 12.6183 12.4296
264 1 3.68996 9.63688 14.9245
265 4 4.0656 10.8929 8.97998
266 4 6.18751 10.1734 10.7623
268 2 2.61906 10.9179 9.95013
269 2 6.08496 8.77082 11.7499
271 3 7.704 10.4201 10.2509
272 3 5.13696 9.86906 9.61954
273 3 5.63465 11.473 11.7053
281 2 8.68223 8.12489 15.5105
270 3 4.62422 12.3082 8.68657
231 1 0.664639 11.0743 10.1359
106 2 0.60536 12.0858 12.8773
221 4 0.613245 12.5031 8.78425
305 2 2.57682 11.8616 13.8822
306 2 2.82617 10.6619 12.4595
263 2 3.45682 10.7904 16.2912
308 1 2.44373 11.6745 12.784
20 2 7.1568 8.03022 9.02756
282 2 9.45969 7.35859 13.8739
307 2 2.80052 12.5939 12.1389
121 2 2.79814 8.22165 10.0752
244 2 4.59113 12.7253 15.1244
119 2 1.31672 9.1454 13.3752
96 4 -0.778832 12.8631 13.709
302 2 7.02616 12.9036 10.2172
300 2 -0.936818 13.016 15.9464
ITEM: TIMESTEP
300
ITEM: NUMBER OF ATOMS
310
ITEM: BOX BOUNDS xy xz yz pp pp pp
-9.0288000000000004e+00 1.5411400000000000e+01 -7.2027000000000001e+00
0.0000000000000000e+00 1.3079499999999999e+01 -1.8261000000000001e+00
0.0000000000000000e+00 1.7328365999999999e+01 3.3839999999999998e-01
ITEM: ATOMS id type x y z
168 2 2.21498 4.83511 7.55594
3 4 3.16435 1.87593 3.11752
4 4 4.4562 4.50389 1.96168
22 2 5.63127 1.96718 3.26863
152 4 -2.07665 6.40187 6.02897
24 2 4.6594 2.03477 4.91341
25 2 1.33754 0.778518 4.76546
26 2 1.16395 2.66902 4.64905
27 2 2.70355 1.8752 5.38081
41 1 4.82661 1.42237 3.93006
42 1 1.88259 1.7343 4.61627
48 3 2.78779 0.608341 1.86185
49 3 3.13101 3.34258 2.50665
51 3 3.76347 5.61408 0.989301
71 4 -1.16296 2.05004 3.10012
72 2 0.332453 1.25213 3.48626
176 1 1.53565 5.82093 7.87145
74 2 0.34304 3.69995 2.97148
75 2 -1.40432 4.43481 3.81629
76 1 -0.920472 3.87514 2.96192
310 3 6.65486 1.27657 0.801106
23 2 5.01133 0.361626 4.08796
1 4 2.83723 0.0771969 0.39569
150 4 -0.0320519 4.77889 7.84934
159 2 0.013494 5.42958 3.82707
163 2 0.563743 3.23662 5.82397
164 2 -0.896834 2.54256 6.87504
165 2 0.830949 2.40136 7.55098
175 1 0.143379 3.0193 6.89644
179 3 -2.84496 5.35321 5.12866
180 3 -1.06318 5.50329 6.99783
195 2 -1.12021 6.33322 1.8302
211 4 7.30834 0.087185 1.56016