ITEM: TIMESTEP
0
ITEM: NUMBER OF ATOMS
310
ITEM: BOX BOUNDS xy xz yz pp pp pp
-9.0288000000000004e+00 1.5411400000000000e+01 -7.2027000000000001e+00
0.0000000000000000e+00 1.2904465999999999e+01 -1.8261000000000001e+00
0.0000000000000000e+00 1.7503399999999999e+01 1.6336599999999998e-01
ITEM: ATOMS id type x y z
4 4 4.81013 4.21295 1.53647
3 4 3.51928 1.68043 2.52847
280 2 0.805078 0.831232 6.6672
71 4 -1.09636 2.00732 3.84759
23 2 4.38652 1.15039 4.90235
24 2 5.85628 1.00237 3.76899
25 2 1.05038 0.729995 2.69364
26 2 1.49902 2.68143 3.11682
27 2 2.21867 1.28211 4.40007
41 1 4.73366 0.708064 3.93008
42 1 1.75485 1.5296 3.32078
48 3 3.2523 0.785977 1.26298
49 3 3.7937 3.31046 2.40547
51 3 3.98156 5.77422 0.781941
152 4 -2.21025 6.20886 6.23071
72 2 0.468838 1.96251 4.70973
73 2 -1.39973 3.50907 0.722142
74 2 -0.570823 4.07212 3.23332
310 3 6.97383 0.964186 0.750178
76 1 -1.29344 3.25718 2.63854
275 2 -0.487634 2.2079 1.42122
110 2 1.74832 5.16827 7.60082
50 3 5.38137 3.28797 0.381547
150 4 -0.677467 4.02435 7.97612
159 2 0.8211 4.87344 5.70352
163 2 1.5034 3.41015 6.24261
164 2 -0.572651 2.47203 7.08332
165 2 1.25565 2.85305 8.03735
175 1 0.966532 3.60896 7.2116
179 3 -3.16577 5.41328 5.04835
180 3 -1.42992 5.13282 7.17727
195 2 -2.25792 5.80499 0.317951
196 2 -0.893432 5.12611 1.83982
198 1 -0.766791 6.21636 1.32501
77 4 2.06383 0.133575 8.66774
197 2 0.262125 6.28072 0.796219
94 4 0.320079 1.74056 12.0007
95 4 2.76754 2.3712 10.479
98 4 2.13318 6.46438 16.8489
219 2 3.41464 2.04521 15.5242
103 2 0.184037 0.258258 11.1321
104 2 -0.770736 2.74727 11.0766
105 2 -0.456154 1.53031 13.4502
108 2 0.572481 5.25245 15.8541
111 2 2.56781 3.33996 13.0946
290 1 0.591627 0.568206 15.951
43 1 -1.10239 0.310585 9.60378
132 3 1.74381 1.5527 9.1647
133 3 1.78807 2.19032 12.1248
134 3 4.11174 1.51978 10.9302
168 2 -0.508591 5.47636 9.69691
136 3 3.11745 3.76169 9.72713
143 2 -2.33177 6.27496 16.8889
147 2 -1.98898 6.30887 13.3346
144 2 -2.5444 4.39912 15.1319
301 2 -0.404045 1.18514 9.39165
156 2 -1.75345 3.42455 9.39878
220 1 4.44241 1.59866 15.6899
289 2 -0.361135 0.859888 16.656
149 3 -4.61578 6.07762 15.3289
288 2 0.832492 1.36531 15.1512
142 4 -3.09614 5.97455 15.353
167 2 -0.779531 4.61222 11.1545
176 1 -0.473213 4.47593 10.1206
217 2 4.61207 0.58872 15.4713
166 2 0.590957 4.06572 10.0702
16 2 3.11072 0.481602 16.5534
99 4 3.14095 5.14127 8.8473
276 2 3.96131 0.557125 12.9353
162 2 -3.82946 5.39965 10.1794
100 4 3.88079 4.40238 13.0469
109 2 2.69614 6.43642 9.88746
208 4 -3.99883 9.40804 0.190469
171 2 -4.35021 10.3998 6.94142
230 2 -0.0712534 10.734 3.76173
153 4 -3.98382 8.27715 7.98575
154 4 0.456448 6.54124 5.28607
155 4 2.0192 7.73564 2.70729
22 2 -2.71047 12.3404 3.96547
160 2 1.33257 7.12026 6.5727
279 2 -6.20862 11.7382 6.96392
177 1 -3.50096 10.0135 7.5994
169 2 -2.50293 10.0269 7.14505
182 3 -3.12911 7.32569 7.1804
183 3 -0.947914 7.08091 5.39263
184 3 1.28633 6.96549 3.93414
185 3 1.05514 8.53507 1.61579
193 4 -2.52158 7.12259 1.41119
194 2 -0.658636 7.23394 2.38007
232 1 0.0195866 11.5898 4.52042
234 4 0.403802 9.57178 0.694654
199 3 -3.41489 6.62906 2.64599
200 3 -2.70724 8.64253 0.705544
202 2 -4.71347 11.7993 3.2239
203 2 -4.66634 9.9925 3.96161
204 2 -5.08044 11.5198 5.13152
161 2 3.05884 6.70858 1.82282
206 1 -5.02908 11.0934 4.08111
211 4 -0.253121 12.3947 1.64859
212 2 -1.74469 12.3063 2.48038
205 2 -6.12668 12.1958 1.5782
214 3 0.122795 11.0526 1.0832
228 2 -0.773742 12.3447 4.28737
229 2 -0.777942 10.4996 5.6516
83 2 -5.01888 12.7302 5.77597
87 1 -5.65242 12.7367 6.78415
80 2 -3.79985 12.7377 7.63757
151 4 -4.36991 6.82206 10.9135
78 4 -5.65442 10.7185 10.8789
79 4 -4.1373 11.9457 13.4124
287 2 -6.87998 12.3157 15.3448
235 2 0.0671496 10.3642 16.6461
82 2 -4.90477 9.1992 10.5448
84 2 -2.54337 10.2656 13.1922
85 2 -3.79735 10.1142 14.7275
86 2 -2.21771 11.1521 14.9862
88 1 -2.91645 10.7349 14.2161
89 3 -5.43582 11.5578 9.56834
90 3 -4.86843 11.4292 12.1615
119 2 -0.06655 8.26226 13.4677
277 2 -1.1607 11.6124 13.8555
210 2 -6.4322 8.84628 16.2941
146 2 -3.10701 7.8799 13.6014
148 1 -2.41687 7.20131 14.0417
145 2 -1.60287 7.64776 14.7428
118 2 0.620765 7.71443 11.5894
1 4 -5.54204 12.7372 17.3688
236 2 -0.320783 8.49507 16.0652
239 1 -0.815133 9.49652 16.4033
129 1 0.672985 7.55077 12.8501
283 2 -5.66702 8.57264 14.8454
231 1 -0.45129 12.124 9.79455
181 3 -3.98168 7.98251 9.97419
238 2 -2.51633 8.88894 17.1239
237 2 -1.54688 9.92781 15.5512
126 2 -0.417996 6.77548 16.535
225 2 -0.597827 11.1169 9.33213
125 2 1.29561 8.05159 16.7568
81 2 -5.31804 12.5981 14.524
124 2 0.534101 6.91041 14.775
226 2 -1.38359 12.6703 9.85447
157 2 -3.45085 6.80176 12.3099
309 3 -5.65296 11.0961 17.4405
131 1 0.47328 6.53357 15.9008
120 2 0.50501 6.50038 13.1254
170 2 -3.51159 10.3912 8.77728
2 4 11.1836 5.69748 3.92465
9 4 6.40427 6.13518 3.46412
5 4 10.9316 0.678594 1.72105
61 3 7.51329 5.97372 4.61801
7 4 12.0825 1.65602 6.06134
8 4 9.68558 3.32887 2.62381
62 3 9.2226 4.94649 6.44248
35 2 11.1074 5.31639 8.50432
11 4 10.0354 3.77091 7.10241
19 2 8.8789 2.8814 8.05458
294 2 7.34032 2.53801 7.08509
18 2 11.252 0.220428 5.59755
128 1 4.88267 5.37262 8.2522
29 2 8.00827 1.98458 3.6927
30 2 7.20336 3.71511 3.20039
31 2 8.45889 3.52084 4.66744
216 2 8.11454 3.22422 0.199588
116 2 4.52799 5.88837 7.19466
44 1 8.13509 3.11556 3.66818
286 2 14.8247 0.275309 1.18413
291 2 5.87059 2.26119 7.98454
52 3 12.2746 1.19537 0.87775
53 3 13.1489 2.0077 4.84914
54 3 12.8251 1.38678 7.49404
55 3 10.1989 1.89188 2.32369
56 3 10.6264 4.39474 3.27078
57 3 5.98507 4.64751 2.4814
58 3 9.15585 4.13017 0.857895
59 3 11.0595 2.77719 6.31608
75 2 12.9664 3.43363 2.74616
293 1 7.01133 2.29788 8.09789
91 4 13.5597 1.89531 0.170414
274 2 14.5175 0.417862 2.99048
12 4 8.7534 6.28881 5.5711
221 4 7.98111 0.425572 8.62498
10 4 8.90878 5.61967 0.0577545
45 1 4.82114 6.24527 4.57906
117 2 5.51588 4.42238 8.1816
32 2 5.25753 6.39866 5.66812
33 2 4.35087 5.23462 4.43084
28 2 13.5406 0.637267 10.4371
36 2 11.4408 3.57694 9.26899
37 2 9.56339 4.37333 9.46427
297 2 9.27802 0.54017 10.4957
138 3 3.28583 5.78275 12.6388
92 2 12.75 1.14692 16.5984
93 2 11.288 3.27756 16.5533
46 1 10.7256 4.26518 8.77843
295 2 9.94614 1.62022 8.94277
102 4 4.77398 5.78584 15.3167
218 2 5.38213 2.40208 15.3058
107 2 6.40419 2.26943 9.99769
249 2 7.90094 5.44057 9.13643
114 2 7.25958 2.58518 14.8484
127 1 7.64983 0.953044 15.0972
137 3 5.22869 3.68906 11.9914
299 2 8.7777 0.588257 15.0653
139 3 4.49092 4.39769 14.5493
140 3 5.92339 5.76101 16.3684
186 4 9.1482 6.36056 15.4587
187 4 8.09022 3.78217 13.6717
188 2 8.76721 2.22719 14.1324
189 2 8.62172 3.62056 12.0095
190 2 6.44312 3.9002 13.076
191 3 8.55883 6.34804 16.9808
192 3 8.60177 5.02832 14.5167
135 3 6.41335 1.28178 12.5578
252 2 6.55231 5.63776 12.5833
298 1 9.68074 0.554235 9.42997
251 2 8.65196 3.49956 10.275
242 2 11.469 1.91175 12.3756
243 2 11.8195 0.921739 10.8483
292 2 7.4032 3.0766 8.91993
245 1 12.2286 1.27536 11.8242
97 4 5.47766 2.18179 11.4056
244 2 13.0349 1.11586 14.5924
255 1 7.86291 4.37922 10.3996
250 2 6.8024 3.9965 10.4891
247 4 8.09228 6.2269 10.9869
96 4 7.12694 0.195323 13.5474
300 2 6.95224 0.338575 15.8337
141 3 3.43872 6.45043 15.9506
215 4 4.80012 2.44238 17.4398
115 2 5.21897 6.13496 9.12549
241 2 13.185 1.75405 11.6792
13 4 7.61577 8.10234 1.672
14 4 6.90727 8.22632 7.11294
15 4 6.52872 10.7432 5.68584
39 2 5.39112 12.5625 4.39323
201 4 8.67021 10.7259 3.28648
285 2 7.69927 11.1251 1.21265
34 2 4.23068 7.24835 4.21138
38 2 4.83063 10.8518 3.66087
158 2 9.86366 8.07168 7.3537
40 2 4.2536 11.2229 5.46334
6 4 6.09416 12.623 8.0402
47 1 4.95561 11.4906 4.58245
63 3 6.45587 7.58645 2.76063
64 3 8.37471 6.79198 1.03636
65 3 8.6984 9.21254 2.38405
66 3 6.82056 9.08757 0.407296
67 3 8.34183 7.646 6.8661
68 3 7.55058 10.7809 4.43851
69 3 6.13993 9.2602 6.26766
70 3 6.88747 11.8338 6.89256
172 2 2.88838 9.94879 3.10424
173 2 4.3267 8.65547 3.11379
174 2 3.19491 8.70697 4.65228
178 1 3.29464 8.89339 3.5016
20 2 6.75112 8.62366 8.7284
224 2 1.91446 9.8518 6.2343
209 2 10.0946 9.17331 1.24234
223 2 1.67811 12.0701 4.48619
222 4 0.928956 11.2653 6.07035
233 3 0.890088 12.3065 7.37651
267 2 4.45936 8.84461 8.42587
60 3 9.97623 6.63923 4.62834
21 2 5.87222 6.9412 7.52783
263 2 3.60623 9.35284 0.168359
278 2 4.23959 12.2541 2.78116
207 1 8.15286 12.1155 1.71388
17 2 2.72743 12.5568 0.735795
270 3 4.64831 11.5786 8.69476
213 2 0.702098 12.6773 3.01423
296 2 3.31827 12.5155 9.11884
122 2 3.05449 8.2119 9.49091
113 2 5.487 6.86617 14.0906
271 3 8.28225 10.4764 11.2985
123 2 4.06599 8.63863 11.627
130 1 2.74623 8.22729 10.58
265 4 4.7201 10.1098 9.44712
246 1 5.46561 12.7978 14.937
308 1 3.23924 11.5203 13.095
248 2 6.86757 7.49407 10.7011
106 2 1.39829 12.1789 13.03
254 2 7.41686 7.22545 13.2946
256 1 6.62722 6.80753 12.4972
258 4 4.23262 10.0839 16.7971
259 2 5.07379 10.962 15.4955
260 2 2.59105 9.10771 15.8018
261 2 1.81977 10.8258 16.2233
264 1 2.40114 9.95799 16.7768
303 2 6.30915 12.135 15.3548
112 2 2.10993 8.42129 13.7166
284 1 8.85459 8.00077 14.487
266 4 6.81671 10.1601 11.5781
268 2 3.32594 10.0963 10.5236
269 2 6.90353 8.70841 12.6489
304 2 4.50104 12.7598 15.5999
272 3 5.97782 9.72243 10.2812
273 3 6.13382 11.3683 12.4743
281 2 7.90905 8.51158 14.6944
282 2 9.01425 7.77081 13.3682
240 4 5.04671 12.3082 13.029
253 2 5.62739 7.30861 12.4715
257 3 9.50124 6.76607 11.2978
305 2 2.94711 12.124 14.0874
306 2 3.1857 10.3908 13.1579
101 4 2.70323 7.44328 12.3286
227 2 0.149821 12.1633 10.7313
302 2 7.58986 12.0471 9.85354
121 2 1.84116 8.91849 10.7376
307 2 2.96525 12.085 12.0662
262 2 3.44893 11.5147 17.4071
ITEM: TIMESTEP
100
ITEM: NUMBER OF ATOMS
310
ITEM: BOX BOUNDS xy xz yz pp pp pp
-9.0288000000000004e+00 1.5411400000000000e+01 -7.2027000000000001e+00
0.0000000000000000e+00 1.2904465999999999e+01 -1.8261000000000001e+00
0.0000000000000000e+00 1.7503399999999999e+01 1.6336599999999998e-01
ITEM: ATOMS id type x y z
4 4 4.94255 4.14346 1.47726
3 4 3.41966 1.66272 2.5292
280 2 1.49204 1.18532 6.44324
71 4 -1.03711 2.09128 3.96853
23 2 4.43977 1.37839 4.77252
24 2 5.84707 1.10884 3.6096
25 2 0.943329 0.900463 2.68902
26 2 1.32137 2.74031 2.93243
27 2 1.99115 1.43767 4.3339
41 1 4.80708 0.80068 3.88396
42 1 1.63131 1.67915 3.19732
48 3 3.41088 0.767937 1.18101
49 3 3.80393 3.22329 2.30225
51 3 4.00085 5.63057 0.800183
152 4 -2.12263 6.2375 6.2385
72 2 0.553185 2.46119 4.625
73 2 -1.42893 3.43997 0.81318
74 2 -0.347637 4.04892 3.09754
310 3 6.88598 1.10156 0.881953
76 1 -1.01517 3.23684 2.61313
275 2 -0.427968 2.10458 1.23324
110 2 1.81971 5.22503 7.75965
50 3 5.44864 3.32641 0.210455
150 4 -0.732978 3.87639 7.96508
159 2 0.754832 4.85693 5.73579
163 2 1.01263 3.18746 6.16905
164 2 -0.395555 2.40278 6.97044
165 2 1.56704 2.95075 7.96381
175 1 1.01429 3.62188 7.21662
179 3 -2.91451 5.48905 5.06755
180 3 -1.53557 5.08085 7.25345
195 2 -2.18881 6.09903 0.240175
196 2 -0.867687 5.15599 1.77998
198 1 -0.774656 6.09715 1.21311
197 2 0.194232 6.14401 0.667927
75 2 -2.15152 3.59022 2.74248
33 2 4.18851 5.39336 4.28177
87 1 1.71455 0.0854986 6.70577
94 4 0.243252 1.83217 12.134
95 4 2.76225 2.26762 10.5881
98 4 2.13565 6.37321 16.8094
219 2 3.23862 2.36546 15.7174
103 2 -0.159537 0.404422 11.3634
104 2 -0.659031 2.95951 11.2695
105 2 -0.50318 1.63627 13.5946
108 2 0.520131 5.17928 15.7986
111 2 2.70139 3.33168 13.0104
290 1 0.710226 0.644687 15.817
120 2 0.335403 6.47123 13.1207
132 3 1.97522 1.38103 9.49364
133 3 1.75898 2.17984 12.2632
134 3 4.23853 1.53137 11.02
168 2 -0.54568 5.61181 9.68876
136 3 2.90321 3.7587 9.93676
143 2 -2.24004 6.11683 16.8039
226 2 5.98347 0.356583 9.69843
144 2 -2.72013 4.56774 14.5243
301 2 -0.479156 1.13747 9.23407
156 2 -1.49482 3.3369 9.53034
220 1 4.17552 1.71447 15.6956
289 2 -0.0846939 1.24928 16.5695
149 3 -4.62537 6.28018 15.4024
288 2 1.49884 1.46336 15.4983
142 4 -3.06316 6.08607 15.2252
167 2 -0.631296 4.65358 11.3418
176 1 -0.39144 4.5837 10.2082
217 2 3.91943 0.634657 15.2699
166 2 0.691264 4.26513 10.156
16 2 3.2747 0.305356 16.6783
99 4 3.08331 5.12497 9.09976
276 2 3.79906 0.672288 12.9147
162 2 -3.71554 5.3611 10.2523
109 2 2.1463 6.43674 9.75815
241 2 -2.17366 1.75659 11.9859
131 1 0.448453 6.47638 15.8588
208 4 -4.09959 9.46022 0.264755
171 2 -4.22005 10.5072 7.2794
230 2 0.0218612 10.7108 3.52978
153 4 -4.01327 8.33484 7.92667
154 4 0.646374 6.60392 5.39063
155 4 2.0594 7.67269 2.78832
22 2 -2.46546 12.435 4.04124
160 2 1.5753 7.35562 6.5532
279 2 -6.45477 12.1633 6.89655
177 1 -3.26355 9.94675 7.64662
169 2 -2.39941 10.1439 6.89233
182 3 -3.18053 7.30809 7.0794
183 3 -0.806312 7.22143 5.47343
184 3 1.33343 6.91822 3.95455
185 3 1.3269 8.61682 1.76432
193 4 -2.57311 7.23164 1.58605
194 2 -0.770609 7.27729 2.21555
232 1 -0.0804006 11.3283 4.52971
234 4 0.556185 9.69889 0.570615
199 3 -3.44187 6.6448 2.68542
200 3 -3.03014 8.68609 0.894479
202 2 -4.8128 11.783 2.89738
203 2 -4.70483 9.89925 3.65715
204 2 -4.89261 11.4311 4.94931
161 2 3.05884 6.62955 1.84034
206 1 -5.02892 11.0034 3.79694
211 4 -0.336342 12.5325 1.64021
212 2 -1.83214 12.4034 2.34478
205 2 -6.32397 12.5305 1.41485
214 3 0.0456869 11.1541 0.953203
228 2 -0.8379 12.1967 4.50259
229 2 -0.623121 10.1705 5.5194
83 2 -4.66809 12.2944 6.02289
77 4 -5.11418 12.7716 8.63658
80 2 -3.78027 12.5437 7.419
170 2 -2.96844 10.2059 8.73719
151 4 -4.39981 6.82727 10.852
78 4 -5.51287 10.7231 10.8264
79 4 -4.15189 11.9572 13.38
147 2 -2.0256 6.50616 13.2901
235 2 0.0317247 10.403 16.3569
82 2 -4.77519 9.19332 10.4634
84 2 -2.15596 10.0482 13.7658
85 2 -3.83815 10.1369 14.7605
86 2 -2.50038 11.4285 14.9879
88 1 -2.9451 10.7537 14.2266
89 3 -5.30253 11.4739 9.45221
90 3 -4.81742 11.2697 12.0848
119 2 -0.37135 8.08813 13.1286
277 2 -1.24758 11.4885 13.5612
287 2 -7.02255 12.8314 15.0625
146 2 -3.22477 8.20015 13.4822
148 1 -2.50621 7.36937 13.9563
145 2 -1.78982 7.90212 14.7375
118 2 0.486808 7.47471 11.6243
1 4 -5.53309 12.7173 17.3268
236 2 -0.236289 8.37122 16.1144
239 1 -0.803616 9.42749 16.3371
129 1 0.464172 7.51856 12.8317
283 2 -5.73261 8.58973 14.9794
231 1 -0.313963 12.2715 9.88105
181 3 -3.9353 7.96882 9.88772
238 2 -2.59951 9.29525 17.1296
237 2 -1.56125 9.63871 15.5162
126 2 -0.522013 6.78112 16.4097
225 2 -0.582587 11.2038 9.57826
125 2 1.27347 7.87966 16.8951
81 2 -5.11426 12.8125 14.4635
124 2 0.382277 6.7971 14.7306
302 2 -7.7708 12.039 9.77833
157 2 -3.69888 6.9169 12.3769
271 3 -6.99867 10.4558 11.202
309 3 -5.91491 11.1618 17.4336
2 4 11.3475 5.85953 3.9617
9 4 6.30225 6.19564 3.57544
5 4 11.0888 0.602034 1.71398
61 3 7.49762 5.96152 4.56256
7 4 12.04 1.69526 6.1802
8 4 9.73172 3.27417 2.5094
62 3 9.27084 4.98166 6.2452
35 2 11.1338 5.42625 8.47631
11 4 10.0299 3.86365 7.18127
19 2 8.76456 3.01083 8.07754
294 2 7.41763 2.28202 7.25413
18 2 11.2755 0.250531 5.6624
128 1 4.74439 5.28607 8.28645
29 2 8.16129 2.02043 3.70358
30 2 7.40714 3.74486 3.28378
31 2 8.67681 3.64339 4.7004
117 2 5.40358 4.36817 8.45346
116 2 4.34354 5.40501 7.1799
44 1 8.28132 3.16089 3.69181
286 2 14.5908 0.29157 1.50088
291 2 5.90098 2.01651 8.43632
52 3 12.3525 1.13975 0.891126
53 3 13.1395 2.00413 5.0341
54 3 12.6885 1.18414 7.50867
55 3 10.3021 1.81293 2.28989
56 3 10.6021 4.34305 3.23304
57 3 6.0737 4.59367 2.52208
58 3 9.00603 4.22658 0.991411
59 3 10.9236 2.80042 6.52504
32 2 5.16737 6.29524 5.67331
293 1 7.01344 2.18896 8.3074
91 4 13.5382 1.80554 0.160225
274 2 14.6644 0.456059 3.23632
12 4 8.85098 6.26852 5.38743
221 4 7.99199 0.382754 8.62389
10 4 8.87453 5.70112 0.057589
45 1 4.73035 6.29212 4.59394
216 2 8.1666 3.29404 0.0567171
28 2 13.484 0.617307 10.494
36 2 11.4248 3.78148 9.38113
37 2 9.56197 4.50839 9.49285
297 2 9.41538 0.789426 10.5069
138 3 3.31172 5.89974 12.6048
92 2 12.6546 0.962457 16.6417
93 2 11.2156 2.80782 16.2007
46 1 10.6411 4.40619 8.89612
295 2 9.97371 1.72195 9.03315
102 4 4.815 5.91832 15.3655
218 2 5.06779 2.25676 15.1359
107 2 6.54386 2.3745 10.1951
249 2 7.63906 5.5776 9.11492
114 2 6.81582 2.73476 14.8256
127 1 7.27499 1.03191 15.124
137 3 5.23411 3.76788 12.1226
299 2 8.36834 0.724559 15.3785
139 3 4.51048 4.50199 14.538
140 3 5.93922 5.67651 16.4217
186 4 9.16636 6.27544 15.4822
187 4 7.97545 3.83096 13.778
188 2 8.59741 2.23748 14.2904
189 2 8.46513 3.89728 12.1255
190 2 6.29334 3.98212 13.6179
191 3 8.43614 6.39494 16.9838
192 3 8.55878 4.99339 14.6005
135 3 6.28881 1.18582 12.4841
252 2 6.34712 5.80703 12.6692
298 1 9.73364 0.740613 9.41678
251 2 8.39934 3.54779 10.2197
242 2 11.4559 1.66675 12.6511
243 2 11.7808 0.976708 10.8994
292 2 7.34031 3.11315 8.91981
245 1 12.2163 1.15916 11.9616
97 4 5.50795 2.28191 11.5794
244 2 12.9624 0.931498 14.5944
255 1 7.80853 4.46933 10.4292
250 2 6.74175 4.15227 10.5304
247 4 7.97577 6.30456 10.8265
96 4 7.02511 0.17513 13.564
300 2 6.45151 0.53154 15.7704
141 3 3.46193 6.48341 16.0016
215 4 4.88816 2.54121 17.4174
115 2 4.91131 6.35054 9.10033
100 4 3.95711 4.47908 13.0167
43 1 14.2985 0.277766 9.62358
13 4 7.50665 8.06867 1.51201
14 4 6.93922 8.06252 7.21499
15 4 6.49018 10.6938 5.54048
39 2 5.25583 12.5183 4.37499
201 4 8.64389 10.7301 3.12921
285 2 7.72822 11.2487 1.08468
34 2 4.17775 7.30598 4.39844
38 2 4.98585 10.6407 3.77635
158 2 9.72632 8.28041 7.42863
40 2 3.87371 11.5085 5.10037
6 4 6.01872 12.4726 8.05349
47 1 4.91809 11.4504 4.68765
63 3 6.28656 7.60981 2.50401
64 3 8.36866 6.82387 1.05427
65 3 8.54846 9.06704 2.16417
66 3 6.79115 8.92725 0.231724
67 3 8.38937 7.56138 6.75453
68 3 7.65915 10.7812 4.40678
69 3 6.36673 9.10271 6.21184
70 3 6.72313 11.6728 6.84372
172 2 2.39974 9.91862 3.59972
173 2 4.02952 8.83237 3.13182
174 2 3.2575 8.77119 4.92722
178 1 3.0904 8.92688 3.80501
270 3 4.61028 11.4926 8.72749
224 2 2.44199 10.0673 6.10464
213 2 0.4155 12.6678 3.1529
223 2 1.63553 12.0011 4.34764
222 4 1.14527 11.1257 5.93144
233 3 0.876051 12.0736 7.20531
267 2 4.46925 8.81301 8.39479
60 3 10.1453 6.87761 4.66821
21 2 5.84988 6.77645 7.52398
263 2 3.97192 9.50075 0.187617
278 2 4.24187 12.232 3.0021
207 1 8.09 12.2119 1.72882
17 2 2.9669 12.4324 0.656617
209 2 9.91617 9.23356 1.22808
20 2 7.02745 8.71894 8.73322
296 2 3.38199 12.6711 9.14928
122 2 3.24941 8.11399 9.48057
113 2 5.41586 7.14629 14.2083
307 2 2.87428 12.3838 12.1966
123 2 3.98556 8.61957 11.6989
130 1 2.79385 8.055 10.4892
265 4 4.80192 10.0579 9.4928
246 1 5.50277 12.5848 15.0432
308 1 3.13679 11.4838 13.0908
248 2 6.80859 7.66192 10.9181
106 2 1.30365 12.12 12.9841
254 2 7.40552 7.23002 13.4148
256 1 6.53325 6.91296 12.6227
258 4 4.2848 10.0904 16.5772
259 2 5.47296 10.6638 15.5171
260 2 2.76386 9.13217 15.5073
261 2 2.08415 11.1239 16.4372
264 1 2.46987 10.0951 16.6966
303 2 6.44305 12.0502 15.4224
112 2 1.8529 8.19398 13.7833
284 1 8.72809 7.98745 14.692
266 4 6.8973 10.2192 11.51
268 2 3.47238 9.8797 10.606
269 2 7.01588 8.82779 12.6212
304 2 4.5382 12.5799 15.6747
272 3 6.11295 9.74496 10.2491
273 3 5.87542 11.2437 12.3695
281 2 7.81962 8.53185 15.0509
282 2 8.71493 7.85303 13.5545
240 4 4.90005 12.2189 13.114
253 2 5.58969 7.57335 12.4636
257 3 9.46158 6.62659 11.0505
305 2 2.67103 11.684 14.1142
306 2 2.85926 10.5053 12.6718
101 4 2.63485 7.42229 12.2685
227 2 0.0303627 12.3057 10.9034
121 2 1.85283 8.67061 10.5175
210 2 8.7332 8.78317 16.5098
262 2 3.56404 11.5593 17.2711
ITEM: TIMESTEP
200
ITEM: NUMBER OF ATOMS
310
ITEM: BOX BOUNDS xy xz yz pp pp pp
-9.0288000000000004e+00 1.5411400000000000e+01 -7.2027000000000001e+00
0.0000000000000000e+00 1.2904465999999999e+01 -1.8261000000000001e+00
0.0000000000000000e+00 1.7503399999999999e+01 1.6336599999999998e-01
ITEM: ATOMS id type x y z
4 4 4.88883 4.17334 1.50565
3 4 3.49557 1.62005 2.54126
280 2 2.7966 1.12876 6.54572
71 4 -1.13485 2.09429 3.98878
23 2 4.49624 1.15139 4.84704
24 2 5.81795 0.890025 3.40673
25 2 0.940478 0.847706 2.65587
26 2 1.55602 2.67229 3.29693
27 2 2.08847 1.12137 4.27301
41 1 4.72965 0.64626 3.83394
42 1 1.72529 1.54584 3.24359
48 3 3.48152 0.675253 1.06481
49 3 3.88058 3.2881 2.39029
51 3 3.87686 5.62752 0.879334
152 4 -2.01416 6.33583 6.14208
72 2 0.490378 2.1583 4.66138
73 2 -1.54894 3.49801 0.815049
74 2 -0.544703 4.11936 3.16962
310 3 6.70669 1.002 0.623232
76 1 -1.27572 3.31476 2.68853
275 2 -0.442352 2.27775 1.43084
110 2 2.00918 4.95646 7.55027
50 3 5.59671 3.29059 0.387108
150 4 -0.700749 3.99268 8.15239
159 2 1.05573 5.13573 6.11483
163 2 0.944942 3.39846 6.13338
164 2 -0.549917 2.34156 7.33026
165 2 1.43986 2.70612 7.81816
175 1 0.916599 3.52869 7.22416
179 3 -2.89552 5.69639 4.99107
180 3 -1.29441 5.08804 7.19803
195 2 -2.08538 6.22576 0.091795
196 2 -1.0257 5.19045 1.7782
198 1 -0.810041 6.14013 1.15559
197 2 0.196767 6.05145 0.728244
87 1 2.14094 0.154881 6.76633
33 2 4.13434 5.39823 4.68138
205 2 0.662556 0.130189 1.3505
279 2 1.01091 0.369629 6.76425
80 2 3.79427 0.217963 7.74119
94 4 0.258826 1.90313 12.1096
95 4 2.71391 2.19639 10.6719
98 4 2.20855 6.43228 16.9218
219 2 3.158 1.84434 15.5553
103 2 0.148809 0.5743 11.0559
104 2 -0.696219 3.03705 11.1956
105 2 -0.681603 1.58243 13.5013
108 2 0.951961 5.08867 15.7653
111 2 2.75337 3.28251 13.258
290 1 0.697317 0.65188 15.8287
120 2 0.367389 6.3094 12.8775
132 3 1.90305 1.31481 9.46922
133 3 1.6894 2.3929 12.3661
134 3 4.15204 1.45888 11.1012
168 2 -0.486416 5.74777 9.72992
136 3 2.8765 3.6722 9.84743
131 1 0.545993 6.39981 15.9236
109 2 1.99007 6.41148 9.79263
144 2 -2.26348 4.80997 14.8888
301 2 -0.491863 0.984697 9.0364
156 2 -1.88626 3.67822 9.60711
220 1 4.28317 1.77045 15.627
289 2 -0.16386 1.07854 16.5806
149 3 -4.62869 6.25365 15.2143
288 2 1.4544 1.41173 15.3759
142 4 -2.9992 6.26725 15.1508
167 2 -0.698796 4.92253 11.2786
176 1 -0.55715 4.73535 10.2036
217 2 4.70669 0.777376 15.5281
166 2 0.446807 4.16641 10.0854
16 2 3.34124 0.224208 16.4047
99 4 2.99104 5.10619 9.12508
276 2 3.96963 0.609702 13.1181
208 4 -4.24661 9.48276 0.280921
171 2 -4.10108 10.4233 7.17651
230 2 0.00950775 10.551 3.67874
153 4 -3.87502 8.23842 8.01065
154 4 0.790338 6.70824 5.44853
155 4 2.06996 7.8452 2.84935
22 2 -2.63804 12.2594 3.88839
160 2 1.87256 7.43372 6.48922
77 4 -4.95768 12.7018 8.66614
177 1 -3.18649 9.90044 7.67216
169 2 -2.20695 10.0555 7.11234
182 3 -2.98853 7.22932 7.20811
183 3 -0.772948 7.23378 5.7113
184 3 1.277 6.87034 3.96083
185 3 1.37616 8.77533 1.81689
193 4 -2.4491 7.3522 1.64529
194 2 -0.679652 7.48509 2.12098
232 1 -0.0491884 11.3777 4.39818
234 4 0.575267 9.66898 0.637469
199 3 -3.32027 6.62757 2.71609
200 3 -3.02923 8.8063 0.907448
202 2 -4.66353 11.7371 2.7252
203 2 -4.70871 9.97273 3.61077
204 2 -4.8605 11.6893 4.70439
161 2 2.95182 6.70466 1.87562
206 1 -5.05197 11.1478 3.66804
211 4 -0.376865 12.4329 1.56465
212 2 -1.89066 12.2406 2.31031
83 2 -4.73531 11.9511 6.21852
214 3 0.0936011 11.0815 1.09883
228 2 -1.04248 12.0314 4.22781
229 2 -0.4851 10.2608 5.731
309 3 -3.95479 11.0371 0.0402358
151 4 -4.46215 6.69526 10.8363
78 4 -5.45661 10.6528 10.7699
79 4 -4.18385 11.9163 13.3268
147 2 -2.12931 6.97494 13.1315
235 2 0.139522 10.2501 16.4211
82 2 -4.80442 9.10307 10.5239
84 2 -2.59831 10.1868 13.4368
85 2 -4.04375 10.1435 14.746
86 2 -2.34544 10.9897 15.0855
88 1 -3.0797 10.7296 14.3
89 3 -5.18661 11.2652 9.31832
90 3 -4.7415 11.2756 12.0519
119 2 -0.360229 7.89181 13.5863
277 2 -1.30882 11.4853 13.8663
287 2 -6.99513 12.7922 14.9082
146 2 -3.48797 8.26286 13.3967
148 1 -2.71095 7.62354 13.9033
145 2 -1.94813 8.20182 14.7247
118 2 0.380817 7.93669 11.8321
1 4 -5.41622 12.6953 17.2453
236 2 -0.335592 8.22007 16.2755
239 1 -0.787884 9.34212 16.3718
129 1 0.492512 7.45597 12.8738
283 2 -6.06081 8.93316 14.7301
231 1 -0.235702 12.0687 9.93834
181 3 -3.94584 7.80108 9.88603
238 2 -2.40424 8.799 17.3928
237 2 -1.67839 9.5661 15.6829
126 2 -0.401376 6.59691 16.5217
225 2 -0.103884 10.9552 9.65941
125 2 1.25052 7.97438 16.7888
81 2 -5.33025 12.6435 14.4376
124 2 0.468993 6.9252 14.82
271 3 -6.99749 10.5137 11.1709
157 2 -3.77628 6.87638 12.3788
226 2 -1.33644 12.2585 9.86217
143 2 -2.39354 6.69415 16.7937
170 2 -3.1282 10.3206 8.78061
210 2 -6.60036 8.85068 16.3435
302 2 -7.76602 12.0419 9.88472
2 4 11.355 5.85475 3.83973
9 4 6.19895 6.14354 3.52679
5 4 11.1912 0.596293 1.80024
61 3 7.54872 6.08087 4.42988
7 4 12.0113 1.65369 6.20327
8 4 9.74882 3.31802 2.46541
62 3 9.37151 5.13094 6.20255
35 2 10.9618 5.46688 8.40354
11 4 9.97391 3.93636 6.99804
19 2 8.61856 3.34123 7.90078
294 2 7.14945 2.35549 7.12241
18 2 11.1672 0.42555 5.38565
128 1 4.69662 5.58943 8.64112
29 2 8.07971 1.91745 3.42246
30 2 7.41311 3.74987 3.23464
31 2 8.67019 3.28129 4.61462
286 2 14.1714 0.0648732 1.57065
116 2 4.25499 5.82614 7.41354
44 1 8.28177 3.06761 3.55324
75 2 12.927 3.49543 2.87558
45 1 4.74718 6.3288 4.78632
52 3 12.4676 1.12852 0.954072
53 3 13.1899 1.92208 5.06737
54 3 12.6033 1.16992 7.5674
55 3 10.3017 1.79486 2.31826
56 3 10.8052 4.39237 3.3426
57 3 5.99274 4.73172 2.5883
58 3 9.15049 4.06533 0.800771
59 3 10.9199 2.70359 6.45875
32 2 5.25481 6.39203 5.83653
293 1 7.04217 2.13282 8.25087
91 4 13.6684 1.81821 0.208769
274 2 14.5336 0.488239 3.21139
12 4 8.84647 6.38319 5.4145
221 4 7.9342 0.347642 8.60597
10 4 8.91925 5.67991 0.0760892
291 2 6.04393 1.63905 8.39923
28 2 13.4498 0.666655 10.4744
36 2 11.2168 3.55993 9.09703
37 2 9.44024 4.48628 9.51547
297 2 9.32724 0.850893 10.5956
138 3 3.17669 5.82214 12.5512
92 2 12.5049 0.964515 16.4992
93 2 11.1958 2.9339 16.3912
46 1 10.4291 4.35984 8.81914
295 2 9.79378 1.8683 9.0505
102 4 4.93995 5.96809 15.3744
218 2 4.87926 2.58025 15.0019
107 2 6.54543 2.02498 10.2145
249 2 7.78463 5.49556 9.08654
114 2 7.01295 2.61289 15.0101
127 1 7.36724 0.92831 15.109
137 3 5.11783 3.93579 12.0963
299 2 8.53345 0.620542 15.0242
139 3 4.42909 4.70457 14.5521
140 3 6.02534 5.52866 16.5093
186 4 9.20553 6.24309 15.335
187 4 7.90577 3.81288 13.8764
188 2 8.61416 2.27504 14.4068
189 2 8.29118 3.70082 12.0861
190 2 6.36036 4.07037 13.1382
191 3 8.53779 6.27576 17.0015
192 3 8.44035 5.11699 14.559
135 3 6.07865 1.32532 12.7538
252 2 6.25039 5.72447 12.7347
298 1 9.60328 0.816125 9.51041
251 2 8.51377 3.69525 10.3719
242 2 11.4366 1.82148 12.6114
243 2 11.7036 0.914601 10.9554
292 2 7.27958 3.01597 9.03275
245 1 12.1285 1.1714 11.9674
97 4 5.46502 2.16046 11.5042
244 2 13.1973 0.726614 14.5776
255 1 7.68914 4.44559 10.4574
250 2 6.56672 3.99634 10.4486
247 4 7.84941 6.30785 10.811
216 2 6.50041 3.08179 17.4625
300 2 6.72739 0.354323 15.9147
241 2 13.1952 1.53314 11.9697
215 4 4.88508 2.48711 17.3172
43 1 14.2634 0.218867 9.58436
100 4 3.93234 4.4819 13.0431
96 4 6.78607 0.181961 13.667
162 2 11.4099 5.10023 10.402
296 2 10.4442 0.113414 9.29476
117 2 5.37764 4.7053 8.7998
13 4 7.3952 8.03463 1.48611
14 4 6.81041 8.02503 7.05062
15 4 6.51537 10.5721 5.65675
39 2 5.40806 12.4148 4.50319
201 4 8.63375 10.8922 3.17344
285 2 7.98971 11.3435 1.01899
34 2 4.17517 7.37324 4.49965
38 2 4.77322 10.7065 3.99457
158 2 9.92784 7.87931 7.4244
40 2 4.13026 11.3664 5.67365
6 4 5.89599 12.5066 8.16689
47 1 4.93681 11.4484 4.85303
63 3 6.13118 7.4596 2.55452
64 3 8.22959 6.76732 1.00131
65 3 8.43185 9.14892 2.17024
66 3 6.74587 8.83711 0.181391
67 3 8.33188 7.55696 6.83935
68 3 7.74232 10.8299 4.55231
69 3 6.10642 8.91701 5.93557
70 3 6.77568 11.4713 6.98908
172 2 2.61888 9.97841 3.76385
173 2 4.0741 8.77397 3.33809
174 2 3.18894 8.68273 5.12512
178 1 3.07507 9.00824 4.03983
20 2 6.8779 8.95299 8.43417
224 2 2.50532 10.1171 5.58423
209 2 9.77268 9.26317 1.23279
223 2 1.32193 12.4199 4.36538
222 4 1.12108 11.2002 5.89204
233 3 1.15757 12.0901 7.24382
267 2 4.19987 8.90581 8.31538
60 3 10.0307 6.90511 4.48559
21 2 5.69644 6.79771 7.45958
263 2 4.1351 10.2031 0.0376387
278 2 4.39308 12.3759 3.20306
207 1 7.98261 12.2683 1.73406
17 2 3.01626 12.2141 1.00716
213 2 0.376606 12.7511 3.01367
141 3 3.53695 6.63178 16.0411
122 2 3.51683 7.78688 9.53837
113 2 5.68975 7.07417 14.3494
307 2 2.66684 12.3106 12.0933
123 2 3.88651 8.50124 11.8114
130 1 2.87244 7.97457 10.4556
265 4 4.68437 10.0705 9.49427
246 1 5.52055 12.4 15.0201
308 1 3.02169 11.662 12.9602
248 2 6.56313 7.50957 10.709
106 2 1.24029 12.5073 13.0478
254 2 7.31634 7.17919 13.3302
256 1 6.57622 6.7836 12.5728
258 4 4.47137 9.91693 16.4381
259 2 5.54255 10.4531 15.0983
260 2 2.97475 9.35377 15.6605
261 2 1.98553 11.3424 16.0196
264 1 2.71615 10.7448 16.6152
303 2 6.16248 12.0581 15.8688
112 2 1.80502 8.14899 13.8611
284 1 8.76016 7.9772 14.5617
266 4 6.90831 10.1306 11.3882
268 2 3.46731 9.80511 10.7266
269 2 6.9421 8.67149 12.2509
304 2 4.36392 12.4405 15.262
272 3 6.16771 9.67922 9.97281
273 3 5.98629 11.1688 12.3326
281 2 7.63598 8.07081 14.7873
282 2 8.97168 7.62051 13.4657
240 4 4.94438 12.1996 13.0021
253 2 5.6641 7.38938 12.3848
257 3 9.38223 6.76265 10.9793
305 2 2.65327 12.0129 13.9423
306 2 2.84439 10.4867 12.8518
101 4 2.57584 7.31869 12.2858
227 2 0.196049 12.2954 10.9234
121 2 1.96355 8.62764 10.2482
115 2 4.75764 6.47696 9.48566
262 2 4.02159 11.6317 17.1801
270 3 4.53384 11.4907 8.89312
ITEM: TIMESTEP
300
ITEM: NUMBER OF ATOMS
310
ITEM: BOX BOUNDS xy xz yz pp pp pp
-9.0288000000000004e+00 1.5411400000000000e+01 -7.2027000000000001e+00
0.0000000000000000e+00 1.2904465999999999e+01 -1.8261000000000001e+00
0.0000000000000000e+00 1.7503399999999999e+01 1.6336599999999998e-01
ITEM: ATOMS id type x y z
4 4 4.83095 4.16953 1.60509
3 4 3.44485 1.62043 2.44166
280 2 2.73913 0.958401 6.1538
71 4 -1.1131 2.11899 3.89692
23 2 4.21776 1.03553 4.86045
24 2 5.59699 1.14211 3.6874
25 2 0.864834 0.743282 2.70547
26 2 1.38521 2.71173 3.01757
27 2 2.07265 1.15665 4.21705
41 1 4.57221 0.668926 3.8569
42 1 1.60885 1.5629 3.16361
48 3 3.29968 0.767035 1.11512
49 3 3.76703 3.24764 2.40271
51 3 4.05433 5.80165 1.03169
152 4 -2.06767 6.32345 6.2311
72 2 0.477337 2.38839 4.54388
73 2 -1.46336 3.62732 0.727921
74 2 -0.682408 4.21041 3.09885
310 3 6.93409 0.951318 0.714092
76 1 -1.30542 3.31539 2.56443
275 2 -0.332521 2.25291 1.36885
110 2 1.90073 5.12292 7.53262
50 3 5.43325 3.32473 0.33924
150 4 -0.671494 4.11845 8.0636
159 2 0.731998 4.98008 5.75328
163 2 1.16406 3.25812 6.19603
164 2 -0.555965 2.51582 7.33626
165 2 1.22456 2.85552 8.02417
175 1 0.977639 3.69905 7.21339
179 3 -2.90229 5.6245 5.09482