ITEM: TIMESTEP
0
ITEM: NUMBER OF ATOMS
310
ITEM: BOX BOUNDS xy xz yz pp pp pp
-8.9013890000000000e+00 1.5411400000000000e+01 -7.0752889999999997e+00
0.0000000000000000e+00 1.3079499999999999e+01 -1.8261000000000001e+00
0.0000000000000000e+00 1.7503399999999999e+01 3.3839999999999998e-01
ITEM: ATOMS id type x y z
168 2 2.26903 4.77324 7.87981
3 4 3.12644 2.01904 3.27052
4 4 4.24379 4.50134 1.92231
22 2 5.6039 2.2902 3.32905
294 2 5.71329 0.599515 7.78095
24 2 4.79774 1.82648 4.96235
25 2 1.22922 0.909363 4.76546
26 2 1.29755 2.87085 5.03267
27 2 2.85036 1.75396 5.50838
41 1 4.8993 1.61943 3.85177
42 1 1.88278 1.85437 4.76021
48 3 2.74095 0.682972 1.85321
49 3 3.07528 3.51255 2.69265
51 3 3.85313 5.78872 0.931795
71 4 -1.30157 2.52137 3.19065
72 2 0.398693 2.28737 3.55056
176 1 1.70262 5.81423 7.9465
74 2 -0.293273 5.00655 2.25825
75 2 -1.55245 4.82622 3.67453
76 1 -1.09287 4.3763 2.75477
310 3 6.87464 1.24358 0.905767
23 2 5.09866 0.545171 3.70123
160 2 1.43542 6.40917 6.11582
150 4 0.0222717 4.77554 7.9879
159 2 0.0543538 5.06376 4.24397
163 2 0.381222 3.34592 5.98514
164 2 -0.909641 2.54595 7.13102
165 2 0.890903 2.48604 7.58119
175 1 0.122985 3.12183 7.06752
179 3 -2.94269 5.52471 5.07603
180 3 -1.03815 5.51841 7.06754
195 2 -1.21881 6.1069 1.86281
287 2 1.17897 1.58762 0.308843
50 3 5.31936 3.49609 1.10898
280 2 2.19797 0.257162 5.9425
152 4 -2.01064 6.46951 6.04092
293 1 6.14956 0.971233 8.71275
73 2 -2.125 4.10175 1.88288
1 4 2.90066 0.0328468 0.416868
132 3 1.91233 1.42164 8.6922
286 2 0.242184 0.120717 2.38006
94 4 0.465885 3.11898 11.716
95 4 2.76889 2.57879 9.9054
97 4 4.88218 2.1757 11.8752
291 2 5.42559 1.12672 9.50542
103 2 -0.733889 1.9385 11.2598
104 2 -0.281419 4.58242 12.1322
105 2 1.19805 2.66642 13.1849
108 2 1.2279 5.94762 15.7528
111 2 2.66942 3.63188 14.7282
289 2 0.458523 1.57955 16.0639
218 2 4.03907 2.64547 16.0914
301 2 0.159096 1.27215 9.1182
133 3 1.54052 3.28872 10.6
134 3 3.64357 1.46855 11.0353
290 1 -0.280002 1.16616 16.9208
136 3 3.88548 3.74669 9.26839
142 4 -2.13611 5.72359 16.3606
135 3 5.82406 1.14295 12.6664
144 2 -1.02975 3.91988 16.7471
43 1 -0.958153 1.20251 9.44743
146 2 -1.7749 3.96754 14.6697
147 2 -0.0868118 4.78175 14.9434
148 1 -1.0972 4.54249 15.4005
149 3 -3.6649 5.50204 16.1547
156 2 -0.643259 4.37699 9.46642
28 2 -1.46265 2.14769 9.70176
145 2 -1.30658 6.34813 14.8771
137 3 4.42341 3.26737 12.8905
217 2 2.46041 1.87174 15.3391
275 2 -2.10443 1.92936 16.7248
219 2 2.28911 3.17764 16.6003
220 1 2.91048 2.3558 16.2836
276 2 0.835038 0.291218 13.6871
16 2 2.7959 1.00155 17.363
98 4 2.46206 6.56404 16.923
166 2 1.3908 6.16684 9.0846
162 2 -3.61857 5.23347 9.92123
302 2 -1.0961 0.424911 10.2574
83 2 -4.05053 11.2675 6.39544
87 1 -4.82323 12.0787 6.74397
177 1 -2.92518 9.88734 7.96814
153 4 -3.88198 8.22692 8.02365
154 4 0.532465 6.65715 4.65115
155 4 2.02385 8.17666 2.28448
197 2 -1.9128 6.99212 0.188386
232 1 0.505562 11.8059 4.73916
196 2 -0.378755 7.82449 1.18876
279 2 -5.93146 11.6448 6.80226
171 2 -1.85821 9.52468 8.0599
182 3 -3.01116 7.50178 6.96473
183 3 -0.796351 7.38876 5.06499
184 3 1.36048 7.38117 3.52667
185 3 1.19666 8.76701 1.02922
193 4 -2.9059 8.00192 1.97256
194 2 -1.31301 8.7743 2.34723
170 2 -3.06498 10.5202 6.98172
198 1 -1.3533 7.2022 1.22571
199 3 -3.39658 6.90016 2.92128
200 3 -3.79022 8.85891 0.992429
202 2 -4.83706 12.1035 2.9407
203 2 -4.81355 10.179 3.42451
204 2 -5.14724 11.5113 4.76657
143 2 0.158894 6.41184 0.0475334
206 1 -5.26984 11.2237 3.64697
224 2 0.464461 9.4261 6.60197
212 2 -0.367394 12.5547 3.17932
80 2 -3.28307 12.2942 7.94937
167 2 2.37068 6.64097 7.46777
228 2 -0.46436 11.0781 4.77783
77 4 -4.88429 12.6345 8.58498
214 3 0.857558 11.5721 0.86433
309 3 -4.35315 11.2173 0.0630074
158 2 -5.40493 8.69197 7.38859
126 2 0.119142 7.8954 16.4255
78 4 -6.21264 10.5398 10.6002
79 4 -5.65773 11.4827 13.545
277 2 -1.8121 11.5239 13.871
81 2 -6.69713 10.7763 14.7111
119 2 1.3993 8.78892 13.2576
84 2 -3.48273 11.6246 12.7121
85 2 -3.96595 10.2184 14.2445
169 2 -3.28147 10.3919 8.90349
88 1 -3.76462 11.3714 13.8317
89 3 -5.51205 11.5232 9.52211
90 3 -5.90633 10.9727 12.0634
226 2 -0.298883 11.5187 10.4827
225 2 1.01581 10.3103 9.78418
124 2 1.29505 7.83332 14.9769
237 2 -1.6821 9.84146 15.4268
82 2 -5.62899 8.97453 10.3436
129 1 1.30694 7.70589 12.9119
131 1 1.23111 7.81037 16.1832
238 2 -2.85441 10.7682 16.5538
157 2 -3.2723 6.8974 11.9757
86 2 -3.77777 12.2115 14.6161
118 2 1.04247 7.6751 11.8079
120 2 0.679723 7.0036 13.5383
283 2 -4.97681 8.23131 15.8853
181 3 -3.92748 7.82921 9.51032
236 2 -2.56193 8.99653 16.9643
239 1 -2.14301 9.9362 16.4705
210 2 -6.14513 9.498 15.8758
151 4 -4.19987 6.69817 10.6171
234 4 -0.65451 10.4118 17.4745
208 4 -6.46845 9.97465 17.4335
288 2 -8.05486 13.0305 16.6165
2 4 11.3395 5.75848 3.8081
211 4 7.50452 0.0887239 1.67181
5 4 11.0531 1.13081 0.34901
9 4 6.14043 6.3509 3.52698
7 4 12.1435 1.65387 5.67833
8 4 10.0988 3.27565 2.30855
110 2 4.25338 5.73754 7.0832
10 4 9.21885 5.61116 0.5122
11 4 10.049 3.50782 7.07333
12 4 8.85719 6.05855 5.56325
46 1 11.3812 4.1518 8.29182
191 3 10.9001 5.62712 0.103831
19 2 8.92081 2.51382 8.03249
29 2 9.45868 1.53034 4.00175
30 2 7.86013 2.21102 3.01352
31 2 8.91286 3.31254 4.30011
115 2 6.47634 5.1372 6.17748
274 2 13.9568 1.31029 1.93671
44 1 8.91334 2.41489 3.50453
117 2 6.67538 4.25836 8.33806
128 1 5.68617 4.70781 6.97176
213 2 8.81097 0.753336 2.39532
53 3 13.1928 2.16035 4.37774
54 3 12.9538 1.54893 7.08939
55 3 10.7786 1.98075 1.63734
56 3 10.986 4.36507 3.09789
57 3 5.31335 5.02728 3.00342
58 3 8.8364 4.18578 1.09449
59 3 10.8386 2.53256 6.00249
215 4 6.38524 2.59709 0.34731
61 3 7.44108 5.87119 4.8892
62 3 9.27548 4.6995 6.38278
292 2 6.79971 2.00519 8.47972
99 4 4.85739 4.84533 8.67404
6 4 13.2796 0.276 8.02483
230 2 7.46752 0.134142 5.18835
35 2 11.307 5.2304 8.19145
116 2 5.34308 3.71326 6.63764
33 2 4.10377 6.40561 4.78845
60 3 10.0248 6.39443 4.4182
36 2 12.4213 3.75157 8.09589
216 2 7.81472 3.54616 0.080805
17 2 7.909 1.47713 16.762
295 2 10.1639 1.62736 9.15451
37 2 10.7833 3.64255 9.27446
100 4 4.00214 4.35905 13.9034
91 4 11.6692 2.18588 16.1627
92 2 11.5171 1.62312 14.5379
93 2 11.6336 3.87547 15.9814
296 2 9.15819 0.811217 10.6269
251 2 7.07315 4.61514 10.1095
102 4 5.34513 6.18789 15.6598
52 3 10.4864 1.74306 17.0301
107 2 6.01628 2.9093 10.7635
141 3 3.90888 6.559 16.3551
114 2 6.91083 2.56146 15.2823
127 1 7.02094 0.751 15.1239
297 2 8.54564 2.52132 9.86342
138 3 3.49728 5.74462 13.3084
139 3 5.29135 4.57356 15.1855
140 3 6.52486 6.3752 16.6787
186 4 9.81099 5.86919 16.1368
187 4 8.19409 3.54258 14.3327
188 2 8.56392 1.88575 14.5854
189 2 8.53391 3.14951 12.707
190 2 6.54352 3.99501 14.0784
303 2 13.1973 0.971673 14.9655
192 3 9.07835 4.70018 15.1317
122 2 3.59284 5.97867 10.6218
255 1 7.57345 4.09962 11.2393
298 1 9.11781 1.48104 9.63984
241 2 12.433 1.93133 12.6039
242 2 11.012 1.49713 11.3722
243 2 12.9396 1.27382 10.8081
252 2 8.00134 6.24732 13.3878
245 1 12.0882 1.34672 11.6957
257 3 9.72666 6.36235 11.0523
247 4 8.14301 6.0017 11.4617
249 2 6.80711 4.19295 12.0772
250 2 7.93141 2.98113 11.0424
253 2 5.85528 6.53388 12.8268
109 2 5.07026 6.28974 9.68391
300 2 6.23455 0.310745 15.8707
13 4 7.87875 7.94443 1.72444
14 4 7.37233 7.85138 7.26918
15 4 6.67161 10.6182 6.15556
285 2 6.68657 12.4873 2.71271
21 2 6.28131 6.60042 7.07396
278 2 3.97731 12.2742 0.770436
34 2 4.33265 8.05457 3.99785
38 2 4.29956 9.87863 6.02368
39 2 4.99724 11.1502 4.6148
40 2 4.14377 11.7558 6.37334
207 1 7.5862 12.2259 2.17011
47 1 4.6883 10.9417 5.79244
63 3 6.64576 7.27455 2.32909
64 3 9.05851 6.95574 1.47145
65 3 8.31492 9.3624 2.54522
66 3 7.47749 8.9245 0.0282388
67 3 8.89214 7.35522 6.9505
68 3 7.51893 10.8355 4.72709
69 3 6.69257 9.0859 6.58864
70 3 7.06849 11.7954 7.15436
172 2 2.661 10.3897 2.48516
173 2 4.33186 9.40205 2.61066
174 2 3.22964 9.41684 4.05298
178 1 3.28983 9.43814 2.97146
201 4 8.3453 10.7706 3.31846
161 2 3.68018 7.80601 1.9759
222 4 1.17852 10.9463 6.25596
223 2 2.73786 10.3925 5.9709
229 2 1.49864 11.5588 4.05614
233 3 1.13139 11.9598 7.6667
267 2 3.698 10.434 7.4918
205 2 7.49397 11.8261 1.10287
32 2 5.29519 7.72405 5.52205
45 1 4.86613 7.26529 4.61064
18 2 4.64989 12.8299 5.18587
101 4 3.1181 7.16395 12.6649
112 2 3.90456 8.47409 13.5917
113 2 5.66932 7.31375 14.3887
246 1 5.58848 12.7523 14.6622
123 2 4.70687 7.5901 11.0151
130 1 3.67987 7.1625 10.7595
304 2 6.39282 11.9195 14.5918
235 2 0.72362 10.5984 16.4991
227 2 1.49983 11.4213 11.2923
248 2 6.95461 7.29146 10.9483
125 2 1.87711 8.73761 16.6731
254 2 6.87623 8.04035 13.3576
256 1 6.85858 7.09622 12.787
258 4 5.1698 10.1388 16.3641
259 2 5.94575 11.6666 16.2477
260 2 5.33541 9.36216 14.6735
261 2 3.15365 8.67918 15.2368
262 2 3.25575 10.4015 14.2666
240 4 4.84467 12.4036 12.7101
264 1 3.69263 9.6557 15.1138
265 4 4.26929 11.0656 8.98502
266 4 6.21794 10.1816 10.9
268 2 2.72679 11.2397 9.85115
269 2 6.44931 8.6827 11.7764
271 3 7.63766 10.434 10.3222
272 3 5.1145 9.90997 9.58287
273 3 5.56944 11.2526 11.9115
281 2 8.53324 7.84423 15.8109
284 1 9.61711 7.56748 15.4692
231 1 0.846498 11.2801 10.3203
106 2 0.876708 12.0172 12.8667
221 4 0.73496 12.8136 8.96925
305 2 2.93574 11.92 14.0063
306 2 2.77919 10.7693 12.5631
263 2 3.37841 10.6264 16.6427
308 1 2.55202 11.7837 12.9968
20 2 7.15002 7.91994 8.89325
282 2 9.69886 7.34572 14.3187
307 2 2.94663 12.5981 12.2763
121 2 3.07164 7.82697 10.0754
244 2 4.62844 12.4373 15.3028
270 3 4.90294 12.5253 8.80792
96 4 -0.614867 12.7967 13.6111
299 2 1.03424 12.9392 15.196
209 2 7.25212 9.52045 17.4635
ITEM: TIMESTEP
100
ITEM: NUMBER OF ATOMS
310
ITEM: BOX BOUNDS xy xz yz pp pp pp
-8.9013890000000000e+00 1.5411400000000000e+01 -7.0752889999999997e+00
0.0000000000000000e+00 1.3079499999999999e+01 -1.8261000000000001e+00
0.0000000000000000e+00 1.7503399999999999e+01 3.3839999999999998e-01
ITEM: ATOMS id type x y z
168 2 2.20004 4.52511 7.7252
3 4 3.10761 2.08553 3.17947
4 4 4.37234 4.47919 1.95831
22 2 5.52936 2.12576 3.12903
294 2 5.96867 0.403056 7.53507
24 2 4.89671 1.91347 4.83923
25 2 1.20453 0.98728 4.63243
26 2 1.35821 2.81646 5.07707
27 2 2.87098 1.65776 5.39814
41 1 4.83427 1.54865 3.82113
42 1 1.87165 1.85374 4.69976
48 3 2.69515 0.74169 1.89616
49 3 3.09327 3.6736 2.70965
51 3 3.70673 5.63798 0.902292
71 4 -1.37483 2.54505 3.18276
72 2 0.270461 2.04695 3.57064
176 1 1.71066 5.57549 7.86523
74 2 -0.0353487 4.35266 2.69401
75 2 -1.59111 4.90718 3.82632
76 1 -1.17467 4.40161 2.89322
310 3 6.77696 1.26806 1.01836
23 2 4.90509 0.447946 3.67133
167 2 2.29215 6.31453 7.3051
150 4 -0.0400269 4.85632 8.10715
159 2 -0.027342 5.12242 4.31831
163 2 0.750431 3.47788 6.1743
164 2 -0.777898 2.60072 7.03896
165 2 0.909573 2.51454 7.83244
175 1 0.205894 3.17989 7.212
179 3 -2.83536 5.37239 5.0784
180 3 -0.888949 5.76947 7.10407
195 2 -1.2495 6.06558 1.70681
287 2 1.0104 1.61653 0.306877
50 3 5.23778 3.4723 1.07668
280 2 2.08015 0.294793 5.94299
286 2 -0.108134 0.416404 2.22915
293 1 6.04075 0.788301 8.6338
73 2 -2.04623 4.21993 1.8655
1 4 2.80619 0.201348 0.435528
132 3 2.14329 1.44897 8.59972
215 4 6.20866 2.611 0.284082
94 4 0.556506 3.03139 11.6606
95 4 2.85308 2.50322 9.92177
97 4 4.97816 2.30721 11.9095
291 2 5.29424 0.280512 9.30953
103 2 -0.181463 1.5768 11.2823
104 2 -0.549833 4.18969 11.925
105 2 1.23162 2.67831 13.1192
108 2 1.091 6.12267 15.7092
111 2 2.50912 3.87438 14.8175
289 2 0.346388 1.83985 16.1583
218 2 4.06768 2.7998 15.9885
301 2 0.156047 1.13466 9.21342
133 3 1.56255 3.40826 10.5709
134 3 3.66598 1.70115 11.0184
290 1 -0.360705 1.25002 16.938
136 3 4.01455 3.56986 9.06764
142 4 -1.98885 5.72586 16.3599
135 3 5.85842 1.13957 12.7831
144 2 -0.986988 3.90627 16.591
43 1 -0.937121 0.976517 9.53723
146 2 -1.65154 4.10007 14.553
147 2 0.114238 4.55794 14.8929
148 1 -0.949349 4.6305 15.2614
149 3 -3.59383 5.58822 16.116
156 2 -0.68137 4.68183 9.71637
28 2 -1.38615 1.99147 9.80002
145 2 -1.00081 6.4708 14.9471
137 3 4.37654 3.39052 12.8922
217 2 2.53457 1.89823 15.1401
275 2 -2.22325 2.03088 16.6605
219 2 2.09547 3.07663 16.444
220 1 2.83868 2.33027 16.1015
276 2 1.01919 0.471274 13.7919
16 2 2.71691 1.05179 17.2025
98 4 2.30887 6.57857 17.0047
166 2 1.714 5.81274 9.08439
162 2 -3.51403 5.09 9.90793
122 2 2.99145 6.2785 10.4845
100 4 3.77826 4.46279 13.8957
151 4 -4.23256 6.51376 10.5083
288 2 -1.05404 0.467764 16.4358
83 2 -3.95129 11.2844 6.38631
87 1 -4.80612 12.0498 6.65934
177 1 -2.82069 9.96266 8.227
153 4 -3.81569 8.39506 8.12135
154 4 0.377123 6.73317 4.74859
155 4 2.02657 8.05518 2.49863
197 2 -1.89175 7.13607 0.0394985
232 1 0.392148 11.9244 4.71565
196 2 -0.358962 7.77633 1.12743
279 2 -5.85221 11.4601 6.85808
171 2 -1.7291 9.72374 8.32562
182 3 -2.96085 7.42487 7.0179
183 3 -1.00102 7.52322 4.90874
184 3 1.24902 7.41098 3.64695
185 3 1.2592 8.6018 1.16874
193 4 -2.91955 7.84579 1.94888
194 2 -1.34547 8.43374 2.57185
170 2 -3.06585 10.6362 7.27681
198 1 -1.26796 7.13148 1.1305
199 3 -3.59017 6.85041 2.87708
200 3 -3.68155 8.88047 1.06368
202 2 -4.97022 12.0058 2.83835
203 2 -4.96472 10.0869 3.27527
204 2 -5.10306 11.4605 4.70688
309 3 -4.47298 11.3087 0.164792
206 1 -5.35856 11.1737 3.54247
224 2 0.594421 9.41329 6.43217
212 2 -0.524203 12.2102 2.95765
80 2 -3.22748 12.1777 7.81352
152 4 -2.06992 6.5321 6.0065
228 2 -0.530911 10.9025 4.73496
77 4 -4.77125 12.6178 8.50192
214 3 0.817735 11.4394 0.793877
158 2 -5.42576 8.56531 7.57156
208 4 -4.53186 9.73338 0.0778179
160 2 1.31186 6.49842 6.15641
143 2 0.273277 6.37533 0.175389
126 2 0.267102 7.75801 16.8202
78 4 -6.08225 10.5925 10.4805
79 4 -5.62341 11.5325 13.617
277 2 -1.85685 11.4222 14.0426
81 2 -6.71564 10.7663 14.6377
119 2 1.18644 8.7807 13.6945
84 2 -3.40864 11.3382 12.9773
85 2 -4.12097 10.4245 14.7981
169 2 -3.18976 10.4106 9.21116
88 1 -3.77114 11.4804 14.1222
89 3 -5.41796 11.5489 9.45903
90 3 -5.85419 11.0326 12.023
226 2 -0.399557 11.7943 10.5747
234 4 -0.790485 10.3858 17.4412
124 2 1.22657 7.92825 15.0062
237 2 -1.72019 10.037 15.3697
82 2 -5.17421 9.09247 10.358
129 1 1.39527 7.84558 13.0045
131 1 1.25876 7.96785 16.2601
238 2 -2.96464 10.925 16.5885
157 2 -3.29604 6.76425 11.8324
86 2 -3.84421 12.5356 14.6219
118 2 1.17829 8.00434 11.8845
120 2 0.826307 6.94293 13.4241
283 2 -4.80623 8.16353 15.4764
181 3 -3.96636 7.66811 9.57338
236 2 -2.61225 9.00874 16.6481
239 1 -2.23864 10.0587 16.4078
210 2 -5.93366 9.50463 16.0562
225 2 0.751514 10.3084 10.1123
96 4 -0.674821 12.7114 13.7618
2 4 11.3027 5.73196 3.84382
36 2 12.0371 3.48684 8.32475
5 4 11.1454 1.03575 0.440316
9 4 6.19329 6.39017 3.67959
7 4 12.2113 1.64589 5.69472
8 4 10.046 3.23714 2.28284
110 2 4.2176 5.51361 6.91339
10 4 9.35123 5.72434 0.502153
11 4 10.0203 3.28317 7.01022
12 4 8.89868 5.97174 5.61714
46 1 11.0966 4.09009 8.36497
211 4 7.52878 0.0666767 1.68807
19 2 8.81481 2.38992 7.92509
29 2 9.39934 1.40649 4.09835
30 2 7.88087 2.33547 3.28231
31 2 9.13129 3.30385 4.4004
115 2 6.47661 5.09108 6.10478
274 2 13.8753 1.38381 1.86229
44 1 8.98389 2.37964 3.68369
117 2 6.74387 4.65999 8.31624
128 1 5.80298 4.59972 6.91307
213 2 8.72708 0.63071 2.68026
53 3 13.1558 2.21903 4.44372
54 3 13.1725 1.66468 6.9435
55 3 10.7048 2.00766 1.58817
56 3 11.0523 4.32263 2.97594
57 3 5.34602 5.02927 3.25606
58 3 8.92259 4.07941 1.03769
59 3 10.8142 2.27108 6.06007
216 2 7.68273 3.58453 0.144847
61 3 7.48003 5.86966 4.89546
62 3 9.35556 4.58173 6.38567
292 2 6.01379 1.91463 8.73401
99 4 4.76574 4.76824 8.53257
6 4 13.3233 0.218822 8.1686
230 2 7.30804 0.164911 5.26031
35 2 11.1831 5.23008 8.34808
116 2 5.62167 3.5205 6.67575
33 2 4.08906 6.35391 4.80407
60 3 10.0468 6.3295 4.52453
17 2 7.9647 0.95125 16.9258
295 2 10.1694 1.48541 8.94558
37 2 10.3605 3.65667 9.22755
109 2 4.52493 6.24967 9.41372
91 4 11.6407 2.31718 16.149
92 2 11.5879 1.71281 14.5593
253 2 5.82843 6.58398 12.774
296 2 9.47134 0.595143 10.3484
251 2 6.97742 4.72491 10.1705
102 4 5.38422 6.06627 15.6897
52 3 10.4715 1.83111 17.0434
107 2 6.05644 3.10292 10.8126
141 3 3.81844 6.45005 16.3313
114 2 6.88965 2.5263 15.148
127 1 7.10052 0.687685 15.1998
297 2 8.67682 2.23911 9.92381
138 3 3.37472 5.91109 13.3806
139 3 5.19464 4.59633 14.9798
140 3 6.50022 6.09095 16.7292
186 4 9.80856 5.86301 15.9634
187 4 8.15607 3.57082 14.2662
188 2 8.56326 1.92755 14.6333
189 2 8.59926 3.56386 12.6192
190 2 6.58215 4.13205 13.9684
303 2 13.3251 0.914074 14.5968
192 3 9.05587 4.76307 15.1369
250 2 8.38358 3.42155 10.6076
255 1 7.65682 4.27041 10.9708
298 1 9.26244 1.29738 9.46616
241 2 12.186 1.96072 12.5497
242 2 11.1546 1.69696 10.8941
243 2 13.0195 1.19252 10.9218
252 2 8.02982 6.36902 13.5264
245 1 12.0231 1.33143 11.5542
257 3 9.69704 6.30032 11.0883
247 4 8.21141 6.07315 11.6279
249 2 7.05523 4.08312 11.9498
191 3 9.04145 6.00932 17.468
93 2 11.6339 4.01386 15.9871
13 4 7.78431 8.01786 1.75203
14 4 7.4829 7.75192 7.38109
15 4 6.70491 10.5762 6.22467
285 2 6.43622 12.5006 2.43274
45 1 4.84352 7.22385 4.70243
278 2 4.44033 12.275 1.03128
34 2 4.37164 8.08724 4.0875
38 2 4.60186 9.74354 5.84784
39 2 5.0487 11.2178 4.68561
40 2 3.89373 11.6018 6.17237
207 1 7.51078 12.3371 2.03048
47 1 4.74037 10.9418 5.79183
63 3 6.4584 7.55656 2.44735
64 3 8.83701 6.86683 1.57763
65 3 8.0854 9.4605 2.50629
32 2 5.22083 7.43627 5.71482
67 3 8.96127 7.45471 6.76176
68 3 7.48954 10.9121 4.71004
69 3 6.90553 9.11594 6.75801
70 3 7.06269 11.7555 7.38801
172 2 3.14468 10.1002 1.94156
173 2 4.57905 9.4552 2.95888
174 2 2.80303 9.60516 3.88505
178 1 3.45025 9.37632 2.77449
201 4 8.21956 10.8772 3.25013
161 2 3.7779 7.62476 2.22198
222 4 1.19065 10.9674 6.1146
223 2 2.86725 10.5369 5.67772
229 2 1.32743 11.8815 3.98474
233 3 1.15565 11.8473 7.48333
267 2 3.93962 10.2549 7.46438
205 2 7.52731 11.9576 0.990954
209 2 9.25882 9.29253 0.117745
21 2 6.25158 6.51209 7.17087
18 2 4.73804 12.8071 5.18361
101 4 3.21728 7.32403 12.7221
112 2 4.20744 8.43734 13.6756
113 2 5.74646 7.30636 14.4882
246 1 5.60196 12.7579 14.5022
123 2 4.67044 7.28987 10.8426
130 1 3.48608 7.26706 10.746
304 2 6.19734 11.7444 14.4431
235 2 0.519833 10.3461 16.3289
227 2 1.42177 11.5559 11.2859
248 2 7.00903 7.27373 10.946
125 2 1.98447 8.83182 16.8015
254 2 6.602 8.18613 13.3149
256 1 6.73287 7.18732 12.7881
258 4 5.17478 10.0933 16.3703
259 2 5.84584 11.72 16.1504
260 2 5.45097 9.49447 14.6231
261 2 3.3269 8.64654 15.1794
262 2 3.29398 10.332 14.3132
240 4 4.76414 12.4906 12.5478
264 1 3.80153 9.6439 15.1708
265 4 4.13589 10.9536 8.96383
266 4 6.32918 10.1988 10.8215
268 2 2.55449 10.9697 9.73774
269 2 6.20018 8.76041 11.7629
271 3 7.77922 10.2707 10.2669
272 3 5.16668 9.92311 9.70312
273 3 5.75801 11.4118 11.7534
281 2 8.62277 7.97237 15.7455
284 1 9.60374 7.59547 15.2761
231 1 0.770267 11.4029 10.3501
106 2 0.838862 11.7167 13.1034
221 4 0.738806 12.7412 8.87745
305 2 3.01138 12.1026 13.9592
306 2 2.9565 10.6773 12.7183
263 2 3.32982 10.4585 16.6507
308 1 2.62367 11.7483 12.9759
20 2 7.56926 7.63739 9.01927
282 2 9.51818 7.23452 14.132
307 2 2.85212 12.5855 11.9879
121 2 2.91557 8.1212 10.3042
244 2 4.763 12.7803 15.2055
270 3 4.71089 12.4573 8.76334
300 2 -0.788236 12.9782 16.0251
299 2 1.13428 12.9938 15.1897
66 3 5.90985 9.10966 17.4067
302 2 7.27706 12.8514 10.2745
ITEM: TIMESTEP
200
ITEM: NUMBER OF ATOMS
310
ITEM: BOX BOUNDS xy xz yz pp pp pp
-8.9013890000000000e+00 1.5411400000000000e+01 -7.0752889999999997e+00
0.0000000000000000e+00 1.3079499999999999e+01 -1.8261000000000001e+00
0.0000000000000000e+00 1.7503399999999999e+01 3.3839999999999998e-01
ITEM: ATOMS id type x y z
168 2 2.30277 4.87969 7.71142
3 4 3.13975 1.97831 3.24329
4 4 4.36869 4.52135 1.95948
22 2 5.55653 1.95862 3.10267
294 2 5.70266 0.838618 7.59827
24 2 4.75482 2.04354 4.91271
25 2 1.23065 0.75661 4.68502
26 2 1.24306 2.76127 4.83194
27 2 2.77619 1.65848 5.50753
41 1 4.86733 1.47654 3.86436
42 1 1.85598 1.71198 4.6948
48 3 2.65912 0.719597 1.82671
49 3 3.13679 3.64915 2.59789
51 3 3.89976 5.78749 0.982185
71 4 -1.34123 2.40772 3.1753
72 2 0.315229 2.10632 3.4843
176 1 1.70646 5.86903 7.84217
74 2 0.143581 4.14178 2.77265
75 2 -1.4359 4.95499 3.73628
76 1 -1.00773 4.25356 2.93887
310 3 6.72526 1.10089 0.790888
23 2 4.9286 0.402886 3.9733
230 2 6.7061 0.189812 5.24357
150 4 0.0901499 4.81097 7.94768
159 2 0.0739569 5.08577 4.34861
163 2 0.626668 3.29416 5.92874
164 2 -0.757732 2.64351 7.1001
165 2 1.07306 2.57858 7.65815
175 1 0.311641 3.17417 7.01846
179 3 -2.93512 5.43661 5.09152
180 3 -1.06317 5.60032 7.14578
195 2 -1.06815 6.07356 1.89439
287 2 0.804873 1.58492 0.416125
50 3 5.33028 3.43397 0.983367
280 2 2.20309 0.1853 5.94357
110 2 4.05489 5.42903 6.75834
293 1 6.01837 0.701426 8.6975
73 2 -1.72363 4.13689 1.83987
1 4 2.80912 0.139795 0.378665
132 3 1.87382 1.38547 8.62255
94 4 0.742424 2.92825 11.6127
95 4 2.94229 2.51084 9.85267
97 4 4.93373 2.2692 11.9508
288 2 -0.979692 0.523506 16.6083
103 2 -0.0273603 1.44339 11.2224
104 2 -0.574838 3.95199 11.8893
105 2 1.37615 2.4279 13.0546
108 2 1.0715 5.94482 15.9553
111 2 2.57307 3.80899 14.7171
289 2 0.288412 2.08969 16.3561
218 2 4.16295 2.76642 15.7801
301 2 0.0840811 1.09438 9.20277
133 3 1.77273 3.47719 10.6183
134 3 3.87242 1.55085 10.8999
290 1 -0.428563 1.45385 17.0236
136 3 3.90174 3.60783 8.95824
142 4 -2.05989 5.69408 16.3078
135 3 5.73261 1.21419 12.9322
144 2 -1.21596 4.10253 16.5535
43 1 -1.00561 0.977352 9.57429
146 2 -1.60786 4.31342 14.2572
147 2 0.0323229 4.41541 14.7611
148 1 -0.982797 4.78644 15.0561
149 3 -3.76908 5.56686 16.059
156 2 -0.505301 4.33926 9.43488
28 2 -1.45311 1.9964 9.83613
145 2 -1.17206 6.48111 14.7785
137 3 4.36446 3.49454 12.7998
217 2 2.58316 1.84928 15.1236
275 2 -2.30875 1.88009 16.7207
219 2 2.31609 3.27004 16.4234
220 1 3.0051 2.37277 16.04
276 2 0.788119 0.480049 13.82
16 2 2.56919 1.0827 17.2139
98 4 2.42563 6.55963 17.0368
166 2 1.46574 6.13806 9.05533
151 4 -4.28254 6.4847 10.713
122 2 2.97817 6.17089 10.5326
100 4 3.87245 4.46557 13.8775
83 2 -3.51616 11.5203 6.31547
87 1 -4.55085 12.0342 6.72631
177 1 -2.80792 9.84588 8.05021
153 4 -3.91817 8.38056 8.01917
154 4 0.377335 6.77452 4.7035
155 4 2.07774 8.20199 2.45435
197 2 -1.80918 7.13339 0.192992
232 1 0.201282 12.0068 4.81639
196 2 -0.13335 7.78994 1.25363
279 2 -5.50677 11.2324 6.88012
171 2 -1.77966 9.45524 8.11705
182 3 -3.04202 7.36322 7.05171
183 3 -0.969155 7.53418 5.12174
184 3 1.26798 7.48259 3.65353
185 3 1.3154 8.7609 1.14862
193 4 -2.84708 7.92022 2.01156
194 2 -1.43297 8.64856 2.73683
170 2 -2.9931 10.536 7.1275
198 1 -1.15993 7.17706 1.39689
199 3 -3.41624 6.7716 2.90083
200 3 -3.63359 8.90096 1.05091
202 2 -5.03365 12.2476 2.93142
203 2 -4.86347 10.3787 3.27215
204 2 -5.05107 11.6032 4.75246
309 3 -4.48815 11.3152 0.146165
206 1 -5.36025 11.3877 3.64764
224 2 0.606407 9.32847 6.23364
212 2 -0.641109 12.317 2.93027
80 2 -3.12329 12.3097 8.0218
158 2 -5.38921 8.51829 7.21622
228 2 -0.476406 11.2221 4.30592
77 4 -4.78087 12.6011 8.55081
214 3 0.686869 11.4906 0.898064
160 2 1.29093 6.76264 6.15188
208 4 -4.52942 9.75665 0.113027
234 4 1.07262 10.2155 0.0693382
143 2 0.189116 6.41801 0.102198
211 4 0.302562 12.7453 1.62933
167 2 2.31247 6.7321 7.32057
286 2 -7.16256 12.6316 2.0684
152 4 -2.11811 6.49512 6.11833
126 2 0.158213 7.4745 16.4466
78 4 -6.0142 10.5522 10.565
79 4 -5.61467 11.6999 13.603
277 2 -1.84077 11.6373 14.2652
81 2 -6.51149 10.9242 14.7871
291 2 -1.65135 12.6654 9.29781
84 2 -3.43947 10.9886 12.9998
85 2 -4.07668 10.7105 14.9397
169 2 -3.21776 10.3134 9.06996
88 1 -3.76711 11.4735 14.0027
89 3 -5.24994 11.4881 9.5217
90 3 -5.83228 11.1171 12.0695
226 2 -0.322519 11.1137 10.4039
210 2 -5.84576 9.56806 16.1063
124 2 1.36425 8.02105 15.1045
237 2 -1.79766 10.0279 15.5427
82 2 -5.33862 8.93693 10.4822
129 1 1.4418 8.22795 13.0341
131 1 1.21434 7.78718 16.2311
238 2 -2.92788 11.0704 16.6132
225 2 1.09876 10.1805 9.61227
86 2 -3.64268 12.6412 14.1709
118 2 1.2422 8.38963 11.8528
120 2 0.805188 7.43293 13.5061
283 2 -4.72872 8.14395 15.4456
181 3 -4.05577 7.56383 9.62207
236 2 -2.80648 9.27157 17.0439
239 1 -2.30244 10.1605 16.5604
157 2 -3.17258 6.74075 11.9336
2 4 11.3927 5.67677 3.91167
36 2 12.1223 3.4403 8.27641
5 4 11.1496 0.893882 0.477856
116 2 5.6552 3.74156 6.65509
7 4 12.2921 1.58093 5.74009
8 4 10.0597 3.21971 2.28057
215 4 6.3033 2.59154 0.0848456
10 4 9.19317 5.66724 0.580131
11 4 9.97094 3.30645 6.90172
12 4 8.8971 5.99642 5.63085
46 1 11.078 3.86765 8.3624
60 3 10.0604 6.36827 4.64147
19 2 8.95084 2.16992 7.68757
29 2 9.52873 1.42711 3.86607
30 2 7.92398 1.90979 3.04366
31 2 8.76818 3.13456 4.21163
115 2 6.42104 5.25177 6.10397
274 2 14.2104 1.16288 1.92199
44 1 8.87573 2.27632 3.46122
117 2 6.59458 4.77746 8.45684
128 1 5.72402 4.79681 6.89564
213 2 8.84029 0.655925 2.1597
53 3 13.2526 2.0289 4.42326
54 3 13.1257 1.82412 7.1207
55 3 10.7134 2.04536 1.4233
56 3 10.9117 4.26984 3.11678
57 3 5.27461 5.18037 3.11648
58 3 8.78514 4.19768 1.14809
59 3 10.9379 2.35605 6.05202
35 2 11.0775 4.97605 8.34536
61 3 7.43065 6.03858 4.79797
62 3 9.09124 4.54414 6.27894
6 4 13.3009 0.247041 8.15385
99 4 4.68075 4.83546 8.46624
216 2 7.7552 3.51507 0.0519469
295 2 10.1387 1.25388 8.69974
17 2 7.9583 0.614612 17.1903
93 2 11.4383 3.94741 15.9028
37 2 10.3908 3.37955 9.19044
109 2 4.39332 6.33168 9.42069
91 4 11.5116 2.27058 16.0287
92 2 11.3772 1.7418 14.4527
253 2 5.80096 6.60109 12.9204
296 2 9.36863 0.577343 10.389
251 2 6.92226 4.69395 10.2991
102 4 5.24783 6.06109 15.7347
52 3 10.4559 1.71015 17.031
107 2 6.20119 2.97138 10.9244
141 3 3.83361 6.42573 16.2916
114 2 6.91576 2.6592 15.2069
127 1 7.17576 0.901301 15.3729
297 2 8.54477 2.21189 9.5186
138 3 3.38252 5.91368 13.2597
139 3 5.35522 4.54881 15.1189
140 3 6.41371 6.18579 16.8351
186 4 9.75773 6.00293 15.9334
187 4 8.22591 3.6087 14.1991
188 2 8.61766 1.97105 14.6243
189 2 8.79712 3.32319 12.5486
190 2 6.63446 4.09462 14.0946
303 2 13.1407 1.09346 14.7638
192 3 9.06725 4.74163 14.9933
250 2 8.36732 3.2604 10.4947
255 1 7.77487 4.15019 11.0857
298 1 9.15778 1.21842 9.41201
241 2 12.1624 2.13295 12.4305
242 2 11.1174 1.54454 10.9798
243 2 12.9593 1.3047 10.8917
252 2 7.83243 6.1568 13.55
245 1 12.0821 1.42651 11.5683
257 3 9.65941 6.35711 11.2595
247 4 8.1257 6.03848 11.6075
249 2 7.31131 3.86153 12.1571
191 3 9.06194 6.06937 17.4276
292 2 6.16431 1.65967 9.21167
162 2 11.4396 4.94716 10.0365
299 2 8.23674 0.46668 15.3149
300 2 6.32935 0.316305 16.125
13 4 7.75604 7.92554 1.72289
14 4 7.47909 7.81596 7.39197
15 4 6.76242 10.5784 6.12062
285 2 6.4011 12.4365 2.71089
45 1 4.86952 7.41506 4.90105
278 2 4.4113 12.2205 1.29078
34 2 4.23877 8.07444 4.23949
38 2 4.55394 9.59153 6.16
39 2 5.06443 10.8349 4.64412
40 2 3.87633 11.4566 6.30271
207 1 7.29207 12.0035 2.0863
47 1 4.68384 10.7216 5.87925
63 3 6.42102 7.40184 2.41304
64 3 8.92408 6.86887 1.58711
65 3 8.27575 9.31758 2.61263
32 2 5.52106 8.06622 5.57847
67 3 8.98308 7.30483 7.03864
68 3 7.40716 10.8028 4.7182
69 3 6.99883 9.02767 6.61738
70 3 6.96368 11.8333 7.20666
172 2 3.61877 9.93368 1.86292
173 2 4.50304 9.38614 3.51348
174 2 2.68871 10.0846 3.59403
178 1 3.48478 9.41287 2.93841
201 4 8.2454 10.7299 3.35465
161 2 3.70058 7.57689 2.19195
222 4 1.14877 10.9442 5.95352
223 2 2.7488 10.3827 5.59057
229 2 1.17889 12.3255 4.10696
233 3 1.11613 11.8091 7.4986
267 2 3.65459 10.2497 7.52548
205 2 7.02291 11.4277 1.15867
66 3 7.59545 8.899 0.102348
21 2 6.25722 6.64288 7.07772
18 2 4.81398 12.6434 5.4239
9 4 6.02462 6.47035 3.63896
209 2 9.18519 9.31238 0.198515
33 2 4.31966 6.49423 5.30803
101 4 3.18523 7.43417 12.6372
112 2 4.07273 8.74441 13.406
113 2 5.74152 7.201 14.4987
246 1 5.53566 12.887 14.5321
123 2 4.52867 7.42366 10.7905
130 1 3.38025 7.30216 10.731
304 2 6.22367 12.0342 14.3984
235 2 0.553985 11.0005 16.646
227 2 1.47625 11.3068 11.2371
248 2 7.02315 7.42474 11.034
125 2 1.68183 8.6704 17.0801
254 2 6.73882 8.13223 13.3043
256 1 6.76927 7.14847 12.7915
258 4 5.28296 10.13 16.2271
259 2 6.06963 11.6651 15.9818
260 2 5.33732 9.29174 14.4794
261 2 3.23353 8.78276 15.4732
262 2 3.30338 10.4575 14.2707
240 4 4.82627 12.5908 12.546
264 1 3.8109 9.69443 15.0699
265 4 4.23192 10.8817 9.05548
266 4 6.31117 10.2166 10.8594
268 2 2.74553 10.8884 9.95752
269 2 6.31853 8.8398 11.8845
271 3 7.84831 10.4714 10.3485
272 3 5.2603 9.87632 9.7428
273 3 5.75678 11.4508 11.7842
281 2 8.73041 8.06857 15.8532
284 1 9.62752 7.72216 15.2114
231 1 0.795976 11.0767 10.2294
106 2 0.732048 12.0798 13.0456
221 4 0.746468 12.5174 8.88308
305 2 2.71037 11.8773 13.9884
306 2 2.83148 10.6617 12.5781
263 2 3.67225 10.965 16.3966
308 1 2.53999 11.6699 12.8938
20 2 7.28635 8.06284 9.08743
282 2 9.37127 7.49297 14.0971
307 2 2.97366 12.5734 12.2137
121 2 2.88837 8.24578 10.2436
244 2 4.6753 12.639 15.2754
302 2 7.05478 12.8596 10.3569
119 2 1.37985 9.18051 13.5706
96 4 -0.61993 12.8855 13.8652
270 3 4.76133 12.3139 8.75173
ITEM: TIMESTEP
300
ITEM: NUMBER OF ATOMS
310
ITEM: BOX BOUNDS xy xz yz pp pp pp
-8.9013890000000000e+00 1.5411400000000000e+01 -7.0752889999999997e+00
0.0000000000000000e+00 1.3079499999999999e+01 -1.8261000000000001e+00
0.0000000000000000e+00 1.7503399999999999e+01 3.3839999999999998e-01
ITEM: ATOMS id type x y z
168 2 2.23465 4.98959 7.42747
3 4 3.23165 1.91996 3.11131
4 4 4.49836 4.50392 1.98377
22 2 5.75461 1.81486 3.13013
294 2 5.47792 0.243836 7.88637
24 2 4.90105 2.31115 4.74357
25 2 1.4308 0.811097 4.79728
26 2 1.32732 2.8008 4.67768
27 2 2.98353 1.94461 5.38755
41 1 4.95011 1.51796 3.89291
42 1 1.98581 1.80929 4.6755
48 3 2.77581 0.643292 1.92266
49 3 3.14422 3.35627 2.52085
51 3 3.86258 5.6417 1.00191
71 4 -1.14393 2.15855 3.09287
72 2 0.440722 1.52642 3.57659
176 1 1.57025 5.88113 7.90846
74 2 0.272969 3.86117 2.63193
75 2 -1.36644 4.39229 3.78319
76 1 -0.970654 3.99326 2.79146
310 3 6.72032 1.30215 0.834981
23 2 5.09424 0.442478 4.30841
143 2 0.0944675 6.05213 0.210466
150 4 0.047245 4.76735 7.89694
159 2 0.134809 5.23564 4.01576
163 2 0.665659 3.18202 5.89196
164 2 -0.805704 2.56926 6.99531
165 2 0.94594 2.35075 7.65636
175 1 0.256233 2.9873 6.9849
179 3 -2.90303 5.39039 5.21071
180 3 -1.01168 5.48859 7.01255
195 2 -1.09796 6.13538 1.99441
287 2 1.0035 1.68211 0.0837353