ITEM: TIMESTEP
0
ITEM: NUMBER OF ATOMS
310
ITEM: BOX BOUNDS xy xz yz pp pp pp
-9.0288000000000004e+00 1.5411400000000000e+01 -7.2027000000000001e+00
0.0000000000000000e+00 1.3079499999999999e+01 -1.8261000000000001e+00
0.0000000000000000e+00 1.7678433999999999e+01 3.3839999999999998e-01
ITEM: ATOMS id type x y z
168 2 2.22282 4.77324 7.95861
3 4 3.10688 2.01904 3.30323
4 4 4.19915 4.50134 1.94154
22 2 5.58164 2.2902 3.36234
294 2 5.7088 0.599515 7.85876
24 2 4.78043 1.82648 5.01197
25 2 1.22104 0.909363 4.81311
26 2 1.26981 2.87085 5.083
27 2 2.83389 1.75396 5.56347
41 1 4.88385 1.61943 3.89029
42 1 1.86516 1.85437 4.80781
48 3 2.73448 0.682972 1.87174
49 3 3.04067 3.51255 2.71957
51 3 3.79543 5.78872 0.941113
71 4 -1.32617 2.52137 3.22256
72 2 0.376506 2.28737 3.58607
176 1 1.64602 5.81423 8.02596
74 2 -0.342902 5.00655 2.28083
75 2 -1.6 4.82622 3.71127
76 1 -1.1361 4.3763 2.78231
310 3 6.86238 1.24358 0.914825
23 2 5.09392 0.545171 3.73824
160 2 1.37251 6.40917 6.17698
150 4 -0.0239394 4.77554 8.06778
159 2 0.00453676 5.06376 4.28641
163 2 0.34892 3.34592 6.045
164 2 -0.933722 2.54595 7.20233
165 2 0.867508 2.48604 7.657
175 1 0.0931332 3.12183 7.1382
179 3 -2.99695 5.52471 5.12679
180 3 -1.09197 5.51841 7.13821
195 2 -1.27952 6.1069 1.88144
287 2 1.16316 1.58762 0.311932
50 3 5.28462 3.49609 1.12007
280 2 2.19654 0.257162 6.00192
152 4 -2.07416 6.46951 6.10133
293 1 6.14153 0.971233 8.79988
73 2 -2.16565 4.10175 1.90171
1 4 2.90041 0.0328468 0.421037
132 3 1.89979 1.42164 8.77912
286 2 0.241437 0.120717 2.40386
94 4 0.436961 3.11898 11.8332
95 4 2.74501 2.57879 10.0045
97 4 4.86272 2.1757 11.994
291 2 5.41616 1.12672 9.60048
103 2 -0.751097 1.9385 11.3724
104 2 -0.324898 4.58242 12.2535
105 2 1.17393 2.66642 13.3168
108 2 1.17147 5.94762 15.9104
111 2 2.63594 3.63188 14.8755
289 2 0.445833 1.57955 16.2245
218 2 4.01573 2.64547 16.2523
301 2 0.148137 1.27215 9.20938
133 3 1.50968 3.28872 10.706
134 3 3.63102 1.46855 11.1456
290 1 -0.288392 1.16616 17.09
136 3 3.8498 3.74669 9.36107
142 4 -2.19018 5.72359 16.5242
135 3 5.81508 1.14295 12.793
144 2 -1.06572 3.91988 16.9146
43 1 -0.968352 1.20251 9.5419
146 2 -1.81174 3.96754 14.8164
147 2 -0.13174 4.78175 15.0928
148 1 -1.13965 4.54249 15.5545
149 3 -3.7168 5.50204 16.3163
156 2 -0.685199 4.37699 9.56109
28 2 -1.48226 2.14769 9.79878
145 2 -1.36718 6.34813 15.0259
137 3 4.39323 3.26737 13.0194
217 2 2.44466 1.87174 15.4925
275 2 -2.12049 1.92936 16.892
219 2 2.26054 3.17764 16.7663
220 1 2.89007 2.3558 16.4464
276 2 0.834772 0.291218 13.824
16 2 2.78924 1.00155 17.5366
98 4 2.39969 6.56404 17.0922
166 2 1.33089 6.16684 9.17545
162 2 -3.66899 5.23347 10.0204
302 2 -1.09837 0.424911 10.36
83 2 -4.16197 11.2675 6.4594
87 1 -4.94271 12.0787 6.81141
177 1 -3.02251 9.88734 8.04783
153 4 -3.96269 8.22692 8.10389
154 4 0.466793 6.65715 4.69766
155 4 1.94252 8.17666 2.30732
197 2 -1.98268 6.99212 0.19027
232 1 0.38842 11.8059 4.78655
196 2 -0.45677 7.82449 1.20065
279 2 -6.04659 11.6448 6.87028
171 2 -1.95189 9.52468 8.1405
182 3 -3.08483 7.50178 7.03438
183 3 -0.86926 7.38876 5.11564
184 3 1.28735 7.38117 3.56194
185 3 1.10919 8.76701 1.03951
193 4 -2.98554 8.00192 1.99229
194 2 -1.4003 8.7743 2.3707
170 2 -3.16883 10.5202 7.05154
198 1 -1.42508 7.2022 1.23797
199 3 -3.46502 6.90016 2.95049
200 3 -3.87862 8.85891 1.00235
202 2 -4.95752 12.1035 2.97011
203 2 -4.91468 10.179 3.45876
204 2 -5.26143 11.5113 4.81424
143 2 0.0947852 6.41184 0.0480087
206 1 -5.38137 11.2237 3.68344
224 2 0.371477 9.4261 6.66799
212 2 -0.492327 12.5547 3.21112
80 2 -3.40448 12.2942 8.02886
167 2 2.30572 6.64097 7.54245
228 2 -0.574218 11.0781 4.82561
77 4 -5.00898 12.6345 8.67083
214 3 0.742005 11.5721 0.872974
309 3 -4.46531 11.2173 0.0636374
158 2 -5.49042 8.69197 7.46248
126 2 0.0433636 7.8954 16.5898
78 4 -6.31599 10.5398 10.7062
79 4 -5.76994 11.4827 13.6805
277 2 -1.92466 11.5239 14.0097
81 2 -6.80205 10.7763 14.8582
119 2 1.31398 8.78892 13.3902
84 2 -3.59651 11.6246 12.8393
85 2 -4.06538 10.2184 14.3869
169 2 -3.38367 10.3919 8.99253
88 1 -3.87566 11.3714 13.97
89 3 -5.62544 11.5232 9.61733
90 3 -6.01372 10.9727 12.1841
226 2 -0.412043 11.5187 10.5876
225 2 0.914595 10.3103 9.88202
124 2 1.21962 7.83332 15.1267
237 2 -1.77754 9.84146 15.5811
82 2 -5.71674 8.97453 10.447
129 1 1.23238 7.70589 13.041
131 1 1.15613 7.81037 16.345
238 2 -2.95889 10.7682 16.7193
157 2 -3.33896 6.8974 12.0955
86 2 -3.89706 12.2115 14.7622
118 2 0.968001 7.6751 11.926
120 2 0.612305 7.0036 13.6737
283 2 -5.05605 8.23131 16.0442
181 3 -4.00394 7.82921 9.60543
236 2 -2.64862 8.99653 17.134
239 1 -2.23919 9.9362 16.6352
210 2 -6.23704 9.498 16.0346
151 4 -4.2648 6.69817 10.7232
234 4 -0.75525 10.4118 17.6492
208 4 -6.56482 9.97465 17.6078
288 2 -8.18195 13.0305 16.7827
2 4 11.2826 5.75848 3.84618
211 4 7.50395 0.0887239 1.68853
5 4 11.0419 1.13081 0.3525
9 4 6.0776 6.3509 3.56225
7 4 12.128 1.65387 5.73511
8 4 10.0665 3.27565 2.33163
110 2 4.19737 5.73754 7.15403
10 4 9.16284 5.61116 0.517322
11 4 10.0153 3.50782 7.14406
12 4 8.79768 6.05855 5.61888
46 1 11.3412 4.1518 8.37474
191 3 10.8438 5.62712 0.10487
19 2 8.89723 2.51382 8.11282
29 2 9.44415 1.53034 4.04177
30 2 7.8386 2.21102 3.04366
31 2 8.88056 3.31254 4.34311
115 2 6.42617 5.1372 6.23926
274 2 13.9441 1.31029 1.95608
44 1 8.88987 2.41489 3.53958
117 2 6.63441 4.25836 8.42144
128 1 5.64044 4.70781 7.04148
213 2 8.8039 0.753336 2.41927
53 3 13.1721 2.16035 4.42152
54 3 12.9397 1.54893 7.16028
55 3 10.7591 1.98075 1.65372
56 3 10.9429 4.36507 3.12887
57 3 5.26366 5.02728 3.03346
58 3 8.79475 4.18578 1.10543
59 3 10.8145 2.53256 6.06252
215 4 6.35934 2.59709 0.350783
61 3 7.38332 5.87119 4.93809
62 3 9.22972 4.6995 6.44661
292 2 6.7813 2.00519 8.56452
99 4 4.81062 4.84533 8.76078
6 4 13.2784 0.276 8.10508
230 2 7.46718 0.134142 5.24023
35 2 11.2563 5.2304 8.27336
116 2 5.30723 3.71326 6.70401
33 2 4.04064 6.40561 4.83633
60 3 9.96171 6.39443 4.46238
36 2 12.3854 3.75157 8.17685
216 2 7.77927 3.54616 0.081613
17 2 7.89747 1.47713 16.9296
295 2 10.1494 1.62736 9.24605
37 2 10.7487 3.64255 9.3672
100 4 3.96124 4.35905 14.0425
91 4 11.6505 2.18588 16.3244
92 2 11.5037 1.62312 14.6833
93 2 11.5979 3.87547 16.1412
296 2 9.15213 0.811217 10.7332
251 2 7.02895 4.61514 10.2106
102 4 5.28628 6.18789 15.8164
52 3 10.4723 1.74306 17.2004
107 2 5.98927 2.9093 10.8711
141 3 3.84645 6.559 16.5187
114 2 6.88817 2.56146 15.4351
127 1 7.01635 0.751 15.2752
297 2 8.52233 2.52132 9.96206
138 3 3.44241 5.74462 13.4415
139 3 5.24855 4.57356 15.3373
140 3 6.46433 6.3752 16.8455
186 4 9.75542 5.86919 16.2982
187 4 8.16144 3.54258 14.476
188 2 8.54789 1.88575 14.7313
189 2 8.50487 3.14951 12.8341
190 2 6.50629 3.99501 14.2192
303 2 13.1905 0.971673 15.1151
192 3 9.03428 4.70018 15.283
122 2 3.53511 5.97867 10.728
255 1 7.53463 4.09962 11.3517
298 1 9.10486 1.48104 9.73624
241 2 12.4161 1.93133 12.73
242 2 10.9992 1.49713 11.4859
243 2 12.929 1.27382 10.9161
252 2 7.94145 6.24732 13.5217
245 1 12.077 1.34672 11.8126
257 3 9.66517 6.36235 11.1629
247 4 8.0852 6.0017 11.5763
249 2 6.76751 4.19295 12.1979
250 2 7.90373 2.98113 11.1528
253 2 5.79242 6.53388 12.9551
109 2 5.00923 6.28974 9.78075
300 2 6.23451 0.310745 16.0294
13 4 7.79964 7.94443 1.74169
14 4 7.29522 7.85138 7.34187
15 4 6.56662 10.6182 6.21711
285 2 6.56222 12.4873 2.73984
21 2 6.21667 6.60042 7.1447
278 2 3.85471 12.2742 0.778141
34 2 4.25288 8.05457 4.03783
38 2 4.20193 9.87863 6.08392
39 2 4.88663 11.1502 4.66095
40 2 4.02745 11.7558 6.43708
207 1 7.46436 12.2259 2.19181
47 1 4.58001 10.9417 5.85036
63 3 6.57346 7.27455 2.35238
64 3 8.98924 6.95574 1.48617
65 3 8.22178 9.3624 2.57067
66 3 7.38825 8.9245 0.0285212
67 3 8.81993 7.35522 7.02001
68 3 7.41149 10.8355 4.77436
69 3 6.60299 9.0859 6.65452
70 3 6.95192 11.7954 7.22591
172 2 2.55758 10.3897 2.51001
173 2 4.23834 9.40205 2.63677
174 2 3.13626 9.41684 4.09351
178 1 3.19602 9.43814 3.00118
201 4 8.23824 10.7706 3.35165
161 2 3.6025 7.80601 1.99566
222 4 1.07027 10.9463 6.31852
223 2 2.63509 10.3925 6.0306
229 2 1.38383 11.5588 4.0967
233 3 1.01327 11.9598 7.74336
267 2 3.5951 10.434 7.56672
205 2 7.37592 11.8261 1.1139
32 2 5.21902 7.72405 5.57727
45 1 4.79437 7.26529 4.65674
18 2 4.52259 12.8299 5.23773
101 4 3.04891 7.16395 12.7915
112 2 3.82245 8.47409 13.7276
113 2 5.59897 7.31375 14.5326
246 1 5.4638 12.7523 14.8088
123 2 4.63309 7.5901 11.1253
130 1 3.61033 7.1625 10.8671
304 2 6.27644 11.9195 14.7377
235 2 0.620825 10.5984 16.6641
227 2 1.3878 11.4213 11.4052
248 2 6.88382 7.29146 11.0578
125 2 1.79295 8.73761 16.8399
254 2 6.79841 8.04035 13.4912
256 1 6.79009 7.09622 12.9149
258 4 5.07158 10.1388 16.5277
259 2 5.83222 11.6666 16.4102
260 2 5.24463 9.36216 14.8203
261 2 3.06981 8.67918 15.3892
262 2 3.15449 10.4015 14.4093
240 4 4.72309 12.4036 12.8372
264 1 3.599 9.6557 15.265
265 4 4.16037 11.0656 9.07487
266 4 6.11823 10.1816 11.009
268 2 2.6163 11.2397 9.94966
269 2 6.36476 8.6827 11.8942
271 3 7.53531 10.434 10.4255
272 3 5.01726 9.90997 9.6787
273 3 5.45921 11.2526 12.0306
281 2 8.45785 7.84423 15.969
284 1 9.54443 7.56748 15.6239
231 1 0.735692 11.2801 10.4235
106 2 0.759024 12.0172 12.9953
221 4 0.608558 12.8136 9.05894
305 2 2.81925 11.92 14.1464
306 2 2.67392 10.7693 12.6888
263 2 3.27536 10.6264 16.8092
308 1 2.4367 11.7837 13.1268
20 2 7.07254 7.91994 8.98219
282 2 9.62817 7.34572 14.4619
307 2 2.82302 12.5981 12.399
121 2 2.99532 7.82697 10.1762
244 2 4.50703 12.4373 15.4558
270 3 4.77939 12.5253 8.896
96 4 -0.740203 12.7967 13.7472
299 2 0.907788 12.9392 15.3479
209 2 7.16029 9.52045 17.6381
ITEM: TIMESTEP
100
ITEM: NUMBER OF ATOMS
310
ITEM: BOX BOUNDS xy xz yz pp pp pp
-9.0288000000000004e+00 1.5411400000000000e+01 -7.2027000000000001e+00
0.0000000000000000e+00 1.3079499999999999e+01 -1.8261000000000001e+00
0.0000000000000000e+00 1.7678433999999999e+01 3.3839999999999998e-01
ITEM: ATOMS id type x y z
168 2 2.15952 4.53918 7.83314
3 4 3.08585 2.09093 3.19445
4 4 4.34054 4.48743 1.96463
22 2 5.51787 2.19057 3.15706
294 2 5.96621 0.338001 7.66851
24 2 4.84346 1.92062 4.87317
25 2 1.24626 0.926966 4.65843
26 2 1.29394 2.73182 5.14117
27 2 2.86406 1.64625 5.43749
41 1 4.8094 1.56886 3.82678
42 1 1.85942 1.81441 4.73277
48 3 2.67657 0.727547 1.91871
49 3 3.05527 3.67439 2.71617
51 3 3.68539 5.63531 0.912373
71 4 -1.40272 2.54856 3.24668
72 2 0.25083 2.11865 3.61379
176 1 1.6639 5.60104 7.91646
74 2 -0.135726 4.43084 2.7046
75 2 -1.63704 4.92127 3.86263
76 1 -1.23286 4.41142 2.94829
310 3 6.73285 1.24735 1.05093
23 2 4.9165 0.469774 3.66242
215 4 6.17513 2.61099 0.306424
150 4 -0.0738591 4.86053 8.16043
159 2 -0.0737603 5.1325 4.37801
163 2 0.787563 3.41251 6.26729
164 2 -0.780916 2.59908 7.11493
165 2 0.880916 2.54208 7.9716
175 1 0.203178 3.18171 7.2931
179 3 -2.90232 5.38853 5.11338
180 3 -0.968801 5.74466 7.14866
195 2 -1.29856 6.05743 1.73018
287 2 0.966944 1.64742 0.350102
50 3 5.20189 3.47269 1.09755
280 2 2.08783 0.293558 6.01602
286 2 -0.0303698 0.290091 2.48735
293 1 6.05182 0.770709 8.75586
73 2 -2.1203 4.20248 1.92586
1 4 2.79356 0.195587 0.463967
132 3 2.12601 1.44994 8.71327
143 2 0.207012 6.36822 0.181054
167 2 2.25252 6.31517 7.32922
160 2 1.2802 6.48281 6.17179
94 4 0.529158 3.02578 11.745
95 4 2.83694 2.49589 10.0203
97 4 4.94662 2.31081 12.0511
291 2 5.2867 0.291288 9.44172
103 2 -0.220636 1.58791 11.3639
104 2 -0.558635 4.19627 12.0133
105 2 1.18554 2.64485 13.1995
108 2 1.03713 6.11083 15.8988
111 2 2.47357 3.86605 14.9576
289 2 0.304836 1.82978 16.3754
218 2 4.01762 2.81611 16.1804
301 2 0.115294 1.14365 9.292
133 3 1.55624 3.3941 10.6671
134 3 3.63289 1.69824 11.1425
290 1 -0.390439 1.24379 17.1504
136 3 3.99493 3.56941 9.18848
142 4 -2.07712 5.74375 16.534
135 3 5.82674 1.17308 12.9294
144 2 -1.04637 3.92443 16.7523
43 1 -0.945279 0.963143 9.61088
146 2 -1.71546 4.12894 14.7319
147 2 0.0490133 4.58375 15.0841
148 1 -1.01543 4.6635 15.4393
149 3 -3.66113 5.59077 16.2966
156 2 -0.692842 4.68407 9.77447
28 2 -1.40873 1.99637 9.8518
145 2 -1.09179 6.46398 15.1333
137 3 4.35509 3.39843 13.0289
217 2 2.55259 1.9319 15.3222
275 2 -2.24115 2.00424 16.7514
219 2 2.1029 3.09724 16.6246
220 1 2.84343 2.36061 16.2839
276 2 0.993169 0.424933 13.9511
16 2 2.685 1.07178 17.4105
98 4 2.27441 6.5594 17.1659
166 2 1.63057 5.89796 9.12636
162 2 -3.57663 5.05615 10.0142
288 2 -1.08193 0.461013 16.6736
100 4 3.74326 4.44853 14.0384
122 2 2.90936 6.27198 10.5989
151 4 -4.29673 6.50773 10.5919
83 2 -4.10769 11.2898 6.45183
87 1 -4.95427 12.0637 6.73353
177 1 -2.95087 9.98197 8.28978
153 4 -3.87356 8.37351 8.17917
154 4 0.303752 6.73511 4.79314
155 4 1.93692 8.05063 2.52704
197 2 -1.96108 7.09848 0.0853588
232 1 0.27261 11.9194 4.78237
196 2 -0.417816 7.76991 1.18917
279 2 -5.98794 11.4853 6.92885
171 2 -1.85624 9.79909 8.37489
182 3 -3.01375 7.42183 7.10151
183 3 -1.07552 7.53147 5.00368
184 3 1.15217 7.39749 3.66071
185 3 1.16989 8.58489 1.19284
193 4 -3.00268 7.8373 1.95339
194 2 -1.45183 8.44778 2.57794
170 2 -3.24103 10.6517 7.35636
198 1 -1.33892 7.11578 1.15818
199 3 -3.67038 6.86205 2.91262
200 3 -3.77041 8.86991 1.07364
202 2 -5.04938 12.084 2.85578
203 2 -5.03424 10.136 3.33085
204 2 -5.23246 11.5007 4.71596
309 3 -4.58937 11.2912 0.189975
206 1 -5.46914 11.2236 3.60424
224 2 0.462633 9.44173 6.42889
212 2 -0.557249 12.248 3.00654
80 2 -3.36186 12.2032 7.90522
152 4 -2.13325 6.52708 6.06926
228 2 -0.644981 11.0205 4.70808
77 4 -4.9211 12.624 8.5901
214 3 0.687452 11.4329 0.816212
158 2 -5.49475 8.52077 7.60873
208 4 -4.62728 9.72135 0.0917704
126 2 0.200058 7.74593 17.0068
78 4 -6.19931 10.6148 10.5887
79 4 -5.73001 11.5107 13.7329
277 2 -1.95071 11.4294 14.1696
81 2 -6.79298 10.6989 14.7411
119 2 1.12838 8.74244 13.8226
84 2 -3.50743 11.3548 13.1219
85 2 -4.18867 10.4358 14.896
169 2 -3.33301 10.412 9.26572
88 1 -3.88164 11.4807 14.2397
89 3 -5.53216 11.5432 9.55621
90 3 -5.96377 11.0373 12.1215
226 2 -0.492573 11.8114 10.6883
234 4 -0.894739 10.3877 17.6351
124 2 1.17192 7.90828 15.1589
237 2 -1.76615 10.0433 15.5498
82 2 -5.28839 9.10535 10.4682
129 1 1.34923 7.81205 13.1882
131 1 1.19839 7.9453 16.458
238 2 -3.07059 10.913 16.7857
157 2 -3.3435 6.74844 11.9075
86 2 -3.97399 12.5405 14.7511
118 2 1.14156 7.9523 12.0278
120 2 0.787787 6.92183 13.5874
283 2 -4.86868 8.16277 15.6895
181 3 -4.00924 7.64852 9.63687
236 2 -2.63923 8.98098 16.8646
239 1 -2.31374 10.0446 16.5957
210 2 -6.00864 9.53145 16.2347
225 2 0.631339 10.3063 10.2082
96 4 -0.795152 12.7281 13.8958
2 4 11.2385 5.75032 3.88563
36 2 12.0011 3.52626 8.37259
5 4 11.1208 1.03537 0.427319
9 4 6.13739 6.37889 3.70709
7 4 12.1921 1.64455 5.75607
8 4 10.0175 3.24998 2.27457
216 2 7.62774 3.5745 0.139517
10 4 9.29307 5.72634 0.485453
11 4 9.98964 3.28734 7.05814
12 4 8.83241 5.96265 5.66931
46 1 11.0419 4.08191 8.44688
110 2 4.1178 5.44772 6.96327
19 2 8.80911 2.39093 7.98994
29 2 9.37676 1.40269 4.10449
30 2 7.8784 2.30457 3.27974
31 2 9.08813 3.28115 4.41711
115 2 6.39682 5.07652 6.17432
274 2 13.8654 1.39514 1.95166
44 1 8.97302 2.37026 3.69127
117 2 6.65858 4.755 8.41707
128 1 5.73223 4.60707 7.01042
213 2 8.71336 0.648932 2.64364
53 3 13.1248 2.20818 4.52521
54 3 13.1739 1.6681 7.01301
55 3 10.6682 2.04587 1.5425
56 3 11.0038 4.32863 3.00414
57 3 5.30422 5.03103 3.26441
58 3 8.89591 4.07521 1.07661
59 3 10.8077 2.28248 6.13574
211 4 7.53043 0.0653751 1.70485
61 3 7.41725 5.85179 4.96772
62 3 9.31686 4.57592 6.43409
292 2 6.01386 1.90723 8.81129
99 4 4.71181 4.77894 8.61338
6 4 13.3186 0.218529 8.22954
230 2 7.21104 0.219576 5.17118
35 2 11.0995 5.20311 8.46411
116 2 5.58813 3.50472 6.83595
33 2 4.03362 6.35465 4.82544
60 3 9.97154 6.32638 4.57183
17 2 7.9285 0.896353 17.0946
295 2 10.1683 1.48708 9.00285
37 2 10.3774 3.59858 9.3315
93 2 11.6118 4.01035 16.1523
91 4 11.6207 2.31425 16.3052
92 2 11.5558 1.69355 14.7262
109 2 4.39932 6.28494 9.51359
296 2 9.48845 0.595671 10.4299
251 2 7.00933 4.71908 10.2629
102 4 5.33466 6.06844 15.8388
52 3 10.4493 1.83382 17.2152
107 2 6.03727 3.1131 10.985
141 3 3.76295 6.43733 16.4807
114 2 6.87632 2.5273 15.2573
127 1 7.10211 0.689004 15.3397
297 2 8.67904 2.24257 10.003
138 3 3.34162 5.90229 13.5188
139 3 5.13808 4.59226 15.1164
140 3 6.42199 6.0656 16.9107
186 4 9.74813 5.86844 16.1267
187 4 8.12974 3.58089 14.4098
188 2 8.53524 1.94608 14.7666
189 2 8.5388 3.60159 12.7457
190 2 6.55496 4.11976 14.1026
303 2 13.3334 0.883859 14.6836
192 3 9.0132 4.77635 15.2907
191 3 8.968 6.02683 17.6349
255 1 7.66837 4.28844 11.0866
298 1 9.25798 1.3104 9.53485
241 2 12.2547 1.92917 12.7031
242 2 11.1488 1.69059 11.0602
243 2 13.0353 1.19498 10.9998
252 2 7.93902 6.43872 13.6318
245 1 12.0385 1.32314 11.6786
257 3 9.64396 6.31065 11.1832
247 4 8.14118 6.09125 11.7549
249 2 7.00263 4.17709 12.0797
250 2 8.19729 3.30005 10.7879
253 2 5.7498 6.56094 12.9475
13 4 7.70461 8.02642 1.74901
14 4 7.42889 7.7541 7.42216
15 4 6.60524 10.5839 6.29519
285 2 6.25971 12.5365 2.38719
45 1 4.78669 7.21916 4.72332
278 2 4.29131 12.29 1.05875
34 2 4.27261 8.1204 4.10438
38 2 4.51727 9.73206 5.95445
39 2 4.93761 11.2231 4.81867
40 2 3.82522 11.6174 6.34863
207 1 7.36145 12.3079 2.06945
47 1 4.62787 10.938 5.87528
63 3 6.40221 7.53036 2.47995
64 3 8.78531 6.86776 1.57791
65 3 8.01087 9.45859 2.52692
18 2 4.59639 12.8372 5.28402
67 3 8.90388 7.47012 6.79096
68 3 7.36724 10.9132 4.77522
69 3 6.83303 9.12908 6.81778
70 3 6.94953 11.7588 7.43767
172 2 3.00429 10.08 1.95805
173 2 4.48124 9.46074 2.92256
174 2 2.75913 9.62834 3.88659
178 1 3.35518 9.37102 2.80383
201 4 8.11021 10.8917 3.31338
161 2 3.66022 7.58445 2.23883
222 4 1.08223 10.9888 6.18048
223 2 2.71553 10.5867 5.7876
229 2 1.1541 11.8989 4.05322
233 3 1.0224 11.8431 7.5694
267 2 3.85815 10.2107 7.55195
205 2 7.48021 12.0319 1.01585
32 2 5.17048 7.442 5.74518
209 2 9.1474 9.24956 0.115233
21 2 6.18456 6.5383 7.20217
270 3 4.58443 12.4439 8.83031
101 4 3.16948 7.30908 12.8675
112 2 4.18845 8.41757 13.7927
113 2 5.74324 7.30097 14.6951
246 1 5.46017 12.7305 14.6361
123 2 4.59073 7.22438 10.9851
130 1 3.41705 7.2331 10.8763
304 2 6.03373 11.7275 14.6044
235 2 0.414704 10.3842 16.5401
227 2 1.31172 11.5388 11.3946
248 2 6.93534 7.32625 11.1083
125 2 1.90232 8.80302 16.9747
254 2 6.48698 8.22708 13.4275
256 1 6.63894 7.21302 12.934
258 4 5.06078 10.1305 16.4763
259 2 5.77372 11.8015 16.2936
260 2 5.40359 9.49915 14.7549
261 2 3.25331 8.63258 15.3339
262 2 3.19097 10.3384 14.4611
240 4 4.66222 12.4647 12.669
264 1 3.71403 9.64506 15.28
265 4 4.02927 10.9496 9.04718
266 4 6.21528 10.2124 10.9392
268 2 2.44694 10.9688 9.81186
269 2 6.02654 8.76251 11.8341
271 3 7.66357 10.2947 10.3954
272 3 5.05912 9.93513 9.81361
273 3 5.64506 11.4088 11.8777
281 2 8.55768 7.98496 15.8945
284 1 9.54212 7.60668 15.4612
231 1 0.680565 11.4043 10.4532
106 2 0.688067 11.7395 13.1866
221 4 0.635981 12.7417 8.97259
305 2 2.79798 12.0735 14.0868
306 2 2.80243 10.6521 12.8898
263 2 3.25962 10.5894 16.779
308 1 2.48748 11.7378 13.1004
20 2 7.49787 7.58708 9.0584
282 2 9.46133 7.23728 14.3199
307 2 2.78781 12.5717 12.1246
121 2 2.89837 8.09966 10.4181
244 2 4.63313 12.7779 15.3284
302 2 7.12513 12.8492 10.336
300 2 -0.913446 12.9634 16.148
299 2 0.977845 13.0117 15.3221
66 3 5.84489 9.01668 17.6684
ITEM: TIMESTEP
200
ITEM: NUMBER OF ATOMS
310
ITEM: BOX BOUNDS xy xz yz pp pp pp
-9.0288000000000004e+00 1.5411400000000000e+01 -7.2027000000000001e+00
0.0000000000000000e+00 1.3079499999999999e+01 -1.8261000000000001e+00
0.0000000000000000e+00 1.7678433999999999e+01 3.3839999999999998e-01
ITEM: ATOMS id type x y z
168 2 2.28928 4.8786 7.74076
3 4 3.11532 2.01039 3.26677
4 4 4.34052 4.5105 1.96791
22 2 5.54577 2.11665 3.16902
294 2 5.83168 0.848146 7.71686
24 2 4.72859 1.95082 4.93489
25 2 1.24198 0.788007 4.7279
26 2 1.25244 2.72185 4.97657
27 2 2.82138 1.63047 5.52479
41 1 4.86611 1.53716 3.81611
42 1 1.85998 1.71513 4.758
48 3 2.64797 0.739615 1.86201
49 3 3.08109 3.66407 2.61077
51 3 3.89285 5.78633 0.997417
71 4 -1.34935 2.41088 3.26662
72 2 0.325712 2.26492 3.63871
176 1 1.67725 5.87582 7.86483
74 2 0.00583893 4.25384 2.74959
75 2 -1.5761 4.99511 3.8165
76 1 -1.11666 4.27152 3.01094
310 3 6.66446 1.06274 0.835391
23 2 5.00417 0.477738 3.81442
230 2 6.97507 0.128112 5.70983
150 4 0.0583185 4.81723 7.98629
159 2 0.0119774 5.09545 4.38165
163 2 0.680468 3.35674 6.0404
164 2 -0.758821 2.60981 7.15492
165 2 1.11097 2.61039 7.75505
175 1 0.308938 3.16159 7.0912
179 3 -3.01197 5.44755 5.14489
180 3 -1.09336 5.62205 7.17759
195 2 -1.18295 6.12317 1.99182
287 2 0.696685 1.3485 0.461866
50 3 5.31543 3.42669 1.00616
280 2 2.17169 0.187887 6.0187
110 2 3.98436 5.35611 6.8261
293 1 6.03615 0.63541 8.82666
73 2 -1.91275 4.05968 1.92874
1 4 2.75653 0.104303 0.391926
132 3 1.91722 1.41745 8.74088
143 2 0.0772134 6.30219 0.258734
94 4 0.711443 2.93606 11.6915
95 4 2.936 2.51129 9.97786
97 4 4.92097 2.2795 12.0956
151 4 -4.33025 6.45612 10.7843
103 2 0.000690912 1.43158 11.2972
104 2 -0.624563 3.9376 11.941
105 2 1.32264 2.44322 13.1388
108 2 1.05668 5.94224 16.1429
111 2 2.56478 3.7792 14.9582
289 2 0.0869535 2.25371 16.6463
218 2 4.14759 2.73258 15.924
301 2 0.125715 1.12463 9.27414
133 3 1.75788 3.49225 10.726
134 3 3.89012 1.55873 11.0115
290 1 -0.488215 1.42548 17.2355
136 3 3.9017 3.59804 9.08364
142 4 -2.09403 5.74661 16.4821
135 3 5.75305 1.24132 13.0604
144 2 -1.08094 4.02342 16.6388
43 1 -0.991896 0.978777 9.65316
146 2 -1.7641 4.33148 14.4923
147 2 -0.0342943 4.7507 14.8628
148 1 -1.07149 4.78921 15.2818
149 3 -3.86916 5.59354 16.2136
156 2 -0.550363 4.29565 9.46743
28 2 -1.48513 1.95076 9.91186
145 2 -1.14674 6.62885 15.1213
137 3 4.28384 3.46075 12.9571
217 2 2.57528 1.738 15.423
275 2 -2.37861 1.77492 16.8493
219 2 2.27145 3.24311 16.5792
220 1 3.00718 2.37976 16.2659
276 2 0.804355 0.449851 13.9715
16 2 2.49969 1.00136 17.3994
98 4 2.38638 6.55041 17.2119
166 2 1.44809 6.15145 9.07747
122 2 2.90451 6.15688 10.6895
288 2 -0.954985 0.552562 16.6595
100 4 3.83142 4.43916 14.0402
83 2 -3.74527 11.4787 6.43262
87 1 -4.73583 12.0482 6.80262
177 1 -2.88702 9.84685 8.14471
153 4 -3.95867 8.35105 8.09052
154 4 0.295418 6.77881 4.74833
155 4 1.9904 8.17579 2.44935
197 2 -1.84894 7.13727 0.220696
232 1 0.0879762 12.1278 4.8703
196 2 -0.232504 7.76678 1.28091
279 2 -5.73923 11.3302 6.98878
171 2 -1.83293 9.55869 8.16328
182 3 -3.09786 7.39615 7.12757
183 3 -1.07078 7.54884 5.16025
184 3 1.17987 7.49317 3.66803
185 3 1.22407 8.75661 1.16118
193 4 -2.93941 7.94268 2.03507
194 2 -1.54045 8.70304 2.69403
170 2 -3.14127 10.5616 7.26539
198 1 -1.26527 7.21008 1.41955
199 3 -3.49753 6.80637 2.94167
200 3 -3.76565 8.87593 1.06044
202 2 -5.26827 12.2011 3.03126
203 2 -4.97204 10.4542 3.47528
204 2 -5.20786 11.6436 4.86255
309 3 -4.63824 11.2835 0.197256
206 1 -5.51222 11.3577 3.77035
224 2 0.388752 9.40335 6.04991
212 2 -0.723451 12.2448 3.05678
80 2 -3.28035 12.3458 8.09102
160 2 1.20442 6.76122 6.18378
228 2 -0.68721 11.1096 4.61992
77 4 -4.92027 12.6279 8.64209
214 3 0.539342 11.4733 0.942861
158 2 -5.43843 8.50512 7.28023
208 4 -4.64143 9.75101 0.122138
211 4 0.149069 12.7305 1.66691
234 4 0.968108 10.2141 0.101025
167 2 2.31197 6.72183 7.33929
152 4 -2.17147 6.4989 6.16724
126 2 0.124436 7.45792 16.6548
78 4 -6.15163 10.56 10.6793
79 4 -5.69398 11.6634 13.7151
277 2 -1.93275 11.613 14.4024
81 2 -6.58377 10.8325 14.9051
291 2 -1.93962 12.7566 9.38886
84 2 -3.59436 10.9856 13.1053
85 2 -4.15309 10.7125 15.0572
169 2 -3.35106 10.2213 9.24647
88 1 -3.86211 11.4721 14.1207
89 3 -5.38849 11.4984 9.62609
90 3 -5.94503 11.0828 12.1637
226 2 -0.485559 11.131 10.3953
210 2 -6.0209 9.59085 16.2518
124 2 1.33385 8.00354 15.2801
237 2 -1.85065 10.0703 15.7384
82 2 -5.56164 8.93453 10.5408
129 1 1.398 8.1804 13.2137
131 1 1.19047 7.79108 16.4218
238 2 -3.04349 11.0194 16.8121
225 2 1.02383 10.1469 9.72409
86 2 -3.72743 12.6153 14.2971
118 2 1.13923 8.31356 12.0676
120 2 0.803171 7.35507 13.7051
283 2 -4.79491 8.16191 15.6492
181 3 -4.1051 7.4651 9.64616
236 2 -2.89889 9.22003 17.1534
239 1 -2.39543 10.1407 16.7494
157 2 -3.18385 6.74234 11.9561
2 4 11.298 5.69058 3.91876
36 2 12.0187 3.44007 8.2331
5 4 11.1304 0.910856 0.416053
6 4 13.3071 0.256208 8.22307
7 4 12.2622 1.56066 5.81459
8 4 10.0356 3.21637 2.26735
35 2 11.0175 5.03879 8.22822
10 4 9.13428 5.68266 0.614696
11 4 9.95322 3.30745 6.9637
12 4 8.82153 5.98161 5.65455
46 1 11.0026 3.87847 8.42798
215 4 6.2613 2.5455 0.112012
19 2 8.89975 2.17983 7.82976
29 2 9.59173 1.4195 3.83186
30 2 7.94919 1.88004 3.07784
31 2 8.84071 3.11992 4.2369
115 2 6.34897 5.25252 6.16712
274 2 14.1882 1.13569 2.04433
44 1 8.91124 2.23418 3.46986
117 2 6.57189 4.92999 8.53868
128 1 5.69028 4.78727 6.9984
213 2 8.8169 0.651858 2.20241
53 3 13.2271 2.02918 4.49105
54 3 13.1195 1.81845 7.19824
55 3 10.6665 2.06507 1.36807
56 3 10.8922 4.26952 3.1117
57 3 5.20958 5.17365 3.15708
58 3 8.73322 4.20569 1.21122
59 3 10.9166 2.35693 6.11793
60 3 9.95051 6.33075 4.61638
61 3 7.3486 6.00659 4.84801
62 3 9.05116 4.53727 6.33671
216 2 7.72095 3.45594 0.0360279
99 4 4.62681 4.85844 8.57151
116 2 5.63962 3.70582 6.76844
17 2 7.93917 0.588209 17.2667
162 2 11.3581 4.91676 10.1065
37 2 10.4804 3.52271 9.35598
93 2 11.429 4.01531 16.0518
91 4 11.4883 2.27531 16.1851
92 2 11.3803 1.71273 14.5816
109 2 4.17116 6.30603 9.45351
296 2 9.32543 0.567259 10.4814
251 2 6.95551 4.56055 10.3897
102 4 5.23529 6.05924 15.8916
52 3 10.4131 1.73481 17.1612
107 2 6.13259 3.02852 11.0758
141 3 3.80178 6.43859 16.4415
114 2 6.90571 2.65977 15.2689
127 1 7.16351 0.90424 15.4948
297 2 8.44576 2.19705 9.71921
138 3 3.3454 5.90662 13.4128
139 3 5.30829 4.5435 15.2511
140 3 6.35284 6.16184 17.0371
186 4 9.69573 6.02312 16.0961
187 4 8.20798 3.63558 14.3133
188 2 8.61106 1.97625 14.7758
189 2 8.7879 3.36955 12.673
190 2 6.58065 4.07935 14.1826
303 2 13.1062 1.10017 14.9625
192 3 9.00912 4.78831 15.1506
191 3 8.98863 6.07153 17.5981
255 1 7.76169 4.14357 11.1654
298 1 9.13387 1.25968 9.53448
241 2 12.2931 2.18531 12.6049
242 2 11.087 1.56672 11.2635
243 2 12.9374 1.26729 10.9204
252 2 7.70327 6.09937 13.6244
245 1 12.0917 1.43778 11.6854
257 3 9.61608 6.37988 11.3683
247 4 8.08001 6.03626 11.701
249 2 7.28469 3.87753 12.2291
250 2 8.47924 3.27523 10.6142
299 2 8.25496 0.486876 15.4035
292 2 6.43295 1.60852 9.39944
295 2 10.1384 1.41418 8.89274
253 2 5.71037 6.61532 13.0781
13 4 7.7071 7.94761 1.74514
14 4 7.44233 7.8064 7.45247
15 4 6.62554 10.5968 6.19423
285 2 6.32806 12.4085 2.73225
45 1 4.82514 7.36816 4.9242
278 2 4.30454 12.2691 1.27539
34 2 4.16692 8.07497 4.30802
38 2 4.58024 9.54594 6.29114
39 2 4.70213 10.8267 4.7552
40 2 3.93872 11.4779 6.60039
207 1 7.10605 11.9217 2.10219
47 1 4.60369 10.7036 5.95949
63 3 6.43168 7.38307 2.4536
64 3 8.88506 6.89398 1.61649
65 3 8.15826 9.27261 2.61892
18 2 4.64891 12.6541 5.53068
67 3 8.92486 7.29329 7.03747
68 3 7.26771 10.8303 4.78639
69 3 6.94078 9.03379 6.70494
70 3 6.85025 11.8341 7.29281
172 2 3.39532 10.064 2.05562
173 2 4.49513 9.24977 3.38921
174 2 2.7116 9.84538 3.81726
178 1 3.38008 9.34462 2.97219
201 4 8.12399 10.7283 3.3937
161 2 3.63576 7.56963 2.1467
222 4 1.02357 10.9828 6.03247
223 2 2.62467 10.5724 5.65177
229 2 1.03891 12.3185 4.23139
233 3 0.983517 11.8561 7.58402
267 2 3.5898 10.1878 7.61936
205 2 6.71791 11.3004 1.23065
32 2 5.47983 7.98544 5.61162
270 3 4.63713 12.3008 8.79589
209 2 9.12169 9.30394 0.154511
9 4 5.98184 6.45395 3.68696
33 2 4.24749 6.51268 5.33957
66 3 7.54166 8.93371 0.102556
21 2 6.2554 6.64461 7.12663
286 2 8.08229 12.5179 1.85793
101 4 3.14818 7.40185 12.7949
112 2 4.02766 8.67663 13.58
113 2 5.7082 7.13586 14.618
246 1 5.42006 12.8745 14.6322
123 2 4.45766 7.43978 10.9501
130 1 3.29329 7.3087 10.8868
304 2 6.13931 12.1017 14.4251
235 2 0.455859 11.0263 16.8611
227 2 1.34007 11.3179 11.2964
248 2 6.8852 7.4 11.1978
125 2 1.63456 8.6832 17.237
254 2 6.74157 8.14729 13.4487
256 1 6.68289 7.16099 12.913
258 4 5.21279 10.1241 16.3845
259 2 6.00902 11.5767 15.9916
260 2 5.27975 9.22618 14.6612
261 2 3.13447 8.82074 15.5155
262 2 3.28254 10.5068 14.3895
240 4 4.67395 12.5796 12.6681
264 1 3.76497 9.72951 15.2091
265 4 4.12693 10.8752 9.12096
266 4 6.17597 10.1939 10.9602
268 2 2.65689 10.8996 10.0457
269 2 6.20341 8.81883 12.0161
271 3 7.71421 10.4939 10.4599
272 3 5.16215 9.8859 9.82378
273 3 5.59418 11.4313 11.8992
281 2 8.63059 8.0814 15.986
284 1 9.55856 7.75325 15.3542
231 1 0.704319 11.0522 10.2786
106 2 0.577864 12.0974 13.1903
221 4 0.611731 12.5606 8.97635
305 2 2.5464 11.936 14.0952
306 2 2.7636 10.706 12.7217
263 2 3.59091 10.9262 16.5733
308 1 2.43955 11.7045 13.0014
20 2 7.29302 8.0306 9.13694
282 2 9.39789 7.52699 14.2512
307 2 2.83157 12.5344 12.265
121 2 2.79514 8.21023 10.3302
244 2 4.53612 12.5324 15.3528
119 2 1.34133 9.13165 13.7293
96 4 -0.759869 12.8852 14.0011
300 2 -0.85378 13.0288 16.2391
302 2 6.98458 12.8464 10.3993
ITEM: TIMESTEP
300
ITEM: NUMBER OF ATOMS
310
ITEM: BOX BOUNDS xy xz yz pp pp pp
-9.0288000000000004e+00 1.5411400000000000e+01 -7.2027000000000001e+00
0.0000000000000000e+00 1.3079499999999999e+01 -1.8261000000000001e+00
0.0000000000000000e+00 1.7678433999999999e+01 3.3839999999999998e-01
ITEM: ATOMS id type x y z
168 2 2.22927 4.98903 7.45396
3 4 3.21896 1.94899 3.13367
4 4 4.43955 4.53687 2.00234
22 2 5.75276 1.81859 3.00053
152 4 -2.11604 6.39702 6.11582
24 2 4.9956 2.43911 4.63465
25 2 1.50697 0.811301 4.80533
26 2 1.37903 2.75164 4.82978
27 2 2.99929 1.91033 5.46095
41 1 4.95289 1.56611 3.83051
42 1 2.04673 1.83507 4.75505
48 3 2.65732 0.658264 1.95461
49 3 3.07959 3.35877 2.50054
51 3 3.88402 5.65868 0.966361
71 4 -1.17407 2.13409 3.20533
72 2 0.444297 1.51164 3.72242
176 1 1.56877 5.87685 7.88207
74 2 0.216387 3.83174 2.80199
75 2 -1.51092 4.37086 3.88936
76 1 -1.04349 3.94878 2.85342
310 3 6.67018 1.22678 0.860047
23 2 5.13111 0.576051 4.29952
230 2 6.51868 0.275437 5.42542
150 4 0.0189265 4.782 7.95647
159 2 0.10306 5.20845 4.02431
163 2 0.571074 3.12783 5.93185
164 2 -0.843742 2.56578 7.15756
165 2 0.94178 2.41685 7.79251
175 1 0.223574 2.98005 7.08354
179 3 -3.01506 5.42922 5.26916
180 3 -1.04981 5.56661 6.97817
195 2 -1.30597 6.12193 1.90514