ITEM: TIMESTEP
0
ITEM: NUMBER OF ATOMS
310
ITEM: BOX BOUNDS xy xz yz pp pp pp
-9.0288000000000004e+00 1.5411400000000000e+01 -7.2027000000000001e+00
0.0000000000000000e+00 1.3210295000000000e+01 -1.8261000000000001e+00
0.0000000000000000e+00 1.7503399999999999e+01 3.4178399999999998e-01
ITEM: ATOMS id type x y z
168 2 2.22282 4.82097 7.87981
3 4 3.10688 2.03923 3.27052
4 4 4.19915 4.54635 1.92231
22 2 5.58164 2.3131 3.32905
294 2 5.7088 0.60551 7.78095
24 2 4.78043 1.84474 4.96235
25 2 1.22104 0.918457 4.76546
26 2 1.26981 2.89956 5.03267
27 2 2.83389 1.7715 5.50838
41 1 4.88385 1.63563 3.85177
42 1 1.86516 1.87291 4.76021
48 3 2.73448 0.689802 1.85321
49 3 3.04067 3.54768 2.69265
51 3 3.79543 5.8466 0.931795
71 4 -1.32617 2.54659 3.19065
72 2 0.376506 2.31024 3.55056
176 1 1.64602 5.87237 7.9465
74 2 -0.342902 5.05662 2.25825
75 2 -1.6 4.87449 3.67453
76 1 -1.1361 4.42006 2.75477
310 3 6.86238 1.25602 0.905767
23 2 5.09392 0.550623 3.70123
160 2 1.37251 6.47326 6.11582
150 4 -0.0239394 4.82329 7.9879
159 2 0.00453676 5.11439 4.24397
163 2 0.34892 3.37938 5.98514
164 2 -0.933722 2.57141 7.13102
165 2 0.867508 2.5109 7.58119
175 1 0.0931332 3.15305 7.06752
179 3 -2.99695 5.57996 5.07603
180 3 -1.09197 5.57359 7.06754
195 2 -1.27952 6.16797 1.86281
287 2 1.16316 1.6035 0.308843
50 3 5.28462 3.53106 1.10898
280 2 2.19654 0.259733 5.9425
152 4 -2.07416 6.53421 6.04092
293 1 6.14153 0.980945 8.71275
73 2 -2.16565 4.14277 1.88288
1 4 2.90041 0.0331753 0.416868
132 3 1.89979 1.43586 8.6922
286 2 0.241437 0.121924 2.38006
94 4 0.436961 3.15017 11.716
95 4 2.74501 2.60458 9.9054
97 4 4.86272 2.19746 11.8752
291 2 5.41616 1.13799 9.50542
103 2 -0.751097 1.95789 11.2598
104 2 -0.324898 4.62824 12.1322
105 2 1.17393 2.69309 13.1849
108 2 1.17147 6.00709 15.7528
111 2 2.63594 3.6682 14.7282
289 2 0.445833 1.59534 16.0639
218 2 4.01573 2.67193 16.0914
301 2 0.148137 1.28487 9.1182
133 3 1.50968 3.32161 10.6
134 3 3.63102 1.48324 11.0353
290 1 -0.288392 1.17782 16.9208
136 3 3.8498 3.78416 9.26839
142 4 -2.19018 5.78082 16.3606
135 3 5.81508 1.15438 12.6664
144 2 -1.06572 3.95908 16.7471
43 1 -0.968352 1.21453 9.44743
146 2 -1.81174 4.00721 14.6697
147 2 -0.13174 4.82957 14.9434
148 1 -1.13965 4.58791 15.4005
149 3 -3.7168 5.55706 16.1547
156 2 -0.685199 4.42076 9.46642
28 2 -1.48226 2.16917 9.70176
145 2 -1.36718 6.41161 14.8771
137 3 4.39323 3.30005 12.8905
217 2 2.44466 1.89046 15.3391
275 2 -2.12049 1.94866 16.7248
219 2 2.26054 3.20942 16.6003
220 1 2.89007 2.37936 16.2836
276 2 0.834772 0.29413 13.6871
16 2 2.78924 1.01156 17.363
98 4 2.39969 6.62968 16.923
166 2 1.33089 6.2285 9.0846
162 2 -3.66899 5.28581 9.92123
302 2 -1.09837 0.42916 10.2574
83 2 -4.16197 11.3802 6.39544
87 1 -4.94271 12.1995 6.74397
177 1 -3.02251 9.98621 7.96814
153 4 -3.96269 8.30919 8.02365
154 4 0.466793 6.72372 4.65115
155 4 1.94252 8.25842 2.28448
197 2 -1.98268 7.06204 0.188386
232 1 0.38842 11.9239 4.73916
196 2 -0.45677 7.90274 1.18876
279 2 -6.04659 11.7612 6.80226
171 2 -1.95189 9.61993 8.0599
182 3 -3.08483 7.5768 6.96473
183 3 -0.86926 7.46265 5.06499
184 3 1.28735 7.45498 3.52667
185 3 1.10919 8.85468 1.02922
193 4 -2.98554 8.08194 1.97256
194 2 -1.4003 8.86204 2.34723
170 2 -3.16883 10.6254 6.98172
198 1 -1.42508 7.27422 1.22571
199 3 -3.46502 6.96916 2.92128
200 3 -3.87862 8.9475 0.992429
202 2 -4.95752 12.2246 2.9407
203 2 -4.91468 10.2807 3.42451
204 2 -5.26143 11.6264 4.76657
143 2 0.0947852 6.47596 0.0475334
206 1 -5.38137 11.336 3.64697
224 2 0.371477 9.52036 6.60197
212 2 -0.492327 12.6803 3.17932
80 2 -3.40448 12.4171 7.94937
167 2 2.30572 6.70738 7.46777
228 2 -0.574218 11.1889 4.77783
77 4 -5.00898 12.7608 8.58498
214 3 0.742005 11.6878 0.86433
309 3 -4.46531 11.3295 0.0630074
158 2 -5.49042 8.77889 7.38859
126 2 0.0433636 7.97435 16.4255
78 4 -6.31599 10.6452 10.6002
79 4 -5.76994 11.5975 13.545
277 2 -1.92466 11.6391 13.871
81 2 -6.80205 10.8841 14.7111
119 2 1.31398 8.87681 13.2576
84 2 -3.59651 11.7408 12.7121
85 2 -4.06538 10.3206 14.2445
169 2 -3.38367 10.4958 8.90349
88 1 -3.87566 11.4851 13.8317
89 3 -5.62544 11.6384 9.52211
90 3 -6.01372 11.0824 12.0634
226 2 -0.412043 11.6339 10.4827
225 2 0.914595 10.4134 9.78418
124 2 1.21962 7.91166 14.9769
237 2 -1.77754 9.93987 15.4268
82 2 -5.71674 9.06427 10.3436
129 1 1.23238 7.78294 12.9119
131 1 1.15613 7.88848 16.1832
238 2 -2.95889 10.8759 16.5538
157 2 -3.33896 6.96637 11.9757
86 2 -3.89706 12.3336 14.6161
118 2 0.968001 7.75185 11.8079
120 2 0.612305 7.07364 13.5383
283 2 -5.05605 8.31362 15.8853
181 3 -4.00394 7.9075 9.51032
236 2 -2.64862 9.0865 16.9643
239 1 -2.23919 10.0356 16.4705
210 2 -6.23704 9.59298 15.8758
151 4 -4.2648 6.76515 10.6171
234 4 -0.75525 10.5159 17.4745
208 4 -6.56482 10.0744 17.4335
288 2 -8.18195 13.1608 16.6165
2 4 11.2826 5.81606 3.8081
211 4 7.50395 0.0896112 1.67181
5 4 11.0419 1.14212 0.34901
9 4 6.0776 6.41441 3.52698
7 4 12.128 1.67041 5.67833
8 4 10.0665 3.3084 2.30855
110 2 4.19737 5.79491 7.0832
10 4 9.16284 5.66727 0.5122
11 4 10.0153 3.5429 7.07333
12 4 8.79768 6.11914 5.56325
46 1 11.3412 4.19331 8.29182
191 3 10.8438 5.68339 0.103831
19 2 8.89723 2.53896 8.03249
29 2 9.44415 1.54565 4.00175
30 2 7.8386 2.23313 3.01352
31 2 8.88056 3.34567 4.30011
115 2 6.42617 5.18857 6.17748
274 2 13.9441 1.32339 1.93671
44 1 8.88987 2.43904 3.50453
117 2 6.63441 4.30095 8.33806
128 1 5.64044 4.75488 6.97176
213 2 8.8039 0.76087 2.39532
53 3 13.1721 2.18195 4.37774
54 3 12.9397 1.56442 7.08939
55 3 10.7591 2.00055 1.63734
56 3 10.9429 4.40872 3.09789
57 3 5.26366 5.07756 3.00342
58 3 8.79475 4.22764 1.09449
59 3 10.8145 2.55788 6.00249
215 4 6.35934 2.62306 0.34731
61 3 7.38332 5.92991 4.8892
62 3 9.22972 4.74649 6.38278
292 2 6.7813 2.02524 8.47972
99 4 4.81062 4.89378 8.67404
6 4 13.2784 0.27876 8.02483
230 2 7.46718 0.135484 5.18835
35 2 11.2563 5.28271 8.19145
116 2 5.30723 3.7504 6.63764
33 2 4.04064 6.46966 4.78845
60 3 9.96171 6.45837 4.4182
36 2 12.3854 3.78908 8.09589
216 2 7.77927 3.58162 0.080805
17 2 7.89747 1.4919 16.762
295 2 10.1494 1.64364 9.15451
37 2 10.7487 3.67898 9.27446
100 4 3.96124 4.40264 13.9034
91 4 11.6505 2.20774 16.1627
92 2 11.5037 1.63936 14.5379
93 2 11.5979 3.91423 15.9814
296 2 9.15213 0.819329 10.6269
251 2 7.02895 4.66129 10.1095
102 4 5.28628 6.24977 15.6598
52 3 10.4723 1.76049 17.0301
107 2 5.98927 2.9384 10.7635
141 3 3.84645 6.62459 16.3551
114 2 6.88817 2.58708 15.2823
127 1 7.01635 0.75851 15.1239
297 2 8.52233 2.54653 9.86342
138 3 3.44241 5.80206 13.3084
139 3 5.24855 4.6193 15.1855
140 3 6.46433 6.43895 16.6787
186 4 9.75542 5.92788 16.1368
187 4 8.16144 3.578 14.3327
188 2 8.54789 1.9046 14.5854
189 2 8.50487 3.18101 12.707
190 2 6.50629 4.03496 14.0784
303 2 13.1905 0.98139 14.9655
192 3 9.03428 4.74718 15.1317
122 2 3.53511 6.03845 10.6218
255 1 7.53463 4.14062 11.2393
298 1 9.10486 1.49585 9.63984
241 2 12.4161 1.95064 12.6039
242 2 10.9992 1.5121 11.3722
243 2 12.929 1.28656 10.8081
252 2 7.94145 6.3098 13.3878
245 1 12.077 1.36019 11.6957
257 3 9.66517 6.42598 11.0523
247 4 8.0852 6.06172 11.4617
249 2 6.76751 4.23488 12.0772
250 2 7.90373 3.01094 11.0424
253 2 5.79242 6.59921 12.8268
109 2 5.00923 6.35263 9.68391
300 2 6.23451 0.313853 15.8707
13 4 7.79964 8.02388 1.72444
14 4 7.29522 7.92989 7.26918
15 4 6.56662 10.7244 6.15556
285 2 6.56222 12.6121 2.71271
21 2 6.21667 6.66642 7.07396
278 2 3.85471 12.397 0.770436
34 2 4.25288 8.13511 3.99785
38 2 4.20193 9.97742 6.02368
39 2 4.88663 11.2617 4.6148
40 2 4.02745 11.8734 6.37334
207 1 7.46436 12.3482 2.17011
47 1 4.58001 11.0511 5.79244
63 3 6.57346 7.3473 2.32909
64 3 8.98924 7.02529 1.47145
65 3 8.22178 9.45602 2.54522
66 3 7.38825 9.01374 0.0282388
67 3 8.81993 7.42877 6.9505
68 3 7.41149 10.9439 4.72709
69 3 6.60299 9.17676 6.58864
70 3 6.95192 11.9134 7.15436
172 2 2.55758 10.4936 2.48516
173 2 4.23834 9.49607 2.61066
174 2 3.13626 9.51101 4.05298
178 1 3.19602 9.53252 2.97146
201 4 8.23824 10.8783 3.31846
161 2 3.6025 7.88407 1.9759
222 4 1.07027 11.0557 6.25596
223 2 2.63509 10.4964 5.9709
229 2 1.38383 11.6744 4.05614
233 3 1.01327 12.0794 7.6667
267 2 3.5951 10.5383 7.4918
205 2 7.37592 11.9444 1.10287
32 2 5.21902 7.80129 5.52205
45 1 4.79437 7.33794 4.61064
18 2 4.52259 12.9582 5.18587
101 4 3.04891 7.23559 12.6649
112 2 3.82245 8.55883 13.5917
113 2 5.59897 7.38689 14.3887
246 1 5.4638 12.8798 14.6622
123 2 4.63309 7.666 11.0151
130 1 3.61033 7.23412 10.7595
304 2 6.27644 12.0387 14.5918
235 2 0.620825 10.7044 16.4991
227 2 1.3878 11.5355 11.2923
248 2 6.88382 7.36437 10.9483
125 2 1.79295 8.82498 16.6731
254 2 6.79841 8.12075 13.3576
256 1 6.79009 7.16719 12.787
258 4 5.07158 10.2402 16.3641
259 2 5.83222 11.7833 16.2477
260 2 5.24463 9.45579 14.6735
261 2 3.06981 8.76597 15.2368
262 2 3.15449 10.5055 14.2666
240 4 4.72309 12.5277 12.7101
264 1 3.599 9.75226 15.1138
265 4 4.16037 11.1762 8.98502
266 4 6.11823 10.2835 10.9
268 2 2.6163 11.3521 9.85115
269 2 6.36476 8.76953 11.7764
271 3 7.53531 10.5383 10.3222
272 3 5.01726 10.0091 9.58287
273 3 5.45921 11.3651 11.9115
281 2 8.45785 7.92267 15.8109
284 1 9.54443 7.64316 15.4692
231 1 0.735692 11.3929 10.3203
106 2 0.759024 12.1374 12.8667
221 4 0.608558 12.9418 8.96925
305 2 2.81925 12.0392 14.0063
306 2 2.67392 10.877 12.5631
263 2 3.27536 10.7327 16.6427
308 1 2.4367 11.9015 12.9968
20 2 7.07254 7.99914 8.89325
282 2 9.62817 7.41918 14.3187
307 2 2.82302 12.7241 12.2763
121 2 2.99532 7.90524 10.0754
244 2 4.50703 12.5617 15.3028
270 3 4.77939 12.6506 8.80792
96 4 -0.740203 12.9246 13.6111
299 2 0.907788 13.0686 15.196
209 2 7.16029 9.61565 17.4635
ITEM: TIMESTEP
100
ITEM: NUMBER OF ATOMS
310
ITEM: BOX BOUNDS xy xz yz pp pp pp
-9.0288000000000004e+00 1.5411400000000000e+01 -7.2027000000000001e+00
0.0000000000000000e+00 1.3210295000000000e+01 -1.8261000000000001e+00
0.0000000000000000e+00 1.7503399999999999e+01 3.4178399999999998e-01
ITEM: ATOMS id type x y z
168 2 2.15709 4.58429 7.74794
3 4 3.08207 2.10744 3.16487
4 4 4.34361 4.51562 1.94821
22 2 5.50476 2.2579 3.161
294 2 5.9332 0.377722 7.5564
24 2 4.82263 1.89971 4.85858
25 2 1.22685 0.966041 4.61193
26 2 1.28954 2.77429 5.09277
27 2 2.854 1.687 5.3872
41 1 4.80514 1.60859 3.79724
42 1 1.85531 1.85113 4.69987
48 3 2.68582 0.733788 1.87706
49 3 3.05611 3.68584 2.70158
51 3 3.67047 5.65632 0.903142
71 4 -1.39826 2.58006 3.196
72 2 0.251441 2.30549 3.57658
176 1 1.65896 5.62569 7.8595
74 2 -0.142088 4.54125 2.60075
75 2 -1.6161 4.99513 3.7728
76 1 -1.23509 4.44844 2.90585
310 3 6.74261 1.27385 1.02169
23 2 4.92118 0.499537 3.56644
215 4 6.17988 2.62964 0.297932
150 4 -0.0870694 4.90217 8.10102
159 2 -0.0529116 5.17866 4.29379
163 2 0.788025 3.44977 6.20713
164 2 -0.788976 2.61558 7.04911
165 2 0.857023 2.58043 7.92619
175 1 0.190686 3.21582 7.2406
179 3 -2.88918 5.44696 5.0705
180 3 -0.9505 5.80409 7.08302
195 2 -1.31845 6.12438 1.67449
287 2 1.0038 1.68617 0.31479
50 3 5.22202 3.50292 1.09365
280 2 2.08879 0.299916 5.94534
286 2 -0.096899 0.421423 2.27491
293 1 6.05574 0.752803 8.64561
73 2 -2.12519 4.21806 1.87975
1 4 2.79743 0.173016 0.432152
132 3 2.11341 1.45177 8.61299
143 2 0.221097 6.42466 0.166418
167 2 2.23201 6.3611 7.28816
160 2 1.25723 6.54836 6.14752
94 4 0.525965 3.05346 11.6478
95 4 2.82764 2.51845 9.91272
97 4 4.96035 2.33958 11.9168
291 2 5.27969 0.294163 9.34198
103 2 -0.229586 1.60857 11.2921
104 2 -0.552329 4.22737 11.917
105 2 1.19034 2.67775 13.1039
108 2 1.04793 6.17085 15.726
111 2 2.47476 3.91269 14.8162
289 2 0.285712 1.75467 16.1453
218 2 4.03427 2.8498 16.0165
301 2 0.169517 1.12639 9.2191
133 3 1.54951 3.41331 10.5657
134 3 3.63132 1.73849 11.0282
290 1 -0.392917 1.22805 16.9693
136 3 3.98755 3.59612 9.07508
142 4 -2.08152 5.77946 16.3651
135 3 5.82315 1.19452 12.7929
144 2 -1.03108 3.92602 16.5992
43 1 -0.915668 0.961307 9.53087
146 2 -1.71624 4.18425 14.5622
147 2 0.0581791 4.64968 14.9143
148 1 -1.01294 4.70719 15.2884
149 3 -3.67122 5.62829 16.1396
156 2 -0.742469 4.72896 9.69893
28 2 -1.40076 1.98318 9.75729
145 2 -1.11457 6.49876 14.9848
137 3 4.35955 3.43686 12.8928
217 2 2.52636 1.97709 15.1223
275 2 -2.22502 1.99058 16.5779
219 2 2.09688 3.09961 16.4536
220 1 2.83224 2.37531 16.0992
276 2 0.9684 0.413295 13.8246
16 2 2.68977 1.05064 17.1784
98 4 2.26217 6.62207 17.0088
166 2 1.65684 5.89735 9.06946
162 2 -3.58322 5.15715 9.90461
288 2 -1.1334 0.478034 16.5389
100 4 3.73864 4.4979 13.8902
122 2 2.92019 6.36473 10.4858
151 4 -4.30541 6.57781 10.4977
83 2 -4.07385 11.4334 6.3716
87 1 -4.93092 12.196 6.6573
177 1 -2.98336 10.0811 8.20763
153 4 -3.88433 8.45206 8.11089
154 4 0.309632 6.79158 4.74577
155 4 1.93499 8.13363 2.49494
197 2 -1.97638 7.19731 0.039188
232 1 0.262099 12.0443 4.69128
196 2 -0.399029 7.82799 1.14973
279 2 -5.95176 11.5991 6.86855
171 2 -1.89123 9.88511 8.30284
182 3 -3.00626 7.49791 7.03661
183 3 -1.07615 7.59318 4.92927
184 3 1.16994 7.48457 3.64513
185 3 1.14724 8.70684 1.17346
193 4 -3.00951 7.9082 1.92524
194 2 -1.45584 8.47898 2.57575
170 2 -3.26045 10.7381 7.25373
198 1 -1.3387 7.18989 1.12994
199 3 -3.67648 6.91465 2.856
200 3 -3.7521 8.99465 1.0851
202 2 -5.11546 12.1615 2.84157
203 2 -5.01251 10.2652 3.31253
204 2 -5.24561 11.623 4.71343
309 3 -4.57485 11.3885 0.160638
206 1 -5.48781 11.3104 3.55862
224 2 0.57479 9.55239 6.44058
212 2 -0.657484 12.3686 2.95424
80 2 -3.35554 12.3301 7.81637
152 4 -2.12838 6.5891 6.00867
228 2 -0.626593 11.1069 4.64889
77 4 -4.8988 12.7563 8.50933
214 3 0.684162 11.5865 0.814707
158 2 -5.49523 8.59443 7.53639
208 4 -4.60745 9.82555 0.0951769
126 2 0.212512 7.84431 16.842
78 4 -6.19993 10.7149 10.4763
79 4 -5.72593 11.6311 13.6313
277 2 -1.95762 11.5735 14.0322
81 2 -6.79579 10.8526 14.6701
119 2 1.14078 8.8137 13.7061
84 2 -3.56883 11.464 12.964
85 2 -4.18665 10.5494 14.8165
169 2 -3.37145 10.5187 9.15763
88 1 -3.87627 11.6059 14.1245
89 3 -5.54893 11.6832 9.45983
90 3 -5.96512 11.146 12.0158
226 2 -0.4913 11.9392 10.6086
234 4 -0.900888 10.484 17.4542
124 2 1.18209 7.97608 15.0442
237 2 -1.77637 10.1457 15.3625
82 2 -5.26804 9.21765 10.2967
129 1 1.34739 7.88356 13.0413
131 1 1.21159 8.02778 16.2919
238 2 -3.09261 11.0102 16.5947
96 4 -0.804538 12.8769 13.7555
86 2 -3.9548 12.6676 14.607
118 2 1.13906 8.02789 11.8864
120 2 0.777947 6.98955 13.4626
283 2 -4.86364 8.26137 15.5156
181 3 -4.02082 7.74233 9.57218
236 2 -2.63961 9.09709 16.7031
239 1 -2.32518 10.1527 16.4159
210 2 -5.99141 9.59865 16.0775
225 2 0.608541 10.4291 10.0953
157 2 -3.36272 6.81288 11.8204
2 4 11.2371 5.79925 3.83318
36 2 11.9815 3.48389 8.32807
5 4 11.1448 1.0772 0.448851
9 4 6.12396 6.45321 3.66473
7 4 12.1862 1.66737 5.70474
8 4 10.0142 3.29217 2.26318
110 2 4.13626 5.54493 6.90267
10 4 9.29192 5.78366 0.488137
11 4 9.9884 3.32022 6.9912
12 4 8.84022 6.0222 5.6176
46 1 11.0648 4.11682 8.36003
33 2 4.02878 6.40087 4.80918
19 2 8.8128 2.42482 7.94575
29 2 9.35975 1.43895 4.09028
30 2 7.8806 2.3279 3.25658
31 2 9.07502 3.29492 4.38106
115 2 6.41497 5.14247 6.1055
274 2 13.9026 1.37576 1.93041
44 1 8.95924 2.39822 3.66881
117 2 6.63926 4.7811 8.34543
128 1 5.742 4.66261 6.9255
213 2 8.70558 0.649099 2.64016
53 3 13.123 2.23988 4.4675
54 3 13.1604 1.66572 6.95285
55 3 10.6726 2.08232 1.55087
56 3 11.0065 4.37766 2.97319
57 3 5.28988 5.09245 3.24068
58 3 8.89581 4.12542 1.07223
59 3 10.8009 2.2999 6.08456
211 4 7.521 0.0850024 1.68575
61 3 7.42708 5.92921 4.90711
62 3 9.32231 4.60731 6.38397
292 2 6.11843 1.87089 8.74876
99 4 4.71312 4.81564 8.53038
6 4 13.3247 0.216889 8.15877
230 2 7.26908 0.149472 5.22185
35 2 11.2053 5.24002 8.31621
116 2 5.56749 3.56749 6.71986
21 2 6.19899 6.57183 7.11408
60 3 9.97873 6.37477 4.53099
216 2 7.62699 3.60498 0.112605
17 2 7.98332 0.929575 16.9181
295 2 10.1404 1.5587 8.93803
37 2 10.319 3.73247 9.23381
249 2 7.01647 4.04217 11.9295
91 4 11.6266 2.36111 16.1482
92 2 11.5921 1.71904 14.5789
109 2 4.41032 6.31333 9.41307
296 2 9.52213 0.626867 10.3798
251 2 6.89739 4.79016 10.2208
102 4 5.33787 6.12834 15.6773
52 3 10.4654 1.86953 17.0532
107 2 6.02802 3.10957 10.8228
141 3 3.75726 6.50601 16.3263
114 2 6.8553 2.56157 15.1395
127 1 7.12182 0.726203 15.1836
297 2 8.66377 2.26206 9.98365
138 3 3.32411 5.94436 13.371
139 3 5.13095 4.65859 14.9711
140 3 6.43209 6.13673 16.7437
186 4 9.74468 5.92324 15.9769
187 4 8.12044 3.61349 14.2603
188 2 8.55644 1.98677 14.6022
189 2 8.57095 3.63515 12.6206
190 2 6.52404 4.13917 13.9751
303 2 13.3269 0.917322 14.5189
192 3 9.00621 4.81376 15.146
250 2 8.23153 3.48687 10.5317
255 1 7.6099 4.32911 10.9973
298 1 9.25224 1.35734 9.49482
241 2 12.2098 1.96044 12.5474
242 2 11.1632 1.62476 10.8873
243 2 13.046 1.16851 10.9125
252 2 7.96026 6.43605 13.5109
245 1 12.0387 1.30084 11.5454
257 3 9.63571 6.36806 11.0918
247 4 8.14463 6.15989 11.6206
191 3 8.97017 6.08846 17.4705
93 2 11.6221 4.054 16.0033
253 2 5.77868 6.63377 12.7601
299 2 8.22059 0.312315 15.1535
13 4 7.70987 8.10687 1.73656
14 4 7.41637 7.81465 7.3574
15 4 6.5994 10.7143 6.22198
285 2 6.31339 12.5893 2.39576
45 1 4.77913 7.27402 4.69658
278 2 4.33528 12.475 1.10862
34 2 4.26451 8.16759 4.06123
38 2 4.52212 9.87594 5.87152
39 2 4.95256 11.3859 4.69508
40 2 3.82459 11.7619 6.26066
207 1 7.40651 12.4465 2.03979
47 1 4.63153 11.0891 5.79702
63 3 6.38585 7.60444 2.43868
64 3 8.78725 6.93519 1.57892
65 3 8.00375 9.5476 2.50202
209 2 9.17509 9.34882 0.107536
67 3 8.89627 7.52005 6.74224
68 3 7.37811 11.0172 4.71354
69 3 6.82898 9.21743 6.76402
70 3 6.94478 11.8758 7.35896
172 2 3.03666 10.2107 1.97177
173 2 4.5029 9.51553 2.90588
174 2 2.77899 9.65704 3.90005
178 1 3.3685 9.44312 2.76929
201 4 8.11253 10.9789 3.25154
161 2 3.66333 7.68529 2.17591
222 4 1.09256 11.0972 6.12328
223 2 2.72543 10.7311 5.68228
229 2 1.23331 11.9964 3.97046
233 3 1.03864 11.972 7.47811
267 2 3.82923 10.387 7.45799
205 2 7.46089 12.0973 0.993219
32 2 5.16846 7.49737 5.70354
18 2 4.55396 12.9526 5.19551
101 4 3.16811 7.36251 12.744
112 2 4.16231 8.44523 13.7434
113 2 5.73863 7.34968 14.5158
246 1 5.46669 12.8657 14.5138
123 2 4.60354 7.34469 10.8388
130 1 3.41844 7.33037 10.7493
304 2 6.07566 11.8822 14.5126
235 2 0.423513 10.464 16.3682
227 2 1.30715 11.659 11.2936
248 2 7.05632 7.49958 11.0154
125 2 1.90955 8.88233 16.8071
254 2 6.53143 8.25212 13.298
256 1 6.6815 7.26387 12.7608
258 4 5.06547 10.2105 16.3146
259 2 5.72569 11.8802 16.1726
260 2 5.38869 9.63807 14.5416
261 2 3.23974 8.7474 15.1694
262 2 3.18476 10.4516 14.3369
240 4 4.66468 12.5839 12.5511
264 1 3.70066 9.75204 15.1352
265 4 4.01813 11.0741 8.95761
266 4 6.21741 10.3026 10.8274
268 2 2.43645 11.0776 9.70785
269 2 6.01406 8.85586 11.7572
271 3 7.66726 10.3748 10.274
272 3 5.05033 10.0455 9.7104
273 3 5.65132 11.5092 11.777
281 2 8.57783 8.01962 15.7758
284 1 9.55809 7.65873 15.3213
231 1 0.66319 11.5253 10.3515
106 2 0.703339 11.8942 13.0478
221 4 0.626101 12.8744 8.87217
305 2 2.75363 12.1798 14.0146
306 2 2.80976 10.7914 12.7673
263 2 3.27429 10.6079 16.6692
308 1 2.48764 11.8697 12.9903
20 2 7.46926 7.6516 8.99077
282 2 9.43744 7.37158 14.1773
307 2 2.81947 12.6928 12.024
121 2 2.85342 8.18872 10.313
244 2 4.64466 12.9081 15.207
270 3 4.58625 12.5731 8.75746
300 2 -0.900915 13.1061 16.0142
302 2 7.13477 12.9743 10.2651
66 3 5.85839 9.11453 17.4635
ITEM: TIMESTEP
200
ITEM: NUMBER OF ATOMS
310
ITEM: BOX BOUNDS xy xz yz pp pp pp
-9.0288000000000004e+00 1.5411400000000000e+01 -7.2027000000000001e+00
0.0000000000000000e+00 1.3210295000000000e+01 -1.8261000000000001e+00
0.0000000000000000e+00 1.7503399999999999e+01 3.4178399999999998e-01
ITEM: ATOMS id type x y z
168 2 2.27191 4.90799 7.65349
3 4 3.12228 1.99709 3.23775
4 4 4.31311 4.54272 1.95735
22 2 5.57275 2.1441 3.22512
294 2 5.84318 0.796435 7.58481
24 2 4.63093 1.8888 4.95619
25 2 1.1475 0.844877 4.71607
26 2 1.31563 2.82292 4.86218
27 2 2.80265 1.61999 5.45406
41 1 4.84511 1.50949 3.83781
42 1 1.83824 1.73714 4.693
48 3 2.65035 0.741117 1.83129
49 3 3.09957 3.69169 2.53928
51 3 3.86716 5.79927 0.962999
71 4 -1.36637 2.43976 3.19109
72 2 0.30593 2.20654 3.54941
176 1 1.6482 5.89966 7.81824
74 2 0.110497 4.11912 2.76607
75 2 -1.52341 4.97687 3.77642
76 1 -1.13236 4.30743 2.92338
310 3 6.69389 1.10681 0.801214
23 2 4.97593 0.423836 3.77242
110 2 3.98526 5.46185 6.75158
150 4 0.0378455 4.84629 7.94124
159 2 0.0315194 5.12406 4.25973
163 2 0.65899 3.34003 5.9401
164 2 -0.771604 2.62665 7.06169
165 2 1.0474 2.66927 7.67679
175 1 0.281538 3.20193 6.9997
179 3 -3.00484 5.51759 5.08771
180 3 -1.12634 5.66253 7.14716
195 2 -1.17466 6.13797 1.91465
287 2 0.720843 1.47161 0.36349
50 3 5.31705 3.45776 0.977412
280 2 2.17069 0.207654 5.97072
143 2 0.148831 6.40338 0.186688
293 1 6.02733 0.659593 8.70198
73 2 -1.91292 4.07102 1.80297
1 4 2.79543 0.127087 0.362954
132 3 1.90663 1.44625 8.62353
230 2 6.84702 0.116277 5.44737
94 4 0.698787 2.94283 11.6073
95 4 2.91296 2.52242 9.84367
97 4 4.92149 2.2951 11.9586
151 4 -4.29908 6.53917 10.6958
103 2 -0.0509458 1.44635 11.2264
104 2 -0.62322 3.93929 11.8984
105 2 1.32851 2.45009 13.0526
108 2 1.05599 6.02981 15.9257
111 2 2.53436 3.82971 14.7387
289 2 0.378963 2.13128 16.45
218 2 4.13436 2.75318 15.7532
301 2 0.110247 1.10925 9.17104
133 3 1.72218 3.49939 10.6138
134 3 3.8812 1.57403 10.9003
290 1 -0.482921 1.34959 17.0655
136 3 3.8762 3.6253 8.96409
142 4 -2.07102 5.77682 16.3545
135 3 5.74274 1.29327 12.9514
144 2 -1.37151 4.13758 16.5338
43 1 -0.977317 0.968819 9.56237
146 2 -1.74039 4.33056 14.3201
147 2 0.0326104 4.57129 14.8333
148 1 -1.02429 4.8476 15.0531
149 3 -3.91516 5.64553 16.0656
156 2 -0.559694 4.33732 9.42558
28 2 -1.43205 1.97852 9.82921
145 2 -1.16484 6.55023 14.8223
137 3 4.30588 3.53547 12.7727
217 2 2.52282 1.82317 15.1771
275 2 -2.4001 1.80808 16.6938
219 2 2.27956 3.29786 16.426
220 1 2.98214 2.38552 16.0665
276 2 0.740857 0.423202 13.8658
16 2 2.57671 1.0678 17.2475
98 4 2.38487 6.58558 17.0354
166 2 1.41599 6.14806 9.06483
122 2 2.83318 6.29754 10.508
288 2 -1.07171 0.63068 16.4113
100 4 3.83266 4.49324 13.887
83 2 -3.71576 11.6151 6.3443
87 1 -4.72473 12.1723 6.73271
177 1 -2.9276 9.95335 8.05261
153 4 -3.96351 8.40688 8.02244
154 4 0.317987 6.81638 4.67816
155 4 1.99417 8.27014 2.42902
197 2 -1.85694 7.23604 0.177519
232 1 0.12891 12.1951 4.7863
196 2 -0.253717 7.88327 1.26392
279 2 -5.74191 11.4123 6.90642
171 2 -1.87148 9.62529 8.04788
182 3 -3.09201 7.44613 7.08878
183 3 -1.03842 7.58562 5.11646
184 3 1.207 7.54356 3.64036
185 3 1.19377 8.87019 1.17033
193 4 -2.92971 7.99511 2.02134
194 2 -1.54492 8.70115 2.70443
170 2 -3.21874 10.6865 7.20101
198 1 -1.26507 7.27325 1.37336
199 3 -3.50028 6.83421 2.89969
200 3 -3.71904 8.99645 1.08417
202 2 -5.17271 12.3338 2.92815
203 2 -4.98484 10.5356 3.30224
204 2 -5.19611 11.7182 4.73822
309 3 -4.59392 11.3739 0.15212
206 1 -5.46892 11.4605 3.63811
224 2 0.619889 9.44529 6.13278
212 2 -0.756821 12.4572 2.99588
80 2 -3.2776 12.435 7.99247
208 4 -4.59848 9.83216 0.119721
228 2 -0.604667 11.2494 4.4303
77 4 -4.92144 12.7322 8.55008
214 3 0.534325 11.6254 0.904587
160 2 1.24549 6.76251 6.11567
167 2 2.25613 6.76898 7.31279
234 4 0.956197 10.3555 0.0932735
211 4 0.14721 12.8808 1.62556
286 2 -7.27529 12.7653 2.05667
152 4 -2.16504 6.55404 6.11306
126 2 0.11322 7.55342 16.5266
78 4 -6.16497 10.6784 10.5874
79 4 -5.72539 11.7892 13.6156
277 2 -1.97466 11.8209 14.2925
81 2 -6.58599 10.9655 14.8335
291 2 -1.85581 12.7742 9.25204
84 2 -3.60979 11.0963 12.9872
85 2 -4.15774 10.8757 14.9572
169 2 -3.33953 10.3238 9.15656
88 1 -3.88147 11.6108 13.9846
89 3 -5.38438 11.6168 9.53392
90 3 -5.96024 11.2212 12.0772
226 2 -0.485472 11.2662 10.3347
157 2 -3.20126 6.81594 11.9248
124 2 1.31504 8.07146 15.1122
237 2 -1.81563 10.1929 15.5584
82 2 -5.52381 9.0699 10.5255
129 1 1.38289 8.242 13.0998
131 1 1.17423 7.8645 16.2957
238 2 -3.0503 11.1616 16.6337
210 2 -6.03056 9.63763 16.0783
86 2 -3.71986 12.7424 14.1323
118 2 1.14552 8.3839 11.9679
120 2 0.817591 7.41766 13.6065
283 2 -4.8667 8.27178 15.45
181 3 -4.10055 7.62645 9.60225
236 2 -2.92633 9.33299 16.961
239 1 -2.41144 10.2693 16.5792
2 4 11.2963 5.74994 3.8989
36 2 11.9983 3.39965 8.24247
5 4 11.1649 0.95566 0.444064
6 4 13.321 0.242839 8.13987
7 4 12.2656 1.55842 5.7637
8 4 9.99662 3.27377 2.24358
116 2 5.6246 3.78509 6.67607
10 4 9.12158 5.74519 0.625202
11 4 9.94273 3.35186 6.90357
12 4 8.82523 6.03299 5.622
46 1 11.0125 3.88533 8.3903
35 2 11.0826 5.03154 8.25745
19 2 8.92244 2.29008 7.78575
29 2 9.47956 1.42727 3.86277
30 2 7.88941 1.93095 3.00835
31 2 8.74989 3.17639 4.1813
115 2 6.38681 5.32225 6.12463
274 2 14.1885 1.15764 1.93772
44 1 8.85 2.27792 3.44112
117 2 6.55422 4.98126 8.45878
128 1 5.70202 4.86896 6.93987
213 2 8.79217 0.63323 2.17001
53 3 13.223 2.09143 4.42666
54 3 13.0973 1.82082 7.1614
55 3 10.6516 2.12961 1.35132
56 3 10.8696 4.31474 3.10663
57 3 5.19477 5.22788 3.12457
58 3 8.72093 4.26269 1.23848
59 3 10.9085 2.37389 6.04927
215 4 6.27845 2.5845 0.0935238
61 3 7.36676 6.07518 4.76863
62 3 9.04384 4.56364 6.3067
60 3 9.96577 6.39408 4.6244
99 4 4.61044 4.88277 8.46438
17 2 8.02343 0.57007 17.1161
299 2 8.28611 0.579042 15.2581
37 2 10.4327 3.5547 9.28398
249 2 6.94458 4.22412 11.9964
91 4 11.5094 2.31855 16.0371
92 2 11.4535 1.72081 14.4568
109 2 4.23154 6.29243 9.42698
296 2 9.31204 0.596847 10.4529
251 2 7.31029 4.60797 10.0297
102 4 5.21955 6.13593 15.7562
52 3 10.4291 1.79006 17.0118
107 2 6.21085 2.93831 10.9551
141 3 3.79678 6.50395 16.286
114 2 6.87978 2.72455 15.1793
127 1 7.20464 0.986164 15.3744
297 2 8.51241 2.25598 9.68696
138 3 3.34718 5.9779 13.2721
139 3 5.28884 4.57421 15.0858
140 3 6.34202 6.21355 16.8709
186 4 9.70695 6.07589 15.9606
187 4 8.19522 3.69221 14.1702
188 2 8.63063 2.09839 14.6227
189 2 8.68693 3.46613 12.4987
190 2 6.56644 4.09792 14.0579
303 2 13.1363 1.07038 14.817
192 3 8.998 4.82447 14.9784
250 2 8.1124 3.10127 10.7098
255 1 7.74917 4.25365 10.9665
298 1 9.11768 1.29277 9.48647
241 2 12.2675 1.98919 12.552
242 2 11.0647 1.4367 11.1224
243 2 12.9242 1.21346 10.8306
252 2 7.7941 6.26681 13.5256
245 1 12.0796 1.36803 11.5543
257 3 9.62313 6.39095 11.2388
247 4 8.03003 6.13133 11.6095
191 3 8.97577 6.12532 17.4276
292 2 6.24619 1.60957 9.2459
295 2 10.1106 1.34522 8.806
93 2 11.4675 4.06244 15.9296
300 2 6.37885 0.365214 16.1382
162 2 11.4817 5.02768 9.98633
253 2 5.7803 6.64169 12.9441
216 2 5.90316 3.83351 17.491
13 4 7.67881 8.027 1.69593
14 4 7.39572 7.87731 7.34356
15 4 6.6463 10.6719 6.12476
285 2 6.36159 12.5654 2.73404
45 1 4.82408 7.45953 4.87579
278 2 4.38167 12.4665 1.30309
34 2 4.15378 8.12834 4.2559
38 2 4.5784 9.69581 6.21109
39 2 4.85097 10.9545 4.66175
40 2 3.86687 11.5793 6.39378
207 1 7.23686 12.1253 2.10033
47 1 4.60872 10.8219 5.8861
63 3 6.39127 7.4683 2.40901
64 3 8.85775 6.95252 1.59738
65 3 8.1526 9.38814 2.57125
18 2 4.70765 12.7537 5.47709
67 3 8.88155 7.33567 7.00799
68 3 7.28442 10.9235 4.72319
69 3 6.94988 9.16744 6.58463
70 3 6.85864 11.9204 7.2029
172 2 3.47566 10.1267 1.9794
173 2 4.56056 9.17296 3.3268
174 2 2.77361 9.97782 3.77445
178 1 3.41512 9.42557 2.8857
201 4 8.13339 10.8487 3.34238
161 2 3.58984 7.64513 2.11054
222 4 1.07589 11.1141 5.96642
223 2 2.6603 10.6206 5.50593
229 2 1.05778 12.5505 4.18022
233 3 1.05784 12.0053 7.50598
267 2 3.58462 10.3385 7.53111
205 2 6.93691 11.6008 1.13663
32 2 5.45431 8.11998 5.56665
270 3 4.66439 12.4375 8.73593
33 2 4.24078 6.60623 5.3237
209 2 9.16255 9.37966 0.138649
9 4 5.96916 6.52524 3.6345
21 2 6.10227 6.81052 6.9577
66 3 7.54794 9.0082 0.0693055
158 2 9.95816 8.51944 7.17984
101 4 3.12917 7.46461 12.6736
112 2 4.04867 8.77267 13.4213
113 2 5.6871 7.1788 14.4571
246 1 5.47306 12.9866 14.5208
123 2 4.47433 7.4286 10.8421
130 1 3.32207 7.39585 10.757
304 2 6.1914 12.2317 14.2814
235 2 0.450011 11.1369 16.6754
227 2 1.31102 11.445 11.2022
248 2 6.85549 7.44957 10.9848
125 2 1.67147 8.72213 17.0856
254 2 6.66853 8.22434 13.3612
256 1 6.69682 7.25838 12.7755
258 4 5.23896 10.1768 16.2473
259 2 6.05226 11.6986 15.8983
260 2 5.31638 9.26635 14.5087
261 2 3.13724 8.82747 15.3829
262 2 3.30514 10.5969 14.279
240 4 4.66193 12.6759 12.5648
264 1 3.78315 9.76152 15.0864
265 4 4.11339 11.0165 9.05817
266 4 6.1766 10.2923 10.8486
268 2 2.68705 11.0694 9.99785
269 2 6.21421 8.87753 11.8597
271 3 7.7188 10.5859 10.3456
272 3 5.14694 10.0059 9.73829
273 3 5.61446 11.5369 11.8303
281 2 8.65822 8.15559 15.8357
284 1 9.55914 7.79765 15.211
231 1 0.700475 11.2143 10.2066
106 2 0.674537 12.3155 13.1683
221 4 0.603756 12.7006 8.86915
305 2 2.53133 12.0406 13.9634
306 2 2.87391 10.7973 12.6238
263 2 3.57624 10.9317 16.5095
308 1 2.4829 11.792 12.8657
20 2 7.20921 8.02961 9.03436
282 2 9.36971 7.47521 14.1039
307 2 2.84613 12.6282 12.1336
121 2 2.92483 8.35794 10.2501
244 2 4.58585 12.6153 15.2345
96 4 -0.756579 13.0692 13.8987
119 2 1.33899 9.20231 13.625
302 2 7.0289 12.9919 10.3108
225 2 1.04118 10.3316 9.63313
ITEM: TIMESTEP
300
ITEM: NUMBER OF ATOMS
310
ITEM: BOX BOUNDS xy xz yz pp pp pp
-9.0288000000000004e+00 1.5411400000000000e+01 -7.2027000000000001e+00
0.0000000000000000e+00 1.3210295000000000e+01 -1.8261000000000001e+00
0.0000000000000000e+00 1.7503399999999999e+01 3.4178399999999998e-01
ITEM: ATOMS id type x y z
168 2 2.22119 5.00526 7.40676
3 4 3.21955 1.92397 3.10773
4 4 4.44332 4.52649 1.97519
22 2 5.79032 1.86419 3.12898
287 2 1.18964 1.76865 0.101241
24 2 4.89759 2.30621 4.74992
25 2 1.36355 0.870021 4.78702
26 2 1.39226 2.7867 4.66919
27 2 2.93895 1.89651 5.41136
41 1 4.92725 1.54331 3.86986
42 1 1.98592 1.81281 4.68403
48 3 2.74109 0.616172 1.91723
49 3 3.11521 3.38001 2.49353
51 3 3.82398 5.68137 0.94623
71 4 -1.19018 2.21149 3.08923
72 2 0.419206 1.64975 3.46296
176 1 1.55027 5.88673 7.84926
74 2 0.297582 3.81852 2.68587
75 2 -1.49402 4.34256 3.83221
76 1 -1.01557 4.1106 2.73968
310 3 6.70655 1.30187 0.807478
23 2 5.0265 0.514038 4.23097
152 4 -2.10421 6.42726 6.08907
150 4 0.00649424 4.78874 7.88937
159 2 0.0829409 5.19971 3.95781
163 2 0.523277 3.154 5.87725
164 2 -0.81284 2.52455 7.11699
165 2 0.991626 2.44113 7.61084
175 1 0.237551 2.99051 7.00564
179 3 -3.00101 5.4435 5.2345
180 3 -1.08794 5.56267 6.9625
195 2 -1.20363 5.91991 1.95418
160 2 1.33376 6.21359 5.90571