ITEM: TIMESTEP
0
ITEM: NUMBER OF ATOMS
310
ITEM: BOX BOUNDS xy xz yz pp pp pp
-9.0288000000000004e+00 1.5411400000000000e+01 -7.2027000000000001e+00
0.0000000000000000e+00 1.3079499999999999e+01 -1.8261000000000001e+00
0.0000000000000000e+00 1.7678433999999999e+01 3.3839999999999998e-01
ITEM: ATOMS id type x y z
4 4 4.81013 4.22831 1.55184
3 4 3.51928 1.70571 2.55376
280 2 0.805078 0.897903 6.73387
71 4 -1.09636 2.04579 3.88606
23 2 4.38652 1.19941 4.95137
24 2 5.85628 1.04006 3.80668
25 2 1.05038 0.756932 2.72057
26 2 1.49902 2.7126 3.14799
27 2 2.21867 1.32611 4.44407
41 1 4.73366 0.747364 3.96938
42 1 1.75485 1.56281 3.35398
48 3 3.2523 0.798606 1.27561
49 3 3.7937 3.33452 2.42953
51 3 3.98156 5.78204 0.789761
152 4 -2.21025 6.27117 6.29302
72 2 0.468838 2.00961 4.75683
73 2 -1.39973 3.51629 0.729363
74 2 -0.570823 4.10445 3.26565
310 3 6.97383 0.971688 0.75768
76 1 -1.29344 3.28356 2.66492
275 2 -0.487634 2.22211 1.43543
110 2 1.74832 5.24428 7.67682
50 3 5.38137 3.29178 0.385362
150 4 -0.677467 4.10411 8.05588
159 2 0.8211 4.93047 5.76056
163 2 1.5034 3.47257 6.30504
164 2 -0.572651 2.54287 7.15415
165 2 1.25565 2.93343 8.11772
175 1 0.966532 3.68108 7.28372
179 3 -3.16577 5.46376 5.09884
180 3 -1.42992 5.20459 7.24905
195 2 -2.25792 5.80817 0.321131
196 2 -0.893432 5.14451 1.85822
198 1 -0.766791 6.22961 1.33826
77 4 2.06383 0.220252 8.75442
197 2 0.262125 6.28868 0.804182
94 4 0.320079 1.86056 12.1208
95 4 2.76754 2.47599 10.5838
98 4 2.13318 6.63287 17.0174
219 2 3.41464 2.20045 15.6795
103 2 0.184037 0.369579 11.2434
104 2 -0.770736 2.85803 11.1874
105 2 -0.456154 1.66482 13.5847
108 2 0.572481 5.41099 16.0126
111 2 2.56781 3.4709 13.2255
290 1 0.591627 0.727716 16.1105
43 1 -1.10239 0.406623 9.69981
132 3 1.74381 1.64435 9.25634
133 3 1.78807 2.31157 12.246
134 3 4.11174 1.62908 11.0395
168 2 -0.508591 5.57333 9.79388
136 3 3.11745 3.85896 9.8244
143 2 -2.33177 6.44384 17.0578
147 2 -1.98898 6.44221 13.4679
144 2 -2.5444 4.55044 15.2833
301 2 -0.404045 1.27905 9.48556
156 2 -1.75345 3.51854 9.49277
220 1 4.44241 1.75556 15.8468
289 2 -0.361135 1.02645 16.8226
149 3 -4.61578 6.23091 15.4822
288 2 0.832492 1.51683 15.3027
142 4 -3.09614 6.12808 15.5065
167 2 -0.779531 4.72376 11.266
176 1 -0.473213 4.57713 10.2218
217 2 4.61207 0.743432 15.626
166 2 0.590957 4.16643 10.1709
16 2 3.11072 0.647136 16.7189
99 4 3.14095 5.22974 8.93577
276 2 3.96131 0.686479 13.0647
162 2 -3.82946 5.50144 10.2812
100 4 3.88079 4.53285 13.1774
109 2 2.69614 6.5353 9.98634
208 4 -3.99883 9.40995 0.192373
171 2 -4.35021 10.4692 7.01084
230 2 -0.0712534 10.7716 3.79935
153 4 -3.98382 8.357 8.06561
154 4 0.456448 6.5941 5.33893
155 4 2.0192 7.76271 2.73437
22 2 -2.71047 12.3801 4.00513
160 2 1.33257 7.18599 6.63843
279 2 -6.20862 11.8078 7.03356
177 1 -3.50096 10.0895 7.6754
169 2 -2.50293 10.0984 7.2165
182 3 -3.12911 7.39749 7.25221
183 3 -0.947914 7.13484 5.44655
184 3 1.28633 7.00483 3.97348
185 3 1.05514 8.55122 1.63195
193 4 -2.52158 7.1367 1.4253
194 2 -0.658636 7.25774 2.40387
232 1 0.0195866 11.635 4.56563
234 4 0.403802 9.57872 0.7016
199 3 -3.41489 6.65552 2.67245
200 3 -2.70724 8.64958 0.712599
202 2 -4.71347 11.8315 3.25614
203 2 -4.66634 10.0321 4.00122
204 2 -5.08044 11.5711 5.18283
161 2 3.05884 6.72681 1.84105
206 1 -5.02908 11.1342 4.12192
211 4 -0.253121 12.4112 1.66507
212 2 -1.74469 12.3312 2.50518
205 2 -6.12668 12.2116 1.59398
214 3 0.122795 11.0634 1.09403
228 2 -0.773742 12.3875 4.33025
229 2 -0.777942 10.5561 5.70812
83 2 -5.01888 12.7879 5.83373
87 1 -5.65242 12.8045 6.85199
80 2 -3.79985 12.8141 7.71395
151 4 -4.36991 6.93119 11.0226
78 4 -5.65442 10.8273 10.9876
79 4 -4.1373 12.0798 13.5466
287 2 -6.87998 12.4691 15.4983
235 2 0.0671496 10.5307 16.8125
82 2 -4.90477 9.30464 10.6502
84 2 -2.54337 10.3975 13.3241
85 2 -3.79735 10.2615 14.8748
86 2 -2.21771 11.3019 15.136
88 1 -2.91645 10.877 14.3582
89 3 -5.43582 11.6535 9.66403
90 3 -4.86843 11.5508 12.2831
119 2 -0.06655 8.39694 13.6024
277 2 -1.1607 11.7509 13.9941
210 2 -6.4322 9.00922 16.4571
146 2 -3.10701 8.01591 13.7374
148 1 -2.41687 7.34172 14.1821
145 2 -1.60287 7.79519 14.8902
118 2 0.620765 7.83033 11.7053
1 4 -5.54204 12.9109 17.5425
236 2 -0.320783 8.65572 16.2259
239 1 -0.815133 9.66056 16.5673
129 1 0.672985 7.67927 12.9786
283 2 -5.66702 8.72109 14.9939
231 1 -0.45129 12.222 9.8925
181 3 -3.98168 8.08226 10.0739
238 2 -2.51633 9.06018 17.2951
237 2 -1.54688 10.0833 15.7067
126 2 -0.417996 6.94083 16.7004
225 2 -0.597827 11.2103 9.42545
125 2 1.29561 8.21916 16.9244
81 2 -5.31804 12.7433 14.6693
124 2 0.534101 7.05816 14.9228
226 2 -1.38359 12.7688 9.95301
157 2 -3.45085 6.92486 12.433
309 3 -5.65296 11.2705 17.6149
131 1 0.47328 6.69258 16.0598
120 2 0.50501 6.63164 13.2567
170 2 -3.51159 10.479 8.86505
2 4 11.1836 5.73673 3.96389
9 4 6.40427 6.16982 3.49876
5 4 10.9316 0.695804 1.73826
61 3 7.51329 6.0199 4.6642
7 4 12.0825 1.71663 6.12195
8 4 9.68558 3.35511 2.65004
62 3 9.2226 5.01092 6.50691
35 2 11.1074 5.40143 8.58936
11 4 10.0354 3.84194 7.17344
19 2 8.8789 2.96194 8.13513
294 2 7.34032 2.60886 7.15594
18 2 11.252 0.276403 5.65352
128 1 4.88267 5.45514 8.33472
29 2 8.00827 2.02151 3.72963
30 2 7.20336 3.74711 3.23239
31 2 8.45889 3.56752 4.71411
216 2 8.11454 3.22622 0.201584
116 2 4.52799 5.96032 7.2666
44 1 8.13509 3.15224 3.70486
286 2 14.8247 0.287151 1.19597
291 2 5.87059 2.34104 8.06439
52 3 12.2746 1.20415 0.886528
53 3 13.1489 2.05619 4.89764
54 3 12.8251 1.46172 7.56898
55 3 10.1989 1.91512 2.34693
56 3 10.6264 4.42745 3.30348
57 3 5.98507 4.67233 2.50622
58 3 9.15585 4.13875 0.866474
59 3 11.0595 2.84035 6.37924
75 2 12.9664 3.46109 2.77362
293 1 7.01133 2.37885 8.17887
91 4 13.5597 1.89702 0.172118
274 2 14.5175 0.447767 3.02039
12 4 8.7534 6.34452 5.62682
221 4 7.98111 0.511822 8.71122
10 4 8.90878 5.62025 0.0583321
45 1 4.82114 6.29106 4.62485
117 2 5.51588 4.50419 8.26342
32 2 5.25753 6.45534 5.7248
33 2 4.35087 5.27893 4.47515
28 2 13.5406 0.741638 10.5415
36 2 11.4408 3.66963 9.36168
37 2 9.56339 4.46797 9.55891
297 2 9.27802 0.645127 10.6007
138 3 3.28583 5.90914 12.7652
92 2 12.75 1.3129 16.7644
93 2 11.288 3.44309 16.7188
46 1 10.7256 4.35296 8.86621
295 2 9.94614 1.70965 9.03219
102 4 4.77398 5.93901 15.4699
218 2 5.38213 2.55514 15.4589
107 2 6.40419 2.36941 10.0977
249 2 7.90094 5.53193 9.22779
114 2 7.25958 2.73366 14.9969
127 1 7.64983 1.10402 15.2481
137 3 5.22869 3.80897 12.1113
299 2 8.7777 0.73891 15.216
139 3 4.49092 4.54318 14.6948
140 3 5.92339 5.9247 16.5321
186 4 9.1482 6.51514 15.6133
187 4 8.09022 3.91889 13.8084
188 2 8.76721 2.36852 14.2737
189 2 8.62172 3.74065 12.1295
190 2 6.44312 4.03096 13.2068
191 3 8.55883 6.51785 17.1506
192 3 8.60177 5.17349 14.6619
135 3 6.41335 1.40736 12.6833
252 2 6.55231 5.76359 12.7092
298 1 9.68074 0.648535 9.52427
251 2 8.65196 3.60231 10.3778
242 2 11.469 2.0355 12.4994
243 2 11.8195 1.03022 10.9568
292 2 7.4032 3.1658 9.00912
245 1 12.2286 1.3936 11.9424
97 4 5.47766 2.29585 11.5197
244 2 13.0349 1.26179 14.7383
255 1 7.86291 4.48322 10.5036
250 2 6.8024 4.10139 10.594
247 4 8.09228 6.33676 11.0968
96 4 7.12694 0.330797 13.6829
300 2 6.95224 0.496912 15.992
141 3 3.43872 6.60993 16.1101
215 4 4.80012 2.61678 17.6142
115 2 5.21897 6.22622 9.21675
241 2 13.185 1.87085 11.796
13 4 7.61577 8.11906 1.68872
14 4 6.90727 8.29745 7.18407
15 4 6.52872 10.8001 5.7427
39 2 5.39112 12.6064 4.43716
201 4 8.67021 10.7587 3.31935
285 2 7.69927 11.1372 1.22477
34 2 4.23068 7.29047 4.25349
38 2 4.83063 10.8884 3.69748
158 2 9.86366 8.14521 7.42723
40 2 4.2536 11.2775 5.51798
6 4 6.09416 12.7034 8.1206
47 1 4.95561 11.5364 4.62827
63 3 6.45587 7.61406 2.78824
64 3 8.37471 6.80234 1.04673
65 3 8.6984 9.23638 2.40789
66 3 6.82056 9.09165 0.411369
67 3 8.34183 7.71466 6.93476
68 3 7.55058 10.8253 4.48289
69 3 6.13993 9.32288 6.33034
70 3 6.88747 11.9027 6.96149
172 2 2.88838 9.97983 3.13528
173 2 4.3267 8.68661 3.14493
174 2 3.19491 8.75349 4.69881
178 1 3.29464 8.92841 3.53662
20 2 6.75112 8.71094 8.81568
224 2 1.91446 9.91414 6.29664
209 2 10.0946 9.18573 1.25476
223 2 1.67811 12.1149 4.53105
222 4 0.928956 11.326 6.13105
233 3 0.890088 12.3802 7.45028
267 2 4.45936 8.92887 8.51013
60 3 9.97623 6.68551 4.67463
21 2 5.87222 7.01648 7.6031
263 2 3.60623 9.35452 0.170042
278 2 4.23959 12.2819 2.80897
207 1 8.15286 12.1326 1.73102
17 2 2.72743 12.5642 0.743153
270 3 4.64831 11.6655 8.7817
213 2 0.702098 12.7075 3.04437
296 2 3.31827 12.6067 9.21003
122 2 3.05449 8.30681 9.58582
113 2 5.487 7.00707 14.2315
271 3 8.28225 10.5894 11.4115
123 2 4.06599 8.7549 11.7433
130 1 2.74623 8.33309 10.6858
265 4 4.7201 10.2043 9.54159
246 1 5.46561 12.9471 15.0863
308 1 3.23924 11.6512 13.226
248 2 6.86757 7.60108 10.8082
106 2 1.39829 12.3092 13.1603
254 2 7.41686 7.35839 13.4275
256 1 6.62722 6.9325 12.6221
258 4 4.23262 10.2519 16.9651
259 2 5.07379 11.1169 15.6504
260 2 2.59105 9.26573 15.9598
261 2 1.81977 10.988 16.3855
264 1 2.40114 10.1258 16.9445
303 2 6.30915 12.2886 15.5084
112 2 2.10993 8.55846 13.8538
284 1 8.85459 8.14564 14.6319
266 4 6.81671 10.2759 11.6939
268 2 3.32594 10.2015 10.6289
269 2 6.90353 8.8349 12.7754
304 2 4.50104 12.9158 15.7559
272 3 5.97782 9.82524 10.3841
273 3 6.13382 11.493 12.599
281 2 7.90905 8.65853 14.8414
282 2 9.01425 7.9045 13.5019
240 4 5.04671 12.4385 13.1593
253 2 5.62739 7.43333 12.5962
257 3 9.50124 6.87905 11.4108
305 2 2.94711 12.2649 14.2283
306 2 3.1857 10.5223 13.2895
101 4 2.70323 7.56656 12.4519
227 2 0.149821 12.2706 10.8387
302 2 7.58986 12.1456 9.95208
121 2 1.84116 9.02586 10.845
307 2 2.96525 12.2057 12.1868
262 2 3.44893 11.6887 17.5811
ITEM: TIMESTEP
100
ITEM: NUMBER OF ATOMS
310
ITEM: BOX BOUNDS xy xz yz pp pp pp
-9.0288000000000004e+00 1.5411400000000000e+01 -7.2027000000000001e+00
0.0000000000000000e+00 1.3079499999999999e+01 -1.8261000000000001e+00
0.0000000000000000e+00 1.7678433999999999e+01 3.3839999999999998e-01
ITEM: ATOMS id type x y z
4 4 4.9392 4.16999 1.49285
3 4 3.42065 1.678 2.518
280 2 1.55514 1.22357 6.47528
71 4 -1.04298 2.11722 3.99954
23 2 4.46005 1.3944 4.76751
24 2 5.8392 1.09858 3.59584
25 2 0.96861 0.912106 2.73303
26 2 1.3496 2.76487 2.92393
27 2 2.01487 1.49459 4.35519
41 1 4.80143 0.811602 3.87558
42 1 1.63646 1.70959 3.23405
48 3 3.40241 0.778766 1.18953
49 3 3.80232 3.23578 2.29536
51 3 4.00673 5.65664 0.801831
152 4 -2.14064 6.3151 6.29646
72 2 0.546558 2.54552 4.61027
73 2 -1.34614 3.45394 0.79566
74 2 -0.294956 4.01337 3.02937
310 3 6.88442 1.11046 0.911587
76 1 -1.02489 3.23098 2.61968
275 2 -0.406996 2.10741 1.23811
110 2 1.78599 5.30308 7.87231
50 3 5.45995 3.33672 0.232476
150 4 -0.735049 3.96081 8.04981
159 2 0.759036 4.93674 5.82981
163 2 1.07455 3.31441 6.26102
164 2 -0.36505 2.4939 7.08172
165 2 1.53759 3.00495 8.04185
175 1 1.0235 3.6927 7.32253
179 3 -2.93636 5.55275 5.12723
180 3 -1.53944 5.14265 7.3002
195 2 -2.23152 6.08414 0.233692
196 2 -0.864187 5.12505 1.80562
198 1 -0.760062 6.10529 1.23051
197 2 0.193461 6.15466 0.67876
75 2 -2.1394 3.63497 2.75701
33 2 4.20479 5.4195 4.30932
87 1 1.71928 0.132543 6.79736
94 4 0.257877 1.94995 12.2124
95 4 2.7658 2.36661 10.6967
98 4 2.16337 6.5185 16.969
219 2 3.25648 2.50819 15.8861
103 2 -0.107323 0.529046 11.3802
104 2 -0.649427 3.05065 11.2995
105 2 -0.533006 1.71832 13.6401
108 2 0.714963 5.22682 16.1005
111 2 2.75344 3.44724 13.0641
290 1 0.745882 0.807561 15.9795
120 2 0.340329 6.59007 13.2934
132 3 1.96026 1.50198 9.57715
133 3 1.7789 2.30852 12.3649
134 3 4.23605 1.64549 11.141
168 2 -0.490746 5.70417 9.69058
136 3 2.91461 3.83591 10.0326
143 2 -2.27345 6.32316 16.9913
109 2 2.162 6.5229 9.89481
144 2 -2.71653 4.72785 14.7429
301 2 -0.457647 1.19569 9.29999
156 2 -1.5153 3.42861 9.64802
220 1 4.1901 1.90317 15.9081
289 2 0.00245046 1.48331 16.7024
149 3 -4.64162 6.4323 15.5799
288 2 1.55642 1.57936 15.6315
142 4 -3.088 6.2496 15.3923
167 2 -0.650116 4.79529 11.3994
176 1 -0.387785 4.69145 10.2781
217 2 4.0003 0.793995 15.5397
166 2 0.673878 4.28798 10.2413
16 2 3.26185 0.458919 16.8236
99 4 3.08309 5.22106 9.1944
276 2 3.71377 0.833379 13.0704
162 2 -3.73048 5.47947 10.3378
226 2 5.99566 0.458961 9.8257
208 4 -4.1176 9.47181 0.265056
171 2 -4.21119 10.6614 7.35228
230 2 0.039005 10.778 3.60336
153 4 -4.02537 8.38169 8.00305
154 4 0.632001 6.65592 5.43681
155 4 2.07222 7.69067 2.79948
22 2 -2.49957 12.4433 4.03377
160 2 1.56012 7.44409 6.56878
279 2 -6.48715 12.2792 7.03935
177 1 -3.31055 10.0126 7.71229
169 2 -2.42524 10.1689 7.01665
182 3 -3.18418 7.38144 7.15934
183 3 -0.805552 7.27092 5.52054
184 3 1.32058 6.94355 3.98037
185 3 1.34479 8.63513 1.77871
193 4 -2.59184 7.23551 1.59758
194 2 -0.723958 7.13773 2.10427
232 1 -0.0855575 11.4116 4.56592
234 4 0.548792 9.70539 0.59299
199 3 -3.4325 6.65758 2.73738
200 3 -3.05325 8.68723 0.895645
202 2 -4.83937 11.8 2.91834
203 2 -4.69451 9.98587 3.82585
204 2 -5.00346 11.5813 4.9766
161 2 3.08801 6.66096 1.87086
206 1 -5.05066 11.0686 3.86758
211 4 -0.332123 12.5353 1.66113
212 2 -1.83883 12.375 2.3538
205 2 -6.35411 12.557 1.46403
214 3 0.0488344 11.1646 0.960703
228 2 -0.872718 12.2699 4.48824
229 2 -0.609501 10.2662 5.58464
83 2 -4.69798 12.2438 6.14177
77 4 -5.10031 12.8672 8.74771
80 2 -3.78801 12.6419 7.55121
151 4 -4.39981 6.92778 10.9329
78 4 -5.50466 10.8351 10.9506
79 4 -4.16692 12.0676 13.5054
147 2 -2.00054 6.67243 13.4264
235 2 -0.0148869 10.5719 16.4514
82 2 -4.7779 9.29786 10.5821
84 2 -2.2024 10.2028 13.8308
85 2 -3.83453 10.292 14.915
86 2 -2.47271 11.5751 15.0894
88 1 -2.96341 10.8933 14.362
89 3 -5.299 11.5783 9.58681
90 3 -4.8286 11.3908 12.21
119 2 -0.386106 8.19252 13.2815
277 2 -1.21736 11.6568 13.8131
131 1 0.414316 6.6902 16.0424
146 2 -3.24953 8.27024 13.5046
148 1 -2.53786 7.47775 14.0591
145 2 -1.86351 8.06428 14.8868
118 2 0.483375 7.58314 11.766
1 4 -5.54159 12.8772 17.5102
236 2 -0.300658 8.56473 16.2717
239 1 -0.844077 9.64929 16.5005
129 1 0.4654 7.64488 12.9814
283 2 -5.74737 8.70498 15.1763
231 1 -0.309582 12.3509 9.95002
181 3 -3.94409 8.06979 9.97684
238 2 -2.5949 9.45818 17.3686
237 2 -1.64979 9.9073 15.7273
126 2 -0.623194 6.81402 16.3977
225 2 -0.608521 11.2889 9.63836
125 2 1.2094 8.11677 16.972
81 2 -5.18818 12.9278 14.5459
124 2 0.452288 6.93522 14.9336
271 3 -6.99649 10.5845 11.3165
157 2 -3.68816 6.96843 12.4586
309 3 -5.91707 11.334 17.6153
170 2 -3.00976 10.2471 8.84939
287 2 -6.98867 12.9829 15.2516
2 4 11.361 5.89763 3.99571
9 4 6.32062 6.23272 3.60221
5 4 11.0859 0.624147 1.76016
61 3 7.5053 6.00909 4.59931
7 4 12.0515 1.76643 6.24167
8 4 9.73665 3.32391 2.53145
62 3 9.27862 5.04708 6.29771
35 2 11.094 5.5082 8.53863
11 4 10.0425 3.92923 7.25512
19 2 8.78723 3.12645 8.20522
294 2 7.40078 2.43487 7.36887
18 2 11.2575 0.301711 5.74154
128 1 4.7422 5.38539 8.36505
29 2 8.15603 2.06774 3.71659
30 2 7.39048 3.77637 3.31019
31 2 8.66851 3.66649 4.71315
117 2 5.38467 4.46739 8.53738
116 2 4.32757 5.52632 7.28629
44 1 8.27972 3.19844 3.70219
286 2 14.4821 0.308865 1.65224
291 2 5.91266 2.06588 8.5593
52 3 12.3426 1.14957 0.902732
53 3 13.1379 2.07237 5.0759
54 3 12.7162 1.24625 7.56231
55 3 10.3203 1.86237 2.31477
56 3 10.5952 4.38204 3.29011
57 3 6.07109 4.63583 2.55442
58 3 8.99781 4.2675 1.00849
59 3 10.9396 2.87047 6.62908
32 2 5.19377 6.31847 5.71759
293 1 7.03394 2.29408 8.42852
91 4 13.5272 1.80688 0.186916
274 2 14.7634 0.472475 3.37674
12 4 8.8491 6.31099 5.4261
221 4 7.98897 0.471206 8.70595
10 4 8.85668 5.69867 0.0557553
45 1 4.73376 6.32839 4.61633
216 2 8.17279 3.24661 0.112682
28 2 13.4962 0.724378 10.5726
36 2 11.3784 3.91487 9.46784
37 2 9.51442 4.62945 9.59094
297 2 9.39009 0.846223 10.5901
138 3 3.32595 6.03007 12.7367
92 2 12.6798 1.1132 16.796
93 2 11.2381 3.05482 16.4971
46 1 10.6128 4.52554 8.96804
295 2 10.0165 1.78249 9.11644
102 4 4.82596 6.04739 15.5073
218 2 5.1233 2.44815 15.3895
107 2 6.52547 2.42227 10.3315
249 2 7.61873 5.60763 9.2529
114 2 6.80116 2.87586 14.9219
127 1 7.26937 1.18884 15.2484
137 3 5.23232 3.91169 12.2606
299 2 8.37656 0.876977 15.5033
139 3 4.49981 4.62789 14.6916
140 3 5.92788 5.83273 16.5745
186 4 9.14325 6.41859 15.6322
187 4 7.9881 3.95605 13.9223
188 2 8.62464 2.3685 14.4457
189 2 8.48618 4.01468 12.2856
190 2 6.3126 4.09521 13.735
191 3 8.42659 6.54291 17.1415
192 3 8.52487 5.14513 14.7586
135 3 6.28788 1.31202 12.6034
252 2 6.3501 5.89902 12.8278
298 1 9.7521 0.80546 9.49342
251 2 8.44791 3.68768 10.4338
242 2 11.4889 1.78444 12.7018
243 2 11.7847 1.05508 10.9772
292 2 7.30677 3.20729 9.0391
245 1 12.232 1.26031 12.044
97 4 5.49937 2.40034 11.7045
244 2 12.9471 1.05308 14.7339
255 1 7.81103 4.5866 10.5634
250 2 6.78181 4.22565 10.7728
247 4 7.97638 6.41776 10.971
96 4 7.03332 0.312833 13.6828
300 2 6.42335 0.672106 15.9088
141 3 3.49107 6.61617 16.1462
215 4 4.90152 2.72225 17.6434
115 2 4.94819 6.45814 9.19798
241 2 13.2479 1.84242 12.0374
100 4 3.97486 4.59708 13.1428
43 1 14.2912 0.362822 9.6805
13 4 7.5211 8.08449 1.5229
14 4 6.96378 8.12388 7.26242
15 4 6.50352 10.7545 5.59508
39 2 5.2994 12.5499 4.45131
201 4 8.61477 10.739 3.17231
285 2 7.73948 11.2558 1.17675
34 2 4.16288 7.33726 4.42266
38 2 4.91934 10.7087 3.87853
158 2 9.73502 8.35608 7.50176
40 2 3.85812 11.6385 5.1538
6 4 6.02125 12.5493 8.12475
47 1 4.8959 11.5201 4.77293
63 3 6.31174 7.61234 2.52706
64 3 8.37675 6.85104 1.03399
65 3 8.54185 9.0965 2.17058
66 3 6.78742 8.93853 0.259153
67 3 8.40225 7.62963 6.76182
68 3 7.65133 10.8225 4.45712
69 3 6.37691 9.1772 6.28616
70 3 6.73427 11.7371 6.90362
172 2 2.43054 9.93711 3.60827
173 2 4.05592 8.84676 3.10174
174 2 3.26859 8.78192 4.89633
178 1 3.0838 8.9484 3.80283
270 3 4.61617 11.5752 8.79062
224 2 2.47374 10.2191 6.19928
213 2 0.472012 12.709 3.15163
223 2 1.58736 12.1187 4.44428
222 4 1.13312 11.239 6.02366
233 3 0.861045 12.1456 7.25693
267 2 4.49871 8.88424 8.53532
60 3 10.1506 6.93084 4.69557
21 2 5.86574 6.8405 7.56999
263 2 3.95104 9.46102 0.15499
278 2 4.2662 12.2671 3.05664
207 1 8.07715 12.2253 1.81986
17 2 2.94594 12.4243 0.743666
209 2 9.8804 9.26864 1.23179
20 2 7.04601 8.78411 8.77901
296 2 3.38317 12.7294 9.24318
122 2 3.23514 8.21488 9.58892
113 2 5.4382 7.26802 14.366
307 2 2.87131 12.5522 12.3586
123 2 3.98225 8.73321 11.7917
130 1 2.78466 8.15785 10.5949
265 4 4.81164 10.1645 9.58941
246 1 5.52417 12.7438 15.1395
308 1 3.14356 11.6191 13.2284
248 2 6.80715 7.74121 11.0269
106 2 1.28973 12.2318 13.1497
254 2 7.42169 7.36354 13.5873
256 1 6.55309 7.00975 12.7642
258 4 4.29155 10.2524 16.7572
259 2 5.51569 10.824 15.7095
260 2 2.87089 9.19357 15.6598
261 2 1.96715 11.2175 16.5637
264 1 2.46273 10.2509 16.8691
303 2 6.46835 12.2519 15.5478
112 2 1.87192 8.32197 13.8945
284 1 8.70649 8.14534 14.8811
266 4 6.90486 10.3578 11.6343
268 2 3.46547 9.9818 10.6961
269 2 7.01548 8.96702 12.7188
304 2 4.56337 12.713 15.758
272 3 6.11298 9.89851 10.3813
273 3 5.88815 11.372 12.4931
281 2 7.80652 8.66264 15.2857
282 2 8.71216 8.06901 13.7432
240 4 4.90374 12.3421 13.2322
253 2 5.61442 7.6572 12.5729
257 3 9.44536 6.73814 11.1685
305 2 2.67714 11.8098 14.2815
306 2 2.84217 10.6396 12.8009
101 4 2.63647 7.53335 12.3828
227 2 0.0961983 12.333 10.9723
121 2 1.86027 8.79355 10.6142
262 2 3.48326 11.7227 17.435
302 2 7.62869 12.1259 9.84359
210 2 8.76557 8.96893 16.675
ITEM: TIMESTEP
200
ITEM: NUMBER OF ATOMS
310
ITEM: BOX BOUNDS xy xz yz pp pp pp
-9.0288000000000004e+00 1.5411400000000000e+01 -7.2027000000000001e+00
0.0000000000000000e+00 1.3079499999999999e+01 -1.8261000000000001e+00
0.0000000000000000e+00 1.7678433999999999e+01 3.3839999999999998e-01
ITEM: ATOMS id type x y z
4 4 4.89966 4.1808 1.54845
3 4 3.47348 1.64214 2.54442
280 2 2.78103 1.18073 6.72264
71 4 -1.13987 2.17877 4.02766
23 2 4.47618 1.20441 4.80764
24 2 5.80889 0.936455 3.4134
25 2 0.925938 0.854343 2.70863
26 2 1.47711 2.69202 3.27291
27 2 2.10419 1.12842 4.32067
41 1 4.70453 0.685666 3.82144
42 1 1.67771 1.56677 3.25746
48 3 3.44708 0.671988 1.05749
49 3 3.85297 3.29289 2.37307
51 3 3.94479 5.65117 0.880582
152 4 -1.99411 6.38767 6.21346
72 2 0.489018 2.16904 4.691
73 2 -1.50616 3.4999 0.810096
74 2 -0.448218 4.15053 3.21081
310 3 6.73015 1.00218 0.679535
76 1 -1.21002 3.3258 2.67943
275 2 -0.381882 2.30912 1.39005
110 2 2.05277 5.00376 7.64231
50 3 5.62349 3.30085 0.428376
150 4 -0.716868 4.05104 8.19759
159 2 1.06934 5.19616 6.13803
163 2 0.89118 3.44239 6.19194
164 2 -0.545907 2.42128 7.42686
165 2 1.2554 2.78433 7.87479
175 1 0.89935 3.61911 7.28312
179 3 -2.91429 5.73938 5.07759
180 3 -1.29273 5.16997 7.26904
195 2 -2.12827 6.14516 0.207092
196 2 -0.989521 5.19882 1.80367
198 1 -0.814664 6.15807 1.17008
197 2 0.111305 6.00522 0.602841
87 1 2.13623 0.226294 6.86321
33 2 4.18515 5.42112 4.78026
279 2 0.987962 0.461267 6.95631
80 2 3.77806 0.247711 7.80599
205 2 0.705119 0.0344293 1.42425
94 4 0.247754 2.02157 12.1463
95 4 2.74553 2.32435 10.7734
98 4 2.18276 6.54794 17.0204
219 2 3.15757 2.11913 15.8578
103 2 0.142422 0.70913 11.1042
104 2 -0.736005 3.1798 11.2515
105 2 -0.649458 1.60811 13.5238
108 2 1.05983 5.20148 16.14
111 2 2.721 3.38427 13.4176
290 1 0.747414 0.823798 15.9818
120 2 0.408728 6.43973 12.9426
132 3 1.91526 1.44118 9.55318
133 3 1.66394 2.52855 12.4363
134 3 4.15692 1.57724 11.2149
168 2 -0.604047 5.88262 9.81148
136 3 2.90836 3.78645 9.96968
131 1 0.439946 6.67234 16.0866
276 2 3.98797 0.689674 13.4436
144 2 -2.42084 4.93653 14.9041
301 2 -0.408487 0.99641 9.19464
156 2 -1.80346 3.6621 9.66093
220 1 4.27729 1.91576 15.8426
289 2 -0.00305058 1.36491 16.6849
149 3 -4.66986 6.45568 15.4127
288 2 1.48586 1.43766 15.4099
142 4 -3.05213 6.41281 15.3004
167 2 -0.727395 5.00187 11.3526
176 1 -0.551518 4.86409 10.2795
217 2 4.63251 0.913807 15.6395
166 2 0.462059 4.35929 10.0988
16 2 3.40109 0.38641 16.7317
99 4 3.00666 5.21773 9.21786
143 2 -2.40882 6.67079 16.9365
109 2 2.06788 6.53611 9.84765
208 4 -4.26223 9.45958 0.286341
171 2 -4.18429 10.5211 7.29911
230 2 -0.0893133 10.6394 3.70059
153 4 -3.88738 8.30956 8.09856
154 4 0.768521 6.76734 5.46408
155 4 2.05413 7.85216 2.81736
22 2 -2.63659 12.2988 3.9312
160 2 1.8474 7.55128 6.45799
83 2 -4.75885 12.0932 6.16061
177 1 -3.25044 9.96007 7.7253
169 2 -2.29835 10.0516 7.08614
182 3 -2.99756 7.34324 7.28459
183 3 -0.770119 7.27648 5.74028
184 3 1.25629 6.89073 3.99686
185 3 1.34507 8.76476 1.78693
193 4 -2.48914 7.32148 1.60242
194 2 -0.68892 7.52018 2.22235
232 1 -0.0796969 11.4419 4.47437
234 4 0.521419 9.69715 0.642769
199 3 -3.30571 6.61 2.70507
200 3 -3.02265 8.76077 0.886765
202 2 -4.75764 11.8193 2.80674
203 2 -4.62474 10.0978 3.66173
204 2 -4.98218 11.74 4.80824
161 2 2.94626 6.72727 1.82455
206 1 -5.05906 11.1641 3.72397
211 4 -0.366668 12.4543 1.64398
212 2 -1.91116 12.1981 2.39338
77 4 -4.92405 12.7977 8.80226
214 3 0.056297 11.1093 1.13823
228 2 -1.01688 12.1388 4.27967
229 2 -0.490126 10.3494 5.8591
309 3 -3.97776 11.0016 0.0331973
151 4 -4.43342 6.79534 10.9368
78 4 -5.42748 10.7838 10.9313
79 4 -4.19327 11.9912 13.5535
147 2 -2.09591 7.1182 13.3316
235 2 0.0655969 10.4369 16.6077
82 2 -4.77777 9.24896 10.6495
84 2 -2.49553 10.3009 13.6732
85 2 -3.91854 10.217 14.9312
86 2 -2.3353 11.175 15.2766
88 1 -3.03138 10.8335 14.4808
89 3 -5.17586 11.3702 9.47362
90 3 -4.70095 11.3928 12.1795
119 2 -0.370305 7.96067 13.6323
277 2 -1.34488 11.567 13.8605
271 3 -6.96142 10.6093 11.3016
146 2 -3.58869 8.31372 13.6112
148 1 -2.72929 7.78305 14.0514
145 2 -2.02801 8.47313 14.8636
118 2 0.407468 8.03486 11.8924
1 4 -5.40491 12.8938 17.4301
236 2 -0.445091 8.51997 16.2437
239 1 -0.915482 9.61088 16.5116
129 1 0.495694 7.55568 12.9553
283 2 -5.99638 9.05785 14.9759
231 1 -0.251444 12.1816 10.0588
181 3 -3.95144 7.90933 9.97165
238 2 -2.46185 8.99722 17.5336
237 2 -1.65237 10.0167 15.6809
226 2 -1.37 12.2984 10.1201
225 2 -0.0832552 11.114 9.65868
125 2 1.14854 8.06873 17.0477
81 2 -5.34334 12.6186 14.6686
124 2 0.412042 6.92994 14.9477
287 2 -7.10135 13.0038 15.1579
157 2 -3.73257 7.08496 12.48
126 2 -0.627771 6.71119 16.4922
170 2 -3.10701 10.3253 8.87623
2 4 11.3617 5.90838 3.90029
9 4 6.21306 6.14947 3.55314
5 4 11.1736 0.625198 1.8513
61 3 7.55823 6.08286 4.43145
7 4 12.0374 1.73954 6.28084
8 4 9.75121 3.35696 2.52795
62 3 9.3435 5.19192 6.24284
35 2 10.8543 5.58593 8.49702
11 4 9.98374 4.03352 7.09051
19 2 8.67199 3.42432 7.97783
294 2 7.14111 2.50632 7.24569
18 2 11.2886 0.419933 5.47502
128 1 4.71997 5.66536 8.70888
29 2 8.06903 1.90924 3.47037
30 2 7.4186 3.73126 3.31161
31 2 8.66799 3.26015 4.67441
117 2 5.41902 4.77126 8.77131
116 2 4.27713 5.94296 7.52785
44 1 8.27292 3.04992 3.60095
286 2 14.2076 0.07038 1.70824
291 2 5.96558 1.8707 8.54115
52 3 12.4722 1.10044 0.98594
53 3 13.2039 2.02119 5.12241
54 3 12.6892 1.24987 7.61087
55 3 10.3186 1.85122 2.35898
56 3 10.8062 4.43997 3.39484
57 3 5.98898 4.724 2.64749
58 3 9.13697 4.07968 0.866038
59 3 10.9396 2.78802 6.58394
75 2 13.0121 3.59383 2.80707
293 1 7.06827 2.25652 8.36571
91 4 13.7016 1.78684 0.251434
274 2 14.5334 0.5695 3.24871
12 4 8.82816 6.4293 5.42476
221 4 7.89854 0.478709 8.7409
10 4 8.90968 5.71219 0.0536122
45 1 4.76466 6.34833 4.80434
28 2 13.4687 0.692554 10.5303
36 2 11.1854 3.68312 9.16804
37 2 9.43554 4.59145 9.59149
297 2 9.41407 0.94797 10.6875
138 3 3.20187 5.95112 12.6918
92 2 12.5561 1.18107 16.6457
93 2 11.3045 2.91749 16.5575
46 1 10.3974 4.52087 8.88698
295 2 9.81796 1.9334 9.10113
102 4 4.95865 6.08719 15.5142
218 2 4.91727 2.75208 15.2361
107 2 6.56544 2.20794 10.3339
249 2 7.68817 5.52616 9.16027
114 2 7.04251 2.70919 15.092
127 1 7.40335 1.04925 15.2298
137 3 5.11955 4.0265 12.2325
299 2 8.54546 0.695377 15.1296
139 3 4.42231 4.83859 14.6741
140 3 6.02977 5.63452 16.6715
186 4 9.17782 6.41032 15.5253
187 4 7.93107 3.92561 14.0219
188 2 8.66912 2.36788 14.52
189 2 8.27074 3.81913 12.2642
190 2 6.41681 4.12308 13.2211
191 3 8.52089 6.42691 17.1914
192 3 8.42376 5.26978 14.6878
135 3 6.09635 1.4356 12.8717
252 2 6.33936 5.78966 12.8321
298 1 9.62674 0.879449 9.59971
251 2 8.51666 3.83539 10.537
242 2 11.4211 1.91562 12.626
243 2 11.7377 0.979141 10.9969
292 2 7.37228 3.18055 9.15057
245 1 12.1309 1.25499 12.0158
97 4 5.46772 2.27044 11.6298
244 2 13.0453 0.962914 14.6533
255 1 7.72402 4.58335 10.5915
250 2 6.59836 4.21014 10.8666
247 4 7.86657 6.42125 10.9545
100 4 3.92002 4.60037 13.191
300 2 6.73881 0.478438 16.0342
43 1 14.2888 0.275749 9.63717
215 4 4.90148 2.66942 17.5263
216 2 6.5059 3.29492 17.6127
241 2 13.2093 1.68564 11.9846
162 2 11.3908 5.18144 10.5037
96 4 6.77976 0.291975 13.7834
115 2 4.87579 6.50952 9.46255
13 4 7.40682 8.05082 1.50696
14 4 6.82782 8.08798 7.09367
15 4 6.51127 10.6171 5.72309
39 2 5.428 12.4411 4.57376
201 4 8.58839 10.923 3.20773
285 2 7.80281 11.2556 1.13171
34 2 4.17259 7.37929 4.44095
38 2 4.71448 10.7679 4.07743
158 2 9.91597 7.9796 7.48687
40 2 4.09094 11.4996 5.74273
6 4 5.93675 12.5604 8.18558
47 1 4.91137 11.486 4.93097
63 3 6.15925 7.50941 2.55387
64 3 8.22125 6.81296 0.948608
65 3 8.44005 9.16782 2.24286
66 3 6.74546 8.87621 0.166371
67 3 8.32459 7.5765 6.84165
68 3 7.67981 10.8567 4.57742
69 3 6.07287 8.97945 6.01184
70 3 6.82465 11.5424 7.04122
172 2 2.65043 10.0403 3.60245
173 2 4.10156 8.80643 3.28378
174 2 3.2436 8.87878 5.02114
178 1 3.12462 9.01447 3.89237
20 2 6.96355 9.01412 8.46301
224 2 2.4423 10.209 5.96294
213 2 0.388222 12.7954 3.08112
223 2 1.3418 12.3935 4.42138
222 4 1.13471 11.3148 5.97959
233 3 1.10877 12.2448 7.29975
267 2 4.33817 8.93071 8.44379
60 3 10.0345 6.96119 4.4822
21 2 5.69309 6.88572 7.50668
209 2 9.76092 9.23923 1.28606
278 2 4.35095 12.4032 3.23783
207 1 7.96583 12.2164 1.80482
17 2 2.97842 12.2415 1.1122
32 2 5.27512 6.5202 5.83733
296 2 3.24012 12.8886 9.38212
122 2 3.47994 7.89549 9.62773
113 2 5.65775 7.21862 14.497
307 2 2.82775 12.4202 12.1331
123 2 3.92852 8.63862 11.8996
130 1 2.86534 8.09386 10.569
265 4 4.725 10.1736 9.58274
246 1 5.50679 12.6106 15.1138
308 1 3.04921 11.8037 13.0815
248 2 6.60414 7.65333 10.9025
106 2 1.24619 12.5625 13.1627
254 2 7.32521 7.31869 13.5202
256 1 6.57593 6.90822 12.7211
258 4 4.44856 10.0985 16.6306
259 2 5.50186 10.6862 15.258
260 2 3.01149 9.4722 15.8112
261 2 1.94163 11.4494 16.1925
264 1 2.68571 10.8515 16.7274
303 2 6.25458 12.3117 15.8416
112 2 1.77263 8.30242 13.9316
284 1 8.73772 8.15239 14.7627
266 4 6.91814 10.2616 11.5257
268 2 3.48403 9.94731 10.7835
269 2 6.97408 8.82737 12.4139
304 2 4.50939 12.6752 15.5862
272 3 6.17265 9.82629 10.1892
273 3 6.01135 11.3137 12.4937
281 2 7.62383 8.30517 15.0167
282 2 8.94296 7.80533 13.6795
240 4 4.95731 12.3418 13.1251
253 2 5.60531 7.43701 12.5693
257 3 9.41928 6.88581 11.1325
305 2 2.66469 12.244 13.9894
306 2 2.90742 10.6334 13.0293
101 4 2.58244 7.44346 12.3959
227 2 0.260942 12.3732 11.0309
121 2 1.92941 8.72459 10.3659
262 2 3.92497 11.8489 17.3291
210 2 8.71404 9.03131 16.5921
141 3 3.52922 6.76941 16.1379
270 3 4.5493 11.5461 8.8792
302 2 7.58799 12.0571 9.88167
263 2 2.25512 10.4111 17.617
ITEM: TIMESTEP
300
ITEM: NUMBER OF ATOMS
310
ITEM: BOX BOUNDS xy xz yz pp pp pp
-9.0288000000000004e+00 1.5411400000000000e+01 -7.2027000000000001e+00
0.0000000000000000e+00 1.3079499999999999e+01 -1.8261000000000001e+00
0.0000000000000000e+00 1.7678433999999999e+01 3.3839999999999998e-01
ITEM: ATOMS id type x y z
4 4 4.8291 4.13314 1.65026
3 4 3.44518 1.62699 2.47951
280 2 2.54646 1.08216 6.33465
71 4 -1.09967 2.17736 3.93037
23 2 4.2195 1.14762 4.81422
24 2 5.59349 1.04152 3.67212
25 2 0.963109 0.706166 2.66608
26 2 1.25605 2.65294 3.02573
27 2 2.07203 1.21014 4.24485
41 1 4.55642 0.687546 3.876
42 1 1.59862 1.55997 3.17007
48 3 3.34581 0.728928 1.16249
49 3 3.72888 3.28941 2.41835
51 3 4.0286 5.7359 0.92017
152 4 -2.03266 6.4037 6.29401
72 2 0.495792 2.22814 4.63654
73 2 -1.29095 3.52262 0.716656
74 2 -0.635321 4.19203 3.04075
310 3 6.95929 0.998377 0.778004
76 1 -1.31514 3.37466 2.61696
275 2 -0.400304 2.15494 1.50299
110 2 1.91836 5.1774 7.72065
50 3 5.46071 3.3053 0.407125
150 4 -0.69366 4.22506 8.17311
159 2 0.655991 5.06615 5.86965
163 2 1.46831 3.56749 6.27624
164 2 -0.24259 2.43414 7.31313
165 2 1.58664 3.47177 8.15398
175 1 0.865928 3.64905 7.23943
179 3 -2.90359 5.75563 5.13539