LAMMPS (2 Aug 2023 - Update 2)
  using 1 OpenMP thread(s) per MPI task
# Initialization
units           real
dimension       3
boundary        p p p
atom_style      full
timestep        0.5   # fs

variable       nevery equal 1000
variable       nrepeat equal 1
variable       nfreq equal ${nevery}*${nrepeat}
variable       nfreq equal 1000*${nrepeat}
variable       nfreq equal 1000*1
variable       nthermo equal ${nfreq}/10
variable       nthermo equal 1000/10
variable       nrun equal 1200*${nthermo}          # stpes of equilibrated run 1000 (30 min)
variable       nrun equal 1200*100          

variable temp equal 300.0                # temperature of initial sample
variable tdamp equal 50.0                 # time constant for thermostat
variable seed equal 123456                # seed for thermostat
variable ufac equal 1.01325e-4         # pressure unit conversion, from atm to Gpa
variable up equal .6                  # the deformation magnitude 0.01

variable FF string "SiOCHN_2018.ff C H O Si"   # force field args for pair_coeff
# pair_coeff * * CHONSSi.ff O Si
# pair_coeff * * CHOSiNa.ff O Si
# 2019: pair_coeff * * SiOCHN_2018.ff C H O Si
# pair_coeff * * PDMSDecomp.ff Si O
# 2020: pair_coeff * * CHONSi.ff C H O Si
# pair_coeff * * CHOFe.ff O Si
variable structure string 333-HD-100C-20-VASP

# Read the initial sctructure
# box tilt large
read_data       ${structure}.data
read_data       333-HD-100C-20-VASP.data
Reading data file ...
  triclinic box = (0 0 0) to (16.1249 13.4224 16.909) with tilt (-8.2539 0.6162 -0.6491)
WARNING: Triclinic box skew is large. LAMMPS will run inefficiently. (src/domain.cpp:220)
  2 by 2 by 2 MPI processor grid
  reading atoms ...
  366 atoms
Finding 1-2 1-3 1-4 neighbors ...
  special bond factors lj:    0        0        0       
  special bond factors coul:  0        0        0       
     0 = max # of 1-2 neighbors
     0 = max # of 1-3 neighbors
     0 = max # of 1-4 neighbors
     1 = max # of special neighbors
  special bonds CPU = 0.001 seconds
  read_data CPU = 0.008 seconds

# Assign the force field
pair_style reaxff NULL safezone 3.0 mincap 150
pair_coeff * * ${FF}
pair_coeff * * SiOCHN_2018.ff C H O Si
WARNING: Van der Waals parameters for element SI indicate inner wall+shielding, but earlier atoms indicate a different van der Waals method. This may cause division-by-zero errors. Keeping van der Waals setting for earlier atoms. (src/REAXFF/reaxff_ffield.cpp:251)
# charge method for reaxff
fix myqeq all qeq/reaxff 1 0.0 10.0 1.0e-6 reaxff maxiter 400

# # Energy minimization
# print "*****Minimization starts.*****"
# dump dump_opt all custom 1 dump/dump_opt.lammpstrj id type q x y z
# minimize 1.0e-6 1.0e-6 100 1000
# min_style cg
# # Save the optimized structure
# write_data ${structure}_opt.data
# undump dump_opt
# unfix bondinfo

velocity        all create ${temp} ${seed} dist gaussian
velocity        all create 300 ${seed} dist gaussian
velocity        all create 300 123456 dist gaussian

# # Equilibration
# variable       nequil equal 10*${nthermo}  # 2000: 100 ps
# include ff.mod.lmp
# if "$(is_defined(fix,avgp))" then "unfix avgp"
# if "$(is_defined(fix,avgl))" then "unfix avgl"
# thermo_style custom step temp pe press density vol
# dump dump_eq all custom ${nthermo} dump/dump_eq.lammpstrj id type q x y z

# run ${nequil}
# # Save the equilibrated structure
# write_data ${structure}_eq.data
# undump dump_eq

# use tmp to save initial length and tilt
variable tmp equal lx
variable lx0 equal ${tmp}
variable lx0 equal 16.1249
variable tmp equal ly
variable ly0 equal ${tmp}
variable ly0 equal 13.4224
variable tmp equal lz
variable lz0 equal ${tmp}
variable lz0 equal 16.909

variable tmp equal yz
variable yz0 equal ${tmp}
variable yz0 equal -0.6491
variable tmp equal xz
variable xz0 equal ${tmp}
variable xz0 equal 0.6162
variable tmp equal xy
variable xy0 equal ${tmp}
variable xy0 equal -8.2539

# velocity all create ${temp} ${seed} dist gaussian
# Write restart
write_restart equil.res
System init for write_restart ...
WARNING: Fix qeq/reaxff group is not charge neutral, net charge = -29.52 (src/REAXFF/fix_qeq_reaxff.cpp:392)
Neighbor list info ...
  update: every = 1 steps, delay = 0 steps, check = yes
  max neighbors/atom: 2000, page size: 100000
  master list distance cutoff = 12
  ghost atom cutoff = 12
  binsize = 6, bins = 5 3 3
  2 neighbor lists, perpetual/occasional/extra = 2 0 0
  (1) pair reaxff, perpetual
      attributes: half, newton off, ghost
      pair build: half/bin/newtoff/ghost
      stencil: full/ghost/bin/3d
      bin: standard
  (2) fix qeq/reaxff, perpetual, copy from (1)
      attributes: half, newton off
      pair build: copy
      stencil: none
      bin: none

# uzz Perturbation
variable dir equal 3
include displace.mod.lmp
# Find which length (epsilon) to calculate
if "${dir} == 1" then    "variable len0 equal ${lx0}"    "variable dlen equal lx-${len0}"
if "${dir} == 2" then    "variable len0 equal ${ly0}"    "variable dlen equal ly-${len0}"
if "${dir} == 3" then    "variable len0 equal ${lz0}"    "variable dlen equal lz-${len0}"
variable len0 equal ${lz0}
variable len0 equal 16.909
variable dlen equal lz-${len0}
variable dlen equal lz-16.909
if "${dir} == 4" then    "variable len0 equal ${lx0}"    "variable dlen equal 2*(yz-${yz0})"
if "${dir} == 5" then    "variable len0 equal ${ly0}"    "variable dlen equal 2*(xz-${xz0})"
if "${dir} == 6" then    "variable len0 equal ${lz0}"    "variable dlen equal 2*(xy-${xy0})"

# strain vector (epsilon)
variable eps equal v_dlen/v_len0

# stress vector (sigma)
variable sig1 equal -f_avgp[1]*${ufac}
variable sig1 equal -f_avgp[1]*0.000101325
variable sig2 equal -f_avgp[2]*${ufac}
variable sig2 equal -f_avgp[2]*0.000101325
variable sig3 equal -f_avgp[3]*${ufac}
variable sig3 equal -f_avgp[3]*0.000101325
variable sig4 equal -f_avgp[6]*${ufac}
variable sig4 equal -f_avgp[6]*0.000101325
variable sig5 equal -f_avgp[5]*${ufac}
variable sig5 equal -f_avgp[5]*0.000101325
variable sig6 equal -f_avgp[4]*${ufac}
variable sig6 equal -f_avgp[4]*0.000101325

# Reset box and simulation parameters
clear
  using 1 OpenMP thread(s) per MPI task
# box tilt large
read_restart equil.res
Reading restart file ...
  restart file = 2 Aug 2023, LAMMPS = 2 Aug 2023
  restoring atom style full from restart
  triclinic box = (0 0 0) to (16.1249 13.4224 16.909) with tilt (-8.2539 0.6162 -0.6491)
WARNING: Triclinic box skew is large. LAMMPS will run inefficiently. (src/domain.cpp:220)
  2 by 2 by 2 MPI processor grid
  pair style reaxff stores no restart info
  366 atoms
Finding 1-2 1-3 1-4 neighbors ...
  special bond factors lj:    0        0        0       
  special bond factors coul:  0        0        0       
     0 = max # of 1-2 neighbors
     0 = max # of 1-3 neighbors
     0 = max # of 1-4 neighbors
     1 = max # of special neighbors
  special bonds CPU = 0.000 seconds
  read_restart CPU = 0.003 seconds

# Positive deformation
variable delta equal ${up}*${len0}
variable delta equal 0.6*${len0}
variable delta equal 0.6*16.909
variable deltaxy equal ${up}*xy
variable deltaxy equal 0.6*xy
variable deltaxz equal ${up}*xz
variable deltaxz equal 0.6*xz
variable deltayz equal ${up}*yz
variable deltayz equal 0.6*yz
if "${dir} == 1" then    "fix deform_p all deform ${nthermo} x delta 0 ${delta} xy delta ${deltaxy} xz delta ${deltaxz} remap v units box flip no"
if "${dir} == 2" then    "fix deform_p all deform ${nthermo} y delta 0 ${delta} yz delta ${deltayz} remap v units box flip no"
if "${dir} == 3" then    "fix deform_p all deform ${nthermo} z delta 0 ${delta} remap v units box"
fix deform_p all deform ${nthermo} z delta 0 ${delta} remap v units box
fix deform_p all deform 100 z delta 0 ${delta} remap v units box
fix deform_p all deform 100 z delta 0 10.1454 remap v units box
if "${dir} == 4" then    "fix deform_p all deform ${nthermo} yz delta ${delta} remap v units box flip no"
if "${dir} == 5" then    "fix deform_p all deform ${nthermo} xz delta ${delta} remap v units box flip no"
if "${dir} == 6" then    "fix deform_p all deform ${nthermo} xy delta ${delta} remap v units box flip no"

# Run deformation MD
print "*****Positive-deform ${dir} starts.*****"
*****Positive-deform 3 starts.*****
# Save bond information
fix bondinfo all reaxff/bonds ${nthermo} bonds/bonds.pos${dir}.reaxff
fix bondinfo all reaxff/bonds 100 bonds/bonds.pos${dir}.reaxff
fix bondinfo all reaxff/bonds 100 bonds/bonds.pos3.reaxff
# Reset neighbor style
neighbor        2 bin
neigh_modify    every 10 delay 0 check no

include ff.mod.lmp
# Setup forcefield, system
# undefine any fix ave/* fix before using reset_timestep
if "$(is_defined(fix,avgp))" then "unfix avgp"
if "$(is_defined(fix,avgl))" then "unfix avgl"
reset_timestep 0

# Assign the force field
pair_style reaxff NULL safezone 3.0 mincap 150
pair_coeff * * ${FF}
pair_coeff * * SiOCHN_2018.ff C H O Si
WARNING: Van der Waals parameters for element SI indicate inner wall+shielding, but earlier atoms indicate a different van der Waals method. This may cause division-by-zero errors. Keeping van der Waals setting for earlier atoms. (src/REAXFF/reaxff_ffield.cpp:251)

# charge method for reaxff
fix myqeq all qeq/reaxff 1 0.0 10.0 1.0e-6 reaxff maxiter 400
# fix bondinfo all reaxff/bonds ${nthermo} bonds.reaxff
# Setup neighbor style
neighbor        2 bin
neigh_modify    every 10 delay 0 check no

# Setup output
thermo		${nthermo}
thermo		100
thermo_style custom step temp press vol lz density
# thermo_style custom step vol lx ly lz yz xz xy
thermo_modify norm no
# thermo_modify line multi

# Sample pressure (and length vector)
fix avgp all ave/time  ${nevery} ${nrepeat} ${nfreq} c_thermo_press mode vector
fix avgp all ave/time  1000 ${nrepeat} ${nfreq} c_thermo_press mode vector
fix avgp all ave/time  1000 1 ${nfreq} c_thermo_press mode vector
fix avgp all ave/time  1000 1 1000 c_thermo_press mode vector
# fix avgp all ave/time  10 10 ${nthermo} c_thermo_press mode vector
# variable lx equal lx
# variable ly equal ly
# variable lz equal lz
# fix avgl all ave/time  ${nevery} ${nrepeat} ${nfreq} v_lx v_ly v_lz

# nvt
fix fnvt all nvt temp ${temp} ${temp} ${tdamp}
fix fnvt all nvt temp 300 ${temp} ${tdamp}
fix fnvt all nvt temp 300 300 ${tdamp}
fix fnvt all nvt temp 300 300 50


# Save stress, strain to "./stress_strain/stress_strain.pos${dir}.out"
print "# Stress and strain vectors, ${structure}, positive deformation ${dir}"       file stress_strain/stress_strain.pos${dir}.out screen no
print "# Stress and strain vectors, ${structure}, positive deformation ${dir}"       file stress_strain/stress_strain.pos3.out screen no
fix data all print ${nfreq} "${eps} ${sig1} ${sig2} ${sig3} ${sig4} ${sig5} ${sig6}"       append stress_strain/stress_strain.pos${dir}.out screen no       title "# eps sig1 sig2 sig3 sig4 sig5 sig6"
fix data all print 1000 "${eps} ${sig1} ${sig2} ${sig3} ${sig4} ${sig5} ${sig6}"       append stress_strain/stress_strain.pos${dir}.out screen no       title "# eps sig1 sig2 sig3 sig4 sig5 sig6"
fix data all print 1000 "${eps} ${sig1} ${sig2} ${sig3} ${sig4} ${sig5} ${sig6}"       append stress_strain/stress_strain.pos3.out screen no       title "# eps sig1 sig2 sig3 sig4 sig5 sig6"

# compute MSD and RDF
compute msd1 all msd
fix myMSD all ave/time 10 10 ${nthermo} c_msd1[1] c_msd1[2] c_msd1[3] c_msd1[4] c_thermo_temp     file msd.out     title2 "# TimeStep MSD_X MSD_Y MSD_Z MSD_Total Temperture"
fix myMSD all ave/time 10 10 100 c_msd1[1] c_msd1[2] c_msd1[3] c_msd1[4] c_thermo_temp     file msd.out     title2 "# TimeStep MSD_X MSD_Y MSD_Z MSD_Total Temperture"
# C-C C-Si Si-O C-H Si-Si
compute rdf1 all rdf 100  1 1  1 4  3 4  1 2 cutoff 5.0
fix myRDF all ave/time ${nevery} ${nrepeat} ${nfreq} c_rdf1[*]     file rdf.out mode vector     title3 "# Row r g1(r) coor1(r) ..."
fix myRDF all ave/time 1000 ${nrepeat} ${nfreq} c_rdf1[*]     file rdf.out mode vector     title3 "# Row r g1(r) coor1(r) ..."
fix myRDF all ave/time 1000 1 ${nfreq} c_rdf1[*]     file rdf.out mode vector     title3 "# Row r g1(r) coor1(r) ..."
fix myRDF all ave/time 1000 1 1000 c_rdf1[*]     file rdf.out mode vector     title3 "# Row r g1(r) coor1(r) ..."

# save trajectory
# if "$(is_defined(dump,dump_pos${dir1}))" then "undump dump_pos${dir1}"
dump dump_pos${dir} all custom ${nthermo} dump/pos${dir}_deform.lammpstrj id type q x y z element
dump dump_pos3 all custom ${nthermo} dump/pos${dir}_deform.lammpstrj id type q x y z element
dump dump_pos3 all custom 100 dump/pos${dir}_deform.lammpstrj id type q x y z element
dump dump_pos3 all custom 100 dump/pos3_deform.lammpstrj id type q x y z element
dump_modify dump_pos${dir} element C H O Si
dump_modify dump_pos3 element C H O Si
run ${nrun}
run 120000

CITE-CITE-CITE-CITE-CITE-CITE-CITE-CITE-CITE-CITE-CITE-CITE-CITE

Your simulation uses code contributions which should be cited:

- pair reaxff command: doi:10.1016/j.parco.2011.08.005

@Article{Aktulga12,
 author = {H. M. Aktulga and J. C. Fogarty and S. A. Pandit and A. Y. Grama},
 title = {Parallel Reactive Molecular Dynamics: {N}umerical Methods and Algorithmic Techniques},
 journal = {Parallel Computing},
 year =    2012,
 volume =  38,
 number =  {4--5},
 pages =   {245--259}
}

- fix qeq/reaxff command: doi:10.1016/j.parco.2011.08.005

@Article{Aktulga12,
 author = {H. M. Aktulga and J. C. Fogarty and S. A. Pandit and A. Y. Grama},
 title = {Parallel Reactive Molecular Dynamics: {N}umerical Methods and Algorithmic Techniques},
 journal = {Parallel Computing},
 year =    2012,
 volume =  38,
 pages =   {245--259}
}

CITE-CITE-CITE-CITE-CITE-CITE-CITE-CITE-CITE-CITE-CITE-CITE-CITE

WARNING: Compute rdf cutoff less than neighbor cutoff - forcing a needless neighbor list build (src/compute_rdf.cpp:179)
WARNING: Fix qeq/reaxff group is not charge neutral, net charge = -29.52 (src/REAXFF/fix_qeq_reaxff.cpp:392)
Neighbor list info ...
  update: every = 10 steps, delay = 0 steps, check = no
  max neighbors/atom: 2000, page size: 100000
  master list distance cutoff = 12
  ghost atom cutoff = 12
  binsize = 6, bins = 5 3 3
  3 neighbor lists, perpetual/occasional/extra = 2 1 0
  (1) pair reaxff, perpetual
      attributes: half, newton off, ghost
      pair build: half/bin/newtoff/ghost
      stencil: full/ghost/bin/3d
      bin: standard
  (2) compute rdf, occasional
      attributes: half, newton on, cut 7
      pair build: half/bin/newton/tri
      stencil: half/bin/3d/tri
      bin: standard
  (3) fix qeq/reaxff, perpetual, copy from (1)
      attributes: half, newton off
      pair build: copy
      stencil: none
      bin: none
Per MPI rank memory allocation (min/avg/max) = 143.3 | 145.1 | 146.8 Mbytes
   Step          Temp          Press          Volume           Lz          Density    
         0   300            18686.397      3659.697       16.909         1.9525358    
       100   635.42129      5996.9541      3661.5269      16.917454      1.95156      
       200   507.40659     -2445.3151      3663.3567      16.925909      1.9505852    
       300   389.10258     -194.59554      3665.1866      16.934363      1.9496114    
       400   328.65787     -466.85161      3667.0164      16.942818      1.9486385    
       500   286.13449      4215.3274      3668.8463      16.951272      1.9476666    
       600   269.24092     -16079.347      3670.6761      16.959727      1.9466957    
       700   264.94735     -2491.7653      3672.5059      16.968182      1.9457258    
       800   299.1711      -10745.689      3674.3358      16.976636      1.9447568    
       900   331.67871     -5886.7513      3676.1656      16.98509       1.9437888    
      1000   329.25695      423.66882      3677.9955      16.993545      1.9428217    
      1100   313.14128      2000.1872      3679.8253      17.002         1.9418556    
      1200   269.93205      5397.6052      3681.6552      17.010454      1.9408905    
      1300   285.38746     -16879.16       3683.485       17.018908      1.9399263    
      1400   286.60231     -7251.4609      3685.3149      17.027363      1.9389631    
      1500   290.146       -13285.57       3687.1447      17.035818      1.9380008    
      1600   306.26081     -9469.8558      3688.9746      17.044272      1.9370395    
      1700   310.17542     -9724.6808      3690.8044      17.052726      1.9360791    
      1800   304.97881     -20107.936      3692.6343      17.061181      1.9351197    
      1900   293.09127     -9152.9476      3694.4641      17.069636      1.9341613    
      2000   298.72631     -592.52243      3696.294       17.07809       1.9332038    
      2100   299.16325     -14520.958      3698.1238      17.086544      1.9322472    
      2200   304.22973     -9307.2614      3699.9537      17.094999      1.9312916    
      2300   357.20225      819.21503      3701.7835      17.103454      1.9303369    
      2400   303.19018      498.7142       3703.6134      17.111908      1.9293832    
      2500   294.6131      -11855.824      3705.4432      17.120362      1.9284304    
      2600   279.80269     -1352.419       3707.2731      17.128817      1.9274786    
      2700   273.79069     -3281.4104      3709.1029      17.137272      1.9265277    
      2800   297.00372     -19587.338      3710.9328      17.145726      1.9255777    
      2900   314.20135     -18643.297      3712.7626      17.15418       1.9246287    
      3000   307.73271     -7070.3041      3714.5925      17.162635      1.9236806    
      3100   311.84084     -3382.1423      3716.4223      17.171089      1.9227334    
      3200   286.31636     -8943.7769      3718.2522      17.179544      1.9217872    
      3300   305.50222     -13217.931      3720.082       17.187998      1.9208419    
      3400   284.64686     -9992.8837      3721.9119      17.196453      1.9198976    
      3500   292.62873     -3307.6624      3723.7417      17.204907      1.9189541    
      3600   293.71687     -20684.952      3725.5716      17.213362      1.9180116    
      3700   286.59844     -8106.2301      3727.4014      17.221816      1.91707      
      3800   319.8255      -15870.313      3729.2313      17.230271      1.9161294    
      3900   293.24058      2718.0043      3731.0611      17.238725      1.9151896    
      4000   295.45726     -4137.042       3732.891       17.24718       1.9142508    
      4100   297.93668     -6516.3608      3734.7208      17.255634      1.9133129    
      4200   289.80872     -6581.3056      3736.5506      17.264089      1.9123759    
      4300   286.31728     -2644.7155      3738.3805      17.272543      1.9114399    
      4400   300.73469     -15837.952      3740.2103      17.280998      1.9105047    
      4500   311.40505     -687.80244      3742.0402      17.289452      1.9095705    
      4600   323.83726     -14198.826      3743.87        17.297907      1.9086372    
      4700   304.51522     -15430.34       3745.6999      17.306361      1.9077047    
      4800   283.75067     -3571.9888      3747.5297      17.314816      1.9067733    
      4900   307.69853     -5516.0726      3749.3596      17.32327       1.9058427    
      5000   290.52496     -16604.973      3751.1894      17.331725      1.904913     
      5100   324.00737     -15955.729      3753.0193      17.340179      1.9039842    
      5200   318.65825     -12588.342      3754.8491      17.348634      1.9030563    
      5300   305.18134     -2717.8278      3756.679       17.357088      1.9021294    
      5400   305.89843     -12371.504      3758.5088      17.365543      1.9012033    
      5500   296.58132     -11998.967      3760.3387      17.373997      1.9002782    
      5600   286.34119     -9484.9253      3762.1685      17.382452      1.8993539    
      5700   274.29687     -13277.461      3763.9984      17.390906      1.8984305    
      5800   318.15436     -10076.728      3765.8282      17.399361      1.8975081    
      5900   297.16963     -13456.353      3767.6581      17.407815      1.8965865    
      6000   307.6602      -17364.486      3769.4879      17.41627       1.8956658    
      6100   308.53139     -8389.7925      3771.3178      17.424724      1.8947461    
      6200   289.40417     -14612.095      3773.1476      17.433179      1.8938272    
      6300   294.55096     -16910.184      3774.9775      17.441633      1.8929092    
      6400   309.87055     -10337.567      3776.8073      17.450088      1.8919921    
      6500   321.60852     -12132.828      3778.6372      17.458543      1.8910758    
      6600   289.28946     -14342.345      3780.467       17.466997      1.8901605    
      6700   284.27586     -24339.333      3782.2969      17.475451      1.8892461    
      6800   280.8631      -20781.309      3784.1267      17.483906      1.8883325    
      6900   302.4874      -12068.837      3785.9566      17.492361      1.8874198    
      7000   317.00255     -21121.849      3787.7864      17.500815      1.886508     
      7100   316.97965     -11719.305      3789.6163      17.509269      1.8855971    
      7200   299.68716     -18018.545      3791.4461      17.517724      1.8846871    
      7300   290.38662     -16287.616      3793.276       17.526179      1.8837779    
      7400   295.65256     -18448.029      3795.1058      17.534633      1.8828696    
      7500   293.98487     -19396.805      3796.9356      17.543087      1.8819622    
      7600   286.70392     -20698.814      3798.7655      17.551542      1.8810557    
      7700   314.87495     -23282.943      3800.5953      17.559997      1.88015      
      7800   312.37532     -12546.302      3802.4252      17.568451      1.8792452    
      7900   271.2245      -20959.431      3804.255       17.576905      1.8783413    
      8000   288.83011     -12632.567      3806.0849      17.58536       1.8774383    
      8100   291.629       -20448.927      3807.9147      17.593815      1.8765361    
      8200   321.47881     -10774.75       3809.7446      17.602269      1.8756348    
      8300   302.55941     -20652.099      3811.5744      17.610723      1.8747343    
      8400   311.61791     -16095.219      3813.4043      17.619178      1.8738348    
      8500   287.51647     -26613.126      3815.2341      17.627633      1.872936     
      8600   296.86876     -17857.138      3817.064       17.636087      1.8720382    
      8700   281.18452     -10497.959      3818.8938      17.644541      1.8711412    
      8800   297.26722     -18832.897      3820.7237      17.652996      1.870245     
      8900   294.35027     -29043.483      3822.5535      17.661451      1.8693497    
      9000   313.76787     -24271.691      3824.3834      17.669905      1.8684553    
      9100   303.06617     -15087.157      3826.2132      17.678359      1.8675618    
      9200   292.5553      -29428.454      3828.0431      17.686814      1.866669     
      9300   299.59889     -16791.197      3829.8729      17.695268      1.8657772    
      9400   306.1656      -16722.552      3831.7028      17.703723      1.8648862    
      9500   321.29451     -25189.744      3833.5326      17.712177      1.863996     
      9600   320.72004     -14636.223      3835.3625      17.720632      1.8631067    
      9700   311.77623     -17145.468      3837.1923      17.729086      1.8622182    
      9800   295.37095     -6821.9213      3839.0222      17.737541      1.8613306    
      9900   300.81212     -16221.369      3840.852       17.745995      1.8604438    
     10000   276.33286     -22612.379      3842.6819      17.75445       1.8595579    
     10100   314.46396     -19147.479      3844.5117      17.762904      1.8586728    
     10200   311.95298     -20621.102      3846.3416      17.771359      1.8577886    
     10300   296.04264     -13023.005      3848.1714      17.779813      1.8569052    
     10400   299.09495     -29109.681      3850.0013      17.788268      1.8560226    
     10500   293.29493     -16718.908      3851.8311      17.796722      1.8551409    
     10600   299.08909     -19409.223      3853.661       17.805177      1.85426      
     10700   293.31414     -23199.391      3855.4908      17.813631      1.85338      
     10800   316.56207     -7868.6782      3857.3206      17.822086      1.8525008    
     10900   337.5725      -13102.09       3859.1505      17.83054       1.8516224    
     11000   343.38307     -20782.47       3860.9803      17.838995      1.8507448    
     11100   307.65637     -26796.976      3862.8102      17.847449      1.8498681    
     11200   299.31967     -15940.64       3864.64        17.855904      1.8489922    
     11300   305.14142     -16603.192      3866.4699      17.864358      1.8481172    
     11400   288.07433     -20588.33       3868.2997      17.872813      1.847243     
     11500   288.338       -30387.767      3870.1296      17.881267      1.8463696    
     11600   308.08541     -28187.884      3871.9594      17.889722      1.845497     
     11700   308.92715     -22556.288      3873.7893      17.898176      1.8446252    
     11800   287.11491     -18106.067      3875.6191      17.906631      1.8437543    
     11900   297.57051     -17058.994      3877.449       17.915085      1.8428842    
     12000   291.2239      -29880.512      3879.2788      17.92354       1.8420149    
     12100   290.96505     -32334.025      3881.1087      17.931994      1.8411465    
     12200   302.35173     -22495.354      3882.9385      17.940449      1.8402788    
     12300   298.96134     -19241.766      3884.7684      17.948904      1.839412     
     12400   289.70767     -26086.414      3886.5982      17.957358      1.838546     
     12500   289.38371     -31856.115      3888.4281      17.965812      1.8376808    
     12600   283.85388     -32739.064      3890.2579      17.974267      1.8368164    
     12700   297.60066     -26442.63       3892.0878      17.982722      1.8359528    
     12800   310.50665     -25703.447      3893.9176      17.991176      1.83509      
     12900   310.91847     -24556.643      3895.7475      17.99963       1.8342281    
     13000   282.37931     -21194.361      3897.5773      18.008085      1.833367     
     13100   295.75481     -12858.266      3899.4072      18.01654       1.8325066    
     13200   305.59706     -28828.23       3901.237       18.024994      1.8316471    
     13300   280.69306     -32349.396      3903.0669      18.033448      1.8307884    
     13400   307.94201     -30353.77       3904.8967      18.041903      1.8299305    
     13500   292.68807     -18252.423      3906.7266      18.050358      1.8290734    
     13600   306.31407     -28052.233      3908.5564      18.058812      1.8282171    
     13700   293.52333     -33815.699      3910.3863      18.067266      1.8273615    
     13800   278.33743     -24760.933      3912.2161      18.075721      1.8265068    
     13900   290.89017     -35944.148      3914.046       18.084176      1.8256529    
     14000   309.66537     -26467.376      3915.8758      18.09263       1.8247998    
     14100   310.2256      -25573.567      3917.7056      18.101084      1.8239475    
     14200   291.89062     -35372.571      3919.5355      18.109539      1.823096     
     14300   302.50113     -29416.964      3921.3653      18.117994      1.8222453    
     14400   287.69913     -26504.919      3923.1952      18.126448      1.8213953    
     14500   273.49454     -24789.835      3925.025       18.134902      1.8205462    
     14600   317.85126     -29114.58       3926.8549      18.143357      1.8196979    
     14700   303.21135     -23184.505      3928.6847      18.151812      1.8188503    
     14800   299.63316     -31762.374      3930.5146      18.160266      1.8180035    
     14900   295.67312     -25211.602      3932.3444      18.16872       1.8171576    
     15000   300.30522     -35830.492      3934.1743      18.177175      1.8163124    
     15100   263.68189     -33037.691      3936.0041      18.185629      1.815468     
     15200   291.42821     -28406.143      3937.834       18.194084      1.8146244    
     15300   307.53575     -31397.562      3939.6638      18.202538      1.8137815    
     15400   308.23161     -34835.074      3941.4937      18.210993      1.8129395    
     15500   279.59584     -37593.977      3943.3235      18.219448      1.8120982    
     15600   320.10383     -34019.499      3945.1534      18.227902      1.8112577    
     15700   289.68804     -26443.114      3946.9832      18.236356      1.810418     
     15800   311.67365     -27842.374      3948.8131      18.244811      1.8095791    
     15900   301.16994     -38013.958      3950.6429      18.253265      1.8087409    
     16000   281.81328     -33313.137      3952.4728      18.26172       1.8079035    
     16100   299.81636     -36436.855      3954.3026      18.270174      1.8070669    
     16200   310.32531     -29466.909      3956.1325      18.278629      1.8062311    
     16300   287.60363     -26981.423      3957.9623      18.287083      1.805396     
     16400   282.88688     -35968.163      3959.7922      18.295538      1.8045617    
     16500   304.4112      -39614.26       3961.622       18.303992      1.8037282    
     16600   298.09385     -38136.154      3963.4519      18.312447      1.8028955    
     16700   291.16813     -37229.854      3965.2817      18.320901      1.8020635    
     16800   303.39452     -33629.7        3967.1116      18.329356      1.8012323    
     16900   333.17146     -37733.199      3968.9414      18.33781       1.8004019    
     17000   299.85175     -39298.376      3970.7713      18.346265      1.7995722    
     17100   281.19212     -29497.264      3972.6011      18.354719      1.7987433    
     17200   284.59085     -35643.323      3974.431       18.363174      1.7979151    
     17300   275.62065     -36047.974      3976.2608      18.371628      1.7970877    
     17400   305.41266     -45288.63       3978.0906      18.380083      1.7962611    
     17500   306.881       -41963.607      3979.9205      18.388537      1.7954352    
     17600   292.46944     -37818.489      3981.7503      18.396992      1.7946101    
     17700   297.6722      -35260.799      3983.5802      18.405447      1.7937858    
     17800   279.09248     -37643.364      3985.41        18.413901      1.7929622    
     17900   298.56895     -32960.653      3987.2399      18.422355      1.7921393    
     18000   312.73022     -34590.263      3989.0697      18.43081       1.7913173    
     18100   286.18138     -34493.059      3990.8996      18.439265      1.7904959    
     18200   306.14435     -37074.553      3992.7294      18.447719      1.7896754    
     18300   305.79583     -34230.151      3994.5593      18.456173      1.7888555    
     18400   302.54894     -39697.266      3996.3891      18.464628      1.7880365    
     18500   280.04347     -41124.89       3998.219       18.473083      1.7872181    
     18600   304.85334     -34635.335      4000.0488      18.481537      1.7864006    
     18700   289.65621     -35647.057      4001.8787      18.489991      1.7855837    
     18800   324.13524     -38762.608      4003.7085      18.498446      1.7847677    
     18900   293.09858     -44045.048      4005.5384      18.506901      1.7839523    
     19000   290.44802     -35643.05       4007.3682      18.515355      1.7831377    
     19100   312.62664     -37406.094      4009.1981      18.523809      1.7823239    
     19200   292.78579     -29331.614      4011.0279      18.532264      1.7815108    
     19300   279.65515     -38622.047      4012.8578      18.540719      1.7806984    
     19400   288.0953      -41086.615      4014.6876      18.549173      1.7798868    
     19500   300.70543     -36682.349      4016.5175      18.557627      1.7790759    
     19600   300.72482     -39413.864      4018.3473      18.566082      1.7782658    
     19700   290.89926     -39173.383      4020.1772      18.574537      1.7774564    
     19800   298.90146     -35413.424      4022.007       18.582991      1.7766477    
     19900   276.60502     -42959.27       4023.8369      18.591445      1.7758398    
     20000   286.94286     -42958.253      4025.6667      18.5999        1.7750326    
     20100   307.50542     -36795.098      4027.4966      18.608355      1.7742261    
     20200   299.6459      -39765.329      4029.3264      18.616809      1.7734204    
     20300   310.75544     -37019.139      4031.1563      18.625263      1.7726154    
     20400   297.71819     -41379.184      4032.9861      18.633718      1.7718111    
     20500   282.1199      -40293.861      4034.816       18.642173      1.7710075    
     20600   304.98693     -40901.236      4036.6458      18.650627      1.7702047    
     20700   297.76464     -43785.984      4038.4757      18.659081      1.7694026    
     20800   290.27504     -40849.958      4040.3055      18.667536      1.7686013    
     20900   307.67879     -45239.114      4042.1353      18.67599       1.7678006    
     21000   281.05063     -40852.028      4043.9652      18.684445      1.7670007    
     21100   292.99562     -43065.694      4045.795       18.692899      1.7662015    
     21200   280.25078     -49495.336      4047.6249      18.701354      1.7654031    
     21300   319.35411     -42674.563      4049.4547      18.709808      1.7646053    
     21400   299.43693     -37107.934      4051.2846      18.718263      1.7638083    
     21500   306.9938      -38592.253      4053.1144      18.726717      1.763012     
     21600   305.14407     -44644.697      4054.9443      18.735172      1.7622164    
     21700   313.4171      -43375.331      4056.7741      18.743626      1.7614216    
     21800   299.68206     -41530.111      4058.604       18.752081      1.7606274    
     21900   309.21247     -48930.307      4060.4338      18.760535      1.759834     
     22000   311.08676     -43099.778      4062.2637      18.76899       1.7590413    
     22100   298.54955     -38508.442      4064.0935      18.777444      1.7582493    
     22200   294.99561     -30709.639      4065.9234      18.785899      1.757458     
     22300   288.28117     -43193.706      4067.7532      18.794353      1.7566674    
     22400   281.02908     -52473.574      4069.5831      18.802808      1.7558775    
     22500   317.11583     -39583.435      4071.4129      18.811262      1.7550884    
     22600   310.08862     -48186.992      4073.2428      18.819717      1.7542999    
     22700   298.91067     -46061.114      4075.0726      18.828171      1.7535122    
     22800   305.2975      -46385.17       4076.9025      18.836626      1.7527251    
     22900   282.99012     -50015.121      4078.7323      18.84508       1.7519388    
     23000   288.95647     -47576.443      4080.5622      18.853535      1.7511532    
     23100   295.59782     -42449.603      4082.392       18.861989      1.7503683    
     23200   299.37981     -43937.68       4084.2219      18.870444      1.7495841    
     23300   309.89923     -45090.052      4086.0517      18.878898      1.7488005    
     23400   301.65867     -44125.138      4087.8816      18.887353      1.7480177    
     23500   283.5975      -45327.605      4089.7114      18.895808      1.7472356    
     23600   286.67171     -40601.529      4091.5413      18.904262      1.7464542    
     23700   301.46815     -42480.767      4093.3711      18.912716      1.7456735    
     23800   313.20956     -41875.107      4095.201       18.921171      1.7448935    
     23900   304.25817     -43667.769      4097.0308      18.929626      1.7441142    
     24000   303.04602     -42076.016      4098.8607      18.93808       1.7433355    
     24100   291.13035     -43931.734      4100.6905      18.946534      1.7425576    
     24200   299.02002     -42871.087      4102.5203      18.954989      1.7417804    
     24300   299.49077     -51259.79       4104.3502      18.963444      1.7410038    
     24400   311.6781      -47191.456      4106.18        18.971898      1.740228     
     24500   312.3369      -53074.958      4108.0099      18.980352      1.7394528    
     24600   316.31828     -51811.623      4109.8397      18.988807      1.7386784    
     24700   292.95493     -50137.653      4111.6696      18.997262      1.7379046    
     24800   295.43412     -45107.954      4113.4994      19.005716      1.7371315    
     24900   310.12858     -47266.117      4115.3293      19.01417       1.7363591    
     25000   306.04833     -50162.065      4117.1591      19.022625      1.7355874    
     25100   296.36509     -49497.166      4118.989       19.03108       1.7348164    
     25200   289.19862     -45773.636      4120.8188      19.039534      1.734046     
     25300   287.85086     -43293.745      4122.6487      19.047988      1.7332764    
     25400   292.8824      -53953.811      4124.4785      19.056443      1.7325074    
     25500   278.03186     -52625.851      4126.3084      19.064898      1.7317391    
     25600   293.91962     -46307.096      4128.1382      19.073352      1.7309715    
     25700   280.72381     -49160.884      4129.9681      19.081806      1.7302045    
     25800   300.77888     -45745.429      4131.7979      19.090261      1.7294383    
     25900   302.55856     -41998.101      4133.6278      19.098715      1.7286727    
     26000   283.47909     -51180.246      4135.4576      19.10717       1.7279078    
     26100   298.04538     -54442.437      4137.2875      19.115624      1.7271436    
     26200   284.47224     -56566.973      4139.1173      19.124079      1.72638      
     26300   302.33765     -53635.657      4140.9472      19.132534      1.7256172    
     26400   298.2265      -47986.986      4142.777       19.140988      1.724855     
     26500   301.10886     -45995.938      4144.6069      19.149442      1.7240934    
     26600   304.0281      -55163.945      4146.4367      19.157897      1.7233326    
     26700   293.94886     -50921.652      4148.2666      19.166351      1.7225724    
     26800   322.58999     -52917.299      4150.0964      19.174806      1.7218129    
     26900   303.31956     -51772.272      4151.9263      19.18326       1.721054     
     27000   294.36866     -45108.872      4153.7561      19.191715      1.7202959    
     27100   299.47074     -42322.909      4155.586       19.20017       1.7195384    
     27200   288.27308     -52517.072      4157.4158      19.208624      1.7187815    
     27300   287.68148     -51911.259      4159.2457      19.217078      1.7180254    
     27400   295.56766     -43151.202      4161.0755      19.225533      1.7172698    
     27500   300.23908     -53595.384      4162.9053      19.233987      1.716515     
     27600   306.41235     -49278.142      4164.7352      19.242442      1.7157608    
     27700   283.89854     -43137.549      4166.565       19.250896      1.7150073    
     27800   297.82299     -45271.866      4168.3949      19.259351      1.7142544    
     27900   298.16797     -55260.568      4170.2247      19.267806      1.7135022    
     28000   291.49845     -47380.235      4172.0546      19.27626       1.7127507    
     28100   293.60157     -50259.038      4173.8844      19.284714      1.7119998    
     28200   299.90684     -43952.19       4175.7143      19.293169      1.7112496    
     28300   274.55004     -58689.505      4177.5441      19.301623      1.7105001    
     28400   288.28168     -54510.918      4179.374       19.310078      1.7097511    
     28500   324.72257     -55118.209      4181.2038      19.318532      1.7090029    
     28600   294.60831     -56832.414      4183.0337      19.326987      1.7082553    
     28700   303.35238     -54573.085      4184.8635      19.335441      1.7075084    
     28800   310.74538     -57157.411      4186.6934      19.343896      1.7067621    
     28900   292.739       -53549.407      4188.5232      19.352351      1.7060164    
     29000   302.72264     -61461.352      4190.3531      19.360805      1.7052715    
     29100   298.50728     -54298.667      4192.1829      19.369259      1.7045271    
     29200   270.74823     -52069.594      4194.0128      19.377714      1.7037834    
     29300   291.94637     -54556.629      4195.8426      19.386169      1.7030404    
     29400   291.78642     -54871.107      4197.6725      19.394623      1.702298     
     29500   291.55342     -61333.536      4199.5023      19.403077      1.7015563    
     29600   304.07029     -53703.479      4201.3322      19.411532      1.7008152    
     29700   292.9244      -56742.675      4203.162       19.419987      1.7000747    
     29800   301.76464     -57146.808      4204.9919      19.428441      1.6993349    
     29900   305.20634     -61766.93       4206.8217      19.436895      1.6985957    
     30000   293.90166     -50593.494      4208.6516      19.44535       1.6978572    
     30100   304.91425     -59892.846      4210.4814      19.453805      1.6971193    
     30200   292.38012     -58427.695      4212.3113      19.462259      1.6963821    
     30300   301.09854     -58482.841      4214.1411      19.470713      1.6956455    
     30400   306.04076     -58774.132      4215.971       19.479168      1.6949096    
     30500   306.38844     -55820.479      4217.8008      19.487623      1.6941742    
     30600   300.60229     -51170.061      4219.6307      19.496077      1.6934396    
     30700   302.66691     -50600.391      4221.4605      19.504531      1.6927055    
     30800   316.71729     -54751.231      4223.2903      19.512986      1.6919721    
     30900   311.28286     -61520.242      4225.1202      19.521441      1.6912393    
     31000   307.80988     -54837.494      4226.95        19.529895      1.6905072    
     31100   301.41462     -57773.066      4228.7799      19.538349      1.6897757    
     31200   314.6016      -52148.551      4230.6097      19.546804      1.6890448    
     31300   308.58756     -53993.192      4232.4396      19.555259      1.6883146    
     31400   293.92759     -67084.047      4234.2694      19.563713      1.687585     
     31500   319.89127     -56026.285      4236.0993      19.572167      1.686856     
     31600   304.88108     -54510.098      4237.9291      19.580622      1.6861276    
     31700   285.79863     -56838.004      4239.759       19.589077      1.6853999    
     31800   291.56465     -53603.834      4241.5888      19.597531      1.6846728    
     31900   315.20857     -61765.693      4243.4187      19.605985      1.6839464    
     32000   296.63081     -54708.371      4245.2485      19.61444       1.6832205    
     32100   306.86272     -62142.597      4247.0784      19.622895      1.6824953    
     32200   288.21318     -55259.205      4248.9082      19.631349      1.6817707    
     32300   289.10048     -55614.792      4250.7381      19.639803      1.6810468    
     32400   306.0777      -59989.552      4252.5679      19.648258      1.6803234    
     32500   301.91271     -59850.307      4254.3978      19.656712      1.6796007    
     32600   296.51123     -55221.545      4256.2276      19.665167      1.6788786    
     32700   291.45339     -69558.178      4258.0575      19.673621      1.6781571    
     32800   269.64757     -65273.067      4259.8873      19.682076      1.6774363    
     32900   297.99113     -59586.747      4261.7172      19.690531      1.676716     
     33000   311.20072     -64601.936      4263.547       19.698985      1.6759964    
     33100   313.71629     -69708.364      4265.3769      19.707439      1.6752774    
     33200   309.49999     -66305.97       4267.2067      19.715894      1.674559     
     33300   263.61128     -51609.257      4269.0366      19.724348      1.6738412    
     33400   287.48793     -59549.904      4270.8664      19.732803      1.6731241    
     33500   297.66744     -65702.92       4272.6963      19.741257      1.6724075    
     33600   301.66321     -67373.591      4274.5261      19.749712      1.6716916    
     33700   312.06324     -68996.805      4276.356       19.758166      1.6709763    
     33800   305.33013     -60432.731      4278.1858      19.766621      1.6702616    
     33900   305.35774     -61230.169      4280.0157      19.775075      1.6695475    
     34000   306.17884     -62652.917      4281.8455      19.78353       1.668834     
     34100   308.63868     -65397.461      4283.6754      19.791984      1.6681212    
     34200   299.22554     -72513.036      4285.5052      19.800439      1.6674089    
     34300   276.11258     -65265.519      4287.335       19.808893      1.6666972    
     34400   300.87343     -61591.93       4289.1649      19.817348      1.6659862    
     34500   301.92538     -62536.986      4290.9947      19.825802      1.6652757    
     34600   306.01135     -65700.136      4292.8246      19.834257      1.6645659    
     34700   284.80858     -64463.232      4294.6544      19.842712      1.6638567    
     34800   286.98869     -59052.652      4296.4843      19.851166      1.6631481    
     34900   284.54304     -67546.895      4298.3141      19.85962       1.66244      
     35000   276.19664     -68765.93       4300.144       19.868075      1.6617326    
     35100   311.35922     -63123.577      4301.9738      19.87653       1.6610258    
     35200   308.81469     -73480.355      4303.8037      19.884984      1.6603196    
     35300   297.03983     -67418.356      4305.6335      19.893438      1.6596139    
     35400   289.67265     -64231.799      4307.4634      19.901893      1.6589089    
     35500   302.76383     -71882.766      4309.2932      19.910348      1.6582045    
     35600   285.48881     -62856.417      4311.1231      19.918802      1.6575007    
     35700   324.25053     -64821.466      4312.9529      19.927256      1.6567975    
     35800   299.45222     -66770.452      4314.7828      19.935711      1.6560948    
     35900   299.97891     -67340.821      4316.6126      19.944166      1.6553928    
     36000   276.00231     -65495.541      4318.4425      19.95262       1.6546914    
     36100   281.50289     -63677.012      4320.2723      19.961074      1.6539905    
     36200   280.32664     -66603.817      4322.1022      19.969529      1.6532903    
     36300   321.13447     -69709.803      4323.932       19.977984      1.6525906    
     36400   291.66122     -78546.785      4325.7619      19.986438      1.6518915    
     36500   286.7525      -71117.037      4327.5917      19.994892      1.6511931    
     36600   296.39296     -63725.423      4329.4216      20.003347      1.6504952    
     36700   291.02172     -63537.196      4331.2514      20.011802      1.6497979    
     36800   301.28597     -64705.82       4333.0813      20.020256      1.6491012    
     36900   315.1738      -68365.443      4334.9111      20.02871       1.6484051    
     37000   318.89485     -77819.844      4336.741       20.037165      1.6477095    
     37100   297.4955      -74082.948      4338.5708      20.04562       1.6470146    
     37200   296.06246     -77244.124      4340.4007      20.054074      1.6463202    
     37300   296.29627     -66014.715      4342.2305      20.062528      1.6456265    
     37400   314.87945     -60010.899      4344.0604      20.070983      1.6449333    
     37500   307.71122     -72233.91       4345.8902      20.079438      1.6442407    
     37600   299.75805     -78770.547      4347.72        20.087892      1.6435487    
     37700   310.91358     -71678.77       4349.5499      20.096346      1.6428572    
     37800   291.52556     -64628.555      4351.3797      20.104801      1.6421664    
     37900   308.88329     -72076.806      4353.2096      20.113256      1.6414761    
     38000   297.99697     -76709.278      4355.0394      20.12171       1.6407864    
     38100   300.69735     -71697.453      4356.8693      20.130164      1.6400973    
     38200   303.58124     -63703.819      4358.6991      20.138619      1.6394087    
     38300   308.17051     -69494.259      4360.529       20.147073      1.6387208    
     38400   287.21404     -71503.941      4362.3588      20.155528      1.6380334    
     38500   291.91349     -73514.178      4364.1887      20.163982      1.6373466    
     38600   303.94392     -71003.489      4366.0185      20.172437      1.6366604    
     38700   315.4148      -68151.341      4367.8484      20.180892      1.6359747    
     38800   302.35175     -66835.152      4369.6782      20.189346      1.6352896    
     38900   298.26963     -74927.697      4371.5081      20.1978        1.6346051    
     39000   300.18879     -71847.423      4373.3379      20.206255      1.6339212    
     39100   278.67995     -74198.478      4375.1678      20.214709      1.6332378    
     39200   310.80332     -78021.471      4376.9976      20.223164      1.632555     
     39300   300.03049     -76620.846      4378.8275      20.231618      1.6318728    
     39400   286.1725      -78036.096      4380.6573      20.240073      1.6311912    
     39500   315.73122     -77551.461      4382.4872      20.248528      1.6305101    
     39600   300.12498     -71710.264      4384.317       20.256982      1.6298296    
     39700   313.13823     -76288.399      4386.1469      20.265436      1.6291496    
     39800   291.10502     -73705.731      4387.9767      20.273891      1.6284702    
     39900   295.13915     -73212.72       4389.8066      20.282345      1.6277914    
     40000   296.57358     -78634.574      4391.6364      20.2908        1.6271132    
     40100   302.10436     -70916.091      4393.4663      20.299254      1.6264355    
     40200   301.98837     -77298.824      4395.2961      20.307709      1.6257584    
     40300   315.76505     -81576.185      4397.126       20.316163      1.6250818    
     40400   339.06974     -67883.709      4398.9558      20.324618      1.6244058    
     40500   302.93453     -71820.009      4400.7857      20.333073      1.6237304    
     40600   289.45653     -78288.408      4402.6155      20.341527      1.6230555    
     40700   297.98391     -71660.228      4404.4454      20.349981      1.6223812    
     40800   287.86727     -71849.478      4406.2752      20.358436      1.6217075    
     40900   299.9814      -73371.067      4408.105       20.366891      1.6210343    
     41000   307.85357     -69978.053      4409.9349      20.375345      1.6203617    
     41100   308.91689     -73148.593      4411.7647      20.383799      1.6196896    
     41200   311.46775     -72036.772      4413.5946      20.392254      1.6190181    
     41300   295.75905     -80343.922      4415.4244      20.400709      1.6183471    
     41400   295.82424     -73495.124      4417.2543      20.409163      1.6176767    
     41500   300.92761     -75708.592      4419.0841      20.417617      1.6170069    
     41600   310.28088     -80518.241      4420.914       20.426072      1.6163376    
     41700   301.1733      -80860.875      4422.7438      20.434527      1.6156689    
     41800   286.91823     -70476.353      4424.5737      20.442981      1.6150007    
     41900   304.96627     -83108.189      4426.4035      20.451435      1.614333     
     42000   277.57084     -78631.51       4428.2334      20.45989       1.613666     
     42100   297.57128     -85282.289      4430.0632      20.468345      1.6129994    
     42200   314.77901     -73800.053      4431.8931      20.476799      1.6123335    
     42300   300.66641     -82776.906      4433.7229      20.485253      1.611668     
     42400   304.36197     -77443.27       4435.5528      20.493708      1.6110031    
     42500   318.956       -75573.607      4437.3826      20.502163      1.6103388    
     42600   307.2907      -83294.516      4439.2125      20.510617      1.609675     
     42700   298.26679     -75040.891      4441.0423      20.519071      1.6090118    
     42800   290.56091     -83424.398      4442.8722      20.527526      1.6083491    
     42900   285.23419     -81887.318      4444.702       20.535981      1.607687     
     43000   291.44328     -86299.223      4446.5319      20.544435      1.6070254    
     43100   315.46039     -77236.004      4448.3617      20.552889      1.6063643    
     43200   292.30959     -82442.853      4450.1916      20.561344      1.6057038    
     43300   306.84337     -86592.358      4452.0214      20.569799      1.6050438    
     43400   295.27002     -76632.475      4453.8513      20.578253      1.6043844    
     43500   295.57916     -80399.241      4455.6811      20.586707      1.6037255    
     43600   321.4119      -80662.102      4457.511       20.595162      1.6030672    
     43700   291.65004     -74330.396      4459.3408      20.603617      1.6024094    
     43800   321.23361     -82773.831      4461.1707      20.612071      1.6017521    
     43900   313.287       -82198.073      4463.0005      20.620525      1.6010954    
     44000   303.40634     -82401.849      4464.8304      20.62898       1.6004392    
     44100   296.34432     -85327.815      4466.6602      20.637434      1.5997835    
     44200   297.53951     -89461.222      4468.49        20.645889      1.5991284    
     44300   313.1459      -84240.851      4470.3199      20.654343      1.5984739    
     44400   312.71093     -87288.351      4472.1497      20.662798      1.5978198    
     44500   292.9361      -85235.728      4473.9796      20.671253      1.5971663    
     44600   282.28151     -81192.917      4475.8094      20.679707      1.5965133    
     44700   295.31192     -83655.733      4477.6393      20.688161      1.5958609    
     44800   283.25092     -86467.238      4479.4691      20.696616      1.595209     
     44900   308.59969     -86412.944      4481.299       20.70507       1.5945576    
     45000   307.36753     -72153.728      4483.1288      20.713525      1.5939068    
     45100   316.39849     -82437.925      4484.9587      20.721979      1.5932565    
     45200   291.02024     -83056.644      4486.7885      20.730434      1.5926067    
     45300   291.09784     -73757.901      4488.6184      20.738889      1.5919574    
     45400   306.23519     -91055.619      4490.4482      20.747343      1.5913087    
     45500   276.87949     -83297.28       4492.2781      20.755797      1.5906605    
     45600   296.49467     -86400.539      4494.1079      20.764252      1.5900129    
     45700   309.3724      -87318.533      4495.9378      20.772706      1.5893657    
     45800   303.79599     -84130.461      4497.7676      20.781161      1.5887191    
     45900   278.22934     -82036.702      4499.5975      20.789616      1.588073     
     46000   291.96619     -87192.388      4501.4273      20.79807       1.5874275    
     46100   301.26186     -87010.277      4503.2572      20.806524      1.5867825    
     46200   311.28686     -87977.754      4505.087       20.814979      1.5861379    
     46300   301.7523      -87995.24       4506.9169      20.823434      1.585494     
     46400   300.9932      -87981.919      4508.7467      20.831888      1.5848505    
     46500   303.51153     -83886.978      4510.5766      20.840342      1.5842076    
     46600   292.13638     -79542.038      4512.4064      20.848797      1.5835651    
     46700   285.32627     -82462.649      4514.2363      20.857252      1.5829232    
     46800   303.00544     -90655.276      4516.0661      20.865706      1.5822819    
     46900   301.17677     -88235.76       4517.896       20.87416       1.581641     
     47000   287.1219      -89888.364      4519.7258      20.882615      1.5810007    
     47100   296.68643     -79239.733      4521.5557      20.89107       1.5803608    
     47200   326.50707     -91233.452      4523.3855      20.899524      1.5797215    
     47300   310.90483     -93123.225      4525.2154      20.907978      1.5790827    
     47400   291.60179     -89791.333      4527.0452      20.916433      1.5784445    
     47500   300.88845     -87010.29       4528.875       20.924888      1.5778067    
     47600   317.23688     -83490.314      4530.7049      20.933342      1.5771695    
     47700   312.28513     -85805.384      4532.5347      20.941796      1.5765328    
     47800   307.18377     -80005.82       4534.3646      20.950251      1.5758965    
     47900   287.8196      -84576.098      4536.1944      20.958706      1.5752608    
     48000   293.95264     -85375.397      4538.0243      20.96716       1.5746257    
     48100   303.39555     -80794.195      4539.8541      20.975614      1.573991     
     48200   325.28129     -81886.307      4541.684       20.984069      1.5733568    
     48300   332.98442     -87639.869      4543.5138      20.992524      1.5727232    
     48400   317.67777     -89465.8        4545.3437      21.000978      1.57209      
     48500   307.66801     -86353.09       4547.1735      21.009432      1.5714574    
     48600   277.61378     -85219.705      4549.0034      21.017887      1.5708253    
     48700   304.63494     -87092.631      4550.8332      21.026342      1.5701937    
     48800   309.80845     -91668.174      4552.6631      21.034796      1.5695625    
     48900   316.88599     -85570.913      4554.4929      21.04325       1.5689319    
     49000   305.15344     -82726.678      4556.3228      21.051705      1.5683019    
     49100   304.2014      -95636.622      4558.1526      21.06016       1.5676723    
     49200   296.57158     -89169.145      4559.9825      21.068614      1.5670432    
     49300   303.40215     -87808.509      4561.8123      21.077068      1.5664146    
     49400   300.87675     -85497.807      4563.6422      21.085523      1.5657865    
     49500   305.98086     -82870.12       4565.472       21.093978      1.565159     
     49600   306.59467     -88202.816      4567.3019      21.102432      1.5645319    
     49700   305.92922     -93316.951      4569.1317      21.110886      1.5639053    
     49800   298.66586     -95718.512      4570.9616      21.119341      1.5632793    
     49900   298.36524     -89223.664      4572.7914      21.127795      1.5626537    
     50000   299.07405     -78661.472      4574.6213      21.13625       1.5620286    
     50100   306.32847     -86154.239      4576.4511      21.144704      1.5614041    
     50200   320.55856     -95408.418      4578.281       21.153159      1.56078      
     50300   289.08481     -91454.535      4580.1108      21.161614      1.5601565    
     50400   307.96891     -88040.735      4581.9407      21.170068      1.5595334    
     50500   327.36562     -79022.037      4583.7705      21.178522      1.5589108    
     50600   340.56139     -70708.353      4585.6004      21.186977      1.5582888    
     50700   319.33955     -63394.652      4587.4302      21.195431      1.5576672    
     50800   296.63014     -66016.558      4589.2601      21.203886      1.5570461    
     50900   286.83405     -75293.439      4591.0899      21.21234       1.5564255    
     51000   294.33788     -72534.919      4592.9197      21.220795      1.5558054    
     51100   325.36005     -78254.237      4594.7496      21.22925       1.5551858    
     51200   296.0517      -71913.459      4596.5794      21.237704      1.5545667    
     51300   291.61019     -78165.236      4598.4093      21.246158      1.5539481    
     51400   315.40062     -74177.999      4600.2391      21.254613      1.55333      
     51500   294.12545     -70510.38       4602.069       21.263067      1.5527124    
     51600   312.24024     -76882.685      4603.8988      21.271522      1.5520952    
     51700   319.04147     -63259.964      4605.7287      21.279977      1.5514786    
     51800   290.83671     -65972.511      4607.5585      21.288431      1.5508624    
     51900   292.06184     -73660.282      4609.3884      21.296886      1.5502468    
     52000   301.89422     -74081.76       4611.2182      21.30534       1.5496316    
     52100   308.0018      -77089.541      4613.0481      21.313795      1.5490169    
     52200   288.94999     -75957.312      4614.8779      21.322249      1.5484027    
     52300   287.78792     -67450.664      4616.7078      21.330703      1.547789     
     52400   293.53669     -65989.233      4618.5376      21.339158      1.5471758    
     52500   298.87817     -60949.726      4620.3675      21.347613      1.546563     
     52600   319.28751     -70554.958      4622.1973      21.356067      1.5459508    
     52700   302.44437     -62569.286      4624.0272      21.364521      1.545339     
     52800   376.29191     -43842.893      4625.857       21.372976      1.5447277    
     52900   349.23149     -43929.894      4627.6869      21.381431      1.5441169    
     53000   288.32147     -49949.742      4629.5167      21.389885      1.5435066    
     53100   282.98882     -34170.237      4631.3466      21.398339      1.5428967    
     53200   292.99767     -45239.985      4633.1764      21.406794      1.5422874    
     53300   302.34126     -50433.867      4635.0063      21.415249      1.5416785    
     53400   334.74151     -48528.317      4636.8361      21.423703      1.5410701    
     53500   285.78988     -51010.98       4638.666       21.432157      1.5404622    
     53600   301.47173     -46196.278      4640.4958      21.440612      1.5398547    
     53700   284.09345     -52411.698      4642.3257      21.449067      1.5392478    
     53800   303.63652     -52506.521      4644.1555      21.457521      1.5386413    
     53900   319.2479      -50048.944      4645.9854      21.465975      1.5380353    
     54000   300.54447     -49410.777      4647.8152      21.47443       1.5374298    
     54100   304.2269      -45671.154      4649.6451      21.482885      1.5368247    
     54200   275.41342     -52044.996      4651.4749      21.491339      1.5362202    
     54300   275.73905     -51997.411      4653.3047      21.499793      1.5356161    
     54400   277.56496     -54092.042      4655.1346      21.508248      1.5350124    
     54500   295.56407     -49595.808      4656.9644      21.516703      1.5344093    
     54600   295.14681     -43962.103      4658.7943      21.525157      1.5338066    
     54700   321.08631     -51083.841      4660.6241      21.533611      1.5332044    
     54800   315.87974     -52109.891      4662.454       21.542066      1.5326027    
     54900   302.43158     -55203.365      4664.2838      21.550521      1.5320014    
     55000   298.0128      -47241.818      4666.1137      21.558975      1.5314006    
     55100   286.89525     -45363.251      4667.9435      21.567429      1.5308003    
     55200   299.64728     -47837.824      4669.7734      21.575884      1.5302005    
     55300   298.70688     -53631.023      4671.6032      21.584339      1.5296011    
     55400   299.48817     -46858.546      4673.4331      21.592793      1.5290022    
     55500   307.66711     -43321.517      4675.2629      21.601247      1.5284038    
     55600   302.7089      -44108.49       4677.0928      21.609702      1.5278058    
     55700   289.54052     -55548.626      4678.9226      21.618156      1.5272083    
     55800   297.6709      -57126.531      4680.7525      21.626611      1.5266113    
     55900   303.71072     -54113.41       4682.5823      21.635065      1.5260147    
     56000   306.64414     -45482.454      4684.4122      21.64352       1.5254186    
     56100   371.16572     -42623.256      4686.242       21.651975      1.524823     
     56200   378.07802     -42599.003      4688.0719      21.660429      1.5242278    
     56300   343.2592      -35670.92       4689.9017      21.668883      1.5236331    
     56400   325.4682      -32278.257      4691.7316      21.677338      1.5230389    
     56500   303.08375     -25425.739      4693.5614      21.685792      1.5224451    
     56600   264.28145     -32773.794      4695.3913      21.694247      1.5218518    
     56700   295.42208     -31908.896      4697.2211      21.702701      1.5212589    
     56800   327.39036     -30280.496      4699.051       21.711156      1.5206665    
     56900   310.59846     -29983.138      4700.8808      21.719611      1.5200746    
     57000   311.60768     -33633.356      4702.7107      21.728065      1.5194831    
     57100   289.12135     -36461.24       4704.5405      21.736519      1.5188921    
     57200   279.62639     -33491.546      4706.3704      21.744974      1.5183016    
     57300   287.90124     -34735.048      4708.2002      21.753428      1.5177115    
     57400   283.69891     -40808.07       4710.0301      21.761883      1.5171218    
     57500   301.81003     -36597.665      4711.8599      21.770338      1.5165327    
     57600   282.61704     -28563.983      4713.6897      21.778792      1.515944     
     57700   278.24202     -35756.518      4715.5196      21.787247      1.5153557    
     57800   302.11509     -37477.857      4717.3494      21.795701      1.5147679    
     57900   309.33446     -38979.207      4719.1793      21.804156      1.5141805    
     58000   337.08476     -33127.531      4721.0091      21.81261       1.5135937    
     58100   299.00519     -41306.524      4722.839       21.821064      1.5130072    
     58200   279.18982     -34697.874      4724.6688      21.829519      1.5124212    
     58300   294.34409     -35589.27       4726.4987      21.837974      1.5118357    
     58400   306.60114     -44010.94       4728.3285      21.846428      1.5112506    
     58500   302.79258     -39903.49       4730.1584      21.854882      1.510666     
     58600   322.44946     -37444.627      4731.9882      21.863337      1.5100818    
     58700   321.31476     -39725.227      4733.8181      21.871792      1.5094981    
     58800   292.70636     -35286.07       4735.6479      21.880246      1.5089148    
     58900   300.46567     -33467.769      4737.4778      21.8887        1.508332     
     59000   296.9212      -33375.664      4739.3076      21.897155      1.5077497    
     59100   310.80369     -39815.131      4741.1375      21.90561       1.5071677    
     59200   298.53938     -29373.876      4742.9673      21.914064      1.5065863    
     59300   311.31998     -31167.297      4744.7972      21.922518      1.5060053    
     59400   331.40234     -37756.527      4746.627       21.930973      1.5054247    
     59500   309.97663     -32154.217      4748.4569      21.939428      1.5048446    
     59600   308.29441     -37349.899      4750.2867      21.947882      1.5042649    
     59700   295.22824     -36578.903      4752.1166      21.956336      1.5036856    
     59800   284.27924     -38347.372      4753.9464      21.964791      1.5031069    
     59900   311.52284     -24331.694      4755.7763      21.973246      1.5025285    
     60000   293.57331     -28148.931      4757.6061      21.9817        1.5019506    
     60100   304.98356     -32301.952      4759.436       21.990154      1.5013732    
     60200   286.26069     -42498.188      4761.2658      21.998609      1.5007962    
     60300   288.70001     -42923.683      4763.0957      22.007064      1.5002196    
     60400   299.54856     -39621.191      4764.9255      22.015518      1.4996435    
     60500   311.55776     -50756.187      4766.7554      22.023972      1.4990678    
     60600   299.53837     -40150.056      4768.5852      22.032427      1.4984926    
     60700   299.28366     -43322.436      4770.4151      22.040882      1.4979178    
     60800   299.59584     -42536.416      4772.2449      22.049336      1.4973434    
     60900   289.36965     -41316.464      4774.0747      22.05779       1.4967695    
     61000   268.95131     -34203.659      4775.9046      22.066245      1.496196     
     61100   303.38257     -36338.483      4777.7344      22.0747        1.495623     
     61200   298.63514     -37788.543      4779.5643      22.083154      1.4950504    
     61300   315.05345     -39071.669      4781.3941      22.091608      1.4944782    
     61400   313.97261     -36750.589      4783.224       22.100063      1.4939065    
     61500   289.8846      -42557.116      4785.0538      22.108517      1.4933352    
     61600   284.21802     -41046.256      4786.8837      22.116972      1.4927644    
     61700   294.7882      -33345.725      4788.7135      22.125426      1.492194     
     61800   292.23019     -30969.054      4790.5434      22.133881      1.491624     
     61900   305.31352     -37348.837      4792.3732      22.142336      1.4910545    
     62000   293.72873     -34343.603      4794.2031      22.15079       1.4904854    
     62100   310.36808     -31195.258      4796.0329      22.159244      1.4899167    
     62200   291.19173     -43724.194      4797.8628      22.167699      1.4893484    
     62300   298.10532     -41978.426      4799.6926      22.176153      1.4887806    
     62400   302.08473     -41991.326      4801.5225      22.184608      1.4882133    
     62500   316.42954     -37933.642      4803.3523      22.193062      1.4876463    
     62600   306.63284     -35181.613      4805.1822      22.201517      1.4870798    
     62700   306.07822     -35181.924      4807.012       22.209972      1.4865138    
     62800   287.87918     -36868.251      4808.8419      22.218426      1.4859481    
     62900   295.28343     -42180.242      4810.6717      22.226881      1.4853829    
     63000   304.8747      -32160.37       4812.5016      22.235335      1.4848181    
     63100   315.79451     -33829.273      4814.3314      22.243789      1.4842538    
     63200   282.1233      -32626.629      4816.1613      22.252244      1.4836898    
     63300   304.26543     -39294.649      4817.9911      22.260699      1.4831263    
     63400   296.46231     -36019.565      4819.821       22.269153      1.4825633    
     63500   292.96957     -40938.584      4821.6508      22.277608      1.4820006    
     63600   269.84872     -40681.562      4823.4807      22.286062      1.4814384    
     63700   285.49714     -37953.113      4825.3105      22.294517      1.4808766    
     63800   296.95563     -33065.403      4827.1404      22.302971      1.4803152    
     63900   290.59342     -40429.559      4828.9702      22.311425      1.4797543    
     64000   292.01678     -34993.593      4830.8001      22.31988       1.4791938    
     64100   301.16721     -41232.588      4832.6299      22.328335      1.4786337    
     64200   285.47344     -45521.415      4834.4598      22.336789      1.478074     
     64300   308.23302     -30423.655      4836.2896      22.345244      1.4775148    
     64400   281.27457     -36493.702      4838.1194      22.353698      1.476956     
     64500   314.58336     -40431.048      4839.9493      22.362153      1.4763976    
     64600   303.18881     -45610.266      4841.7791      22.370607      1.4758396    
     64700   281.44985     -36228.056      4843.609       22.379061      1.4752821    
     64800   294.85769     -32094.61       4845.4388      22.387516      1.4747249    
     64900   269.97772     -44017.783      4847.2687      22.395971      1.4741682    
     65000   280.90044     -29642.648      4849.0985      22.404425      1.4736119    
     65100   305.97885     -43818.765      4850.9284      22.412879      1.4730561    
     65200   302.82124     -40969.154      4852.7582      22.421334      1.4725006    
     65300   298.99419     -41214.828      4854.5881      22.429789      1.4719456    
     65400   283.59115     -44050.042      4856.4179      22.438243      1.471391     
     65500   294.12258     -39497.865      4858.2478      22.446697      1.4708368    
     65600   294.91499     -45937.408      4860.0776      22.455152      1.470283     
     65700   297.47129     -41853.152      4861.9075      22.463607      1.4697296    
     65800   300.28822     -28968.302      4863.7373      22.472061      1.4691767    
     65900   301.76659     -40648.195      4865.5672      22.480515      1.4686242    
     66000   306.05027     -41004.358      4867.397       22.48897       1.468072     
     66100   302.70466     -40711.922      4869.2269      22.497425      1.4675203    
     66200   299.92236     -34435.088      4871.0567      22.505879      1.4669691    
     66300   281.67587     -41140.265      4872.8866      22.514333      1.4664182    
     66400   289.05169     -40334.08       4874.7164      22.522788      1.4658677    
     66500   309.50648     -39341.081      4876.5463      22.531243      1.4653177    
     66600   300.55821     -41880.748      4878.3761      22.539697      1.4647681    
     66700   298.64387     -41518.462      4880.206       22.548151      1.4642188    
     66800   288.52925     -40957.771      4882.0358      22.556606      1.46367      
     66900   266.48573     -35118.34       4883.8657      22.565061      1.4631216    
     67000   288.42423     -33520.757      4885.6955      22.573515      1.4625736    
     67100   313.89014     -35174.03       4887.5254      22.581969      1.4620261    
     67200   305.86689     -33892.354      4889.3552      22.590424      1.4614789    
     67300   292.69387     -37987.369      4891.1851      22.598878      1.4609321    
     67400   276.34638     -35807.647      4893.0149      22.607333      1.4603858    
     67500   300.66856     -38479.591      4894.8448      22.615787      1.4598399    
     67600   318.13358     -38869.361      4896.6746      22.624242      1.4592943    
     67700   304.12882     -33957.874      4898.5044      22.632697      1.4587492    
     67800   305.34902     -37839.701      4900.3343      22.641151      1.4582045    
     67900   295.65381     -41421.526      4902.1641      22.649605      1.4576602    
     68000   316.7717      -37890.849      4903.994       22.65806       1.4571163    
     68100   326.52136     -45610.758      4905.8238      22.666514      1.4565728    
     68200   323.56948     -39520.362      4907.6537      22.674969      1.4560297    
     68300   288.84696     -37350.738      4909.4835      22.683423      1.455487     
     68400   296.38981     -36943.435      4911.3134      22.691878      1.4549447    
     68500   300.46453     -46175.53       4913.1432      22.700333      1.4544028    
     68600   286.53798     -40279.749      4914.9731      22.708787      1.4538614    
     68700   317.4204      -37607.973      4916.8029      22.717242      1.4533203    
     68800   336.74921     -36269.459      4918.6328      22.725696      1.4527796    
     68900   319.76239     -37949.136      4920.4626      22.734151      1.4522394    
     69000   299.1998      -41096.448      4922.2925      22.742605      1.4516995    
     69100   299.07612     -41605.302      4924.1223      22.75106       1.45116      
     69200   298.80322     -49713.665      4925.9522      22.759514      1.450621     
     69300   297.11155     -49920.912      4927.782       22.767969      1.4500823    
     69400   287.93362     -40230.987      4929.6119      22.776423      1.449544     
     69500   315.3546      -44603.939      4931.4417      22.784878      1.4490062    
     69600   307.92345     -36761.517      4933.2716      22.793332      1.4484687    
     69700   321.54128     -37971.466      4935.1014      22.801786      1.4479316    
     69800   331.20462     -30270.042      4936.9313      22.810241      1.447395     
     69900   319.1579      -36465.274      4938.7611      22.818696      1.4468587    
     70000   299.42518     -36469.484      4940.591       22.82715       1.4463228    
     70100   314.7944      -46482.635      4942.4208      22.835604      1.4457873    
     70200   271.83842     -34794.953      4944.2507      22.844059      1.4452523    
     70300   285.0495      -41885.174      4946.0805      22.852514      1.4447176    
     70400   273.44351     -42165.336      4947.9104      22.860968      1.4441833    
     70500   311.10437     -34496.059      4949.7402      22.869422      1.4436494    
     70600   320.05417     -34389.548      4951.5701      22.877877      1.4431159    
     70700   306.07904     -34817.5        4953.3999      22.886332      1.4425828    
     70800   306.80837     -36758.355      4955.2298      22.894786      1.4420501    
     70900   300.1065      -33726.901      4957.0596      22.90324       1.4415178    
     71000   291.16496     -33212.806      4958.8894      22.911695      1.4409858    
     71100   295.87861     -41322.715      4960.7193      22.92015       1.4404543    
     71200   321.11025     -38805.314      4962.5491      22.928604      1.4399232    
     71300   313.60086     -41877.451      4964.379       22.937058      1.4393924    
     71400   293.86065     -36848.934      4966.2088      22.945513      1.4388621    
     71500   297.99953     -34984.317      4968.0387      22.953968      1.4383321    
     71600   298.23266     -36105.298      4969.8685      22.962422      1.4378025    
     71700   304.52152     -50530.449      4971.6984      22.970876      1.4372733    
     71800   317.43117     -43452.51       4973.5282      22.979331      1.4367445    
     71900   325.98402     -35202.081      4975.3581      22.987786      1.4362161    
     72000   310.18232     -44308.628      4977.1879      22.99624       1.4356881    
     72100   295.40454     -37553.63       4979.0178      23.004694      1.4351605    
     72200   297.01285     -31704.371      4980.8476      23.013149      1.4346332    
     72300   297.86339     -40837.679      4982.6775      23.021604      1.4341064    
     72400   292.3078      -34632.063      4984.5073      23.030058      1.4335799    
     72500   288.58989     -37756.499      4986.3372      23.038512      1.4330538    
     72600   308.39055     -40524.481      4988.167       23.046967      1.4325281    
     72700   304.72463     -34109.016      4989.9969      23.055422      1.4320028    
     72800   311.13953     -40159.827      4991.8267      23.063876      1.4314779    
     72900   293.74933     -34307.323      4993.6566      23.07233       1.4309533    
     73000   292.69648     -46160.226      4995.4864      23.080785      1.4304292    
     73100   296.21839     -47257.85       4997.3163      23.089239      1.4299054    
     73200   298.96916     -46008.336      4999.1461      23.097694      1.429382     
     73300   325.64292     -49902.577      5000.976       23.106148      1.428859     
     73400   302.28968     -43368.616      5002.8058      23.114603      1.4283364    
     73500   292.32508     -32596.672      5004.6357      23.123058      1.4278141    
     73600   300.40511     -34683.853      5006.4655      23.131512      1.4272923    
     73700   319.08035     -41707.258      5008.2954      23.139966      1.4267708    
     73800   296.77281     -33726.128      5010.1252      23.148421      1.4262497    
     73900   310.47454     -40687.96       5011.9551      23.156875      1.425729     
     74000   305.21969     -38356.39       5013.7849      23.16533       1.4252086    
     74100   299.36524     -44743.292      5015.6148      23.173785      1.4246887    
     74200   290.03806     -34321.166      5017.4446      23.182239      1.4241691    
     74300   311.02057     -44111.902      5019.2744      23.190694      1.4236499    
     74400   314.43138     -38357.638      5021.1043      23.199148      1.4231311    
     74500   311.0045      -42802.407      5022.9341      23.207603      1.4226126    
     74600   305.53342     -54045.553      5024.764       23.216057      1.4220945    
     74700   284.75518     -40842.641      5026.5938      23.224512      1.4215769    
     74800   286.54884     -33383.983      5028.4237      23.232966      1.4210595    
[...]
     98700   290.1058      -35365.339      5465.7575      25.253591      1.3073557    
     98800   316.94058     -30296.587      5467.5873      25.262046      1.3069182    
     98900   296.59391     -20718.66       5469.4172      25.270501      1.306481     
     99000   281.53569     -24056.271      5471.247       25.278955      1.306044     
     99100   287.72554     -28105.935      5473.0769      25.28741       1.3056074    
     99200   274.96712     -29460.893      5474.9067      25.295864      1.305171     
     99300   309.98319     -28347.134      5476.7366      25.304319      1.3047349    
     99400   319.27276     -28084.243      5478.5664      25.312773      1.3042991    
     99500   299.4879      -32350.24       5480.3963      25.321227      1.3038636    
     99600   306.02476     -25999.662      5482.2261      25.329682      1.3034284    
     99700   326.95118     -31114.797      5484.056       25.338137      1.3029935    
     99800   300.36775     -26223.033      5485.8858      25.346591      1.3025589    
     99900   314.46347     -29159.88       5487.7157      25.355046      1.3021246    
    100000   320.2863      -16942.231      5489.5455      25.3635        1.3016905    
    100100   318.95544     -29148.05       5491.3754      25.371955      1.3012568    
    100200   283.79589     -26718.042      5493.2052      25.380409      1.3008233    
    100300   278.65509     -34006.343      5495.0351      25.388863      1.3003902    
    100400   285.33468     -28369.385      5496.8649      25.397318      1.2999573    
    100500   281.13931     -28398.743      5498.6948      25.405773      1.2995247    
    100600   300.95788     -25478.937      5500.5246      25.414227      1.2990924    
    100700   326.22718     -27933.05       5502.3545      25.422681      1.2986603    
    100800   296.67035     -20177.982      5504.1843      25.431136      1.2982286    
    100900   276.07839     -29240.833      5506.0142      25.439591      1.2977971    
    101000   292.36959     -20233.571      5507.844       25.448045      1.297366     
    101100   308.83928     -19937.752      5509.6738      25.456499      1.2969351    
    101200   329.60373     -18619.305      5511.5037      25.464954      1.2965045    
    101300   327.19838     -17842.89       5513.3335      25.473408      1.2960742    
    101400   307.52604     -17745.713      5515.1634      25.481863      1.2956442    
    101500   303.15115     -12832.478      5516.9932      25.490318      1.2952145    
    101600   295.31968     -15096.354      5518.8231      25.498772      1.294785     
    101700   299.84022     -14252.386      5520.6529      25.507227      1.2943559    
    101800   285.42278     -28064.921      5522.4828      25.515681      1.293927     
    101900   317.31702     -7717.8072      5524.3126      25.524135      1.2934984    
    102000   299.58872     -22952.942      5526.1425      25.53259       1.2930701    
    102100   318.69258     -16581.944      5527.9723      25.541044      1.292642     
    102200   304.24604     -18393.696      5529.8022      25.549499      1.2922143    
    102300   302.0815      -17050.564      5531.632       25.557954      1.2917868    
    102400   276.1523      -12059.824      5533.4619      25.566408      1.2913597    
    102500   300.91405     -21747.726      5535.2917      25.574863      1.2909328    
    102600   313.50382     -9453.2557      5537.1216      25.583317      1.2905062    
    102700   299.17955     -17479.661      5538.9514      25.591772      1.2900798    
    102800   304.14977     -20295.034      5540.7813      25.600226      1.2896538    
    102900   300.11435     -6292.334       5542.6111      25.608681      1.289228     
    103000   307.92849     -16279.337      5544.441       25.617135      1.2888025    
    103100   296.19857     -18029.236      5546.2708      25.62559       1.2883773    
    103200   286.44724     -19166.257      5548.1007      25.634044      1.2879524    
    103300   285.47532     -22128.85       5549.9305      25.642499      1.2875277    
    103400   288.50831     -23724.259      5551.7604      25.650953      1.2871034    
    103500   311.15885     -15513.977      5553.5902      25.659408      1.2866793    
    103600   314.53609     -6734.5253      5555.4201      25.667862      1.2862555    
    103700   310.09039     -15104.904      5557.2499      25.676316      1.2858319    
    103800   312.33452     -21991.05       5559.0798      25.684771      1.2854087    
    103900   296.54624     -9404.2314      5560.9096      25.693226      1.2849857    
    104000   303.19893     -24144.162      5562.7395      25.70168       1.284563     
    104100   303.65651     -21021.053      5564.5693      25.710135      1.2841406    
    104200   313.85337     -13259.597      5566.3992      25.718589      1.2837185    
    104300   296.14788     -17899.607      5568.229       25.727044      1.2832966    
    104400   279.4842      -22977.874      5570.0588      25.735498      1.282875     
    104500   290.58957     -13338.838      5571.8887      25.743952      1.2824537    
    104600   297.09883     -17033.773      5573.7185      25.752407      1.2820327    
    104700   296.35509     -13562.64       5575.5484      25.760862      1.281612     
    104800   324.84679     -21918.997      5577.3782      25.769316      1.2811915    
    104900   326.09876     -20200.852      5579.2081      25.777771      1.2807713    
    105000   330.74873     -15117.017      5581.0379      25.786225      1.2803514    
    105100   322.43613     -16947.062      5582.8678      25.79468       1.2799317    
    105200   311.49516     -16647.38       5584.6976      25.803134      1.2795123    
    105300   293.22577     -21325.261      5586.5275      25.811588      1.2790932    
    105400   288.61458     -19050.845      5588.3573      25.820043      1.2786744    
    105500   283.28632     -12475.029      5590.1872      25.828498      1.2782559    
    105600   303.5114      -17894.325      5592.017       25.836952      1.2778376    
    105700   326.55631     -17650.489      5593.8469      25.845407      1.2774196    
    105800   304.24135     -22381.194      5595.6767      25.853861      1.2770018    
    105900   319.42671     -10685.449      5597.5066      25.862316      1.2765844    
    106000   305.28112     -15234.879      5599.3364      25.87077       1.2761672    
    106100   299.45499     -19539.294      5601.1663      25.879224      1.2757503    
    106200   288.49131     -15900.226      5602.9961      25.887679      1.2753336    
    106300   328.26525     -17514.596      5604.826       25.896134      1.2749173    
    106400   343.26752     -17865.489      5606.6558      25.904588      1.2745012    
    106500   310.83917     -19289.169      5608.4857      25.913042      1.2740854    
    106600   300.84515     -19353.545      5610.3155      25.921497      1.2736698    
    106700   276.70596     -15482.6        5612.1454      25.929952      1.2732545    
    106800   298.9459      -17548.079      5613.9752      25.938406      1.2728395    
    106900   301.38077     -11757.391      5615.8051      25.94686       1.2724248    
    107000   297.77556     -19319.444      5617.6349      25.955315      1.2720103    
    107100   299.51382     -11367.008      5619.4648      25.963769      1.2715961    
    107200   282.34555     -15878.035      5621.2946      25.972224      1.2711822    
    107300   280.48351     -19702.822      5623.1245      25.980679      1.2707685    
    107400   300.21906     -18067.526      5624.9543      25.989133      1.2703551    
    107500   295.1963      -17135.559      5626.7842      25.997588      1.269942     
    107600   312.68414     -16629.513      5628.614       26.006042      1.2695291    
    107700   298.59387     -18154.42       5630.4438      26.014496      1.2691165    
    107800   297.00899     -18136.255      5632.2737      26.022951      1.2687042    
    107900   287.88085     -14734.642      5634.1035      26.031406      1.2682922    
    108000   280.34277     -16588.442      5635.9334      26.03986       1.2678804    
    108100   289.45739     -20452.968      5637.7632      26.048315      1.2674689    
    108200   313.72012     -18816.824      5639.5931      26.056769      1.2670576    
    108300   294.79161     -18315.558      5641.4229      26.065224      1.2666467    
    108400   284.95674     -16519.496      5643.2528      26.073678      1.2662359    
    108500   285.44246     -15972.673      5645.0826      26.082133      1.2658255    
    108600   301.33299     -21490.092      5646.9125      26.090587      1.2654153    
    108700   292.2032      -18606.312      5648.7423      26.099042      1.2650054    
    108800   294.57402     -13508.022      5650.5722      26.107496      1.2645957    
    108900   307.85488     -23221.237      5652.402       26.115951      1.2641863    
    109000   340.27581     -13133.397      5654.2319      26.124405      1.2637772    
    109100   306.54026     -18989.311      5656.0617      26.13286       1.2633684    
    109200   290.01335     -21190.992      5657.8916      26.141314      1.2629598    
    109300   295.19414     -25981.95       5659.7214      26.149769      1.2625514    
    109400   304.64327     -20939.9        5661.5513      26.158223      1.2621434    
    109500   302.23828     -18824.026      5663.3811      26.166677      1.2617356    
    109600   310.85179     -14608.393      5665.211       26.175132      1.261328     
    109700   297.31084     -16900.665      5667.0408      26.183587      1.2609208    
    109800   293.21748     -13764.974      5668.8707      26.192041      1.2605138    
    109900   289.60532     -24339.927      5670.7005      26.200496      1.260107     
    110000   291.8079      -15264.117      5672.5304      26.20895       1.2597005    
    110100   302.30053     -23427.535      5674.3602      26.217405      1.2592943    
    110200   295.01157     -17886.651      5676.1901      26.225859      1.2588883    
    110300   296.15097     -18927.227      5678.0199      26.234313      1.2584826    
    110400   295.51843     -17043.454      5679.8498      26.242768      1.2580772    
    110500   283.57697     -11663.622      5681.6796      26.251223      1.257672     
    110600   299.62913     -19399.679      5683.5095      26.259677      1.2572671    
    110700   288.93208     -17715.45       5685.3393      26.268132      1.2568624    
    110800   303.02473     -18170.323      5687.1692      26.276586      1.2564581    
    110900   305.88297     -19688.796      5688.999       26.285041      1.2560539    
    111000   297.32192     -16966.275      5690.8289      26.293495      1.25565      
    111100   270.68806     -23469.763      5692.6587      26.301949      1.2552464    
    111200   299.30518     -12634.359      5694.4885      26.310404      1.2548431    
    111300   298.48039     -16784.039      5696.3184      26.318859      1.25444      
    111400   302.86413     -22732.66       5698.1482      26.327313      1.2540371    
    111500   304.05205     -21443.622      5699.9781      26.335768      1.2536345    
    111600   302.42975     -23038.001      5701.8079      26.344222      1.2532322    
    111700   282.59684     -14260.139      5703.6378      26.352677      1.2528302    
    111800   311.4227      -14072.059      5705.4676      26.361131      1.2524284    
    111900   316.97748     -17200.555      5707.2975      26.369585      1.2520268    
    112000   302.06406     -18967.038      5709.1273      26.37804       1.2516255    
    112100   294.51307     -14606.457      5710.9572      26.386495      1.2512245    
    112200   288.77026     -17303.834      5712.787       26.394949      1.2508237    
    112300   276.86671     -18156.886      5714.6169      26.403404      1.2504232    
    112400   263.32485     -14691.932      5716.4467      26.411858      1.2500229    
    112500   282.55955     -18725.414      5718.2766      26.420313      1.2496229    
    112600   294.46484     -17298.562      5720.1064      26.428767      1.2492232    
    112700   296.54113     -16992.691      5721.9363      26.437221      1.2488237    
    112800   300.43565     -17030.833      5723.7661      26.445676      1.2484244    
    112900   287.6513      -18948.578      5725.596       26.45413       1.2480254    
    113000   282.25385     -19702.956      5727.4258      26.462585      1.2476267    
    113100   278.76509     -17196.598      5729.2557      26.47104       1.2472282    
    113200   312.97694     -16413.491      5731.0855      26.479494      1.24683      
    113300   315.26261     -19950.107      5732.9154      26.487949      1.2464321    
    113400   281.53577     -14951.847      5734.7452      26.496403      1.2460343    
    113500   302.33198     -15168.814      5736.5751      26.504857      1.2456369    
    113600   298.99883     -17046.681      5738.4049      26.513312      1.2452397    
    113700   305.79044     -17506.404      5740.2348      26.521767      1.2448427    
    113800   319.66218     -15878.696      5742.0646      26.530221      1.244446     
    113900   312.32875     -18505.992      5743.8945      26.538676      1.2440496    
    114000   299.89078     -10504.776      5745.7243      26.54713       1.2436534    
    114100   291.73441     -17941.781      5747.5542      26.555585      1.2432574    
    114200   282.86842     -29162.843      5749.384       26.564039      1.2428618    
    114300   306.96245     -20262.531      5751.2139      26.572494      1.2424663    
    114400   305.99227     -16204.819      5753.0437      26.580948      1.2420711    
    114500   293.32587     -20032.961      5754.8735      26.589403      1.2416762    
    114600   280.35241     -12937.452      5756.7034      26.597857      1.2412815    
    114700   293.56218     -19530.569      5758.5332      26.606312      1.2408871    
    114800   330.37282     -15807.507      5760.3631      26.614766      1.2404929    
    114900   332.97193     -17201.4        5762.1929      26.623221      1.240099     
    115000   303.23935     -18336.862      5764.0228      26.631675      1.2397053    
    115100   295.15483     -17992.061      5765.8526      26.64013       1.2393118    
    115200   280.78924     -19868.302      5767.6825      26.648584      1.2389187    
    115300   313.30768     -23452.485      5769.5123      26.657038      1.2385257    
    115400   321.31964     -18659.427      5771.3422      26.665493      1.238133     
    115500   294.01898     -21099.145      5773.172       26.673948      1.2377406    
    115600   293.65752     -19091.184      5775.0019      26.682402      1.2373484    
    115700   302.53504     -16804.794      5776.8317      26.690857      1.2369565    
    115800   316.64296     -20138.773      5778.6616      26.699311      1.2365648    
    115900   299.47293     -16042.522      5780.4914      26.707766      1.2361734    
    116000   275.06016     -20346.793      5782.3213      26.71622       1.2357822    
    116100   289.63478     -12547.899      5784.1511      26.724674      1.2353912    
    116200   306.76176     -15221.59       5785.981       26.733129      1.2350005    
    116300   319.6518      -14842.794      5787.8108      26.741584      1.2346101    
    116400   301.68211     -14168.739      5789.6407      26.750038      1.2342199    
    116500   296.8661      -25458.295      5791.4705      26.758493      1.2338299    
    116600   293.9123      -19688.55       5793.3004      26.766947      1.2334402    
    116700   291.23701     -14264.935      5795.1302      26.775402      1.2330507    
    116800   313.98843     -20138.354      5796.9601      26.783856      1.2326615    
    116900   303.75553     -23497.114      5798.7899      26.79231       1.2322725    
    117000   292.5928      -16771.762      5800.6198      26.800765      1.2318838    
    117100   290.82822     -13658.156      5802.4496      26.80922       1.2314953    
    117200   299.45656     -18636.045      5804.2795      26.817674      1.2311071    
    117300   299.74331     -23889.929      5806.1093      26.826129      1.2307191    
    117400   298.08336     -15613.173      5807.9392      26.834583      1.2303313    
    117500   308.09651     -22365.339      5809.769       26.843038      1.2299438    
    117600   291.98935     -24818.222      5811.5989      26.851492      1.2295566    
    117700   309.2536      -9171.9239      5813.4287      26.859946      1.2291695    
    117800   313.23334     -15792.537      5815.2585      26.868401      1.2287828    
    117900   292.02131     -12922.429      5817.0884      26.876856      1.2283962    
    118000   295.76854     -16240.69       5818.9182      26.88531       1.2280099    
    118100   299.76747     -14556.249      5820.7481      26.893765      1.2276239    
    118200   295.64382     -16581.432      5822.5779      26.902219      1.2272381    
    118300   302.45999     -24201.599      5824.4078      26.910674      1.2268525    
    118400   302.00952     -20791.585      5826.2376      26.919128      1.2264672    
    118500   301.79207     -20239.424      5828.0675      26.927582      1.2260821    
    118600   284.79046     -18961.281      5829.8973      26.936037      1.2256973    
    118700   313.1297      -24598.308      5831.7272      26.944492      1.2253127    
    118800   313.94712     -19798.017      5833.557       26.952946      1.2249284    
    118900   309.84562     -20623.057      5835.3869      26.961401      1.2245443    
    119000   314.58459     -15548.525      5837.2167      26.969855      1.2241604    
    119100   310.68905     -18372.758      5839.0466      26.97831       1.2237768    
    119200   291.92188     -13688.199      5840.8764      26.986764      1.2233934    
    119300   296.73215     -22711.425      5842.7063      26.995219      1.2230102    
    119400   310.11341     -19436.048      5844.5361      27.003673      1.2226273    
    119500   306.20464     -23374.789      5846.366       27.012128      1.2222446    
    119600   325.79949     -14159.888      5848.1958      27.020582      1.2218622    
    119700   283.61594     -19240.129      5850.0257      27.029037      1.22148      
    119800   285.043       -14949.351      5851.8555      27.037491      1.2210981    
    119900   307.70535     -23787.67       5853.6854      27.045946      1.2207164    
    120000   309.94394     -25745.769      5855.5152      27.0544        1.2203349    
Loop time of 4850.6 on 8 procs for 120000 steps with 366 atoms

Performance: 1.069 ns/day, 22.456 hours/ns, 24.739 timesteps/s, 9.055 katom-step/s
98.6% CPU use with 8 MPI tasks x 1 OpenMP threads

MPI task timing breakdown:
Section |  min time  |  avg time  |  max time  |%varavg| %total
---------------------------------------------------------------
Pair    | 3383.3     | 3734.2     | 4007.6     | 338.6 | 76.98
Bond    | 0.30585    | 0.33258    | 0.35621    |   3.3 |  0.01
Neigh   | 252.92     | 261.31     | 271.96     |  33.3 |  5.39
Comm    | 137.54     | 410.28     | 760.52     |1018.9 |  8.46
Output  | 0.54773    | 0.60129    | 0.65584    |   4.4 |  0.01
Modify  | 430.98     | 440.97     | 448.67     |  24.6 |  9.09
Other   |            | 2.894      |            |       |  0.06

Nlocal:          45.75 ave          59 max          21 min
Histogram: 1 0 1 0 0 1 1 0 1 3
Nghost:        2588.25 ave        2830 max        2346 min
Histogram: 4 0 0 0 0 0 0 0 0 4
Neighs:        21023.1 ave       29025 max        9523 min
Histogram: 1 0 1 0 2 0 0 0 1 3

Total # of neighbors = 168185
Ave neighs/atom = 459.52186
Ave special neighs/atom = 0
Neighbor list builds = 12000
Dangerous builds not checked
unfix deform_p
unfix data
undump dump_pos${dir}
undump dump_pos3

# Delete dir to make sure it is not reused
variable dir delete



Total wall time: 1:20:50
