LAMMPS (2 Aug 2023 - Update 2)
  using 2 OpenMP thread(s) per MPI task
Reading data file ...
  triclinic box = (0 0 0) to (17.6144 14.9838 17.4642) with tilt (-6.9346 2.088 0.8795)
  2 by 2 by 2 MPI processor grid
  reading atoms ...
  365 atoms
Finding 1-2 1-3 1-4 neighbors ...
  special bond factors lj:    0        0        0       
  special bond factors coul:  0        0        0       
     0 = max # of 1-2 neighbors
     0 = max # of 1-3 neighbors
     0 = max # of 1-4 neighbors
     1 = max # of special neighbors
  special bonds CPU = 0.001 seconds
  read_data CPU = 0.012 seconds
*****Minimization starts.*****
Setting up cg style minimization ...
  Unit style    : real
  Current step  : 0
WARNING: No pairwise cutoff or binsize set. Atom sorting therefore disabled. (src/atom.cpp:2366)
WARNING: Communication cutoff is 0.0. No ghost atoms will be generated. Atoms may get lost. (src/comm_brick.cpp:210)
Per MPI rank memory allocation (min/avg/max) = 6.865 | 6.865 | 6.865 Mbytes
   Step          Temp          E_pair         E_mol          TotEng         Press     
         0   300            0              0              325.50446      3228.1319    
         1   300            0              0              325.50446      3228.1319    
Loop time of 7.99791e-05 on 16 procs for 1 steps with 365 atoms

59.1% CPU use with 8 MPI tasks x 2 OpenMP threads

Minimization stats:
  Stopping criterion = search direction is not downhill
  Energy initial, next-to-last, final = 
                     0                  0                  0
  Force two-norm initial, final = 0 0
  Force max component initial, final = 0 0
  Final line search alpha, max atom move = 0 0
  Iterations, force evaluations = 1 0

MPI task timing breakdown:
Section |  min time  |  avg time  |  max time  |%varavg| %total
---------------------------------------------------------------
Pair    | 0          | 0          | 0          |   0.0 |  0.00
Bond    | 1.02e-07   | 2.4525e-07 | 3.48e-07   |   0.0 |  0.31
Neigh   | 0          | 0          | 0          |   0.0 |  0.00
Comm    | 8.27e-07   | 1.5372e-06 | 1.891e-06  |   0.0 |  1.92
Output  | 0          | 0          | 0          |   0.0 |  0.00
Modify  | 0          | 0          | 0          |   0.0 |  0.00
Other   |            | 7.82e-05   |            |       | 97.77

Nlocal:         45.625 ave          54 max          36 min
Histogram: 1 1 0 1 2 0 0 0 0 3
Nghost:              0 ave           0 max           0 min
Histogram: 8 0 0 0 0 0 0 0 0 0
Neighs:              0 ave           0 max           0 min
Histogram: 8 0 0 0 0 0 0 0 0 0

Total # of neighbors = 0
Ave neighs/atom = 0
Ave special neighs/atom = 0
Neighbor list builds = 0
Dangerous builds = 0
WARNING: New thermo_style command, previous thermo_modify settings will be lost (src/output.cpp:903)

CITE-CITE-CITE-CITE-CITE-CITE-CITE-CITE-CITE-CITE-CITE-CITE-CITE

Your simulation uses code contributions which should be cited:
- pair reaxff command: doi:10.1016/j.parco.2011.08.005
- fix qeq/reaxff command: doi:10.1016/j.parco.2011.08.005
The log file lists these citations in BibTeX format.

CITE-CITE-CITE-CITE-CITE-CITE-CITE-CITE-CITE-CITE-CITE-CITE-CITE

WARNING: Fix qeq/reaxff group is not charge neutral, net charge = -6.56 (src/REAXFF/fix_qeq_reaxff.cpp:392)
Neighbor list info ...
  update: every = 10 steps, delay = 0 steps, check = no
  max neighbors/atom: 2000, page size: 100000
  master list distance cutoff = 12
  ghost atom cutoff = 12
  binsize = 6, bins = 5 3 3
  2 neighbor lists, perpetual/occasional/extra = 2 0 0
  (1) pair reaxff, perpetual
      attributes: half, newton off, ghost
      pair build: half/bin/newtoff/ghost
      stencil: full/ghost/bin/3d
      bin: standard
  (2) fix qeq/reaxff, perpetual, copy from (1)
      attributes: half, newton off
      pair build: copy
      stencil: none
      bin: none
Setting up Verlet run ...
  Unit style    : real
  Current step  : 0
  Time step     : 0.5
Per MPI rank memory allocation (min/avg/max) = 113.3 | 114.2 | 115 Mbytes
   Step          Temp          PotEng         Press        f_avgp[1]       Density         Volume    
         0   300           -38406.192      65843.638      0              1.4343051      4609.3376    
       100   1161.0695     -40338.071     -19575.548     -3049.0256      1.4343051      4609.3376    
       200   822.50539     -41030.253      14362.575     -8957.4971      1.4343051      4609.3376    
       300   575.87508     -41502.325     -1965.2988     -11509.799      1.4343051      4609.3376    
       400   448.36654     -41789.783     -21030.961     -16300.879      1.4343051      4609.3376    
       500   364.09272     -41971.886     -7819.5868     -9828.9232      1.4343051      4609.3376    
       600   317.38828     -42091.696     -202.83545     -9398.1027      1.4343051      4609.3376    
       700   265.09305     -42136.719     -15878.801     -10590.088      1.4343051      4609.3376    
       800   264.60899     -42175.275     -6710.8996     -9481.1328      1.4343051      4609.3376    
       900   280.10728     -42164.157      1195.1988     -4381.951       1.4343051      4609.3376    
      1000   317.97212     -42144.381     -8741.7013     -4741.0709      1.4343051      4609.3376    
      1100   298.66496     -42085.933     -11177.615     -9628.7414      1.4343051      4609.3376    
      1200   347.43624     -42151.421     -17425.051     -9184.2986      1.4343051      4609.3376    
      1300   306.36988     -42165.355     -15019.832     -9713.6135      1.4343051      4609.3376    
      1400   276.06899     -42173.091     -11509.112     -11088.331      1.4343051      4609.3376    
      1500   285.78645     -42184.648     -9139.55       -11104.508      1.4343051      4609.3376    
      1600   302.28719     -42171.785     -7721.0117     -9535.691       1.4343051      4609.3376    
      1700   319.70457     -42158.592      2214.5419     -2976.8911      1.4343051      4609.3376    
      1800   299.78022     -42134.541     -14025.461     -10082.905      1.4343051      4609.3376    
      1900   321.61544     -42195.577     -13594.869     -5490.5366      1.4343051      4609.3376    
      2000   307.26581     -42237.411     -6427.213      -5457.8985      1.4343051      4609.3376    
Loop time of 74.6955 on 16 procs for 2000 steps with 365 atoms

Performance: 1.157 ns/day, 20.749 hours/ns, 26.775 timesteps/s, 9.773 katom-step/s
99.2% CPU use with 8 MPI tasks x 2 OpenMP threads

MPI task timing breakdown:
Section |  min time  |  avg time  |  max time  |%varavg| %total
---------------------------------------------------------------
Pair    | 41.283     | 52.403     | 60.633     | 115.0 | 70.16
Bond    | 0.00064849 | 0.00074472 | 0.00096324 |   0.0 |  0.00
Neigh   | 3.6775     | 4.5483     | 5.2185     |  31.0 |  6.09
Comm    | 1.5924     | 9.8276     | 20.958     | 265.6 | 13.16
Output  | 0.0010278  | 0.0011613  | 0.0017767  |   0.7 |  0.00
Modify  | 7.2028     | 7.8766     | 8.7426     |  23.6 | 10.54
Other   |            | 0.03796    |            |       |  0.05

Nlocal:         45.625 ave          53 max          32 min
Histogram: 1 0 0 0 1 0 2 1 1 2
Nghost:        2859.75 ave        2906 max        2812 min
Histogram: 1 0 2 0 1 0 1 2 0 1
Neighs:        25057.8 ave       28940 max       17951 min
Histogram: 1 0 0 0 1 0 2 1 2 1

Total # of neighbors = 200462
Ave neighs/atom = 549.21096
Ave special neighs/atom = 0
Neighbor list builds = 200
Dangerous builds not checked
System init for write_data ...
System init for write_restart ...
  using 2 OpenMP thread(s) per MPI task
Reading restart file ...
  restart file = 2 Aug 2023, LAMMPS = 2 Aug 2023
  restoring atom style full from restart
  triclinic box = (0 0 0) to (17.6144 14.9838 17.4642) with tilt (-6.9346 2.088 0.8795)
  2 by 2 by 2 MPI processor grid
  pair style reaxff stores no restart info
  365 atoms
Finding 1-2 1-3 1-4 neighbors ...
  special bond factors lj:    0        0        0       
  special bond factors coul:  0        0        0       
     0 = max # of 1-2 neighbors
     0 = max # of 1-3 neighbors
     0 = max # of 1-4 neighbors
     1 = max # of special neighbors
  special bonds CPU = 0.000 seconds
  read_restart CPU = 0.003 seconds
*****Negative-change 1 starts.*****
Resetting global fix info from restart file:
  fix style: nvt, fix ID: 4
Changing box ...
  triclinic box = (0 0 0) to (17.438256 14.9838 17.4642) with tilt (-6.9346 2.088 0.8795)
  triclinic box = (0 0 0) to (17.438256 14.9838 17.4642) with tilt (-6.865254 2.088 0.8795)
  triclinic box = (0 0 0) to (17.438256 14.9838 17.4642) with tilt (-6.865254 2.06712 0.8795)
All restart file global fix info was re-assigned
Neighbor list info ...
  update: every = 10 steps, delay = 0 steps, check = no
  max neighbors/atom: 2000, page size: 100000
  master list distance cutoff = 12
  ghost atom cutoff = 12
  binsize = 6, bins = 5 3 3
  2 neighbor lists, perpetual/occasional/extra = 2 0 0
  (1) pair reaxff, perpetual
      attributes: half, newton off, ghost
      pair build: half/bin/newtoff/ghost
      stencil: full/ghost/bin/3d
      bin: standard
  (2) fix qeq/reaxff, perpetual, copy from (1)
      attributes: half, newton off
      pair build: copy
      stencil: none
      bin: none
Setting up Verlet run ...
  Unit style    : real
  Current step  : 0
  Time step     : 0.5
Per MPI rank memory allocation (min/avg/max) = 112.3 | 113.9 | 115.6 Mbytes
   Step          Temp          PotEng         Press        f_avgp[1]        Volume    
         0   307.26581     -42223.647      42905.976      0              4563.2442    
       100   285.95343     -42243.772     -4987.6798     -3852.5602      4563.2442    
       200   284.65212     -42247.242     -17195.105     -10314.259      4563.2442    
       300   280.58006     -42216.095     -2677.3974     -6666.0087      4563.2442    
       400   322.16523     -42217.591     -7943.8658     -7198.453       4563.2442    
       500   307.86074     -42189.428     -5689.5586     -2604.5296      4563.2442    
       600   307.67178     -42217.165     -2907.9774     -1638.3493      4563.2442    
       700   287.5602      -42237.456     -4344.262      -6684.2116      4563.2442    
       800   282.59129     -42250.75      -8676.6749     -5405.0518      4563.2442    
       900   304.15161     -42261.957     -9983.0001     -7701.2559      4563.2442    
      1000   302.72067     -42242.981     -15790.394     -6077.6345      4563.2442    
      1100   300.68008     -42228.356     -25393.639     -12375.247      4563.2442    
      1200   318.51474     -42238.773     -11599.542     -11061.611      4563.2442    
      1300   310.34546     -42243.221     -1986.2293     -9313.7171      4563.2442    
      1400   277.51449     -42234.93      -6616.6251     -3962.5563      4563.2442    
      1500   286.44327     -42249.817     -11587.257     -7952.0299      4563.2442    
      1600   300.05376     -42253.528     -10506.325     -7465.0921      4563.2442    
      1700   319.04205     -42248.618      3064.8532     -6711.9483      4563.2442    
      1800   321.87059     -42242.076      213.28421     -8062.6368      4563.2442    
      1900   314.46801     -42244.955     -10000.722     -7885.3828      4563.2442    
      2000   284.51966     -42239.871     -13156.699     -7977.8246      4563.2442    
Loop time of 77.098 on 16 procs for 2000 steps with 365 atoms

Performance: 1.121 ns/day, 21.416 hours/ns, 25.941 timesteps/s, 9.468 katom-step/s
99.3% CPU use with 8 MPI tasks x 2 OpenMP threads

MPI task timing breakdown:
Section |  min time  |  avg time  |  max time  |%varavg| %total
---------------------------------------------------------------
Pair    | 41.479     | 56.774     | 63.615     | 112.6 | 73.64
Bond    | 0.00055342 | 0.00072028 | 0.00090766 |   0.0 |  0.00
Neigh   | 3.6952     | 4.8062     | 5.3049     |  29.3 |  6.23
Comm    | 0.78601    | 7.6299     | 22.932     | 307.1 |  9.90
Output  | 0.0045672  | 0.0073174  | 0.008754   |   1.9 |  0.01
Modify  | 7.3382     | 7.8374     | 8.9555     |  23.0 | 10.17
Other   |            | 0.0426     |            |       |  0.06

Nlocal:         45.625 ave          58 max          32 min
Histogram: 1 0 0 1 1 3 1 0 0 1
Nghost:        2858.88 ave        2884 max        2828 min
Histogram: 2 0 0 0 1 1 0 2 1 1
Neighs:        25323.4 ave       31757 max       18137 min
Histogram: 1 0 0 1 1 3 0 1 0 1

Total # of neighbors = 202587
Ave neighs/atom = 555.03288
Ave special neighs/atom = 0
Neighbor list builds = 200
Dangerous builds not checked
*****Equilibration neg1 starts.*****
WARNING: New thermo_style command, previous thermo_modify settings will be lost (src/output.cpp:903)
Neighbor list info ...
  update: every = 10 steps, delay = 0 steps, check = no
  max neighbors/atom: 2000, page size: 100000
  master list distance cutoff = 12
  ghost atom cutoff = 12
  binsize = 6, bins = 5 3 3
  2 neighbor lists, perpetual/occasional/extra = 2 0 0
  (1) pair reaxff, perpetual
      attributes: half, newton off, ghost
      pair build: half/bin/newtoff/ghost
      stencil: full/ghost/bin/3d
      bin: standard
  (2) fix qeq/reaxff, perpetual, copy from (1)
      attributes: half, newton off
      pair build: copy
      stencil: none
      bin: none
Setting up Verlet run ...
  Unit style    : real
  Current step  : 0
  Time step     : 0.5
Per MPI rank memory allocation (min/avg/max) = 112.3 | 113.9 | 115.7 Mbytes
   Step          Temp          PotEng         Press        f_avgp[1]        Volume    
         0   284.51966     -42239.871     -13156.707      0              4563.2442    
       100   314.91617     -42268.39      -3333.538      -7374.5201      4563.2442    
       200   287.05641     -42224.627     -2553.8198     -5044.7754      4563.2442    
       300   309.03254     -42219.035     -11363.759     -11019.2        4563.2442    
       400   320.48908     -42231.388     -10835.365     -7977.5307      4563.2442    
       500   319.77644     -42259.75      -8661.6795     -5554.7007      4563.2442    
       600   295.69395     -42249.231     -14759.268     -7233.9642      4563.2442    
       700   296.54493     -42259.058     -5077.826      -4964.9606      4563.2442    
       800   297.05664     -42266.447      4215.1505     -6443.1103      4563.2442    
       900   283.72314     -42267.79      -20463.997     -6902.428       4563.2442    
      1000   295.08215     -42281.188     -18297.833     -7667.3994      4563.2442    
      1100   305.41373     -42280.337     -12438.809     -7607.8182      4563.2442    
      1200   310.20707     -42264.467     -11443.391     -8262.5666      4563.2442    
      1300   330.01132     -42263.415     -681.34193     -5854.136       4563.2442    
      1400   305.05721     -42248.721     -10669.369     -6451.2873      4563.2442    
      1500   286.46003     -42260.482     -2485.8079     -4927.9394      4563.2442    
      1600   298.19644     -42279.597      2895.5563     -5603.7919      4563.2442    
      1700   285.48074     -42261.437      6118.84       -9025.0974      4563.2442    
      1800   324.13409     -42279.845     -9199.9252     -4386.094       4563.2442    
      1900   316.09371     -42268.698     -15029.536     -6355.2223      4563.2442    
      2000   284.61461     -42248.934     -9228.3065     -10032.618      4563.2442    
Loop time of 77.2433 on 16 procs for 2000 steps with 365 atoms

Performance: 1.119 ns/day, 21.456 hours/ns, 25.892 timesteps/s, 9.451 katom-step/s
99.3% CPU use with 8 MPI tasks x 2 OpenMP threads

MPI task timing breakdown:
Section |  min time  |  avg time  |  max time  |%varavg| %total
---------------------------------------------------------------
Pair    | 41.178     | 56.945     | 63.557     | 114.0 | 73.72
Bond    | 0.00053247 | 0.0007178  | 0.00090343 |   0.0 |  0.00
Neigh   | 3.7137     | 4.8241     | 5.2903     |  28.8 |  6.25
Comm    | 0.81808    | 7.4297     | 23.206     | 315.5 |  9.62
Output  | 0.00081813 | 0.00096247 | 0.0014074  |   0.0 |  0.00
Modify  | 7.5329     | 8.0033     | 9.1226     |  22.4 | 10.36
Other   |            | 0.03961    |            |       |  0.05

Nlocal:         45.625 ave          56 max          32 min
Histogram: 1 0 0 0 2 1 1 2 0 1
Nghost:        2865.75 ave        2891 max        2843 min
Histogram: 1 1 2 0 0 1 0 1 1 1
Neighs:        25369.8 ave       30775 max       18181 min
Histogram: 1 0 0 0 2 1 1 2 0 1

Total # of neighbors = 202958
Ave neighs/atom = 556.04932
Ave special neighs/atom = 0
Neighbor list builds = 200
Dangerous builds not checked
  using 2 OpenMP thread(s) per MPI task
Reading restart file ...
  restart file = 2 Aug 2023, LAMMPS = 2 Aug 2023
  restoring atom style full from restart
  triclinic box = (0 0 0) to (17.6144 14.9838 17.4642) with tilt (-6.9346 2.088 0.8795)
  2 by 2 by 2 MPI processor grid
  pair style reaxff stores no restart info
  365 atoms
Finding 1-2 1-3 1-4 neighbors ...
  special bond factors lj:    0        0        0       
  special bond factors coul:  0        0        0       
     0 = max # of 1-2 neighbors
     0 = max # of 1-3 neighbors
     0 = max # of 1-4 neighbors
     1 = max # of special neighbors
  special bonds CPU = 0.000 seconds
  read_restart CPU = 0.003 seconds
*****Positive-change 1 starts.*****
Resetting global fix info from restart file:
  fix style: nvt, fix ID: 4
Changing box ...
  triclinic box = (0 0 0) to (17.790544 14.9838 17.4642) with tilt (-6.9346 2.088 0.8795)
  triclinic box = (0 0 0) to (17.790544 14.9838 17.4642) with tilt (-7.003946 2.088 0.8795)
  triclinic box = (0 0 0) to (17.790544 14.9838 17.4642) with tilt (-7.003946 2.10888 0.8795)
All restart file global fix info was re-assigned
Neighbor list info ...
  update: every = 10 steps, delay = 0 steps, check = no
  max neighbors/atom: 2000, page size: 100000
  master list distance cutoff = 12
  ghost atom cutoff = 12
  binsize = 6, bins = 5 3 3
  2 neighbor lists, perpetual/occasional/extra = 2 0 0
  (1) pair reaxff, perpetual
      attributes: half, newton off, ghost
      pair build: half/bin/newtoff/ghost
      stencil: full/ghost/bin/3d
      bin: standard
  (2) fix qeq/reaxff, perpetual, copy from (1)
      attributes: half, newton off
      pair build: copy
      stencil: none
      bin: none
Setting up Verlet run ...
  Unit style    : real
  Current step  : 0
  Time step     : 0.5
Per MPI rank memory allocation (min/avg/max) = 111.3 | 112.6 | 114 Mbytes
   Step          Temp          PotEng         Press        f_avgp[1]        Volume    
         0   307.26581     -42207.44      -47475.837      0              4655.431     
       100   283.61866     -42225.739     -13416.217     -10925.312      4655.431     
       200   284.29996     -42233.46      -19564.893     -14952.1        4655.431     
       300   292.3292      -42217.621     -11522.96      -10224.431      4655.431     
       400   336.93032     -42225.827     -4150.8393     -8114.1303      4655.431     
       500   320.25587     -42195.368     -8771.5327     -7246.9687      4655.431     
       600   308.28867     -42210.861     -9672.9052     -5792.6094      4655.431     
       700   296.50886     -42244.529     -15859.74      -10561.145      4655.431     
       800   293.40325     -42269.084     -8419.1992     -9907.1624      4655.431     
       900   291.86212     -42252.6       -19185.224     -14029.844      4655.431     
      1000   298.18236     -42215.11      -15190.475     -8469.6087      4655.431     
      1100   325.76117     -42208.891      5526.9055     -11674.441      4655.431     
      1200   328.69859     -42220.363     -17089.623     -14458.143      4655.431     
      1300   284.24961     -42207.345     -9099.5009     -9108.1632      4655.431     
      1400   280.86778     -42227.993     -14492.113     -9553.9184      4655.431     
      1500   291.30965     -42227.194     -11659.826     -4804.8403      4655.431     
      1600   297.65497     -42212.183     -11343.269     -12326.083      4655.431     
      1700   315.00843     -42213.796     -7387.716      -15194.169      4655.431     
      1800   305.51629     -42210.84      -5696.3351     -9103.2408      4655.431     
      1900   304.39411     -42236.964     -15728.969     -6926.7023      4655.431     
      2000   293.07046     -42252.949     -8791.4537     -4548.8375      4655.431     
Loop time of 75.2658 on 16 procs for 2000 steps with 365 atoms

Performance: 1.148 ns/day, 20.907 hours/ns, 26.573 timesteps/s, 9.699 katom-step/s
99.2% CPU use with 8 MPI tasks x 2 OpenMP threads

MPI task timing breakdown:
Section |  min time  |  avg time  |  max time  |%varavg| %total
---------------------------------------------------------------
Pair    | 39.933     | 55.453     | 62.056     | 112.1 | 73.68
Bond    | 0.00051877 | 0.00073823 | 0.00091437 |   0.0 |  0.00
Neigh   | 3.6175     | 4.7376     | 5.1726     |  28.6 |  6.29
Comm    | 0.65477    | 7.2607     | 22.79      | 310.0 |  9.65
Output  | 0.004098   | 0.0065351  | 0.0078081  |   1.7 |  0.01
Modify  | 7.3278     | 7.7676     | 8.8987     |  22.4 | 10.32
Other   |            | 0.04       |            |       |  0.05

Nlocal:         45.625 ave          59 max          33 min
Histogram: 1 0 0 3 0 1 1 0 1 1
Nghost:        2822.38 ave        2852 max        2800 min
Histogram: 2 2 0 0 0 1 0 2 0 1
Neighs:          24815 ave       31594 max       18299 min
Histogram: 1 0 0 3 0 1 1 0 1 1

Total # of neighbors = 198520
Ave neighs/atom = 543.89041
Ave special neighs/atom = 0
Neighbor list builds = 200
Dangerous builds not checked
*****Equilibration pos1 starts.*****
WARNING: New thermo_style command, previous thermo_modify settings will be lost (src/output.cpp:903)
Neighbor list info ...
  update: every = 10 steps, delay = 0 steps, check = no
  max neighbors/atom: 2000, page size: 100000
  master list distance cutoff = 12
  ghost atom cutoff = 12
  binsize = 6, bins = 5 3 3
  2 neighbor lists, perpetual/occasional/extra = 2 0 0
  (1) pair reaxff, perpetual
      attributes: half, newton off, ghost
      pair build: half/bin/newtoff/ghost
      stencil: full/ghost/bin/3d
      bin: standard
  (2) fix qeq/reaxff, perpetual, copy from (1)
      attributes: half, newton off
      pair build: copy
      stencil: none
      bin: none
Setting up Verlet run ...
  Unit style    : real
  Current step  : 0
  Time step     : 0.5
Per MPI rank memory allocation (min/avg/max) = 111.3 | 112.6 | 113.9 Mbytes
   Step          Temp          PotEng         Press        f_avgp[1]        Volume    
         0   293.07046     -42252.949     -8791.4201      0              4655.431     
       100   293.25849     -42240.583     -4791.3016     -10614.633      4655.431     
       200   339.75096     -42259.343     -16273.273     -8058.1073      4655.431     
       300   313.47869     -42221.571     -6061.8696     -9788.919       4655.431     
       400   323.6653      -42243.432     -10485.544     -8613.6049      4655.431     
       500   304.80839     -42237.676     -12487.574     -10916.362      4655.431     
       600   291.33333     -42237.666     -9565.5735     -6548.5487      4655.431     
       700   299.31586     -42241.79      -4474.1293     -4793.9608      4655.431     
       800   304.91836     -42217.634     -18723.569     -6302.0265      4655.431     
       900   317.71253     -42221.976     -13280.876     -7008.6939      4655.431     
      1000   313.52545     -42248.376     -9695.4115     -7605.4292      4655.431     
      1100   314.23889     -42257.912     -16113.426     -10510.623      4655.431     
      1200   302.42107     -42245.598     -8200.7182     -14927.593      4655.431     
      1300   303.95882     -42246.908     -3322.1698     -10104.445      4655.431     
      1400   297.74752     -42246.118     -17385.465     -6390.5419      4655.431     
      1500   277.79173     -42231.284     -8496.0013     -9092.9292      4655.431     
      1600   310.90734     -42264.648     -5144.7542     -7104.4529      4655.431     
      1700   288.93646     -42239.409     -22615.742     -8197.6264      4655.431     
      1800   314.2333      -42251.13      -13602.127     -5966.0096      4655.431     
      1900   304.95582     -42225.868     -12254.166     -6119.0529      4655.431     
      2000   302.86909     -42209.437     -2040.5973     -9775.9436      4655.431     
Loop time of 75.7515 on 16 procs for 2000 steps with 365 atoms

Performance: 1.141 ns/day, 21.042 hours/ns, 26.402 timesteps/s, 9.637 katom-step/s
99.4% CPU use with 8 MPI tasks x 2 OpenMP threads

MPI task timing breakdown:
Section |  min time  |  avg time  |  max time  |%varavg| %total
---------------------------------------------------------------
Pair    | 40.1       | 55.811     | 62.467     | 113.5 | 73.68
Bond    | 0.00052035 | 0.00073786 | 0.00091095 |   0.0 |  0.00
Neigh   | 3.6582     | 4.7705     | 5.2186     |  28.3 |  6.30
Comm    | 0.64353    | 7.2987     | 23.02      | 313.8 |  9.64
Output  | 0.00083047 | 0.00094271 | 0.0013793  |   0.0 |  0.00
Modify  | 7.3762     | 7.828      | 8.951      |  22.2 | 10.33
Other   |            | 0.04144    |            |       |  0.05

Nlocal:         45.625 ave          53 max          31 min
Histogram: 1 0 0 0 0 2 1 0 2 2
Nghost:        2837.88 ave        2850 max        2819 min
Histogram: 1 0 0 1 0 1 0 3 1 1
Neighs:        24843.5 ave       28646 max       17228 min
Histogram: 1 0 0 0 1 1 1 0 3 1

Total # of neighbors = 198748
Ave neighs/atom = 544.51507
Ave special neighs/atom = 0
Neighbor list builds = 200
Dangerous builds not checked
  using 2 OpenMP thread(s) per MPI task
Reading restart file ...
  restart file = 2 Aug 2023, LAMMPS = 2 Aug 2023
  restoring atom style full from restart
  triclinic box = (0 0 0) to (17.6144 14.9838 17.4642) with tilt (-6.9346 2.088 0.8795)
  2 by 2 by 2 MPI processor grid
  pair style reaxff stores no restart info
  365 atoms
Finding 1-2 1-3 1-4 neighbors ...
  special bond factors lj:    0        0        0       
  special bond factors coul:  0        0        0       
     0 = max # of 1-2 neighbors
     0 = max # of 1-3 neighbors
     0 = max # of 1-4 neighbors
     1 = max # of special neighbors
  special bonds CPU = 0.000 seconds
  read_restart CPU = 0.003 seconds
*****Negative-change 2 starts.*****
Resetting global fix info from restart file:
  fix style: nvt, fix ID: 4
Changing box ...
  triclinic box = (0 0 0) to (17.6144 14.833962 17.4642) with tilt (-6.9346 2.088 0.8795)
  triclinic box = (0 0 0) to (17.6144 14.833962 17.4642) with tilt (-6.9346 2.088 0.870705)
All restart file global fix info was re-assigned
Neighbor list info ...
  update: every = 10 steps, delay = 0 steps, check = no
  max neighbors/atom: 2000, page size: 100000
  master list distance cutoff = 12
  ghost atom cutoff = 12
  binsize = 6, bins = 5 3 3
  2 neighbor lists, perpetual/occasional/extra = 2 0 0
  (1) pair reaxff, perpetual
      attributes: half, newton off, ghost
      pair build: half/bin/newtoff/ghost
      stencil: full/ghost/bin/3d
      bin: standard
  (2) fix qeq/reaxff, perpetual, copy from (1)
      attributes: half, newton off
      pair build: copy
      stencil: none
      bin: none
Setting up Verlet run ...
  Unit style    : real
  Current step  : 0
  Time step     : 0.5
Per MPI rank memory allocation (min/avg/max) = 112.6 | 114.3 | 115.9 Mbytes
   Step          Temp          PotEng         Press        f_avgp[1]        Volume    
         0   307.26581     -42221.199      43308.131      0              4563.2442    
       100   287.58914     -42245.099     -4032.8597     -6263.1702      4563.2442    
       200   277.17144     -42243.047     -15590.647     -10607.87       4563.2442    
       300   279.27506     -42224.385     -12999.319     -7187.4911      4563.2442    
       400   326.90943     -42232.927     -9893.7099     -7271.8891      4563.2442    
       500   317.55126     -42201.587     -6644.1858     -329.3593       4563.2442    
       600   320.08069     -42218.994     -1574.0396     -2552.6661      4563.2442    
       700   303.27548     -42244.631     -12523.403     -7817.0851      4563.2442    
       800   283.49213     -42260.304     -8140.0475     -8224.7511      4563.2442    
       900   285.13506     -42261.902      1660.3235     -5154.1722      4563.2442    
      1000   324.90221     -42276.777     -15408.078     -8450.0799      4563.2442    
      1100   307.55399     -42230.987     -9637.5044     -7789.8567      4563.2442    
      1200   316.45303     -42234.965     -4127.5943     -9324.5964      4563.2442    
      1300   302.83739     -42233.287     -7880.2144     -16394.411      4563.2442    
      1400   289.04433     -42237.958     -18084.579     -9473.6695      4563.2442    
      1500   307.3166      -42268.268     -20979.931     -11838.6        4563.2442    
      1600   302.89402     -42262.153     -17279.614     -11844.785      4563.2442    
      1700   294.09655     -42252.489     -5215.2767     -8080.248       4563.2442    
      1800   282.62678     -42233.097     -13199.559     -6526.7424      4563.2442    
      1900   323.56021     -42247.624     -4891.1312     -7109.5212      4563.2442    
      2000   338.66202     -42259.365     -2762.677      -3116.4062      4563.2442    
Loop time of 77.2098 on 16 procs for 2000 steps with 365 atoms

Performance: 1.119 ns/day, 21.447 hours/ns, 25.903 timesteps/s, 9.455 katom-step/s
99.2% CPU use with 8 MPI tasks x 2 OpenMP threads

MPI task timing breakdown:
Section |  min time  |  avg time  |  max time  |%varavg| %total
---------------------------------------------------------------
Pair    | 41.798     | 57.453     | 63.776     | 112.9 | 74.41
Bond    | 0.00051387 | 0.00074548 | 0.00093573 |   0.0 |  0.00
Neigh   | 3.8126     | 4.9135     | 5.3896     |  28.0 |  6.36
Comm    | 0.7966     | 7.1205     | 22.781     | 320.9 |  9.22
Output  | 0.0042249  | 0.0064199  | 0.0076533  |   1.6 |  0.01
Modify  | 7.1967     | 7.6734     | 8.7818     |  22.5 |  9.94
Other   |            | 0.04247    |            |       |  0.06

Nlocal:         45.625 ave          55 max          36 min
Histogram: 1 1 0 0 1 2 2 0 0 1
Nghost:        2899.88 ave        2936 max        2861 min
Histogram: 2 0 0 1 1 0 1 0 2 1
Neighs:        25336.9 ave       30220 max       20271 min
Histogram: 1 1 0 0 1 2 2 0 0 1

Total # of neighbors = 202695
Ave neighs/atom = 555.32877
Ave special neighs/atom = 0
Neighbor list builds = 200
Dangerous builds not checked
*****Equilibration neg2 starts.*****
WARNING: New thermo_style command, previous thermo_modify settings will be lost (src/output.cpp:903)
Neighbor list info ...
  update: every = 10 steps, delay = 0 steps, check = no
  max neighbors/atom: 2000, page size: 100000
  master list distance cutoff = 12
  ghost atom cutoff = 12
  binsize = 6, bins = 5 3 3
  2 neighbor lists, perpetual/occasional/extra = 2 0 0
  (1) pair reaxff, perpetual
      attributes: half, newton off, ghost
      pair build: half/bin/newtoff/ghost
      stencil: full/ghost/bin/3d
      bin: standard
  (2) fix qeq/reaxff, perpetual, copy from (1)
      attributes: half, newton off
      pair build: copy
      stencil: none
      bin: none
Setting up Verlet run ...
  Unit style    : real
  Current step  : 0
  Time step     : 0.5
Per MPI rank memory allocation (min/avg/max) = 112.6 | 114.3 | 115.9 Mbytes
   Step          Temp          PotEng         Press        f_avgp[1]        Volume    
         0   338.66202     -42259.365     -2762.6802      0              4563.2442    
       100   301.51845     -42239.524      2747.4686     -8482.355       4563.2442    
       200   273.10267     -42226.915      492.54991     -5077.8855      4563.2442    
       300   299.52947     -42256.939     -6531.2807     -5032.7353      4563.2442    
       400   303.4159      -42265.488     -3066.2826     -12586.619      4563.2442    
       500   300.99416     -42260.753     -10050.953     -13305.299      4563.2442    
       600   339.45273     -42281.764     -8389.841      -10073.365      4563.2442    
       700   326.06781     -42254.117     -16100.492     -11051.933      4563.2442    
       800   289.9871      -42243.236     -4540.0859     -5646.9587      4563.2442    
       900   305.37572     -42274.406     -10655.379     -3394.5946      4563.2442    
      1000   306.73347     -42283.67      -7959.5535     -4996.8908      4563.2442    
      1100   284.00428     -42266.954     -11223.364     -11940.084      4563.2442    
      1200   295.03529     -42304.696     -18896.176     -11660.152      4563.2442    
      1300   274.55795     -42297.429     -21013.285     -10075.194      4563.2442    
      1400   296.81114     -42292.526     -15545.656     -10837.895      4563.2442    
      1500   306.30645     -42281.925     -9101.9762     -10734.929      4563.2442    
      1600   301.80954     -42273.916     -12004.236     -8463.7983      4563.2442    
      1700   279.75882     -42262.807     -21933.903     -11414.638      4563.2442    
      1800   287.67868     -42288.478     -19826.231     -11895.755      4563.2442    
      1900   287.41489     -42291.8       -11843.179     -8278.741       4563.2442    
      2000   307.55387     -42283.532     -13001.018     -4171.8826      4563.2442    
Loop time of 77.3543 on 16 procs for 2000 steps with 365 atoms

Performance: 1.117 ns/day, 21.487 hours/ns, 25.855 timesteps/s, 9.437 katom-step/s
99.3% CPU use with 8 MPI tasks x 2 OpenMP threads

MPI task timing breakdown:
Section |  min time  |  avg time  |  max time  |%varavg| %total
---------------------------------------------------------------
Pair    | 41.178     | 57.242     | 63.826     | 113.5 | 74.00
Bond    | 0.00052281 | 0.00075492 | 0.00099572 |   0.0 |  0.00
Neigh   | 3.7363     | 4.8588     | 5.3247     |  28.2 |  6.28
Comm    | 0.67207    | 7.254      | 23.324     | 318.8 |  9.38
Output  | 0.00084253 | 0.00091336 | 0.0012774  |   0.0 |  0.00
Modify  | 7.4919     | 7.957      | 9.0869     |  22.1 | 10.29
Other   |            | 0.04051    |            |       |  0.05

Nlocal:         45.625 ave          56 max          33 min
Histogram: 1 0 0 1 1 1 2 1 0 1
Nghost:        2877.75 ave        2905 max        2862 min
Histogram: 2 0 2 1 1 1 0 0 0 1
Neighs:        25326.8 ave       30743 max       18676 min
Histogram: 1 0 0 1 1 1 2 1 0 1

Total # of neighbors = 202614
Ave neighs/atom = 555.10685
Ave special neighs/atom = 0
Neighbor list builds = 200
Dangerous builds not checked
  using 2 OpenMP thread(s) per MPI task
Reading restart file ...
  restart file = 2 Aug 2023, LAMMPS = 2 Aug 2023
  restoring atom style full from restart
  triclinic box = (0 0 0) to (17.6144 14.9838 17.4642) with tilt (-6.9346 2.088 0.8795)
  2 by 2 by 2 MPI processor grid
  pair style reaxff stores no restart info
  365 atoms
Finding 1-2 1-3 1-4 neighbors ...
  special bond factors lj:    0        0        0       
  special bond factors coul:  0        0        0       
     0 = max # of 1-2 neighbors
     0 = max # of 1-3 neighbors
     0 = max # of 1-4 neighbors
     1 = max # of special neighbors
  special bonds CPU = 0.000 seconds
  read_restart CPU = 0.003 seconds
*****Positive-change 2 starts.*****
Resetting global fix info from restart file:
  fix style: nvt, fix ID: 4
Changing box ...
  triclinic box = (0 0 0) to (17.6144 15.133638 17.4642) with tilt (-6.9346 2.088 0.8795)
  triclinic box = (0 0 0) to (17.6144 15.133638 17.4642) with tilt (-6.9346 2.088 0.888295)
All restart file global fix info was re-assigned
Neighbor list info ...
  update: every = 10 steps, delay = 0 steps, check = no
  max neighbors/atom: 2000, page size: 100000
  master list distance cutoff = 12
  ghost atom cutoff = 12
  binsize = 6, bins = 5 3 3
  2 neighbor lists, perpetual/occasional/extra = 2 0 0
  (1) pair reaxff, perpetual
      attributes: half, newton off, ghost
      pair build: half/bin/newtoff/ghost
      stencil: full/ghost/bin/3d
      bin: standard
  (2) fix qeq/reaxff, perpetual, copy from (1)
      attributes: half, newton off
      pair build: copy
      stencil: none
      bin: none
Setting up Verlet run ...
  Unit style    : real
  Current step  : 0
  Time step     : 0.5
Per MPI rank memory allocation (min/avg/max) = 111 | 112.3 | 113.8 Mbytes
   Step          Temp          PotEng         Press        f_avgp[1]        Volume    
         0   307.26581     -42214.15      -42785.045      0              4655.431     
       100   286.20844     -42230.408     -10065.947     -5748.7377      4655.431     
       200   274.06257     -42220.272     -19682.775     -12213.028      4655.431     
       300   292.50604     -42214.728     -9605.238      -7353.3317      4655.431     
       400   330.06486     -42217.546     -11526.961     -7527.21        4655.431     
       500   314.3953      -42190.317     -8456.0199     -3324.9604      4655.431     
       600   317.99339     -42220.436     -14339.944     -4556.9298      4655.431     
       700   304.87371     -42250.18      -17960.545     -7899.5578      4655.431     
       800   283.82041     -42259.18      -14000.006     -11507.243      4655.431     
       900   281.53119     -42253.028     -1741.2079     -10554.666      4655.431     
      1000   286.16706     -42222.634     -17426.862     -11155.425      4655.431     
      1100   326.00506     -42228.556     -14962.315     -9647.0177      4655.431     
      1200   305.23445     -42218.654     -11436.009     -12178.227      4655.431     
      1300   305.93039     -42259.768      3782.0021     -6228.238       4655.431     
      1400   256.20635     -42237.268     -6827.4565     -14205.809      4655.431     
      1500   293.62486     -42263.809     -19225.014     -10016.885      4655.431     
      1600   283.22651     -42216.203     -13533.186     -6475.5899      4655.431     
      1700   328.6007      -42232.905     -8262.492      -9268.7256      4655.431     
      1800   332.17987     -42238.549     -6443.0821     -9292.1194      4655.431     
      1900   296.39782     -42241.517     -14961.145     -8312.4122      4655.431     
      2000   293.15805     -42276.948     -6952.8861     -9273.008       4655.431     
Loop time of 75.2274 on 16 procs for 2000 steps with 365 atoms

Performance: 1.149 ns/day, 20.896 hours/ns, 26.586 timesteps/s, 9.704 katom-step/s
99.2% CPU use with 8 MPI tasks x 2 OpenMP threads

MPI task timing breakdown:
Section |  min time  |  avg time  |  max time  |%varavg| %total
---------------------------------------------------------------
Pair    | 40.194     | 56.333     | 61.098     |  95.0 | 74.88
Bond    | 0.00053579 | 0.0007329  | 0.00098664 |   0.0 |  0.00
Neigh   | 3.674      | 4.7716     | 5.2272     |  23.6 |  6.34
Comm    | 1.6269     | 6.3901     | 22.535     | 282.1 |  8.49
Output  | 0.0042521  | 0.0063592  | 0.0075275  |   1.5 |  0.01
Modify  | 7.2245     | 7.6827     | 8.7795     |  18.7 | 10.21
Other   |            | 0.04275    |            |       |  0.06

Nlocal:         45.625 ave          56 max          35 min
Histogram: 1 0 1 0 2 1 1 1 0 1
Nghost:        2827.75 ave        2862 max        2795 min
Histogram: 1 1 1 1 0 1 1 0 1 1
Neighs:        24831.1 ave       30173 max       19412 min
Histogram: 1 0 1 0 2 2 0 1 0 1

Total # of neighbors = 198649
Ave neighs/atom = 544.24384
Ave special neighs/atom = 0
Neighbor list builds = 200
Dangerous builds not checked
*****Equilibration pos2 starts.*****
WARNING: New thermo_style command, previous thermo_modify settings will be lost (src/output.cpp:903)
Neighbor list info ...
  update: every = 10 steps, delay = 0 steps, check = no
  max neighbors/atom: 2000, page size: 100000
  master list distance cutoff = 12
  ghost atom cutoff = 12
  binsize = 6, bins = 5 3 3
  2 neighbor lists, perpetual/occasional/extra = 2 0 0
  (1) pair reaxff, perpetual
      attributes: half, newton off, ghost
      pair build: half/bin/newtoff/ghost
      stencil: full/ghost/bin/3d
      bin: standard
  (2) fix qeq/reaxff, perpetual, copy from (1)
      attributes: half, newton off
      pair build: copy
      stencil: none
      bin: none
Setting up Verlet run ...
  Unit style    : real
  Current step  : 0
  Time step     : 0.5
Per MPI rank memory allocation (min/avg/max) = 111 | 112.3 | 113.7 Mbytes
   Step          Temp          PotEng         Press        f_avgp[1]        Volume    
         0   293.15805     -42276.948     -6952.8753      0              4655.431     
       100   293.56387     -42258.698     -13893.519     -12814.249      4655.431     
       200   298.93486     -42240.137     -12249.624     -9254.2699      4655.431     
       300   313.01631     -42250.122     -13100.392     -12917.678      4655.431     
       400   298.43772     -42246.414     -13203.81      -12319.216      4655.431     
       500   292.4512      -42251.629     -611.6446      -11321.371      4655.431     
       600   285.49633     -42264.071     -33.231565     -8033.0846      4655.431     
       700   266.326       -42265.6       -6370.3714     -11721.011      4655.431     
       800   282.58159     -42255.715      2889.8374     -6237.6324      4655.431     
       900   296.69322     -42253.379     -7605.1502     -11757.955      4655.431     
      1000   302.03196     -42247.891     -17255.564     -12300.377      4655.431     
      1100   317.29983     -42249.421      4406.3546     -8014.3255      4655.431     
      1200   304.0291      -42246.33      -11884.254     -5817.473       4655.431     
      1300   295.14378     -42272.438     -15941.317     -5633.5225      4655.431     
      1400   296.03307     -42279.262      1709.9946     -7645.0424      4655.431     
      1500   304.40616     -42272.468     -17483.986     -13050.885      4655.431     
      1600   308.21763     -42263.178     -12242.68      -6438.2166      4655.431     
      1700   299.76799     -42251.726     -6041.9149     -7656.7096      4655.431     
      1800   305.85898     -42262.711     -16254.775     -6011.9156      4655.431     
      1900   291.56591     -42252.529     -4836.3877     -6354.6594      4655.431     
      2000   303.15603     -42250.979     -11842.786     -6424.6606      4655.431     
Loop time of 75.3143 on 16 procs for 2000 steps with 365 atoms

Performance: 1.147 ns/day, 20.921 hours/ns, 26.555 timesteps/s, 9.693 katom-step/s
99.3% CPU use with 8 MPI tasks x 2 OpenMP threads

MPI task timing breakdown:
Section |  min time  |  avg time  |  max time  |%varavg| %total
---------------------------------------------------------------
Pair    | 40.985     | 55.594     | 61.562     | 105.5 | 73.82
Bond    | 0.00055093 | 0.00074273 | 0.0010203  |   0.0 |  0.00
Neigh   | 3.6477     | 4.7025     | 5.1883     |  28.4 |  6.24
Comm    | 1.3438     | 7.3039     | 21.917     | 291.0 |  9.70
Output  | 0.00083062 | 0.00093055 | 0.0012032  |   0.0 |  0.00
Modify  | 7.1771     | 7.6713     | 8.7265     |  22.3 | 10.19
Other   |            | 0.04079    |            |       |  0.05

Nlocal:         45.625 ave          59 max          31 min
Histogram: 1 0 0 1 0 4 1 0 0 1
Nghost:        2836.38 ave        2853 max        2822 min
Histogram: 1 1 2 1 0 0 0 1 0 2
Neighs:        24817.8 ave       31656 max       17262 min
Histogram: 1 0 0 0 2 3 1 0 0 1

Total # of neighbors = 198542
Ave neighs/atom = 543.95068
Ave special neighs/atom = 0
Neighbor list builds = 200
Dangerous builds not checked
  using 2 OpenMP thread(s) per MPI task
Reading restart file ...
  restart file = 2 Aug 2023, LAMMPS = 2 Aug 2023
  restoring atom style full from restart
  triclinic box = (0 0 0) to (17.6144 14.9838 17.4642) with tilt (-6.9346 2.088 0.8795)
  2 by 2 by 2 MPI processor grid
  pair style reaxff stores no restart info
  365 atoms
Finding 1-2 1-3 1-4 neighbors ...
  special bond factors lj:    0        0        0       
  special bond factors coul:  0        0        0       
     0 = max # of 1-2 neighbors
     0 = max # of 1-3 neighbors
     0 = max # of 1-4 neighbors
     1 = max # of special neighbors
  special bonds CPU = 0.000 seconds
  read_restart CPU = 0.003 seconds
*****Negative-change 3 starts.*****
Resetting global fix info from restart file:
  fix style: nvt, fix ID: 4
Changing box ...
  triclinic box = (0 0 0) to (17.6144 14.9838 17.289558) with tilt (-6.9346 2.088 0.8795)
All restart file global fix info was re-assigned
Neighbor list info ...
  update: every = 10 steps, delay = 0 steps, check = no
  max neighbors/atom: 2000, page size: 100000
  master list distance cutoff = 12
  ghost atom cutoff = 12
  binsize = 6, bins = 5 3 3
  2 neighbor lists, perpetual/occasional/extra = 2 0 0
  (1) pair reaxff, perpetual
      attributes: half, newton off, ghost
      pair build: half/bin/newtoff/ghost
      stencil: full/ghost/bin/3d
      bin: standard
  (2) fix qeq/reaxff, perpetual, copy from (1)
      attributes: half, newton off
      pair build: copy
      stencil: none
      bin: none
Setting up Verlet run ...
  Unit style    : real
  Current step  : 0
  Time step     : 0.5
Per MPI rank memory allocation (min/avg/max) = 112.7 | 113.9 | 115.1 Mbytes
   Step          Temp          PotEng         Press        f_avgp[1]        Volume    
         0   307.26581     -42222.846      40864.219      0              4563.2442    
       100   292.7249      -42250.705     -6108.0636     -7025.1587      4563.2442    
       200   273.10115     -42236.622     -9814.2872     -11510.134      4563.2442    
       300   283.95011     -42223.208     -18544.573     -9770.6606      4563.2442    
       400   309.38877     -42208.62      -3597.9656     -10094.622      4563.2442    
       500   312.4643      -42192.337     -764.97808     -4537.5592      4563.2442    
       600   309.2055      -42211.772     -3776.792      -5888.7199      4563.2442    
       700   294.84823     -42241.13      -10457.998     -6632.6669      4563.2442    
       800   284.19628     -42251.271     -11979.181     -6716.9745      4563.2442    
       900   294.77988     -42246.692     -13224.26      -6934.3106      4563.2442    
      1000   320.01988     -42246.383     -8674.6916     -7802.5789      4563.2442    
      1100   304.45686     -42217.648     -6888.3753     -9370.7759      4563.2442    
      1200   325.67689     -42247.741     -22659.489     -14151.028      4563.2442    
      1300   287.53396     -42229.373      4092.8532     -3806.1987      4563.2442    
      1400   292.08273     -42242.012     -1252.6931     -5559.3532      4563.2442    
      1500   292.09555     -42240.537     -12736.285     -8047.7848      4563.2442    
      1600   301.84069     -42240.56      -14390.115     -9798.085       4563.2442    
      1700   308.29008     -42242.74      -9136.7057     -13884.594      4563.2442    
      1800   309.51268     -42251.991     -14033.944     -10642.907      4563.2442    
      1900   289.91481     -42245.875     -23851.951     -6858.53        4563.2442    
      2000   293.12819     -42253.132     -3541.7783     -5322.6647      4563.2442    
Loop time of 76.142 on 16 procs for 2000 steps with 365 atoms

Performance: 1.135 ns/day, 21.151 hours/ns, 26.267 timesteps/s, 9.587 katom-step/s
99.3% CPU use with 8 MPI tasks x 2 OpenMP threads

MPI task timing breakdown:
Section |  min time  |  avg time  |  max time  |%varavg| %total
---------------------------------------------------------------
Pair    | 41.871     | 54.809     | 62.97      | 121.8 | 71.98
Bond    | 0.00052833 | 0.00072652 | 0.00093004 |   0.0 |  0.00
Neigh   | 3.7244     | 4.6711     | 5.2655     |  32.8 |  6.13
Comm    | 0.93831    | 9.1028     | 22.043     | 298.9 | 11.96
Output  | 0.0040469  | 0.0061158  | 0.0072176  |   1.6 |  0.01
Modify  | 6.9103     | 7.514      | 8.4619     |  26.0 |  9.87
Other   |            | 0.03853    |            |       |  0.05

Nlocal:         45.625 ave          54 max          32 min
Histogram: 1 0 0 1 0 1 1 2 1 1
Nghost:        2873.88 ave        2897 max        2840 min
Histogram: 1 0 1 1 0 1 0 0 3 1
Neighs:        25327.2 ave       29775 max       18112 min
Histogram: 1 0 0 1 0 1 1 2 1 1

Total # of neighbors = 202618
Ave neighs/atom = 555.11781
Ave special neighs/atom = 0
Neighbor list builds = 200
Dangerous builds not checked
*****Equilibration neg3 starts.*****
WARNING: New thermo_style command, previous thermo_modify settings will be lost (src/output.cpp:903)
Neighbor list info ...
  update: every = 10 steps, delay = 0 steps, check = no
  max neighbors/atom: 2000, page size: 100000
  master list distance cutoff = 12
  ghost atom cutoff = 12
  binsize = 6, bins = 5 3 3
  2 neighbor lists, perpetual/occasional/extra = 2 0 0
  (1) pair reaxff, perpetual
      attributes: half, newton off, ghost
      pair build: half/bin/newtoff/ghost
      stencil: full/ghost/bin/3d
      bin: standard
  (2) fix qeq/reaxff, perpetual, copy from (1)
      attributes: half, newton off
      pair build: copy
      stencil: none
      bin: none
Setting up Verlet run ...
  Unit style    : real
  Current step  : 0
  Time step     : 0.5
Per MPI rank memory allocation (min/avg/max) = 112.7 | 113.9 | 115.1 Mbytes
   Step          Temp          PotEng         Press        f_avgp[1]        Volume    
         0   293.12819     -42253.132     -3541.7664      0              4563.2442    
       100   302.15128     -42260.551     -10468.381     -4509.4264      4563.2442    
       200   302.44389     -42254.272      2086.0558     -5710.4466      4563.2442    
       300   305.7664      -42242.274     -12322.146     -7051.8908      4563.2442    
       400   316.05543     -42236.698     -21817.978     -13328.278      4563.2442    
       500   309.90359     -42254.052     -10030.606     -7627.8427      4563.2442    
       600   289.61762     -42262.253     -21181.314     -8107.3932      4563.2442    
       700   282.38701     -42252.97      -16807.064     -8767.5171      4563.2442    
       800   295.97175     -42247.066     -7405.8347     -8402.4189      4563.2442    
       900   306.70237     -42243.309     -18097.693     -10197.266      4563.2442    
      1000   305.56749     -42252.565     -3750.5925     -2415.0986      4563.2442    
      1100   280.23124     -42263.504      3591.5951     -6262.2233      4563.2442    
      1200   284.08518     -42277.457     -12922.538     -8479.0711      4563.2442    
      1300   311.55135     -42287.706     -8952.2272     -3744.9976      4563.2442    
      1400   293.44326     -42245.663     -17800.715     -7081.8892      4563.2442    
      1500   307.97975     -42245.102     -8258.6453     -5633.4905      4563.2442    
      1600   304.84657     -42244.39      -11782.523     -9196.4455      4563.2442    
      1700   298.89851     -42274.115     -9836.3934     -9890.6455      4563.2442    
      1800   286.79467     -42269.523     -1264.1569     -5289.6737      4563.2442    
      1900   290.19434     -42261.184      3741.5747     -8073.6844      4563.2442    
      2000   305.19821     -42259.852     -13010.159     -8448.7545      4563.2442    
Loop time of 76.8254 on 16 procs for 2000 steps with 365 atoms

Performance: 1.125 ns/day, 21.340 hours/ns, 26.033 timesteps/s, 9.502 katom-step/s
99.4% CPU use with 8 MPI tasks x 2 OpenMP threads

MPI task timing breakdown:
Section |  min time  |  avg time  |  max time  |%varavg| %total
---------------------------------------------------------------
Pair    | 41.192     | 56.172     | 63.024     | 110.1 | 73.12
Bond    | 0.00051612 | 0.00072183 | 0.00093733 |   0.0 |  0.00
Neigh   | 3.7082     | 4.7702     | 5.2906     |  29.2 |  6.21
Comm    | 1.2452     | 8.0896     | 23.064     | 290.0 | 10.53
Output  | 0.00084849 | 0.00096194 | 0.0013661  |   0.0 |  0.00
Modify  | 7.2224     | 7.7485     | 8.8131     |  22.9 | 10.09
Other   |            | 0.04304    |            |       |  0.06

Nlocal:         45.625 ave          58 max          34 min
Histogram: 2 0 0 1 1 1 1 1 0 1
Nghost:        2894.38 ave        2921 max        2874 min
Histogram: 1 2 1 0 1 0 1 0 1 1
Neighs:        25334.5 ave       31756 max       19144 min
Histogram: 2 0 0 1 1 0 2 1 0 1

Total # of neighbors = 202676
Ave neighs/atom = 555.27671
Ave special neighs/atom = 0
Neighbor list builds = 200
Dangerous builds not checked
  using 2 OpenMP thread(s) per MPI task
Reading restart file ...
  restart file = 2 Aug 2023, LAMMPS = 2 Aug 2023
  restoring atom style full from restart
  triclinic box = (0 0 0) to (17.6144 14.9838 17.4642) with tilt (-6.9346 2.088 0.8795)
  2 by 2 by 2 MPI processor grid
  pair style reaxff stores no restart info
  365 atoms
Finding 1-2 1-3 1-4 neighbors ...
  special bond factors lj:    0        0        0       
  special bond factors coul:  0        0        0       
     0 = max # of 1-2 neighbors
     0 = max # of 1-3 neighbors
     0 = max # of 1-4 neighbors
     1 = max # of special neighbors
  special bonds CPU = 0.000 seconds
  read_restart CPU = 0.003 seconds
*****Positive-change 3 starts.*****
Resetting global fix info from restart file:
  fix style: nvt, fix ID: 4
Changing box ...
  triclinic box = (0 0 0) to (17.6144 14.9838 17.638842) with tilt (-6.9346 2.088 0.8795)
All restart file global fix info was re-assigned
Neighbor list info ...
  update: every = 10 steps, delay = 0 steps, check = no
  max neighbors/atom: 2000, page size: 100000
  master list distance cutoff = 12
  ghost atom cutoff = 12
  binsize = 6, bins = 5 3 3
  2 neighbor lists, perpetual/occasional/extra = 2 0 0
  (1) pair reaxff, perpetual
      attributes: half, newton off, ghost
      pair build: half/bin/newtoff/ghost
      stencil: full/ghost/bin/3d
      bin: standard
  (2) fix qeq/reaxff, perpetual, copy from (1)
      attributes: half, newton off
      pair build: copy
      stencil: none
      bin: none
Setting up Verlet run ...
  Unit style    : real
  Current step  : 0
  Time step     : 0.5
Per MPI rank memory allocation (min/avg/max) = 110 | 111.8 | 113.6 Mbytes
   Step          Temp          PotEng         Press        f_avgp[1]        Volume    
         0   307.26581     -42212.894     -45819.163      0              4655.431     
       100   285.24044     -42229.807     -12234.155     -8171.3697      4655.431     
       200   275.14481     -42223.624     -15463.021     -13200.212      4655.431     
       300   276.30276     -42203.508     -16992.181     -8544.5001      4655.431     
       400   310.85254     -42201.812     -7310.4593     -6947.796       4655.431     
       500   317.08133     -42189.808      2143.0524     -1265.3189      4655.431     
       600   316.33603     -42207.32      -4468.6943     -4934.8153      4655.431     
       700   298.66691     -42226.244     -14685.187     -12712.798      4655.431     
       800   282.6315      -42233.795     -3690.9403     -6595.8782      4655.431     
       900   304.23436     -42258.53      -6520.7589     -5405.8303      4655.431     
      1000   293.48276     -42222.909     -19899.235     -8976.3828      4655.431     
      1100   315.23426     -42211.958     -18086.868     -8525.1592      4655.431     
      1200   337.61654     -42220.945     -17156.289     -11825.298      4655.431     
      1300   301.6565      -42208.646     -5537.3032     -9221.2699      4655.431     
      1400   284.07473     -42223.687     -4439.8595     -4843.6029      4655.431     
      1500   270.21117     -42221.718     -14085.053     -8329.8223      4655.431     
      1600   301.9424      -42243.966     -7150.7333     -9008.9917      4655.431     
      1700   306.18755     -42233.284     -16134.535     -11761.583      4655.431     
      1800   290.46506     -42213.694     -13719.495     -10289.614      4655.431     
      1900   288.45811     -42210.213     -6838.6349     -7432.7188      4655.431     
      2000   297.78485     -42227.902     -16271.847     -4241.3008      4655.431     
Loop time of 75.556 on 16 procs for 2000 steps with 365 atoms

Performance: 1.144 ns/day, 20.988 hours/ns, 26.470 timesteps/s, 9.662 katom-step/s
99.3% CPU use with 8 MPI tasks x 2 OpenMP threads

MPI task timing breakdown:
Section |  min time  |  avg time  |  max time  |%varavg| %total
---------------------------------------------------------------
Pair    | 40.404     | 55.603     | 62.265     | 112.0 | 73.59
Bond    | 0.00050102 | 0.00072648 | 0.00095183 |   0.0 |  0.00
Neigh   | 3.6682     | 4.7624     | 5.202      |  28.6 |  6.30
Comm    | 0.72973    | 7.3943     | 22.596     | 307.2 |  9.79
Output  | 0.0041151  | 0.0064194  | 0.0076397  |   1.7 |  0.01
Modify  | 7.3148     | 7.7492     | 8.8379     |  22.4 | 10.26
Other   |            | 0.04015    |            |       |  0.05

Nlocal:         45.625 ave          54 max          35 min
Histogram: 1 0 1 0 0 3 0 1 1 1
Nghost:        2838.88 ave        2862 max        2806 min
Histogram: 1 0 1 0 0 1 3 0 1 1
Neighs:        24804.9 ave       29097 max       19315 min
Histogram: 1 0 1 0 0 3 0 1 1 1

Total # of neighbors = 198439
Ave neighs/atom = 543.66849
Ave special neighs/atom = 0
Neighbor list builds = 200
Dangerous builds not checked
*****Equilibration pos3 starts.*****
WARNING: New thermo_style command, previous thermo_modify settings will be lost (src/output.cpp:903)
Neighbor list info ...
  update: every = 10 steps, delay = 0 steps, check = no
  max neighbors/atom: 2000, page size: 100000
  master list distance cutoff = 12
  ghost atom cutoff = 12
  binsize = 6, bins = 5 3 3
  2 neighbor lists, perpetual/occasional/extra = 2 0 0
  (1) pair reaxff, perpetual
      attributes: half, newton off, ghost
      pair build: half/bin/newtoff/ghost
      stencil: full/ghost/bin/3d
      bin: standard
  (2) fix qeq/reaxff, perpetual, copy from (1)
      attributes: half, newton off
      pair build: copy
      stencil: none
      bin: none
Setting up Verlet run ...
  Unit style    : real
  Current step  : 0
  Time step     : 0.5
Per MPI rank memory allocation (min/avg/max) = 110 | 111.8 | 113.6 Mbytes
   Step          Temp          PotEng         Press        f_avgp[1]        Volume    
         0   297.78485     -42227.902     -16271.841      0              4655.431     
       100   318.03511     -42254.601     -11121.727     -5162.5451      4655.431     
       200   292.07742     -42250.847     -18329.238     -10820.277      4655.431     
       300   281.23596     -42260.527     -9448.6392     -5981.4715      4655.431     
       400   300.3177      -42262.797     -9128.6446     -9644.3692      4655.431     
       500   312.05154     -42248.638     -12017.973     -7938.8419      4655.431     
       600   305.62534     -42240.939     -19180.638     -6063.9073      4655.431     
       700   303.35186     -42251.479     -19217.878     -10744.54       4655.431     
       800   274.41198     -42229.83      -5677.1893     -9605.6501      4655.431     
       900   295.85166     -42255.384     -18876.024     -10343.121      4655.431     
      1000   301.41968     -42240.332     -12034.023     -8555.3943      4655.431     
      1100   316.5917      -42244.098     -8516.9757     -3789.0876      4655.431     
      1200   295.08591     -42232.04      -11368.701     -8322.683       4655.431     
      1300   305.86354     -42272.363     -8135.03       -9787.2774      4655.431     
      1400   286.47766     -42260.04      -16037.039     -9789.3022      4655.431     
      1500   300.22757     -42250.597     -9031.6883     -9235.5355      4655.431     
      1600   316.98955     -42236.349     -17792.595     -9615.9285      4655.431     
      1700   311.7441      -42241.185     -4826.1113     -3814.0857      4655.431     
      1800   296.98031     -42245.572     -12580.386     -8962.286       4655.431     
      1900   291.29888     -42248.32      -15069.849     -11404.505      4655.431     
      2000   283.97063     -42233.394     -13113.899     -12694.185      4655.431     
Loop time of 75.8069 on 16 procs for 2000 steps with 365 atoms

Performance: 1.140 ns/day, 21.057 hours/ns, 26.383 timesteps/s, 9.630 katom-step/s
99.2% CPU use with 8 MPI tasks x 2 OpenMP threads

MPI task timing breakdown:
Section |  min time  |  avg time  |  max time  |%varavg| %total
---------------------------------------------------------------
Pair    | 39.801     | 56.754     | 62.175     |  96.6 | 74.87
Bond    | 0.00053048 | 0.00073327 | 0.0009894  |   0.0 |  0.00
Neigh   | 3.7497     | 4.8491     | 5.2222     |  22.9 |  6.40
Comm    | 0.98488    | 6.4078     | 23.371     | 287.7 |  8.45
Output  | 0.00084275 | 0.00093103 | 0.0013118  |   0.0 |  0.00
Modify  | 7.3772     | 7.7536     | 8.8484     |  18.1 | 10.23
Other   |            | 0.04032    |            |       |  0.05

Nlocal:         45.625 ave          55 max          33 min
Histogram: 1 0 1 0 0 2 0 2 1 1
Nghost:        2843.75 ave        2850 max        2832 min
Histogram: 1 1 0 0 1 0 0 0 2 3
Neighs:        24817.8 ave       29635 max       18272 min
Histogram: 1 0 1 0 1 1 0 2 1 1

Total # of neighbors = 198542
Ave neighs/atom = 543.95068
Ave special neighs/atom = 0
Neighbor list builds = 200
Dangerous builds not checked
  using 2 OpenMP thread(s) per MPI task
Reading restart file ...
  restart file = 2 Aug 2023, LAMMPS = 2 Aug 2023
  restoring atom style full from restart
  triclinic box = (0 0 0) to (17.6144 14.9838 17.4642) with tilt (-6.9346 2.088 0.8795)
  2 by 2 by 2 MPI processor grid
  pair style reaxff stores no restart info
  365 atoms
Finding 1-2 1-3 1-4 neighbors ...
  special bond factors lj:    0        0        0       
  special bond factors coul:  0        0        0       
     0 = max # of 1-2 neighbors
     0 = max # of 1-3 neighbors
     0 = max # of 1-4 neighbors
     1 = max # of special neighbors
  special bonds CPU = 0.000 seconds
  read_restart CPU = 0.003 seconds
*****Negative-change 4 starts.*****
Resetting global fix info from restart file:
  fix style: nvt, fix ID: 4
Changing box ...
  triclinic box = (0 0 0) to (17.6144 14.9838 17.4642) with tilt (-6.9346 2.088 0.704858)
All restart file global fix info was re-assigned
Neighbor list info ...
  update: every = 10 steps, delay = 0 steps, check = no
  max neighbors/atom: 2000, page size: 100000
  master list distance cutoff = 12
  ghost atom cutoff = 12
  binsize = 6, bins = 5 3 3
  2 neighbor lists, perpetual/occasional/extra = 2 0 0
  (1) pair reaxff, perpetual
      attributes: half, newton off, ghost
      pair build: half/bin/newtoff/ghost
      stencil: full/ghost/bin/3d
      bin: standard
  (2) fix qeq/reaxff, perpetual, copy from (1)
      attributes: half, newton off
      pair build: copy
      stencil: none
      bin: none
Setting up Verlet run ...
  Unit style    : real
  Current step  : 0
  Time step     : 0.5
Per MPI rank memory allocation (min/avg/max) = 111.6 | 113.1 | 114.7 Mbytes
   Step          Temp          PotEng         Press        f_avgp[1]        Volume    
         0   307.26581     -42231.922     -8250.7836      0              4609.3376    
       100   281.64093     -42239.077     -7179.1179     -7059.3075      4609.3376    
       200   270.67172     -42221.275     -11828.836     -11374.686      4609.3376    
       300   287.01531     -42201.136     -1645.4602     -7755.0259      4609.3376    
       400   323.95417     -42200.499     -14798.598     -8888.9154      4609.3376    
       500   317.14111     -42192.097     -13487.23      -2960.469       4609.3376    
       600   309.68414     -42216.298     -10712.102     -6923.4186      4609.3376    
       700   288.70921     -42228.669     -9738.3471     -10745.663      4609.3376    
       800   300.03902     -42250.003     -3019.016      -6439.4297      4609.3376    
       900   303.34351     -42245.044     -10971.409     -10046.541      4609.3376    
      1000   292.59079     -42222.772     -15599.983     -7775.4508      4609.3376    
      1100   305.43565     -42229.02      -8529.8507     -6958.6218      4609.3376    
      1200   305.07679     -42216.538     -17300.076     -10963.661      4609.3376    
      1300   309.49167     -42225.637     -13766.587     -12997.986      4609.3376    
      1400   274.06966     -42217.031     -9660.7283     -2326.9063      4609.3376    
      1500   278.60222     -42241.134     -1566.9772     -2784.618       4609.3376    
      1600   292.01154     -42251.361     -17957.815     -13856.786      4609.3376    
      1700   314.1156      -42258.998     -11894.448     -6232.509       4609.3376    
      1800   310.90696     -42259.609     -12188.861     -8032.4581      4609.3376    
      1900   298.57701     -42255.97      -8658.7639     -3336.8852      4609.3376    
      2000   292.71957     -42250.896     -5531.536      -7634.9703      4609.3376    
Loop time of 76.8076 on 16 procs for 2000 steps with 365 atoms

Performance: 1.125 ns/day, 21.335 hours/ns, 26.039 timesteps/s, 9.504 katom-step/s
99.2% CPU use with 8 MPI tasks x 2 OpenMP threads

MPI task timing breakdown:
Section |  min time  |  avg time  |  max time  |%varavg| %total
---------------------------------------------------------------
Pair    | 47.741     | 59.38      | 63.048     |  59.8 | 77.31
Bond    | 0.00059951 | 0.00071241 | 0.00095991 |   0.0 |  0.00
Neigh   | 4.2705     | 5.0111     | 5.2251     |  13.5 |  6.52
Comm    | 1.0695     | 4.7397     | 16.386     | 211.9 |  6.17
Output  | 0.0048012  | 0.0075115  | 0.0088679  |   1.8 |  0.01
Modify  | 7.4104     | 7.6262     | 8.3634     |  10.9 |  9.93
Other   |            | 0.04242    |            |       |  0.06

Nlocal:         45.625 ave          55 max          33 min
Histogram: 1 0 0 0 1 3 1 0 1 1
Nghost:        2851.25 ave        2865 max        2834 min
Histogram: 1 1 0 1 1 1 0 0 0 3
Neighs:        25065.4 ave       29921 max       18498 min
Histogram: 1 0 0 0 1 3 1 0 1 1

Total # of neighbors = 200523
Ave neighs/atom = 549.37808
Ave special neighs/atom = 0
Neighbor list builds = 200
Dangerous builds not checked
*****Equilibration neg4 starts.*****
WARNING: New thermo_style command, previous thermo_modify settings will be lost (src/output.cpp:903)
Neighbor list info ...
  update: every = 10 steps, delay = 0 steps, check = no
  max neighbors/atom: 2000, page size: 100000
  master list distance cutoff = 12
  ghost atom cutoff = 12
  binsize = 6, bins = 5 3 3
  2 neighbor lists, perpetual/occasional/extra = 2 0 0
  (1) pair reaxff, perpetual
      attributes: half, newton off, ghost
      pair build: half/bin/newtoff/ghost
      stencil: full/ghost/bin/3d
      bin: standard
  (2) fix qeq/reaxff, perpetual, copy from (1)
      attributes: half, newton off
      pair build: copy
      stencil: none
      bin: none
Setting up Verlet run ...
  Unit style    : real
  Current step  : 0
  Time step     : 0.5
Per MPI rank memory allocation (min/avg/max) = 111.6 | 113.1 | 114.6 Mbytes
   Step          Temp          PotEng         Press        f_avgp[1]        Volume    
         0   292.71957     -42250.896     -5531.5535      0              4609.3376    
       100   289.96595     -42232.731     -6482.7686     -9432.0147      4609.3376    
       200   327.3884      -42251.578     -12174.989     -7618.526       4609.3376    
       300   277.81747     -42212.969     -12933.687     -7851.99        4609.3376    
       400   287.58886     -42258.682     -7882.1751     -9234.2011      4609.3376    
       500   278.69883     -42249.972     -4715.224      -11197.949      4609.3376    
       600   304.81012     -42256.448     -13251.465     -13347.215      4609.3376    
       700   313.97435     -42251.05      -11139.861     -11403.002      4609.3376    
       800   304.54491     -42248.358     -7559.9819     -4026.1485      4609.3376    
       900   277.67599     -42256.235     -9093.5163     -6266.3154      4609.3376    
      1000   287.4996      -42265.549     -769.03448     -3391.9695      4609.3376    
      1100   300.51463     -42251.874     -11353.171     -9946.0869      4609.3376    
      1200   312.34895     -42252.176     -14365.924     -8318.3971      4609.3376    
      1300   317.5254      -42262.305     -259.67762     -5363.469       4609.3376    
      1400   294.67149     -42252.423      1138.0386     -6413.3564      4609.3376    
      1500   274.42388     -42259.648     -9156.2482     -7209.7517      4609.3376    
      1600   283.65656     -42286.901     -13765.731     -9030.5225      4609.3376    
      1700   298.88597     -42270.903     -13646.016     -9171.4596      4609.3376    
      1800   284.52311     -42239.017     -6548.2039     -7919.92        4609.3376    
      1900   305.4372      -42244.664     -12165.796     -11179.965      4609.3376    
      2000   314.69295     -42250.628     -12909.82      -9298.3836      4609.3376    
Loop time of 76.8246 on 16 procs for 2000 steps with 365 atoms

Performance: 1.125 ns/day, 21.340 hours/ns, 26.033 timesteps/s, 9.502 katom-step/s
99.3% CPU use with 8 MPI tasks x 2 OpenMP threads

MPI task timing breakdown:
Section |  min time  |  avg time  |  max time  |%varavg| %total
---------------------------------------------------------------
Pair    | 54.31      | 60.815     | 63.293     |  33.6 | 79.16
Bond    | 0.00059332 | 0.00069745 | 0.00091007 |   0.0 |  0.00
Neigh   | 4.7585     | 5.0611     | 5.1731     |   5.5 |  6.59
Comm    | 0.86553    | 3.3495     | 9.8599     | 143.5 |  4.36
Output  | 0.00092964 | 0.0010132  | 0.0014129  |   0.5 |  0.00
Modify  | 7.4396     | 7.5529     | 7.8508     |   4.5 |  9.83
Other   |            | 0.04466    |            |       |  0.06

Nlocal:         45.625 ave          57 max          37 min
Histogram: 1 1 1 1 2 0 0 0 1 1
Nghost:        2844.88 ave        2890 max        2806 min
Histogram: 2 1 0 1 1 0 0 1 0 2
Neighs:        25090.5 ave       30958 max       20624 min
Histogram: 1 2 0 1 2 0 0 0 1 1

Total # of neighbors = 200724
Ave neighs/atom = 549.92877
Ave special neighs/atom = 0
Neighbor list builds = 200
Dangerous builds not checked
  using 2 OpenMP thread(s) per MPI task
Reading restart file ...
  restart file = 2 Aug 2023, LAMMPS = 2 Aug 2023
  restoring atom style full from restart
  triclinic box = (0 0 0) to (17.6144 14.9838 17.4642) with tilt (-6.9346 2.088 0.8795)
  2 by 2 by 2 MPI processor grid
  pair style reaxff stores no restart info
  365 atoms
Finding 1-2 1-3 1-4 neighbors ...
  special bond factors lj:    0        0        0       
  special bond factors coul:  0        0        0       
     0 = max # of 1-2 neighbors
     0 = max # of 1-3 neighbors
     0 = max # of 1-4 neighbors
     1 = max # of special neighbors
  special bonds CPU = 0.000 seconds
  read_restart CPU = 0.003 seconds
*****Positive-change 4 starts.*****
Resetting global fix info from restart file:
  fix style: nvt, fix ID: 4
Changing box ...
  triclinic box = (0 0 0) to (17.6144 14.9838 17.4642) with tilt (-6.9346 2.088 1.054142)
All restart file global fix info was re-assigned
Neighbor list info ...
  update: every = 10 steps, delay = 0 steps, check = no
  max neighbors/atom: 2000, page size: 100000
  master list distance cutoff = 12
  ghost atom cutoff = 12
  binsize = 6, bins = 5 3 3
  2 neighbor lists, perpetual/occasional/extra = 2 0 0
  (1) pair reaxff, perpetual
      attributes: half, newton off, ghost
      pair build: half/bin/newtoff/ghost
      stencil: full/ghost/bin/3d
      bin: standard
  (2) fix qeq/reaxff, perpetual, copy from (1)
      attributes: half, newton off
      pair build: copy
      stencil: none
      bin: none
Setting up Verlet run ...
  Unit style    : real
  Current step  : 0
  Time step     : 0.5
Per MPI rank memory allocation (min/avg/max) = 111.6 | 113.2 | 114.9 Mbytes
   Step          Temp          PotEng         Press        f_avgp[1]        Volume    
         0   307.26581     -42233.149     -3481.6245      0              4609.3376    
       100   283.83347     -42245.267     -4739.0301     -6912.6537      4609.3376    
       200   277.54177     -42235.776     -14216.773     -10792.296      4609.3376    
       300   288.05878     -42216.996     -14619.049     -6958.7031      4609.3376    
       400   324.75887     -42214.855     -5209.1232     -6280.864       4609.3376    
       500   315.04491     -42192.554     -7836.054      -4293.6472      4609.3376    
       600   297.69531     -42203.298     -9627.638      -3070.394       4609.3376    
       700   287.30413     -42236.412     -16086.327     -10766.344      4609.3376    
       800   274.86347     -42256.92      -17953.55      -9485.8456      4609.3376    
       900   291.96304     -42271.796     -9837.7291     -7433.0221      4609.3376    
      1000   292.02461     -42239.723     -2183.0061     -7577.5862      4609.3376    
      1100   306.64286     -42221.969     -9921.3388     -10198.88       4609.3376    
      1200   311.7326      -42217.317     -17867.544     -15720.655      4609.3376    
      1300   312.49736     -42241.94      -21205.752     -10982.745      4609.3376    
      1400   287.25549     -42253.046     -8935.062      -13692.198      4609.3376    
      1500   284.46157     -42260.008     -5843.7989     -6924.7737      4609.3376    
      1600   281.01544     -42233.691     -17747.479     -13029.738      4609.3376    
      1700   308.44252     -42230.274     -385.93532     -9375.5401      4609.3376    
      1800   311.68858     -42220.783      27.146417     -9958.2474      4609.3376    
      1900   308.48217     -42239.822     -6755.4686     -8634.2453      4609.3376    
      2000   307.761       -42268.204     -15028.251     -9043.5234      4609.3376    
Loop time of 77.1395 on 16 procs for 2000 steps with 365 atoms

Performance: 1.120 ns/day, 21.428 hours/ns, 25.927 timesteps/s, 9.463 katom-step/s
99.2% CPU use with 8 MPI tasks x 2 OpenMP threads

MPI task timing breakdown:
Section |  min time  |  avg time  |  max time  |%varavg| %total
---------------------------------------------------------------
Pair    | 40.523     | 59.579     | 63.756     |  94.0 | 77.24
Bond    | 0.00058998 | 0.0007239  | 0.0010051  |   0.0 |  0.00
Neigh   | 3.6969     | 5.0237     | 5.2631     |  22.4 |  6.51
Comm    | 0.65156    | 4.8295     | 23.894     | 330.3 |  6.26
Output  | 0.004501   | 0.0064669  | 0.0076162  |   1.4 |  0.01
Modify  | 7.4118     | 7.6543     | 8.9777     |  18.1 |  9.92
Other   |            | 0.04553    |            |       |  0.06

Nlocal:         45.625 ave          55 max          32 min
Histogram: 1 0 0 1 1 0 2 1 1 1
Nghost:        2868.25 ave        2886 max        2842 min
Histogram: 1 0 1 1 1 0 0 0 2 2
Neighs:        25054.2 ave       29920 max       17901 min
Histogram: 1 0 0 1 1 1 1 1 1 1

Total # of neighbors = 200434
Ave neighs/atom = 549.13425
Ave special neighs/atom = 0
Neighbor list builds = 200
Dangerous builds not checked
*****Equilibration pos4 starts.*****
WARNING: New thermo_style command, previous thermo_modify settings will be lost (src/output.cpp:903)
Neighbor list info ...
  update: every = 10 steps, delay = 0 steps, check = no
  max neighbors/atom: 2000, page size: 100000
  master list distance cutoff = 12
  ghost atom cutoff = 12
  binsize = 6, bins = 5 3 3
  2 neighbor lists, perpetual/occasional/extra = 2 0 0
  (1) pair reaxff, perpetual
      attributes: half, newton off, ghost
      pair build: half/bin/newtoff/ghost
      stencil: full/ghost/bin/3d
      bin: standard
  (2) fix qeq/reaxff, perpetual, copy from (1)
      attributes: half, newton off
      pair build: copy
      stencil: none
      bin: none
Setting up Verlet run ...
  Unit style    : real
  Current step  : 0
  Time step     : 0.5
Per MPI rank memory allocation (min/avg/max) = 111.6 | 113.2 | 114.9 Mbytes
   Step          Temp          PotEng         Press        f_avgp[1]        Volume    
         0   307.761       -42268.204     -15028.216      0              4609.3376    
       100   299.33107     -42253.232     -6598.9112     -10886.198      4609.3376    
       200   324.96851     -42252.797     -7715.9484     -9798.179       4609.3376    
       300   306.65249     -42209.783     -10101.855     -5954.9836      4609.3376    
       400   306.32832     -42230.84      -21711.235     -11702.727      4609.3376    
       500   288.28133     -42236.352     -18024.594     -16966.563      4609.3376    
       600   300.07677     -42248.669     -17214.581     -9617.6753      4609.3376    
       700   273.24508     -42220.881     -15155.304     -9106.6539      4609.3376    
       800   303.08251     -42250.228     -12668.816     -2808.8299      4609.3376    
       900   306.04445     -42247.6       -9639.0277     -11414.826      4609.3376    
      1000   293.52569     -42230.727     -5820.2173     -13339.311      4609.3376    
      1100   318.0793      -42256.538     -11973.748     -8720.9861      4609.3376    
      1200   309.43583     -42249.82      -8672.9505     -4500.7624      4609.3376    
      1300   297.85735     -42239.402     -13276.074     -8136.7315      4609.3376    
      1400   299.85712     -42256.336     -17785.681     -11693.858      4609.3376    
      1500   289.31627     -42254.013     -10681.856     -11538.378      4609.3376    
      1600   288.40108     -42245.127     -3979.9306     -12926.468      4609.3376    
      1700   305.90724     -42236.724     -9734.1211     -7430.7765      4609.3376    
      1800   327.17007     -42241.274     -10289.269     -8676.6202      4609.3376    
      1900   322.11327     -42253.086     -5094.6701     -10720.564      4609.3376    
      2000   290.76312     -42255.423     -12756.49      -8264.8909      4609.3376    
Loop time of 77.2788 on 16 procs for 2000 steps with 365 atoms

Performance: 1.118 ns/day, 21.466 hours/ns, 25.880 timesteps/s, 9.446 katom-step/s
99.3% CPU use with 8 MPI tasks x 2 OpenMP threads

MPI task timing breakdown:
Section |  min time  |  avg time  |  max time  |%varavg| %total
---------------------------------------------------------------
Pair    | 40.339     | 59.41      | 63.691     |  94.5 | 76.88
Bond    | 0.00056116 | 0.00070901 | 0.00096774 |   0.0 |  0.00
Neigh   | 3.6962     | 5.0166     | 5.2603     |  22.3 |  6.49
Comm    | 0.8957     | 5.1822     | 24.262     | 320.2 |  6.71
Output  | 0.00097587 | 0.0010678  | 0.001464   |   0.5 |  0.00
Modify  | 7.3761     | 7.6239     | 8.9423     |  18.1 |  9.87
Other   |            | 0.04471    |            |       |  0.06

Nlocal:         45.625 ave          58 max          37 min
Histogram: 2 0 0 2 1 1 1 0 0 1
Nghost:        2880.88 ave        2890 max        2868 min
Histogram: 1 0 0 1 0 2 2 0 1 1
Neighs:          25071 ave       31416 max       20588 min
Histogram: 2 0 0 1 2 1 1 0 0 1

Total # of neighbors = 200568
Ave neighs/atom = 549.50137
Ave special neighs/atom = 0
Neighbor list builds = 200
Dangerous builds not checked
  using 2 OpenMP thread(s) per MPI task
Reading restart file ...
  restart file = 2 Aug 2023, LAMMPS = 2 Aug 2023
  restoring atom style full from restart
  triclinic box = (0 0 0) to (17.6144 14.9838 17.4642) with tilt (-6.9346 2.088 0.8795)
  2 by 2 by 2 MPI processor grid
  pair style reaxff stores no restart info
  365 atoms
Finding 1-2 1-3 1-4 neighbors ...
  special bond factors lj:    0        0        0       
  special bond factors coul:  0        0        0       
     0 = max # of 1-2 neighbors
     0 = max # of 1-3 neighbors
     0 = max # of 1-4 neighbors
     1 = max # of special neighbors
  special bonds CPU = 0.000 seconds
  read_restart CPU = 0.003 seconds
*****Negative-change 5 starts.*****
Resetting global fix info from restart file:
  fix style: nvt, fix ID: 4
Changing box ...
  triclinic box = (0 0 0) to (17.6144 14.9838 17.4642) with tilt (-6.9346 1.913358 0.8795)
All restart file global fix info was re-assigned
Neighbor list info ...
  update: every = 10 steps, delay = 0 steps, check = no
  max neighbors/atom: 2000, page size: 100000
  master list distance cutoff = 12
  ghost atom cutoff = 12
  binsize = 6, bins = 5 3 3
  2 neighbor lists, perpetual/occasional/extra = 2 0 0
  (1) pair reaxff, perpetual
      attributes: half, newton off, ghost
      pair build: half/bin/newtoff/ghost
      stencil: full/ghost/bin/3d
      bin: standard
  (2) fix qeq/reaxff, perpetual, copy from (1)
[...]
       800   297.51833     -42263.983     -15457.35      -10593.309      4609.3376    
       900   322.23872     -42283.746     -17503.766     -9799.3402      4609.3376    
      1000   309.13779     -42273.061     -13038.158     -5482.6163      4609.3376    
      1100   295.06072     -42266.942     -5965.4742     -4648.6862      4609.3376    
      1200   293.2711      -42272.319     -10241.042     -5943.444       4609.3376    
      1300   293.98406     -42273.711     -5388.6698     -8229.8556      4609.3376    
      1400   281.49259     -42243.989     -4500.5454     -12506.486      4609.3376    
      1500   304.62713     -42246.042     -11321.371     -7880.6662      4609.3376    
      1600   315.1308      -42249.551     -5479.9853     -7272.8379      4609.3376    
      1700   311.66952     -42277.724     -12204.21      -12693.519      4609.3376    
      1800   285.91048     -42271.243     -14317.974     -8921.9819      4609.3376    
      1900   283.39087     -42257.133     -24936.524     -4513.2377      4609.3376    
      2000   312.14849     -42263.189      2834.0078     -4382.6441      4609.3376    
Loop time of 77.5246 on 16 procs for 2000 steps with 365 atoms

Performance: 1.114 ns/day, 21.535 hours/ns, 25.798 timesteps/s, 9.416 katom-step/s
99.1% CPU use with 8 MPI tasks x 2 OpenMP threads

MPI task timing breakdown:
Section |  min time  |  avg time  |  max time  |%varavg| %total
---------------------------------------------------------------
Pair    | 42.092     | 55.444     | 63.883     | 112.9 | 71.52
Bond    | 0.00052664 | 0.00072002 | 0.00092379 |   0.0 |  0.00
Neigh   | 3.715      | 4.8065     | 5.5042     |  31.6 |  6.20
Comm    | 0.59942    | 9.0356     | 22.38      | 279.7 | 11.66
Output  | 0.00089181 | 0.00097845 | 0.0013274  |   0.0 |  0.00
Modify  | 7.4711     | 8.1942     | 9.2803     |  24.4 | 10.57
Other   |            | 0.04287    |            |       |  0.06

Nlocal:         45.625 ave          57 max          36 min
Histogram: 1 1 0 2 1 1 0 1 0 1
Nghost:        2847.75 ave        2867 max        2827 min
Histogram: 1 1 1 0 0 1 1 1 0 2
Neighs:        25076.8 ave       30968 max       20022 min
Histogram: 1 0 1 2 1 1 0 1 0 1

Total # of neighbors = 200614
Ave neighs/atom = 549.6274
Ave special neighs/atom = 0
Neighbor list builds = 200
Dangerous builds not checked
  using 2 OpenMP thread(s) per MPI task
Reading restart file ...
  restart file = 2 Aug 2023, LAMMPS = 2 Aug 2023
  restoring atom style full from restart
  triclinic box = (0 0 0) to (17.6144 14.9838 17.4642) with tilt (-6.9346 2.088 0.8795)
  2 by 2 by 2 MPI processor grid
  pair style reaxff stores no restart info
  365 atoms
Finding 1-2 1-3 1-4 neighbors ...
  special bond factors lj:    0        0        0       
  special bond factors coul:  0        0        0       
     0 = max # of 1-2 neighbors
     0 = max # of 1-3 neighbors
     0 = max # of 1-4 neighbors
     1 = max # of special neighbors
  special bonds CPU = 0.000 seconds
  read_restart CPU = 0.003 seconds
*****Negative-change 6 starts.*****
Resetting global fix info from restart file:
  fix style: nvt, fix ID: 4
Changing box ...
  triclinic box = (0 0 0) to (17.6144 14.9838 17.4642) with tilt (-7.084438 2.088 0.8795)
All restart file global fix info was re-assigned
Neighbor list info ...
  update: every = 10 steps, delay = 0 steps, check = no
  max neighbors/atom: 2000, page size: 100000
  master list distance cutoff = 12
  ghost atom cutoff = 12
  binsize = 6, bins = 5 3 3
  2 neighbor lists, perpetual/occasional/extra = 2 0 0
  (1) pair reaxff, perpetual
      attributes: half, newton off, ghost
      pair build: half/bin/newtoff/ghost
      stencil: full/ghost/bin/3d
      bin: standard
  (2) fix qeq/reaxff, perpetual, copy from (1)
      attributes: half, newton off
      pair build: copy
      stencil: none
      bin: none
Setting up Verlet run ...
  Unit style    : real
  Current step  : 0
  Time step     : 0.5
Per MPI rank memory allocation (min/avg/max) = 111.9 | 113.6 | 115.3 Mbytes
   Step          Temp          PotEng         Press        f_avgp[1]        Volume    
         0   307.26581     -42230.053     -4329.3455      0              4609.3376    
       100   277.18662     -42234.816     -10637.248     -7676.5685      4609.3376    
       200   282.02095     -42235.648     -17030.6       -10828.876      4609.3376    
       300   290.22718     -42210.86      -11354.682     -8448.8839      4609.3376    
       400   321.17404     -42202.635     -10777.291     -7948.5537      4609.3376    
       500   328.81669     -42201.585     -9762.7428     -3110.0018      4609.3376    
       600   309.24524     -42216.941     -8897.8465     -4672.7356      4609.3376    
       700   286.50363     -42233.683     -13403.165     -10305.933      4609.3376    
       800   291.05619     -42255.843     -10438.116     -9952.5744      4609.3376    
       900   308.01424     -42259.421     -18643.228     -9142.9568      4609.3376    
      1000   298.17656     -42221.113     -20759.554     -5497.8717      4609.3376    
      1100   306.12602     -42214.171     -24372.166     -11996.584      4609.3376    
      1200   314.34073     -42225.588     -1608.0419     -11269.804      4609.3376    
      1300   301.10278     -42237.073     -15672.722     -10565.438      4609.3376    
      1400   289.68329     -42244.476     -9713.5677     -10587.729      4609.3376    
      1500   297.9937      -42243.358      5466.2789     -7597.9229      4609.3376    
      1600   316.79343     -42241.829     -7442.1836     -13770.933      4609.3376    
      1700   317.72002     -42245.462     -12277.249     -9475.7745      4609.3376    
      1800   305.68791     -42251.041     -1771.6027     -11359.286      4609.3376    
      1900   290.0066      -42246.546     -9274.7206     -6847.0668      4609.3376    
      2000   294.21569     -42255.808     -10073.435     -4162.1054      4609.3376    
Loop time of 76.9688 on 16 procs for 2000 steps with 365 atoms

Performance: 1.123 ns/day, 21.380 hours/ns, 25.985 timesteps/s, 9.484 katom-step/s
99.2% CPU use with 8 MPI tasks x 2 OpenMP threads

MPI task timing breakdown:
Section |  min time  |  avg time  |  max time  |%varavg| %total
---------------------------------------------------------------
Pair    | 42.104     | 54.511     | 63.287     | 125.6 | 70.82
Bond    | 0.00052276 | 0.00074309 | 0.00099495 |   0.0 |  0.00
Neigh   | 3.7111     | 4.7514     | 5.5017     |  34.5 |  6.17
Comm    | 0.74081    | 9.5083     | 21.906     | 300.8 | 12.35
Output  | 0.0049549  | 0.0074028  | 0.0085892  |   1.6 |  0.01
Modify  | 7.3735     | 8.1502     | 9.1815     |  26.6 | 10.59
Other   |            | 0.03946    |            |       |  0.05

Nlocal:         45.625 ave          56 max          30 min
Histogram: 1 0 0 0 1 1 2 0 2 1
Nghost:        2865.88 ave        2874 max        2853 min
Histogram: 1 0 1 0 0 1 1 1 1 2
Neighs:        25047.6 ave       30481 max       16801 min
Histogram: 1 0 0 0 1 1 2 0 2 1

Total # of neighbors = 200381
Ave neighs/atom = 548.98904
Ave special neighs/atom = 0
Neighbor list builds = 200
Dangerous builds not checked
*****Equilibration neg6 starts.*****
WARNING: New thermo_style command, previous thermo_modify settings will be lost (src/output.cpp:903)
Neighbor list info ...
  update: every = 10 steps, delay = 0 steps, check = no
  max neighbors/atom: 2000, page size: 100000
  master list distance cutoff = 12
  ghost atom cutoff = 12
  binsize = 6, bins = 5 3 3
  2 neighbor lists, perpetual/occasional/extra = 2 0 0
  (1) pair reaxff, perpetual
      attributes: half, newton off, ghost
      pair build: half/bin/newtoff/ghost
      stencil: full/ghost/bin/3d
      bin: standard
  (2) fix qeq/reaxff, perpetual, copy from (1)
      attributes: half, newton off
      pair build: copy
      stencil: none
      bin: none
Setting up Verlet run ...
  Unit style    : real
  Current step  : 0
  Time step     : 0.5
Per MPI rank memory allocation (min/avg/max) = 111.9 | 113.6 | 115.4 Mbytes
   Step          Temp          PotEng         Press        f_avgp[1]        Volume    
         0   294.21569     -42255.808     -10073.416      0              4609.3376    
       100   293.65056     -42249.749     -8781.2547     -11007.417      4609.3376    
       200   312.22158     -42253.337     -11116.218     -14412.333      4609.3376    
       300   309.76382     -42219.756     -16186.431     -16320.734      4609.3376    
       400   307.74205     -42227.937     -5145.9437     -11159.58       4609.3376    
       500   299.71751     -42247.919     -6491.6456     -7697.3136      4609.3376    
       600   289.06954     -42243.42      -10448.948     -7293.9281      4609.3376    
       700   298.96857     -42262.167      2808.0673     -6156.9364      4609.3376    
       800   316.7329      -42275.535     -19821.008     -7168.4743      4609.3376    
       900   305.1626      -42233.189     -9990.6002     -8985.7898      4609.3376    
      1000   296.39759     -42207.162     -13044.265     -6779.821       4609.3376    
      1100   300.06913     -42228.137     -1409.7581     -5821.2119      4609.3376    
      1200   305.08157     -42251.086     -3507.4395     -11168.688      4609.3376    
      1300   293.83017     -42239.346     -9264.0876     -8059.9658      4609.3376    
      1400   289.74544     -42235.873     -3.9653389     -5515.334       4609.3376    
      1500   311.91325     -42258.334      3796.4166     -3713.6627      4609.3376    
      1600   294.98396     -42230.687     -9169.2889     -12160.996      4609.3376    
      1700   297.60982     -42218.199     -10299.961     -8625.9586      4609.3376    
      1800   300.01164     -42217.488     -802.87157     -7896.4272      4609.3376    
      1900   309.82305     -42250.373     -2191.7134     -4693.3555      4609.3376    
      2000   290.63552     -42261.926     -9051.9499     -7628.6475      4609.3376    
Loop time of 77.0683 on 16 procs for 2000 steps with 365 atoms

Performance: 1.121 ns/day, 21.408 hours/ns, 25.951 timesteps/s, 9.472 katom-step/s
99.2% CPU use with 8 MPI tasks x 2 OpenMP threads

MPI task timing breakdown:
Section |  min time  |  avg time  |  max time  |%varavg| %total
---------------------------------------------------------------
Pair    | 42.934     | 53.18      | 63.525     | 118.5 | 69.00
Bond    | 0.00052284 | 0.00075595 | 0.00094689 |   0.0 |  0.00
Neigh   | 3.669      | 4.5938     | 5.508      |  36.5 |  5.96
Comm    | 0.64496    | 10.987     | 21.221     | 260.6 | 14.26
Output  | 0.00085754 | 0.00098497 | 0.0013862  |   0.0 |  0.00
Modify  | 7.3262     | 8.2663     | 9.1822     |  27.6 | 10.73
Other   |            | 0.03955    |            |       |  0.05

Nlocal:         45.625 ave          54 max          33 min
Histogram: 1 0 0 0 2 0 1 2 1 1
Nghost:        2868.38 ave        2879 max        2850 min
Histogram: 1 0 0 0 1 1 1 2 1 1
Neighs:        25089.1 ave       29382 max       18473 min
Histogram: 1 0 0 0 2 0 1 2 1 1

Total # of neighbors = 200713
Ave neighs/atom = 549.89863
Ave special neighs/atom = 0
Neighbor list builds = 200
Dangerous builds not checked
  using 2 OpenMP thread(s) per MPI task
Reading restart file ...
  restart file = 2 Aug 2023, LAMMPS = 2 Aug 2023
  restoring atom style full from restart
  triclinic box = (0 0 0) to (17.6144 14.9838 17.4642) with tilt (-6.9346 2.088 0.8795)
  2 by 2 by 2 MPI processor grid
  pair style reaxff stores no restart info
  365 atoms
Finding 1-2 1-3 1-4 neighbors ...
  special bond factors lj:    0        0        0       
  special bond factors coul:  0        0        0       
     0 = max # of 1-2 neighbors
     0 = max # of 1-3 neighbors
     0 = max # of 1-4 neighbors
     1 = max # of special neighbors
  special bonds CPU = 0.000 seconds
  read_restart CPU = 0.003 seconds
*****Positive-change 6 starts.*****
Resetting global fix info from restart file:
  fix style: nvt, fix ID: 4
Changing box ...
  triclinic box = (0 0 0) to (17.6144 14.9838 17.4642) with tilt (-6.784762 2.088 0.8795)
All restart file global fix info was re-assigned
Neighbor list info ...
  update: every = 10 steps, delay = 0 steps, check = no
  max neighbors/atom: 2000, page size: 100000
  master list distance cutoff = 12
  ghost atom cutoff = 12
  binsize = 6, bins = 5 3 3
  2 neighbor lists, perpetual/occasional/extra = 2 0 0
  (1) pair reaxff, perpetual
      attributes: half, newton off, ghost
      pair build: half/bin/newtoff/ghost
      stencil: full/ghost/bin/3d
      bin: standard
  (2) fix qeq/reaxff, perpetual, copy from (1)
      attributes: half, newton off
      pair build: copy
      stencil: none
      bin: none
Setting up Verlet run ...
  Unit style    : real
  Current step  : 0
  Time step     : 0.5
Per MPI rank memory allocation (min/avg/max) = 111.5 | 113 | 114.7 Mbytes
   Step          Temp          PotEng         Press        f_avgp[1]        Volume    
         0   307.26581     -42235.704     -7462.6318      0              4609.3376    
       100   281.55743     -42242.814     -7196.3465     -6849.0512      4609.3376    
       200   269.52124     -42223.715     -14158.658     -11309.641      4609.3376    
       300   289.19122     -42212.424     -11786.099     -8198.668       4609.3376    
       400   323.8574      -42216.748     -9435.206      -6673.4791      4609.3376    
       500   302.16653     -42193.514     -9632.6216     -1403.4086      4609.3376    
       600   307.14782     -42222.59      -5102.9462     -2244.8703      4609.3376    
       700   310.46758     -42264.705     -8309.8669     -9926.1239      4609.3376    
       800   282.13768     -42258.364     -1171.4133     -8970.9435      4609.3376    
       900   294.65437     -42260.012      1428.2037     -8691.5799      4609.3376    
      1000   290.37413     -42228.95      -10704.444     -4845.9162      4609.3376    
      1100   310.96139     -42233.474     -16680.85      -12616.863      4609.3376    
      1200   308.79388     -42233.96      -9429.2136     -11773.202      4609.3376    
      1300   299.62823     -42252.803     -1705.2358     -8195.6458      4609.3376    
      1400   268.51084     -42254.139     -10853.559     -8178.2073      4609.3376    
      1500   286.02358     -42274.493     -4701.051      -1625.6874      4609.3376    
      1600   295.04793     -42251.267     -12278.582     -11712.076      4609.3376    
      1700   316.63324     -42243.855      3265.1297     -7549.3729      4609.3376    
      1800   326.05593     -42253.646     -24478.001     -9603.5433      4609.3376    
      1900   302.12339     -42246.616     -7953.8699     -5186.5355      4609.3376    
      2000   293.20758     -42257.222      856.47268     -4095.9132      4609.3376    
Loop time of 76.3906 on 16 procs for 2000 steps with 365 atoms

Performance: 1.131 ns/day, 21.220 hours/ns, 26.181 timesteps/s, 9.556 katom-step/s
99.2% CPU use with 8 MPI tasks x 2 OpenMP threads

MPI task timing breakdown:
Section |  min time  |  avg time  |  max time  |%varavg| %total
---------------------------------------------------------------
Pair    | 42.264     | 52.009     | 62.92      | 126.7 | 68.08
Bond    | 0.00054663 | 0.00072978 | 0.0009195  |   0.0 |  0.00
Neigh   | 3.6861     | 4.4736     | 5.3822     |  36.5 |  5.86
Comm    | 0.75108    | 11.658     | 21.403     | 267.4 | 15.26
Output  | 0.0048634  | 0.0069158  | 0.0080479  |   1.4 |  0.01
Modify  | 7.2632     | 8.198      | 8.9962     |  27.3 | 10.73
Other   |            | 0.04342    |            |       |  0.06

Nlocal:         45.625 ave          59 max          33 min
Histogram: 1 0 1 1 1 2 1 0 0 1
Nghost:        2846.38 ave        2883 max        2817 min
Histogram: 2 0 2 0 1 0 0 1 1 1
Neighs:        25078.6 ave       31990 max       18443 min
Histogram: 1 0 1 1 1 2 1 0 0 1

Total # of neighbors = 200629
Ave neighs/atom = 549.66849
Ave special neighs/atom = 0
Neighbor list builds = 200
Dangerous builds not checked
*****Equilibration pos6 starts.*****
WARNING: New thermo_style command, previous thermo_modify settings will be lost (src/output.cpp:903)
Neighbor list info ...
  update: every = 10 steps, delay = 0 steps, check = no
  max neighbors/atom: 2000, page size: 100000
  master list distance cutoff = 12
  ghost atom cutoff = 12
  binsize = 6, bins = 5 3 3
  2 neighbor lists, perpetual/occasional/extra = 2 0 0
  (1) pair reaxff, perpetual
      attributes: half, newton off, ghost
      pair build: half/bin/newtoff/ghost
      stencil: full/ghost/bin/3d
      bin: standard
  (2) fix qeq/reaxff, perpetual, copy from (1)
      attributes: half, newton off
      pair build: copy
      stencil: none
      bin: none
Setting up Verlet run ...
  Unit style    : real
  Current step  : 0
  Time step     : 0.5
Per MPI rank memory allocation (min/avg/max) = 111.5 | 113 | 114.7 Mbytes
   Step          Temp          PotEng         Press        f_avgp[1]        Volume    
         0   293.20758     -42257.222      856.46121      0              4609.3376    
       100   292.83145     -42250.37      -5862.6694     -10209.536      4609.3376    
       200   306.80902     -42245.619     -11377.253     -11887.898      4609.3376    
       300   312.87073     -42227.071     -1540.737      -8670.8912      4609.3376    
       400   284.72389     -42205.109     -3938.3872     -13223.189      4609.3376    
       500   299.56284     -42261.114     -605.8292      -8028.1133      4609.3376    
       600   282.87688     -42252.39      -8525.0452     -5970.2699      4609.3376    
       700   292.7559      -42259.04      -13081.593     -8993.7088      4609.3376    
       800   312.07143     -42261.041     -8386.2163     -11283.087      4609.3376    
       900   307.27046     -42243.595     -8405.0415     -8034.4505      4609.3376    
      1000   310.69963     -42260.444     -16375.491     -8620.2196      4609.3376    
      1100   281.13136     -42259.052     -10339.446     -8870.1177      4609.3376    
      1200   313.25942     -42292.736     -9837.4444     -8669.2825      4609.3376    
      1300   312.17629     -42268.76       84.559228     -715.24555      4609.3376    
      1400   301.14121     -42238.189      2684.6165     -3006.3823      4609.3376    
      1500   301.33204     -42246.217     -11392.452     -10602.654      4609.3376    
      1600   319.74889     -42275.9       -19467.479     -15095.687      4609.3376    
      1700   297.72681     -42265.182     -4490.6401     -9039.203       4609.3376    
      1800   301.22574     -42279.969     -22082.602     -10618.65       4609.3376    
      1900   295.61297     -42292.401     -3289.0112     -3519.6062      4609.3376    
      2000   278.03669     -42293.437     -17462.166     -9138.5362      4609.3376    
Loop time of 76.9203 on 16 procs for 2000 steps with 365 atoms

Performance: 1.123 ns/day, 21.367 hours/ns, 26.001 timesteps/s, 9.490 katom-step/s
99.2% CPU use with 8 MPI tasks x 2 OpenMP threads

MPI task timing breakdown:
Section |  min time  |  avg time  |  max time  |%varavg| %total
---------------------------------------------------------------
Pair    | 42.576     | 52.252     | 63.509     | 127.0 | 67.93
Bond    | 0.00054173 | 0.00073354 | 0.0009184  |   0.0 |  0.00
Neigh   | 3.6459     | 4.4751     | 5.3957     |  37.0 |  5.82
Comm    | 0.62738    | 11.885     | 21.558     | 266.0 | 15.45
Output  | 0.00081926 | 0.0009606  | 0.0013079  |   0.0 |  0.00
Modify  | 7.3159     | 8.2654     | 9.0928     |  27.6 | 10.75
Other   |            | 0.04115    |            |       |  0.05

Nlocal:         45.625 ave          57 max          33 min
Histogram: 1 0 1 0 1 2 1 1 0 1
Nghost:        2852.88 ave        2873 max        2832 min
Histogram: 1 0 2 1 1 0 0 0 0 3
Neighs:        25070.6 ave       30879 max       18492 min
Histogram: 1 0 1 0 1 1 2 1 0 1

Total # of neighbors = 200565
Ave neighs/atom = 549.49315
Ave special neighs/atom = 0
Neighbor list builds = 200
Dangerous builds not checked
Total wall time: 0:31:55
