ITEM: TIMESTEP
0
ITEM: NUMBER OF ATOMS
366
ITEM: BOX BOUNDS xy xz yz pp pp pp
-7.6516000000000002e+00 1.5037200000000000e+01 -7.4931000000000001e+00
0.0000000000000000e+00 1.3479543000000000e+01 -1.5850000000000000e-01
0.0000000000000000e+00 1.7607399999999998e+01 7.9892999999999992e-02
ITEM: ATOMS id type x y z
31 4 3.91381 6.1835 6.26247
3 4 1.24506 1.9986 0.554102
5 4 0.652549 1.67996 5.42718
7 4 0.211915 4.41731 2.15197
73 3 -2.28235 6.44644 4.46729
10 4 -0.408428 4.09581 7.42215
339 2 3.125 4.85699 0.650954
24 4 3.51884 1.78745 4.30848
351 2 -3.16739 5.74315 0.439238
28 4 1.54451 6.28082 4.30331
65 3 1.6342 0.78817 1.4333
66 3 -0.290097 1.60483 4.25069
67 3 0.877917 0.254325 6.19468
69 3 -1.18274 3.60182 2.55606
70 3 1.1658 3.2622 1.51771
71 3 -0.0456935 5.6206 1.00881
72 3 -0.020191 2.87203 6.51326
93 3 6.54618 0.769416 6.75269
74 3 -1.11975 5.41215 6.69049
89 3 3.36395 0.393586 3.45214
90 3 2.2099 2.26615 5.11291
91 3 2.20733 1.29365 8.24517
92 3 4.78559 2.0155 5.21981
338 1 4.16399 5.16016 0.387293
94 3 0.844277 5.11219 3.44
301 2 5.59058 3.21063 1.74736
98 3 2.6286 5.6155 5.41139
227 2 5.01528 3.24848 3.37926
172 1 1.17096 4.8061 8.20215
178 1 3.94116 3.08232 2.88235
208 2 2.05608 4.50843 7.54873
361 2 -0.581507 1.38275 8.12558
210 2 1.17329 6.02629 8.42322
225 2 3.19192 3.9205 3.00408
226 2 4.03536 2.59587 1.87204
297 3 6.66314 0.597598 1.17829
27 4 6.23999 2.20122 5.83218
99 3 4.39381 5.10758 7.41432
9 4 -0.858424 6.65573 0.0887013
96 3 4.35352 2.9958 8.76836
314 2 3.16692 3.42011 17.3705
13 4 -0.146132 4.60848 14.0572
307 2 5.57928 2.37069 12.5509
26 4 3.28504 1.85602 9.25997
68 3 -0.357937 2.01767 17.1785
75 3 -1.02159 3.77678 15.2203
349 2 -3.06748 5.8548 14.4508
77 3 -1.11418 5.61951 13.1216
100 3 1.06306 5.41984 14.7018
179 1 4.42989 0.314885 9.55362
173 1 0.876588 3.55628 12.9141
175 1 0.0200254 5.70636 10.6652
313 2 3.18808 1.40399 17.3469
180 1 2.35605 2.33917 10.8894
181 1 3.84177 3.41206 14.1918
204 2 0.136171 1.39844 14.0047
206 2 -1.15016 3.1599 9.76958
217 2 0.434702 6.52247 10.0419
211 2 0.992867 3.91789 11.8857
212 2 0.253292 2.62505 12.946
213 2 1.92567 3.4159 13.501
14 4 -1.31253 6.53433 11.7897
218 2 -0.685411 4.9166 9.99318
321 2 -2.11492 4.68859 17.0404
6 4 -1.30624 2.31393 15.9337
230 2 5.59189 0.638612 9.75592
231 2 1.24222 2.13962 10.6879
232 2 2.59253 3.41316 10.9392
233 2 2.88191 1.7211 11.7097
234 2 4.37788 2.77322 14.8643
235 2 3.55754 2.90516 13.2446
236 2 3.04384 3.99394 14.7256
241 2 3.05896 6.15959 12.4391
282 2 3.76633 5.86111 9.52202
356 2 4.40018 4.69135 17.1182
303 1 5.11256 1.23329 12.5648
305 2 4.1538 1.20805 13.1848
306 2 4.86644 0.881292 11.4639
329 2 4.54834 1.95433 16.49
312 1 2.62794 2.39976 17.0613
219 2 0.732879 5.23022 11.4556
330 2 5.72467 0.652905 15.9089
315 2 2.31578 2.38804 15.9661
320 1 -2.50993 5.72569 17.1431
209 2 1.08488 4.17646 9.18285
322 2 -3.05209 6.05318 16.1164
327 1 5.59526 1.73902 16.2406
76 3 -2.70778 6.5738 11.0036
171 1 -1.63414 3.60861 8.87768
183 1 3.78648 6.4806 13.1439
207 2 -2.44586 4.3623 9.08599
328 2 6.066 2.3908 15.4119
4 4 -5.62131 13.1207 7.33664
8 4 -3.67252 6.89668 3.79773
15 4 -2.26069 8.93971 1.97517
17 4 -3.82631 11.0314 0.259767
18 4 -2.74043 8.68177 7.76422
20 4 -3.88134 11.0587 5.992
310 3 -6.1425 12.1447 3.06415
1 4 -5.05545 13.0701 2.3294
25 4 -0.208574 13.0155 7.61237
35 4 -1.31721 11.029 4.12172
23 4 -0.0921906 13.2346 2.43956
78 3 -3.41735 8.19215 2.8298
79 3 -1.47343 7.85077 0.995481
80 3 -2.80917 9.94972 0.940703
81 3 -4.12896 12.1941 1.32585
82 3 -3.46088 7.57758 8.67168
83 3 -1.90788 7.92699 6.53122
84 3 -6.19217 11.9835 8.33226
85 3 -5.06607 10.8089 5.0148
86 3 -3.85122 9.79828 7.1753
87 3 -4.30986 12.4515 6.78489
95 3 0.237099 7.15255 5.03899
103 3 2.36515 7.1876 3.33577
105 3 -1.25394 9.87616 2.9053
106 3 -1.07798 12.6295 3.48718
107 3 -2.60018 10.9744 5.03252
364 2 -4.58154 8.44273 0.591201
111 3 -1.13248 11.9263 8.37961
113 3 -0.104404 10.7042 5.05685
37 4 2.51194 8.72634 7.47573
184 1 1.09012 9.16429 2.51337
248 2 0.316033 7.55627 8.21368
243 2 0.838074 9.05524 3.6517
244 2 0.470993 8.51219 1.86563
245 2 0.97852 10.264 2.17542
108 3 0.69913 11.8931 1.50101
186 1 1.13369 7.97776 8.79312
228 2 -3.13324 13.1064 8.62884
358 2 0.320027 9.27327 0.346643
110 3 -1.66795 9.3445 8.68593
12 4 -1.22201 6.75998 5.60536
357 2 2.12526 9.48388 0.11574
22 4 -3.64617 10.6022 11.3257
33 4 1.06433 6.8708 15.5123
224 2 -5.33397 12.2436 12.2599
38 4 -1.08362 10.6441 9.36525
40 4 1.91458 9.40328 13.8397
41 4 -1.96193 11.4284 15.6335
42 4 0.756553 11.3631 11.611
88 3 -4.79122 10.605 10.2056
348 2 -3.8999 7.37412 13.671
102 3 -0.282423 7.25375 16.3659
112 3 -2.17775 10.8282 10.8384
116 3 1.28741 8.09483 14.3902
117 3 -0.639674 11.762 16.4351
118 3 -1.9226 12.444 14.2513
119 3 -3.21662 11.7546 16.4874
120 3 0.30738 10.4221 10.1153
121 3 0.85037 10.3423 12.9015
122 3 -0.0261579 12.8773 11.9622
174 1 -0.810973 8.2998 12.0554
176 1 -3.69273 9.06936 12.5027
177 1 -4.28211 12.0801 12.4049
185 1 0.983013 9.86019 17.3639
353 2 -3.60574 13.0181 12.4605
189 1 -1.82607 9.60392 15.0751
214 2 0.303934 8.0578 11.611
215 2 -0.766595 8.62104 13.1711
216 2 -1.37811 8.94628 11.3412
220 2 -3.0444 9.28841 13.4901
221 2 -3.20188 8.26241 11.9133
240 2 3.22672 6.96142 14.0061
223 2 -4.01953 11.3367 13.4159
326 2 -5.16409 12.8801 15.9212
246 2 0.886866 9.58167 16.2303
247 2 1.73508 7.27675 9.40925
249 2 0.763359 8.91557 9.34537
36 4 0.691079 11.7106 17.4738
325 2 -5.33354 12.2737 14.1374
256 2 -1.12836 9.17567 15.8439
257 2 -1.43246 9.51261 14.0119
258 2 -2.93032 9.25615 15.2858
229 2 -3.54839 13.1441 10.5133
311 3 -5.33342 10.5177 17.2796
323 1 -5.89572 12.556 15.1299
324 2 -6.79523 13.3102 14.9487
222 2 -4.79048 8.75395 12.6939
101 3 2.38859 6.87787 16.4877
254 2 2.80906 8.06711 11.9337
302 4 -1.05485 13.4087 13.1885
345 2 -4.0196 7.09447 17.3219
2 4 13.3781 2.383 3.45865
191 1 10.7577 0.401638 1.34389
277 2 6.39112 5.79203 1.86464
44 4 8.66096 2.22012 3.98168
45 4 12.5826 0.153519 7.68373
46 4 11.2573 2.40458 5.68645
48 4 9.77386 4.67224 1.95448
51 4 10.1058 4.6014 7.57269
97 3 6.33058 3.34041 6.92628
360 2 10.4278 1.31067 2.03742
123 3 12.8947 1.19512 2.5337
124 3 8.48402 0.834798 3.11026
125 3 7.32246 2.52388 4.76026
126 3 12.2499 2.80625 4.46861
127 3 9.84068 1.98321 5.06177
128 3 11.8891 1.2701 6.67877
129 3 8.93242 3.49544 2.86632
130 3 10.7582 5.60349 2.76528
132 3 8.81121 5.40426 0.810555
133 3 11.0534 3.7358 6.65915
137 3 7.711 6.71452 4.77522
131 3 5.08884 6.37724 5.09488
138 3 9.25659 5.71084 6.78404
340 2 4.90372 5.22142 1.28813
196 1 10.941 3.55933 0.912326
197 1 6.16135 5.33794 2.8926
198 1 8.85872 3.45305 8.32238
299 2 6.49504 3.92797 0.29203
274 2 10.9265 2.36452 1.10924
275 2 11.9585 4.00438 1.06365
276 2 7.04071 4.7101 3.27479
352 2 12.9029 2.77455 8.16612
278 2 5.2631 4.62328 2.80527
279 2 8.64972 2.65901 7.53848
359 2 10.8881 0.717427 0.251903
300 2 7.53692 3.3882 1.837
298 1 6.59349 3.26268 1.11895
280 2 7.84794 4.00511 8.56828
296 4 6.91372 1.73369 0.167456
30 4 5.34243 4.06967 8.10743
354 2 9.49311 2.39354 0.0999307
284 2 4.10709 6.61751 11.1504
32 4 4.92452 4.9563 13.8027
47 4 10.473 2.55596 12.0596
52 4 6.23155 6.43087 9.61648
54 4 9.93606 5.06426 13.719
135 3 6.40159 4.74145 9.26468
139 3 10.751 3.76602 13.1791
140 3 5.87367 5.36059 15.0159
331 1 8.52648 1.79641 17.1243
337 2 7.18521 1.52293 9.01769
145 3 9.01976 5.70493 12.6275
182 1 6.1234 4.27665 12.4098
11 4 11.0489 6.64134 9.79354
193 1 11.4643 2.57791 10.4211
194 1 8.63574 2.64989 11.6241
195 1 10.6059 0.949729 13.0442
347 1 11.0331 6.52219 14.4014
200 1 8.88373 4.3404 15.1367
335 2 8.95532 0.880581 9.09872
363 2 10.8707 0.350816 9.58394
238 2 6.98459 3.63359 12.9234
239 2 6.51738 5.22126 11.8753
263 2 13.3922 1.17998 9.79118
264 2 11.3497 1.68451 9.72038
265 2 12.4097 2.64573 11.0485
266 2 11.263 3.54862 9.91488
267 2 8.13487 2.03987 12.659
268 2 8.34248 2.14796 10.5866
269 2 8.47399 3.77361 11.6169
270 2 11.6584 0.361067 12.6148
271 2 9.7219 0.273902 12.8132
272 2 10.6573 1.32509 14.1684
281 2 9.45274 3.12238 9.28011
285 2 9.46424 4.91782 15.9446
286 2 9.02206 3.18349 15.2725
287 2 7.81371 4.55086 15.0616
304 1 7.63046 1.06648 14.2943
308 2 8.77543 1.04846 13.8264
309 2 7.22759 2.09196 14.5694
316 1 11.8603 2.17834 16.1849
317 2 11.0451 1.89626 15.3804
318 2 11.7821 3.23028 16.4414
319 2 11.8383 1.55262 17.1435
134 3 10.929 5.15663 9.17973
332 2 8.97863 0.739787 17.0297
333 2 8.41958 2.15701 16.0589
334 1 7.87879 0.637979 9.16097
192 1 13.9372 0.715991 8.87952
366 2 14.3425 0.261944 12.0649
237 2 5.53755 3.63241 11.7104
205 2 13.2932 1.46901 13.8302
336 2 7.57374 0.181043 10.1781
170 1 14.1941 1.15583 14.5082
290 2 11.9147 0.325218 15.3698
273 2 10.4356 3.88299 17.4887
355 2 7.579 0.370528 15.195
144 3 6.9881 6.74733 11.0053
350 2 14.1264 0.0904595 14.8338
199 1 4.36822 6.66268 10.0154
16 4 8.6099 10.9232 4.08862
262 2 2.59229 12.9765 1.51615
50 4 8.56014 6.95849 0.107672
49 4 6.2473 6.79739 4.10473
43 4 4.99808 13.1859 1.99204
53 4 9.01414 6.99809 5.75929
57 4 7.24412 9.01859 2.1575
58 4 3.82134 10.9141 4.05472
60 4 7.52124 8.65647 7.87187
61 4 6.12423 10.897 6.06921
109 3 3.37898 7.5475 6.89633
343 2 3.04693 12.4197 8.18849
104 3 3.39948 7.97631 0.921062
115 3 1.04402 12.3179 6.92685
252 2 3.68828 10.659 8.60208
136 3 10.2905 7.35277 4.89191
146 3 6.20406 8.09161 3.05867
147 3 7.98151 8.0432 1.08989
148 3 8.33603 9.65585 3.18964
149 3 3.5098 9.71248 3.07463
150 3 4.65362 12.1594 3.11318
151 3 2.4269 11.5526 4.63798
153 3 6.55632 10.1369 1.22611
154 3 5.92804 12.6012 0.762212
155 3 6.59551 7.42452 8.39284
156 3 8.56271 8.19123 6.81219
158 3 7.30267 11.1438 5.07302
159 3 4.75593 10.4734 5.33818
160 3 6.46851 9.81215 7.17474
161 3 5.70889 12.2446 6.86077
187 1 3.63171 9.54629 8.77522
250 2 4.62792 9.09544 8.56615
34 4 2.83679 8.42829 2.49818
59 4 6.17002 11.1744 0.0887685
114 3 1.93671 9.92035 6.61825
39 4 1.28194 11.0927 5.80445
362 2 7.00803 13.2052 9.15095
21 4 8.51553 10.9371 15.8829
29 4 3.6696 7.01485 17.305
55 4 6.20556 7.059 15.5094
56 4 8.55307 6.97875 11.6368
341 1 3.80052 12.8301 8.94652
62 4 7.60988 9.06526 13.6635
63 4 3.48209 11.3325 16.015
64 4 6.68455 11.3095 11.5564
142 3 4.96352 7.47654 16.4406
143 3 9.60516 7.02438 10.3996
152 3 7.12262 11.292 16.499
365 2 10.6428 6.95411 15.5277
162 3 6.47789 7.99006 14.2619
163 3 8.55542 8.29503 12.523
164 3 8.63018 9.77645 14.7751
165 3 2.78252 10.3389 14.9887
166 3 4.37917 10.6902 17.127
167 3 2.05135 12.3132 16.8872
168 3 7.9734 11.5949 10.7751
169 3 6.76652 10.3255 12.9035
190 1 2.51707 11.9218 11.2472
201 1 4.45907 12.5319 15.0093
202 1 5.30068 10.4939 10.3579
203 1 5.96777 12.9509 12.1898
157 3 8.12462 9.51378 9.14529
242 2 4.53521 7.08128 12.6405
251 2 3.24304 9.37602 9.74373
344 1 10.1125 7.7857 17.3224
255 2 4.18738 8.9843 12.9774
259 2 2.61863 11.3292 10.2499
260 2 3.19557 11.5104 11.9828
346 2 9.96318 8.26243 16.3134
283 2 4.02529 7.76156 9.58198
288 2 4.1345 12.4647 13.9677
289 2 5.50638 12.1143 15.1823
253 2 3.11587 9.85813 11.5961
291 2 5.42898 9.39197 10.4794
292 2 5.61455 10.755 9.28946
293 2 4.21464 10.8353 10.6085
294 2 5.54876 12.6943 13.2825
141 3 7.68714 7.03743 16.3124
188 1 3.15519 9.01421 12.4259
19 4 8.86083 10.8888 9.49163
342 2 4.38701 12.0626 9.59205
261 2 2.78513 13.0617 11.1357
295 2 5.13738 13.1882 11.3735
ITEM: TIMESTEP
100
ITEM: NUMBER OF ATOMS
366
ITEM: BOX BOUNDS xy xz yz pp pp pp
-7.6516000000000002e+00 1.5037200000000000e+01 -7.4931000000000001e+00
0.0000000000000000e+00 1.3479543000000000e+01 -1.5850000000000000e-01
0.0000000000000000e+00 1.7607399999999998e+01 7.9892999999999992e-02
ITEM: ATOMS id type x y z
31 4 3.90048 6.17753 6.12477
3 4 1.20675 2.0923 0.604699
5 4 0.600063 1.86428 5.47499
7 4 0.160444 4.51365 2.17676
73 3 -2.29625 6.29808 4.36905
10 4 -0.176297 4.25074 7.27678
339 2 3.19724 4.77982 1.09145
24 4 3.52934 1.82811 4.18691
351 2 -2.97571 5.78991 0.468473
28 4 1.46485 6.09553 4.43376
65 3 1.62253 0.709878 1.31003
66 3 -0.309934 1.9927 4.26369
67 3 0.768956 0.345655 6.19605
69 3 -1.34969 3.94549 2.3329
70 3 1.3208 3.44965 1.37569
71 3 0.163314 5.73431 1.07565
72 3 0.166934 2.96752 6.50315
93 3 6.73668 0.870821 6.5871
74 3 -0.849854 5.56541 6.63259
89 3 3.32435 0.353576 3.44854
90 3 2.196 2.22002 4.788
91 3 2.17249 0.998176 8.24277
92 3 4.72359 2.01914 5.20474
338 1 4.1424 5.18777 0.59523
94 3 0.84824 4.87797 3.55424
301 2 5.57267 3.29244 1.64996
98 3 2.42906 5.424 5.56421
227 2 4.88321 3.61391 3.04271
172 1 1.45255 4.84345 8.11696
178 1 3.87905 3.03608 2.7797
208 2 2.34792 4.51067 7.53804
361 2 -0.313748 1.12399 8.11752
210 2 1.42218 6.01992 8.31462
225 2 2.94741 3.67679 2.97125
226 2 3.8897 2.57992 1.75589
297 3 6.6802 0.822292 1.27727
99 3 4.47791 5.19575 7.11265
9 4 -0.731608 6.64529 0.105311
171 1 -1.49307 3.63334 8.60712
96 3 4.39693 2.94325 8.62332
12 4 -1.29261 6.71333 5.59596
314 2 3.12183 3.49301 17.4868
13 4 -0.148456 4.60337 14.0451
307 2 5.51232 2.38075 12.5403
26 4 3.32033 1.62623 9.25169
68 3 -0.249322 2.04948 17.1188
75 3 -0.953826 3.75836 15.1219
349 2 -3.10561 5.53695 14.5063
77 3 -1.22727 5.53906 13.0033
100 3 1.0593 5.44589 14.6614
179 1 4.31115 0.0649687 9.77092
173 1 0.693539 3.42377 12.88
175 1 0.11637 5.62648 10.5854
313 2 3.18567 1.50281 17.4653
180 1 2.28553 2.20289 10.7636
181 1 3.67481 3.34966 14.2515
204 2 0.485826 1.26357 14.1727
206 2 -1.02453 3.08582 9.50235
217 2 0.478789 6.47867 9.9077
211 2 0.719539 3.94835 11.8757
212 2 0.302996 2.37959 12.8074
213 2 1.86373 3.42809 13.3322
14 4 -1.22181 6.47097 11.7625
218 2 -0.441827 4.86736 9.87739
321 2 -2.00996 4.62213 17.2968
6 4 -1.20735 2.32396 15.8358
230 2 5.32298 0.458438 9.83011
231 2 1.15514 1.79222 10.674
232 2 2.39986 3.34839 10.8714
233 2 2.89371 1.53653 11.5264
234 2 4.343 2.66846 15.0228
235 2 3.42294 2.80939 13.2891
236 2 2.85283 4.00834 14.7108
241 2 3.14068 6.09728 12.6066
282 2 3.83675 6.00752 9.54494
356 2 4.3155 4.72637 17.2255
303 1 5.15218 1.274 12.6505
305 2 4.41493 1.08697 13.5484
306 2 4.78428 0.866165 11.6453
329 2 4.50183 2.07776 16.5627
312 1 2.62889 2.40065 17.1649
219 2 0.958375 5.13629 11.049
330 2 5.49106 0.575468 16.0518
315 2 2.27814 2.41442 16.0508
320 1 -2.41893 5.67152 17.2641
209 2 1.20011 4.15092 9.07026
322 2 -2.85358 5.9376 16.1856
327 1 5.5762 1.6564 16.2267
76 3 -2.51424 6.63524 10.86
302 4 6.48883 0.152064 13.3516
328 2 6.10908 2.29743 15.4661
170 1 -0.657645 1.19228 14.3438
207 2 -2.3636 4.31227 8.89391
4 4 -5.65645 13.0636 7.29526
8 4 -3.71819 6.83456 3.73569
15 4 -2.35654 9.00803 1.95356
17 4 -3.94924 11.0619 0.19501
18 4 -2.63655 8.68051 7.59008
20 4 -3.92172 11.0849 5.98338
310 3 -6.24788 12.2143 3.19151
1 4 -5.10006 12.9885 2.36861
25 4 -0.234303 13.1448 7.66063
35 4 -1.31875 11.1076 4.20558
23 4 -0.0521354 13.2108 2.38526
78 3 -3.38333 8.11741 2.80065
79 3 -1.43248 7.99869 1.10837
80 3 -3.15004 9.77891 0.817811
81 3 -4.13821 12.0816 1.39075
82 3 -3.59757 7.59845 8.46227
83 3 -1.88281 7.97565 6.38558
84 3 -6.26484 11.955 8.3419
85 3 -5.23266 10.6285 5.1024
86 3 -3.55532 9.88697 7.106
87 3 -4.25842 12.5198 6.76481
95 3 0.187382 7.08487 5.04364
103 3 2.42192 7.182 3.51037
105 3 -1.5304 10.0197 3.06238
106 3 -1.03334 12.5366 3.34595
107 3 -2.65717 11.1285 5.06177
114 3 1.87354 9.75223 6.54471
111 3 -1.22761 12.061 8.41918
113 3 -0.0155091 10.7684 5.04882
37 4 2.55113 8.70606 7.5016
184 1 1.06098 9.07253 2.55309
248 2 0.374845 7.46125 8.15714
243 2 0.74373 8.97493 3.66025
244 2 0.436366 8.25763 1.95277
245 2 0.869209 10.1652 2.1108
108 3 0.733799 11.805 1.4494
186 1 1.21121 7.96042 8.71844
364 2 -4.60716 8.3716 0.565244
358 2 0.434228 9.06025 0.364764
110 3 -1.43527 9.32865 8.56076
34 4 2.767 8.37198 2.61297
22 4 -3.63246 10.5182 11.3045
33 4 1.22261 6.8097 15.3812
224 2 -5.35679 12.2852 12.3841
38 4 -1.22116 10.6594 9.52741
40 4 1.97453 9.45315 13.7439
41 4 -1.96223 11.3932 15.6192
42 4 0.712468 11.4396 11.7036
88 3 -4.70508 10.4438 10.0213
348 2 -3.83347 7.26403 13.6725
102 3 -0.120227 7.23121 16.4096
112 3 -2.18932 10.8562 10.7346
116 3 1.4308 8.03473 14.2848
117 3 -0.661182 11.585 16.5776
118 3 -1.69934 12.1977 14.2774
119 3 -3.3099 11.7526 16.4049
120 3 0.431642 10.5113 10.1137
121 3 0.752649 10.5334 13.0145
122 3 -0.108884 12.7971 11.8992
174 1 -0.743935 8.2279 12.2734
176 1 -3.64394 8.91038 12.4185
177 1 -4.23248 12.0211 12.5387
185 1 1.05506 9.67536 17.298
353 2 -3.51391 12.9275 12.6282
189 1 -2.0709 9.55771 15.1553
214 2 0.331583 8.18039 11.9059
215 2 -0.821383 8.53328 13.3583
216 2 -1.31336 8.98458 11.7008
220 2 -3.02406 9.12082 13.4537
221 2 -3.16719 8.02831 11.7679
101 3 2.60991 6.84758 16.3507
223 2 -4.05025 11.3022 13.4052
326 2 -5.28511 12.9946 16.1973
246 2 1.05732 9.33658 16.2449
247 2 1.74483 7.28706 9.49863
249 2 0.747323 8.95086 9.25719
36 4 0.788643 11.5447 17.4892
325 2 -5.15391 12.2493 14.3807
256 2 -1.61091 8.984 16.0415
257 2 -1.45722 9.40622 14.1936
258 2 -3.19632 9.37873 14.9544
229 2 -3.67375 13.064 10.8261
311 3 -5.62592 10.603 17.2043
323 1 -5.85615 12.5932 15.2909
324 2 -6.74289 13.2638 15.0121
222 2 -4.77795 8.7348 12.5789
228 2 -3.35421 12.708 8.88373
2 4 13.3856 2.44735 3.55016
191 1 10.9193 0.281218 1.30839
277 2 6.69797 5.77947 1.8838
44 4 8.65626 2.08103 3.93997
45 4 12.6788 0.127299 7.61315
46 4 11.1908 2.52558 5.72641
48 4 9.82745 4.54577 2.02852
51 4 10.0528 4.64186 7.61322
97 3 6.41011 3.3985 6.8799
360 2 10.4165 0.982791 2.10225
123 3 12.8886 1.23313 2.63006
124 3 8.5585 0.747887 3.06732
125 3 7.1551 2.54346 4.43396
126 3 12.283 2.79357 4.59535
127 3 9.72759 2.00127 5.14202
128 3 11.9638 1.36107 6.81901
129 3 9.16142 3.37285 2.80436
130 3 10.5955 5.70387 2.8592
132 3 8.98356 5.27712 0.8194
133 3 10.9585 3.75902 6.71657
27 4 6.29039 2.1741 5.7918
131 3 5.04501 6.49087 4.99504
138 3 9.21794 5.73218 6.82863
340 2 5.0637 5.31843 1.33788
196 1 11.0855 3.39007 1.18193
197 1 6.37879 5.32793 2.85752
198 1 8.76206 3.38219 8.32792
299 2 6.12735 4.22713 0.0514283
274 2 11.0273 2.30037 1.19729
275 2 12.2092 3.69434 1.60013
276 2 7.16559 4.61466 3.25835
352 2 13.1489 2.86355 7.85336
278 2 5.25863 4.8824 2.81072
279 2 8.56283 2.58596 7.54942
359 2 11.0624 0.776681 0.26811
300 2 7.59096 3.60894 1.32368
298 1 6.41449 3.4484 0.875965
354 2 9.63197 2.34337 0.170735
296 4 7.00005 1.85403 0.139257
30 4 5.28666 4.06745 7.96297
280 2 7.76829 4.06222 8.67449
273 2 10.9007 3.79604 0.124548
284 2 4.29642 6.71775 11.2391
32 4 4.93601 4.82823 13.8363
47 4 10.4233 2.51224 11.9873
52 4 6.259 6.39942 9.55206
54 4 9.78589 5.13794 13.7707
135 3 6.44751 4.8608 9.21864
139 3 10.7672 3.76543 12.9444
140 3 5.79669 5.41018 14.9601
331 1 8.66662 1.85344 17.138
337 2 7.19972 1.62253 9.17518
145 3 8.95809 5.93943 12.6781
182 1 6.08646 4.33214 12.3576
11 4 11.0655 6.63637 9.63548
193 1 11.4181 2.42082 10.4128
194 1 8.54004 2.75583 11.7257
195 1 10.5282 0.849307 13.0463
347 1 11.0727 6.35393 14.4849
200 1 8.56552 4.44347 15.0764
335 2 8.90277 0.874607 8.84687
363 2 10.8096 0.156481 9.49314
238 2 6.76738 3.60335 12.7619
239 2 6.63107 5.25974 12.0712
263 2 13.6952 1.48223 9.71293
264 2 11.3591 1.47936 9.77319
265 2 12.4324 2.44315 10.9759
266 2 11.211 3.40843 9.81332
267 2 8.08056 2.30252 12.744
268 2 8.27763 2.0161 10.8103
269 2 8.19095 3.81641 11.5031
270 2 11.5335 0.460698 12.7302
271 2 9.67598 0.115002 12.7518
272 2 10.4622 1.16675 14.1603
281 2 9.46801 3.0601 9.23819
285 2 9.17639 4.97434 15.9403
286 2 8.6637 3.34795 15.109
287 2 7.48864 4.76483 14.9531
304 1 7.65184 1.21968 14.4103
308 2 8.75043 1.18138 13.9211
309 2 7.1921 2.26341 14.5557
316 1 11.9865 2.08902 16.0087
317 2 11.3709 2.01458 15.084
318 2 11.8725 3.17327 16.5129
319 2 11.5709 1.25084 16.7066
134 3 11.0504 5.08507 9.1956
332 2 9.04325 0.755481 16.9633
333 2 8.64552 2.3946 16.0939
334 1 7.82816 0.72348 9.25111
192 1 14.0488 0.694567 8.95437
366 2 14.1774 0.578922 12.2081
237 2 5.44413 4.01512 11.407
205 2 13.7669 1.48469 13.4373
336 2 7.63258 0.0902311 10.301
350 2 14.0361 0.243732 14.8809
290 2 11.9681 0.20357 15.2598
183 1 4.01012 6.50714 13.224
355 2 7.51745 0.47898 15.3549
16 4 8.55698 10.8514 4.08948
262 2 2.87114 12.7573 1.24697
50 4 8.61303 6.86886 0.100026
49 4 6.31942 6.78155 4.14111
43 4 5.12087 13.158 2.17309
53 4 8.99529 6.98489 5.86771
57 4 7.2524 8.9028 2.19157
58 4 3.77729 10.9633 3.99658
60 4 7.39821 8.71254 7.83606
61 4 6.00552 10.9051 6.03167
109 3 3.36064 7.51543 6.87166
343 2 3.15777 12.3106 8.0203
104 3 3.28283 7.77686 1.15302
115 3 1.15378 12.3684 6.9419
137 3 7.64356 6.73304 4.98616
136 3 10.3181 7.1173 4.91389
146 3 6.13352 8.10762 3.16623
147 3 7.81426 7.81917 1.11795
148 3 8.46535 9.55607 3.08793
149 3 3.51135 9.65741 3.1783
150 3 4.61479 12.1043 3.22331
151 3 2.36749 11.6622 4.68179
153 3 6.4427 10.0909 1.46762
154 3 5.84342 12.6367 0.843467
155 3 6.58857 7.45633 8.39498
156 3 8.58518 8.3471 6.79747
158 3 7.23 11.1103 5.00505
159 3 4.62177 10.4738 5.31368
160 3 6.36893 9.61634 7.04706
161 3 5.72613 12.2416 6.93161
187 1 3.70348 9.60475 8.71774
250 2 4.7804 9.22144 8.42079
357 2 2.29792 9.67782 0.181852
59 4 6.05592 11.0482 0.165794
39 4 1.31453 11.1805 5.84268
252 2 3.68486 10.7949 8.73907
144 3 7.12953 6.81455 10.9599
21 4 8.46383 10.8851 16.0369
29 4 3.63845 7.00609 17.4737
55 4 6.29656 7.1019 15.5698
56 4 8.56217 7.07716 11.5578
199 1 4.4124 6.79062 10.054
62 4 7.44632 9.14565 13.6843
63 4 3.39135 11.4027 15.9197
64 4 6.76177 11.4202 11.7563
142 3 5.19282 7.37474 16.7624
143 3 9.83912 7.12515 10.5475
152 3 7.04282 11.0698 16.6842
254 2 2.9986 7.9695 12.0216
162 3 6.32164 8.20328 14.4285
163 3 8.39714 8.51744 12.469
164 3 8.55 9.92803 14.7917
165 3 2.72889 10.3641 14.8996
166 3 4.44845 10.8449 17.049
167 3 2.05118 12.4207 16.7574
168 3 7.95946 11.6158 10.8394
169 3 6.64675 10.5033 13.0351
190 1 2.49405 12.0082 11.2648
201 1 4.43984 12.4574 14.929
202 1 5.33058 10.6273 10.6446
203 1 5.84372 13.1441 12.1751
157 3 7.9757 9.57307 9.05785
242 2 4.83398 7.05647 12.6333
251 2 3.17274 9.19939 9.64809
344 1 10.1513 7.75958 17.3129
255 2 4.29056 9.238 12.9005
259 2 2.76146 11.5134 10.2845
260 2 3.05241 11.5808 12.2046
346 2 9.98452 8.35968 16.3716
283 2 4.19603 7.88259 9.65355
288 2 3.97644 12.2728 13.9077
289 2 5.45497 12.0086 14.868
253 2 3.05952 9.86907 11.5927
291 2 5.22371 9.51864 10.7898
292 2 5.68395 10.8805 9.63162
293 2 4.36811 11.1261 10.9327
294 2 5.32595 12.9348 13.1581
141 3 7.76418 6.88165 16.2758
188 1 3.22976 9.1095 12.3659
19 4 8.7425 10.8893 9.52861
342 2 4.44668 12.0717 9.49722
261 2 2.59115 13.0882 11.1985
295 2 5.05673 13.1373 11.291
240 2 3.77274 7.14367 14.0731
362 2 6.86479 13.0401 9.37214
365 2 10.7555 6.78551 15.5476
341 1 3.84207 12.8165 8.8407
345 2 11.0121 6.96311 17.2788
ITEM: TIMESTEP
200
ITEM: NUMBER OF ATOMS
366
ITEM: BOX BOUNDS xy xz yz pp pp pp
-7.6516000000000002e+00 1.5037200000000000e+01 -7.4931000000000001e+00
0.0000000000000000e+00 1.3479543000000000e+01 -1.5850000000000000e-01
0.0000000000000000e+00 1.7607399999999998e+01 7.9892999999999992e-02
ITEM: ATOMS id type x y z
31 4 3.8864 6.08442 6.19317
3 4 1.22267 2.00903 0.563931
5 4 0.689648 1.89131 5.37247
7 4 0.24535 4.52206 2.14889
73 3 -2.29258 6.29992 4.43093
10 4 -0.116621 4.33564 7.45155
339 2 3.08951 4.84384 0.909461
24 4 3.56233 1.76764 4.12202
351 2 -2.86603 5.69257 0.599933
28 4 1.43819 6.08358 4.46804
65 3 1.5383 0.760609 1.4265
66 3 -0.406569 1.88389 4.24649
67 3 0.748117 0.362645 6.19212
69 3 -1.27487 3.91508 2.35609
70 3 1.02067 3.24658 1.46873
71 3 0.190737 5.9241 1.13953
72 3 0.340012 3.12975 6.51038
93 3 6.66117 0.716125 6.59459
74 3 -0.784221 5.56297 6.65943
89 3 3.37249 0.446267 3.2525
90 3 2.16392 2.25638 4.7575
91 3 2.20454 0.929216 8.28307
92 3 4.83532 1.78872 5.07582
338 1 4.09772 5.24188 0.565412
94 3 0.870075 4.96616 3.49
96 3 4.33323 2.72118 8.68749
98 3 2.46473 5.48125 5.59786
227 2 5.32839 2.97034 2.85562
172 1 1.4749 4.86809 8.35475
178 1 4.15135 3.05219 2.73356
208 2 2.15961 4.35887 7.49527
361 2 -0.419702 1.69377 8.51979
210 2 1.43201 6.11084 8.42895
225 2 3.81808 4.02624 3.14486
226 2 3.70661 2.84422 1.63124
297 3 6.91603 0.706451 1.09126
99 3 4.50643 5.08967 7.32951
27 4 6.25752 2.00011 5.70749
171 1 -1.43077 3.66015 8.76129
301 2 5.52184 3.31391 1.34386
314 2 3.17675 3.53787 17.5778
13 4 -0.183598 4.76652 13.9741
307 2 5.41728 2.35426 12.574
26 4 3.39506 1.6348 9.28047
68 3 -0.180274 1.9889 16.9831
75 3 -0.992442 3.683 15.075
349 2 -2.96528 5.90425 14.6264
77 3 -1.21041 5.62176 13.0005
100 3 1.13961 5.5595 14.6834
170 1 -0.579428 1.1225 14.3656
173 1 0.875618 3.69466 12.9051
175 1 0.0882205 5.7996 10.5345
313 2 3.22843 1.52818 17.5046
180 1 2.36007 2.35329 10.7007
181 1 3.78485 3.57008 14.3516
204 2 0.498909 1.09639 14.3165
206 2 -0.839511 3.24932 9.61774
217 2 0.527606 6.63547 9.88776
211 2 0.901898 4.13731 11.8732
212 2 0.394626 2.65513 12.971
213 2 2.01321 3.73527 13.4719
14 4 -1.29457 6.57577 11.6678
218 2 -0.461264 4.98171 9.92553
321 2 -1.7855 4.62793 17.2778
6 4 -1.1839 2.27498 15.7579
230 2 5.47382 0.381759 10.0263
231 2 1.35518 2.54937 10.3115
232 2 2.96511 3.28942 10.8993
233 2 2.43966 1.63118 11.5902
234 2 4.47176 2.84307 15.0893
235 2 3.42165 2.9629 13.4548
236 2 2.94022 4.09287 14.9077
241 2 2.93969 6.43072 12.6975
282 2 3.99214 5.87527 9.35303
356 2 4.46087 4.8126 17.2567
303 1 5.08204 1.14562 12.6547
305 2 4.33549 0.925086 13.4826
306 2 4.74218 0.713849 11.5827
329 2 4.53848 1.94843 16.5487
312 1 2.74316 2.52439 17.2063
219 2 0.927434 5.40099 11.2653
330 2 5.83447 0.599997 16.0342
315 2 2.27283 2.53439 16.1595
320 1 -2.37856 5.64348 17.2946
209 2 1.56937 4.29109 9.35539
322 2 -2.90228 5.92975 16.2402
327 1 5.65675 1.68077 16.2329
207 2 -1.98431 4.62018 9.01988
328 2 6.12052 2.29447 15.3065
4 4 -5.68242 13.1559 7.29152
8 4 -3.75434 6.78806 3.78549
15 4 -2.38187 8.89491 1.95506
17 4 -3.92455 11.0414 0.333969
18 4 -2.65484 8.72182 7.65181
20 4 -3.94251 11.0724 5.92192
310 3 -6.19491 12.0295 3.09282
1 4 -5.21139 13.0475 2.32322
25 4 -0.219633 12.9979 7.67804
35 4 -1.41677 11.1579 4.03993
23 4 0.0953424 13.1137 2.36774
78 3 -3.5088 8.052 2.70131
79 3 -1.4052 7.91454 0.938645
80 3 -3.00482 9.87584 0.816266
81 3 -4.33493 12.1433 1.29616
82 3 -3.56025 7.71337 8.48953
83 3 -1.8971 8.0048 6.45202
84 3 -6.33653 11.9959 8.27459
85 3 -5.19085 10.5378 5.0783
86 3 -3.43276 10.0423 7.14951
87 3 -4.45351 12.4964 6.56317
95 3 0.154712 7.18501 4.91591
103 3 2.60923 7.07265 3.55612
105 3 -1.505 9.8631 2.99584
106 3 -1.08097 12.5982 3.25214
107 3 -2.73916 11.3685 4.95167
110 3 -1.41727 9.23093 8.68591
111 3 -1.15458 11.8997 8.42463
113 3 -0.116023 10.9251 5.06362
12 4 -1.28063 6.77049 5.56091
184 1 0.91208 8.96176 2.68628
248 2 0.449148 7.6266 8.20946
243 2 0.700759 9.07064 3.82341
244 2 0.346907 8.13356 2.17811
245 2 0.881954 9.99873 2.08518
108 3 0.769241 11.7318 1.47054
9 4 -0.70143 6.74165 0.0927189
34 4 2.69239 8.25188 2.5672
358 2 0.742368 8.99523 0.4893
114 3 1.89001 9.94107 6.66685
186 1 1.3188 8.12417 8.76099
22 4 -3.69113 10.4383 11.3107
33 4 1.16681 6.93005 15.4072
224 2 -5.34135 12.1071 12.1371
38 4 -1.14927 10.6608 9.41238
40 4 2.02954 9.44625 13.6938
41 4 -2.00249 11.2823 15.7164
42 4 0.645797 11.3934 11.6529
88 3 -4.9391 10.5681 10.2396
348 2 -3.92047 7.37259 13.8141
102 3 -0.118154 7.14412 16.3234
112 3 -2.24452 10.4892 10.7452
116 3 1.38822 8.13445 14.2713
117 3 -0.75024 11.4095 16.641
118 3 -1.73444 12.3002 14.3125
119 3 -3.29573 11.8799 16.5131
120 3 0.371251 10.6082 10.1298
121 3 0.894691 10.3778 12.7918
122 3 -0.162203 12.8627 11.8006
174 1 -0.753179 8.27629 12.2202
176 1 -3.83963 8.95833 12.5025
177 1 -4.21812 11.9597 12.3861
185 1 1.17704 9.68757 17.3729
353 2 -3.55911 12.8758 12.5021
189 1 -2.1917 9.44274 15.1885
214 2 0.361629 8.0529 11.8443
215 2 -0.792437 8.25978 13.3573
216 2 -1.19634 9.21511 11.6591
220 2 -3.29505 9.18851 13.5209
221 2 -3.37285 8.06872 11.9551
101 3 2.69902 6.88705 16.2927
223 2 -4.06452 11.2476 13.3482
326 2 -5.24166 12.8789 15.9071
246 2 0.925969 9.3157 16.3793
247 2 1.85687 7.36377 9.47886
249 2 0.937122 9.09264 9.25669
36 4 0.699851 11.535 17.4987
325 2 -5.4001 12.2254 14.1909
256 2 -1.78521 8.88818 16.0671
257 2 -1.53304 9.34628 14.2149
258 2 -3.30113 9.30361 15.1296
229 2 -3.59253 12.9507 10.73
311 3 -5.55848 10.4967 17.2697
323 1 -5.94563 12.4188 15.1552
324 2 -6.8384 13.1012 14.9679
254 2 2.78772 8.17302 11.7474
228 2 -3.29066 12.674 8.85643
302 4 -1.02778 13.3974 13.3017
179 1 -3.1293 13.3952 9.77927
76 3 -2.54709 6.75552 10.7175
346 2 -4.80612 8.42541 16.6253
2 4 13.3744 2.51076 3.52399
191 1 10.7697 0.147862 1.09601
277 2 6.41804 5.93981 1.91657
44 4 8.79545 2.05212 3.95426
45 4 12.734 0.16074 7.52793
46 4 11.2879 2.48605 5.72742
48 4 9.91774 4.35106 2.02
51 4 10.035 4.6097 7.70246
97 3 6.31779 3.29792 6.79214
360 2 10.1685 0.942694 1.55081
123 3 12.8698 1.32001 2.57124
124 3 8.72247 0.601633 3.19303
125 3 7.27682 2.38525 4.55219
126 3 12.1109 2.95239 4.4348
127 3 9.85966 1.94425 5.17288
128 3 12.1085 1.30111 6.62769
129 3 9.10876 3.28889 2.93906
130 3 10.6476 5.59312 2.84606
132 3 9.07368 5.14952 0.769984
133 3 10.9677 3.84107 6.68224
273 2 11.0673 3.83375 0.0107151
131 3 5.0488 6.51456 5.07524
138 3 9.24737 5.77237 7.08265
340 2 4.86586 5.35024 1.49855
196 1 11.1695 3.32057 1.03123
197 1 6.435 5.34058 2.89172
198 1 8.78622 3.43184 8.4941
137 3 7.71389 6.59738 5.0064
274 2 11.0234 2.16505 0.962254
275 2 12.2354 3.55587 1.53738
276 2 7.39823 4.79951 3.1783
352 2 12.9699 2.91183 8.19911
278 2 5.50453 4.5912 2.98101
279 2 8.89902 2.57741 7.69894
280 2 7.6978 3.9272 8.71932
300 2 7.42778 3.83785 1.06042
298 1 6.40562 3.52636 0.565767
50 4 8.61269 6.64245 0.159233
296 4 7.16224 1.86736 0.110367
30 4 5.2929 3.91931 7.90258
284 2 4.21599 6.64318 11.1754
32 4 4.97447 5.0178 13.7848
47 4 10.3747 2.70192 12.1088
52 4 6.30067 6.38017 9.51909
54 4 9.80196 5.31927 13.793
135 3 6.22793 4.71928 9.2256
139 3 10.4741 4.06323 12.9744
140 3 5.8753 5.37809 14.9778
331 1 8.70513 1.81646 16.9355
337 2 7.02793 1.58675 8.8629
145 3 8.80418 6.09876 12.8573
182 1 6.04769 4.23528 12.3788
237 2 5.5554 3.63641 11.6556
193 1 11.2675 2.63416 10.545
194 1 8.47294 2.50671 11.7938
195 1 10.6387 1.01293 13.1512
347 1 11.1037 6.48035 14.5747
200 1 8.70482 4.40319 15.0435
335 2 8.90561 1.00377 8.97234