ITEM: TIMESTEP
0
ITEM: NUMBER OF ATOMS
366
ITEM: BOX BOUNDS xy xz yz pp pp pp
-7.6516000000000002e+00 1.5037200000000000e+01 -7.4931000000000001e+00
0.0000000000000000e+00 1.3615700000000000e+01 -1.5850000000000000e-01
0.0000000000000000e+00 1.7783473999999998e+01 8.0699999999999994e-02
ITEM: ATOMS id type x y z
27 4 6.25239 2.14815 6.04193
3 4 1.31922 2.03975 0.323592
5 4 0.684666 1.85219 5.63013
7 4 0.344851 4.26603 2.09381
9 4 -0.807344 6.40435 0.0332839
10 4 -0.484122 4.26719 7.36833
339 2 3.15283 4.97424 1.05028
24 4 3.46598 1.84461 4.32661
297 3 6.55036 0.534147 1.26091
28 4 1.63772 6.24518 4.28499
65 3 2.03104 0.675612 0.788029
66 3 -0.157057 1.70077 4.17481
67 3 0.774458 0.376606 6.51761
69 3 -1.12933 3.59214 2.74147
70 3 1.41207 3.15229 1.48881
71 3 0.0739852 5.38749 0.93275
72 3 -0.029707 2.95037 6.56352
338 1 4.12771 5.33055 0.616649
74 3 -1.08515 5.58281 6.68363
89 3 3.23448 0.673406 3.23577
90 3 2.25007 2.10103 5.25282
91 3 2.39684 1.32629 8.58133
92 3 4.78671 1.80215 5.18456
93 3 6.81024 1.08648 7.09222
94 3 1.07704 5.04189 3.26359
209 2 1.5335 4.37597 8.66665
98 3 2.57482 5.32729 5.3341
73 3 -2.27521 6.58624 4.55248
172 1 1.23508 5.08266 7.88414
178 1 3.75832 3.44446 3.29107
208 2 1.86437 5.08745 6.86972
361 2 -0.708716 1.59836 8.26507
210 2 1.01689 6.24645 8.28689
225 2 2.82667 4.03737 3.53704
226 2 3.7622 3.07124 2.14854
227 2 4.71837 3.91534 3.73394
301 2 5.39201 3.26021 2.12039
99 3 4.31931 5.30526 7.36024
31 4 3.88793 6.34969 6.29597
351 2 -3.03425 5.53917 0.461976
321 2 -2.03248 4.45199 17.2531
13 4 -0.558705 4.3871 14.0508
14 4 -1.17164 6.39606 11.6666
26 4 3.61627 1.98431 9.4052
68 3 -0.34837 2.14358 17.1963
75 3 -1.36148 3.43693 15.0719
76 3 -2.43379 6.52617 10.507
77 3 -1.39992 5.51668 12.9006
100 3 0.700467 5.0872 14.7127
330 2 5.79523 2.09674 15.6888
173 1 0.0166511 3.04155 12.7513
175 1 0.524869 5.6788 10.9231
179 1 4.66639 0.484759 9.89939
180 1 2.84885 2.59818 11.0864
181 1 3.8594 3.61193 14.4516
204 2 0.264156 0.933358 14.7721
206 2 -0.61672 3.47344 9.73469
207 2 -1.80042 4.97889 9.46172
211 2 -0.405952 3.17143 11.7241
212 2 -0.362003 2.05989 13.2468
213 2 1.18217 3.29768 12.923
217 2 0.706393 5.44038 9.7936
218 2 0.44534 4.65231 11.5442
171 1 -1.37427 3.95659 9.05101
328 2 4.2404 2.18869 16.7879
230 2 5.80136 0.61906 10.0068
231 2 3.68945 2.20558 11.888
232 2 1.81691 2.22285 11.2357
233 2 2.87663 3.69242 10.8917
234 2 4.34448 2.90095 15.2749
235 2 3.52383 3.09714 13.4999
236 2 3.0605 4.46716 14.8243
241 2 3.46037 6.03164 12.6667
282 2 3.76657 5.92176 9.58355
349 2 -2.97308 6.06831 14.5088
303 1 5.27645 1.46146 12.8953
305 2 4.35676 1.41958 13.5549
306 2 5.0701 1.11781 11.7914
307 2 5.62142 2.58635 12.6839
312 1 2.47833 3.02135 17.0029
313 2 2.4962 2.23797 16.1235
101 3 2.34229 6.45281 16.4444
315 2 2.20364 4.15956 16.6862
320 1 -2.50176 5.53609 17.3507
356 2 4.3471 4.71157 17.5982
322 2 -3.05237 5.954 16.2637
327 1 5.2507 1.63095 16.5918
314 2 3.37668 2.98111 17.6934
329 2 5.10522 0.554751 16.5141
219 2 1.40781 6.32491 11.3145
33 4 1.02958 6.47165 15.5654
302 4 6.51027 0.0999966 13.6336
96 3 4.63267 3.15254 8.9226
4 4 -5.57744 13.4357 7.57654
8 4 -3.73328 6.85188 3.87005
15 4 -2.38122 8.83108 1.9863
17 4 -3.5709 11.1377 0.416175
18 4 -2.69809 8.98933 7.70097
20 4 -4.05737 11.4018 5.91316
114 3 1.71807 9.98649 6.80193
12 4 -1.18967 6.90767 5.68881
39 4 1.18178 11.3108 5.89745
35 4 -1.38819 11.2645 4.18641
37 4 2.25766 8.78902 7.63573
78 3 -3.53249 8.0314 2.71932
79 3 -1.3157 7.82564 1.12316
80 3 -2.85026 9.80005 0.850642
81 3 -3.86599 12.1339 1.61452
82 3 -3.50821 8.0525 8.64519
83 3 -1.79454 8.04 6.5767
84 3 -6.14829 12.3032 8.62341
85 3 -5.30622 11.1108 4.96397
86 3 -3.6588 10.1065 6.80573
87 3 -4.22648 12.6898 6.93748
95 3 0.262896 7.16521 4.98581
103 3 2.57696 7.32581 3.46577
105 3 -1.60425 9.91626 3.09442
106 3 -1.00047 12.5436 3.32553
107 3 -2.72957 11.4587 5.04155
109 3 2.91521 7.55852 6.95342
111 3 -1.10498 12.3666 8.53169
113 3 -0.186194 10.9239 5.17315
34 4 2.60004 8.5366 2.4844
184 1 0.896646 9.22696 2.60729
110 3 -1.58529 9.68586 8.67055
243 2 0.64419 9.10258 3.73235
244 2 0.10797 8.62109 1.96695
245 2 0.877718 10.3352 2.26032
248 2 0.106961 8.01823 7.97501
310 3 -6.27031 12.464 2.67466
364 2 -4.59788 8.47293 0.456462
25 4 -0.0920912 13.3236 7.80412
1 4 -5.02309 13.2244 2.06959
23 4 0.00990874 13.2304 2.36916
104 3 3.0163 7.99518 0.696271
357 2 1.73921 8.95241 0.00303366
186 1 0.853766 8.17539 8.84463
22 4 -3.68696 10.8705 11.408
324 2 -5.92349 12.3624 14.3005
228 2 -3.08378 13.4493 8.91777
38 4 -1.07206 11.0386 9.55467
40 4 2.03176 9.05433 13.7752
41 4 -1.75584 11.6021 15.7274
42 4 0.767212 11.4085 11.9928
88 3 -4.88653 10.6994 10.3801
325 2 -4.46243 12.4676 15.5882
102 3 -0.286472 7.06436 16.4228
112 3 -2.23255 11.176 10.7604
116 3 1.36194 7.75573 14.4366
117 3 -0.372015 11.8043 16.5042
118 3 -1.94732 12.592 14.4696
119 3 -2.95182 11.9179 16.763
120 3 0.271964 10.7008 10.2637
121 3 0.780519 10.2314 13.0584
122 3 -0.0841291 12.7834 12.53
174 1 -0.689432 8.14823 12.1766
176 1 -3.64676 9.13529 12.4074
177 1 -4.21901 12.4723 12.3995
185 1 0.697262 9.56062 17.2384
353 2 -3.43191 13.3408 12.6284
189 1 -1.95465 9.73107 15.1377
214 2 0.366584 8.06514 11.6367
215 2 -0.636354 8.07032 13.3139
216 2 -1.26921 9.06037 11.7859
220 2 -2.52458 8.79795 12.4237
221 2 -4.29531 8.37397 11.736
222 2 -4.16035 9.28634 13.3982
223 2 -4.25014 11.7872 13.3758
224 2 -5.19891 12.9063 12.007
246 2 0.729525 9.16643 16.2463
247 2 0.845433 7.25602 9.58917
249 2 0.58571 9.1783 9.45076
36 4 0.810911 11.4272 17.4322
254 2 2.69114 7.69756 11.9132
256 2 -2.41912 9.17171 16.032
257 2 -0.847807 9.55366 14.9295
258 2 -2.59923 9.56174 14.1076
348 2 -3.7805 7.58728 13.7574
311 3 -5.11969 10.697 17.5045
323 1 -5.58576 12.5807 15.4108
229 2 -3.30397 13.388 10.8199
29 4 3.48486 7.01137 17.5185
326 2 -6.02808 13.5349 15.9293
11 4 -3.83956 6.85212 9.62268
358 2 -0.291632 9.37067 17.6796
2 4 13.5346 2.25803 3.50675
360 2 10.5173 1.03038 2.26872
296 4 6.67463 1.81219 0.326125
44 4 8.64466 1.98916 4.07306
280 2 7.86006 4.23496 8.69102
46 4 11.227 2.38387 5.87901
48 4 9.89684 4.4632 2.12713
51 4 10.0087 4.68605 7.64477
97 3 6.12989 3.64174 6.7894
300 2 7.27503 3.27952 2.15446
123 3 12.9118 1.07036 2.53766
124 3 8.42009 0.720203 3.20338
125 3 7.39847 2.33402 4.96912
126 3 12.3084 2.5589 4.73269
127 3 9.93684 1.93876 5.0441
128 3 11.65 1.24479 7.01676
129 3 8.88308 3.32508 3.04157
130 3 10.6408 5.50841 3.14842
132 3 9.08373 5.30448 0.959696
133 3 11.0235 3.82544 6.76752
354 2 9.14305 2.11828 0.473662
340 2 4.93547 5.42168 1.45467
138 3 9.22069 5.70161 6.78908
277 2 6.40673 6.03798 1.88463
196 1 11.1436 3.41757 1.21496
197 1 6.26505 5.60947 2.95121
198 1 8.72501 3.50514 8.48917
275 2 12.132 3.83634 1.74301
274 2 11.013 2.25454 1.35996
30 4 5.33377 4.33964 8.02752
276 2 7.2258 5.1325 3.34772
299 2 6.33971 4.00719 0.49435
278 2 5.3698 4.96528 3.11693
279 2 8.36198 2.68588 7.78684
45 4 12.5883 0.0871433 7.82785
352 2 12.9086 3.21026 8.57793
298 1 6.38373 3.23396 1.4944
359 2 10.7519 0.781036 0.394514
191 1 10.6547 0.268599 1.39031
273 2 10.8964 3.84002 0.151608
6 4 13.663 2.00993 15.9675
32 4 5.17885 5.11178 14.0425
47 4 10.4208 2.81511 12.1091
284 2 4.24302 6.71634 11.323
54 4 9.7234 5.42155 13.9191
135 3 6.43366 5.25171 9.17118
139 3 10.4228 4.21094 12.9316
140 3 6.06519 5.58189 15.2747
347 1 11.1362 6.64852 14.5101
334 1 8.46515 0.435459 9.3517
145 3 8.55745 6.08062 12.9923
182 1 6.18111 4.51843 12.3498
355 2 7.84573 0.688278 15.6647
193 1 11.5028 2.95537 10.5666
194 1 8.49078 2.499 11.7262
195 1 10.8622 1.4123 13.3096
183 1 4.23035 6.58029 13.3366
200 1 8.85401 4.40276 15.3283
237 2 5.52204 3.87283 11.6751
170 1 14.299 0.445662 14.9444
238 2 7.03345 3.88406 12.8136
239 2 6.52738 5.46604 11.7337
263 2 13.3999 1.35424 9.84068
264 2 11.4632 1.96715 9.93688
265 2 12.4309 3.06394 11.1967
266 2 11.3064 3.89784 9.90598
267 2 8.1874 1.95639 12.7729
268 2 8.50077 1.77067 10.911
269 2 7.91294 3.4771 11.514
270 2 10.1786 0.501367 13.0828
271 2 11.2783 1.55678 14.5016
272 2 11.891 1.29234 12.565
366 2 13.799 0.322463 12.0904
285 2 9.51194 4.68543 16.222
286 2 8.9558 3.35054 14.9361
287 2 7.74948 4.85896 15.3721
304 1 7.8463 1.1345 14.5806
308 2 8.95174 1.30008 14.1438
309 2 7.15715 2.13008 14.576
316 1 11.8921 1.54907 16.4871
317 2 11.6512 0.623637 15.8509
318 2 11.4809 2.55436 16.1581
319 2 11.7819 1.34874 17.667
331 1 8.31871 2.00033 17.3237
332 2 8.61543 0.97591 16.8071
333 2 8.47701 2.86468 16.6051
337 2 8.5417 1.57955 8.99596
192 1 13.839 0.872268 8.99
281 2 9.19263 3.062 9.46461
52 4 6.08046 6.76579 9.58322
336 2 7.80652 0.325304 10.2674
205 2 13.9206 0.131131 13.9459
199 1 4.34058 6.77949 10.1875
363 2 11.1412 0.129648 10.0221
134 3 10.7586 5.44105 8.92773
16 4 8.47904 11.2592 3.90125
137 3 7.6721 6.95113 4.97743
43 4 4.85045 13.0679 2.02752
49 4 6.26089 7.08321 4.26794
50 4 8.71098 6.90166 0.234882
53 4 8.93749 7.15263 6.00584
57 4 7.30039 9.01661 2.09599
58 4 3.65605 11.0737 4.07994
60 4 7.37386 9.09565 7.84834
61 4 6.0661 11.1318 5.9129
262 2 2.30367 13.037 1.43393
250 2 4.35956 9.14425 8.48472
343 2 3.18599 12.5247 8.62275
115 3 1.02095 12.6034 6.89728
161 3 5.72128 12.5407 6.93366
136 3 10.2307 7.46132 5.01622
146 3 6.25619 8.37447 3.27253
147 3 8.04521 7.70214 1.41297
148 3 8.37514 9.99048 2.91087
149 3 3.47618 9.72834 3.01407
150 3 4.49134 12.2257 3.36748
151 3 2.28047 11.5351 4.78063
153 3 6.45498 9.9398 1.04372
154 3 5.64313 12.4668 0.812225
155 3 6.15502 7.91627 8.48431
156 3 8.51288 8.24256 7.06108
158 3 7.03774 11.5286 4.6292
159 3 4.62955 10.667 5.43038
160 3 6.70486 10.1355 6.89819
108 3 0.964581 11.9835 1.41667
131 3 5.00642 6.82767 5.28696
59 4 6.1493 11.1245 0.01038
253 2 2.78073 9.61255 11.2951
365 2 10.8314 7.03297 15.5817
21 4 8.76361 11.029 16.3611
55 4 6.28767 7.17443 16.0189
56 4 8.45023 7.2982 11.8982
157 3 8.01826 9.86202 9.05923
62 4 7.56373 9.25734 14.0734
63 4 3.56777 11.0144 15.8058
64 4 6.79997 11.39 11.9215
142 3 4.9918 7.41479 16.8587
143 3 9.8981 7.30353 10.737
152 3 7.41124 11.5325 17.0294
295 2 4.96838 12.8657 11.0922
162 3 6.46791 8.27495 14.5579
163 3 8.56706 8.58824 12.8285
164 3 8.59255 9.833 15.2713
165 3 3.03708 9.79784 14.8245
166 3 5.05084 10.8165 16.4623
167 3 2.30321 11.581 16.6626
168 3 7.93859 11.8902 11.0793
169 3 6.90352 10.6518 13.3332
190 1 2.56847 11.8741 11.8384
201 1 3.81495 12.6093 14.7015
202 1 5.56704 10.3011 10.7744
203 1 5.65682 12.9601 12.0914
252 2 3.73837 10.8476 9.03738
242 2 4.91538 7.26651 12.7653
251 2 3.17024 9.22782 9.96829
187 1 3.47863 9.67901 8.91984
255 2 4.12211 8.8572 12.5279
259 2 2.74795 11.6447 10.7178
260 2 3.07084 11.0927 12.5148
261 2 2.9032 12.9842 12.108
283 2 3.95439 7.91972 9.73272
288 2 3.42661 12.329 13.6378
289 2 4.92845 13.1675 14.7825
290 2 3.02114 13.2395 15.2065
291 2 5.78021 9.25613 10.9798
292 2 5.72147 10.6356 9.61735
293 2 4.53325 10.5864 11.1615
294 2 5.01821 12.8574 13.064
350 2 6.85045 13.0859 15.6462
240 2 3.7525 7.1788 14.2123
341 1 3.98607 12.8022 9.37077
342 2 4.58533 11.8058 9.95779
344 1 10.2109 7.80874 17.3833
144 3 7.00017 7.20227 11.1051
188 1 3.03061 8.75712 12.153
346 2 10.0378 8.34383 16.3773
362 2 7.05978 13.4772 9.19355
335 2 2.08918 13.5308 9.42613
141 3 7.67718 7.13112 16.7376
19 4 8.82532 11.1041 9.64502
345 2 11.078 6.94399 17.3623
ITEM: TIMESTEP
100
ITEM: NUMBER OF ATOMS
366
ITEM: BOX BOUNDS xy xz yz pp pp pp
-7.6516000000000002e+00 1.5037200000000000e+01 -7.4931000000000001e+00
0.0000000000000000e+00 1.3615700000000000e+01 -1.5850000000000000e-01
0.0000000000000000e+00 1.7783473999999998e+01 8.0699999999999994e-02
ITEM: ATOMS id type x y z
27 4 6.29983 2.08083 5.99018
3 4 1.36946 2.06302 0.41003
5 4 0.761869 1.71917 5.63285
7 4 0.2361 4.35011 2.19166
9 4 -0.901268 6.38816 0.138441
10 4 -0.354119 4.36526 7.31095
339 2 3.16851 5.07672 1.15857
24 4 3.54171 1.69517 4.36041
297 3 6.57268 0.540577 1.37865
28 4 1.46574 6.28911 4.26195
65 3 1.94263 0.630004 0.744627
66 3 -0.289925 1.55595 4.38678
67 3 0.765479 0.440806 6.61438
69 3 -1.06608 3.61589 2.66817
70 3 1.2885 3.1201 1.69829
71 3 -0.106695 5.30476 0.920696
72 3 0.0655011 3.01222 6.66774
338 1 4.18315 5.41189 0.720138
74 3 -1.04791 5.49792 6.50738
89 3 3.16243 0.721946 3.20246
90 3 2.2815 2.11767 5.14157
91 3 2.43775 1.31378 8.50547
92 3 4.87357 1.72468 5.20207
93 3 6.71798 0.854331 7.15183
94 3 0.863265 5.1623 3.37438
209 2 1.88962 4.60872 8.71337
98 3 2.62589 5.49306 5.43463
73 3 -2.29306 6.41859 4.45358
172 1 1.22434 5.14014 7.91551
178 1 3.63998 3.33936 3.20221
208 2 1.82485 5.15727 6.95693
361 2 -0.52915 1.64374 8.23161
210 2 1.02398 6.2918 8.29878
225 2 2.71001 3.85814 3.61497
226 2 3.50133 2.95527 2.13507
227 2 4.64465 3.8717 3.40756
301 2 5.28555 3.29628 1.9674
99 3 4.30161 5.35363 7.32146
31 4 3.8696 6.30347 6.17509
296 4 6.52989 1.74768 0.293561
96 3 4.39805 3.2102 8.84934
321 2 -2.173 4.51606 16.8517
13 4 -0.54368 4.418 14.0386
14 4 -1.17543 6.51549 11.6874
26 4 3.49752 1.99343 9.44139
68 3 -0.254952 2.03899 17.3333
75 3 -1.39289 3.27926 15.0497
76 3 -2.34338 6.5786 10.6296
77 3 -1.33154 5.64086 13.1259
100 3 0.822253 5.05084 14.8594
330 2 5.71794 1.98692 15.829
173 1 0.188793 3.11757 12.8188
175 1 0.480498 5.69208 11.0246
179 1 4.50566 0.358276 9.82291
180 1 2.73777 2.41059 11.1825
181 1 3.93457 3.63525 14.5551
204 2 0.353859 0.812815 14.767
206 2 -0.775967 3.3491 9.56373
207 2 -1.72141 4.9473 9.38259
211 2 -0.241864 3.09117 11.745
212 2 0.0225083 2.20399 13.4988
213 2 1.24049 3.59428 12.8919
217 2 0.736873 5.56116 9.89861
218 2 0.442636 4.69954 11.5865
171 1 -1.41856 3.99005 8.9026
328 2 4.10201 2.08688 16.7643
230 2 5.59929 0.520992 9.94518
231 2 3.41933 2.19458 11.9961
232 2 1.75959 1.77545 11.2086
233 2 2.52483 3.53275 11.0456
234 2 4.45108 2.95213 15.3329
235 2 3.62277 3.14769 13.5931
236 2 3.09212 4.30133 14.9989
241 2 3.41143 6.16799 12.8835
282 2 3.91208 5.76091 9.68555
349 2 -3.20706 6.12175 14.5545
303 1 5.46379 1.40426 12.7325
305 2 4.64138 1.17858 13.5723
306 2 5.09594 1.02465 11.6094
307 2 5.85233 2.50138 12.6106
312 1 2.30035 3.06599 16.8509
313 2 2.55824 2.16715 16.2047
101 3 2.36233 6.45899 16.493
315 2 1.82956 3.81368 16.2384
320 1 -2.57326 5.53108 17.1965
356 2 4.37707 4.74787 17.6714
322 2 -3.20199 6.02624 16.3537
327 1 5.06644 1.53215 16.6608
314 2 3.18397 3.44826 17.475
329 2 4.88116 0.458445 16.5366
219 2 1.21331 6.42619 11.4995
33 4 1.0484 6.48713 15.5126
302 4 6.6335 0.169661 13.4518
4 4 -5.53334 13.3705 7.55215
8 4 -3.7383 6.98905 3.88647
15 4 -2.21654 8.83563 2.02616
17 4 -3.60103 11.09 0.410628
18 4 -2.8189 8.89577 7.71547
20 4 -4.09213 11.2947 5.95662
114 3 1.70567 9.89769 6.74722
12 4 -1.24441 6.7982 5.60465
39 4 1.18697 11.2196 5.80687
35 4 -1.45336 11.0192 4.17011
37 4 2.20554 8.72495 7.67897
78 3 -3.40014 8.20927 2.80618
79 3 -1.44787 7.52016 1.12545
80 3 -2.72457 9.86762 0.977025
81 3 -3.88002 12.2161 1.53673
82 3 -3.63778 7.85305 8.64613
83 3 -1.92093 8.02872 6.55164
84 3 -6.11412 12.3528 8.68777
85 3 -5.34149 11.1308 5.00338
86 3 -3.76281 10.1365 7.15019
87 3 -4.25347 12.6462 6.70006
95 3 0.213273 7.16426 4.99223
103 3 2.35423 7.23956 3.35633
105 3 -1.36431 9.80431 3.10304
106 3 -0.986658 12.4695 3.56909
107 3 -2.87475 11.3118 4.90382
109 3 3.03408 7.64091 7.00514
111 3 -1.12666 12.1298 8.5298
113 3 -0.295732 10.7314 5.28173
34 4 2.75103 8.49811 2.48769
184 1 0.99278 9.22726 2.48208
110 3 -1.66122 9.51241 8.59052
243 2 0.765425 9.10815 3.59289
244 2 0.288426 8.60452 1.88012
245 2 0.900795 10.3477 2.11947
248 2 0.115593 8.10128 8.0212
310 3 -6.15057 12.5438 2.8862
364 2 -4.52202 8.35398 0.777115
25 4 -0.0507023 13.1619 7.84738
1 4 -4.97335 13.2642 2.13496
23 4 -0.0120274 13.1989 2.45724
108 3 0.837707 12.0341 1.40087
357 2 1.82397 8.99649 0.0383105
228 2 -3.10272 13.2738 8.88111
358 2 -0.0857537 9.13944 0.213671
22 4 -3.69637 10.8404 11.4609
324 2 -6.38832 12.2765 14.427
186 1 0.865288 8.18561 8.97356
38 4 -1.24316 10.884 9.48937
40 4 1.95789 9.17113 13.7718
41 4 -1.83687 11.6948 15.7506
42 4 0.614837 11.3551 11.7621
88 3 -4.71267 10.8394 10.2413
325 2 -4.58556 12.097 15.1566
19 4 -6.21151 11.173 9.76295
112 3 -2.21173 11.0123 10.8294
116 3 1.31664 7.65158 14.3138
117 3 -0.0896018 12.0307 16.4675
118 3 -1.87025 12.7679 14.4943
119 3 -2.97699 11.7953 16.8998
120 3 0.351776 10.8187 10.2412
121 3 0.767636 10.2411 12.9464
122 3 -0.177455 12.875 12.2379
174 1 -0.754464 8.29841 12.0871
176 1 -3.73222 9.12686 12.5248
177 1 -4.07372 12.4075 12.4066
185 1 0.683235 9.58652 17.3953
353 2 -3.30614 13.292 12.558
189 1 -1.91697 9.99503 15.0614
214 2 0.306493 8.21832 11.552
215 2 -0.700462 8.31814 13.253
216 2 -1.40512 9.13707 11.67
220 2 -2.6399 8.82908 12.5064
221 2 -4.35375 8.43919 11.8594
222 2 -4.17552 9.28691 13.5505
223 2 -4.17793 11.6512 13.4273
224 2 -5.10691 12.5366 11.9318
246 2 0.545843 9.3906 16.3084
247 2 0.709232 7.26265 9.71002
249 2 0.675975 9.19619 9.55651
36 4 0.925179 11.4114 17.4312
254 2 2.69862 7.80296 11.9275
256 2 -2.14528 9.33871 15.9626
257 2 -0.71508 9.96873 14.7568
258 2 -2.63215 9.80035 14.0984
348 2 -3.9647 7.65184 13.8987
311 3 -5.30102 10.6713 17.7306
323 1 -5.67282 12.3884 15.3482
229 2 -3.42087 13.2904 10.6959
326 2 -5.82017 13.4244 15.8467
345 2 -3.92578 7.0071 17.506
102 3 -0.219591 6.864 16.4102
2 4 13.5557 2.25011 3.58558
360 2 10.5024 1.10975 2.20331
351 2 11.9787 5.34679 0.348681
44 4 8.66953 2.02688 3.9614
280 2 7.78124 4.07071 8.65089
46 4 11.2454 2.3424 5.70995
48 4 9.87051 4.60795 2.16139
51 4 10.0307 4.62455 7.55069
97 3 6.21555 3.55422 6.78599
300 2 7.31112 3.5162 1.95502
123 3 13.048 1.17195 2.58868
124 3 8.55223 0.78506 3.02959
125 3 7.35057 2.31327 4.87865
126 3 12.4195 2.6808 4.73794
127 3 9.92509 1.9009 4.93756
128 3 11.8107 1.23322 6.75013
129 3 8.93109 3.49745 2.91284
130 3 10.5275 5.75525 3.02133
132 3 9.04016 5.38182 0.676868
133 3 10.8228 3.67215 6.63232
354 2 9.05152 1.84457 0.56551
340 2 5.06342 5.54845 1.52178
138 3 9.26482 5.67261 6.74663
277 2 6.6573 5.89821 2.05578
196 1 11.0209 3.52219 1.27173
197 1 6.38896 5.55442 3.08234
198 1 8.72864 3.52613 8.40925
275 2 12.0453 3.87943 1.69993
274 2 10.8349 2.34522 1.40334
30 4 5.31197 4.32668 7.9098
276 2 7.27146 5.09692 3.70649
299 2 6.25829 4.00895 0.314132
278 2 5.36516 5.0841 3.14246
279 2 8.60585 2.68834 7.63758
45 4 12.5907 0.146198 7.66698
352 2 12.8122 3.50177 8.29481
298 1 6.30094 3.33441 1.27441
359 2 10.7945 0.803434 0.318107
191 1 10.6503 0.329663 1.40968
273 2 10.7622 3.90167 0.211602
131 3 4.92752 6.73815 5.09363
6 4 13.8238 1.93312 16.0118
32 4 5.14997 5.08289 13.9333
47 4 10.6136 2.98632 12.2555
284 2 4.34907 6.70096 11.3429
54 4 9.65331 5.4992 13.9163
135 3 6.40184 5.25677 8.95159
139 3 10.4527 4.30022 13.1634
140 3 6.02084 5.40096 15.2122
347 1 10.9325 6.79928 14.6195
334 1 8.49294 0.486932 9.23466
145 3 8.58705 6.17536 12.94
182 1 6.35266 4.44967 12.383
355 2 8.0101 0.550312 15.5514
193 1 11.5904 2.99233 10.7065
194 1 8.65857 2.45274 11.7679
195 1 10.9824 1.51031 13.4049
183 1 4.27458 6.66724 13.3808
200 1 8.76647 4.5844 15.3655
237 2 5.75441 3.87694 11.6298
170 1 14.2792 0.418303 14.9034
238 2 7.37251 3.94506 12.6533
239 2 6.59881 5.50612 11.8938
263 2 13.2051 1.78362 9.66153
264 2 11.5921 2.08073 10.087
265 2 12.599 3.12578 11.3513
266 2 11.2703 3.9919 10.1046
267 2 8.39632 1.96356 12.7505
268 2 8.60774 1.71161 10.8776
269 2 8.08335 3.38952 11.5081
270 2 10.3182 0.613744 13.1769
271 2 11.1674 1.63862 14.5841
272 2 12.0183 1.44299 12.8742
366 2 13.8773 0.502917 12.1584
285 2 9.23604 4.89705 16.3217
286 2 8.92635 3.43508 15.1553
287 2 7.65208 4.94243 15.2635
304 1 7.99917 1.06525 14.5137
308 2 9.10326 1.27908 14.1151
309 2 7.3084 2.05936 14.4225
316 1 11.9578 1.64752 16.4691
317 2 11.7573 0.61855 15.8392
318 2 11.5428 2.60757 15.9991
319 2 11.749 1.53538 17.5769
331 1 8.28044 2.04427 17.478
332 2 8.48791 1.23933 16.6314
333 2 8.36965 3.13156 17.071
363 2 11.1215 0.20076 9.77902
192 1 13.8073 1.10936 8.9318
281 2 9.34101 3.22601 9.37901
52 4 6.18113 6.72961 9.57712
362 2 14.1493 0.0748411 9.42945
205 2 13.8249 0.203859 13.8413
134 3 10.8786 5.38978 9.11603
199 1 4.39567 6.73752 10.1694
11 4 11.1388 6.78469 9.82378
336 2 7.94086 0.362942 10.1685
337 2 8.50415 1.56669 8.9162
16 4 8.52379 11.3254 3.94751
137 3 7.62522 7.06812 5.05206
43 4 4.8755 13.3379 2.01423
49 4 6.238 7.13819 4.26834
50 4 8.72874 6.85983 0.253011
53 4 8.9287 7.12933 6.00448
57 4 7.19416 9.0611 2.10055
58 4 3.74762 11.0275 4.18004
60 4 7.44262 9.01929 7.96022
61 4 6.16372 11.1134 5.99843
262 2 2.29908 13.0551 1.39466
252 2 3.32426 10.5498 8.38804
343 2 3.25848 12.5049 8.35741
115 3 0.999174 12.4886 6.82518
161 3 5.59283 12.4684 6.85449
136 3 10.2993 7.48913 5.08902
146 3 6.12908 8.2627 3.10761
147 3 8.14959 7.9344 1.29533
148 3 8.29344 9.96591 3.0794
149 3 3.39034 9.74095 3.19279
150 3 4.39527 12.2443 3.13054
151 3 2.23422 11.5329 4.6782
153 3 6.50898 9.86472 0.945184
154 3 5.55245 12.5361 0.890965
155 3 6.40271 7.97295 8.59165
156 3 8.66803 8.23661 7.11985
158 3 7.11602 11.5722 4.69692
159 3 4.77789 10.5902 5.28587
160 3 6.65395 9.98445 6.94522
250 2 4.4848 9.00609 8.71949
104 3 3.0955 8.08587 0.92293
59 4 6.1308 11.194 0.0271992
187 1 3.49218 9.5808 8.86251
253 2 2.70984 9.55476 11.425
365 2 10.6782 7.15284 15.6826
21 4 8.69102 10.926 16.4726
55 4 6.37618 7.14787 15.8185
56 4 8.49143 7.35925 11.9191
157 3 8.01282 9.86577 9.19587
62 4 7.59706 9.29238 14.0826
63 4 3.59831 11.085 15.8062
64 4 6.6652 11.5061 11.9011
142 3 4.99188 7.41671 16.6832
143 3 9.96781 7.19027 10.8512
152 3 7.35099 11.6554 16.9788
295 2 4.94714 13.1706 10.9396
162 3 6.41799 8.25614 14.51
163 3 8.4914 8.72688 12.7896
164 3 8.61375 9.70017 15.395
165 3 2.9178 10.0116 14.7137
166 3 4.87707 10.9366 16.7284
167 3 2.444 11.6582 16.9715
168 3 8.02261 11.6998 11.1607
169 3 6.82531 10.7822 13.4037
190 1 2.40325 12.0994 11.7625
201 1 3.80114 12.6249 14.6743
202 1 5.60339 10.4228 10.6958
203 1 5.59266 13.1728 12.0056
141 3 7.71097 6.9754 16.6468
242 2 4.97055 7.30489 12.6413
251 2 2.96297 9.50935 9.88529
335 2 2.09047 13.5266 9.27658
255 2 4.04498 8.98107 12.694
259 2 2.50462 12.1155 10.5892
260 2 3.00149 11.2298 12.1856
261 2 2.60277 13.1001 12.3093
283 2 3.92695 7.79258 9.71408
288 2 3.38531 12.3968 13.5568
289 2 4.9507 13.111 14.7071
290 2 3.0005 13.2375 15.3819
291 2 5.87998 9.36744 10.9263
292 2 5.79407 10.5958 9.6367
293 2 4.58412 10.7332 11.1084
294 2 4.96387 13.0402 12.976
350 2 6.86038 13.0486 15.6077
240 2 3.9206 7.2468 14.2532
341 1 4.02809 12.9178 9.13761
342 2 4.59175 11.9835 9.77572
344 1 10.2397 7.7875 17.6275
144 3 7.1032 7.00189 11.1607
188 1 2.99558 8.84199 12.2004
346 2 10.0508 8.44337 16.6935
29 4 3.61084 6.94789 17.4237
ITEM: TIMESTEP
200
ITEM: NUMBER OF ATOMS
366
ITEM: BOX BOUNDS xy xz yz pp pp pp
-7.6516000000000002e+00 1.5037200000000000e+01 -7.4931000000000001e+00
0.0000000000000000e+00 1.3615700000000000e+01 -1.5850000000000000e-01
0.0000000000000000e+00 1.7783473999999998e+01 8.0699999999999994e-02
ITEM: ATOMS id type x y z
27 4 6.22453 2.05307 5.9019
3 4 1.19127 1.9959 0.478815
5 4 0.7211 1.76255 5.72337
7 4 0.189117 4.28206 2.25107
296 4 6.4739 1.77021 0.304976
10 4 -0.388936 4.42099 7.42842
339 2 3.16049 5.40857 1.35167
24 4 3.50479 1.80858 4.3112
297 3 6.60223 0.494611 1.16981
28 4 1.29422 6.26115 4.33741
65 3 2.03194 0.730012 0.972257
66 3 -0.319881 1.68756 4.49192
67 3 0.831029 0.324575 6.50888
69 3 -1.11221 3.43713 2.69157
70 3 1.28808 3.23997 1.70368
71 3 -0.11787 5.30266 0.849157
72 3 0.0962552 3.09035 6.67164
338 1 4.17231 5.52641 0.798773
74 3 -1.02385 5.53752 6.54749
89 3 3.47558 0.570389 3.30203
90 3 2.19092 2.10707 5.14194
91 3 2.39222 1.25568 8.48738
92 3 4.78868 1.77581 5.19613
93 3 6.72562 0.840152 6.97646
94 3 0.722333 5.20864 3.39788
209 2 1.84032 4.34194 8.65543
98 3 2.44399 5.57079 5.33251
73 3 -2.40139 6.54706 4.30034
172 1 1.32976 5.05033 7.99457
178 1 3.73029 3.46672 3.21945
208 2 1.79882 5.18054 6.88784
361 2 -0.606073 1.81809 8.13634
210 2 1.1738 6.1226 8.40473
225 2 2.7717 3.96103 3.64898
226 2 3.67271 3.1577 2.14325
227 2 4.66777 4.03185 3.56782
301 2 5.47774 3.37869 2.04345
99 3 4.40078 5.26358 7.01955
31 4 3.76834 6.33537 6.08694
96 3 4.3161 3.13776 8.72635
356 2 4.41629 4.6843 0.0656876
351 2 -3.07884 5.73955 0.390779
9 4 -0.751369 6.44942 0.0211194
321 2 -2.10035 4.62737 17.2865
13 4 -0.294338 4.41264 14.22
14 4 -1.14933 6.58304 11.8508
26 4 3.5281 1.92184 9.32816
68 3 -0.404692 1.96421 17.3297
75 3 -1.18391 3.39803 15.1494
76 3 -2.46783 6.66989 10.8022
77 3 -1.27983 5.61714 13.1628
100 3 0.920005 5.26581 14.9316
330 2 5.52163 1.61447 16.0033
173 1 0.456732 3.26882 12.9118
175 1 0.499953 5.77616 11.0575
179 1 4.65946 0.339763 9.68946
180 1 2.59919 2.43454 10.9566
181 1 3.93456 3.45208 14.2998
204 2 0.230417 0.78304 14.7009
206 2 -0.898782 3.61121 9.74004
207 2 -1.69041 5.29554 9.28484
211 2 0.123522 3.31134 11.8496
212 2 0.113896 2.26302 13.3177
213 2 1.57278 3.4516 13.108
217 2 0.698609 5.43689 9.87355
218 2 0.512352 4.82627 11.7572
302 4 6.66692 0.134454 13.3968
328 2 3.81834 2.07764 16.9183
230 2 5.69963 0.724581 9.7573
231 2 3.34839 1.93209 11.6772
232 2 1.64306 1.88223 10.8808
233 2 2.49186 3.54024 11.0898
234 2 4.20925 2.89463 15.2001
235 2 3.78067 2.84575 13.417
236 2 3.03835 4.17069 14.5125
241 2 3.11217 6.08572 12.6735
282 2 3.89494 5.90667 9.52743
349 2 -2.95467 6.25739 14.7038
303 1 5.55323 1.43385 12.5956
305 2 4.65253 1.24461 13.2993
306 2 5.20074 0.986128 11.4614
307 2 5.88569 2.58211 12.5407
312 1 1.97559 2.90292 16.7829
313 2 2.25619 1.95811 16.2083
101 3 2.50695 6.63363 16.3603
315 2 1.41565 3.71802 16.1629
320 1 -2.56919 5.69793 17.2886
171 1 -1.46393 4.20944 8.9872
322 2 -3.11796 6.06608 16.3109
327 1 4.80973 1.51305 16.9995
314 2 2.82204 3.34518 17.4291
329 2 4.68496 0.427728 17.4287
219 2 1.28789 6.47918 11.3506
33 4 1.0901 6.78378 15.5893
240 2 3.53004 6.77808 14.3259
4 4 -5.50841 13.2648 7.53116
8 4 -3.8506 7.03354 3.8015
15 4 -2.30082 8.95221 2.02309
17 4 -3.69982 11.0768 0.34806
18 4 -2.71966 8.82155 7.75228
20 4 -4.05961 11.0663 5.99446
114 3 1.72205 9.84586 6.86763
358 2 -0.0892974 9.1016 0.287959
39 4 1.23616 11.0754 5.94234
35 4 -1.33533 10.9475 4.18638
37 4 2.35031 8.7341 7.70881
78 3 -3.5509 8.35448 2.80942
79 3 -1.34101 7.75744 0.997354
80 3 -2.73921 9.94839 0.844557
81 3 -3.96884 12.1309 1.48385
82 3 -3.6499 7.83123 8.68424
83 3 -2.04575 7.96277 6.62093
84 3 -6.16916 12.3195 8.6038
85 3 -5.37011 10.7671 5.15747
86 3 -3.64113 9.9215 7.09202
87 3 -4.19763 12.5727 6.82577
95 3 0.180921 7.23367 5.15063
103 3 2.42945 7.19038 3.29118
105 3 -1.18535 9.63707 3.00056
106 3 -0.98008 12.2625 3.44941
107 3 -2.75725 11.0732 4.96112
109 3 3.08025 7.548 6.96634
111 3 -1.13228 12.0604 8.60171
113 3 -0.178124 10.6622 5.2806
12 4 -1.39372 6.8602 5.56199
184 1 1.03225 9.26219 2.6343
110 3 -1.57904 9.44924 8.68356
243 2 0.971763 9.17786 3.77459
244 2 0.486759 8.40468 2.06966
245 2 0.923047 10.335 2.22712
248 2 0.243675 7.97767 7.9638
310 3 -6.1124 12.4356 2.98176
364 2 -4.61297 8.51986 0.644913
25 4 -0.07134 13.1769 7.75302
1 4 -4.89882 13.239 2.20978
23 4 -0.0424849 13.0948 2.33454
228 2 -2.94737 13.198 8.79173
357 2 1.79225 8.95353 0.102123
186 1 0.908187 8.09964 8.87132
22 4 -3.67731 10.9182 11.3619
324 2 -6.03314 12.3973 14.4075
102 3 -0.162466 7.0803 16.5354
38 4 -1.13586 10.8343 9.58859
40 4 1.87254 9.30895 13.759
41 4 -1.64697 11.7599 15.77
42 4 0.697174 11.4288 11.8146
88 3 -4.86862 10.7962 10.3783
325 2 -4.41814 12.2207 15.3061
345 2 -4.0351 7.13566 17.487
112 3 -2.2258 10.9194 10.7883
116 3 1.32017 7.9241 14.3367
117 3 -0.261233 11.8616 16.6345
118 3 -1.63603 12.9162 14.4635
119 3 -2.85257 11.8623 16.7784
120 3 0.453459 10.6966 10.4235
121 3 0.747047 10.3708 13.1672
122 3 -0.121093 12.8009 12.2192
174 1 -0.698453 8.31597 12.3487
176 1 -3.74538 9.32304 12.5153
177 1 -4.03002 12.5194 12.3907
185 1 0.646066 9.58638 17.5175
353 2 -3.26075 13.4134 12.6125
189 1 -1.78296 10.0075 15.0312
214 2 0.40853 8.21373 11.8243
215 2 -0.678351 8.22612 13.4774
216 2 -1.27096 9.20333 11.8954
220 2 -2.55 8.94217 12.5772
221 2 -4.32221 8.51974 11.9235
222 2 -4.15182 9.37895 13.5361
223 2 -4.14386 11.9703 13.3767
224 2 -4.9884 12.9505 12.0158
246 2 0.465956 9.38617 16.354
247 2 0.751977 7.24494 9.66012
249 2 0.659905 9.08016 9.45926
36 4 0.865706 11.4237 17.5672
254 2 2.56889 7.85726 11.9475
256 2 -2.10088 9.3108 15.8759
257 2 -0.71275 9.89909 14.6579
258 2 -2.53125 9.90206 14.0548
348 2 -3.84442 7.78376 13.8167
311 3 -5.27342 10.6042 17.5027
323 1 -5.52324 12.436 15.3925
229 2 -3.20778 13.3412 10.7177
326 2 -5.72962 13.3833 16.0414
2 4 13.4586 2.17228 3.62878
360 2 10.4946 1.20714 2.08675
192 1 13.8684 1.04814 8.75363
44 4 8.70045 1.95589 3.94202
280 2 7.73599 4.1771 8.62236
46 4 11.1863 2.42001 5.60402
48 4 9.72509 4.67052 1.98806
51 4 10.0488 4.65321 7.47174
97 3 6.12525 3.34636 6.90986
300 2 7.45186 3.41295 1.86241
123 3 12.8397 1.01336 2.67068
124 3 8.38926 0.664277 3.04845
125 3 7.38979 2.31116 4.80648
126 3 12.2813 2.77286 4.53102
127 3 9.96391 1.88647 4.83688
128 3 11.8221 1.09936 6.74838
129 3 8.87911 3.45036 2.88371
130 3 10.4997 5.64689 2.92051
132 3 8.90006 5.46367 0.958493
133 3 10.8927 3.63716 6.65681
354 2 9.02946 1.88719 0.390996
340 2 5.09964 5.64258 1.58333
138 3 9.19039 5.75626 6.69424
277 2 6.88183 5.85953 2.02055
196 1 10.9746 3.64147 1.10971
197 1 6.55006 5.53866 3.02808
198 1 8.78845 3.58837 8.34208
275 2 11.9637 4.0059 1.59818
274 2 10.8754 2.38177 1.15828
30 4 5.16799 4.18554 7.87528
276 2 7.32495 5.00667 3.63478
299 2 6.38809 4.31963 0.582937
278 2 5.57004 4.95674 2.99993
279 2 8.57655 2.69762 7.6572
45 4 12.6022 0.0471465 7.67893
352 2 12.7854 3.61742 8.40223
298 1 6.42429 3.42606 1.29889
359 2 10.9488 0.715803 0.322158
191 1 10.6882 0.387028 1.35518
273 2 10.8513 3.95801 0.0881849
6 4 13.7518 1.92538 15.9608
32 4 5.12374 4.95424 13.8543
47 4 10.7434 2.98127 12.226
284 2 4.42109 6.65836 11.3602
54 4 9.8618 5.43143 14.125
135 3 6.31614 5.06604 9.08746
139 3 10.58 4.29511 13.1544
140 3 6.04552 5.3403 15.0664
134 3 10.9452 5.38612 8.97108
334 1 8.45552 0.498568 9.07965
145 3 8.70163 6.28217 13.3073
182 1 6.36704 4.55793 12.3646
355 2 7.96043 0.673604 15.3853
193 1 11.807 3.18424 10.7452