ITEM: TIMESTEP
0
ITEM: NUMBER OF ATOMS
366
ITEM: BOX BOUNDS xy xz yz pp pp pp
-7.5162500000000003e+00 1.5037200000000000e+01 -7.3577500000000002e+00
0.0000000000000000e+00 1.3615700000000000e+01 -1.5850000000000000e-01
0.0000000000000000e+00 1.7607399999999998e+01 8.0699999999999994e-02
ITEM: ATOMS id type x y z
31 4 3.97598 6.24596 6.26247
3 4 1.26522 2.01878 0.554102
5 4 0.66927 1.69693 5.42718
7 4 0.256436 4.46193 2.15197
73 3 -2.21743 6.51155 4.46729
10 4 -0.367397 4.13718 7.42215
339 2 3.17403 4.90605 0.650954
24 4 3.5367 1.80551 4.30848
351 2 -3.1094 5.80117 0.439238
28 4 1.60775 6.34426 4.30331
65 3 1.64209 0.796131 1.4333
66 3 -0.274082 1.62104 4.25069
67 3 0.880202 0.256894 6.19468
69 3 -1.14648 3.6382 2.55606
70 3 1.19869 3.29515 1.51771
71 3 0.011034 5.67738 1.00881
72 3 0.00852085 2.90104 6.51326
93 3 6.55365 0.777188 6.75269
74 3 -1.06539 5.46682 6.69049
89 3 3.36776 0.397562 3.45214
90 3 2.23256 2.28904 5.11291
91 3 2.22002 1.30672 8.24517
92 3 4.80571 2.03586 5.21981
338 1 4.21609 5.21228 0.387293
94 3 0.895758 5.16383 3.44
301 2 5.62294 3.24306 1.74736
98 3 2.68507 5.67223 5.41139
227 2 5.04794 3.2813 3.37926
172 1 1.21913 4.85465 8.20215
178 1 3.97217 3.11345 2.88235
208 2 2.10127 4.55396 7.54873
361 2 -0.567912 1.39672 8.12558
210 2 1.23378 6.08716 8.42322
225 2 3.23138 3.9601 3.00408
226 2 4.06149 2.62209 1.87204
297 3 6.66912 0.603635 1.17829
27 4 6.26196 2.22346 5.83218
99 3 4.44507 5.15918 7.41432
9 4 -0.791199 6.72296 0.0887013
96 3 4.38338 3.02606 8.76836
314 2 3.20067 3.45466 17.3705
13 4 -0.100226 4.65503 14.0572
307 2 5.60266 2.39464 12.5509
26 4 3.30336 1.87477 9.25997
68 3 -0.338343 2.03806 17.1785
75 3 -0.984143 3.81492 15.2203
349 2 -3.009 5.91394 14.4508
77 3 -1.05802 5.67627 13.1216
100 3 1.11713 5.47458 14.7018
179 1 4.43263 0.318065 9.55362
173 1 0.911918 3.5922 12.9141
175 1 0.0771766 5.764 10.6652
313 2 3.20147 1.41817 17.3469
180 1 2.37918 2.3628 10.8894
181 1 3.87558 3.44652 14.1918
204 2 0.149654 1.41256 14.0047
206 2 -1.11869 3.19182 9.76958
217 2 0.500126 6.58835 10.0419
211 2 1.0319 3.95747 11.8857
212 2 0.279215 2.65156 12.946
213 2 1.95956 3.4504 13.501
14 4 -1.24706 6.60033 11.7897
218 2 -0.636207 4.96626 9.99318
321 2 -2.06834 4.73595 17.0404
6 4 -1.2836 2.3373 15.9337
230 2 5.5979 0.645062 9.75592
231 2 1.26335 2.16124 10.6879
232 2 2.62651 3.44763 10.9392
233 2 2.89875 1.73849 11.7097
234 2 4.40521 2.80123 14.8643
235 2 3.58628 2.9345 13.2446
236 2 3.08351 4.03428 14.7256
241 2 3.12061 6.2218 12.4391
282 2 3.82509 5.92032 9.52202
356 2 4.44678 4.73874 17.1182
303 1 5.12444 1.24575 12.5648
305 2 4.1654 1.22026 13.1848
306 2 4.87481 0.890194 11.4639
329 2 4.56733 1.97407 16.49
312 1 2.6514 2.424 17.0613
219 2 0.785184 5.28305 11.4556
330 2 5.73054 0.6595 15.9089
315 2 2.33917 2.41216 15.9661
320 1 -2.45288 5.78353 17.1431
209 2 1.12665 4.21865 9.18285
322 2 -2.99169 6.11433 16.1164
327 1 5.61208 1.75659 16.2406
76 3 -2.64188 6.6402 11.0036
171 1 -1.59809 3.64506 8.87768
183 1 3.85134 6.54606 13.1439
207 2 -2.40221 4.40636 9.08599
328 2 6.08944 2.41495 15.4119
4 4 -5.48912 13.2532 7.33664
8 4 -3.60303 6.96634 3.79773
15 4 -2.17048 9.03001 1.97517
17 4 -3.7149 11.1428 0.259767
18 4 -2.65309 8.76946 7.76422
20 4 -3.76991 11.1704 5.992
310 3 -6.01997 12.2674 3.06415
1 4 -4.92353 13.2021 2.3294
25 4 -0.0774529 13.147 7.61237
35 4 -1.206 11.1404 4.12172
23 4 0.0413805 13.3683 2.43956
78 3 -3.33473 8.2749 2.8298
79 3 -1.39417 7.93007 0.995481
80 3 -2.70871 10.0502 0.940703
81 3 -4.00585 12.3173 1.32585
82 3 -3.38473 7.65412 8.67168
83 3 -1.82811 8.00706 6.53122
84 3 -6.07151 12.1045 8.33226
85 3 -4.95712 10.9181 5.0148
86 3 -3.75258 9.89725 7.1753
87 3 -4.1844 12.5773 6.78489
95 3 0.309116 7.2248 5.03899
103 3 2.4376 7.26021 3.33577
105 3 -1.15431 9.97592 2.9053
106 3 -0.95057 12.7571 3.48718
107 3 -2.48956 11.0853 5.03252
364 2 -4.49629 8.52801 0.591201
111 3 -1.01239 12.0468 8.37961
113 3 0.00348695 10.8123 5.05685
37 4 2.59974 8.81448 7.47573
184 1 1.18258 9.25686 2.51337
248 2 0.391983 7.63259 8.21368
243 2 0.929374 9.14671 3.6517
244 2 0.556889 8.59817 1.86563
245 2 1.0821 10.3676 2.17542
108 3 0.819193 12.0132 1.50101
186 1 1.21387 8.05834 8.79312
228 2 -3.00125 13.2388 8.62884
358 2 0.41368 9.36694 0.346643
110 3 -1.57396 9.43889 8.68593
12 4 -1.15398 6.82826 5.60536
357 2 2.22105 9.57968 0.11574
22 4 -3.53959 10.7093 11.3257
33 4 1.13302 6.9402 15.5123
224 2 -5.21086 12.3672 12.2599
38 4 -0.976532 10.7516 9.36525
40 4 2.00893 9.49826 13.8397
41 4 -1.84721 11.5438 15.6335
42 4 0.8708 11.4779 11.611
88 3 -4.68456 10.7121 10.2056
348 2 -3.82604 7.44861 13.671
102 3 -0.209903 7.32702 16.3659
112 3 -2.06887 10.9376 10.8384
116 3 1.36852 8.1766 14.3902
117 3 -0.521619 11.8808 16.4351
118 3 -1.79756 12.5697 14.2513
119 3 -3.09865 11.8733 16.4874
120 3 0.41219 10.5274 10.1153
121 3 0.954247 10.4468 12.9015
122 3 0.103368 13.0074 11.9622
174 1 -0.727689 8.38364 12.0554
176 1 -3.60169 9.16097 12.5027
177 1 -4.16065 12.2022 12.4049
185 1 1.08182 9.95979 17.3639
353 2 -3.47481 13.1496 12.4605
189 1 -1.72975 9.70093 15.0751
214 2 0.384794 8.1392 11.611
215 2 -0.680117 8.70812 13.1711
216 2 -1.28827 9.03665 11.3412
220 2 -2.9512 9.38223 13.4901
221 2 -3.11897 8.34587 11.9133
240 2 3.2964 7.03174 14.0061
223 2 -3.90563 11.4512 13.4159
326 2 -5.03472 13.0102 15.9212
246 2 0.982907 9.67845 16.2303
247 2 1.80815 7.35025 9.40925
249 2 0.852987 9.00562 9.34537
36 4 0.808567 11.8289 17.4738
325 2 -5.21021 12.3977 14.1374
256 2 -1.0364 9.26835 15.8439
257 2 -1.33701 9.6087 14.0119
258 2 -2.83753 9.34965 15.2858
229 2 -3.41611 13.2768 10.5133
311 3 -5.22798 10.624 17.2796
323 1 -5.76958 12.6829 15.1299
324 2 -6.66147 13.4446 14.9487
222 2 -4.70263 8.84237 12.6939
101 3 2.45731 6.94735 16.4877
254 2 2.89 8.1486 11.9337
302 4 -0.920011 13.5442 13.1885
345 2 -3.94873 7.16613 17.3219
2 4 13.402 2.40707 3.45865
191 1 10.7617 0.405695 1.34389
277 2 6.44954 5.85054 1.86464
44 4 8.6832 2.24255 3.98168
45 4 12.5838 0.155069 7.68373
46 4 11.2814 2.42887 5.68645
48 4 9.82096 4.71944 1.95448
51 4 10.1519 4.64787 7.57269
97 3 6.364 3.37415 6.92628
360 2 10.4409 1.32391 2.03742
123 3 12.9066 1.20719 2.5337
124 3 8.49231 0.84323 3.11026
125 3 7.34774 2.54938 4.76026
126 3 12.278 2.8346 4.46861
127 3 9.86048 2.00325 5.06177
128 3 11.9016 1.28293 6.67877
129 3 8.9676 3.53075 2.86632
130 3 10.8147 5.66009 2.76528
132 3 8.86576 5.45885 0.810555
133 3 11.0908 3.77354 6.65915
137 3 7.77861 6.78235 4.77522
131 3 5.15302 6.44166 5.09488
138 3 9.31397 5.76853 6.78404
340 2 4.9564 5.27416 1.28813
196 1 10.9769 3.59528 0.912326
197 1 6.21514 5.39186 2.8926
198 1 8.89322 3.48793 8.32238
299 2 6.5347 3.96765 0.29203
274 2 10.9503 2.3884 1.10924
275 2 11.9989 4.04483 1.06365
276 2 7.08814 4.75767 3.27479
352 2 12.9305 2.80258 8.16612
278 2 5.30967 4.66998 2.80527
279 2 8.67623 2.68587 7.53848
359 2 10.8953 0.724673 0.251903
300 2 7.57106 3.42243 1.837
298 1 6.6264 3.29564 1.11895
280 2 7.888 4.04557 8.56828
296 4 6.93122 1.75121 0.167456
30 4 5.38317 4.11077 8.10743
354 2 9.51729 2.41772 0.0999307
284 2 4.17342 6.68435 11.1504
32 4 4.97395 5.00637 13.8027
47 4 10.4982 2.58178 12.0596
52 4 6.29607 6.49583 9.61648
54 4 9.98659 5.11541 13.719
135 3 6.44906 4.78935 9.26468
139 3 10.7884 3.80406 13.1791
140 3 5.92713 5.41473 15.0159
331 1 8.54384 1.81456 17.1243
337 2 7.20018 1.53831 9.01769
145 3 9.07681 5.76255 12.6275
182 1 6.16603 4.31985 12.4098
11 4 11.1155 6.70842 9.79354
193 1 11.4899 2.60395 10.4211
194 1 8.66197 2.67666 11.6241
195 1 10.6149 0.959322 13.0442
347 1 11.0983 6.58807 14.4014
200 1 8.92688 4.38424 15.1367
335 2 8.9638 0.889476 9.09872
363 2 10.8738 0.35436 9.58394
238 2 7.0207 3.67029 12.9234
239 2 6.56957 5.274 11.8753
263 2 13.4037 1.1919 9.79118
264 2 11.3663 1.70152 9.72038
265 2 12.4359 2.67245 11.0485
266 2 11.2984 3.58447 9.91488
267 2 8.15489 2.06047 12.659
268 2 8.36369 2.16965 10.5866
269 2 8.51157 3.81173 11.6169
270 2 11.6615 0.364714 12.6148
271 2 9.72407 0.276669 12.8132
272 2 10.67 1.33848 14.1684
281 2 9.48386 3.15392 9.28011
285 2 9.51318 4.96749 15.9446
286 2 9.05352 3.21564 15.2725
287 2 7.85899 4.59683 15.0616
304 1 7.64058 1.07725 14.2943
308 2 8.78539 1.05906 13.8264
309 2 7.24805 2.11309 14.5694
316 1 11.8816 2.20035 16.1849
317 2 11.0635 1.91542 15.3804
318 2 11.814 3.26291 16.4414
319 2 11.8532 1.5683 17.1435
134 3 10.9807 5.20872 9.17973
332 2 8.98533 0.74726 17.0297
333 2 8.44064 2.1788 16.0589
334 1 7.88481 0.644423 9.16097
192 1 13.9441 0.723223 8.87952
366 2 14.3446 0.26459 12.0649
237 2 5.57371 3.6691 11.7104
205 2 13.3074 1.48385 13.8302
336 2 7.57511 0.182872 10.1781
170 1 14.2051 1.16751 14.5082
290 2 11.9173 0.328503 15.3698
273 2 10.474 3.92221 17.4887
355 2 7.58204 0.374271 15.195
144 3 7.05575 6.81549 11.0053
350 2 14.1266 0.0913732 14.8338
199 1 4.43506 6.72998 10.0154
16 4 8.72005 11.0335 4.08862
262 2 2.7233 13.1076 1.51615
50 4 8.63043 7.02878 0.107672
49 4 6.31577 6.86605 4.10473
43 4 5.13118 13.3191 1.99204
53 4 9.08456 7.06878 5.75929
57 4 7.33512 9.10969 2.1575
58 4 3.9314 11.0243 4.05472
60 4 7.60832 8.74391 7.87187
61 4 6.23402 11.0071 6.06921
109 3 3.4549 7.62374 6.89633
343 2 3.17201 12.5451 8.18849
104 3 3.48001 8.05688 0.921062
115 3 1.16813 12.4423 6.92685
252 2 3.79555 10.7666 8.60208
136 3 10.3646 7.42704 4.89191
146 3 6.28566 8.17334 3.05867
147 3 8.0627 8.12445 1.08989
148 3 8.43342 9.75338 3.18964
149 3 3.60777 9.81059 3.07463
150 3 4.7763 12.2823 3.11318
151 3 2.54338 11.6693 4.63798
153 3 6.65866 10.2393 1.22611
154 3 6.05529 12.7285 0.762212
155 3 6.67012 7.49951 8.39284
156 3 8.64514 8.27397 6.81219
158 3 7.415 11.2564 5.07302
159 3 4.86147 10.5792 5.33818
160 3 6.56729 9.91127 7.17474
161 3 5.83226 12.3683 6.86077
187 1 3.72773 9.64272 8.77522
250 2 4.7194 9.18732 8.56615
34 4 2.92181 8.51343 2.49818
59 4 6.28289 11.2873 0.0887685
114 3 2.03661 10.0206 6.61825
39 4 1.39372 11.2047 5.80445
362 2 7.141 13.3386 9.15095
21 4 8.62527 11.0475 15.8829
29 4 3.73966 7.08571 17.305
55 4 6.27615 7.13031 15.5094
56 4 8.62303 7.04924 11.6368
341 1 3.92971 12.9597 8.94652
62 4 7.70083 9.15683 13.6635
63 4 3.59582 11.447 16.015
64 4 6.79825 11.4237 11.5564
142 3 5.03829 7.55206 16.4406
143 3 9.67563 7.09533 10.3996
152 3 7.23593 11.406 16.499
365 2 10.7123 7.02435 15.5277
162 3 6.55795 8.07077 14.2619
163 3 8.63864 8.37882 12.523
164 3 8.72826 9.87521 14.7751
165 3 2.88627 10.4433 14.9887
166 3 4.48636 10.7982 17.127
167 3 2.17495 12.4376 16.8872
168 3 8.09002 11.712 10.7751
169 3 6.87023 10.4298 12.9035
190 1 2.63698 12.0422 11.2472
201 1 4.58496 12.6585 15.0093
202 1 5.4062 10.5999 10.3579
203 1 6.09803 13.0817 12.1898
157 3 8.2203 9.60988 9.14529
242 2 4.60615 7.15281 12.6405
251 2 3.3373 9.47073 9.74373
344 1 10.1903 7.86434 17.3224
255 2 4.27754 9.07505 12.9774
259 2 2.73259 11.4436 10.2499
260 2 3.31129 11.6266 11.9828
346 2 10.0459 8.34589 16.3134
283 2 4.10325 7.83996 9.58198
288 2 4.25977 12.5906 13.9677
289 2 5.62806 12.2366 15.1823
253 2 3.21492 9.95771 11.5961
291 2 5.52337 9.48684 10.4794
292 2 5.72277 10.8636 9.28946
293 2 4.3236 10.9447 10.6085
294 2 5.67638 12.8225 13.2825
141 3 7.75748 7.10852 16.3124
188 1 3.24567 9.10527 12.4259
19 4 8.97038 10.9988 9.49163
342 2 4.50841 12.1844 9.59205
261 2 2.91655 13.1936 11.1357
295 2 5.27007 13.3215 11.3735
ITEM: TIMESTEP
100
ITEM: NUMBER OF ATOMS
366
ITEM: BOX BOUNDS xy xz yz pp pp pp
-7.5162500000000003e+00 1.5037200000000000e+01 -7.3577500000000002e+00
0.0000000000000000e+00 1.3615700000000000e+01 -1.5850000000000000e-01
0.0000000000000000e+00 1.7607399999999998e+01 8.0699999999999994e-02
ITEM: ATOMS id type x y z
31 4 3.96539 6.24205 6.10462
3 4 1.24259 2.11842 0.6322
5 4 0.627704 1.88711 5.49327
7 4 0.191396 4.55421 2.19108
73 3 -2.23835 6.37996 4.3637
10 4 -0.123944 4.30685 7.25008
339 2 3.24947 4.87209 1.11241
24 4 3.5537 1.82273 4.18712
351 2 -2.90421 5.9031 0.457298
28 4 1.52477 6.16092 4.41936
65 3 1.63816 0.737358 1.32401
66 3 -0.279683 2.02067 4.27644
67 3 0.776644 0.366587 6.19747
69 3 -1.3175 3.95821 2.36624
70 3 1.31973 3.48355 1.41181
71 3 0.172773 5.75363 1.08088
72 3 0.215028 3.00166 6.52715
93 3 6.75232 0.883071 6.60696
74 3 -0.810915 5.61694 6.62301
89 3 3.32712 0.355352 3.43601
90 3 2.22362 2.22533 4.77687
91 3 2.21764 0.969654 8.23801
92 3 4.74977 2.0173 5.19877
338 1 4.18263 5.25781 0.597425
94 3 0.916405 4.93958 3.55054
301 2 5.57556 3.33207 1.67527
98 3 2.49619 5.50153 5.53756
227 2 4.89595 3.70879 3.09901
172 1 1.53395 4.90975 8.11463
178 1 3.92932 3.07894 2.78389
208 2 2.40415 4.597 7.49017
361 2 -0.359061 1.13484 8.08925
210 2 1.51868 6.0939 8.30349
225 2 2.91444 3.69714 2.935
226 2 3.97769 2.59752 1.76802
297 3 6.71422 0.820418 1.25823
99 3 4.52806 5.24639 7.09268
9 4 -0.658037 6.71386 0.115628
171 1 -1.46376 3.66399 8.62026
96 3 4.40651 2.96856 8.61028
12 4 -1.22816 6.78028 5.59951
314 2 3.12888 3.47199 17.4932
13 4 -0.128583 4.66724 14.0673
307 2 5.52281 2.42818 12.5611
26 4 3.34099 1.63575 9.22767
68 3 -0.229633 2.08301 17.1067
75 3 -0.910207 3.79915 15.1162
349 2 -3.02757 5.66521 14.4678
77 3 -1.17123 5.59173 13.0086
100 3 1.13658 5.51632 14.6829
179 1 4.35014 0.0739234 9.73193
173 1 0.760329 3.48172 12.8759
175 1 0.171169 5.6903 10.5718
313 2 3.22596 1.5082 17.5378
180 1 2.30125 2.23467 10.7447
181 1 3.68483 3.44049 14.3145
204 2 0.444924 1.25878 14.1687
206 2 -0.851867 3.26866 9.49296
217 2 0.567566 6.57018 9.8778
211 2 0.781547 4.00384 11.8982
212 2 0.362953 2.47915 12.7692
213 2 1.94614 3.50094 13.371
14 4 -1.17795 6.54068 11.76
218 2 -0.396842 4.92666 9.84728
321 2 -1.96063 4.69883 17.257
6 4 -1.14202 2.36504 15.8305
230 2 5.37269 0.423767 9.84207
231 2 1.17343 1.83623 10.6482
232 2 2.42982 3.37017 10.8422
233 2 2.92185 1.56292 11.5095
234 2 4.29796 2.75874 15.09
235 2 3.48538 2.87267 13.3558
236 2 2.74172 3.97259 14.7769
241 2 3.21301 6.14156 12.5507
282 2 3.96822 6.11369 9.46876
356 2 4.33455 4.77468 17.2453
303 1 5.16594 1.26491 12.6556
305 2 4.4083 1.06581 13.5467
306 2 4.81296 0.845004 11.6022
329 2 4.51656 2.1179 16.5692
312 1 2.66443 2.40467 17.2019
219 2 0.999326 5.19426 11.0583
330 2 5.50494 0.612164 16.0813
315 2 2.35119 2.37559 16.0613
320 1 -2.34359 5.77112 17.2279
209 2 1.41702 4.28774 9.04488
322 2 -2.80735 6.03935 16.1526
327 1 5.60174 1.68661 16.2547
76 3 -2.46525 6.73468 10.8602
328 2 6.1054 2.30947 15.45
302 4 6.49473 0.153151 13.3544
170 1 -0.655955 1.21069 14.373
207 2 -2.2994 4.3785 8.9171
4 4 -5.51258 13.1957 7.29902
8 4 -3.65483 6.90529 3.73185
15 4 -2.26985 9.09435 1.96136
17 4 -3.84546 11.1657 0.199668
18 4 -2.54821 8.77705 7.58588
20 4 -3.8129 11.1829 5.97789
310 3 -6.12897 12.347 3.19022
1 4 -4.96547 13.123 2.36745
25 4 -0.112407 13.2637 7.67746
35 4 -1.21096 11.2205 4.2004
23 4 0.114889 13.3258 2.37133
78 3 -3.29989 8.19397 2.81233
79 3 -1.33045 8.09467 1.12942
80 3 -3.08034 9.86891 0.84327
81 3 -4.03067 12.1898 1.40453
82 3 -3.51966 7.69192 8.46518
83 3 -1.80286 8.04503 6.40601
84 3 -6.14993 12.0749 8.34559
85 3 -5.11975 10.735 5.0907
86 3 -3.45755 9.97672 7.08455
87 3 -4.14147 12.6057 6.76257
95 3 0.236139 7.13088 5.04489
103 3 2.4599 7.28401 3.51701
105 3 -1.44435 10.126 3.07557
106 3 -0.905928 12.6403 3.31342
107 3 -2.5388 11.2624 5.04626
364 2 -4.50678 8.46836 0.492013
111 3 -1.10814 12.1981 8.42252
113 3 0.0998566 10.8909 5.03329
37 4 2.64632 8.7862 7.50938
184 1 1.14814 9.19074 2.54602
248 2 0.491738 7.57557 8.1356
243 2 0.827934 9.14651 3.63141
244 2 0.443268 8.41613 1.96374
245 2 0.99222 10.2776 2.10704
108 3 0.892328 11.9407 1.44998
186 1 1.30843 8.04304 8.71753
114 3 1.96281 9.82298 6.55174
358 2 0.381342 9.31394 0.324876
110 3 -1.36674 9.43762 8.52333
357 2 2.29173 9.38604 0.157126
34 4 2.84886 8.46363 2.61762
22 4 -3.52993 10.6362 11.3005
33 4 1.29033 6.91021 15.3865
224 2 -5.18353 12.3684 12.2657
38 4 -1.09914 10.7863 9.52221
40 4 2.07997 9.56449 13.7635
41 4 -1.83264 11.5195 15.6392
42 4 0.815662 11.5244 11.6946
88 3 -4.62707 10.5448 10.0551
348 2 -3.79205 7.2898 13.6822
102 3 -0.059823 7.30529 16.4391
112 3 -2.11712 10.9399 10.7112
116 3 1.50474 8.12939 14.301
117 3 -0.541754 11.7078 16.5866
118 3 -1.56058 12.3464 14.2914
119 3 -3.17734 11.8444 16.4292
120 3 0.485017 10.5953 10.1069
121 3 0.860826 10.644 13.004
122 3 -0.00948524 12.9178 11.9011
174 1 -0.636107 8.27597 12.2672
176 1 -3.55372 8.99841 12.4357
177 1 -4.06865 12.1273 12.5089
185 1 1.14667 9.76967 17.3182
353 2 -3.35389 13.0901 12.629
189 1 -1.94231 9.69289 15.135
214 2 0.411666 8.21665 11.9474
215 2 -0.758495 8.6288 13.3472
216 2 -1.22414 8.96618 11.6092
220 2 -2.90952 9.2178 13.4266
221 2 -3.11072 8.14263 11.7659
228 2 -3.17574 12.8623 8.84861
223 2 -3.94981 11.3989 13.3951
326 2 -5.22183 13.0533 16.2234
246 2 1.06589 9.55656 16.2223
247 2 1.78602 7.34502 9.48504
249 2 0.827485 8.97824 9.22542
36 4 0.898404 11.6741 17.4953
325 2 -5.06278 12.4058 14.3721
256 2 -1.47351 9.17677 16.0345
257 2 -1.33706 9.55247 14.1656
258 2 -3.0959 9.50718 14.9712
229 2 -3.5328 13.1296 10.8229
311 3 -5.50056 10.7166 17.1925
323 1 -5.76292 12.664 15.2858
324 2 -6.62821 13.3496 15.0163
222 2 -4.67718 8.8305 12.6327
345 2 -3.94843 7.06523 17.2349
101 3 2.67661 6.90963 16.3498
254 2 2.99884 8.08182 12.058
2 4 13.4114 2.45452 3.55387
191 1 10.9332 0.310619 1.30062
277 2 6.81677 5.84645 1.90361
44 4 8.65349 2.08913 3.93777
45 4 12.6893 0.136579 7.62677
46 4 11.2116 2.55598 5.71752
48 4 9.87004 4.58583 2.03286
51 4 10.1203 4.69778 7.61404
97 3 6.43227 3.42178 6.88491
360 2 10.4774 1.07511 2.0715
123 3 12.9295 1.22864 2.64564
124 3 8.55558 0.742654 3.08869
125 3 7.1749 2.56527 4.44699
126 3 12.3096 2.81452 4.58798
127 3 9.75474 2.03724 5.11795
128 3 11.9768 1.37403 6.82038
129 3 9.15284 3.40074 2.80605
130 3 10.6646 5.76368 2.85789
132 3 9.05078 5.33882 0.835656
133 3 10.9812 3.78453 6.71288
27 4 6.3073 2.19125 5.80389
131 3 5.10889 6.57062 4.98822
138 3 9.29913 5.80599 6.8356
340 2 5.12828 5.37564 1.35319
196 1 11.0975 3.42375 1.18238
197 1 6.43483 5.38525 2.85752
198 1 8.81212 3.46738 8.32324
299 2 6.21622 4.2215 0.0763002
274 2 11.0108 2.3177 1.17724
275 2 12.2305 3.72636 1.56903
276 2 7.21431 4.69906 3.30587
352 2 13.1144 2.80921 8.01365
278 2 5.34771 4.97675 2.78667
279 2 8.64857 2.6657 7.55963
359 2 11.1237 0.763551 0.203425
300 2 7.51552 3.60709 1.3652
298 1 6.50353 3.45053 0.931773
354 2 9.61906 2.368 0.161822
296 4 7.02231 1.86947 0.129994
30 4 5.31394 4.11454 7.95461
280 2 7.82637 4.08368 8.6101
273 2 10.8704 3.86453 0.0916969
284 2 4.3934 6.80364 11.1754
32 4 5.01335 4.90964 13.8161
47 4 10.4422 2.56138 11.9679
52 4 6.34151 6.46571 9.54737
54 4 9.83625 5.19972 13.7616
135 3 6.47551 4.91541 9.18525
139 3 10.7929 3.81906 12.9409
140 3 5.88314 5.48026 14.9474
331 1 8.662 1.89425 17.1367
337 2 7.21956 1.59933 9.09264
145 3 9.02402 6.01575 12.6925
182 1 6.09412 4.3672 12.3429
11 4 11.1299 6.71488 9.63461
193 1 11.4153 2.46949 10.3816
194 1 8.56564 2.76892 11.711
195 1 10.5302 0.873421 13.0377
347 1 11.1295 6.43636 14.4581
200 1 8.6181 4.4996 15.0869
350 2 14.0612 0.126542 14.7091
363 2 10.8503 0.153448 9.50146
238 2 6.7812 3.62675 12.7551
239 2 6.64412 5.29739 12.0263
263 2 13.6409 1.39588 9.71708
264 2 11.2469 1.47013 9.79823
265 2 12.4233 2.44859 10.9418
266 2 11.2372 3.4474 9.76476
267 2 8.13106 2.28615 12.7123
268 2 8.29138 1.99633 10.7598
269 2 8.1929 3.82337 11.498
270 2 11.6412 0.494408 12.7336
271 2 9.71257 0.123738 12.6844
272 2 10.4403 1.17663 14.1576
281 2 9.43591 3.10111 9.25685
285 2 9.24658 5.05353 15.9392
286 2 8.75504 3.42014 15.1008
287 2 7.53499 4.81306 14.9776
304 1 7.66029 1.2335 14.4051
308 2 8.75548 1.18801 13.9079
309 2 7.25381 2.27206 14.5965
316 1 11.9741 2.06673 16.0008
317 2 11.468 1.94451 14.9826
318 2 11.807 3.12178 16.489
319 2 11.539 1.22785 16.639
134 3 11.1253 5.16724 9.17177
332 2 9.02571 0.773577 16.9653
333 2 8.63918 2.43222 16.0848
334 1 7.85632 0.686352 9.25426
192 1 14.0053 0.678796 8.91062
366 2 14.2517 0.433128 12.2229
335 2 8.96103 0.772253 8.8516
205 2 13.7584 1.58206 13.5156
336 2 7.62565 0.0670645 10.3336
183 1 4.08376 6.55184 13.2222
290 2 11.9963 0.226776 15.2483
237 2 5.40535 4.05088 11.4056
355 2 7.54736 0.471401 15.3731
16 4 8.6734 10.9666 4.08428
262 2 3.02188 12.9043 1.24652
50 4 8.67527 6.95318 0.108527
49 4 6.39207 6.85056 4.14373
43 4 5.24504 13.2832 2.18376
53 4 9.06952 7.04991 5.8698
57 4 7.34196 9.00147 2.19897
58 4 3.88308 11.0725 3.99533
60 4 7.49282 8.80558 7.82462
61 4 6.12116 11.0262 6.02898
109 3 3.43518 7.58238 6.87054
343 2 3.25142 12.5054 8.01733
104 3 3.36105 7.8451 1.17956
115 3 1.2827 12.4632 6.92991
252 2 3.80014 10.9663 8.71561
136 3 10.3792 7.19166 4.91047
146 3 6.23239 8.21582 3.16194
147 3 7.90378 7.9248 1.13083
148 3 8.57123 9.67169 3.0894
149 3 3.61205 9.73394 3.19756
150 3 4.70245 12.2198 3.22663
151 3 2.48422 11.7527 4.68687
153 3 6.53228 10.1907 1.47458
154 3 5.96131 12.7512 0.869667
155 3 6.68487 7.55623 8.42279
156 3 8.66694 8.42276 6.80642
158 3 7.34682 11.2276 4.99208
159 3 4.73531 10.5959 5.30212
160 3 6.47228 9.71304 7.04025
161 3 5.84712 12.3598 6.92145
187 1 3.79074 9.71332 8.74817
250 2 4.84994 9.32796 8.40291
137 3 7.7059 6.79797 4.98329
59 4 6.14492 11.1599 0.173321
39 4 1.42218 11.2934 5.83328
295 2 5.24855 13.3701 11.3019
21 4 8.57226 10.9772 16.0336
29 4 3.70515 7.06508 17.472
55 4 6.36791 7.17771 15.5664
56 4 8.62776 7.14334 11.5604
341 1 3.97563 12.9485 8.82496
62 4 7.53537 9.22161 13.6869
63 4 3.51458 11.4987 15.9775
64 4 6.87794 11.4894 11.7572
142 3 5.24743 7.42355 16.7526
143 3 9.90698 7.18559 10.5426
152 3 7.15063 11.1775 16.6915
199 1 4.49434 6.90162 10.0265
162 3 6.40353 8.29204 14.4334
163 3 8.46389 8.56694 12.4517
164 3 8.63847 10.0066 14.7914
165 3 2.81797 10.4525 14.8978
166 3 4.56572 10.9622 17.0757
167 3 2.14444 12.5842 16.7868
168 3 8.05334 11.7015 10.8206
169 3 6.75387 10.5826 13.0086
190 1 2.59485 12.1054 11.2636
201 1 4.56517 12.6054 14.8956
202 1 5.44623 10.7194 10.6366
203 1 6.00626 13.2487 12.1462
157 3 8.08903 9.69069 9.02631
242 2 4.90995 7.14482 12.6431
251 2 3.40861 9.35914 9.76813
344 1 10.2213 7.82462 17.2817
255 2 4.40106 9.24094 12.8878
259 2 2.84529 11.6287 10.2808
260 2 3.16964 11.6781 12.2192
346 2 9.99085 8.37599 16.3295
283 2 4.28952 7.97725 9.65151
288 2 4.16586 12.52 13.8665
289 2 5.59799 12.1261 14.8765
253 2 3.16168 9.9738 11.6385
291 2 5.36546 9.59284 10.7553
292 2 5.83293 10.9827 9.65753
293 2 4.46078 11.1727 10.9196
294 2 5.51124 13.0109 13.2006
141 3 7.8203 6.95284 16.2886
188 1 3.33027 9.19696 12.3828
19 4 8.86033 11.0079 9.5144
342 2 4.58203 12.1519 9.50867
261 2 2.66948 13.1887 11.1954
144 3 7.20823 6.82308 10.9426
362 2 6.90669 13.1167 9.23107
240 2 3.80161 7.14572 14.11
365 2 10.8017 6.87621 15.5054
ITEM: TIMESTEP
200
ITEM: NUMBER OF ATOMS
366
ITEM: BOX BOUNDS xy xz yz pp pp pp
-7.5162500000000003e+00 1.5037200000000000e+01 -7.3577500000000002e+00
0.0000000000000000e+00 1.3615700000000000e+01 -1.5850000000000000e-01
0.0000000000000000e+00 1.7607399999999998e+01 8.0699999999999994e-02
ITEM: ATOMS id type x y z
31 4 3.94041 6.20671 6.16881
3 4 1.27832 2.02754 0.558356
5 4 0.746464 1.91344 5.39215
7 4 0.269163 4.51584 2.16404
73 3 -2.24123 6.3404 4.43554
10 4 -0.0202545 4.38024 7.43542
339 2 3.15831 5.0252 0.998531
24 4 3.57204 1.7581 4.12866
351 2 -2.87999 5.83946 0.511764
28 4 1.47903 6.14862 4.43756
65 3 1.53304 0.78301 1.45103
66 3 -0.396854 1.97199 4.30811
67 3 0.772758 0.406175 6.2147
69 3 -1.2518 3.9254 2.38606
70 3 0.988176 3.25459 1.4635
71 3 0.217785 5.9331 1.14297
72 3 0.406535 3.15609 6.54188
93 3 6.71337 0.722649 6.6233
74 3 -0.733906 5.60888 6.60644
89 3 3.40898 0.451299 3.25969
90 3 2.23028 2.24521 4.75841
91 3 2.27925 0.91905 8.28989
92 3 4.85828 1.75244 5.08697
338 1 4.21286 5.30382 0.639123
94 3 0.895761 5.02868 3.48123
301 2 5.61432 3.31942 1.33812
98 3 2.53436 5.58189 5.54707
227 2 5.30762 3.17622 2.90481
172 1 1.52874 4.9398 8.36885
178 1 4.16878 3.08406 2.7673
208 2 2.27337 4.5275 7.62793
361 2 -0.497125 1.46301 8.23488
210 2 1.55175 6.17678 8.45596
225 2 3.62844 4.03974 3.10137
226 2 3.83496 2.75326 1.73011
297 3 7.01894 0.67534 1.04186
99 3 4.56453 5.15726 7.2486
27 4 6.28257 1.98543 5.72777
171 1 -1.36353 3.70814 8.69623
96 3 4.34677 2.78225 8.68296
313 2 3.41485 1.6814 17.6074
13 4 -0.168647 4.83853 14.0227
307 2 5.39986 2.33309 12.6494
26 4 3.44352 1.66155 9.25045
68 3 -0.154709 1.95562 16.9235
75 3 -0.962895 3.82543 15.1558
349 2 -3.01858 5.92324 14.5372
77 3 -1.13281 5.68081 12.9963
100 3 1.17072 5.68184 14.6576
328 2 6.15418 2.25119 15.3217
173 1 0.91795 3.73086 13.0041
175 1 0.127815 5.82521 10.5729
207 2 -2.07561 4.4839 9.10047
180 1 2.36509 2.39664 10.6579
181 1 3.86557 3.60873 14.3493
204 2 0.453627 1.03708 14.1946
206 2 -0.78397 3.2163 9.55233
217 2 0.603835 6.65819 9.92586
211 2 0.97722 4.04169 11.8294
212 2 0.344858 2.67788 13.2362
213 2 2.06387 3.76203 13.544
14 4 -1.20936 6.6449 11.6502
218 2 -0.452084 5.00186 9.90963
321 2 -1.82901 4.71399 17.2564
6 4 -1.14517 2.35482 15.7489
230 2 5.56055 0.304075 9.98097
231 2 1.35067 2.52009 10.2147
232 2 2.83701 3.37393 11.0233
233 2 2.49348 1.55808 11.4204
234 2 4.52427 2.87503 15.1206
235 2 3.41375 2.98334 13.5161
236 2 3.06428 4.23752 14.8831
241 2 3.03944 6.55079 12.6089
282 2 4.0775 5.99209 9.36406
356 2 4.50323 4.81274 17.3146
303 1 5.03779 1.16851 12.7274
305 2 4.23093 1.00543 13.4653
306 2 4.71709 0.746128 11.6613
329 2 4.65506 2.05239 16.6009
312 1 2.78918 2.53379 17.2989
219 2 0.912728 5.29613 11.3485
330 2 5.75064 0.631724 16.1291
315 2 2.47723 2.5038 16.1573
320 1 -2.34163 5.77334 17.2533
209 2 1.59746 4.36536 9.37896
322 2 -2.84051 6.07153 16.2447
327 1 5.69158 1.74936 16.2814
314 2 3.25251 3.59291 17.5948
4 4 -5.52646 13.2873 7.28248
8 4 -3.6971 6.84027 3.77771
15 4 -2.32337 8.992 1.99168
17 4 -3.83289 11.1373 0.316399
18 4 -2.57572 8.82022 7.64077
20 4 -3.83239 11.1815 5.90806
310 3 -6.0733 12.1765 3.11146
1 4 -5.07122 13.1884 2.32878
25 4 -0.0394371 13.1076 7.67519
35 4 -1.29972 11.2815 4.00301
23 4 0.250719 13.2595 2.41207
78 3 -3.43845 8.08901 2.68719
79 3 -1.28149 8.0032 0.934813
80 3 -2.93482 9.9641 0.86057
81 3 -4.2687 12.2404 1.27165
82 3 -3.47171 7.86839 8.53366
83 3 -1.83963 8.03835 6.47246
84 3 -6.21196 12.1112 8.30207
85 3 -5.0702 10.6543 5.03568
86 3 -3.31118 10.1207 7.08973
87 3 -4.34392 12.6108 6.54663
95 3 0.216243 7.22936 4.93255
103 3 2.64067 7.16565 3.54274
105 3 -1.44378 9.94983 3.03536
106 3 -0.931941 12.705 3.19676
107 3 -2.61033 11.5127 4.92845
34 4 2.77176 8.36975 2.58223
111 3 -1.00306 12.0089 8.40418
113 3 -0.0240758 11.0497 5.06966
357 2 2.18991 9.4018 0.338021
184 1 1.02657 9.0879 2.66838
248 2 0.539215 7.59685 8.25982
243 2 0.813741 9.10385 3.79609
244 2 0.247259 8.3811 2.12608
245 2 0.969813 10.1818 2.13268
108 3 0.988639 11.8192 1.50623
110 3 -1.31525 9.3183 8.65677
114 3 1.96571 9.97605 6.61741
358 2 0.28948 9.188 0.224673
9 4 -0.642003 6.81992 0.122782
12 4 -1.23013 6.79389 5.56063
22 4 -3.5904 10.571 11.3264
33 4 1.22804 7.0602 15.4316
224 2 -5.17063 12.2962 12.0111
38 4 -1.04564 10.7648 9.41965
40 4 2.1305 9.55391 13.7785
41 4 -1.90565 11.4394 15.7635
42 4 0.74551 11.4876 11.6447
88 3 -4.80917 10.6739 10.2031
348 2 -3.82984 7.46527 13.8921
102 3 -0.0514799 7.22993 16.3702
112 3 -2.1795 10.6397 10.7102
116 3 1.45127 8.24272 14.3166
117 3 -0.654914 11.6333 16.7116
118 3 -1.61697 12.5286 14.33
119 3 -3.21026 11.9556 16.5398
120 3 0.461544 10.6446 10.0962
121 3 0.986347 10.5035 12.8166
122 3 -0.0606753 13.002 11.832
174 1 -0.603008 8.29091 12.2109
176 1 -3.75721 9.03609 12.5021
177 1 -4.10909 12.0943 12.4064
185 1 1.06388 9.80176 17.4193
353 2 -3.47053 13.0397 12.5858
189 1 -2.02138 9.61782 15.1238
214 2 0.493283 8.27139 11.9436
215 2 -0.73786 8.36943 13.3777
216 2 -1.14607 9.16556 11.6352
220 2 -3.11785 9.34073 13.4104
221 2 -3.32932 8.18158 11.8617
101 3 2.77401 6.9397 16.3408
223 2 -3.99707 11.3063 13.3394
326 2 -5.06421 12.9409 15.8266
246 2 1.10466 9.59061 16.2899
247 2 2.03749 7.46614 9.50892
249 2 0.969399 9.17037 9.32632
36 4 0.844945 11.6977 17.5117
325 2 -5.3126 12.1621 14.1297
256 2 -1.59635 9.08034 15.9779
257 2 -1.39217 9.52351 14.1218
258 2 -3.13915 9.47028 15.0944
229 2 -3.43608 13.0558 10.8068
311 3 -5.45292 10.5977 17.2513
323 1 -5.84877 12.4779 15.0691
324 2 -6.76041 13.2788 14.837
222 2 -4.87784 8.98227 12.7053
302 4 -0.881814 13.5625 13.326
186 1 1.39925 8.16187 8.82542
179 1 -2.97742 13.5787 9.82153
76 3 -2.48335 6.84593 10.7526
254 2 2.89827 8.30701 11.8174
228 2 -3.08937 12.8323 8.87641
2 4 13.4074 2.52504 3.5664
191 1 10.787 0.206596 1.09177
277 2 6.5345 5.97261 1.90807
44 4 8.82671 2.058 3.94633
45 4 12.7394 0.155104 7.52199
46 4 11.3047 2.51242 5.73413
48 4 9.95371 4.41686 2.00031
51 4 10.0984 4.69477 7.7219
97 3 6.36499 3.30666 6.77302
360 2 10.3 1.02397 1.60703
123 3 12.8924 1.26604 2.6757
124 3 8.70714 0.590811 3.17566
125 3 7.284 2.35869 4.55906
126 3 12.1152 2.95729 4.43839
127 3 9.88375 1.96058 5.19902
128 3 12.0793 1.28925 6.63509
129 3 9.11698 3.28101 2.96227
130 3 10.6875 5.65892 2.83816
132 3 9.08693 5.19188 0.794702
133 3 10.9828 3.86383 6.68345
137 3 7.7712 6.65241 5.00785
131 3 5.10074 6.66109 5.05936
138 3 9.327 5.84704 7.06754
340 2 5.0365 5.41592 1.51959
196 1 11.2208 3.36671 0.996233
197 1 6.50983 5.43601 2.89228
198 1 8.81888 3.51873 8.51817
50 4 8.67046 6.7395 0.164562
274 2 11.0973 2.2244 0.909263
275 2 12.2076 3.62857 1.54465
276 2 7.43346 4.84951 3.17033
352 2 13.0933 2.94834 8.08758
278 2 5.6046 4.73527 3.04196
279 2 8.84236 2.66089 7.80378
30 4 5.31793 3.98067 7.83302
300 2 7.48681 3.73077 1.31676
298 1 6.51896 3.51625 0.704447
280 2 7.76529 3.99311 8.76534
296 4 7.23333 1.89619 0.102445
273 2 11.1191 3.92086 0.0243175
144 3 7.26967 6.64125 10.9087
32 4 5.00707 5.06714 13.7948
47 4 10.3908 2.72288 12.0275
52 4 6.39146 6.46272 9.49357
54 4 9.89411 5.32075 13.8015
135 3 6.25062 4.8269 9.14283
139 3 10.5315 4.06144 12.922
140 3 5.96563 5.44974 14.9464
331 1 8.76048 1.83806 16.9242
337 2 7.11312 1.56234 8.89847
145 3 8.9492 6.17595 12.8499
182 1 6.05955 4.27229 12.38
299 2 6.21269 4.25874 17.4185
193 1 11.2771 2.70132 10.4687
194 1 8.47809 2.57144 11.7547
195 1 10.6707 1.07795 13.0718
347 1 11.1089 6.6108 14.5957
200 1 8.73738 4.43169 15.0744
355 2 7.74123 0.148155 15.1973