ITEM: TIMESTEP
0
ITEM: NUMBER OF ATOMS
331
ITEM: BOX BOUNDS xy xz yz pp pp pp
-8.3499999999999996e+00 1.5708700000000000e+01 -8.2042000000000002e+00
-2.0055999999999998e+00 1.3086800000000000e+01 -1.4580000000000001e-01
0.0000000000000000e+00 1.7524799999999999e+01 -2.0055999999999998e+00
ITEM: ATOMS id type q x y z
1 4 0.656179 -0.8035 2.27469 5.19999
4 1 -0.123773 -0.8691 1.03021 3.81094
6 1 -0.12633 -1.0132 4.6845 1.93802
15 2 0.0288882 -1.99303 5.11078 2.1869
16 2 0.0238258 -1.1611 3.65479 1.58028
17 2 0.0101261 -0.60173 5.26909 1.10324
18 3 -0.592216 -0.44258 3.75922 4.61773
154 1 -0.0934735 -2.23651 5.89345 6.26897
174 2 0.0613736 -1.13969 5.89537 6.3185
175 2 0.090647 -2.54756 4.89888 5.92826
2 4 0.294655 0.11859 4.74729 3.42077
3 1 -0.108817 0.39626 1.78246 6.52203
5 1 -0.119732 1.8584 4.24536 2.99404
8 2 0.0134829 1.4152 1.79416 6.11481
9 2 0.0974656 0.18808 0.76715 6.88532
10 2 0.0801242 0.36455 2.46395 7.38218
11 2 0.0105612 0.11685 0.94202 3.32863
12 2 0.0268786 1.89746 3.17367 2.76655
13 2 0.0261526 2.53104 4.43258 3.8386
14 2 0.038884 2.246 4.78322 2.12169
24 4 0.287743 5.27326 0.6754 4.18827
45 1 -0.119979 3.7554 1.6855 4.55571
47 1 -0.098379 3.74026 0.26744 8.17338
49 1 -0.12062 6.29686 1.4221 2.83101
51 1 -0.098049 2.38989 4.74703 6.67183
78 2 0.00446563 2.97285 1.51564 3.80416
79 2 0.0447912 3.98953 2.75799 4.57459
80 2 0.0446815 3.35689 1.40233 5.53796
81 2 0.086187 3.672 -0.74275 8.59008
82 2 0.0824147 4.60012 0.29063 7.49333
83 2 0.0435101 2.82966 0.46676 7.5901
87 2 0.0365992 5.6779 1.57619 1.94189
88 2 0.0288986 7.14332 0.7805 2.55443
93 2 0.0540149 2.59539 3.78791 6.17833
94 2 0.0299525 1.51133 5.18962 6.18293
95 2 0.0862497 2.1336 4.52291 7.71647
117 3 -0.721662 6.19945 0.55417 5.55815
265 2 -0.0412055 4.80976 4.0014 2.21776
266 3 -0.685061 5.43198 2.89878 0.04849
267 3 -0.638642 3.88617 5.08774 0.13117
283 1 -0.12 2.39735 1.44889 0.81564
284 2 0.0345946 2.74667 0.49844 0.39457
285 2 0.0015419 1.62153 1.20381 1.55867
286 2 0.049973 3.23325 1.93557 1.33164
311 2 0.0190679 1.10073 3.78305 0.07676
143 4 0.280578 -5.8106 11.1834 5.5293
144 4 0.253675 -2.82034 7.23634 5.12748
146 4 0.596459 -2.66444 9.74551 6.83522
147 4 1.06877 -6.78652 10.5961 8.49154
161 2 0.0360633 -6.73959 12.1185 4.83628
162 2 -0.00417781 -4.56313 11.9074 5.86753
163 2 -0.00718908 -4.30777 7.35524 5.07471
164 2 0.0324769 -2.34065 7.03656 3.73217
166 2 0.0229967 -4.1294 9.64772 7.02666
167 2 0.0245232 -2.22587 11.1062 6.44487
169 2 0.0180186 -5.45689 10.0605 4.61714
176 2 0.0235907 -2.62611 6.04924 7.28469
182 2 0.0767404 -0.74907 7.23213 8.50824
192 3 -0.571972 -2.22265 8.70325 5.65469
193 3 -0.614211 -6.51235 10.5717 6.88634
199 3 -0.740904 -1.92808 9.3392 8.26158
206 4 0.266195 -1.06373 8.96496 1.8737
213 1 -0.118629 -2.52775 10.0382 2.29913
220 2 -0.00778426 -0.28426 9.61076 0.77162
221 2 -0.00932648 -1.49355 7.62569 1.37633
227 2 0.0422504 -3.2732 9.49967 2.90078
228 2 0.0104908 -3.01427 10.4135 1.38937
229 2 0.0394694 -2.20006 10.908 2.8835
235 2 0.059124 -0.55582 11.2593 5.17953
312 2 -0.00740555 -3.33245 12.3737 3.82509
317 2 0.023428 -6.22032 10.2156 2.29701
321 2 0.0195364 -3.46819 12.9972 0.36029
322 2 0.0115032 -1.7063 12.7988 0.45132
325 2 0.01019 -4.49363 9.32055 0.19828
329 2 0.0327235 -4.50871 6.83051 8.30982
7 2 0.0447861 0.12037 6.12631 3.98179
183 2 0.0109558 0.818 6.57721 7.97638
207 4 0.63981 0.92437 9.47908 4.25054
214 1 -0.107435 1.11549 8.43642 5.77011
215 1 -0.116381 0.37538 11.2239 4.59986
231 2 0.0393583 1.3337 7.39974 5.47862
232 2 0.0756721 0.21157 8.42752 6.38939
242 3 -0.565209 -0.08579 8.74799 3.17753
291 1 -0.150393 2.3724 7.33203 1.0813
292 2 0.0443883 2.10555 8.36859 0.8362
293 2 0.0537515 2.98928 7.35558 1.9881
294 2 0.0240105 1.44279 6.80088 1.32955
23 4 0.713281 -0.47512 2.77905 13.1921
44 1 -0.126538 -0.92782 1.36271 14.2871
60 2 0.0328217 -1.63906 3.24772 12.4055
62 2 -0.0472764 -0.40248 3.66633 16.5526
76 2 0.0465074 -1.42734 0.58641 13.6955
77 2 -0.00110114 -1.60256 1.65781 15.1032
170 2 0.00834203 -0.58794 4.11929 9.00133
19 4 0.354841 1.46292 0.50843 17.0238
21 4 1.56876 2.19654 -0.9527 12.6487
22 4 1.55904 1.07685 1.27304 10.9592
25 4 1.06641 5.73994 -0.32933 16.5765
27 4 0.678215 3.89142 1.53784 9.5075
29 4 1.60745 3.67044 0.7912 14.7031
30 4 1.00927 3.08299 4.51727 17.1861
34 4 0.638461 0.42859 4.48497 15.6214
48 1 -0.0939637 5.1137 1.15197 10.8455
58 2 0.00315491 0.29844 -0.25876 16.4993
75 2 0.0927898 -0.03256 0.90623 14.7261
84 2 0.108954 4.95358 0.15373 11.2725
85 2 0.0513838 4.96994 1.89009 11.6458
86 2 0.0759058 6.15086 1.20788 10.4965
112 3 -0.805788 -0.10484 1.21412 9.83182
113 3 -0.847929 1.19097 -0.24561 11.5823
114 3 -0.694293 0.7038 2.31312 12.1471
116 3 -0.730142 2.42639 1.74222 10.226
119 3 -0.858049 3.11285 0.22561 13.291
120 3 -0.785749 4.80674 -0.26271 15.2324
121 3 -0.658746 2.45813 0.89009 15.7721
122 3 -0.683892 4.28297 2.97312 8.78652
125 3 -0.680854 4.33704 2.24851 14.439
126 3 -0.562378 0.09658 4.03505 14.0889
127 3 -0.597788 2.0169 4.24466 15.9732
171 2 0.0790938 3.17852 3.89091 11.9861
198 3 -0.577649 1.38951 4.7437 10.4161
46 1 -0.15834 -2.68053 11.0709 17.3147
115 3 -0.700219 -6.82824 11.3499 13.819
145 4 0.662182 -2.37973 6.32009 11.643
148 4 1.13493 -4.70571 9.96664 10.7345
151 4 1.45561 -1.7396 10.1323 9.68112
155 1 -0.0813929 -1.99279 7.16867 13.2492
156 1 -0.147597 -5.31863 8.30011 11.2231
165 2 0.0102218 -2.74616 7.26168 10.5518
168 2 0.0290779 -7.41643 11.8702 8.86909
177 2 0.0995628 -1.14062 7.84822 13.143
178 2 0.0647558 -1.73284 6.42303 14.015
179 2 0.0583011 -2.86433 7.73438 13.6067
180 2 0.0365235 -4.98292 7.54212 10.5076
181 2 0.0518147 -4.98051 8.01178 12.2255
188 2 0.0726166 -1.07481 10.7571 13.3115
194 3 -0.630912 -3.67061 5.31578 11.8726
195 3 -0.765102 -5.38037 10.4049 9.30358
196 3 -0.815082 -5.04907 11.0809 11.8758
197 3 -0.589636 -1.09813 5.46009 11.0917
200 3 -0.809362 -1.44971 11.709 9.35272
201 3 -0.796041 -3.08376 10.0234 10.5736
203 3 -0.740496 -0.49843 9.48304 10.5073
258 4 0.329584 -6.88966 9.76241 14.3293
259 1 -0.115317 -7.09695 9.73028 16.1836
260 2 0.0325272 -5.57417 9.11644 14.0403
262 2 0.0390025 -6.15418 10.0353 16.6578
275 2 0.0116931 -0.68737 8.96278 16.3577
301 1 -0.127877 -4.27751 7.20571 16.6914
302 2 0.0181116 -3.24841 6.81913 16.725
303 2 0.0392178 -4.26029 8.1994 16.222
320 2 0.0368767 -2.71991 10.3398 16.4949
64 2 -0.0256407 0.08764 5.92299 15.7727
149 4 0.651432 -0.06135 5.23718 9.83201
150 4 0.709605 2.62083 5.13885 11.4228
152 4 0.658817 2.05136 7.5474 13.3102
153 4 0.648378 0.5796 9.87764 11.699
157 1 -0.115426 0.19185 6.78723 8.8525
159 1 -0.111646 -0.17724 11.1541 12.8152
172 2 0.0082768 1.57276 7.40103 14.7046
184 2 0.0927925 0.70437 7.54404 9.46085
202 3 -0.573793 2.04744 6.04589 12.6774
204 3 -0.628456 0.96994 8.5065 12.5051
270 1 -0.114482 0.11576 9.58029 15.9307
273 2 0.0497225 0.33837 9.18781 14.9334
274 2 0.0708184 -0.2529 10.609 15.8264
28 4 1.55166 7.09274 1.52257 6.50792
31 4 1.03248 5.59696 3.73308 8.16724
32 4 0.318567 3.89711 5.84524 6.60736
89 2 0.0530955 6.69535 2.40467 3.12476
96 2 0.0317188 4.74054 5.17817 4.36007
110 2 0.0939867 7.33743 5.93739 6.74612
118 3 -0.798941 7.47635 0.68046 7.8324
123 3 -0.782248 6.2431 2.83372 6.94007
124 3 -0.639017 5.10451 5.13533 7.49883
263 4 0.695645 5.16328 4.32298 0.81248
264 2 -0.0188822 6.38302 5.17037 0.7523
35 4 1.10381 9.43748 2.03449 4.43104
37 4 1.54662 12.024 1.62276 6.13663
40 4 0.266174 9.9545 4.53051 2.63915
41 4 1.09897 10.896 3.16161 8.65131
42 4 0.279766 9.74964 5.35111 6.91308
55 1 -0.118891 11.3543 3.70147 1.72565
56 1 -0.0542431 8.10791 5.54363 6.07203
65 2 -0.0617373 9.1747 0.91487 3.51514
69 2 -0.00866433 10.4761 5.67747 3.43968
70 2 -0.0153971 8.91143 5.05245 1.708
72 2 0.0321317 10.7822 4.97298 5.90267
105 2 0.00252321 11.8069 4.37882 0.98677
106 2 0.0299727 11.0011 2.80332 1.20274
107 2 0.0652076 12.1374 3.3969 2.43272
108 2 0.132959 7.74941 4.60188 5.64341
128 3 -0.78605 8.44604 1.98336 5.72418
129 3 -0.744981 13.8718 -0.15975 8.37582
131 3 -0.752218 13.3951 2.43617 5.8788
132 3 -0.799135 10.9931 1.91407 4.91578
133 3 -0.808097 12.3229 0.01115 6.19046
137 3 -0.652125 9.21029 3.45074 3.65518
139 3 -0.795513 11.3586 2.03449 7.55929
140 3 -0.610052 9.72179 4.10413 8.0334
304 1 -0.116861 13.203 0.24793 0.68324
305 2 0.0152102 14.2901 0.36167 0.81659
306 2 0.0373179 12.7603 1.25445 0.70658
313 2 0.0119272 8.85874 2.53587 0.62865
315 2 0.0758801 14.5678 0.03216 4.18329
316 2 0.0458657 14.1085 1.31984 3.0439
323 2 0.0444266 9.35245 0.36138 0.996
324 2 0.0730982 10.0926 -0.83246 7.60512
52 1 -0.0922627 4.51897 6.1286 4.86734
61 2 0.0238779 3.61651 7.15463 7.2685
97 2 0.0748704 5.44292 6.72043 4.88604
98 2 0.0474022 3.77582 6.67567 4.26932
208 4 1.10843 4.9488 12.0948 7.17802
209 4 0.646608 3.88689 10.2014 3.61815
210 4 0.684138 6.55893 8.5584 8.48903
211 4 1.44543 6.09032 9.8138 5.68417
216 1 -0.127623 4.84783 9.76096 2.10334
219 2 -0.00533451 7.02626 7.58552 3.10378
222 2 -0.0519996 4.01003 11.0993 7.72039
223 2 0.0147933 3.76537 11.6809 3.77239
224 2 -0.00692605 6.77689 7.11616 8.74191
230 2 0.0397287 1.95754 8.79825 6.37771
233 2 0.037269 0.21057 11.7776 3.66691
234 2 0.0471878 1.14978 11.7658 5.16191
236 2 0.0445078 5.15642 8.70667 2.10485
237 2 0.0266462 5.74701 10.3866 2.02886
238 2 0.0342837 4.23574 9.93037 1.20958
243 3 -0.631696 2.40415 9.54181 3.5089
245 3 -0.669667 7.27968 9.67766 4.57881
246 3 -0.743839 4.63838 9.60473 4.97088
247 3 -0.731225 6.25312 8.71297 6.87126
248 3 -0.765858 6.13086 11.3294 6.32722
295 1 -0.109208 1.33729 12.3759 1.15126
296 2 0.0419861 2.13616 12.2785 1.89827
297 2 0.0231926 0.42579 11.9323 1.57558
298 1 -0.149001 1.15943 11.6119 8.11681
299 2 0.0186978 0.75618 10.9021 7.38295
330 2 0.0376565 4.61727 12.7781 1.55024
57 1 -0.0998116 10.2124 6.90598 7.83243
109 2 0.0249812 8.23694 6.26253 5.2502
111 2 0.0682227 9.46855 7.09262 8.61999
205 4 0.279324 8.01599 8.62504 3.52142
212 1 -0.13122 8.67049 9.53295 2.02832
218 2 0.00328658 9.13868 7.94455 4.22344
225 2 0.0313901 7.89115 10.1097 1.51318
226 2 0.00150532 9.06015 8.7892 1.31552
328 2 0.0593616 10.2134 7.78015 7.16796
33 4 0.676886 5.70359 3.09971 14.1
50 1 -0.139338 6.82655 4.05745 9.5105
53 1 -0.125009 7.11998 2.03821 13.5404
63 2 -0.0255862 5.34211 4.13583 13.0933
91 2 0.0773023 7.34526 3.12932 9.78641
92 2 -0.00424062 6.31835 4.44625 10.4038
99 2 0.0139278 7.17709 2.02548 12.446
100 2 0.0961621 7.03094 1.00094 13.8876
134 3 -0.634351 7.30109 -0.09244 16.1391
141 3 -0.617148 6.17432 3.89122 15.4768
20 4 1.11253 14.0562 0.75248 9.71638
26 4 1.12942 8.01471 -0.45479 8.85723
36 4 1.05897 9.85634 1.05502 10.7988
38 4 0.278117 8.55438 0.84339 16.7015
39 4 0.602122 12.2659 -0.56453 11.7538
54 1 -0.112225 10.0842 0.4195 15.7363
59 2 -0.0328874 13.1982 1.94487 9.64146
66 2 -0.0753807 9.58113 1.46351 12.1841
67 2 0.0339929 8.21789 2.28983 16.5766
68 2 -0.0402824 12.121 0.12492 13.0595
71 2 -0.0488026 12.0553 3.96993 9.07823
90 2 0.0669063 7.59231 4.77784 9.20208
101 2 0.027697 8.06034 2.45451 13.9267
102 2 0.00837565 10.9294 1.04687 16.0562
103 2 0.0325148 9.92169 0.59834 14.6638
104 2 0.0847582 10.3629 -0.63468 15.8704
130 3 -0.741411 8.5148 0.36685 10.193
135 3 -0.677483 13.6854 -0.14298 11.047
136 3 -0.705423 11.0439 -0.07556 10.7687
138 3 -0.743942 10.2906 2.37213 9.95022
249 4 0.624268 10.8788 4.86606 12.9466
250 1 -0.140007 11.3525 3.24297 13.7305
251 1 -0.137918 9.21654 4.88554 12.1116
252 2 0.0238314 12.2118 3.39309 14.401
253 2 0.0243191 11.6401 2.48814 12.9891
254 2 0.0105445 10.5278 2.83855 14.3326
255 2 0.0073546 8.41774 4.66455 12.835
256 2 0.0567476 9.15237 4.15711 11.2949
281 2 -0.0148083 10.3647 4.68023 16.3664
307 1 -0.116083 13.3467 -1.5336 15.1933
309 2 0.0438298 14.4253 -1.34872 15.2916
310 2 0.0257165 12.8436 -0.55892 15.1988
326 2 0.0682674 7.7271 -1.05162 12.23
43 4 0.62974 5.8436 5.38814 16.0708
73 2 -0.0337824 6.00465 6.36942 14.9662
74 2 -0.0385181 6.78263 5.65514 17.1901
142 3 -0.666775 4.29734 5.4725 16.6199
158 1 -0.147343 3.87931 6.17289 10.5288
160 1 -0.139912 3.72777 8.34352 13.2656
173 2 -0.0106083 1.81494 10.37 11.0287
185 2 0.0293648 3.42879 7.13664 10.2517
186 2 0.0608964 4.23456 5.70148 9.60713
187 2 0.00158669 4.74994 6.37742 11.1691
189 2 0.0213513 4.03092 8.60535 12.2444
190 2 0.0305466 4.48527 7.6737 13.6956
191 2 0.0392892 3.70295 9.26452 13.864
217 1 -0.136717 5.22566 9.27786 9.56357
239 2 0.0169438 5.36563 8.89378 10.5846
240 2 0.0172372 4.21535 9.01164 9.22751
241 2 0.0718048 5.31097 10.3715 9.61242
268 4 0.260926 1.59585 9.52969 17.0561
269 4 0.287674 4.51112 10.4786 16.5743
271 1 -0.117319 5.30839 8.78365 16.4963
272 2 0.0127419 2.01806 8.11834 17.3097
276 2 0.0176494 6.07649 8.64496 17.2667
277 2 0.0207296 5.78116 8.62931 15.5201
278 2 0.0688107 4.55382 7.99653 16.6236
279 3 -0.54375 2.87046 10.311 16.3332
287 1 -0.11643 7.45945 8.90494 13.3768
288 2 0.0120889 7.41718 7.83076 13.61
290 2 0.0376017 6.4796 9.34719 13.5996
300 2 0.0333421 1.69086 11.0409 8.88972
308 2 0.033353 4.97038 11.088 14.2122
314 2 -0.0194831 4.02713 11.0501 11.9015
327 2 0.0359039 0.52463 11.48 13.5957
244 3 -0.688899 7.95791 9.33648 8.87777
257 2 0.034221 9.02139 5.88245 11.6919
261 2 0.0341812 7.81592 10.3953 16.5406
280 4 0.258365 10.328 6.04454 15.746
282 2 -0.00578152 8.90587 6.51052 15.7961
289 2 0.0487033 7.62447 9.01364 12.2955
318 2 0.00981789 8.39104 8.70772 16.5187
319 2 0.0343159 9.29185 8.29988 11.218
331 3 -0.585884 10.8181 5.98255 14.1771
ITEM: TIMESTEP
1
ITEM: NUMBER OF ATOMS
331
ITEM: BOX BOUNDS xy xz yz pp pp pp
-8.3499999999999996e+00 1.5708700000000000e+01 -8.2042000000000002e+00
-2.0055999999999998e+00 1.3086800000000000e+01 -1.4580000000000001e-01
0.0000000000000000e+00 1.7524799999999999e+01 -2.0055999999999998e+00
ITEM: ATOMS id type q x y z
1 4 0.667047 -0.818285 2.28374 5.20097
4 1 -0.125055 -0.867933 1.01761 3.79807
6 1 -0.129699 -1.02156 4.68511 1.92508
15 2 0.0288997 -1.98857 5.1099 2.18988
16 2 0.0229316 -1.15813 3.65703 1.58477
17 2 0.0108327 -0.600039 5.26783 1.10885
18 3 -0.601807 -0.440747 3.76094 4.61603
154 1 -0.102207 -2.23246 5.88339 6.27643
174 2 0.059764 -1.14311 5.89808 6.31602
175 2 0.0880878 -2.5484 4.90299 5.92602
2 4 0.309263 0.115231 4.66265 3.39874
3 1 -0.108939 0.407688 1.77751 6.53197
5 1 -0.12387 1.87158 4.24179 2.9903
8 2 0.0142843 1.4101 1.79518 6.11312
9 2 0.0908291 0.185444 0.769897 6.88213
10 2 0.0814314 0.361688 2.46375 7.37781
11 2 0.0108593 0.114354 0.945217 3.33288
12 2 0.0250802 1.89323 3.1772 2.76799
13 2 0.0260961 2.52583 4.43367 3.8378
14 2 0.0368826 2.2414 4.78364 2.12408
24 4 0.302578 5.2988 0.750496 4.21214
45 1 -0.122904 3.74362 1.69228 4.55751
47 1 -0.0995545 3.73865 0.255666 8.16138
49 1 -0.122429 6.30313 1.42814 2.82027
51 1 -0.101674 2.37743 4.7381 6.67187
78 2 0.00575187 2.97789 1.5135 3.80505
79 2 0.0429676 3.99274 2.75344 4.57378
80 2 0.0436798 3.36121 1.40103 5.53492
81 2 0.085393 3.6723 -0.739378 8.59285
82 2 0.0809752 4.59954 0.293674 7.49733
83 2 0.0421238 2.83203 0.46842 7.59425
87 2 0.0362208 5.6768 1.57427 1.94593
88 2 0.0295493 7.13912 0.779994 2.55815
93 2 0.0522192 2.59841 3.79273 6.17928
94 2 0.029931 1.51672 5.19143 6.18377
95 2 0.0864464 2.13732 4.5259 7.71446
117 3 -0.72533 6.19623 0.552451 5.55376
265 2 -0.0410242 4.7914 3.98521 2.29561
266 3 -0.720309 5.43205 2.90205 0.0553457
267 3 -0.68972 3.88854 5.08637 0.136715
283 1 -0.129831 2.40069 1.43946 0.826435
284 2 0.0331682 2.74477 0.503366 0.392479
285 2 0.00165206 1.62248 1.20661 1.55428
286 2 0.0461317 3.23045 1.93757 1.32702
311 2 0.0157641 1.0719 3.85371 0.109661
143 4 0.340425 -5.85302 11.1499 5.60443
144 4 0.283714 -2.76527 7.25317 5.21415
146 4 0.663941 -2.59801 9.66426 6.85729
147 4 1.12983 -6.74436 10.5023 8.46199
161 2 0.0278571 -6.79065 12.1691 4.79884
162 2 -0.00928699 -4.49173 11.949 5.88699
163 2 -0.0104876 -4.38516 7.35985 5.07143
164 2 0.0301269 -2.31492 7.02557 3.65721
166 2 0.0186613 -4.21263 9.64394 7.03765
167 2 0.0274687 -2.2026 11.1832 6.4225
169 2 0.00787819 -5.43777 9.9996 4.56755
176 2 0.020598 -2.62649 6.05162 7.28003
182 2 0.0750085 -0.748553 7.22785 8.51104
192 3 -0.614016 -2.22574 8.70142 5.65346
193 3 -0.671229 -6.50974 10.5749 6.88354
199 3 -0.777993 -1.9306 9.33963 8.25631
206 4 0.296899 -1.07588 9.00481 1.96381
213 1 -0.126068 -2.53887 10.047 2.30187
220 2 -0.00867684 -0.244637 9.64349 0.71537
221 2 -0.0100273 -1.51645 7.555 1.35002
227 2 0.040659 -3.26842 9.49794 2.89839
228 2 0.0114635 -3.01013 10.4104 1.39044
229 2 0.0374754 -2.19719 10.9035 2.88124
235 2 0.0567555 -0.552628 11.2551 5.1774
312 2 -0.00376989 -3.35437 12.3007 3.80523
317 2 0.0223731 -6.22358 10.2125 2.29979
321 2 0.0215502 -3.46552 13.001 0.357746
322 2 0.010596 -1.70715 12.8032 0.448599
325 2 0.011028 -4.49522 9.31791 0.193986
329 2 0.0313627 -4.51185 6.82701 8.30635
7 2 0.0499807 0.120726 6.20076 4.01091
183 2 0.0107336 0.816081 6.57463 7.98022
207 4 0.654528 0.931464 9.47668 4.23465
214 1 -0.10798 1.11799 8.42401 5.7873
215 1 -0.116033 0.369255 11.2451 4.6047
231 2 0.0386151 1.33286 7.40439 5.4762
232 2 0.0729783 0.212083 8.4304 6.38494
242 3 -0.583757 -0.0872335 8.74718 3.17594
291 1 -0.145939 2.35594 7.34734 1.10772
292 2 0.0440408 2.10797 8.36435 0.833964
293 2 0.0512728 2.9904 7.35367 1.9832
294 2 0.0237704 1.44656 6.80045 1.32588
23 4 0.753839 -0.398365 2.75626 13.2437
44 1 -0.138004 -0.93218 1.35224 14.2933
60 2 0.0459503 -1.70559 3.27504 12.3609
62 2 -0.0500267 -0.446008 3.62484 16.601
76 2 0.0455922 -1.42542 0.59089 13.6941
77 2 -0.0021396 -1.60006 1.66076 15.0992
170 2 0.0220477 -0.617032 4.0586 8.95562
19 4 0.391086 1.56145 0.480461 17.0118
21 4 1.57506 2.20368 -0.9655 12.668
22 4 1.56418 1.0616 1.27841 10.9494
25 4 1.055 5.76753 -0.325333 16.5966
27 4 0.689613 3.88493 1.54361 9.50768
29 4 1.6121 3.63592 0.808196 14.6693
30 4 1.03566 3.10004 4.50458 17.1731
34 4 0.715374 0.490142 4.44116 15.5535
48 1 -0.0913942 5.12459 1.14824 10.8585
58 2 0.00300657 0.235721 -0.299588 16.4716
75 2 0.0843953 -0.0327367 0.91066 14.7227
84 2 0.11081 4.95101 0.155757 11.2688
85 2 0.0511698 4.96816 1.88898 11.6417
86 2 0.0765678 6.14672 1.20832 10.4935
112 3 -0.847792 -0.105099 1.21752 9.83196
113 3 -0.838777 1.19241 -0.244206 11.5818
114 3 -0.713369 0.699602 2.31403 12.1498
116 3 -0.727841 2.43193 1.7417 10.2233
119 3 -0.880375 3.11345 0.22533 13.2922
120 3 -0.75437 4.80261 -0.261176 15.2286
121 3 -0.685147 2.45556 0.887644 15.7744
122 3 -0.689708 4.28243 2.97018 8.78946
125 3 -0.710662 4.34077 2.24891 14.4363
126 3 -0.618538 0.0921121 4.03392 14.0895
127 3 -0.639936 2.00991 4.24646 15.9722
171 2 0.094405 3.21113 3.81658 12.0195
198 3 -0.60866 1.39029 4.74441 10.4142
46 1 -0.15557 -2.68528 11.0354 17.3293
115 3 -0.721101 -6.82812 11.3452 13.8206
145 4 0.696189 -2.35957 6.25686 11.7001
148 4 1.15181 -4.70496 9.98069 10.7299
151 4 1.4565 -1.74289 10.1326 9.66808
155 1 -0.0915218 -1.98937 7.17494 13.2618
156 1 -0.145821 -5.32637 8.28121 11.2285
165 2 0.0213248 -2.76675 7.3145 10.4928
168 2 0.0479348 -7.45894 11.9555 8.89474
177 2 0.0957859 -1.1424 7.84593 13.1393
178 2 0.0597208 -1.73433 6.42283 14.01
179 2 0.0566408 -2.86323 7.73179 13.6027
180 2 0.0369293 -4.98199 7.54657 10.5083
181 2 0.0515953 -4.97944 8.01552 12.2227
188 2 0.0695729 -1.07146 10.7552 13.3079
194 3 -0.648822 -3.66837 5.31726 11.8701
195 3 -0.798551 -5.37999 10.4063 9.30464
196 3 -0.822157 -5.05019 11.0786 11.8757
197 3 -0.623344 -1.09914 5.46077 11.0897
200 3 -0.815331 -1.44741 11.7094 9.35105
201 3 -0.798844 -3.08696 10.0197 10.576
203 3 -0.748922 -0.492452 9.48334 10.5108
258 4 0.352023 -6.95512 9.81255 14.3358
259 1 -0.11976 -7.09719 9.72751 16.1984
260 2 0.0359198 -5.50637 9.08293 14.0253
262 2 0.0390895 -6.1561 10.0347 16.6528
275 2 0.012281 -0.682713 8.9642 16.3588
301 1 -0.134655 -4.27006 7.21355 16.6991
302 2 0.0169755 -3.25286 6.81759 16.7228
303 2 0.0374605 -4.2626 8.19481 16.2209
320 2 0.0381041 -2.71966 10.3446 16.4955
64 2 -0.026351 0.0684096 6.00161 15.7813
149 4 0.689934 -0.0298449 5.30096 9.89299
150 4 0.737274 2.57296 5.22207 11.3916
152 4 0.687342 2.07204 7.5579 13.2173
153 4 0.680581 0.514293 9.84065 11.7368
157 1 -0.124092 0.194067 6.79918 8.84427
159 1 -0.116662 -0.182016 11.1635 12.8231
172 2 0.0177793 1.54601 7.39306 14.7846
184 2 0.085112 0.702825 7.53955 9.46214
202 3 -0.608586 2.05078 6.04439 12.6757
204 3 -0.661822 0.971525 8.5069 12.5078
270 1 -0.117784 0.103672 9.57936 15.9238
273 2 0.0497815 0.341618 9.1888 14.9373
274 2 0.0687595 -0.248963 10.6072 15.8289
28 4 1.55708 7.09814 1.52291 6.50946
31 4 1.04057 5.58617 3.73102 8.14923
32 4 0.335866 3.91907 5.77046 6.57916
89 2 0.0525552 6.69253 2.40074 3.12753
96 2 0.0305565 4.73869 5.17972 4.36535
110 2 0.0919199 7.34206 5.93585 6.74713
118 3 -0.81199 7.47684 0.679042 7.83247
123 3 -0.790888 6.24231 2.83462 6.9408
124 3 -0.650057 5.102 5.14191 7.49697
263 4 0.772645 5.11004 4.29079 0.730127
264 2 -0.0236151 6.44909 5.21654 0.749478
35 4 1.1767 9.464 2.11492 4.49603
37 4 1.56285 12.0104 1.64964 6.12565
40 4 0.303286 9.97939 4.43051 2.65382
41 4 1.17013 10.8178 3.10129 8.61628
42 4 0.301327 9.69854 5.36177 6.97407
55 1 -0.127683 11.3653 3.69647 1.71811
56 1 -0.0610155 8.09734 5.54663 6.06446
65 2 -0.0403416 9.15737 0.846151 3.45884
69 2 -0.0122586 10.5032 5.73747 3.48165
70 2 -0.0164931 8.85706 5.08026 1.6587
72 2 0.0277169 10.8354 4.95469 5.84918
105 2 0.00267567 11.8025 4.37919 0.990092
106 2 0.0275451 10.9989 2.80696 1.20578
107 2 0.0620097 12.1326 3.39897 2.43354
108 2 0.12854 7.75345 4.60184 5.64633
128 3 -0.824338 8.44623 1.98071 5.71991
129 3 -0.818778 13.8705 -0.158143 8.37928
131 3 -0.76386 13.3984 2.43565 5.8783
132 3 -0.847401 10.9918 1.91333 4.91452
133 3 -0.817438 12.3208 0.014464 6.18926
137 3 -0.697399 9.21062 3.45176 3.65235
139 3 -0.842522 11.362 2.03728 7.55906
140 3 -0.652231 9.72241 4.11083 8.03029
304 1 -0.117106 13.2085 0.256496 0.698073
305 2 0.0159225 14.2866 0.359377 0.812563
306 2 0.0378964 12.7602 1.24992 0.702533
313 2 0.0106465 8.86805 2.52083 0.704039
315 2 0.0732173 14.568 0.0369806 4.18594
316 2 0.0458266 14.11 1.32237 3.04904
323 2 0.0415289 9.35415 0.356844 0.992521
324 2 0.0699892 10.0885 -0.831231 7.6076
52 1 -0.0966444 4.52299 6.1314 4.85276
61 2 0.0290764 3.60126 7.22258 7.30203
97 2 0.0732876 5.43974 6.71897 4.88996
98 2 0.0453442 3.77604 6.67394 4.27451
208 4 1.16887 5.01435 12.1738 7.16814
209 4 0.683865 3.89285 10.1171 3.61816
210 4 0.729126 6.55441 8.65134 8.46653
211 4 1.44741 6.10608 9.78445 5.66341
216 1 -0.136428 4.85431 9.75942 2.09284
219 2 -0.00785085 6.97542 7.5313 3.08199
222 2 -0.0312484 3.94411 11.0299 7.75899
223 2 0.0278284 3.75896 11.7584 3.78021
224 2 0.00560261 6.78885 7.03434 8.75744
230 2 0.0404184 1.95509 8.79986 6.37338
233 2 0.036926 0.211695 11.7721 3.66836
234 2 0.0485739 1.14923 11.7607 5.16001
236 2 0.0390711 5.15379 8.70971 2.10831
237 2 0.0252321 5.74321 10.3862 2.03241
238 2 0.0335506 4.23483 9.93098 1.21455
243 3 -0.652037 2.4023 9.54349 3.50871
245 3 -0.70017 7.28421 9.67413 4.57187
246 3 -0.756332 4.63314 9.60605 4.96555
247 3 -0.751461 6.25242 8.70932 6.8794
248 3 -0.775306 6.12873 11.3298 6.32808
295 1 -0.113445 1.33172 12.3822 1.16477
296 2 0.0419878 2.13598 12.2764 1.89257
297 2 0.0223074 0.428862 11.9314 1.57087
298 1 -0.149382 1.17533 11.5998 8.10763
299 2 0.0184095 0.753977 10.9055 7.38622
330 2 0.0377453 4.61677 12.7769 1.54406
57 1 -0.10551 10.215 6.91937 7.83883
109 2 0.0240223 8.23916 6.26011 5.25381
111 2 0.0656575 9.46922 7.08906 8.61628
205 4 0.315131 8.0013 8.72189 3.51092
212 1 -0.138484 8.67652 9.53743 2.01529
218 2 0.000471656 9.1995 7.9075 4.2611
225 2 0.0301198 7.89132 10.1068 1.51805
226 2 0.00193188 9.05804 8.78947 1.3202
328 2 0.0510457 10.2125 7.7749 7.16712
33 4 0.719195 5.71463 3.04352 14.1695
50 1 -0.135644 6.84642 4.06205 9.53263
53 1 -0.132551 7.13059 2.03123 13.535
63 2 -0.019241 5.3233 4.19114 13.0382
91 2 0.075173 7.34186 3.13035 9.78289
92 2 -0.00163758 6.31714 4.44483 10.3992
99 2 0.0160034 7.17428 2.02768 12.4492
100 2 0.0927884 7.02757 1.00489 13.8889
134 3 -0.651503 7.30815 -0.0896364 16.1393
141 3 -0.671831 6.17525 3.8937 15.4739
20 4 1.1939 14.119 0.666098 9.72521
26 4 1.13911 8.00096 -0.448028 8.85888
36 4 1.12101 9.8802 1.03008 10.7007
38 4 0.303179 8.567 0.779977 16.6314
39 4 0.687047 12.2784 -0.514466 11.664
54 1 -0.118694 10.0959 0.418191 15.7294
59 2 -0.0132452 13.1425 2.02256 9.63643
66 2 -0.0535174 9.56193 1.49172 12.2802
67 2 0.0331858 8.19982 2.36691 16.5697
68 2 -0.0408295 12.1139 0.16338 13.1332
71 2 -0.0256343 12.1277 4.02044 9.1048
90 2 0.0664561 7.58847 4.7762 9.19933
101 2 0.0254056 8.05544 2.45545 13.9272
102 2 0.0086599 10.9243 1.04616 16.0577
103 2 0.0318879 9.91868 0.598373 14.6682
104 2 0.0825702 10.3591 -0.632332 15.8724
130 3 -0.769318 8.5129 0.364544 10.1933
135 3 -0.745899 13.6824 -0.140829 11.0488
136 3 -0.767169 11.0453 -0.0782141 10.7735
138 3 -0.802735 10.2932 2.37704 9.95173
249 4 0.637273 10.8883 4.88082 12.9521
250 1 -0.14031 11.3583 3.22291 13.7402
251 1 -0.135382 9.19622 4.88572 12.102
252 2 0.0231688 12.2088 3.39626 14.3977
253 2 0.0241949 11.6383 2.49345 12.9882
254 2 0.0109924 10.5284 2.84326 14.3293
255 2 0.00835952 8.42318 4.66491 12.8351
256 2 0.0597329 9.15673 4.15795 11.2981
281 2 -0.0162879 10.3667 4.61187 16.3973
307 1 -0.115893 13.3534 -1.52439 15.1815
309 2 0.0431456 14.4215 -1.35203 15.2945
310 2 0.0273007 12.8429 -0.563443 15.2022
326 2 0.0704522 7.72936 -1.05597 12.2288
43 4 0.700018 5.7778 5.30704 16.0629
73 2 -0.033896 6.01403 6.42384 14.9069
74 2 -0.03926 6.83447 5.67062 17.2517
142 3 -0.706827 4.30202 5.47734 16.62
158 1 -0.15521 3.89043 6.18187 10.5215
160 1 -0.146441 3.74061 8.34937 13.2673
173 2 -0.00204956 1.88025 10.3971 10.9939
185 2 0.0220395 3.42701 7.13206 10.2543
186 2 0.0621064 4.23116 5.69921 9.61021
187 2 0.00235547 4.74536 6.3744 11.1696
189 2 0.0175599 4.02637 8.60289 12.2466
190 2 0.0299283 4.48 7.6733 13.6944
191 2 0.0397967 3.69961 9.26091 13.8629
217 1 -0.145308 5.21647 9.28111 9.57231
239 2 0.017878 5.36771 8.89332 10.5798
240 2 0.0162525 4.22019 9.01082 9.22523
241 2 0.0624357 5.31345 10.3681 9.60966
268 4 0.278244 1.58853 9.6087 17.0395
269 4 0.294977 4.49465 10.4752 16.5738
271 1 -0.116986 5.31616 8.76844 16.4951
272 2 0.0154714 2.03854 8.0461 17.3227
276 2 0.0185958 6.07305 8.64953 17.2654
277 2 0.0211059 5.77867 8.63367 15.5226
278 2 0.0699197 4.55343 8.0019 16.6234
279 3 -0.554254 2.87093 10.3096 16.3354
287 1 -0.12083 7.44858 8.89665 13.3692
288 2 0.0130106 7.42053 7.8351 13.6117
290 2 0.0360302 6.48495 9.34825 13.6014
300 2 0.0323605 1.68689 11.0442 8.88967
308 2 0.0336709 4.96936 11.0868 14.2178
314 2 -0.0219369 4.02459 10.9649 11.9099
327 2 0.0357573 0.52513 11.4765 13.5915
244 3 -0.73656 7.95408 9.33438 8.87894
257 2 0.0358063 9.02524 5.87996 11.6945
261 2 0.0324359 7.81766 10.3941 16.5354
280 4 0.286684 10.4009 6.08887 15.7059
282 2 -0.00756655 8.83389 6.53401 15.7983
289 2 0.0482896 7.62692 9.01535 12.3001
318 2 0.00993647 8.39156 8.71017 16.5141
319 2 0.0343114 9.29553 8.30303 11.217
331 3 -0.605702 10.817 5.98115 14.1771
ITEM: TIMESTEP
2
ITEM: NUMBER OF ATOMS
331
ITEM: BOX BOUNDS xy xz yz pp pp pp
-8.3499999999999996e+00 1.5708700000000000e+01 -8.2042000000000002e+00
-2.0055999999999998e+00 1.3086800000000000e+01 -1.4580000000000001e-01
0.0000000000000000e+00 1.7524799999999999e+01 -2.0055999999999998e+00
ITEM: ATOMS id type q x y z
1 4 0.682415 -0.812703 2.31823 5.1871
4 1 -0.126099 -0.86723 0.991372 3.77127
6 1 -0.130743 -1.03713 4.68276 1.90181
15 2 0.0289809 -1.98156 5.1091 2.19686
16 2 0.0229466 -1.15373 3.65949 1.59143
17 2 0.0115182 -0.595042 5.26725 1.11813
18 3 -0.619299 -0.441506 3.75438 4.62029
154 1 -0.105072 -2.22384 5.87085 6.29057
174 2 0.0591236 -1.14592 5.90157 6.31251
175 2 0.0894984 -2.55123 4.9079 5.91984
2 4 0.317844 0.111076 4.62018 3.40255
3 1 -0.108529 0.431303 1.76709 6.5548
5 1 -0.125533 1.89404 4.23267 2.98322
8 2 0.0137316 1.4024 1.79733 6.10822
9 2 0.0881928 0.179543 0.773341 6.87618
10 2 0.0812224 0.355871 2.46449 7.37035
11 2 0.0101724 0.11236 0.951615 3.34009
12 2 0.0240499 1.88689 3.18135 2.76986
13 2 0.0256982 2.51643 4.43667 3.83833
14 2 0.0372125 2.23287 4.78623 2.12652
24 4 0.295928 5.29845 0.774877 4.20514
45 1 -0.122267 3.72576 1.70593 4.56145
47 1 -0.101344 3.73542 0.232102 8.13778
49 1 -0.120427 6.31352 1.44057 2.80404
51 1 -0.103552 2.35713 4.72026 6.67123
78 2 0.00622696 2.98637 1.50812 3.80438
79 2 0.0424491 3.99802 2.74734 4.57249
80 2 0.0434141 3.36887 1.39782 5.53087
81 2 0.0848095 3.67259 -0.735173 8.59974
82 2 0.0799263 4.6005 0.300198 7.50406
83 2 0.0410737 2.83472 0.471887 7.60118
87 2 0.0375338 5.6726 1.5707 1.95155
88 2 0.0303001 7.13205 0.777276 2.56534
93 2 0.049971 2.60313 3.7989 6.17999
94 2 0.0297492 1.52538 5.19677 6.1839
95 2 0.0863692 2.1441 4.53156 7.71284
117 3 -0.709484 6.19475 0.551027 5.55198
265 2 -0.0367594 4.7821 3.9776 2.34512
266 3 -0.7585 5.4365 2.881 0.0539075
267 3 -0.71915 3.86966 5.09555 0.135737
283 1 -0.131937 2.41338 1.42132 0.844655
284 2 0.0330598 2.74269 0.509296 0.388538
285 2 0.00208162 1.62112 1.21165 1.54786
286 2 0.0450286 3.22725 1.94171 1.31997
311 2 0.0167822 1.05287 3.89605 0.132631
143 4 0.351662 -5.86918 11.1364 5.6447
144 4 0.296367 -2.73522 7.26013 5.26261
146 4 0.659436 -2.59446 9.61942 6.7965
147 4 1.16799 -6.73892 10.4672 8.45496
161 2 0.0275071 -6.84144 12.2179 4.76379
162 2 -0.00735322 -4.42746 11.9863 5.90426
163 2 -0.012273 -4.43487 7.35836 5.068
164 2 0.0301377 -2.30048 7.01778 3.61436
166 2 0.0213528 -4.26047 9.64503 7.04476
167 2 0.0359915 -2.1919 11.2274 6.40849
169 2 0.0057588 -5.41928 9.94083 4.52093
176 2 0.0192544 -2.62772 6.05497 7.27495
182 2 0.0746716 -0.750107 7.22005 8.51585
192 3 -0.636815 -2.21509 8.70048 5.64601
193 3 -0.695869 -6.52294 10.5599 6.90951
199 3 -0.73271 -1.92291 9.33014 8.26738
206 4 0.298895 -1.08757 9.02942 2.00742
213 1 -0.128589 -2.55609 10.0623 2.31134
220 2 -0.0074718 -0.21995 9.66532 0.675923
221 2 -0.008911 -1.53209 7.51183 1.33238
227 2 0.0395148 -3.26213 9.4937 2.89544
228 2 0.0119816 -3.00312 10.4051 1.38926
229 2 0.0364826 -2.19227 10.8987 2.87879
235 2 0.0563097 -0.549135 11.2466 5.17503
312 2 -0.00133945 -3.36625 12.2699 3.79414