ITEM: TIMESTEP
0
ITEM: NUMBER OF ATOMS
243
ITEM: BOX BOUNDS xy xz yz pp pp pp
-7.3456000000000001e+00 1.4691300000000000e+01 -7.3456000000000001e+00
0.0000000000000000e+00 1.2723000000000001e+01 0.0000000000000000e+00
0.0000000000000000e+00 1.5963100000000001e+01 0.0000000000000000e+00
ITEM: ATOMS id type q x y z
10 2 -0.000106095 -0.242732 4.17963 1.82324
13 2 8.48354e-05 -0.193127 4.15419 7.1465
88 1 -8.20526e-05 -1.38221 3.00144 2.26529
90 1 -9.36923e-05 -1.20575 5.52219 1.36473
91 1 0.000127311 -1.19813 2.90714 7.63102
93 1 -6.45759e-06 -1.8172 5.79805 3.98496
94 1 7.2879e-05 -1.2387 5.3392 6.67595
11 2 -1.54553e-05 -3.3942 6.10456 3.47343
6 2 2.50784e-06 1.34985 2.20369 5.31633
29 2 -2.89888e-06 3.90258 1.88782 3.51422
30 2 -5.49922e-05 6.1323 2.36606 0.0214016
31 2 5.71427e-05 7.17744 0.0392436 7.11424
33 2 3.61118e-05 6.22351 2.24099 5.31847
37 2 -3.22976e-05 4.60005 4.23956 1.80833
38 2 -2.9469e-05 1.39735 6.12248 3.56349
40 2 6.57608e-05 4.70167 4.13789 7.01833
65 2 -4.84889e-06 6.22211 6.20137 3.59374
82 1 -8.08463e-05 1.25443 1.37362 1.37957
83 1 -2.46467e-05 0.501472 1.68008 3.99924
84 1 5.95257e-05 1.154 1.15598 6.62398
89 1 -0.00010669 0.595294 3.78979 0.386937
92 1 4.78755e-05 0.881287 3.71645 5.86256
118 1 -3.05726e-05 3.35928 0.350126 3.08978
119 1 -1.44457e-06 2.94643 2.34373 4.79865
120 1 -5.34091e-05 5.96085 1.09393 1.1272
123 1 3.0035e-05 5.57397 1.65227 3.92755
124 1 6.41266e-05 6.16781 1.33539 6.72925
130 1 -3.37306e-05 3.55683 2.94847 2.24341
131 1 -4.44727e-05 5.56119 3.88472 0.527411
132 1 -9.14058e-05 0.773507 4.60024 3.14774
134 1 -5.40027e-05 3.6676 5.58267 1.36884
135 1 0.000105976 3.56857 2.8353 7.34438
136 1 5.75903e-05 5.64458 3.81995 5.64684
139 1 -3.20269e-05 3.02921 5.8572 3.96711
140 1 2.80261e-05 3.6847 5.44067 6.63943
193 1 -3.40243e-05 5.61938 4.67813 3.07523
1 2 -4.14477e-05 2.32828 0.0421199 1.78141
2 2 -2.49157e-05 13.4777 1.9545 3.63694
56 2 3.52783e-05 8.67032 1.96667 3.60105
58 2 6.63468e-05 12.0302 0.00130122 7.11411
60 2 3.79509e-05 11.0559 2.29092 5.40408
64 2 -6.32112e-06 9.58683 4.17739 1.75527
67 2 6.78092e-05 9.45201 4.30378 7.15349
172 1 -2.88399e-05 12.9794 0.37047 3.17341
173 1 -3.73585e-07 8.01644 0.518206 3.04272
174 1 1.66637e-05 7.82842 2.51367 4.99053
176 1 -1.45452e-05 11.0754 1.28037 1.43611
180 1 7.65835e-06 12.6488 2.6129 4.9318
181 1 4.23103e-05 10.267 1.64295 4.02028
182 1 6.16823e-05 10.9396 1.29203 6.71947
190 1 3.19016e-05 8.57919 2.92512 2.26972
191 1 -3.12712e-05 10.4719 3.81427 0.407693
192 1 -4.01426e-05 10.672 4.57981 3.0483
196 1 -3.44248e-05 8.5252 5.41375 1.40608
197 1 6.86223e-05 8.45884 3.03722 7.67196
198 1 5.24584e-05 10.3071 3.78749 5.76179
203 1 3.14369e-05 7.80862 5.89341 4.08083
204 1 7.54753e-05 8.50203 5.71894 6.73208
57 2 -3.57648e-05 11.0696 2.21832 0.0312113
4 2 6.56176e-05 -5.05756 12.6499 7.06206
28 2 -1.55944e-05 -0.230029 12.6463 1.6765
12 2 -5.55588e-05 -1.07016 6.54026 0.00339763
15 2 1.31593e-05 -1.01865 6.44218 5.32403
19 2 -4.74502e-05 -2.62261 8.41966 1.73271
21 2 -3.19582e-05 -3.64228 10.7023 0.113569
22 2 2.33277e-05 -2.65365 8.50714 7.05227
24 2 -2.41347e-05 -3.5456 10.7201 5.18904
47 2 -1.71221e-05 -1.05157 10.3826 3.52473
100 1 -3.02966e-05 -3.51874 7.06279 2.13601
101 1 -2.8373e-05 -1.75219 8.05467 0.285469
102 1 -2.51887e-05 -6.15023 11.6054 2.14036
103 1 -7.06943e-05 -3.73073 9.67547 1.40907
104 1 -2.61789e-05 -4.1618 12.2443 0.443434
105 1 6.91574e-05 -3.68528 7.21598 7.55094
106 1 2.49923e-05 -1.70925 7.95647 5.73536
107 1 0.000101209 -6.1092 11.363 7.46778
108 1 -5.05232e-05 -4.46956 10.175 3.90943
109 1 -3.65738e-06 -3.70282 9.67813 6.47906
110 1 2.90689e-05 -4.02731 12.2814 5.77565
150 1 -3.70603e-05 -1.50764 8.82696 2.98145
151 1 -3.96146e-05 -1.17697 11.3609 2.17553
152 1 -3.56577e-05 -1.93536 11.0449 4.81119
158 1 7.80752e-05 -1.26969 11.5544 7.52941
55 2 -2.05372e-05 4.67036 12.6862 1.75366
42 2 -4.25513e-06 3.79112 6.51453 5.32814
46 2 -6.99468e-06 2.19761 8.42845 1.81591
49 2 2.50174e-05 2.17966 8.48441 7.10419
51 2 2.99026e-05 1.39567 10.8788 5.42932
73 2 -3.68983e-05 7.08141 8.46136 1.79923
74 2 -6.62337e-07 3.78469 10.4342 3.51788
76 2 6.30955e-05 7.10682 8.52537 7.09221
78 2 2.98744e-05 6.21382 10.7458 5.25258
133 1 -3.62833e-06 0.592412 6.69971 4.93218
148 1 -2.0852e-05 1.16251 7.15622 2.26116
149 1 8.92591e-06 3.08843 8.09335 0.443058
153 1 -1.03337e-08 1.19205 9.74278 1.30696
154 1 -5.02221e-06 0.567618 12.2002 0.308242
155 1 7.26065e-05 1.09103 7.22309 7.54681
156 1 2.51966e-05 3.10757 8.01158 5.7823
160 1 1.78415e-05 0.496586 10.2578 4.12208
161 1 3.67079e-05 1.26565 9.85528 6.74581
162 1 5.75976e-05 0.841479 12.4355 5.82316
194 1 -1.02148e-05 5.38094 6.87805 4.91911
214 1 -1.28974e-05 6.07549 7.20777 2.20138
217 1 -2.24704e-05 3.21318 8.87988 3.0858
218 1 8.07593e-06 3.56869 11.4038 2.15465
219 1 4.85636e-06 2.99739 10.9718 4.88442
221 1 -8.48737e-05 6.10282 9.75049 1.30424
222 1 -4.81454e-05 5.54762 12.3298 0.397897
223 1 9.61006e-05 5.93169 7.22897 7.3253
227 1 7.43949e-05 3.67178 11.4521 7.60234
230 1 3.3662e-06 5.33472 10.1214 3.9401
231 1 4.05748e-05 6.15232 9.84525 6.67925
232 1 8.40541e-05 5.58355 12.2955 5.75645
39 2 -2.0148e-05 3.7482 6.58854 0.00595513
215 1 -3.14851e-05 8.07382 8.04397 0.442922
229 1 4.60883e-06 7.81596 11.241 4.78375
224 1 4.73149e-05 8.14196 8.13667 5.72896
216 1 -5.96868e-05 8.08263 8.94652 3.07225
20 2 -3.61293e-05 8.59406 10.5235 3.42924
66 2 -4.76253e-05 8.65462 6.52078 0.121548
69 2 3.05664e-05 8.68426 6.60829 5.29743
202 1 -1.87583e-05 10.3758 6.73366 4.79542
16 2 -1.52931e-05 -0.24223 4.28717 12.4371
95 1 -2.45608e-05 -1.34723 3.07497 12.8976
97 1 -6.36957e-05 -1.87409 5.78921 14.7387
98 1 8.74285e-05 -1.9522 5.82933 9.38391
99 1 -7.08239e-06 -1.12167 5.69626 12.0865
17 2 -5.26406e-05 -3.47328 6.18567 14.2227
7 2 -2.31173e-05 2.21219 0.074269 12.4305
9 2 4.99227e-05 1.37567 2.34849 10.6589
32 2 7.63694e-05 3.72161 1.94191 8.8097
34 2 -3.83066e-05 7.07763 0.13356 12.3442
35 2 -5.76944e-05 3.79 1.98869 14.1125
36 2 -1.32312e-05 6.24842 2.43963 10.5987
41 2 6.84729e-05 1.2397 6.16473 8.87709
43 2 -2.82053e-05 4.69814 4.34911 12.3265
44 2 -4.1218e-05 1.34135 6.13243 14.2254
68 2 7.00472e-05 6.05815 6.22087 8.70364
71 2 -5.65453e-05 6.22861 5.97706 14.3304
85 1 -3.83598e-05 0.526564 1.54453 14.6209
86 1 0.000100713 0.425782 1.57094 9.5056
87 1 -1.55147e-05 1.36777 1.47102 12.1165
96 1 6.83863e-05 0.756331 3.91434 11.067
121 1 7.9456e-05 3.12239 0.452772 8.40476
122 1 6.93556e-05 2.90097 2.73984 10.0769
125 1 -6.34367e-05 3.43848 0.398676 13.5746
126 1 -7.41844e-05 5.40457 1.90879 14.539
127 1 -7.79963e-05 2.83724 2.52527 15.3911
128 1 7.34654e-05 5.4458 1.80264 9.24737
129 1 -5.69859e-05 6.03492 1.37452 11.914
137 1 0.000108201 0.734546 4.59595 8.47191
141 1 -1.79986e-05 3.64285 3.0589 12.8047
142 1 2.06981e-05 5.59847 3.98679 10.94
143 1 -6.65622e-05 0.760569 4.62889 13.7739
144 1 -7.62435e-06 3.01047 5.78991 14.6802
146 1 8.60035e-05 2.88803 6.08198 9.2948
147 1 1.13509e-05 3.66608 5.6072 11.9223
200 1 8.15507e-05 5.67137 4.68376 8.30059
208 1 -8.48019e-05 5.70451 4.56322 13.6374
3 2 -6.76431e-05 1.27074 2.30335 15.9168
8 2 -6.40441e-05 13.5452 1.97067 14.1493
5 2 8.15705e-05 13.5464 1.84432 8.95079
14 2 6.23687e-05 11.1224 6.16509 8.8887
59 2 2.04113e-05 8.65401 1.88008 8.90826
61 2 -6.5317e-05 12.0578 0.0512999 12.3834
62 2 -6.13593e-05 8.64601 1.92748 14.2316
63 2 2.21235e-05 11.1112 2.28675 10.6288
70 2 -6.54724e-05 9.62797 4.31283 12.422
175 1 -8.67317e-05 12.6765 2.52795 15.4928
177 1 7.57087e-05 12.9846 0.368076 8.47804
178 1 3.65061e-05 8.08829 0.311609 8.47794
179 1 -2.14724e-05 7.89832 2.53327 10.2554
183 1 -8.74748e-05 13.0539 0.389934 13.6453
184 1 -5.79021e-05 8.0369 0.462643 13.7158
185 1 -3.4158e-05 10.2275 1.49032 14.7344
186 1 -5.76314e-05 7.76949 2.48882 15.5852
187 1 6.71993e-05 12.7362 2.51461 10.3189
188 1 7.00716e-05 10.3756 1.65004 9.25537
189 1 -4.22646e-05 10.9703 1.25082 11.9328
199 1 9.05673e-05 10.5272 4.60998 8.34518
205 1 -7.50716e-05 8.63168 3.06336 12.9645
206 1 3.23157e-05 10.5428 3.79105 11.0939
207 1 -8.03668e-05 10.5548 4.72588 13.7895
209 1 -6.82686e-05 7.87116 5.74234 14.7333
212 1 9.18961e-05 7.71162 6.13917 9.21708
213 1 -6.88532e-05 8.41391 5.41446 11.8602
18 2 2.92337e-05 -1.1492 6.60116 10.6346
25 2 -2.03317e-05 -2.70684 8.57258 12.298
27 2 2.96885e-05 -3.48768 10.9927 10.6634
50 2 4.07654e-05 -1.15581 10.4328 8.83216
53 2 -1.34666e-05 -1.20611 10.4287 14.1576
111 1 -2.27971e-05 -3.5529 7.2049 12.8505
112 1 2.08962e-05 -1.73265 8.14995 11.0256
113 1 -1.97559e-05 -4.46023 10.1561 14.6991
114 1 -1.78228e-05 -6.20168 11.539 12.9221
115 1 8.32095e-05 -4.36883 10.2405 9.39726
116 1 -3.05215e-06 -3.61184 9.98867 12.0206
117 1 3.30128e-05 -4.22899 12.4596 11.0338
157 1 3.82317e-05 -1.75994 8.9439 8.45388
159 1 2.88043e-05 -1.82826 11.1751 10.2289
165 1 -2.13723e-05 -1.74197 8.89229 13.7225
167 1 -2.27016e-06 -1.1943 11.4212 12.7692
168 1 -3.76284e-05 -2.08735 11.0808 15.5027
26 2 -4.26487e-05 -6.04642 10.4907 14.2469
45 2 2.04319e-05 3.77445 6.63657 10.6118
52 2 -2.93023e-05 2.34546 8.57858 12.4217
54 2 -1.24097e-05 1.33947 10.8709 10.6924
77 2 2.44733e-05 3.76084 10.3429 8.89808
79 2 -1.5897e-05 7.21932 8.46295 12.5714
80 2 -6.25982e-05 3.85816 10.4802 14.1898
81 2 1.58499e-05 6.25759 10.6741 10.7302
138 1 6.17736e-05 0.498809 6.87892 10.1881
145 1 -6.90642e-05 0.526696 6.80378 15.5442
163 1 -3.14047e-06 1.3934 7.16717 12.8335
164 1 4.09111e-06 3.39143 8.23879 11.1356
166 1 1.17423e-06 0.385209 9.99182 14.6846
169 1 4.55471e-05 0.421245 10.2627 9.36097
170 1 -2.37082e-05 1.28713 9.76745 11.9889
171 1 5.17497e-06 0.753349 12.4283 11.0867
201 1 3.23637e-05 5.40908 6.85513 10.0893
210 1 -4.42914e-05 5.41315 6.74582 15.5802
226 1 2.85619e-05 3.1931 8.76729 8.39551
228 1 -1.00788e-05 2.96592 10.9908 10.2281
233 1 -1.8482e-05 6.17643 7.13164 13.044
236 1 -6.08631e-05 3.35222 8.90226 13.8497
237 1 -6.12732e-05 5.46507 10.1758 14.6212
238 1 -6.13932e-05 3.68953 11.4448 12.804
239 1 -4.28247e-05 2.8935 11.3025 15.3132
241 1 6.51883e-05 5.35277 10.0715 9.41458
242 1 -1.16991e-05 6.23211 9.73299 12.1064
243 1 1.61233e-06 5.65169 12.2199 11.1095
48 2 7.4875e-06 1.31937 10.7526 15.8357
75 2 -6.86584e-05 6.22677 10.8336 15.9618
23 2 7.59445e-05 8.66071 10.3825 8.89483
72 2 5.26826e-06 8.62027 6.52709 10.5675
195 1 -5.3347e-05 10.3171 6.78618 15.5486
211 1 3.32425e-05 10.2292 6.76773 10.1489
220 1 -8.0763e-05 7.88527 11.0885 15.6635
225 1 7.56012e-05 8.19599 8.84269 8.42691
234 1 3.17004e-05 8.14957 8.0187 11.2383
235 1 -3.45076e-05 8.20439 8.91903 13.8424
240 1 5.70957e-05 7.88816 11.0449 10.2358
ITEM: TIMESTEP
100
ITEM: NUMBER OF ATOMS
243
ITEM: BOX BOUNDS xy xz yz pp pp pp
-7.3456000000000001e+00 1.4691300000000000e+01 -7.3456000000000001e+00
0.0000000000000000e+00 1.2723000000000001e+01 0.0000000000000000e+00
0.0000000000000000e+00 1.5963100000000001e+01 0.0000000000000000e+00
ITEM: ATOMS id type q x y z
10 2 0.000100854 -0.244892 4.16136 1.78642
13 2 -6.86338e-05 -0.190664 4.12951 7.17735
88 1 9.46952e-05 -1.35077 2.969 2.2891
90 1 5.90938e-05 -1.09836 5.57426 1.28126
91 1 -8.6162e-05 -1.08297 2.79125 7.65869
93 1 6.00743e-05 -1.84081 5.78721 4.03068
94 1 -4.26314e-05 -1.27642 5.27282 6.72831
11 2 5.54983e-05 -3.43492 6.04494 3.52502
6 2 3.25291e-05 1.34689 2.20682 5.34701
29 2 6.01885e-05 3.85209 1.80608 3.51189
75 2 3.28094e-05 6.22091 10.9083 0.0129582
31 2 5.54648e-06 7.14094 0.0489828 7.10914
33 2 1.85479e-05 6.31151 2.35033 5.19938
37 2 5.32076e-05 4.66035 4.18137 1.81576
38 2 6.98902e-05 1.3911 6.05538 3.47436
40 2 -3.22635e-06 4.62861 4.27037 7.0377
65 2 3.57547e-05 6.28301 6.16476 3.63037
82 1 6.24928e-05 1.33877 1.36344 1.35226
83 1 7.19731e-05 0.514681 1.62804 4.03288
84 1 3.63305e-06 1.00135 1.05908 6.58085
89 1 9.35149e-05 0.664051 3.80292 0.41313
92 1 -6.66197e-06 0.898147 3.76453 5.80872
118 1 7.8989e-05 3.40023 0.247792 2.9358
119 1 5.96615e-05 2.96132 2.30361 4.9144
120 1 3.21976e-05 5.8468 1.16912 1.21374
123 1 3.86768e-05 5.52807 1.59306 3.96372
124 1 -6.26946e-06 6.04838 1.21161 6.51414
130 1 4.78845e-05 3.64112 2.86019 2.26617
131 1 5.35353e-05 5.65287 3.89364 0.499033
132 1 0.000103515 0.932613 4.50686 2.95589
134 1 7.81317e-05 3.5147 5.38717 1.35292
135 1 -1.92617e-05 3.59811 2.94327 7.45236
136 1 1.62126e-05 5.59972 3.90303 5.67776
139 1 7.10291e-05 2.98004 5.85638 3.98398
140 1 3.06248e-05 3.58101 5.52809 6.51689
193 1 4.67565e-05 5.55783 4.66625 3.18457
1 2 6.07341e-05 -5.11425 12.7 1.73192
2 2 3.47926e-05 13.5349 1.90908 3.66667
56 2 8.67128e-06 8.72155 1.8073 3.46592
58 2 -2.49105e-05 4.57 12.7128 7.18901
60 2 -4.34214e-05 11.0388 2.28863 5.38712
64 2 2.65731e-05 9.53637 4.17666 1.793
67 2 -6.47657e-05 9.46875 4.33706 7.14389
172 1 4.56285e-05 12.9409 0.41154 3.10335
173 1 8.81365e-06 8.1611 0.283617 2.9363
174 1 -1.65472e-06 7.88529 2.62858 4.71691
176 1 0.000124637 10.8178 1.22055 1.37889
180 1 -5.83095e-05 12.7202 2.56934 4.98991
181 1 6.80665e-06 10.2169 1.47188 4.12874
182 1 -6.15451e-05 10.9131 1.31707 6.77465
190 1 1.99326e-05 8.43098 3.00251 2.35053
191 1 5.70936e-05 10.3357 3.80587 0.399907
192 1 3.22601e-05 10.6907 4.45645 3.06405
196 1 1.92017e-05 8.72837 5.58896 1.53272
197 1 -6.35428e-05 8.31979 3.18959 7.6809
198 1 -6.03187e-05 10.3852 3.80202 5.81889
203 1 4.23939e-06 7.87015 5.87158 4.04274
204 1 -2.85722e-05 8.48217 5.65678 6.63821
57 2 0.000101465 11.0363 2.27353 0.0374682
4 2 -3.41987e-05 -5.15469 12.6406 7.15382
28 2 1.33937e-05 -0.421375 12.6532 1.69127
202 1 4.65264e-05 10.364 6.85461 4.79964
15 2 1.62769e-05 -1.03404 6.45037 5.38008
19 2 7.28303e-05 -2.63253 8.34975 1.71724
21 2 4.3097e-05 -3.48417 10.7969 0.0278344
22 2 2.3797e-05 -2.62327 8.47384 7.05999
24 2 9.62379e-05 -3.49676 10.7427 5.20161
47 2 5.29009e-05 -0.969304 10.3 3.5324
100 1 8.72497e-05 -3.61024 7.10281 2.19164
101 1 2.34174e-05 -1.6351 8.01549 0.396146
102 1 3.8638e-05 -6.27662 11.4949 2.19886
103 1 0.00011016 -3.65495 9.68456 1.29634
104 1 5.29731e-05 -4.15646 12.3168 0.352069
105 1 -5.76302e-06 -3.61202 7.14542 7.60708
106 1 3.77423e-05 -1.488 8.02473 5.82274
107 1 -7.89096e-05 -6.19611 11.3224 7.45297
108 1 0.000120881 -4.33134 10.2889 3.84675
109 1 7.54443e-05 -3.72923 9.64486 6.49231
110 1 4.34465e-05 -4.09612 12.2736 5.8579
150 1 5.16267e-05 -1.59686 8.75891 3.06099
151 1 1.71884e-05 -1.24787 11.3033 2.20151
152 1 9.91688e-05 -1.81008 10.9713 4.85918
158 1 -1.95593e-05 -1.09605 11.4147 7.40458
55 2 8.02507e-05 4.55295 12.7026 1.79694
42 2 5.55823e-05 3.76858 6.65065 5.25171
46 2 4.72972e-05 2.22197 8.40233 1.76246
49 2 2.16468e-05 2.17199 8.55743 7.12147
51 2 5.59436e-05 1.41337 10.9023 5.37854
73 2 3.26927e-05 7.05528 8.41456 1.75841
74 2 7.80544e-05 3.82138 10.3161 3.55854
76 2 -1.3555e-05 7.14028 8.54063 6.98311
78 2 1.74911e-05 6.22285 10.8769 5.27943
133 1 2.35569e-05 0.583942 6.60695 4.93454
148 1 7.34078e-05 1.09744 7.2338 2.29503
149 1 3.98088e-05 3.25279 8.03803 0.496997
153 1 -1.05169e-05 1.3406 9.80099 1.33435
154 1 6.38533e-06 0.677104 12.3705 0.416913
155 1 -1.74133e-05 1.03971 7.33879 7.6422
156 1 3.75605e-05 3.0152 8.15088 5.71396
160 1 4.72345e-05 0.658646 10.1401 4.01943
161 1 4.23203e-05 1.14347 9.86393 6.69505
162 1 1.8897e-05 0.843898 12.4449 5.82539
194 1 5.47834e-05 5.40671 6.99841 4.89843
214 1 4.95841e-05 6.06371 7.21602 2.34148
217 1 7.25524e-05 3.15887 8.80969 3.11269
218 1 5.8269e-05 3.61744 11.386 2.31788
219 1 7.16244e-05 3.05092 11.0735 4.87049
221 1 2.56435e-05 6.05599 9.6541 1.20503
222 1 5.95118e-05 5.63069 12.4516 0.559911
223 1 -1.79296e-05 5.9387 7.41179 7.46395
227 1 1.70611e-05 3.66549 11.3954 7.60246
230 1 7.60779e-05 5.37638 10.0386 3.98725
231 1 -2.05647e-05 6.15995 9.9146 6.61729
232 1 -7.15058e-07 5.44212 12.4296 5.80466
39 2 3.64084e-05 3.77091 6.45583 0.0865153
215 1 3.43406e-05 8.13667 8.03432 0.42193
229 1 9.55173e-07 7.84734 11.1766 4.8292
224 1 2.08032e-05 8.18634 8.19411 5.61383
216 1 4.04182e-05 8.05382 8.92233 3.04129
20 2 5.83984e-05 -6.02046 10.4281 3.51531
66 2 1.7711e-05 8.66165 6.47806 0.104205
69 2 9.42674e-06 8.74326 6.59966 5.30989
16 2 -7.32253e-06 -0.248841 4.34281 12.4787
95 1 4.18836e-05 -1.3028 3.05725 12.8531
97 1 2.35778e-05 -1.96365 5.83035 14.6251
98 1 -0.000120053 -2.02812 5.85841 9.49095
99 1 -6.67473e-05 -1.18466 5.69339 11.9922
17 2 -6.49699e-06 11.1142 6.16639 14.1434
7 2 -5.00566e-05 2.28388 0.142516 12.409
9 2 -6.41182e-05 1.36303 2.41951 10.6509
32 2 -4.55601e-05 3.71342 1.9189 8.83828
34 2 2.57799e-05 7.13486 0.0974279 12.3206
35 2 -1.60583e-05 3.79159 2.10274 14.1162
36 2 -2.28953e-05 6.18185 2.42016 10.6158
41 2 -8.38181e-05 1.2486 6.20565 8.87811
43 2 -7.88976e-05 4.74494 4.41081 12.3324
44 2 1.40823e-05 1.42636 6.13811 14.206
68 2 -4.68139e-05 6.19912 6.24299 8.72589
71 2 -2.40338e-05 6.29382 6.11343 14.2432
85 1 5.72246e-05 0.415992 1.57776 14.7469
86 1 -9.3219e-05 0.580215 1.48804 9.49923
87 1 -3.98424e-05 1.33745 1.48341 12.1212
96 1 -5.6115e-05 0.578811 3.84936 11.0812
121 1 -6.74583e-05 3.13013 0.402204 8.41949
122 1 -6.13883e-05 2.86088 2.86865 10.0325
125 1 -3.54659e-05 3.2772 0.5426 13.7139
126 1 -2.08393e-06 5.41793 1.83204 14.4704
127 1 2.55801e-05 2.92074 2.67887 15.4154
128 1 -3.8332e-05 5.24308 1.73574 9.36251
129 1 -1.0656e-06 6.06561 1.28936 11.8607
137 1 -9.62595e-05 0.692187 4.67142 8.47258
141 1 -5.69522e-05 3.67024 3.12472 12.7925
142 1 -7.42459e-05 5.76965 3.98196 11.0736
143 1 2.85785e-05 0.867822 4.59593 13.7789
144 1 2.66799e-05 3.0005 5.78109 14.7408
146 1 -6.91514e-05 2.88199 5.98722 9.32308
147 1 -0.000101927 3.77846 5.75459 11.9798
200 1 -3.39366e-05 5.66612 4.62411 8.31571
208 1 -4.94176e-05 5.6775 4.66826 13.6928
3 2 6.84694e-05 1.33381 2.35032 15.9189
8 2 5.24294e-05 13.5313 1.95942 14.1153
5 2 -8.80899e-05 13.6196 1.71929 9.01555
14 2 -7.66794e-05 11.104 6.12433 8.92717
59 2 -3.46711e-05 8.5904 2.02783 8.89249
61 2 -3.352e-05 12.0833 0.00260938 12.3192
62 2 6.44402e-05 8.58903 1.87059 14.2697
63 2 -5.42593e-05 11.1829 2.37432 10.6727
70 2 2.00896e-05 9.54325 4.27214 12.3826
175 1 7.28969e-05 12.6532 2.47136 15.4682
177 1 -8.32446e-05 13.0629 0.235044 8.44437
178 1 -2.30775e-07 8.07835 0.459759 8.47406
179 1 -2.63083e-05 7.83319 2.57866 10.2727
183 1 -1.81041e-05 12.9794 0.384308 13.6767
184 1 3.31653e-05 7.95563 0.398926 13.7712
185 1 0.000107629 10.2247 1.50904 14.7443
186 1 3.94872e-05 7.77774 2.6051 15.6317
187 1 -6.32087e-05 12.7543 2.54789 10.1702
188 1 -8.53965e-05 10.3132 1.71844 9.40565
189 1 -4.62221e-05 10.9502 1.24643 11.9501
199 1 -9.70082e-05 10.5047 4.56132 8.39179
205 1 4.74847e-05 8.56799 2.95106 12.9414
206 1 -5.03296e-05 10.6549 3.89481 11.173
207 1 3.92202e-05 10.5923 4.64437 13.6858
209 1 2.64572e-05 7.82015 5.64318 14.8073
212 1 -6.15264e-05 7.84277 6.05104 9.24537
213 1 1.31484e-05 8.43719 5.48938 11.8832
18 2 -0.000108333 -1.17125 6.69869 10.6291
25 2 -7.8578e-05 -2.77258 8.55047 12.3602
27 2 -7.36041e-05 -3.54968 10.9224 10.6575
50 2 -2.46938e-05 -1.17424 10.4552 8.84734
53 2 -4.81407e-05 -1.12594 10.3658 14.1135
111 1 -7.10387e-05 -3.82994 7.32686 12.9
112 1 -0.000117134 -1.83133 8.25966 10.9927
113 1 -2.59974e-06 -4.48474 10.1999 14.786
114 1 -2.7013e-05 -6.12403 11.6006 12.9726
115 1 -7.12009e-05 -4.32709 10.0522 9.34493
116 1 -5.61461e-05 -3.83686 9.81003 12.0089
117 1 -9.39565e-05 -4.20423 12.4243 10.9533
157 1 -3.83062e-05 -1.66545 8.92646 8.35752
159 1 -5.79082e-05 -2.06719 11.3612 9.93384
165 1 -8.0982e-05 -1.64117 8.87365 13.6312
167 1 -3.67848e-05 -1.24896 11.6757 12.9401
168 1 -2.58356e-05 -1.87463 10.9617 15.5343
26 2 -2.22672e-05 8.6454 10.4486 14.2158
45 2 -7.6628e-05 3.8696 6.70128 10.6237
52 2 -4.80699e-05 2.25392 8.57328 12.4415
54 2 1.59363e-05 1.37665 10.8509 10.6628
77 2 -3.36501e-06 3.79421 10.3132 8.95563
79 2 -4.41529e-05 7.2445 8.46879 12.4732
80 2 -1.35799e-05 3.81728 10.4535 14.2121
81 2 -6.14855e-05 6.3137 10.6635 10.6649
138 1 -0.000103628 0.435023 6.94116 10.1446
145 1 3.064e-05 0.519668 6.8978 15.3882
163 1 -4.41567e-05 1.29196 7.22818 12.9052
164 1 -6.60175e-05 3.30787 8.23654 11.1225
166 1 -4.62833e-05 0.497612 9.99109 14.6445
169 1 -9.6407e-06 0.381014 10.1443 9.45986
170 1 -3.12069e-05 1.19044 9.83712 12.0706
171 1 2.64052e-05 0.943419 12.3668 11.2328
201 1 -5.93507e-05 5.47892 6.90503 10.0601
210 1 1.94567e-05 5.37058 6.69321 15.5003
226 1 1.60952e-06 3.14832 8.84512 8.46522
228 1 1.0337e-05 2.97856 11.1192 10.1395
233 1 -3.71439e-05 6.23009 7.20004 12.9128
236 1 -5.45859e-05 3.21293 8.93865 13.8189
237 1 6.50316e-06 5.4159 10.2225 14.6845
238 1 -3.16039e-05 3.77178 11.4232 12.8448
239 1 -4.04105e-05 2.88124 10.9487 15.5395
241 1 -7.44175e-05 5.39229 9.91777 9.47804
242 1 -1.92825e-05 6.14122 9.67987 12.0107
243 1 -8.2464e-05 5.75765 12.2065 11.0708
48 2 -2.40221e-05 1.27675 10.7665 15.9184
240 1 -9.61552e-05 7.92558 10.9982 10.1925
23 2 -7.70704e-05 8.6944 10.2938 8.87214
72 2 -4.65606e-05 8.67678 6.58115 10.645
195 1 1.0595e-05 10.2488 6.7642 15.4606
211 1 -7.13116e-05 10.287 6.78148 10.2363
220 1 5.05301e-06 7.77574 11.2028 15.4559
225 1 -4.77902e-05 8.01387 8.78003 8.43734
234 1 -5.37772e-05 8.27468 8.15086 11.1705
235 1 -5.59914e-05 8.12152 8.89404 13.8112
12 2 3.30637e-05 -1.08093 6.54529 15.8183
30 2 3.1555e-05 6.14689 2.33835 15.9469
