LAMMPS (2 Aug 2023 - Update 2)
  using 6 OpenMP thread(s) per MPI task
# Initialization
# units           real
# dimension       3
# boundary        p p p
# atom_style      full
# timestep        0.5   # fs

variable       T equal 300.0   # temperature
variable       Td equal 50.0  # damping time
variable       P equal 1.0  # pressure
variable       nevery equal 10
variable       nrepeat equal 10
variable       nfreq equal 100
variable       nthermo equal 100 # steps for thermo output

variable       nrun equal 2000*${nthermo}  # number of steps 100
variable       nrun equal 2000*100  

# read restart file after equilibration
read_restart restart.equil
Reading restart file ...
  restart file = 2 Aug 2023, LAMMPS = 2 Aug 2023
  restoring atom style full from restart
  triclinic box = (0 0 0) to (14.6913 12.723 15.9631) with tilt (-7.3456 0 0)
WARNING: Triclinic box skew is large. LAMMPS will run inefficiently. (src/domain.cpp:220)
  1 by 1 by 2 MPI processor grid
  pair style reaxff stores no restart info
  243 atoms
Finding 1-2 1-3 1-4 neighbors ...
  special bond factors lj:    0        0        0       
  special bond factors coul:  0        0        0       
     0 = max # of 1-2 neighbors
     0 = max # of 1-3 neighbors
     0 = max # of 1-4 neighbors
     1 = max # of special neighbors
  special bonds CPU = 0.000 seconds
  read_restart CPU = 0.007 seconds

# Read the initial sctructure
# box tilt large
# variable structure string 333SiO2-1-UFF-c
# read_data       ${structure}.data

# Assign the force field
pair_style reaxff NULL safezone 3.0 mincap 150
# pair_coeff * * CHONSSi.ff O Si
# pair_coeff * * CHOSiNa.ff O Si
# pair_coeff * * SiOCHN_2018.ff C H O Si
# pair_coeff * * PDMSDecomp.ff Si O
# pair_coeff * * CHONSi.ff C H O Si
pair_coeff * * CHOFe.ff O Si
WARNING: Van der Waals parameters for element SI indicate inner wall+shielding, but earlier atoms indicate a different van der Waals method. This may cause division-by-zero errors. Keeping van der Waals setting for earlier atoms. (src/REAXFF/reaxff_ffield.cpp:251)
WARNING: Van der Waals parameters for element AL indicate inner wall+shielding, but earlier atoms indicate a different van der Waals method. This may cause division-by-zero errors. Keeping van der Waals setting for earlier atoms. (src/REAXFF/reaxff_ffield.cpp:251)
WARNING: Changed valency_val to valency_boc for X (src/REAXFF/reaxff_ffield.cpp:296)

# fix myqeq all qeq/reaxff 1 0.0 10.0 1.0e-6 reaxff maxiter 400
fix myask2 all acks2/reaxff 1 0.0 10.0 1.0e-6 reaxff maxiter 400
# fix bondinfo all reaxff/bonds ${nthermo} bonds.reaxff

neighbor        2 bin
neigh_modify    every 10 delay 0 check no

# # Energy minimization
# print "*****Minimization starts.*****"
# minimize 1.0e-6 1.0e-6 100 1000
# min_style cg
# # Save the optimized structure
# write_data ${structure}_opt.data
# velocity        all create ${T} ${seed} dist gaussian

# # equilibration
# print "*****Equilibration starts.*****"
# reset_timestep 0

# fix             equil1 all nvt temp ${T} ${T} ${Td}
# # fix             equil1 all npt temp ${T} ${T} ${Td} tri ${P} ${P} ${Td}

# # Save trajectory
# # dump dump1 all custom ${nthermo} dump_eq.lammpstrj   id   type   q   x   y   z
# run             ${nequil}
# unfix          equil1
# if "$(is_defined(dump,dump1))" then "undump dump1"

# # Save the equilibrated structure
# write_data ${structure}_equil.data



# Print system info
thermo          ${nthermo}
thermo          100
thermo_style    custom step pe etotal temp press vol

# main simulation
print "*****Main simulation starts.*****"
*****Main simulation starts.*****
reset_timestep 0
fix             fluct all nvt temp ${T} ${T} ${Td}
fix             fluct all nvt temp 300 ${T} ${Td}
fix             fluct all nvt temp 300 300 ${Td}
fix             fluct all nvt temp 300 300 50

# set up the dipole calculation
variable   chunkID atom 1
compute    mychunk all chunk/atom v_chunkID nchunk once ids once
compute    dipole all dipole/chunk mychunk

variable V equal vol
# fix kout all ave/time ${nevery} ${nrepeat} ${nfreq} c_dipole[*]
fix kout all ave/time 1 1 1 c_dipole[*]         file dipole.out mode vector title1 "# Dipole moments (echarge*A), Volume (A^3)"

dump dump2 all custom ${nthermo} dump_all.lammpstrj   id   type   q   x   y   z
dump dump2 all custom 100 dump_all.lammpstrj   id   type   q   x   y   z
run             ${nrun}
run             200000

CITE-CITE-CITE-CITE-CITE-CITE-CITE-CITE-CITE-CITE-CITE-CITE-CITE

Your simulation uses code contributions which should be cited:

- pair reaxff command: doi:10.1016/j.parco.2011.08.005

@Article{Aktulga12,
 author = {H. M. Aktulga and J. C. Fogarty and S. A. Pandit and A. Y. Grama},
 title = {Parallel Reactive Molecular Dynamics: {N}umerical Methods and Algorithmic Techniques},
 journal = {Parallel Computing},
 year =    2012,
 volume =  38,
 number =  {4--5},
 pages =   {245--259}
}

- fix acks2/reaxff command: doi:10.1137/18M1224684

@Article{O'Hearn2020,
 author = {K. A. {O'Hearn} and A. Alperen and H. M. Aktulga},
 title = {Fast Solvers for Charge Distribution Models on Shared Memory Platforms},
 journal = {SIAM J.\ Sci.\ Comput.},
 year =    2020,
 volume =  42,
 number =  1,
 pages =   {1--22}
}

CITE-CITE-CITE-CITE-CITE-CITE-CITE-CITE-CITE-CITE-CITE-CITE-CITE

Neighbor list info ...
  update: every = 10 steps, delay = 0 steps, check = no
  max neighbors/atom: 2000, page size: 100000
  master list distance cutoff = 12
  ghost atom cutoff = 12
  binsize = 6, bins = 4 3 3
  2 neighbor lists, perpetual/occasional/extra = 2 0 0
  (1) pair reaxff, perpetual
      attributes: half, newton off, ghost
      pair build: half/bin/newtoff/ghost
      stencil: full/ghost/bin/3d
      bin: standard
  (2) fix acks2/reaxff, perpetual, copy from (1)
      attributes: half, newton off
      pair build: copy
      stencil: none
      bin: none
Per MPI rank memory allocation (min/avg/max) = 165.4 | 165.6 | 165.7 Mbytes
   Step         PotEng         TotEng          Temp          Press          Volume    
         0  -29614.012     -29393.201      306.10592      74111.041      2983.7813    
       100  -29595.691     -29378.371      301.26616      74946.234      2983.7813    
       200  -29575.74      -29364.343      293.05488      70172.841      2983.7813    
       300  -29566.199     -29362.357      282.58219      62875.368      2983.7813    
       400  -29572.705     -29358.07       297.54343      73932.865      2983.7813    
       500  -29580.495     -29364.493      299.43907      80643.743      2983.7813    
       600  -29583.185     -29389.219      268.89148      89657.124      2983.7813    
       700  -29607.826     -29415.086      267.19088      74932.809      2983.7813    
       800  -29588.612     -29407.493      251.0815       73039.763      2983.7813    
       900  -29588.376     -29386.699      279.58063      66847.174      2983.7813    
      1000  -29582.179     -29367.948      296.98301      58993.619      2983.7813    
      1100  -29581.698     -29351.403      319.25317      61735.097      2983.7813    
      1200  -29578.714     -29345.863      322.79537      70312.672      2983.7813    
      1300  -29564.671     -29364.88       276.96561      81172.722      2983.7813    
      1400  -29585.188     -29389.63       271.09735      61593.481      2983.7813    
      1500  -29611.198     -29386.481      311.51981      64795.022      2983.7813    
      1600  -29588.613     -29380.75       288.15646      78733.404      2983.7813    
      1700  -29590.398     -29355.183      326.07337      74670.542      2983.7813    
      1800  -29585.014     -29356.226      317.16377      76837.224      2983.7813    
      1900  -29590.454     -29366.947      309.84286      70975.703      2983.7813    
      2000  -29587.408     -29373.814      296.10126      66740.549      2983.7813    
      2100  -29583.666     -29374.727      289.64779      70554.231      2983.7813    
      2200  -29600.244     -29372.432      315.81127      74102.923      2983.7813    
      2300  -29580.971     -29356.904      310.61852      77500.643      2983.7813    
      2400  -29551.753     -29344.192      287.73791      66392.047      2983.7813    
      2500  -29577.375     -29348.377      317.45452      61291.441      2983.7813    
      2600  -29576.373     -29375.717      278.1646       79363.307      2983.7813    
      2700  -29589.255     -29381.098      288.5635       67701.807      2983.7813    
      2800  -29592.041     -29374.153      302.05362      77590.435      2983.7813    
      2900  -29594.824     -29364.929      318.6986       83455.728      2983.7813    
      3000  -29575.033     -29338.259      328.23436      70999.89       2983.7813    
      3100  -29569.765     -29322.468      342.82257      66638.645      2983.7813    
      3200  -29563.216     -29340.275      309.05849      84088.282      2983.7813    
      3300  -29585.641     -29363.359      308.14453      70133.403      2983.7813    
      3400  -29571.928     -29375.242      272.6618       72869.489      2983.7813    
      3500  -29598.09      -29383.27       297.80087      69155.36       2983.7813    
      3600  -29604.805     -29381.477      309.59493      66430.501      2983.7813    
      3700  -29582.585     -29358.87       310.131        76793.04       2983.7813    
      3800  -29587.563     -29347.511      332.77773      65843.061      2983.7813    
      3900  -29580.109     -29361.937      302.44726      73783.421      2983.7813    
      4000  -29588.897     -29379.083      290.86092      69721.721      2983.7813    
      4100  -29589.161     -29382.841      286.01661      67229.198      2983.7813    
      4200  -29598.977     -29376.774      308.03516      72042.185      2983.7813    
      4300  -29577.266     -29358.643      303.07152      67074.595      2983.7813    
      4400  -29585.767     -29350.33       326.38157      67784.586      2983.7813    
      4500  -29587.176     -29357.969      317.74505      69061.567      2983.7813    
      4600  -29588.44      -29394.984      268.18278      62841.792      2983.7813    
      4700  -29602.504     -29396.026      286.23616      67463.179      2983.7813    
      4800  -29603.581     -29377.038      314.05161      70639.984      2983.7813    
      4900  -29581.735     -29361.966      304.66097      72973.312      2983.7813    
      5000  -29580.733     -29358.331      308.31161      72115.866      2983.7813    
      5100  -29592.76      -29370.039      308.75268      73229.108      2983.7813    
      5200  -29602.901     -29399.497      281.9741       65376.596      2983.7813    
      5300  -29603.306     -29401.174      280.2111       67720.396      2983.7813    
      5400  -29591.612     -29384.904      286.55498      71197.006      2983.7813    
      5500  -29573.428     -29372.003      279.23044      76325.249      2983.7813    
      5600  -29583.944     -29367.841      299.57813      76221.823      2983.7813    
      5700  -29597.113     -29364.298      322.74582      73675.847      2983.7813    
      5800  -29589.662     -29356.137      323.73025      65634.498      2983.7813    
      5900  -29585.476     -29365.162      305.4166       69582.265      2983.7813    
      6000  -29600.36      -29384.94       298.63139      71202.421      2983.7813    
      6100  -29588.655     -29388.85       276.985        74766.087      2983.7813    
      6200  -29595.484     -29374.229      306.72048      71856.365      2983.7813    
      6300  -29562.761     -29346.05       300.42131      74921.675      2983.7813    
      6400  -29573.588     -29345.532      316.14872      64824.53       2983.7813    
      6500  -29597.595     -29363.163      324.98827      70063.365      2983.7813    
      6600  -29584.655     -29378.945      285.17125      75098.73       2983.7813    
      6700  -29600.633     -29374.361      313.67495      76839.228      2983.7813    
      6800  -29592.9       -29369.717      309.39464      72654.224      2983.7813    
      6900  -29573.008     -29361.34       293.43075      77399.91       2983.7813    
      7000  -29560.175     -29342.414      301.87655      61692.648      2983.7813    
      7100  -29575.758     -29327.562      344.06783      65525.058      2983.7813    
      7200  -29557.831     -29351.882      285.50308      69585.646      2983.7813    
      7300  -29597.892     -29368.933      317.40025      68535.751      2983.7813    
      7400  -29583.502     -29377.05       286.20002      69980.047      2983.7813    
      7500  -29569.42      -29374.073      270.80584      74127.105      2983.7813    
      7600  -29581.274     -29354.255      314.71122      65523.148      2983.7813    
      7700  -29568.753     -29334.82       324.29577      79099.224      2983.7813    
      7800  -29559.597     -29343.746      299.22858      67321.038      2983.7813    
      7900  -29586.565     -29373.35       295.57655      72009.677      2983.7813    
      8000  -29600.378     -29384.452      299.33338      70503.771      2983.7813    
      8100  -29599.673     -29386.462      295.56928      62186.877      2983.7813    
      8200  -29586.947     -29366.247      305.95116      68989.476      2983.7813    
      8300  -29573.724     -29345.207      316.78778      65094.911      2983.7813    
      8400  -29580.81      -29351          318.58001      81277.538      2983.7813    
      8500  -29587.309     -29363.852      309.77251      74458.794      2983.7813    
      8600  -29579.384     -29374.615      283.86614      70946.441      2983.7813    
      8700  -29585.756     -29380.361      284.73397      59510.486      2983.7813    
      8800  -29588.54      -29366.587      307.68848      66489.397      2983.7813    
      8900  -29574.353     -29343.131      320.53773      71333.535      2983.7813    
      9000  -29557.528     -29339.058      302.86017      72898.123      2983.7813    
      9100  -29569.793     -29344.637      312.1288       70616.443      2983.7813    
      9200  -29588.412     -29374.702      296.26077      79300.797      2983.7813    
      9300  -29592.008     -29387.632      283.32202      71610.806      2983.7813    
      9400  -29592.426     -29382.361      291.20883      70315.578      2983.7813    
      9500  -29578.37      -29358.934      304.19909      80356.148      2983.7813    
      9600  -29578.828     -29355.331      309.82946      77975.258      2983.7813    
      9700  -29583.442     -29359.516      310.42264      72522.268      2983.7813    
      9800  -29585.558     -29363.783      307.44194      65831.936      2983.7813    
      9900  -29606.929     -29393.667      295.6403       62058.548      2983.7813    
     10000  -29605.933     -29401.443      283.47981      78619.793      2983.7813    
     10100  -29594.804     -29381.231      296.07233      81195.913      2983.7813    
     10200  -29586.106     -29365.317      306.07487      59309.673      2983.7813    
     10300  -29572.022     -29360.966      292.58339      67546.65       2983.7813    
     10400  -29584.729     -29356.32       316.63887      76254.472      2983.7813    
     10500  -29587.197     -29372.656      297.41298      75266.574      2983.7813    
     10600  -29609.792     -29394.868      297.944        66374.845      2983.7813    
     10700  -29603.128     -29393.991      289.92088      74492.782      2983.7813    
     10800  -29587.401     -29370.382      300.84874      71220.55       2983.7813    
     10900  -29581.218     -29365.009      299.7261       72044.915      2983.7813    
     11000  -29585.908     -29362.809      309.27741      72376.326      2983.7813    
     11100  -29593.138     -29365.52       315.54079      77226.92       2983.7813    
     11200  -29598.172     -29385.956      294.18968      69248.694      2983.7813    
     11300  -29597.62      -29393.236      283.33245      70505.76       2983.7813    
     11400  -29587.48      -29370.271      301.11235      77372.272      2983.7813    
     11500  -29570.45      -29346.574      310.35556      61832.662      2983.7813    
     11600  -29560.725     -29341.068      304.50528      69152.045      2983.7813    
     11700  -29569.827     -29359.494      291.58036      80593.684      2983.7813    
     11800  -29586.18      -29376.387      290.83123      70817.866      2983.7813    
     11900  -29598.414     -29379.133      303.9845       70274.842      2983.7813    
     12000  -29589.487     -29372.592      300.67735      75784.944      2983.7813    
     12100  -29584.581     -29362.355      308.06772      75022.728      2983.7813    
     12200  -29571.46      -29360.085      293.02468      63525.673      2983.7813    
     12300  -29583.408     -29362.707      305.95258      75599.744      2983.7813    
     12400  -29578.937     -29369.581      290.22665      63754.185      2983.7813    
     12500  -29597.323     -29372.154      312.1464       60498.418      2983.7813    
     12600  -29575.539     -29370.973      283.58516      71139.976      2983.7813    
     12700  -29578.313     -29336.822      334.7731       78629.896      2983.7813    
     12800  -29564.023     -29343.29       305.99744      72076.651      2983.7813    
     12900  -29584.852     -29365.188      304.51561      78635.78       2983.7813    
     13000  -29602.332     -29374.465      315.88759      70452.683      2983.7813    
     13100  -29584.204     -29376.726      287.62186      81948.909      2983.7813    
     13200  -29580.189     -29377.484      281.00566      67859.99       2983.7813    
     13300  -29591.063     -29357.946      323.16571      74558.349      2983.7813    
     13400  -29557.233     -29336.214      306.39485      79045.974      2983.7813    
     13500  -29576.462     -29348.738      315.68898      68987.297      2983.7813    
     13600  -29587.41      -29370.027      301.3538       69467.138      2983.7813    
     13700  -29587.069     -29376.736      291.58014      69774.534      2983.7813    
     13800  -29585.003     -29375.332      290.6629       63790.414      2983.7813    
     13900  -29579.796     -29358.818      306.33755      69094.708      2983.7813    
     14000  -29565.289     -29329.416      326.98533      76056.724      2983.7813    
     14100  -29564.516     -29337.065      315.30984      76408.71       2983.7813    
     14200  -29565.781     -29353.883      293.74971      70077.072      2983.7813    
     14300  -29580.326     -29363.015      301.25328      77931.507      2983.7813    
     14400  -29601.051     -29378.055      309.13369      73276.436      2983.7813    
     14500  -29589.955     -29387.62       280.49347      72882.344      2983.7813    
     14600  -29593.154     -29369.77       309.6724       71901.787      2983.7813    
     14700  -29575.33      -29349.254      313.40344      76930.128      2983.7813    
     14800  -29589.265     -29350.679      330.74623      68010.704      2983.7813    
     14900  -29587.751     -29365.615      307.9422       62969.009      2983.7813    
     15000  -29609.451     -29379.481      318.80295      62763.341      2983.7813    
     15100  -29581.89      -29388.982      267.42328      71895.874      2983.7813    
     15200  -29583.141     -29356.644      313.98772      66340.518      2983.7813    
     15300  -29566.652     -29344.457      308.02409      74600.529      2983.7813    
     15400  -29578.858     -29356.124      308.77034      78747.606      2983.7813    
     15500  -29581.562     -29367.903      296.18989      85030.901      2983.7813    
     15600  -29595.557     -29382.528      295.31654      81658.262      2983.7813    
     15700  -29599.298     -29403.255      271.77078      63662.729      2983.7813    
     15800  -29592.386     -29389.236      281.62233      76916.393      2983.7813    
     15900  -29569.622     -29357.098      294.61717      73005.888      2983.7813    
     16000  -29589.464     -29350.853      330.78013      70878.213      2983.7813    
     16100  -29574.059     -29362.98       292.61314      72532.994      2983.7813    
     16200  -29590.013     -29374.245      299.11356      67714.044      2983.7813    
     16300  -29589.364     -29391.228      274.67159      68451.364      2983.7813    
     16400  -29605.979     -29389.377      300.27027      77078.567      2983.7813    
     16500  -29580.985     -29357.879      309.28671      74424.286      2983.7813    
     16600  -29589.706     -29350.902      331.04958      75150.992      2983.7813    
     16700  -29582.103     -29362.362      304.62167      76897.429      2983.7813    
     16800  -29584.128     -29371.094      295.32366      76484.662      2983.7813    
     16900  -29603.077     -29403.358      276.86662      73469.709      2983.7813    
     17000  -29609.019     -29401.697      287.40584      71483.222      2983.7813    
     17100  -29577.645     -29382.849      270.04159      70225.248      2983.7813    
     17200  -29583.137     -29363.462      304.5303       70124.571      2983.7813    
     17300  -29605.018     -29358.397      341.88508      72878.411      2983.7813    
     17400  -29593.29      -29363.193      318.97915      72449.608      2983.7813    
     17500  -29576.444     -29383.018      268.14179      69100.416      2983.7813    
     17600  -29595.132     -29397.427      274.07449      70606.171      2983.7813    
     17700  -29600.305     -29382.014      302.61162      70554.825      2983.7813    
     17800  -29570.569     -29359.471      292.64057      67905.646      2983.7813    
     17900  -29574.754     -29360.015      297.68816      74312.483      2983.7813    
     18000  -29575.093     -29357.876      301.12335      65594.765      2983.7813    
     18100  -29579.78      -29356.453      309.59404      76096.589      2983.7813    
     18200  -29597.041     -29379.746      301.23182      71971.826      2983.7813    
     18300  -29593.693     -29393.641      277.32744      73555.563      2983.7813    
     18400  -29577.565     -29379.571      274.47414      68099.5        2983.7813    
     18500  -29578.369     -29363.942      297.2564       74137.391      2983.7813    
     18600  -29584.745     -29366.486      302.56853      67636.296      2983.7813    
     18700  -29582.584     -29372.241      291.59396      73520.522      2983.7813    
     18800  -29599.405     -29370.469      317.36858      82965.393      2983.7813    
     18900  -29586.821     -29368.104      303.20341      74266.931      2983.7813    
     19000  -29587.586     -29361.525      313.38397      69686.22       2983.7813    
     19100  -29587.037     -29373.105      296.56823      75541.916      2983.7813    
     19200  -29592.11      -29380.876      292.82869      78032.962      2983.7813    
     19300  -29592.987     -29378.082      297.91882      75910.924      2983.7813    
     19400  -29576.089     -29354.42       307.29448      74894.562      2983.7813    
     19500  -29577.855     -29348.51       317.93619      76251.303      2983.7813    
     19600  -29574.817     -29366.321      289.0341       80420.878      2983.7813    
     19700  -29596.75      -29390.604      285.77643      68408.776      2983.7813    
     19800  -29606.085     -29390.458      298.91869      76799.244      2983.7813    
     19900  -29589.343     -29383.885      284.82191      70831.184      2983.7813    
     20000  -29590.397     -29368.33       307.84617      75964.931      2983.7813    
     20100  -29582.878     -29364.517      302.70939      75269.029      2983.7813    
     20200  -29587.027     -29368.396      303.08378      80398.642      2983.7813    
     20300  -29582.142     -29379.384      281.0789       65116.187      2983.7813    
     20400  -29607.603     -29412.542      270.40884      71877.913      2983.7813    
     20500  -29600.684     -29414.347      258.31494      74012.368      2983.7813    
     20600  -29604.902     -29391.105      296.38242      73659.768      2983.7813    
     20700  -29589.587     -29374.704      297.88837      75712.965      2983.7813    
     20800  -29577.74      -29360.54       301.10032      65155.795      2983.7813    
     20900  -29569.846     -29354          299.22319      68562.995      2983.7813    
     21000  -29564.262     -29348.849      298.62137      77938.012      2983.7813    
     21100  -29573.942     -29357.943      299.43468      79251.886      2983.7813    
     21200  -29584.81      -29380.279      283.53735      67190.429      2983.7813    
     21300  -29594.006     -29380.264      296.30639      79511.554      2983.7813    
     21400  -29595.26      -29369.786      312.56982      68683.525      2983.7813    
     21500  -29569.147     -29345.771      309.66108      81030.239      2983.7813    
     21600  -29573.569     -29329.273      338.66167      76720.595      2983.7813    
     21700  -29568.106     -29348.583      304.31946      75846.799      2983.7813    
     21800  -29594.562     -29359.327      326.10059      67669.282      2983.7813    
     21900  -29585.795     -29374.724      292.60301      79904.623      2983.7813    
     22000  -29595.012     -29381.056      296.60342      71733.398      2983.7813    
     22100  -29586.065     -29375.85       291.41654      69100.841      2983.7813    
     22200  -29575.853     -29342.477      323.52354      78212.481      2983.7813    
     22300  -29564.87      -29336.421      316.69439      82590.016      2983.7813    
     22400  -29570.236     -29359.242      292.49582      80825.725      2983.7813    
     22500  -29575.857     -29371.611      283.14122      73265.483      2983.7813    
     22600  -29597.625     -29368.518      317.60644      69774.706      2983.7813    
     22700  -29578.046     -29371.355      286.53201      73605.991      2983.7813    
     22800  -29590.994     -29366.7        310.93449      78701.33       2983.7813    
     22900  -29582.839     -29367.702      298.24048      72286.533      2983.7813    
     23000  -29578.841     -29377.378      279.28452      58032.994      2983.7813    
     23100  -29595.636     -29372.948      308.70802      70082.709      2983.7813    
     23200  -29595.92      -29365.596      319.29239      67772.971      2983.7813    
     23300  -29595.016     -29367.894      314.85331      69164.736      2983.7813    
     23400  -29589.499     -29370.406      303.72384      70102.462      2983.7813    
     23500  -29583.418     -29368.092      298.50211      68264.385      2983.7813    
     23600  -29589.588     -29372.353      301.14803      74358.607      2983.7813    
     23700  -29592.098     -29381.346      292.16122      73214.016      2983.7813    
     23800  -29587.944     -29385.525      280.60882      69809.957      2983.7813    
     23900  -29586.773     -29372.928      296.44995      81442.677      2983.7813    
     24000  -29580.38      -29352.376      316.07738      79164.183      2983.7813    
     24100  -29583.205     -29343.369      332.47991      78716.043      2983.7813    
     24200  -29593.385     -29361.976      320.79706      67136.267      2983.7813    
     24300  -29591.859     -29388.079      282.49549      67287.19       2983.7813    
     24400  -29586.449     -29384.694      279.68898      65169.74       2983.7813    
     24500  -29582.455     -29369.879      294.6906       68438.317      2983.7813    
     24600  -29585.884     -29352.117      324.06557      69224.036      2983.7813    
     24700  -29594.915     -29357.955      328.49173      70503.979      2983.7813    
     24800  -29594.668     -29366.659      316.08443      63780.556      2983.7813    
     24900  -29585.384     -29370.744      297.55069      71602.628      2983.7813    
     25000  -29587.766     -29366.947      306.11667      70711.956      2983.7813    
     25100  -29577.618     -29357.831      304.68667      76146.686      2983.7813    
     25200  -29573.734     -29344.577      317.67487      69626.457      2983.7813    
     25300  -29560.641     -29336.566      310.63056      70564.802      2983.7813    
     25400  -29585.712     -29358.497      314.98205      63948.907      2983.7813    
     25500  -29597.409     -29376.566      306.14925      61040.78       2983.7813    
     25600  -29606.491     -29383.671      308.89001      60574.851      2983.7813    
     25700  -29578.353     -29384.367      268.91858      72166.448      2983.7813    
     25800  -29574.22      -29350.579      310.02861      61373.296      2983.7813    
     25900  -29563.498     -29349.528      296.62292      79575.842      2983.7813    
     26000  -29576.094     -29364.471      293.36733      70328.038      2983.7813    
     26100  -29578.486     -29377.335      278.85196      80381.919      2983.7813    
     26200  -29580.144     -29372.239      288.21352      73572.101      2983.7813    
     26300  -29582.429     -29337.527      339.50151      78854.411      2983.7813    
     26400  -29568.496     -29337.808      319.79763      62949.835      2983.7813    
     26500  -29576.384     -29354.764      307.22752      66688.048      2983.7813    
     26600  -29588.115     -29365.503      308.60272      67760.006      2983.7813    
     26700  -29582.295     -29372.692      290.5669       72673.076      2983.7813    
     26800  -29588.012     -29377.32       292.07737      69921.317      2983.7813    
     26900  -29588.041     -29388.898      276.06779      71992.325      2983.7813    
     27000  -29596.111     -29397.46       275.38501      76683.605      2983.7813    
     27100  -29604.988     -29385.605      304.1255       68408.985      2983.7813    
     27200  -29592.125     -29362.171      318.77977      67171.649      2983.7813    
     27300  -29570.573     -29353.242      301.28134      69363.343      2983.7813    
     27400  -29581.949     -29355.312      314.18228      73918.642      2983.7813    
     27500  -29584.937     -29383.489      279.26259      77249.334      2983.7813    
     27600  -29603.156     -29395.772      287.49188      81635.969      2983.7813    
     27700  -29612.97      -29384.18       317.16738      62931.34       2983.7813    
     27800  -29592.675     -29370.838      307.52882      70403.193      2983.7813    
     27900  -29585.011     -29363.812      306.6432       74976.802      2983.7813    
     28000  -29582.92      -29361.588      306.82835      80459.061      2983.7813    
     28100  -29573.145     -29364.926      288.64957      73313.052      2983.7813    
     28200  -29574.679     -29375.115      276.6507       71695.968      2983.7813    
     28300  -29586.998     -29375.631      293.01345      72008.174      2983.7813    
     28400  -29584.171     -29364.606      304.378        70700.966      2983.7813    
     28500  -29584.559     -29350.166      324.93441      76852.119      2983.7813    
     28600  -29588.167     -29345.857      335.90902      66459.222      2983.7813    
     28700  -29571.296     -29357.053      296.99981      71168.993      2983.7813    
     28800  -29586.184     -29379.445      286.59678      75276.818      2983.7813    
     28900  -29581.911     -29387.381      269.67369      67919.045      2983.7813    
     29000  -29589.185     -29367.942      306.70332      59249.813      2983.7813    
     29100  -29585.807     -29348.944      328.35769      80212.472      2983.7813    
     29200  -29559.145     -29348.755      291.65954      72587.09       2983.7813    
     29300  -29585.373     -29355.754      318.31585      76497.343      2983.7813    
     29400  -29591.878     -29372.8        303.70377      74222.662      2983.7813    
     29500  -29592.861     -29381.617      292.84266      64291.917      2983.7813    
     29600  -29588.929     -29386.739      280.29161      80940.21       2983.7813    
     29700  -29594.607     -29390.073      283.54019      75302.163      2983.7813    
     29800  -29589.486     -29375.376      296.81681      67267.038      2983.7813    
     29900  -29568.164     -29355.569      294.71522      75815.49       2983.7813    
     30000  -29567.996     -29344.669      309.59307      70642.465      2983.7813    
     30100  -29568.884     -29341.831      314.75873      65114.457      2983.7813    
     30200  -29585.24      -29369.215      299.47117      67097.486      2983.7813    
     30300  -29588.475     -29387.315      278.86409      67538.54       2983.7813    
     30400  -29596.761     -29379.148      301.67228      73711.547      2983.7813    
     30500  -29590.043     -29366.884      309.36         72015.691      2983.7813    
     30600  -29586.838     -29350.315      327.88548      76877.119      2983.7813    
     30700  -29568.219     -29328.661      332.09502      68741.655      2983.7813    
     30800  -29564.74      -29328.168      327.95462      74497.731      2983.7813    
     30900  -29585.643     -29364.253      306.90745      69075.191      2983.7813    
     31000  -29586.414     -29371.994      297.24568      71615.005      2983.7813    
     31100  -29567.932     -29371.383      272.47129      70985.726      2983.7813    
     31200  -29563.685     -29354.413      290.10943      66334.499      2983.7813    
     31300  -29563.994     -29342.694      306.78341      69604.878      2983.7813    
     31400  -29580.931     -29356.773      310.74554      72669.646      2983.7813    
     31500  -29595.968     -29386.079      290.96447      60621.039      2983.7813    
     31600  -29587.139     -29385.405      279.65872      71067.741      2983.7813    
     31700  -29605.491     -29377.749      315.7134       78136.328      2983.7813    
     31800  -29578.216     -29363.613      297.49858      67317.32       2983.7813    
     31900  -29558.701     -29334.974      310.1473       73145.663      2983.7813    
     32000  -29576.638     -29342.938      323.97294      78204.166      2983.7813    
     32100  -29597.992     -29364.47       323.72544      75600.061      2983.7813    
     32200  -29581.663     -29374.893      286.64107      69319.346      2983.7813    
     32300  -29606.915     -29369.196      329.54553      75033.124      2983.7813    
     32400  -29577.092     -29360.027      300.91222      82743.649      2983.7813    
     32500  -29581.649     -29333.184      344.44179      75332.577      2983.7813    
     32600  -29566.399     -29336.067      319.30406      62936.797      2983.7813    
     32700  -29573.753     -29357.166      300.24908      70392.339      2983.7813    
     32800  -29587.67      -29368.297      304.1119       80329.79       2983.7813    
     32900  -29592.11      -29372.116      304.9726       59515.265      2983.7813    
     33000  -29587.984     -29369.06       303.48907      80346.232      2983.7813    
     33100  -29578.119     -29358.521      304.42414      74682.609      2983.7813    
     33200  -29558.365     -29337.05       306.80525      65584.654      2983.7813    
     33300  -29558.03      -29338.459      304.38678      70358.979      2983.7813    
     33400  -29585.357     -29366.586      303.27747      68182.029      2983.7813    
     33500  -29582.403     -29382.325      277.36456      67866.511      2983.7813    
     33600  -29598.058     -29381.274      300.52187      70699.515      2983.7813    
     33700  -29580.702     -29371.502      290.01014      66131.466      2983.7813    
     33800  -29584.017     -29347.185      328.3159       74604.479      2983.7813    
     33900  -29579.342     -29353.291      313.36978      73648.17       2983.7813    
     34000  -29577.305     -29363.519      296.36704      72464.784      2983.7813    
     34100  -29562.993     -29364.596      275.0324       80145.101      2983.7813    
     34200  -29577.486     -29367.312      291.36042      70695.923      2983.7813    
     34300  -29586.723     -29371.592      298.23037      62118.871      2983.7813    
     34400  -29601.918     -29386.588      298.50666      69259.926      2983.7813    
     34500  -29595.555     -29400.245      270.75387      64969.683      2983.7813    
     34600  -29602.188     -29385.127      300.90776      59196.141      2983.7813    
     34700  -29570.864     -29363.243      287.81972      69586.973      2983.7813    
     34800  -29568.28      -29358.322      291.06026      60141.989      2983.7813    
     34900  -29578.527     -29355.96       308.5393       73422.329      2983.7813    
     35000  -29588.101     -29381.013      287.08094      68402.602      2983.7813    
     35100  -29600.005     -29395.539      283.4465       74266.228      2983.7813    
     35200  -29590.769     -29383.317      287.58605      85488.388      2983.7813    
     35300  -29582.085     -29371.692      291.66327      72488.118      2983.7813    
     35400  -29577.928     -29354.61       309.5809       72081.095      2983.7813    
     35500  -29579.636     -29355.105      311.26172      79844.389      2983.7813    
     35600  -29585.051     -29365.091      304.92656      84264.61       2983.7813    
     35700  -29589.241     -29371.448      301.92203      71052.581      2983.7813    
     35800  -29587.525     -29372.228      298.4619       84654.078      2983.7813    
     35900  -29580.475     -29369.238      292.833        82237.235      2983.7813    
     36000  -29569.365     -29364.337      284.22608      81708.828      2983.7813    
     36100  -29581.415     -29356.273      312.10914      78101.325      2983.7813    
     36200  -29559.198     -29349.739      290.36808      79854.008      2983.7813    
     36300  -29586.12      -29354.839      320.61971      63674.936      2983.7813    
     36400  -29583.577     -29381.141      280.63254      79463.284      2983.7813    
     36500  -29589.297     -29380.292      289.73952      63580.396      2983.7813    
     36600  -29585.996     -29364.182      307.49601      68325.649      2983.7813    
     36700  -29561.923     -29341.148      306.05547      79374.71       2983.7813    
     36800  -29576.073     -29341.098      325.73999      66520.868      2983.7813    
     36900  -29586.798     -29349.558      328.87956      80116.187      2983.7813    
     37000  -29578.22      -29369.525      289.30989      63884.62       2983.7813    
     37100  -29578.308     -29370.076      288.66643      75596.765      2983.7813    
     37200  -29580.835     -29362.146      303.16457      65073.163      2983.7813    
     37300  -29580.989     -29365.534      298.67983      65051.458      2983.7813    
     37400  -29590.318     -29379.435      292.34351      77211.641      2983.7813    
     37500  -29604.541     -29391.536      295.28368      62557.417      2983.7813    
     37600  -29612.179     -29387.159      311.94064      63307.846      2983.7813    
     37700  -29574.807     -29361.598      295.56589      68185.422      2983.7813    
     37800  -29573.711     -29353.241      305.6327       80280.564      2983.7813    
     37900  -29578.992     -29363.518      298.70748      87970.524      2983.7813    
     38000  -29579.833     -29370.312      290.45391      71723.304      2983.7813    
     38100  -29593.14      -29376.449      300.39303      70601.857      2983.7813    
     38200  -29601.54      -29390.606      292.41344      77203.453      2983.7813    
     38300  -29593.171     -29393.23       277.1745       73800.346      2983.7813    
     38400  -29579.54      -29372.193      287.44045      77741.898      2983.7813    
     38500  -29575.718     -29352.87       308.92931      75416.76       2983.7813    
     38600  -29594.294     -29355.332      331.26795      76770.813      2983.7813    
     38700  -29584.433     -29369.718      297.65476      71343.528      2983.7813    
     38800  -29586.063     -29379.857      285.85868      76196.214      2983.7813    
     38900  -29597.413     -29400.518      272.95102      72716.39       2983.7813    
     39000  -29597.349     -29405.963      265.3141       70710.044      2983.7813    
     39100  -29584.383     -29380.261      282.97016      69836.24       2983.7813    
     39200  -29568.077     -29362.664      284.76005      79627.631      2983.7813    
     39300  -29580.424     -29351.513      317.33496      77301.737      2983.7813    
     39400  -29567.649     -29359.193      288.97784      68824.286      2983.7813    
     39500  -29587.459     -29382.33       284.36517      65572.973      2983.7813    
     39600  -29590.001     -29383.587      286.14633      73051.867      2983.7813    
     39700  -29578.557     -29371.403      287.1727       74274.555      2983.7813    
     39800  -29593.959     -29366.371      315.50001      78758.205      2983.7813    
     39900  -29597.414     -29367.578      318.61629      71204.105      2983.7813    
     40000  -29575.44      -29369.148      285.97882      68402.742      2983.7813    
     40100  -29585.655     -29378.522      287.14351      63650.866      2983.7813    
     40200  -29598.023     -29389.437      289.15808      79309.156      2983.7813    
     40300  -29593.342     -29377.715      298.91905      88062.833      2983.7813    
     40400  -29582.42      -29357.571      311.70382      70902.161      2983.7813    
     40500  -29574.299     -29357.537      300.49297      69484.847      2983.7813    
     40600  -29574.655     -29373.81       278.42601      68996.641      2983.7813    
     40700  -29589.089     -29393.274      271.4545       72557.267      2983.7813    
     40800  -29597.782     -29391.324      286.20728      72212.849      2983.7813    
     40900  -29577.281     -29365.873      293.07007      80429.202      2983.7813    
     41000  -29558.8       -29350.118      289.29066      72172.472      2983.7813    
     41100  -29570.553     -29347.311      309.47429      69651.911      2983.7813    
     41200  -29591.12      -29355.894      326.08861      71407.409      2983.7813    
     41300  -29594.28      -29380.464      296.40955      67788.721      2983.7813    
     41400  -29596.249     -29382.056      296.93157      73434.605      2983.7813    
     41500  -29588.961     -29369.201      304.64831      74366.349      2983.7813    
     41600  -29571.497     -29356.839      297.57525      73472.504      2983.7813    
     41700  -29580.953     -29344.1        328.3441       76480.814      2983.7813    
     41800  -29565.781     -29354.122      293.41723      68724.47       2983.7813    
     41900  -29578.107     -29377.951      277.47299      75358.751      2983.7813    
     42000  -29590.527     -29384.198      286.02976      72549.669      2983.7813    
     42100  -29595.296     -29386.379      289.61832      65344.216      2983.7813    
     42200  -29587.602     -29371.911      299.00696      66539.971      2983.7813    
     42300  -29577.299     -29349.714      315.49559      65911.721      2983.7813    
     42400  -29579.48      -29347.132      322.09978      65357.451      2983.7813    
     42500  -29584.016     -29357.9        313.46006      63854.791      2983.7813    
     42600  -29605.625     -29392.306      295.71871      69031.286      2983.7813    
     42700  -29586.882     -29396.309      264.18654      74750.556      2983.7813    
     42800  -29580.48      -29372.152      288.80055      70640.454      2983.7813    
     42900  -29566.951     -29357.303      290.63114      69507.916      2983.7813    
     43000  -29574.061     -29359.134      297.94809      63710.755      2983.7813    
     43100  -29582.655     -29377.627      284.22603      68811.664      2983.7813    
     43200  -29592.865     -29388.257      283.64363      71293.462      2983.7813    
     43300  -29607.47      -29393.394      296.76872      75100.724      2983.7813    
     43400  -29593.56      -29386.774      286.66277      69054.399      2983.7813    
     43500  -29561.294     -29360.583      278.24035      73040.46       2983.7813    
     43600  -29574.311     -29348.154      313.51641      68168.547      2983.7813    
     43700  -29564.819     -29358.437      286.10291      81648.613      2983.7813    
     43800  -29588.121     -29378.946      289.97542      75650.614      2983.7813    
     43900  -29601.034     -29388.939      294.02254      62623.131      2983.7813    
     44000  -29584.495     -29379.898      283.62817      75155.622      2983.7813    
     44100  -29561.495     -29345.251      299.77537      71533.343      2983.7813    
     44200  -29590.272     -29346.442      338.01572      65708.483      2983.7813    
     44300  -29598.473     -29367.578      320.08448      68875.826      2983.7813    
     44400  -29586.998     -29383.425      282.20897      67934.711      2983.7813    
     44500  -29588.241     -29383.38       283.99344      77424.06       2983.7813    
     44600  -29587.526     -29357.779      318.49376      72443.308      2983.7813    
     44700  -29573.75      -29346.382      315.19552      74123.449      2983.7813    
     44800  -29570.729     -29350.78       304.91031      73425.723      2983.7813    
     44900  -29574.435     -29359.581      297.84771      73519.528      2983.7813    
     45000  -29592.584     -29370.325      308.11344      64380.231      2983.7813    
     45100  -29598.179     -29386.488      293.46326      70606.739      2983.7813    
     45200  -29604.083     -29412.845      265.10885      71113.488      2983.7813    
     45300  -29602.885     -29398.652      283.12341      72746.983      2983.7813    
     45400  -29611.127     -29381.723      318.0185       62926.085      2983.7813    
     45500  -29586.041     -29364.657      306.8999       62305.78       2983.7813    
     45600  -29596.386     -29357.542      331.10442      73443.154      2983.7813    
     45700  -29570.124     -29368.036      280.14919      68634.318      2983.7813    
     45800  -29592.723     -29377.2        298.77522      65056.612      2983.7813    
     45900  -29597.948     -29395.228      281.02602      74347.77       2983.7813    
     46000  -29594.111     -29396.938      273.33667      74941.107      2983.7813    
     46100  -29589.701     -29370.124      304.39468      75552.036      2983.7813    
     46200  -29574.233     -29359.974      297.02297      64349.164      2983.7813    
     46300  -29575.996     -29358.947      300.8905       72286.284      2983.7813    
     46400  -29586.227     -29362.008      310.82986      71356.57       2983.7813    
     46500  -29599.462     -29384.711      297.70432      76902.102      2983.7813    
     46600  -29595.534     -29397.349      274.74009      79131.047      2983.7813    
     46700  -29599.414     -29378.487      306.26596      65102.85       2983.7813    
     46800  -29577.995     -29363.59       297.22569      65935.888      2983.7813    
     46900  -29565.938     -29364.059      279.85966      77176.338      2983.7813    
     47000  -29584.944     -29359.712      312.2353       81183.301      2983.7813    
     47100  -29593.251     -29365.489      315.74085      65830.35       2983.7813    
     47200  -29604.403     -29388.451      299.37027      67088.349      2983.7813    
     47300  -29603.78      -29397.563      285.8733       79261.962      2983.7813    
     47400  -29600.557     -29377.72       308.91424      74311.497      2983.7813    
     47500  -29586.445     -29367.216      303.91234      66003.596      2983.7813    
     47600  -29571.396     -29360.907      291.79629      75366.331      2983.7813    
     47700  -29583.666     -29359.933      310.156        67286.686      2983.7813    
     47800  -29576.76      -29370.317      286.1873       74701.787      2983.7813    
     47900  -29605.183     -29392.239      295.19986      77978.412      2983.7813    
     48000  -29601         -29398.288      281.01457      64413.264      2983.7813    
     48100  -29590.188     -29375.991      296.93678      69654.611      2983.7813    
     48200  -29573.861     -29364.314      290.49159      67267.281      2983.7813    
     48300  -29586.089     -29362.922      309.371        78768.38       2983.7813    
     48400  -29593.309     -29362.95       319.34196      84383.76       2983.7813    
     48500  -29595.261     -29383.978      292.89691      70036.032      2983.7813    
     48600  -29614.736     -29402.43       294.31423      79007.479      2983.7813    
     48700  -29599.427     -29393.589      285.3486       71972.093      2983.7813    
     48800  -29595.858     -29381.756      296.805        72897.56       2983.7813    
     48900  -29590.469     -29374.112      299.92999      73104.617      2983.7813    
     49000  -29580.732     -29366.327      297.22517      74128.613      2983.7813    
     49100  -29572.362     -29355.928      300.03712      70522.739      2983.7813    
     49200  -29562.437     -29330.108      322.07268      77255.303      2983.7813    
     49300  -29564.096     -29327.162      328.45615      74138.162      2983.7813    
     49400  -29596.23      -29361.692      325.13463      72997.648      2983.7813    
     49500  -29590.321     -29371.22       303.73447      68736.819      2983.7813    
     49600  -29602.205     -29368.203      324.39249      67637.711      2983.7813    
     49700  -29582.216     -29372.99       290.04567      79755.629      2983.7813    
     49800  -29576.867     -29369.873      286.95024      71254.894      2983.7813    
     49900  -29585.028     -29356.758      316.4465       77641.56       2983.7813    
     50000  -29574.604     -29344.178      319.43387      81449.689      2983.7813    
     50100  -29577.041     -29353.301      310.16504      70762.941      2983.7813    
     50200  -29591.805     -29379.023      294.97596      73739.221      2983.7813    
     50300  -29598.082     -29384.211      296.48509      64462.404      2983.7813    
     50400  -29614.116     -29376.805      328.97825      65157.862      2983.7813    
     50500  -29566.686     -29357.979      289.3261       72071.8        2983.7813    
     50600  -29547.858     -29326.637      306.67496      67452.331      2983.7813    
     50700  -29572.333     -29331.916      333.28442      76673.689      2983.7813    
     50800  -29585.432     -29352.755      322.55402      77186.94       2983.7813    
     50900  -29588.35      -29366.332      307.77946      75541.08       2983.7813    
     51000  -29586.7       -29371.163      298.79494      65331.672      2983.7813    
     51100  -29584.497     -29374.117      291.64612      78794.943      2983.7813    
     51200  -29587.602     -29380.104      287.6499       69471.199      2983.7813    
     51300  -29594.976     -29373.841      306.55419      70433.593      2983.7813    
     51400  -29593.458     -29367.615      313.08055      64712.805      2983.7813    
     51500  -29568.997     -29351.718      301.20868      78167.199      2983.7813    
     51600  -29574.635     -29342.615      321.64461      67281.314      2983.7813    
     51700  -29573.676     -29358.473      298.33051      72324.845      2983.7813    
     51800  -29591.153     -29386.068      284.30572      75376.841      2983.7813    
     51900  -29608.099     -29388.42       304.53608      72846.057      2983.7813    
     52000  -29586.461     -29374.866      293.32973      72574.424      2983.7813    
     52100  -29575.776     -29358.4        301.34376      68582.223      2983.7813    
     52200  -29577.86      -29352.308      312.67832      69153.611      2983.7813    
     52300  -29579.784     -29361.163      303.07013      72470.414      2983.7813    
     52400  -29579.76      -29365.185      297.46156      67156.667      2983.7813    
     52500  -29578.991     -29376          281.40273      69982.002      2983.7813    
     52600  -29568.999     -29379.293      262.98526      72505.897      2983.7813    
     52700  -29585.061     -29362.665      308.30254      69839.402      2983.7813    
     52800  -29574.782     -29344.399      319.37518      73643.526      2983.7813    
     52900  -29572.786     -29346.893      313.15051      77280.664      2983.7813    
     53000  -29570.579     -29377.234      268.03088      74948.743      2983.7813    
     53100  -29576.079     -29384.96       264.94442      76051.506      2983.7813    
     53200  -29590.119     -29375.964      296.87842      73210.072      2983.7813    
     53300  -29570.889     -29347.989      309.00085      68100.427      2983.7813    
     53400  -29572.284     -29343.71       316.86783      65890.945      2983.7813    
     53500  -29566.401     -29353.083      295.71827      65146.618      2983.7813    
     53600  -29591.909     -29366.829      312.02398      78542.439      2983.7813    
     53700  -29593.525     -29384.005      290.45293      72995.646      2983.7813    
     53800  -29599.862     -29383.137      300.44141      70661.944      2983.7813    
     53900  -29573.858     -29342.554      320.65166      62589.212      2983.7813    
     54000  -29561.039     -29340.512      305.71235      74879.857      2983.7813    
     54100  -29572.189     -29358.427      296.3334       68022.656      2983.7813    
     54200  -29596.666     -29378.689      302.17713      73394.205      2983.7813    
     54300  -29587.187     -29384.611      280.82575      69434.292      2983.7813    
     54400  -29593.657     -29370.023      310.0188       69983.205      2983.7813    
     54500  -29565.023     -29352.408      294.74333      60353.341      2983.7813    
     54600  -29589.453     -29351          330.56107      77054.373      2983.7813    
     54700  -29570.384     -29358.921      293.14705      79203.854      2983.7813    
     54800  -29588.35      -29368.191      305.20156      70748.99       2983.7813    
     54900  -29573.644     -29375.72       274.37819      75554.965      2983.7813    
     55000  -29584.457     -29376.433      288.37817      77474.798      2983.7813    
     55100  -29593.41      -29364.463      317.38413      81199.827      2983.7813    
     55200  -29555.84      -29348.49       287.44364      71526.285      2983.7813    
     55300  -29565.841     -29335.543      319.25658      77039.037      2983.7813    
     55400  -29559.18      -29351.341      288.12177      68192.35       2983.7813    
     55500  -29580.822     -29378.77       280.1001       68085.982      2983.7813    
     55600  -29598.044     -29380.151      302.06104      73312.829      2983.7813    
     55700  -29591.257     -29371.71       304.35336      67716.203      2983.7813    
     55800  -29575.073     -29351.845      309.456        69463.446      2983.7813    
     55900  -29574.443     -29332.195      335.82213      77823.189      2983.7813    
     56000  -29591.347     -29361.067      319.23264      66735.154      2983.7813    
     56100  -29591.181     -29379.853      292.95861      73495.966      2983.7813    
     56200  -29595.619     -29379.752      299.25144      75728.288      2983.7813    
     56300  -29581.176     -29369.414      293.56057      70935.572      2983.7813    
     56400  -29590.747     -29355.957      325.48337      69383.759      2983.7813    
     56500  -29570.397     -29363.903      286.25738      76288.964      2983.7813    
     56600  -29592.984     -29383.168      290.86375      76354.754      2983.7813    
     56700  -29612.26      -29400.167      294.02062      67318.587      2983.7813    
     56800  -29593.791     -29391.683      280.17781      73568.382      2983.7813    
     56900  -29586.922     -29360.282      314.18586      70716.417      2983.7813    
     57000  -29581.897     -29356.64       312.26932      73507.073      2983.7813    
     57100  -29588.632     -29363.426      312.19847      81568.555      2983.7813    
     57200  -29585.74      -29378.504      287.28673      76063.753      2983.7813    
     57300  -29591.753     -29393.362      275.02445      64243.502      2983.7813    
     57400  -29591.285     -29400.939      263.87283      71276.773      2983.7813    
     57500  -29599.167     -29375.265      310.38963      66096.303      2983.7813    
     57600  -29573.241     -29355.324      302.09474      83747.028      2983.7813    
     57700  -29561.803     -29350.864      292.41928      74808.974      2983.7813    
     57800  -29563.192     -29353.728      290.37578      81257.653      2983.7813    
     57900  -29597.853     -29381.983      299.25459      80682.219      2983.7813    
     58000  -29600.964     -29396.837      282.97669      66778.26       2983.7813    
     58100  -29595.894     -29382.845      295.34551      66221.056      2983.7813    
     58200  -29584.546     -29370.48       296.75618      67556.859      2983.7813    
     58300  -29580.122     -29370.123      291.11659      63348.488      2983.7813    
     58400  -29581.512     -29361.089      305.56711      76524.413      2983.7813    
     58500  -29567.955     -29332.933      325.80652      79224.745      2983.7813    
     58600  -29552.371     -29327.455      311.79655      72952.374      2983.7813    
     58700  -29580.683     -29352.661      316.10291      68057.9        2983.7813    
     58800  -29590.851     -29370.388      305.62307      69645.17       2983.7813    
     58900  -29587.316     -29376.22       292.6383       65985.643      2983.7813    
     59000  -29593.08      -29380.794      294.28726      78559.548      2983.7813    
     59100  -29594.461     -29371.917      308.50755      77762.874      2983.7813    
     59200  -29584.815     -29353.42       320.77863      71201.59       2983.7813    
     59300  -29581.195     -29352.776      316.65189      83865.618      2983.7813    
     59400  -29585.77      -29377.355      288.92068      65674.801      2983.7813    
     59500  -29603.288     -29387.586      299.02262      62467.345      2983.7813    
     59600  -29600.936     -29382.309      303.07764      74383.575      2983.7813    
     59700  -29578.753     -29351.402      315.1717       72056.25       2983.7813    
     59800  -29565.538     -29339.014      314.02503      71208.308      2983.7813    
     59900  -29569.424     -29352.372      300.89458      83667.673      2983.7813    
     60000  -29587.664     -29365.773      307.60192      75171.262      2983.7813    
     60100  -29590.148     -29383.945      285.85471      70390.783      2983.7813    
     60200  -29608.471     -29385.469      309.14318      67877.742      2983.7813    
     60300  -29582.657     -29376.683      285.53798      66359.184      2983.7813    
     60400  -29577.135     -29364.245      295.12592      71732.815      2983.7813    
     60500  -29585.801     -29358.704      314.81913      60833.072      2983.7813    
     60600  -29582.043     -29367.625      297.24324      71259.114      2983.7813    
     60700  -29596.052     -29397.639      275.05616      60420.143      2983.7813    
     60800  -29598.88      -29390.739      288.54185      72307.056      2983.7813    
     60900  -29589.447     -29373.351      299.56956      68441.413      2983.7813    
     61000  -29584.465     -29368.365      299.57505      65443.906      2983.7813    
     61100  -29599.495     -29360.783      330.92164      71025.081      2983.7813    
     61200  -29582.58      -29345.827      328.20577      62017.382      2983.7813    
     61300  -29570.134     -29334.347      326.86616      76953.751      2983.7813    
     61400  -29569.47      -29360.411      289.81383      59733.635      2983.7813    
     61500  -29588.991     -29363.33       312.82908      75068.735      2983.7813    
     61600  -29606.71      -29378.662      316.1376       63886.321      2983.7813    
     61700  -29588.695     -29397.055      265.66597      69734.978      2983.7813    
     61800  -29595.498     -29389.508      285.55857      77910.744      2983.7813    
     61900  -29593.531     -29374.103      304.18744      68948.926      2983.7813    
     62000  -29587.705     -29364.369      309.60513      73155.125      2983.7813    
     62100  -29565.846     -29364.575      279.0176       75742.711      2983.7813    
     62200  -29585.07      -29363.821      306.71329      65539.948      2983.7813    
     62300  -29573.417     -29359.841      296.07588      73620.863      2983.7813    
     62400  -29593.171     -29366.734      313.90458      76104.628      2983.7813    
     62500  -29595.335     -29381.578      296.32571      72058.604      2983.7813    
     62600  -29576.953     -29394.281      253.2347       80334.833      2983.7813    
     62700  -29586.674     -29382.792      282.63728      77949.463      2983.7813    
     62800  -29581.229     -29352.192      317.50955      85552.703      2983.7813    
     62900  -29579.288     -29354.128      312.13491      74144.412      2983.7813    
     63000  -29580.198     -29370.124      291.22197      69395.681      2983.7813    
     63100  -29583.829     -29382.659      278.8783       75480.719      2983.7813    
     63200  -29594.207     -29370.189      310.55207      72950.048      2983.7813    
     63300  -29559.308     -29337.888      306.94913      72192.062      2983.7813    
     63400  -29558.991     -29325.482      323.70869      70196.927      2983.7813    
     63500  -29567.058     -29341.787      312.28783      77529.429      2983.7813    
     63600  -29585.178     -29363.103      307.85787      77625.726      2983.7813    
     63700  -29601.579     -29373.182      316.62266      77704.893      2983.7813    
     63800  -29582.178     -29375.888      285.97486      70943.692      2983.7813    
     63900  -29571.376     -29364.196      287.20987      76803.001      2983.7813    
     64000  -29576.814     -29335.366      334.71378      82765.172      2983.7813    
     64100  -29564.088     -29337.032      314.76264      79366.97       2983.7813    
     64200  -29574.161     -29357.481      300.37939      68414.064      2983.7813    
     64300  -29597.453     -29369.108      316.54962      70239.975      2983.7813    
     64400  -29591.691     -29370.458      306.68998      76823.452      2983.7813    
     64500  -29579.773     -29369.444      291.57355      76534.701      2983.7813    
     64600  -29589.273     -29355.356      324.27484      81399.261      2983.7813    
     64700  -29558.984     -29332.409      314.09591      76342.984      2983.7813    
     64800  -29557.118     -29336.282      306.14008      80543.635      2983.7813    
     64900  -29583.305     -29369.366      296.57807      69646.619      2983.7813    
     65000  -29593.985     -29372.841      306.56791      66420.646      2983.7813    
     65100  -29586.754     -29371.28       298.70686      75896.281      2983.7813    
     65200  -29587.169     -29368.746      302.79452      72207.956      2983.7813    
     65300  -29586.813     -29355.926      320.07311      71255.704      2983.7813    
     65400  -29575.843     -29354.813      306.40961      73920.769      2983.7813    
     65500  -29583.183     -29377.462      285.18775      63610.121      2983.7813    
     65600  -29597.101     -29388.701      288.90019      65692.034      2983.7813    
     65700  -29611.391     -29378.597      322.71788      74713.371      2983.7813    
     65800  -29597.843     -29356.451      334.63602      61708.736      2983.7813    
     65900  -29548.543     -29334.288      297.01736      63483.525      2983.7813    
     66000  -29574.107     -29336.621      329.22162      69248.86       2983.7813    
     66100  -29590.241     -29371.66       303.01415      78458.257      2983.7813    
     66200  -29593.552     -29378.775      297.73952      82242.806      2983.7813    
     66300  -29580.526     -29375.432      284.31784      74851.32       2983.7813    
     66400  -29579.058     -29357.913      306.56826      75960.132      2983.7813    
     66500  -29562.441     -29344.072      302.72059      74438.343      2983.7813    
     66600  -29573.207     -29357.939      298.4215       71197.267      2983.7813    
     66700  -29593.549     -29387.311      285.90308      68087.796      2983.7813    
     66800  -29598.594     -29384.317      297.04781      70421.97       2983.7813    
     66900  -29597.332     -29372.532      311.63441      70254.707      2983.7813    
     67000  -29569.35      -29355.619      296.28947      77298.946      2983.7813    
     67100  -29579.16      -29335.801      337.36344      70924.99       2983.7813    
     67200  -29569.494     -29338.123      320.74484      83982.909      2983.7813    
     67300  -29582.01      -29373.787      288.65463      81546.343      2983.7813    
     67400  -29597.969     -29385.73       294.22188      70384.506      2983.7813    
     67500  -29593.956     -29379.478      297.32707      75389.388      2983.7813    
     67600  -29572.054     -29358.887      295.50805      64569.111      2983.7813    
     67700  -29571.036     -29353.02       302.23116      66934.83       2983.7813    
     67800  -29589.099     -29359.105      318.83558      68673.751      2983.7813    
     67900  -29604.393     -29389.404      298.0344       65786.811      2983.7813    
     68000  -29585.401     -29394.661      264.41987      65454.085      2983.7813    
     68100  -29586.448     -29376.029      291.69922      66139.506      2983.7813    
     68200  -29584.226     -29363.163      306.45406      76480.122      2983.7813    
     68300  -29564.116     -29358.213      285.43982      70175.561      2983.7813    
     68400  -29577.333     -29354.833      308.44609      70449.09       2983.7813    
     68500  -29572.58      -29372.831      276.90821      63178.783      2983.7813    
     68600  -29598.222     -29396.295      279.92713      71179.006      2983.7813    
     68700  -29600.525     -29390.763      290.78846      67725.237      2983.7813    
     68800  -29595.71      -29376.331      304.11994      60693.533      2983.7813    
     68900  -29578.009     -29366.242      293.56868      71095.561      2983.7813    
     69000  -29579.108     -29359.055      305.0547       75971.856      2983.7813    
     69100  -29584.249     -29368.725      298.77629      63953.096      2983.7813    
     69200  -29591.496     -29388.72       281.10375      58125.133      2983.7813    
     69300  -29608.506     -29415.908      266.99336      67373.295      2983.7813    
     69400  -29609.077     -29415.632      268.16937      66972.942      2983.7813    
     69500  -29589.059     -29383.169      285.42148      70416.609      2983.7813    
     69600  -29580.577     -29368.43       294.09428      81259.01       2983.7813    
     69700  -29575.282     -29362.791      294.57188      63810.953      2983.7813    
     69800  -29571.008     -29360.659      291.60278      68751.448      2983.7813    
     69900  -29583.069     -29366.204      300.63652      78579.514      2983.7813    
     70000  -29590.657     -29383.89       286.63713      76702.747      2983.7813    
     70100  -29589.143     -29383.093      285.64234      82460.703      2983.7813    
     70200  -29583.609     -29356.002      315.52633      67161.429      2983.7813    
     70300  -29569.276     -29340.116      317.67935      68594.285      2983.7813    
     70400  -29576.558     -29348.417      316.26737      72367.726      2983.7813    
     70500  -29578.951     -29364.449      297.35997      69567.609      2983.7813    
     70600  -29576.909     -29369.769      287.15458      78754.998      2983.7813    
     70700  -29584.942     -29375.365      290.5316       67891.315      2983.7813    
     70800  -29592.123     -29384.361      288.01558      75205.082      2983.7813    
     70900  -29592.556     -29398.133      269.52328      75115.464      2983.7813    
     71000  -29605.085     -29385.73       304.08695      59491.18       2983.7813    
     71100  -29580.912     -29363.768      301.02239      64165.088      2983.7813    
     71200  -29586.354     -29354.33       321.65061      73882.626      2983.7813    
     71300  -29569.374     -29362.411      286.90884      79192.386      2983.7813    
     71400  -29584.854     -29377.601      287.30967      79273.225      2983.7813    
     71500  -29596.571     -29379.437      301.00841      63230.388      2983.7813    
     71600  -29590.789     -29376.543      297.00545      71185.441      2983.7813    
     71700  -29581.53      -29368.47       295.35994      72869.334      2983.7813    
     71800  -29580.422     -29363.29       301.00629      67831.009      2983.7813    
     71900  -29587.598     -29348.239      331.81744      71189.322      2983.7813    
     72000  -29551.342     -29339.785      293.27724      63244.285      2983.7813    
     72100  -29571.512     -29340.674      320.0062       71802.06       2983.7813    
     72200  -29585.723     -29363.636      307.87401      71524.39       2983.7813    
     72300  -29585.71      -29378.016      287.92162      66246.145      2983.7813    
     72400  -29591.499     -29382.523      289.69905      75658.176      2983.7813    
     72500  -29589.379     -29364.408      311.87219      73724.591      2983.7813    
     72600  -29562.813     -29340.337      308.41442      68367.259      2983.7813    
     72700  -29572.748     -29346.562      313.55649      69848.056      2983.7813    
     72800  -29562.211     -29359.836      280.54825      79115.959      2983.7813    
     72900  -29601.358     -29366.791      325.17542      74861.257      2983.7813    
     73000  -29593.325     -29377.8        298.77746      71949.577      2983.7813    
     73100  -29587.174     -29375.503      293.43598      80322.146      2983.7813    
     73200  -29577.722     -29345.039      322.56382      65922.984      2983.7813    
     73300  -29561.903     -29330.313      321.04809      72686.632      2983.7813    
     73400  -29585.795     -29345.573      333.01376      60807.477      2983.7813    
     73500  -29584.581     -29368.747      299.20577      74594.135      2983.7813    
     73600  -29582.29      -29371.769      291.8395       71570.752      2983.7813    
     73700  -29590.448     -29370.757      304.55272      68500.212      2983.7813    
     73800  -29581.464     -29373.055      288.91335      80906.863      2983.7813    
     73900  -29587.035     -29383.491      282.16908      71254.087      2983.7813    
     74000  -29587.724     -29381.106      286.42982      74705.646      2983.7813    
     74100  -29579.939     -29361.085      303.39279      74374.979      2983.7813    
     74200  -29579.654     -29346.576      323.1105       67465.899      2983.7813    
     74300  -29575.971     -29356.116      304.78121      71366.767      2983.7813    
     74400  -29614.972     -29387.125      315.8586       74029.526      2983.7813    
     74500  -29598.595     -29388.3        291.5264       74988.511      2983.7813    
     74600  -29599.585     -29372.625      314.63014      78411.383      2983.7813    
     74700  -29573.121     -29363.648      290.3885       66398.92       2983.7813    
     74800  -29580.087     -29363.871      299.73428      63443.363      2983.7813    
     74900  -29579.326     -29371.045      288.73497      73837.197      2983.7813    
     75000  -29581.306     -29366.099      298.33598      65670.538      2983.7813    
     75100  -29580.678     -29370.464      291.41481      69530.981      2983.7813    
     75200  -29598.549     -29378.404      305.18163      73954.388      2983.7813    
     75300  -29581.472     -29377.953      282.13368      71800.984      2983.7813    
     75400  -29590.608     -29358.489      321.78134      69686.117      2983.7813    
     75500  -29556.265     -29343.748      294.60777      76909.735      2983.7813    
     75600  -29570.055     -29348.464      307.18605      73127.976      2983.7813    
     75700  -29596.356     -29382.812      296.0322       71636.706      2983.7813    
     75800  -29585.836     -29388.302      273.83746      76458.608      2983.7813    
     75900  -29579.797     -29374.621      284.43006      68454.642      2983.7813    
     76000  -29587.989     -29355.185      322.7307       68838.839      2983.7813    
     76100  -29588.43      -29357.128      320.64908      66216.411      2983.7813    
     76200  -29576.432     -29367.426      289.74121      67227.326      2983.7813    
     76300  -29586.992     -29368.913      302.31726      75688.737      2983.7813    
     76400  -29587.832     -29367.556      305.36434      71695.913      2983.7813    
     76500  -29589.19      -29371.663      301.5534       67177.791      2983.7813    
     76600  -29581.014     -29372.666      288.82769      71234.312      2983.7813    
     76700  -29582.588     -29362.287      305.39928      80151.557      2983.7813    
     76800  -29564.733     -29347.748      300.80162      68223.641      2983.7813    
     76900  -29567.427     -29336.74       319.79624      78196.712      2983.7813    
     77000  -29589.542     -29356.919      322.47899      67875.644      2983.7813    
     77100  -29582.983     -29382.84       277.45353      69733.639      2983.7813    
     77200  -29588.938     -29374.29       297.56113      72081.481      2983.7813    
     77300  -29577.705     -29362.092      298.90076      73255.79       2983.7813    
     77400  -29573.036     -29350.914      307.92325      71501.496      2983.7813    
     77500  -29574.606     -29355.785      303.3473       76027.033      2983.7813    
     77600  -29588.667     -29382.452      285.87009      67820.077      2983.7813    
     77700  -29595.761     -29390.503      284.54362      71233.424      2983.7813    
     77800  -29601.339     -29383.442      302.06597      72451.878      2983.7813    
     77900  -29582.37      -29354.332      316.1238       75290.088      2983.7813    
     78000  -29572.275     -29346.047      313.61427      68683.374      2983.7813    
     78100  -29556.305     -29356.349      277.19496      77488.157      2983.7813    
     78200  -29584.422     -29365.603      303.34462      67820.41       2983.7813    
     78300  -29589.98      -29378.884      292.63835      76310.559      2983.7813    
     78400  -29590.046     -29405.767      255.46191      64583.708      2983.7813    
     78500  -29616.446     -29417.366      275.97981      75140.096      2983.7813    
     78600  -29587.466     -29379.13       288.81182      84986.303      2983.7813    
     78700  -29583.577     -29367.532      299.49893      75900.465      2983.7813    
     78800  -29567.054     -29360.363      286.53082      67876.736      2983.7813    
     78900  -29578.366     -29360.007      302.70698      73640.941      2983.7813    
     79000  -29582.557     -29368.38       296.90889      69828.138      2983.7813    
     79100  -29606.95      -29378.516      316.67306      69361.065      2983.7813    
     79200  -29605.044     -29397.525      287.6786       68273.834      2983.7813    
     79300  -29583.168     -29400.603      253.08575      54785.841      2983.7813    
     79400  -29590.167     -29369.415      306.02495      70883.252      2983.7813    
     79500  -29583.177     -29360.967      308.04484      76370.966      2983.7813    
     79600  -29578.9       -29361.874      300.85835      71272.202      2983.7813    
     79700  -29584.697     -29375.454      290.06825      66405.313      2983.7813    
     79800  -29596.781     -29397.393      276.40718      71334.411      2983.7813    
     79900  -29595.62      -29391.762      282.60364      68822.692      2983.7813    
     80000  -29575.65      -29370.241      284.75515      71394.144      2983.7813    
     80100  -29581.328     -29362.662      303.13126      67886.344      2983.7813    
     80200  -29584.887     -29353.708      320.47767      59032.553      2983.7813    
     80300  -29583.501     -29368.805      297.62883      67712.037      2983.7813    
     80400  -29582.576     -29381.967      278.09957      68888.157      2983.7813    
     80500  -29594.324     -29370.531      310.23935      78254.453      2983.7813    
     80600  -29564.71      -29338.791      313.18653      85381.862      2983.7813    
     80700  -29572.107     -29338.861      323.34401      67749.587      2983.7813    
     80800  -29587.542     -29350.847      328.12474      73207.285      2983.7813    
     80900  -29574.407     -29361.064      295.75321      81464.597      2983.7813    
     81000  -29591.103     -29372.876      302.52316      71461.496      2983.7813    
     81100  -29597.11      -29386.008      292.64566      71491.853      2983.7813    
     81200  -29604.411     -29397.198      287.25506      65656.336      2983.7813    
     81300  -29609.666     -29389.754      304.85886      70429.526      2983.7813    
     81400  -29584.179     -29362.587      307.1889       75791.114      2983.7813    
     81500  -29592.926     -29356.274      328.06536      78138.751      2983.7813    
     81600  -29570.979     -29367.734      281.7532       66142.137      2983.7813    
     81700  -29598.109     -29382.344      299.10941      75917.156      2983.7813    
     81800  -29604.482     -29404.785      276.8368       80669.857      2983.7813    
     81900  -29597.21      -29407.079      263.57435      75838.058      2983.7813    
     82000  -29585.123     -29371.519      296.11463      78694.009      2983.7813    
     82100  -29581.305     -29361.595      304.57872      76173.83       2983.7813    
     82200  -29571.927     -29350.973      306.30384      81766.555      2983.7813    
     82300  -29567.603     -29351.978      298.91631      68786.202      2983.7813    
     82400  -29583.501     -29375.78       287.95947      72786.528      2983.7813    
     82500  -29611.882     -29393.462      302.79083      68401.176      2983.7813    
     82600  -29594.602     -29385.101      290.42679      69706.481      2983.7813    
     82700  -29594.819     -29369.733      312.03245      62383.169      2983.7813    
     82800  -29575.042     -29364.994      291.18561      81509.733      2983.7813    
     82900  -29571.585     -29361.195      291.65993      74672.315      2983.7813    
     83000  -29571.246     -29359.94       292.92913      81382.534      2983.7813    
     83100  -29577.742     -29356.974      306.04585      70387.255      2983.7813    
     83200  -29583.145     -29361.338      307.48729      66545.967      2983.7813    
     83300  -29583.416     -29372.82       291.94457      72811.088      2983.7813    
     83400  -29588.244     -29376.228      293.91413      68868.702      2983.7813    
     83500  -29591.012     -29369.672      306.83774      76463.288      2983.7813    
     83600  -29564.373     -29354.478      290.97298      74611.893      2983.7813    
     83700  -29574.576     -29332.961      334.94583      66638.42       2983.7813    
     83800  -29568.159     -29343.254      311.78159      75449.709      2983.7813    
     83900  -29591.62      -29362.437      317.711        76612.516      2983.7813    
     84000  -29581.967     -29373.019      289.65973      72363.68       2983.7813    
     84100  -29595.093     -29376.589      302.90731      72047.705      2983.7813    
     84200  -29582.325     -29365.225      300.96085      81029.789      2983.7813    
     84300  -29559.541     -29342.368      301.06339      84421.687      2983.7813    
     84400  -29565.143     -29349.458      298.99981      71699.63       2983.7813    
     84500  -29575.793     -29380.622      270.56145      75643.582      2983.7813    
     84600  -29605.118     -29392.54       294.69162      76527.032      2983.7813    
     84700  -29589.347     -29385.14       283.08856      78009.844      2983.7813    
     84800  -29587.788     -29365.195      308.57584      68491.544      2983.7813    
     84900  -29580.489     -29354.534      313.2373       73812.457      2983.7813    
[...]
    178600  -29578.731     -29356.686      307.81651      77086.477      2983.7813    
    178700  -29582.292     -29349.923      322.12808      71198.647      2983.7813    
    178800  -29582.359     -29383.98       275.00806      67469.53       2983.7813    
    178900  -29591.508     -29387.729      282.49388      75369.03       2983.7813    
    179000  -29595.92      -29371.111      311.64732      73000.902      2983.7813    
    179100  -29566.844     -29357.005      290.89448      71065.326      2983.7813    
    179200  -29587.351     -29360.055      315.09514      68972.93       2983.7813    
    179300  -29597.146     -29384.268      295.10815      68453.412      2983.7813    
    179400  -29596.45      -29387.812      289.22973      67947.758      2983.7813    
    179500  -29596.712     -29358.716      329.92911      71083.414      2983.7813    
    179600  -29572.04      -29335.307      328.17817      67453.3        2983.7813    
    179700  -29567.571     -29350.863      300.41692      65818.062      2983.7813    
    179800  -29586.12      -29370.495      298.91661      78103.746      2983.7813    
    179900  -29587.061     -29382.574      283.47511      62447.98       2983.7813    
    180000  -29580.663     -29387.862      267.27638      68328.041      2983.7813    
    180100  -29585.819     -29372.352      295.9259       68576.612      2983.7813    
    180200  -29573.838     -29345.573      316.43821      68923.767      2983.7813    
    180300  -29581.057     -29352.716      316.54427      65801.362      2983.7813    
    180400  -29574.521     -29371.474      281.47963      85377.688      2983.7813    
    180500  -29608.718     -29376.965      321.27421      77775.086      2983.7813    
    180600  -29597.129     -29384.797      294.35146      81647.768      2983.7813    
    180700  -29587.276     -29396.311      264.72953      64520.374      2983.7813    
    180800  -29595.3       -29383.007      294.29637      66306.579      2983.7813    
    180900  -29589.499     -29362.08       315.2658       65792.867      2983.7813    
    181000  -29588.108     -29350.702      329.11207      71181.084      2983.7813    
    181100  -29570.712     -29353.829      300.6608       72819.545      2983.7813    
    181200  -29592.797     -29381.212      293.31557      78545.942      2983.7813    
    181300  -29604.906     -29398.608      285.98542      63535.871      2983.7813    
    181400  -29603.348     -29386.198      301.03022      72218.412      2983.7813    
    181500  -29592.705     -29367.084      312.77316      69997.872      2983.7813    
    181600  -29577.622     -29361.918      299.02535      75611.668      2983.7813    
    181700  -29582.939     -29363.478      304.23414      77732.069      2983.7813    
    181800  -29603.955     -29371.849      321.7627       81872.912      2983.7813    
    181900  -29600.361     -29405.859      269.63318      83840.778      2983.7813    
    182000  -29598.105     -29398.601      276.56861      61298.73       2983.7813    
    182100  -29582.568     -29377.754      283.92926      66178.059      2983.7813    
    182200  -29576.79      -29361.622      298.282        70254.002      2983.7813    
    182300  -29564.725     -29358.337      286.11191      69512.932      2983.7813    
    182400  -29570.704     -29361.667      289.78354      75731.701      2983.7813    
    182500  -29582.952     -29383.186      276.93109      71584.075      2983.7813    
    182600  -29606.442     -29394.778      293.42622      66533.787      2983.7813    
    182700  -29604.218     -29396.472      287.9932       65468.161      2983.7813    
    182800  -29591.749     -29369.116      308.63135      76404.086      2983.7813    
    182900  -29560.332     -29354.97       284.68945      72242.725      2983.7813    
    183000  -29575.866     -29355.764      305.12228      70889.346      2983.7813    
    183100  -29584.87      -29373.874      292.49954      71266.589      2983.7813    
    183200  -29590.693     -29390.632      277.34011      79248.377      2983.7813    
    183300  -29593.164     -29385.23       288.25363      75139.097      2983.7813    
    183400  -29598.28      -29376.099      308.00451      66997.058      2983.7813    
    183500  -29587.787     -29371.061      300.442        70578.288      2983.7813    
    183600  -29590.94      -29367.48       309.77704      69025.16       2983.7813    
    183700  -29588.431     -29369.92       302.91715      67769.646      2983.7813    
    183800  -29584.503     -29373.295      292.79322      71262.232      2983.7813    
    183900  -29583.684     -29366.864      300.57308      71972.091      2983.7813    
    184000  -29569.702     -29354.847      297.84851      72178.464      2983.7813    
    184100  -29554.549     -29345.726      289.48659      81107.642      2983.7813    
    184200  -29570.612     -29357.004      296.11936      77394.717      2983.7813    
    184300  -29584.083     -29380.816      281.78567      69736.734      2983.7813    
    184400  -29612.042     -29378.804      323.3321       77746.927      2983.7813    
    184500  -29574.355     -29379.238      270.48665      68889.408      2983.7813    
    184600  -29558.812     -29355.627      281.67142      71445.427      2983.7813    
    184700  -29561.421     -29333.233      316.33251      77313.209      2983.7813    
    184800  -29563.604     -29348.65       297.98572      71889.99       2983.7813    
    184900  -29601.628     -29367.754      324.215        72345.713      2983.7813    
    185000  -29596.543     -29376.312      305.30121      73127.194      2983.7813    
    185100  -29588.175     -29370.645      301.55764      80144.882      2983.7813    
    185200  -29579.942     -29361.119      303.35         70653.982      2983.7813    
    185300  -29563.725     -29333.86       318.65755      72525.703      2983.7813    
    185400  -29549.564     -29328.708      306.16684      67301.554      2983.7813    
    185500  -29581.295     -29350.68       319.69626      75557.958      2983.7813    
    185600  -29572.246     -29365.618      286.44288      67001.449      2983.7813    
    185700  -29583.173     -29369.598      296.07443      75954.906      2983.7813    
    185800  -29579.284     -29372.053      287.28025      60302.099      2983.7813    
    185900  -29583.954     -29356.636      315.12586      70678.107      2983.7813    
    186000  -29571.417     -29340.876      319.59359      79074.975      2983.7813    
    186100  -29573.747     -29355.353      302.75458      62565.337      2983.7813    
    186200  -29585.952     -29380.476      284.84721      67412.395      2983.7813    
    186300  -29588.827     -29381.098      287.97069      64143.291      2983.7813    
    186400  -29586.671     -29371.263      298.61613      82414.284      2983.7813    
    186500  -29570.744     -29363.3        287.57535      83135.195      2983.7813    
    186600  -29566.266     -29334.739      320.96019      70843.186      2983.7813    
    186700  -29575.034     -29327.426      343.25447      74144.388      2983.7813    
    186800  -29596.881     -29351.853      339.67645      82400.822      2983.7813    
    186900  -29590.207     -29366.607      309.97208      72494.421      2983.7813    
    187000  -29590.544     -29371.201      304.07052      62456.152      2983.7813    
    187100  -29578.682     -29374.262      283.38192      58370.947      2983.7813    
    187200  -29592.765     -29364.464      316.48826      68480.506      2983.7813    
    187300  -29574.369     -29348.034      313.76325      77310.961      2983.7813    
    187400  -29584.881     -29345.894      331.30164      73848.678      2983.7813    
    187500  -29577.662     -29373.225      283.40547      76740.155      2983.7813    
    187600  -29594.151     -29385.732      288.92687      69093.464      2983.7813    
    187700  -29585.959     -29376.5        290.36837      74182.595      2983.7813    
    187800  -29577.703     -29363.976      296.28477      73472.015      2983.7813    
    187900  -29590.017     -29356.14       324.21845      71593.134      2983.7813    
    188000  -29578.146     -29362.529      298.90458      84648.499      2983.7813    
    188100  -29573.443     -29367.217      285.88624      74331.224      2983.7813    
    188200  -29580.753     -29368.641      294.04624      71069.932      2983.7813    
    188300  -29585.954     -29371.829      296.83734      70916.708      2983.7813    
    188400  -29596.774     -29381.548      298.36284      66453.453      2983.7813    
    188500  -29587.543     -29383.14       283.35947      66350.09       2983.7813    
    188600  -29596.399     -29365.924      319.50223      72159.715      2983.7813    
    188700  -29553.411     -29350.807      280.86435      73020.292      2983.7813    
    188800  -29581.226     -29348.625      322.45073      68269.992      2983.7813    
    188900  -29586.785     -29368.978      301.94083      64468.542      2983.7813    
    189000  -29599.261     -29394.669      283.62219      71179.616      2983.7813    
    189100  -29587.843     -29391.254      272.52805      77867.564      2983.7813    
    189200  -29586.656     -29372.804      296.45889      65317.076      2983.7813    
    189300  -29581.935     -29353.776      316.29107      82018.384      2983.7813    
    189400  -29574.746     -29352.268      308.4159       80081.716      2983.7813    
    189500  -29573.428     -29362.143      292.89951      66045.15       2983.7813    
    189600  -29586.605     -29373.58       295.31232      74398.758      2983.7813    
    189700  -29584.194     -29389.985      269.22788      69115.02       2983.7813    
    189800  -29590.426     -29394.929      271.01244      64616.573      2983.7813    
    189900  -29589.866     -29380.915      289.6633       62962.505      2983.7813    
    190000  -29577.331     -29358.432      303.45493      69490.31       2983.7813    
    190100  -29578.389     -29346.445      321.53777      68265.402      2983.7813    
    190200  -29591.695     -29347.672      338.28332      68523.279      2983.7813    
    190300  -29586.984     -29375.577      293.06923      76360.557      2983.7813    
    190400  -29606.773     -29381.8        311.87539      66902.907      2983.7813    
    190500  -29582.093     -29381.921      277.49392      61689.58       2983.7813    
    190600  -29587.595     -29370.293      301.24099      81649.341      2983.7813    
    190700  -29592.743     -29366.72       313.33187      67287.22       2983.7813    
    190800  -29601.784     -29368.617      323.23468      72126.407      2983.7813    
    190900  -29573.341     -29376.403      273.01147      68966.534      2983.7813    
    191000  -29589.991     -29370.026      304.93309      72199.39       2983.7813    
    191100  -29565.695     -29359.266      286.16831      77226.217      2983.7813    
    191200  -29554.408     -29334.38       305.02022      73308.097      2983.7813    
    191300  -29568.163     -29345.902      308.1143       73893.794      2983.7813    
    191400  -29585.089     -29367.505      301.63059      70820.799      2983.7813    
    191500  -29591.496     -29378.716      294.97242      67024.805      2983.7813    
    191600  -29578.7       -29377.785      278.52447      69741.538      2983.7813    
    191700  -29583.981     -29363.345      305.86342      76852.266      2983.7813    
    191800  -29565.514     -29330.712      325.49997      69988.478      2983.7813    
    191900  -29570.116     -29323.578      341.77033      73883.9        2983.7813    
    192000  -29563.707     -29349.394      297.09652      73312.966      2983.7813    
    192100  -29583.033     -29360.507      308.48301      58428.995      2983.7813    
    192200  -29584.346     -29370.295      296.733        66765.817      2983.7813    
    192300  -29590.88      -29383.912      286.91454      65386.956      2983.7813    
    192400  -29584.448     -29382.412      280.07807      81536.718      2983.7813    
    192500  -29578.893     -29361.445      301.4438       75606.765      2983.7813    
    192600  -29561.624     -29343.045      303.01127      80578.874      2983.7813    
    192700  -29563.316     -29341.402      307.63571      72249.709      2983.7813    
    192800  -29578.941     -29367.675      292.87316      81377.143      2983.7813    
    192900  -29590.187     -29373.153      300.86983      59907.977      2983.7813    
    193000  -29586.428     -29375.93       291.80979      76687.5        2983.7813    
    193100  -29582.838     -29376.739      285.71065      75245.988      2983.7813    
    193200  -29583.154     -29362.751      305.53895      73139.048      2983.7813    
    193300  -29585.621     -29338.853      342.08916      71629.586      2983.7813    
    193400  -29570.123     -29336.391      324.01787      81139.829      2983.7813    
    193500  -29590.011     -29366.086      310.42223      59132.231      2983.7813    
    193600  -29573.726     -29379.734      268.92657      70553.145      2983.7813    
    193700  -29585.285     -29374.289      292.4992       71356.821      2983.7813    
    193800  -29581.12      -29362.468      303.11302      65206.393      2983.7813    
    193900  -29556.749     -29346.755      291.10914      69439.53       2983.7813    
    194000  -29575.916     -29328.07       343.58228      77466.091      2983.7813    
    194100  -29559.419     -29349.69       290.74333      78932.298      2983.7813    
    194200  -29589.864     -29372.718      301.02496      73022.143      2983.7813    
    194300  -29593.061     -29378.473      297.47946      83020.405      2983.7813    
    194400  -29599.93      -29370.824      317.60395      70836.2        2983.7813    
    194500  -29593.829     -29356.904      328.44352      67698.782      2983.7813    
    194600  -29552.448     -29342.82       290.60198      74564.935      2983.7813    
    194700  -29572.797     -29343.051      318.49163      68224.672      2983.7813    
    194800  -29590.41      -29372.346      302.29622      82802.316      2983.7813    
    194900  -29584.5       -29386.559      274.40069      73262.741      2983.7813    
    195000  -29599.515     -29372.957      314.07203      70487.375      2983.7813    
    195100  -29569.702     -29362.479      287.26954      72041.947      2983.7813    
    195200  -29580.599     -29344.499      327.30087      75983.291      2983.7813    
    195300  -29552.413     -29330.874      307.11579      75432.878      2983.7813    
    195400  -29575.756     -29342.883      322.82705      78572.123      2983.7813    
    195500  -29590.165     -29372.952      301.11767      68749.893      2983.7813    
    195600  -29590.553     -29387.862      280.98617      75101.623      2983.7813    
    195700  -29586.17      -29387.456      275.47295      70995.583      2983.7813    
    195800  -29593.636     -29364.057      318.25955      77300.501      2983.7813    
    195900  -29569.962     -29353.608      299.92716      76962.869      2983.7813    
    196000  -29586.656     -29356.465      319.10826      73178.713      2983.7813    
    196100  -29573.287     -29366.856      286.17061      73463.83       2983.7813    
    196200  -29584.511     -29366.792      301.81937      71304.024      2983.7813    
    196300  -29585.247     -29368.055      301.08933      74512.069      2983.7813    
    196400  -29593.453     -29368.357      312.04462      78244.974      2983.7813    
    196500  -29583.289     -29364.741      302.96811      74519.308      2983.7813    
    196600  -29557.287     -29346.556      292.13046      68776.631      2983.7813    
    196700  -29564.833     -29337.25       315.49312      72240.998      2983.7813    
    196800  -29582.519     -29351.635      320.06956      64270.417      2983.7813    
    196900  -29592.858     -29378.105      297.70685      75317.327      2983.7813    
    197000  -29574.979     -29381.343      268.43337      63828.744      2983.7813    
    197100  -29583.879     -29368.924      297.98778      76287.827      2983.7813    
    197200  -29573.082     -29362.665      291.6964       91036.814      2983.7813    
    197300  -29583.427     -29345.011      330.51064      68290.628      2983.7813    
    197400  -29558.982     -29325.405      323.80282      67944.502      2983.7813    
    197500  -29561.855     -29341.434      305.56447      76402.838      2983.7813    
    197600  -29590.271     -29363.521      314.3378       67712.551      2983.7813    
    197700  -29587.562     -29376.809      292.16161      75622.543      2983.7813    
    197800  -29585.27      -29379.527      285.21688      77847.938      2983.7813    
    197900  -29578.704     -29361.928      300.51131      68295.09       2983.7813    
    198000  -29559.094     -29342.617      300.09698      77347.12       2983.7813    
    198100  -29571.556     -29350.537      306.39396      77113.101      2983.7813    
    198200  -29587.429     -29364.815      308.60564      73843.894      2983.7813    
    198300  -29598.395     -29370.877      315.40372      75370.611      2983.7813    
    198400  -29581.162     -29372.451      289.33103      66258.325      2983.7813    
    198500  -29584.434     -29373.916      291.83657      75824.925      2983.7813    
    198600  -29597.296     -29390.351      286.88264      72479.715      2983.7813    
    198700  -29605.981     -29395.673      291.54532      65616.623      2983.7813    
    198800  -29581.211     -29378.404      281.14674      61626.366      2983.7813    
    198900  -29579.456     -29356.918      308.49974      64199.096      2983.7813    
    199000  -29585.582     -29352.808      322.68987      77099.149      2983.7813    
    199100  -29586.974     -29363.943      309.1816       75167.125      2983.7813    
    199200  -29602.219     -29376.656      312.69275      70258.887      2983.7813    
    199300  -29583.792     -29376.931      286.7659       81733.269      2983.7813    
    199400  -29590.118     -29371.743      302.7283       78805.274      2983.7813    
    199500  -29584.552     -29364.847      304.57248      74434.891      2983.7813    
    199600  -29578.896     -29358.529      305.48992      77677.43       2983.7813    
    199700  -29578.971     -29354.573      311.07834      67829.536      2983.7813    
    199800  -29566.629     -29357.462      289.96422      70333.539      2983.7813    
    199900  -29596.63      -29376.192      305.588        78128.005      2983.7813    
    200000  -29606.247     -29391.202      298.11266      78317.049      2983.7813    
Loop time of 8841.5 on 12 procs for 200000 steps with 243 atoms

Performance: 0.977 ns/day, 24.560 hours/ns, 22.621 timesteps/s, 5.497 katom-step/s
93.3% CPU use with 2 MPI tasks x 6 OpenMP threads

MPI task timing breakdown:
Section |  min time  |  avg time  |  max time  |%varavg| %total
---------------------------------------------------------------
Pair    | 4441.2     | 4467.1     | 4493       |  38.7 | 50.52
Bond    | 0.030299   | 0.034991   | 0.039683   |   2.5 |  0.00
Neigh   | 459.19     | 460.92     | 462.66     |   8.1 |  5.21
Comm    | 24.099     | 52.442     | 80.786     | 391.4 |  0.59
Output  | 0.55886    | 0.57787    | 0.59687    |   2.5 |  0.01
Modify  | 3852.4     | 3856.7     | 3860.9     |   6.9 | 43.62
Other   |            | 3.769      |            |       |  0.04

Nlocal:          121.5 ave         122 max         121 min
Histogram: 1 0 0 0 0 0 0 0 0 1
Nghost:           3942 ave        3946 max        3938 min
Histogram: 1 0 0 0 0 0 0 0 0 1
Neighs:        65672.5 ave       65952 max       65393 min
Histogram: 1 0 0 0 0 0 0 0 0 1

Total # of neighbors = 131345
Ave neighs/atom = 540.5144
Ave special neighs/atom = 0
Neighbor list builds = 20000
Dangerous builds not checked

print "Volume: $(vol)"
Volume: 2983.7813059746904401

Total wall time: 2:27:21
