LAMMPS (2 Aug 2023 - Update 2)
  using 6 OpenMP thread(s) per MPI task

The 'box' command has been removed and will be ignored

Reading data file ...
  triclinic box = (0 0 0) to (14.6913 12.723 15.9631) with tilt (-7.3456 0 0)
WARNING: Triclinic box skew is large. LAMMPS will run inefficiently. (src/domain.cpp:220)
  1 by 1 by 2 MPI processor grid
  reading atoms ...
  243 atoms
Finding 1-2 1-3 1-4 neighbors ...
  special bond factors lj:    0        0        0       
  special bond factors coul:  0        0        0       
     0 = max # of 1-2 neighbors
     0 = max # of 1-3 neighbors
     0 = max # of 1-4 neighbors
     1 = max # of special neighbors
  special bonds CPU = 0.000 seconds
  read_data CPU = 0.008 seconds
WARNING: Van der Waals parameters for element SI indicate inner wall+shielding, but earlier atoms indicate a different van der Waals method. This may cause division-by-zero errors. Keeping van der Waals setting for earlier atoms. (src/REAXFF/reaxff_ffield.cpp:251)
WARNING: Van der Waals parameters for element AL indicate inner wall+shielding, but earlier atoms indicate a different van der Waals method. This may cause division-by-zero errors. Keeping van der Waals setting for earlier atoms. (src/REAXFF/reaxff_ffield.cpp:251)
WARNING: Changed valency_val to valency_boc for X (src/REAXFF/reaxff_ffield.cpp:296)
*****Minimization starts.*****

CITE-CITE-CITE-CITE-CITE-CITE-CITE-CITE-CITE-CITE-CITE-CITE-CITE

Your simulation uses code contributions which should be cited:
- pair reaxff command: doi:10.1016/j.parco.2011.08.005
- fix acks2/reaxff command: doi:10.1137/18M1224684
The log file lists these citations in BibTeX format.

CITE-CITE-CITE-CITE-CITE-CITE-CITE-CITE-CITE-CITE-CITE-CITE-CITE

Switching to 'neigh_modify every 1 delay 0 check yes' setting during minimization
Neighbor list info ...
  update: every = 1 steps, delay = 0 steps, check = yes
  max neighbors/atom: 2000, page size: 100000
  master list distance cutoff = 12
  ghost atom cutoff = 12
  binsize = 6, bins = 4 3 3
  2 neighbor lists, perpetual/occasional/extra = 2 0 0
  (1) pair reaxff, perpetual
      attributes: half, newton off, ghost
      pair build: half/bin/newtoff/ghost
      stencil: full/ghost/bin/3d
      bin: standard
  (2) fix acks2/reaxff, perpetual, copy from (1)
      attributes: half, newton off
      pair build: copy
      stencil: none
      bin: none
Setting up cg style minimization ...
  Unit style    : real
  Current step  : 0
Per MPI rank memory allocation (min/avg/max) = 92.55 | 92.68 | 92.81 Mbytes
   Step          Temp          Press          PotEng         TotEng         Volume    
         0   0              332010.69     -26789.469     -26789.469      2864.1715    
        54   0              54623.721     -28317.698     -28317.698      2864.1715    
Loop time of 7.13748 on 12 procs for 54 steps with 243 atoms

96.1% CPU use with 2 MPI tasks x 6 OpenMP threads

Minimization stats:
  Stopping criterion = energy tolerance
  Energy initial, next-to-last, final = 
     -26789.4691469645  -28317.6843805684  -28317.6978436486
  Force two-norm initial, final = 790.7042 562.99117
  Force max component initial, final = 56.233869 138.80339
  Final line search alpha, max atom move = 0.0010172651 0.14119985
  Iterations, force evaluations = 54 281

MPI task timing breakdown:
Section |  min time  |  avg time  |  max time  |%varavg| %total
---------------------------------------------------------------
Pair    | 3.2536     | 3.2614     | 3.2693     |   0.4 | 45.69
Bond    | 0.00038475 | 0.00039925 | 0.00041374 |   0.0 |  0.01
Neigh   | 0          | 0          | 0          |   0.0 |  0.00
Comm    | 0.017687   | 0.025456   | 0.033224   |   4.9 |  0.36
Output  | 0          | 0          | 0          |   0.0 |  0.00
Modify  | 3.8464     | 3.8467     | 3.8469     |   0.0 | 53.89
Other   |            | 0.003551   |            |       |  0.05

Nlocal:          121.5 ave         126 max         117 min
Histogram: 1 0 0 0 0 0 0 0 0 1
Nghost:         1903.5 ave        1908 max        1899 min
Histogram: 1 0 0 0 0 0 0 0 0 1
Neighs:          45425 ave       47269 max       43581 min
Histogram: 1 0 0 0 0 0 0 0 0 1

Total # of neighbors = 90850
Ave neighs/atom = 373.86831
Ave special neighs/atom = 0
Neighbor list builds = 0
Dangerous builds not checked
System init for write_data ...
*****Equilibration starts.*****
Setting up Verlet run ...
  Unit style    : real
  Current step  : 0
  Time step     : 0.5
Per MPI rank memory allocation (min/avg/max) = 90.86 | 90.98 | 91.1 Mbytes
   Step          Temp          Press          PotEng         TotEng         Volume    
         0   300            56868.524     -28317.699     -28101.292      2925.0656    
       100   220.17028      27717.213     -28233.849     -28075.028      3001.7562    
       200   277.69569      28116.847     -28235.885     -28035.568      3039.2067    
       300   363.45993      35525.922     -28276.105     -28013.921      3119.2251    
       400   345.7857       6065.6385     -28303.38      -28053.946      3220.0228    
       500   301.73197     -6319.1461     -28315.144     -28097.488      3212.2878    
       600   313.44582      5180.3934     -28366.116     -28140.01       3243.5009    
       700   347.46215      25552.981     -28432.589     -28181.945      3197.4755    
       800   326.46706      36428.484     -28464.563     -28229.065      3139.0475    
       900   277.93831      49119.366     -28462.727     -28262.235      3090.0992    
      1000   281.20658      45025.007     -28469.2       -28266.35       3071.9384    
      1100   302.4967       33112.675     -28470.595     -28252.387      3152.7662    
      1200   372.78789      48390.715     -28528.894     -28259.982      3141.3299    
      1300   316.54747      12297.979     -28540.346     -28312.003      3204.8044    
      1400   288.13908      11689.922     -28559.483     -28351.632      3230.1341    
      1500   287.4732       16958.63      -28574.326     -28366.955      3219.3307    
      1600   304.94407      30564.13      -28605.969     -28385.996      3214.481     
      1700   301.53338      43216.963     -28643.321     -28425.808      3188.9444    
      1800   291.19813      43711.811     -28675.472     -28465.414      3167.3123    
      1900   302.3677       51315.089     -28710.996     -28492.881      3159.4689    
      2000   291.04832      29606.538     -28707.947     -28497.998      3135.9039    
      2100   312.64578      24878.011     -28716.12      -28490.591      3115.451     
      2200   298.92148      18429.506     -28699.062     -28483.433      3140.53      
      2300   301.09502      30892.919     -28704.223     -28487.026      3151.6954    
      2400   289.20249      28959.111     -28699.101     -28490.483      3159.4315    
      2500   311.99328      29134.285     -28708.648     -28483.59       3142.1243    
      2600   305.28758      36446         -28700.416     -28480.195      3136.9178    
      2700   312.38605      34725.983     -28726.517     -28501.175      3125.6915    
      2800   287.43349      47776.3       -28718.75      -28511.409      3110.503     
      2900   304.61866      38092.079     -28719.045     -28499.306      3083.0249    
      3000   326.73183      20891.377     -28704.783     -28469.093      3114.349     
      3100   317.60992      28014.512     -28700.365     -28471.255      3145.9765    
      3200   284.28657      34114.037     -28687.93      -28482.858      3150.529     
      3300   292.52098      53984.474     -28699.628     -28488.616      3178.6557    
      3400   316.7709       19849.628     -28723.243     -28494.739      3176.1788    
      3500   287.13324      20444.885     -28726.999     -28519.874      3180.6234    
      3600   288.00268      29980.319     -28736.57      -28528.818      3156.2048    
      3700   278.02155      46689.731     -28720.404     -28519.852      3122.999     
      3800   300.24278      35955.491     -28720.326     -28503.744      3127.7003    
      3900   315.5624       29087.631     -28718.467     -28490.834      3135.8289    
      4000   292.85267      31707.857     -28705.882     -28494.631      3110.9356    
      4100   288.47681      21691.616     -28717.497     -28509.402      3144.6644    
      4200   284.20759      24548.819     -28744.264     -28539.249      3137.5429    
      4300   267.69072      28154.967     -28728.315     -28535.215      3140.1011    
      4400   306.27132      22920.947     -28737.328     -28516.397      3162.0801    
      4500   292.92665      27702.397     -28714.642     -28503.337      3184.4376    
      4600   295.9575       23599.056     -28701.177     -28487.686      3159.652     
      4700   317.82916      40304.836     -28710.421     -28481.153      3122.6325    
      4800   285.20567      49416.146     -28708.237     -28502.503      3142.9015    
      4900   300.52923      26323.27      -28738.837     -28522.049      3134.767     
      5000   284.12664      20753.579     -28723.252     -28518.295      3137.2613    
      5100   290.43848      12165.756     -28710.862     -28501.352      3134.2463    
      5200   309.25105      15359.864     -28712.676     -28489.596      3168.4637    
      5300   306.94545      18918.574     -28710.686     -28489.269      3158.7359    
      5400   348.36379      46146.586     -28722.274     -28470.979      3118.2695    
      5500   328.28964      42458.109     -28721.901     -28485.088      3110.7216    
      5600   306.66081      30221.482     -28744.841     -28523.629      3116.1963    
      5700   293.44698      35374.969     -28759.546     -28547.866      3125.4241    
      5800   311.40071      53318.247     -28782.189     -28557.559      3134.3719    
      5900   284.91218      44199.473     -28765.083     -28559.56       3142.0047    
      6000   325.61944      22678.078     -28781.801     -28546.913      3192.2048    
      6100   330.48491      19129.413     -28814.814     -28576.417      3204.0455    
      6200   290.2136       25905.048     -28799.932     -28590.585      3211.0691    
      6300   307.74905      9859.2925     -28810.608     -28588.611      3131.6646    
      6400   305.74741      34297.688     -28804.53      -28583.977      3152.5199    
      6500   328.708        47130.204     -28810.39      -28573.275      3124.5509    
      6600   313.56351      37541.944     -28801.185     -28574.994      3136.3071    
      6700   292.03681      33341.476     -28809.46      -28598.797      3113.149     
      6800   278.24126      44362.31      -28806.314     -28605.603      3105.8885    
      6900   317.30051      25781.583     -28826.513     -28597.626      3124.552     
      7000   319.34591      31266.656     -28795.446     -28565.084      3147.3401    
      7100   327.4947       24680.28      -28796.841     -28560.601      3164.0177    
      7200   309.71904      31917.949     -28795.726     -28572.308      3159.2085    
      7300   315.36923      24582.512     -28820.442     -28592.948      3168.5585    
      7400   298.47926      29082.198     -28813.418     -28598.108      3162.6246    
      7500   290.10368      42054.339     -28805.228     -28595.96       3166.31      
      7600   296.0376       52701.503     -28814.487     -28600.939      3183.4458    
      7700   310.67685      31746.178     -28802.772     -28578.663      3133.4615    
      7800   313.30946      33223.123     -28783.47      -28557.462      3156.6355    
      7900   311.19973      23572.821     -28798.186     -28573.7        3145.3289    
      8000   291.94539      16386.3       -28801.471     -28590.875      3156.9744    
      8100   293.00119      34969.107     -28808.483     -28597.124      3164.4942    
      8200   302.50416      27360.059     -28809.162     -28590.949      3157.8177    
      8300   289.90785      27343.996     -28784.259     -28575.132      3161.6625    
      8400   297.51548      60807.172     -28772.856     -28558.242      3161.749     
      8500   322.8158       27272.652     -28792.409     -28559.544      3151.6192    
      8600   294.9645       17976.819     -28802.611     -28589.837      3130.8941    
      8700   301.18676      19144.956     -28820.94      -28603.677      3138.0331    
      8800   270.14007      22305.991     -28801.48      -28606.613      3135.3402    
      8900   292.27894      24565.295     -28808.923     -28598.086      3105.8803    
      9000   318.749        17029.192     -28799.312     -28569.381      3130.0469    
      9100   304.49644      33042.765     -28786.414     -28566.764      3146.9218    
      9200   302.38793      32618.868     -28800.658     -28582.528      3169.5269    
      9300   281.09296      27902.085     -28793.163     -28590.395      3200.894     
      9400   288.39338      25801.165     -28800.282     -28592.247      3181.4342    
      9500   322.64312      42571.574     -28825.944     -28593.204      3184.6293    
      9600   283.60207      19292.902     -28820.752     -28616.174      3155.2686    
      9700   278.562        24291.787     -28829.06      -28628.118      3148.824     
      9800   280.8881       32256.374     -28809.996     -28607.376      3114.9607    
      9900   312.58361      48465.966     -28818.117     -28592.633      3116.1018    
     10000   291.43925      40537.582     -28801.997     -28591.766      3135.9515    
Loop time of 257.855 on 12 procs for 10000 steps with 243 atoms

Performance: 1.675 ns/day, 14.325 hours/ns, 38.781 timesteps/s, 9.424 katom-step/s
95.9% CPU use with 2 MPI tasks x 6 OpenMP threads

MPI task timing breakdown:
Section |  min time  |  avg time  |  max time  |%varavg| %total
---------------------------------------------------------------
Pair    | 107.4      | 110.32     | 113.24     |  27.8 | 42.78
Bond    | 0.013458   | 0.013648   | 0.013839   |   0.2 |  0.01
Neigh   | 7.67       | 7.6701     | 7.6702     |   0.0 |  2.97
Comm    | 0.55169    | 3.4774     | 6.4031     | 156.9 |  1.35
Output  | 0.027051   | 0.027748   | 0.028445   |   0.4 |  0.01
Modify  | 136.06     | 136.06     | 136.07     |   0.0 | 52.77
Other   |            | 0.2891     |            |       |  0.11

Nlocal:          121.5 ave         126 max         117 min
Histogram: 1 0 0 0 0 0 0 0 0 1
Nghost:         1898.5 ave        1903 max        1894 min
Histogram: 1 0 0 0 0 0 0 0 0 1
Neighs:          42884 ave       44731 max       41037 min
Histogram: 1 0 0 0 0 0 0 0 0 1

Total # of neighbors = 85768
Ave neighs/atom = 352.95473
Ave special neighs/atom = 0
Neighbor list builds = 1000
Dangerous builds not checked
System init for write_data ...
WARNING: No fixes with time integration, atoms won't move (src/verlet.cpp:60)
Setting up Verlet run ...
  Unit style    : real
  Current step  : 10000
  Time step     : 0.5
Per MPI rank memory allocation (min/avg/max) = 92.26 | 92.39 | 92.51 Mbytes
   Step          Temp          Press          PotEng         TotEng         Volume    
     10000   291.43925      40537.579     -28801.998     -28591.767      3135.9515    
     10100   291.43925      40537.584     -28801.999     -28591.767      3135.9515    
     10200   291.43925      40537.581     -28801.998     -28591.766      3135.9515    
     10300   291.43925      40537.584     -28801.998     -28591.766      3135.9515    
     10400   291.43925      40537.586     -28801.998     -28591.767      3135.9515    
     10500   291.43925      40537.588     -28801.998     -28591.766      3135.9515    
     10600   291.43925      40537.586     -28801.998     -28591.767      3135.9515    
     10700   291.43925      40537.581     -28801.999     -28591.767      3135.9515    
     10800   291.43925      40537.585     -28801.998     -28591.766      3135.9515    
     10900   291.43925      40537.579     -28801.998     -28591.766      3135.9515    
     11000   291.43925      40537.585     -28801.998     -28591.766      3135.9515    
     11100   291.43925      40537.59      -28801.998     -28591.767      3135.9515    
     11200   291.43925      40537.584     -28801.998     -28591.767      3135.9515    
     11300   291.43925      40537.581     -28801.998     -28591.766      3135.9515    
     11400   291.43925      40537.579     -28801.998     -28591.766      3135.9515    
     11500   291.43925      40537.582     -28801.998     -28591.766      3135.9515    
     11600   291.43925      40537.588     -28801.998     -28591.767      3135.9515    
     11700   291.43925      40537.581     -28801.998     -28591.766      3135.9515    
     11800   291.43925      40537.579     -28801.998     -28591.766      3135.9515    
     11900   291.43925      40537.581     -28801.996     -28591.765      3135.9515    
     12000   291.43925      40537.578     -28801.998     -28591.766      3135.9515    
     12100   291.43925      40537.582     -28801.998     -28591.766      3135.9515    
     12200   291.43925      40537.593     -28801.998     -28591.767      3135.9515    
     12300   291.43925      40537.581     -28801.998     -28591.766      3135.9515    
     12400   291.43925      40537.581     -28801.997     -28591.766      3135.9515    
     12500   291.43925      40537.582     -28801.998     -28591.766      3135.9515    
     12600   291.43925      40537.591     -28801.997     -28591.765      3135.9515    
     12700   291.43925      40537.585     -28801.999     -28591.767      3135.9515    
     12800   291.43925      40537.591     -28801.998     -28591.767      3135.9515    
     12900   291.43925      40537.585     -28801.998     -28591.767      3135.9515    
     13000   291.43925      40537.591     -28801.999     -28591.768      3135.9515    
     13100   291.43925      40537.582     -28801.996     -28591.765      3135.9515    
     13200   291.43925      40537.583     -28801.998     -28591.767      3135.9515    
     13300   291.43925      40537.588     -28801.991     -28591.76       3135.9515    
     13400   291.43925      40537.579     -28801.994     -28591.763      3135.9515    
     13500   291.43925      40537.587     -28801.999     -28591.767      3135.9515    
     13600   291.43925      40537.581     -28801.998     -28591.767      3135.9515    
     13700   291.43925      40537.578     -28801.998     -28591.767      3135.9515    
     13800   291.43925      40537.585     -28801.998     -28591.767      3135.9515    
     13900   291.43925      40537.586     -28801.998     -28591.767      3135.9515    
     14000   291.43925      40537.588     -28801.998     -28591.767      3135.9515    
     14100   291.43925      40537.579     -28801.998     -28591.766      3135.9515    
     14200   291.43925      40537.586     -28801.997     -28591.766      3135.9515    
     14300   291.43925      40537.579     -28801.998     -28591.766      3135.9515    
     14400   291.43925      40537.579     -28801.997     -28591.766      3135.9515    
     14500   291.43925      40537.58      -28801.997     -28591.766      3135.9515    
     14600   291.43925      40537.58      -28801.998     -28591.766      3135.9515    
     14700   291.43925      40537.579     -28801.997     -28591.766      3135.9515    
     14800   291.43925      40537.594     -28801.999     -28591.767      3135.9515    
     14900   291.43925      40537.586     -28801.998     -28591.766      3135.9515    
     15000   291.43925      40537.591     -28801.998     -28591.767      3135.9515    
     15100   291.43925      40537.586     -28801.998     -28591.767      3135.9515    
     15200   291.43925      40537.579     -28801.997     -28591.766      3135.9515    
     15300   291.43925      40537.588     -28801.998     -28591.767      3135.9515    
     15400   291.43925      40537.596     -28801.998     -28591.767      3135.9515    
     15500   291.43925      40537.592     -28801.998     -28591.767      3135.9515    
     15600   291.43925      40537.586     -28801.998     -28591.767      3135.9515    
     15700   291.43925      40537.582     -28801.998     -28591.766      3135.9515    
     15800   291.43925      40537.583     -28801.998     -28591.767      3135.9515    
     15900   291.43925      40537.581     -28801.999     -28591.768      3135.9515    
     16000   291.43925      40537.58      -28801.998     -28591.766      3135.9515    
     16100   291.43925      40537.579     -28801.997     -28591.766      3135.9515    
     16200   291.43925      40537.58      -28801.998     -28591.767      3135.9515    
     16300   291.43925      40537.579     -28801.998     -28591.766      3135.9515    
     16400   291.43925      40537.578     -28801.998     -28591.766      3135.9515    
     16500   291.43925      40537.578     -28801.997     -28591.766      3135.9515    
     16600   291.43925      40537.581     -28801.998     -28591.766      3135.9515    
     16700   291.43925      40537.584     -28801.998     -28591.767      3135.9515    
     16800   291.43925      40537.582     -28801.994     -28591.763      3135.9515    
     16900   291.43925      40537.58      -28801.998     -28591.766      3135.9515    
     17000   291.43925      40537.578     -28801.998     -28591.766      3135.9515    
     17100   291.43925      40537.583     -28801.998     -28591.766      3135.9515    
     17200   291.43925      40537.58      -28801.998     -28591.766      3135.9515    
     17300   291.43925      40537.578     -28801.997     -28591.766      3135.9515    
     17400   291.43925      40537.584     -28801.998     -28591.766      3135.9515    
     17500   291.43925      40537.585     -28801.998     -28591.767      3135.9515    
     17600   291.43925      40537.58      -28801.998     -28591.766      3135.9515    
     17700   291.43925      40537.586     -28801.998     -28591.767      3135.9515    
     17800   291.43925      40537.584     -28801.998     -28591.766      3135.9515    
     17900   291.43925      40537.581     -28801.998     -28591.767      3135.9515    
     18000   291.43925      40537.582     -28801.998     -28591.766      3135.9515    
     18100   291.43925      40537.582     -28801.997     -28591.766      3135.9515    
     18200   291.43925      40537.58      -28801.998     -28591.766      3135.9515    
     18300   291.43925      40537.594     -28801.998     -28591.767      3135.9515    
     18400   291.43925      40537.579     -28801.998     -28591.766      3135.9515    
     18500   291.43925      40537.587     -28801.998     -28591.766      3135.9515    
     18600   291.43925      40537.578     -28801.998     -28591.767      3135.9515    
     18700   291.43925      40537.584     -28801.998     -28591.766      3135.9515    
     18800   291.43925      40537.579     -28801.998     -28591.767      3135.9515    
     18900   291.43925      40537.58      -28801.998     -28591.767      3135.9515    
     19000   291.43925      40537.58      -28801.998     -28591.766      3135.9515    
     19100   291.43925      40537.583     -28801.998     -28591.767      3135.9515    
     19200   291.43925      40537.58      -28801.999     -28591.768      3135.9515    
     19300   291.43925      40537.578     -28801.997     -28591.766      3135.9515    
     19400   291.43925      40537.589     -28801.998     -28591.767      3135.9515    
     19500   291.43925      40537.586     -28801.998     -28591.766      3135.9515    
     19600   291.43925      40537.585     -28801.998     -28591.767      3135.9515    
     19700   291.43925      40537.584     -28801.998     -28591.767      3135.9515    
     19800   291.43925      40537.581     -28801.997     -28591.766      3135.9515    
     19900   291.43925      40537.592     -28801.999     -28591.767      3135.9515    
     20000   291.43925      40537.581     -28801.997     -28591.766      3135.9515    
Loop time of 250.331 on 12 procs for 10000 steps with 243 atoms

Performance: 1.726 ns/day, 13.907 hours/ns, 39.947 timesteps/s, 9.707 katom-step/s
96.1% CPU use with 2 MPI tasks x 6 OpenMP threads

MPI task timing breakdown:
Section |  min time  |  avg time  |  max time  |%varavg| %total
---------------------------------------------------------------
Pair    | 106.87     | 109.81     | 112.76     |  28.1 | 43.87
Bond    | 0.013368   | 0.013531   | 0.013693   |   0.1 |  0.01
Neigh   | 7.5081     | 7.553      | 7.598      |   1.6 |  3.02
Comm    | 0.54296    | 3.4819     | 6.4208     | 157.5 |  1.39
Output  | 0.024496   | 0.024719   | 0.024942   |   0.1 |  0.01
Modify  | 129.12     | 129.16     | 129.2      |   0.3 | 51.60
Other   |            | 0.2823     |            |       |  0.11

Nlocal:          121.5 ave         126 max         117 min
Histogram: 1 0 0 0 0 0 0 0 0 1
Nghost:         1898.5 ave        1903 max        1894 min
Histogram: 1 0 0 0 0 0 0 0 0 1
Neighs:          42884 ave       44731 max       41037 min
Histogram: 1 0 0 0 0 0 0 0 0 1

Total # of neighbors = 85768
Ave neighs/atom = 352.95473
Ave special neighs/atom = 0
Neighbor list builds = 1000
Dangerous builds not checked
V: 3135.9515063414637552
Total wall time: 0:08:35
