LAMMPS (2 Aug 2023 - Update 2)
OMP_NUM_THREADS environment is not set. Defaulting to 1 thread. (src/comm.cpp:98)
  using 1 OpenMP thread(s) per MPI task

The 'box' command has been removed and will be ignored

Reading data file ...
  triclinic box = (0 0 0) to (14.6913 12.723 15.9631) with tilt (-7.3456 0 0)
WARNING: Triclinic box skew is large. LAMMPS will run inefficiently. (src/domain.cpp:220)
  1 by 1 by 1 MPI processor grid
  reading atoms ...
  243 atoms
Finding 1-2 1-3 1-4 neighbors ...
  special bond factors lj:    0        0        0       
  special bond factors coul:  0        0        0       
     0 = max # of 1-2 neighbors
     0 = max # of 1-3 neighbors
     0 = max # of 1-4 neighbors
     1 = max # of special neighbors
  special bonds CPU = 0.000 seconds
  read_data CPU = 0.007 seconds
WARNING: Van der Waals parameters for element SI indicate inner wall+shielding, but earlier atoms indicate a different van der Waals method. This may cause division-by-zero errors. Keeping van der Waals setting for earlier atoms. (src/REAXFF/reaxff_ffield.cpp:251)
WARNING: Van der Waals parameters for element AL indicate inner wall+shielding, but earlier atoms indicate a different van der Waals method. This may cause division-by-zero errors. Keeping van der Waals setting for earlier atoms. (src/REAXFF/reaxff_ffield.cpp:251)
WARNING: Changed valency_val to valency_boc for X (src/REAXFF/reaxff_ffield.cpp:296)
*****Equilibration starts.*****

CITE-CITE-CITE-CITE-CITE-CITE-CITE-CITE-CITE-CITE-CITE-CITE-CITE

Your simulation uses code contributions which should be cited:
- pair reaxff command: doi:10.1016/j.parco.2011.08.005
- fix qeq/reaxff command: doi:10.1016/j.parco.2011.08.005
The log file lists these citations in BibTeX format.

CITE-CITE-CITE-CITE-CITE-CITE-CITE-CITE-CITE-CITE-CITE-CITE-CITE

Neighbor list info ...
  update: every = 10 steps, delay = 0 steps, check = no
  max neighbors/atom: 2000, page size: 100000
  master list distance cutoff = 12
  ghost atom cutoff = 12
  binsize = 6, bins = 4 3 3
  2 neighbor lists, perpetual/occasional/extra = 2 0 0
  (1) pair reaxff, perpetual
      attributes: half, newton off, ghost
      pair build: half/bin/newtoff/ghost
      stencil: full/ghost/bin/3d
      bin: standard
  (2) fix qeq/reaxff, perpetual, copy from (1)
      attributes: half, newton off
      pair build: copy
      stencil: none
      bin: none
Setting up Verlet run ...
  Unit style    : real
  Current step  : 0
  Time step     : 0.5
Per MPI rank memory allocation (min/avg/max) = 82.5 | 82.5 | 82.5 Mbytes
   Step          Temp     
         0   300          
        10   234.70093    
        20   237.8285     
        30   272.39596    
        40   255.27605    
        50   289.59528    
        60   304.60825    
        70   299.66198    
        80   309.21822    
        90   308.13719    
       100   301.81834    
       110   283.75223    
       120   278.23614    
       130   286.37372    
       140   289.86538    
       150   269.38991    
       160   290.93398    
       170   313.68782    
       180   301.30505    
       190   313.50402    
       200   331.68535    
       210   341.36385    
       220   365.09522    
       230   429.62517    
       240   392.89785    
       250   377.94427    
       260   365.0627     
       270   356.98267    
       280   320.34732    
       290   325.76337    
       300   299.88708    
       310   332.60443    
       320   316.51215    
       330   324.55606    
       340   318.59298    
       350   306.89       
       360   316.14065    
       370   314.55744    
       380   354.62929    
       390   344.63967    
       400   334.21299    
       410   330.90158    
       420   338.73692    
       430   334.33133    
       440   333.5844     
       450   362.40184    
       460   350.04158    
       470   358.33487    
       480   347.92813    
       490   320.62611    
       500   326.63278    
       510   318.01732    
       520   329.87959    
       530   331.76549    
       540   309.76983    
       550   328.98163    
       560   339.29955    
       570   321.44032    
       580   304.11637    
       590   321.34728    
       600   322.82045    
       610   342.48094    
       620   332.93614    
       630   341.93731    
       640   328.48976    
       650   297.84351    
       660   295.18613    
       670   299.94767    
       680   307.00108    
       690   295.92682    
       700   295.27712    
       710   303.96867    
       720   283.35572    
       730   297.57919    
       740   310.2254     
       750   317.88997    
       760   321.68968    
       770   300.29966    
       780   314.41622    
       790   287.88811    
       800   283.43791    
       810   317.18738    
       820   308.55401    
       830   291.49054    
       840   274.54818    
       850   298.89558    
       860   304.96471    
       870   298.71641    
       880   289.60718    
       890   294.48289    
       900   316.76866    
       910   304.22308    
       920   307.91469    
       930   323.52836    
       940   298.94405    
       950   268.52368    
       960   286.87912    
       970   297.0031     
       980   292.52039    
       990   303.74081    
      1000   292.49326    
Loop time of 19.8602 on 1 procs for 1000 steps with 243 atoms

Performance: 2.175 ns/day, 11.033 hours/ns, 50.352 timesteps/s, 12.236 katom-step/s
99.8% CPU use with 1 MPI tasks x 1 OpenMP threads

MPI task timing breakdown:
Section |  min time  |  avg time  |  max time  |%varavg| %total
---------------------------------------------------------------
Pair    | 15.369     | 15.369     | 15.369     |   0.0 | 77.38
Bond    | 0.0013784  | 0.0013784  | 0.0013784  |   0.0 |  0.01
Neigh   | 0.82499    | 0.82499    | 0.82499    |   0.0 |  4.15
Comm    | 0.013849   | 0.013849   | 0.013849   |   0.0 |  0.07
Output  | 0.00080157 | 0.00080157 | 0.00080157 |   0.0 |  0.00
Modify  | 3.6438     | 3.6438     | 3.6438     |   0.0 | 18.35
Other   |            | 0.006787   |            |       |  0.03

Nlocal:            243 ave         243 max         243 min
Histogram: 1 0 0 0 0 0 0 0 0 0
Nghost:           1791 ave        1791 max        1791 min
Histogram: 1 0 0 0 0 0 0 0 0 0
Neighs:          81231 ave       81231 max       81231 min
Histogram: 1 0 0 0 0 0 0 0 0 0

Total # of neighbors = 81231
Ave neighs/atom = 334.28395
Ave special neighs/atom = 0
Neighbor list builds = 100
Dangerous builds not checked
Setting up Verlet run ...
  Unit style    : real
  Current step  : 0
  Time step     : 0.5
Per MPI rank memory allocation (min/avg/max) = 82.46 | 82.46 | 82.46 Mbytes
   Step          Temp     
         0   292.49326    
        10   277.33702    
        20   291.41412    
        30   294.47989    
        40   286.73141    
        50   285.26868    
        60   300.02775    
        70   307.74681    
        80   292.19123    
        90   292.46609    
       100   296.99566    
       110   296.39633    
       120   294.0498     
       130   313.67542    
       140   291.09693    
       150   299.0449     
       160   319.33284    
       170   320.17254    
       180   305.34256    
       190   265.90569    
       200   296.68418    
       210   308.91901    
       220   292.40581    
       230   309.48614    
       240   313.56247    
       250   305.10327    
       260   330.92691    
       270   330.88651    
       280   333.97112    
       290   333.47063    
       300   334.62699    
Loop time of 5.97105 on 1 procs for 300 steps with 243 atoms

Performance: 2.170 ns/day, 11.057 hours/ns, 50.242 timesteps/s, 12.209 katom-step/s
99.9% CPU use with 1 MPI tasks x 1 OpenMP threads

MPI task timing breakdown:
Section |  min time  |  avg time  |  max time  |%varavg| %total
---------------------------------------------------------------
Pair    | 4.6035     | 4.6035     | 4.6035     |   0.0 | 77.10
Bond    | 0.00040376 | 0.00040376 | 0.00040376 |   0.0 |  0.01
Neigh   | 0.24487    | 0.24487    | 0.24487    |   0.0 |  4.10
Comm    | 0.0040189  | 0.0040189  | 0.0040189  |   0.0 |  0.07
Output  | 0.00021001 | 0.00021001 | 0.00021001 |   0.0 |  0.00
Modify  | 1.1161     | 1.1161     | 1.1161     |   0.0 | 18.69
Other   |            | 0.001975   |            |       |  0.03

Nlocal:            243 ave         243 max         243 min
Histogram: 1 0 0 0 0 0 0 0 0 0
Nghost:           1794 ave        1794 max        1794 min
Histogram: 1 0 0 0 0 0 0 0 0 0
Neighs:          81499 ave       81499 max       81499 min
Histogram: 1 0 0 0 0 0 0 0 0 0

Total # of neighbors = 81499
Ave neighs/atom = 335.38683
Ave special neighs/atom = 0
Neighbor list builds = 30
Dangerous builds not checked
Setting up Verlet run ...
  Unit style    : real
  Current step  : 300
  Time step     : 0.5
Per MPI rank memory allocation (min/avg/max) = 82.47 | 82.47 | 82.47 Mbytes
   Step          Temp     
       300   334.62699    
       310   357.00434    
       320   349.06735    
       330   318.91052    
       340   308.76053    
       350   327.18306    
       360   333.88222    
       370   347.37697    
       380   328.99134    
       390   334.63485    
       400   333.73738    
       410   336.46437    
       420   332.65912    
       430   323.32179    
       440   336.62112    
       450   329.70072    
       460   325.24535    
       470   350.06856    
       480   347.58298    
       490   340.73904    
       500   346.81126    
       510   385.16821    
       520   389.01448    
       530   403.8142     
       540   429.07993    
       550   401.01463    
       560   397.00316    
       570   402.54844    
       580   415.31325    
       590   418.12548    
       600   386.32377    
Loop time of 5.94325 on 1 procs for 300 steps with 243 atoms

Performance: 2.181 ns/day, 11.006 hours/ns, 50.477 timesteps/s, 12.266 katom-step/s
100.0% CPU use with 1 MPI tasks x 1 OpenMP threads

MPI task timing breakdown:
Section |  min time  |  avg time  |  max time  |%varavg| %total
---------------------------------------------------------------
Pair    | 4.5968     | 4.5968     | 4.5968     |   0.0 | 77.35
Bond    | 0.00042289 | 0.00042289 | 0.00042289 |   0.0 |  0.01
Neigh   | 0.24391    | 0.24391    | 0.24391    |   0.0 |  4.10
Comm    | 0.0041002  | 0.0041002  | 0.0041002  |   0.0 |  0.07
Output  | 0.00021148 | 0.00021148 | 0.00021148 |   0.0 |  0.00
Modify  | 1.0958     | 1.0958     | 1.0958     |   0.0 | 18.44
Other   |            | 0.002004   |            |       |  0.03

Nlocal:            243 ave         243 max         243 min
Histogram: 1 0 0 0 0 0 0 0 0 0
Nghost:           1800 ave        1800 max        1800 min
Histogram: 1 0 0 0 0 0 0 0 0 0
Neighs:          80377 ave       80377 max       80377 min
Histogram: 1 0 0 0 0 0 0 0 0 0

Total # of neighbors = 80377
Ave neighs/atom = 330.76955
Ave special neighs/atom = 0
Neighbor list builds = 30
Dangerous builds not checked
Total wall time: 0:00:31
