LAMMPS (2 Aug 2023 - Update 2)
  using 1 OpenMP thread(s) per MPI task
Reading data file ...
  triclinic box = (0 0 0) to (15.2382 14.5028 17.0085) with tilt (-6.2627 -0.4482 -0.642)
  1 by 2 by 2 MPI processor grid
  reading atoms ...
  350 atoms
Finding 1-2 1-3 1-4 neighbors ...
  special bond factors lj:    0        0        0       
  special bond factors coul:  0        0        0       
     0 = max # of 1-2 neighbors
     0 = max # of 1-3 neighbors
     0 = max # of 1-4 neighbors
     1 = max # of special neighbors
  special bonds CPU = 0.000 seconds
  read_data CPU = 0.006 seconds
WARNING: Van der Waals parameters for element SI indicate inner wall+shielding, but earlier atoms indicate a different van der Waals method. This may cause division-by-zero errors. Keeping van der Waals setting for earlier atoms. (src/REAXFF/reaxff_ffield.cpp:251)
*****Minimization starts.*****

CITE-CITE-CITE-CITE-CITE-CITE-CITE-CITE-CITE-CITE-CITE-CITE-CITE

Your simulation uses code contributions which should be cited:
- pair reaxff command: doi:10.1016/j.parco.2011.08.005
- fix qeq/reaxff command: doi:10.1016/j.parco.2011.08.005
The log file lists these citations in BibTeX format.

CITE-CITE-CITE-CITE-CITE-CITE-CITE-CITE-CITE-CITE-CITE-CITE-CITE

Switching to 'neigh_modify every 1 delay 0 check yes' setting during minimization
WARNING: Fix qeq/reaxff group is not charge neutral, net charge = -10.66 (src/REAXFF/fix_qeq_reaxff.cpp:392)
Neighbor list info ...
  update: every = 1 steps, delay = 0 steps, check = yes
  max neighbors/atom: 2000, page size: 100000
  master list distance cutoff = 12
  ghost atom cutoff = 12
  binsize = 6, bins = 4 3 3
  2 neighbor lists, perpetual/occasional/extra = 2 0 0
  (1) pair reaxff, perpetual
      attributes: half, newton off, ghost
      pair build: half/bin/newtoff/ghost
      stencil: full/ghost/bin/3d
      bin: standard
  (2) fix qeq/reaxff, perpetual, copy from (1)
      attributes: half, newton off
      pair build: copy
      stencil: none
      bin: none
Setting up cg style minimization ...
  Unit style    : real
  Current step  : 0
Per MPI rank memory allocation (min/avg/max) = 152.5 | 152.8 | 153.2 Mbytes
   Step          Temp          Press         Density         Volume         PotEng         TotEng    
         0   0              211972.8       1.7278661      3758.8201     -30994.714     -30994.714    
        30   0              11879.711      1.7278661      3758.8201     -33892.8       -33892.8      
Loop time of 6.71685 on 4 procs for 30 steps with 350 atoms

95.2% CPU use with 4 MPI tasks x 1 OpenMP threads

Minimization stats:
  Stopping criterion = energy tolerance
  Energy initial, next-to-last, final = 
     -30994.7138992163  -33892.7973859291   -33892.800363047
  Force two-norm initial, final = 4820.5085 253.68739
  Force max component initial, final = 634.7278 116.94342
  Final line search alpha, max atom move = 0.00022774299 0.026633043
  Iterations, force evaluations = 30 102

MPI task timing breakdown:
Section |  min time  |  avg time  |  max time  |%varavg| %total
---------------------------------------------------------------
Pair    | 4.8561     | 4.9501     | 5.0976     |   4.0 | 73.70
Bond    | 0.00030772 | 0.00034318 | 0.00037798 |   0.0 |  0.01
Neigh   | 0          | 0          | 0          |   0.0 |  0.00
Comm    | 0.36505    | 0.50882    | 0.59638    |  12.1 |  7.58
Output  | 0.011067   | 0.013081   | 0.014295   |   1.1 |  0.19
Modify  | 1.2291     | 1.2305     | 1.232      |   0.1 | 18.32
Other   |            | 0.01397    |            |       |  0.21

Nlocal:           87.5 ave          94 max          81 min
Histogram: 1 0 0 1 0 0 1 0 0 1
Nghost:        3867.75 ave        3871 max        3862 min
Histogram: 1 0 0 0 0 0 0 2 0 1
Neighs:        55517.5 ave       59292 max       51879 min
Histogram: 1 0 0 1 0 0 1 0 0 1

Total # of neighbors = 222070
Ave neighs/atom = 634.48571
Ave special neighs/atom = 0
Neighbor list builds = 0
Dangerous builds = 0
System init for write_data ...
##### Equilibration starts.##### 
WARNING: Compute rdf cutoff less than neighbor cutoff - forcing a needless neighbor list build (src/compute_rdf.cpp:179)
Neighbor list info ...
  update: every = 10 steps, delay = 0 steps, check = yes
  max neighbors/atom: 2000, page size: 100000
  master list distance cutoff = 12
  ghost atom cutoff = 12
  binsize = 6, bins = 4 3 3
  3 neighbor lists, perpetual/occasional/extra = 2 1 0
  (1) pair reaxff, perpetual
      attributes: half, newton off, ghost
      pair build: half/bin/newtoff/ghost
      stencil: full/ghost/bin/3d
      bin: standard
  (2) compute rdf, occasional
      attributes: half, newton on, cut 7
      pair build: half/bin/newton/tri
      stencil: half/bin/3d/tri
      bin: standard
  (3) fix qeq/reaxff, perpetual, copy from (1)
      attributes: half, newton off
      pair build: copy
      stencil: none
      bin: none
Setting up Verlet run ...
  Unit style    : real
  Current step  : 0
  Time step     : 0.5
Per MPI rank memory allocation (min/avg/max) = 157.4 | 157.6 | 158 Mbytes
   Step          Temp          Press          PotEng         TotEng    
         0   300            15675.473     -33892.8       -33580.709    
       100   238.38233      3471.944      -33789.132     -33541.142    
Loop time of 5.48088 on 4 procs for 100 steps with 350 atoms

Performance: 0.788 ns/day, 30.449 hours/ns, 18.245 timesteps/s, 6.386 katom-step/s
98.7% CPU use with 4 MPI tasks x 1 OpenMP threads

MPI task timing breakdown:
Section |  min time  |  avg time  |  max time  |%varavg| %total
---------------------------------------------------------------
Pair    | 4.5164     | 4.656      | 4.7694     |   4.9 | 84.95
Bond    | 0.00030821 | 0.00032092 | 0.00032847 |   0.0 |  0.01
Neigh   | 0.029618   | 0.03307    | 0.041731   |   2.8 |  0.60
Comm    | 0.145      | 0.25844    | 0.39821    |  20.8 |  4.72
Output  | 0.00038734 | 0.00076915 | 0.0013641  |   0.0 |  0.01
Modify  | 0.52005    | 0.5287     | 0.53236    |   0.7 |  9.65
Other   |            | 0.003622   |            |       |  0.07

Nlocal:           87.5 ave          94 max          81 min
Histogram: 2 0 0 0 0 0 0 0 0 2
Nghost:        3860.25 ave        3867 max        3842 min
Histogram: 1 0 0 0 0 0 0 0 0 3
Neighs:        55390.5 ave       59074 max       51663 min
Histogram: 2 0 0 0 0 0 0 0 0 2

Total # of neighbors = 221562
Ave neighs/atom = 633.03429
Ave special neighs/atom = 0
Neighbor list builds = 1
Dangerous builds = 0
System init for write_data ...
WARNING: Compute rdf cutoff less than neighbor cutoff - forcing a needless neighbor list build (src/compute_rdf.cpp:179)
Total wall time: 0:00:12
