LAMMPS (2 Aug 2023 - Update 2)
  using 2 OpenMP thread(s) per MPI task
# Initialization
units           real
dimension       3
boundary        p p p
atom_style      full

variable       timestep equal 0.5   # fs
variable       T equal 300.0   # low temperature
variable       Td equal 100*${timestep}  # damping time
variable       Td equal 100*0.5  
# variable       P equal 1.0  # pressure
# variable       Pd equal 10*${Td}  # pressure

variable       nevery equal 1000
variable       nrepeat equal 1
variable       nfreq equal ${nevery}*${nrepeat}
variable       nfreq equal 1000*${nrepeat}
variable       nfreq equal 1000*1
variable       nthermo equal ${nfreq}/10
variable       nthermo equal 1000/10
variable       nequil equal 2000*${nthermo}  # 2000: 100 ps
variable       nequil equal 2000*100  

variable       seed string 123456
variable       structure string 333SiO2-1-UFF
variable       FF string "* * CHOFe.ff O Si"          # force field args for pair_coeff
# pair_coeff * * CHONSSi.ff C H O Si
# pair_coeff * * CHOSiNa.ff C H O Si
# pair_coeff * * SiOCHN_2018.ff C H O Si
# pair_coeff * * PDMSDecomp.ff C H O Si
# pair_coeff * * CHONSi.ff C H O Si
# pair_coeff * * CHOFe.ff O Si

timestep        ${timestep}
timestep        0.5

# box tilt large
# Read the initial sctructure
read_data       ${structure}.data
read_data       333SiO2-1-UFF.data
Reading data file ...
  triclinic box = (0 0 0) to (14.6913 12.723 15.9631) with tilt (-7.3456 0 0)
WARNING: Triclinic box skew is large. LAMMPS will run inefficiently. (src/domain.cpp:220)
  2 by 1 by 2 MPI processor grid
  reading atoms ...
  243 atoms
Finding 1-2 1-3 1-4 neighbors ...
  special bond factors lj:    0        0        0       
  special bond factors coul:  0        0        0       
     0 = max # of 1-2 neighbors
     0 = max # of 1-3 neighbors
     0 = max # of 1-4 neighbors
     1 = max # of special neighbors
  special bonds CPU = 0.000 seconds
  read_data CPU = 0.012 seconds

# Assign the force field
pair_style reaxff NULL safezone 3.0 mincap 150
pair_coeff ${FF}
pair_coeff * * CHOFe.ff O Si
WARNING: Van der Waals parameters for element SI indicate inner wall+shielding, but earlier atoms indicate a different van der Waals method. This may cause division-by-zero errors. Keeping van der Waals setting for earlier atoms. (src/REAXFF/reaxff_ffield.cpp:251)
WARNING: Van der Waals parameters for element AL indicate inner wall+shielding, but earlier atoms indicate a different van der Waals method. This may cause division-by-zero errors. Keeping van der Waals setting for earlier atoms. (src/REAXFF/reaxff_ffield.cpp:251)
WARNING: Changed valency_val to valency_boc for X (src/REAXFF/reaxff_ffield.cpp:296)
# Charge equilibration for ReaxFF
fix myqeq all qeq/reaxff 1 0.0 10.0 1.0e-6 reaxff maxiter 400

neighbor        2 bin
neigh_modify    every 10 delay 0 check yes

# Energy minimization
print "*****Minimization starts.*****"
*****Minimization starts.*****
# Print system info
thermo          ${nthermo}
thermo          100
thermo_style    custom step temp press density vol pe etotal
dump dump_opt all custom 1 dump/dump_opt.lammpstrj id type q x y z
minimize 1.0e-6 1.0e-6 100 1000

CITE-CITE-CITE-CITE-CITE-CITE-CITE-CITE-CITE-CITE-CITE-CITE-CITE

Your simulation uses code contributions which should be cited:

- pair reaxff command: doi:10.1016/j.parco.2011.08.005

@Article{Aktulga12,
 author = {H. M. Aktulga and J. C. Fogarty and S. A. Pandit and A. Y. Grama},
 title = {Parallel Reactive Molecular Dynamics: {N}umerical Methods and Algorithmic Techniques},
 journal = {Parallel Computing},
 year =    2012,
 volume =  38,
 number =  {4--5},
 pages =   {245--259}
}

- fix qeq/reaxff command: doi:10.1016/j.parco.2011.08.005

@Article{Aktulga12,
 author = {H. M. Aktulga and J. C. Fogarty and S. A. Pandit and A. Y. Grama},
 title = {Parallel Reactive Molecular Dynamics: {N}umerical Methods and Algorithmic Techniques},
 journal = {Parallel Computing},
 year =    2012,
 volume =  38,
 pages =   {245--259}
}

CITE-CITE-CITE-CITE-CITE-CITE-CITE-CITE-CITE-CITE-CITE-CITE-CITE

Switching to 'neigh_modify every 1 delay 0 check yes' setting during minimization
Neighbor list info ...
  update: every = 1 steps, delay = 0 steps, check = yes
  max neighbors/atom: 2000, page size: 100000
  master list distance cutoff = 12
  ghost atom cutoff = 12
  binsize = 6, bins = 4 3 3
  2 neighbor lists, perpetual/occasional/extra = 2 0 0
  (1) pair reaxff, perpetual
      attributes: half, newton off, ghost
      pair build: half/bin/newtoff/ghost
      stencil: full/ghost/bin/3d
      bin: standard
  (2) fix qeq/reaxff, perpetual, copy from (1)
      attributes: half, newton off
      pair build: copy
      stencil: none
      bin: none
Per MPI rank memory allocation (min/avg/max) = 130.3 | 130.4 | 130.5 Mbytes
   Step          Temp          Press         Density         Volume         PotEng         TotEng    
         0   0              18239.17       2.8878482      2983.7813     -36881.566     -36881.566    
         6   0              10420.899      2.8878482      2983.7813     -36912.748     -36912.748    
Loop time of 1.80319 on 8 procs for 6 steps with 243 atoms

97.4% CPU use with 4 MPI tasks x 2 OpenMP threads

Minimization stats:
  Stopping criterion = energy tolerance
  Energy initial, next-to-last, final = 
     -36881.5659853772  -36912.7480431922  -36912.7480554505
  Force two-norm initial, final = 103.62827 45.844384
  Force max component initial, final = 10.335104 4.0138102
  Final line search alpha, max atom move = 1.7827372e-09 7.1555687e-09
  Iterations, force evaluations = 6 56

MPI task timing breakdown:
Section |  min time  |  avg time  |  max time  |%varavg| %total
---------------------------------------------------------------
Pair    | 1.0904     | 1.2696     | 1.4507     |  15.8 | 70.41
Bond    | 8.6181e-05 | 9.4529e-05 | 0.00010644 |   0.0 |  0.01
Neigh   | 0          | 0          | 0          |   0.0 |  0.00
Comm    | 0.040326   | 0.22131    | 0.40053    |  37.7 | 12.27
Output  | 0.0014512  | 0.0016356  | 0.0017634  |   0.3 |  0.09
Modify  | 0.30766    | 0.30792    | 0.30819    |   0.0 | 17.08
Other   |            | 0.002588   |            |       |  0.14

Nlocal:          60.75 ave          63 max          54 min
Histogram: 1 0 0 0 0 0 0 0 0 3
Nghost:        3266.25 ave        3276 max        3261 min
Histogram: 2 0 0 0 1 0 0 0 0 1
Neighs:        34432.8 ave       35667 max       30760 min
Histogram: 1 0 0 0 0 0 0 0 0 3

Total # of neighbors = 137731
Ave neighs/atom = 566.79424
Ave special neighs/atom = 0
Neighbor list builds = 0
Dangerous builds = 0
min_style cg
# Save the optimized structure
write_data ${structure}_opt.data
write_data 333SiO2-1-UFF_opt.data
System init for write_data ...
undump dump_opt
reset_timestep 0

velocity        all create ${T} ${seed} dist gaussian
velocity        all create 300 ${seed} dist gaussian
velocity        all create 300 123456 dist gaussian
# equilibration at low T
print "##### Equilibration starts.##### "
##### Equilibration starts.##### 
velocity        all create ${T} 12345
velocity        all create 300 12345
fix             equil1 all nvt temp ${T} ${T} ${Td}
fix             equil1 all nvt temp 300 ${T} ${Td}
fix             equil1 all nvt temp 300 300 ${Td}
fix             equil1 all nvt temp 300 300 50
# fix             equil1 all npt temp ${T} ${T} ${Td} tri ${P} ${P} ${Pd}

# out put bonds and species information
fix bondinfo all reaxff/bonds ${nfreq} bonds/bonds.reaxff
fix bondinfo all reaxff/bonds 1000 bonds/bonds.reaxff
# fix speciesinfo all reaxff/species ${nevery} ${nrepeat} ${nthermo} bonds/species.out

# compute MSD and RDF
compute msd1 all msd
fix myMSD all ave/time 10 10 ${nthermo} c_msd1[1] c_msd1[2] c_msd1[3] c_msd1[4] c_thermo_temp     file msd.out     title2 "# TimeStep MSD_X MSD_Y MSD_Z MSD_Total Temperture"
fix myMSD all ave/time 10 10 100 c_msd1[1] c_msd1[2] c_msd1[3] c_msd1[4] c_thermo_temp     file msd.out     title2 "# TimeStep MSD_X MSD_Y MSD_Z MSD_Total Temperture"
# C-C C-Si Si-O C-H Si-Si
compute rdf1 all rdf 100 2 1  2 2  1 1  * * cutoff 5.0
# 'Si-O', 'Si-Si', 'O-O', total
fix myRDF all ave/time ${nevery} ${nrepeat} ${nfreq} c_rdf1[*]     file rdf.out mode vector     title3 "# Row r g1(r) coor1(r) ..."
fix myRDF all ave/time 1000 ${nrepeat} ${nfreq} c_rdf1[*]     file rdf.out mode vector     title3 "# Row r g1(r) coor1(r) ..."
fix myRDF all ave/time 1000 1 ${nfreq} c_rdf1[*]     file rdf.out mode vector     title3 "# Row r g1(r) coor1(r) ..."
fix myRDF all ave/time 1000 1 1000 c_rdf1[*]     file rdf.out mode vector     title3 "# Row r g1(r) coor1(r) ..."

thermo_style    custom step temp press pe etotal
# Save trajectory
dump dump_eq all custom/gz ${nthermo} dump/dump_eq.lammpstrj.gz id type x y z q
dump dump_eq all custom/gz 100 dump/dump_eq.lammpstrj.gz id type x y z q

run ${nequil}
run 200000
WARNING: Compute rdf cutoff less than neighbor cutoff - forcing a needless neighbor list build (src/compute_rdf.cpp:179)
Neighbor list info ...
  update: every = 10 steps, delay = 0 steps, check = yes
  max neighbors/atom: 2000, page size: 100000
  master list distance cutoff = 12
  ghost atom cutoff = 12
  binsize = 6, bins = 4 3 3
  3 neighbor lists, perpetual/occasional/extra = 2 1 0
  (1) pair reaxff, perpetual
      attributes: half, newton off, ghost
      pair build: half/bin/newtoff/ghost
      stencil: full/ghost/bin/3d
      bin: standard
  (2) compute rdf, occasional
      attributes: half, newton on, cut 7
      pair build: half/bin/newton/tri
      stencil: half/bin/3d/tri
      bin: standard
  (3) fix qeq/reaxff, perpetual, copy from (1)
      attributes: half, newton off
      pair build: copy
      stencil: none
      bin: none
Per MPI rank memory allocation (min/avg/max) = 135.5 | 135.6 | 135.8 Mbytes
   Step          Temp          Press          PotEng         TotEng    
         0   300            13736.458     -36912.748     -36696.341    
       100   147.53739     -1524.7379     -36765.745     -36659.318    
       200   207.73838      10203.787     -36770.062     -36620.209    
       300   248.50069      27046.997     -36752.639     -36573.382    
       400   277.22772      10612.755     -36714.494     -36514.514    
       500   319.49885      4648.1978     -36706.157     -36475.684    
       600   328.49014      24604.313     -36719.972     -36483.013    
       700   293.11442      12006.173     -36702.771     -36491.331    
       800   294.38043      2545.5905     -36712.132     -36499.779    
       900   299.13448      15616.845     -36728.989     -36513.207    
      1000   286.35565      16684.577     -36722.878     -36516.313    
      1100   287.7651       8426.262      -36708.871     -36501.29     
      1200   294.90626      20052.007     -36700.205     -36487.473    
      1300   305.4199       11059.222     -36702.289     -36481.973    
      1400   295.20372      5302.1466     -36702.726     -36489.779    
      1500   292.60512      12002.443     -36715.912     -36504.839    
      1600   296.23944      15098.039     -36731.045     -36517.351    
      1700   284.32643      14811.561     -36716.561     -36511.461    
      1800   316.18352      6685.6955     -36711.236     -36483.156    
      1900   310.74604      14364.633     -36699.65      -36475.492    
      2000   308.98569      13842.611     -36710.394     -36487.506    
      2100   286.15594      10681.347     -36702.605     -36496.184    
      2200   281.46216      10079.565     -36704.406     -36501.372    
      2300   289.33603      16877.958     -36708.42      -36499.706    
      2400   311.35035      14999.466     -36716.207     -36491.612    
      2500   353.91502      10861.523     -36719.635     -36464.336    
      2600   303.44982      11799.626     -36697.094     -36478.199    
      2700   294.4956       14142.748     -36714.238     -36501.802    
      2800   281.61783      16394.833     -36706.714     -36503.568    
      2900   298.50165      11915.086     -36709.497     -36494.171    
      3000   342.91869      21145.101     -36733.977     -36486.611    
      3100   312.11505      10510.43      -36713.811     -36488.665    
      3200   300.39538      11337.796     -36726.626     -36509.934    
      3300   293.97563      9336.4795     -36737.349     -36525.288    
      3400   278.32993      18182.443     -36715.945     -36515.17     
      3500   289.50356      9165.4968     -36701.093     -36492.258    
      3600   310.12844      7545.1997     -36714.759     -36491.045    
      3700   287.39914      12049.06      -36702.877     -36495.56     
      3800   294.67522      13522.684     -36717.756     -36505.19     
      3900   275.93027      6608.7946     -36723.66      -36524.616    
      4000   287.51597      14750.049     -36738.927     -36531.525    
      4100   309.6019       19897.247     -36724.929     -36501.596    
      4200   309.61988      10183.746     -36713.56      -36490.214    
      4300   298.64442      5507.4455     -36712.863     -36497.434    
      4400   288.49038      18265.767     -36719.051     -36510.947    
      4500   294.16765      6498.8158     -36722.174     -36509.975    
      4600   290.88         7723.2742     -36707.334     -36497.506    
      4700   325.87782      16912.684     -36715.179     -36480.105    
      4800   291.99032      12984.294     -36693.731     -36483.102    
      4900   288.87675      7912.4518     -36715.407     -36507.024    
      5000   284.77699      14804.077     -36728.416     -36522.99     
      5100   307.3342       10206.181     -36733.048     -36511.35     
      5200   285.01472      6028.2417     -36705.534     -36499.937    
      5300   299.60595      15497.918     -36706.595     -36490.472    
      5400   315.88588      19229.743     -36692.21      -36464.343    
      5500   348.84874      7219.9869     -36692.221     -36440.577    
      5600   299.42613      20990.286     -36707.535     -36491.542    
      5700   282.02603      18087.057     -36712.128     -36508.687    
      5800   299.73669      10563.386     -36724.066     -36507.849    
      5900   306.0456       10427.215     -36715.939     -36495.171    
      6000   328.24641      13482.766     -36719.563     -36482.781    
      6100   310.00884      8862.8032     -36708.321     -36484.694    
      6200   283.00066      14094.222     -36714.194     -36510.05     
      6300   293.33166      12811.173     -36733.375     -36521.778    
      6400   302.74519      14848.845     -36730.936     -36512.549    
      6500   292.76577      13929.081     -36712.78      -36501.592    
      6600   306.51349      9066.8467     -36721.528     -36500.423    
      6700   302.23968      12011.26      -36711         -36492.978    
      6800   312.51419      17874.578     -36712.79      -36487.356    
      6900   291.28725      2389.3224     -36713.266     -36503.145    
      7000   277.26688      13491.117     -36722.003     -36521.995    
      7100   302.46177      22060.865     -36728.893     -36510.71     
      7200   302.97817      7287.5485     -36706.768     -36488.212    
      7300   304.5941       14277.931     -36703.772     -36484.051    
      7400   316.29958      18949.945     -36719.063     -36490.898    
      7500   304.73014      5753.9718     -36713.873     -36494.054    
      7600   282.72185      11197.401     -36715.311     -36511.368    
      7700   287.45888      16462.586     -36722.865     -36515.505    
      7800   325.79979      14829.094     -36714.734     -36479.716    
      7900   327.36626      7402.7481     -36708.975     -36472.827    
      8000   289.2884       23682.313     -36706.183     -36497.503    
      8100   296.19529      9674.5265     -36719.952     -36506.289    
      8200   296.36015      7172.0496     -36722.278     -36508.497    
      8300   270.33515      16299.834     -36707.311     -36512.303    
      8400   311.07353      16060.307     -36720.546     -36496.151    
      8500   300.89354      11774.941     -36696.761     -36479.71     
      8600   319.69826      14410.331     -36707.635     -36477.019    
      8700   295.75867      11791.53      -36711.264     -36497.917    
      8800   283.30505      9837.4111     -36720.554     -36516.19     
      8900   285.88984      9292.7121     -36722.669     -36516.44     
      9000   279.02634      11897.769     -36704.022     -36502.745    
      9100   307.52115      18674.544     -36704.071     -36482.239    
      9200   311.05388      9308.8443     -36710.995     -36486.615    
      9300   298.48571      14888.687     -36715.121     -36499.806    
      9400   297.1051       13572.02      -36728.637     -36514.319    
      9500   280.5306       6404.8537     -36708.124     -36505.761    
      9600   334.28602      10176.263     -36714.214     -36473.075    
      9700   310.04149      14467.838     -36702.141     -36478.491    
      9800   301.79392      10940.4       -36709.092     -36491.391    
      9900   287.35412      9254.2764     -36713.789     -36506.505    
     10000   291.98975      13360.706     -36726.871     -36516.242    
     10100   284.33527      10165.117     -36746.802     -36541.695    
     10200   248.55763      11496.063     -36718.792     -36539.493    
     10300   276.99229      26184.365     -36715.316     -36515.506    
     10400   305.72632      11290.346     -36715.898     -36495.361    
     10500   296.49661      4160.1952     -36699.316     -36485.436    
     10600   290.47373      12345.208     -36705.833     -36496.298    
     10700   286.42879      15811.898     -36720.243     -36513.625    
     10800   290.77302      12091.085     -36729.677     -36519.926    
     10900   300.00255      11045.03      -36728.598     -36512.189    
     11000   311.72314      13761.205     -36712.479     -36487.616    
     11100   315.3422       9935.7705     -36709.153     -36481.679    
     11200   303.76686      16832.747     -36713.372     -36494.248    
     11300   298.85748      17264.754     -36735.886     -36520.303    
     11400   298.84338      5668.6527     -36744.644     -36529.071    
     11500   289.17407      11847.604     -36728.563     -36519.965    
     11600   279.20985      14471.919     -36714.048     -36512.639    
     11700   314.81129      8196.799      -36723.615     -36496.524    
     11800   306.81773      10686.586     -36705.627     -36484.302    
     11900   297.1717       18936.469     -36699.358     -36484.991    
     12000   282.35012      5525.4114     -36711.65      -36507.975    
     12100   286.26844      16715.871     -36728.17      -36521.668    
     12200   308.20713      14131.068     -36736.084     -36513.757    
     12300   296.70153      11032.201     -36704.912     -36490.885    
     12400   306.32557      10803.074     -36705.266     -36484.297    
     12500   298.71479      14581.566     -36707.863     -36492.383    
     12600   315.91721      6820.6114     -36728.452     -36500.563    
     12700   290.95828      9452.7842     -36728.688     -36518.803    
     12800   275.14962      10221.974     -36735.889     -36537.408    
     12900   277.02754      15430.069     -36744.924     -36545.088    
     13000   279.82823      4822.2397     -36711.791     -36509.935    
     13100   307.07768      17943.028     -36719.578     -36498.066    
     13200   303.76966      9682.7959     -36706.901     -36487.775    
     13300   327.00428      10105.277     -36716.862     -36480.976    
     13400   298.009        15693.02      -36712.727     -36497.756    
     13500   280.68786      9456.1214     -36722.367     -36519.891    
     13600   275.74384      12339.963     -36716.831     -36517.921    
     13700   293.12182      12032.784     -36717.553     -36506.108    
     13800   292.61014      7754.1403     -36708.656     -36497.58     
     13900   299.40298      13107.778     -36706.946     -36490.97     
     14000   286.04338      14818.631     -36703.412     -36497.073    
     14100   281.23242      10698.713     -36724.761     -36521.892    
     14200   289.49679      18719.487     -36741.395     -36532.564    
     14300   308.65845      12116.879     -36740.811     -36518.158    
     14400   290.39943      12497.963     -36714.645     -36505.164    
     14500   291.77785      9788.0793     -36703.324     -36492.848    
     14600   309.11981      19517.328     -36704.097     -36481.111    
     14700   305.52747      4481.5554     -36703.487     -36483.093    
     14800   275.53125      7950.6116     -36715.078     -36516.322    
     14900   273.65918      18872.032     -36718.136     -36520.73     
     15000   295.60617      10421.423     -36713.036     -36499.799    
     15100   295.4561       10033.379     -36694.882     -36481.753    
     15200   327.49433      19236.392     -36725.047     -36488.807    
     15300   288.87495      6799.8383     -36706.885     -36498.503    
     15400   276.65094      14328.047     -36705.226     -36505.662    
     15500   282.09015      14393.414     -36715.643     -36512.155    
     15600   299.2339       15594.352     -36727.179     -36511.325    
     15700   298.3032       11154.238     -36710.791     -36495.608    
     15800   303.8705       17500.526     -36701.911     -36482.712    
     15900   316.71801      12062.286     -36712.179     -36483.712    
     16000   287.71286      8542.1397     -36710.542     -36502.998    
     16100   289.10629      13676.195     -36733.296     -36524.747    
     16200   279.03038      10487.037     -36727.76      -36526.479    
     16300   306.84626      13788.61      -36710.203     -36488.857    
     16400   328.10386      21461.396     -36719.861     -36483.181    
     16500   290.8994       14244.036     -36706.177     -36496.335    
     16600   292.61832      11934.547     -36720.293     -36509.211    
     16700   298.10424      21549.933     -36730.708     -36515.669    
     16800   306.87385      17755.441     -36722.729     -36501.364    
     16900   305.42239      9352.475      -36692.194     -36471.876    
     17000   329.89645      18334.579     -36710.245     -36472.272    
     17100   291.47551      11915.626     -36707.632     -36497.374    
     17200   308.41309      12995.561     -36722.565     -36500.09     
     17300   299.5937       13294.399     -36715.888     -36499.775    
     17400   294.07583      11995.959     -36717.071     -36504.938    
     17500   289.77461      10686.888     -36714.656     -36505.626    
     17600   293.12954      5316.8375     -36703.235     -36491.784    
     17700   317.416        12942.446     -36709.121     -36480.151    
     17800   318.4601       13824.316     -36716.039     -36486.315    
     17900   280.39003      14415.532     -36713.383     -36511.122    
     18000   291.7143       10557.153     -36728.928     -36518.498    
     18100   313.13439      14018.078     -36735.258     -36509.377    
     18200   306.6233       9146.0827     -36694.375     -36473.19     
     18300   315.25882      16055.959     -36703.948     -36476.534    
     18400   301.30472      11825.871     -36714.221     -36496.873    
     18500   291.64135      20249.943     -36720.348     -36509.971    
     18600   306.75876      4955.8744     -36726.736     -36505.454    
     18700   294.37171      17854.401     -36705.968     -36493.621    
     18800   323.64857      12036.498     -36700.635     -36467.169    
     18900   320.64421      12311.427     -36701.738     -36470.44     
     19000   306.18375      5681.6758     -36710.773     -36489.906    
     19100   292.83437      12166.746     -36710.858     -36499.621    
     19200   303.80067      11048.837     -36722.323     -36503.175    
     19300   287.4496       11645.696     -36716.544     -36509.191    
     19400   279.53142      10431.392     -36712.929     -36511.288    
     19500   300.39512      19785.697     -36712.172     -36495.48     
     19600   317.55673      6190.042      -36707.658     -36478.586    
     19700   289.13564      17207.077     -36700.838     -36492.268    
     19800   275.0644       10427.507     -36718.657     -36520.237    
     19900   289.08208      15738.28      -36733.323     -36524.791    
     20000   297.972        9148.1785     -36724.766     -36509.822    
     20100   292.30782      20951.445     -36716.154     -36505.296    
     20200   323.27823      11472.012     -36727.34      -36494.141    
     20300   295.30563      13573.065     -36700.668     -36487.647    
     20400   320.44796      13178.254     -36707.247     -36476.09     
     20500   322.83268      17341.251     -36713.087     -36480.21     
     20600   301.74464      12644.818     -36716.324     -36498.659    
     20700   297.5184       13928.051     -36728.618     -36514.001    
     20800   309.90424      12511.917     -36726.275     -36502.724    
     20900   298.72995      12015.073     -36698.867     -36483.376    
     21000   300.33931      4493.387      -36699.438     -36482.786    
     21100   298.23         21901.722     -36714.962     -36499.832    
     21200   289.91392      10244.136     -36743.005     -36533.874    
     21300   268.93311      10832.863     -36723.283     -36529.286    
     21400   308.70723      9510.6776     -36729.909     -36507.221    
     21500   265.83234      17279.822     -36686.952     -36495.193    
     21600   326.11823      9694.7575     -36715.348     -36480.101    
     21700   280.97639      15864.806     -36694.51      -36491.826    
     21800   276.9155       12008.372     -36719.793     -36520.038    
     21900   273.33876      10740.698     -36725.671     -36528.497    
     22000   271.11973      10473.267     -36711.84      -36516.266    
     22100   295.19719      19851.845     -36715.637     -36502.695    
     22200   318.87362      6834.1364     -36713.29      -36483.268    
     22300   310.81485      11652.043     -36710.161     -36485.953    
     22400   293.83164      20181.771     -36721.997     -36510.04     
     22500   278.7526       17774.427     -36727.236     -36526.157    
     22600   304.49259      3391.8489     -36717.519     -36497.872    
     22700   315.75751      15922.731     -36706.274     -36478.501    
     22800   307.86252      18012.322     -36708.98      -36486.902    
     22900   298.61692      13629.744     -36715.91      -36500.501    
     23000   296.9204       10149.594     -36728.966     -36514.781    
     23100   286.72514      12475.228     -36726.17      -36519.339    
     23200   320.41849      16414.464     -36726.683     -36495.547    
     23300   311.55349      13423.455     -36700.739     -36475.998    
     23400   300.36734      11555.618     -36702.559     -36485.887    
     23500   304.15732      15558.165     -36724.185     -36504.779    
     23600   276.71891      12277.194     -36710.924     -36511.311    
     23700   310.61302      3858.3902     -36722.733     -36498.67     
     23800   334.4911       17148.131     -36707.632     -36466.345    
     23900   311.57527      11439.119     -36696.768     -36472.011    
     24000   301.61696      13439.742     -36715.447     -36497.874    
     24100   290.03447      9368.2077     -36716.842     -36507.624    
     24200   314.34645      15251.179     -36732.411     -36505.655    
     24300   291.98492      12010.342     -36707.641     -36497.016    
     24400   314.14914      16552.908     -36699.798     -36473.185    
     24500   316.25414      9885.1722     -36689.74      -36461.608    
     24600   316.65823      13079.442     -36715.805     -36487.382    
     24700   292.82962      8260.4181     -36711.544     -36500.31     
     24800   291.4677       13524.436     -36715.435     -36505.183    
     24900   302.24739      11433.562     -36714.207     -36496.179    
     25000   319.10354      10990.506     -36708.256     -36478.069    
     25100   336.44488      15964.564     -36707.944     -36465.248    
     25200   291.40088      18079.089     -36704.301     -36494.097    
     25300   311.25747      10932.259     -36726.235     -36501.707    
     25400   285.26168      17101.235     -36713.163     -36507.388    
     25500   293.90572      11217.036     -36714.77      -36502.76     
     25600   332.91571      9507.4147     -36718.904     -36478.753    
     25700   318.69315      20314.829     -36695.246     -36465.355    
     25800   301.87127      16278.693     -36696.412     -36478.656    
     25900   289.17872      12702.86      -36714.688     -36506.087    
     26000   290.13619      15352.115     -36722.059     -36512.768    
     26100   289.24645      11101.152     -36714.175     -36505.525    
     26200   314.91242      13219.729     -36711.835     -36484.671    
     26300   316.22837      10691.596     -36705.606     -36477.493    
     26400   297.67701      9049.8402     -36703.635     -36488.904    
     26500   283.20384      10361.846     -36723.193     -36518.902    
     26600   281.17138      14856.612     -36723.34      -36520.516    
     26700   306.9361       16937.544     -36730.369     -36508.959    
     26800   303.3006       8712.5183     -36710.159     -36491.371    
     26900   313.48973      12649.061     -36715.44      -36489.302    
     27000   306.28131      19808.655     -36713.832     -36492.894    
     27100   291.18305      14891.241     -36724.465     -36514.419    
     27200   278.66591      11356.187     -36732.528     -36531.51     
     27300   300.63981      10088.318     -36732.319     -36515.45     
     27400   277.63697      10260.393     -36694.522     -36494.247    
     27500   304.67211      17253.388     -36705.829     -36486.052    
     27600   299.95302      11768.083     -36706.279     -36489.906    
     27700   286.14216      6268.8467     -36710.877     -36504.467    
     27800   277.63665      18660.556     -36725.918     -36525.643    
     27900   289.33078      14800.123     -36725.865     -36517.155    
     28000   278.83054      11043.4       -36711.139     -36510.003    
     28100   321.52316      12143.768     -36729.718     -36497.785    
     28200   279.84971      20874.075     -36692.942     -36491.071    
     28300   325.42254      9458.2551     -36708.386     -36473.64     
     28400   317.84261      9108.6663     -36706.783     -36477.505    
     28500   278.38045      12760.538     -36707.974     -36507.163    
     28600   290.7611       11297.563     -36725.21      -36515.468    
     28700   260.09129      6400.1321     -36703.151     -36515.533    
     28800   280.02576      13806.595     -36693.544     -36491.546    
     28900   306.96753      10477.869     -36697.714     -36476.281    
     29000   321.38736      12189.6       -36718.132     -36486.297    
     29100   301.63949      10812.914     -36726.687     -36509.097    
     29200   297.10839      14528.288     -36722.265     -36507.944    
     29300   304.5273       3047.7451     -36718.39      -36498.718    
     29400   264.00265      15170.694     -36685.33      -36494.89     
     29500   343.56774      15184.568     -36710.326     -36462.492    
     29600   314.10858      8248.4835     -36689.132     -36462.548    
     29700   319.77184      11954.745     -36713.343     -36482.673    
     29800   285.99669      20618.303     -36705.906     -36499.601    
     29900   287.12682      2569.5058     -36708.909     -36501.788    
     30000   307.59879      10633.756     -36721.483     -36499.594    
     30100   299.68163      10709.062     -36709.632     -36493.455    
     30200   311.5783       11648.988     -36709.52      -36484.761    
     30300   307.76186      7790.227      -36705.013     -36483.007    
     30400   299.13974      13052.17      -36717.553     -36501.767    
     30500   263.66584      7072.1007     -36708.99      -36518.793    
     30600   286.69438      13169.018     -36731.373     -36524.565    
     30700   314.18703      11213.528     -36721.233     -36494.592    
     30800   291.21845      6655.3068     -36693.056     -36482.983    
     30900   286.42336      20335.43      -36691.774     -36485.16     
     31000   319.88005      13668.331     -36728.737     -36497.989    
     31100   290.10602      4643.1356     -36720.055     -36510.785    
     31200   309.2347       14913.192     -36740.9       -36517.831    
     31300   283.0665       16602.725     -36718.262     -36514.07     
     31400   330.24805      6021.8681     -36724.169     -36485.943    
     31500   318.59514      15882.793     -36709.396     -36479.576    
     31600   310.72805      15228.696     -36720.49      -36496.344    
     31700   284.8576       13195.754     -36720.629     -36515.145    
     31800   300.59933      11994.187     -36738.069     -36521.23     
     31900   289.09486      12732.524     -36720.716     -36512.176    
     32000   300.48861      11450.631     -36717.866     -36501.107    
     32100   325.08404      11005.147     -36723.962     -36489.46     
     32200   294.38506      14834.416     -36708.014     -36495.657    
     32300   273.25291      9074.4597     -36718.588     -36521.475    
     32400   282.43933      16007.575     -36730.358     -36526.618    
     32500   300.9297       21576.941     -36727.81      -36510.733    
     32600   287.48509      15909.873     -36707.536     -36500.157    
     32700   286.07114      6425.6898     -36696.394     -36490.035    
     32800   294.95202      21557.397     -36703.628     -36490.863    
     32900   299.37615      14746.738     -36715.876     -36499.919    
     33000   287.54338      10696.297     -36718.037     -36510.616    
     33100   287.785        14601.046     -36722.902     -36515.306    
     33200   280.40421      16525.568     -36709.782     -36507.511    
     33300   316.23757      12274.319     -36710.126     -36482.006    
     33400   322.06636      13194.463     -36718.376     -36486.051    
     33500   296.38253      12846.899     -36711.708     -36497.911    
     33600   277.0025       9303.099      -36722.781     -36522.964    
     33700   292.2922       8823.021      -36745.502     -36534.655    
     33800   278.09346      12624.527     -36725.569     -36524.965    
     33900   299.55967      15425.938     -36727.343     -36511.254    
     34000   302.36228      12244.613     -36715.77      -36497.659    
     34100   316.69609      12488.079     -36717.125     -36488.674    
     34200   301.80851      18815.156     -36705.856     -36488.145    
     34300   307.65661      11028.826     -36726.03      -36504.101    
     34400   271.85837      6320.8958     -36718.114     -36522.008    
     34500   297.4789       14420.542     -36728.529     -36513.94     
     34600   290.93275      19009.219     -36700.764     -36490.897    
     34700   313.8829       7782.1645     -36709.835     -36483.414    
     34800   302.63609      10960.003     -36709.297     -36490.989    
     34900   305.00298      14843.835     -36723.95      -36503.934    
     35000   269.9268       8128.8289     -36706.088     -36511.374    
     35100   298.33127      12371.212     -36730.664     -36515.461    
     35200   284.49681      11051.746     -36708.841     -36503.618    
     35300   307.63154      15509.977     -36706.262     -36484.35     
     35400   293.88005      17047.382     -36690.779     -36478.787    
     35500   297.70853      16088.275     -36715.728     -36500.974    
     35600   290.46557      15330.453     -36724.738     -36515.209    
     35700   297.28623      14012.282     -36725.598     -36511.149    
     35800   305.6694       13143.169     -36718.942     -36498.445    
     35900   307.75843      14614.283     -36704.131     -36482.128    
     36000   318.61744      15392.779     -36713.713     -36483.877    
     36100   277.39689      5564.9737     -36722.373     -36522.271    
     36200   291.59359      11854.85      -36730.581     -36520.238    
     36300   285.22558      13560.279     -36705.052     -36499.303    
     36400   328.6024       12907.14      -36720.305     -36483.266    
     36500   293.67802      10804.763     -36698.676     -36486.83     
     36600   285.17425      12254.477     -36713.713     -36508.001    
     36700   274.41769      17028.566     -36730.198     -36532.245    
     36800   281.0828       11395.831     -36733.727     -36530.966    
     36900   321.18632      10961.449     -36721.313     -36489.624    
     37000   290.27332      9428.6902     -36699.921     -36490.531    
     37100   309.95363      19150.18      -36710.598     -36487.011    
     37200   318.25172      6380.6947     -36709.573     -36480        
     37300   297.77316      6056.2017     -36708.802     -36494.001    
     37400   304.24653      13727.218     -36739.538     -36520.068    
     37500   274.07323      12322.52      -36715.167     -36517.463    
     37600   303.47159      9703.2916     -36721.324     -36502.413    
     37700   303.69626      15154.437     -36713.649     -36494.575    
     37800   300.09446      13172.248     -36711.603     -36495.128    
     37900   311.24152      9272.9322     -36727.533     -36503.017    
     38000   270.34029      13276.191     -36716.98      -36521.968    
     38100   286.36579      8553.8607     -36737.712     -36531.141    
     38200   274.3452       10119.158     -36706.63      -36508.729    
     38300   302.3633       8164.0853     -36709.595     -36491.483    
     38400   325.25837      14287.325     -36723.501     -36488.874    
     38500   289.02813      7697.847      -36703.704     -36495.212    
     38600   296.28946      10439.564     -36723.515     -36509.784    
     38700   283.46158      10849.683     -36736.864     -36532.387    
     38800   286.39147      11666.01      -36732.989     -36526.399    
     38900   279.88764      12121.725     -36704.408     -36502.509    
     39000   302.62123      13118.84      -36716.791     -36498.494    
     39100   300.86918      10088.793     -36708.303     -36491.27     
     39200   317.56751      12002.692     -36719.968     -36490.888    
     39300   282.7202       16646.015     -36701.799     -36497.857    
     39400   303.31793      9956.7738     -36721.073     -36502.273    
     39500   304.87724      7492.5457     -36727.227     -36507.302    
     39600   285.77695      14649.072     -36725.057     -36518.91     
     39700   284.0562       15311.798     -36714.341     -36509.436    
     39800   307.97554      15720.434     -36705.456     -36483.296    
     39900   318.91076      15759.082     -36713.462     -36483.414    
     40000   307.4354       10846.187     -36721.706     -36499.936    
     40100   291.69445      9857.2588     -36721.277     -36510.861    
     40200   282.38077      10544.096     -36711.438     -36507.741    
     40300   332.50558      12381.641     -36736.716     -36496.861    
     40400   310.34409      8740.067      -36716.509     -36492.641    
     40500   287.80319      9459.2069     -36702.787     -36495.179    
     40600   320.33223      20453.974     -36735.701     -36504.628    
     40700   284.74137      11768.878     -36715.343     -36509.944    
     40800   291.98527      12877.087     -36717.35      -36506.725    
     40900   299.33112      8635.1586     -36710.352     -36494.428    
     41000   334.57059      16716.417     -36716.023     -36474.678    
     41100   294.52849      9254.5032     -36692.492     -36480.032    
     41200   297.28127      9798.0381     -36722.402     -36507.957    
     41300   290.19479      10094.658     -36727.398     -36518.064    
     41400   281.78126      14017.33      -36715.747     -36512.482    
     41500   298.622        11465.226     -36711.921     -36496.508    
     41600   310.47963      12491.907     -36710.134     -36486.167    
     41700   290.62222      8637.011      -36701.112     -36491.47     
     41800   283.62534      17360.912     -36731.079     -36526.484    
     41900   288.57861      6748.047      -36739.734     -36531.566    
     42000   295.68478      14576.831     -36728.844     -36515.55     
     42100   313.50039      11905.734     -36726.173     -36500.028    
     42200   305.02768      16315.772     -36710.778     -36490.744    
     42300   299.07478      7679.7        -36702.646     -36486.906    
     42400   282.50044      17717.851     -36704.691     -36500.908    
     42500   286.52809      12716.228     -36731.577     -36524.889    
     42600   293.94632      5554.4157     -36739.013     -36526.973    
     42700   287.69476      10541.339     -36715.999     -36508.469    
     42800   294.18765      16726.288     -36708.309     -36496.095    
     42900   295.99263      9747.9387     -36703.496     -36489.98     
     43000   302.78778      10752.326     -36708.46      -36490.042    
     43100   298.14616      12245.668     -36724.861     -36509.792    
     43200   275.92671      16048.721     -36720.752     -36521.711    
     43300   287.55805      14472.496     -36717.853     -36510.422    
     43400   313.46064      17393.899     -36709.074     -36482.957    
     43500   310.51918      12549.214     -36706.523     -36482.529    
     43600   321.20847      13899.035     -36722.013     -36490.308    
     43700   295.40941      11299.953     -36721.152     -36508.057    
     43800   281.57824      9302.1154     -36719.624     -36516.506    
     43900   302.21649      16771.857     -36709.627     -36491.621    
     44000   326.47848      7249.5608     -36703.142     -36467.635    
     44100   298.78164      9790.7643     -36702.931     -36487.403    
     44200   280.99279      12223.574     -36708.655     -36505.959    
     44300   278.94761      15882.523     -36712.391     -36511.17     
     44400   313.90025      6097.6752     -36723.27      -36496.836    
     44500   346.22903      18833.328     -36724.427     -36474.672    
     44600   321.38775      16259.271     -36706.028     -36474.193    
     44700   295.65431      8686.9769     -36714.689     -36501.417    
     44800   271.71297      16864.547     -36699.027     -36503.025    
     44900   328.71826      9935.7335     -36733.185     -36496.062    
     45000   296.70479      10258.342     -36707.066     -36493.037    
     45100   290.80051      11714.71      -36723.983     -36514.212    
     45200   267.24764      16149.573     -36718.506     -36525.725    
     45300   299.92037      13967.817     -36713.365     -36497.015    
     45400   318.677        6356.7924     -36711.491     -36481.611    
     45500   284.86662      13344.258     -36699.284     -36493.793    
     45600   284.80912      15601.086     -36708.806     -36503.357    
     45700   291.81326      9128.1499     -36708.627     -36498.125    
     45800   321.41583      10826.86      -36708.739     -36476.884    
     45900   336.71186      11992.588     -36711.719     -36468.829    
     46000   310.35579      10748.997     -36716.327     -36492.45     
     46100   292.54141      6820.2614     -36712.292     -36501.265    
     46200   318.39181      12859.687     -36729.317     -36499.643    
     46300   290.62747      9700.1238     -36710.223     -36500.577    
     46400   309.96007      9920.612      -36726.964     -36503.372    
     46500   310.03294      12991.21      -36717.586     -36493.942    
     46600   321.95989      15354.458     -36682.981     -36450.733    
     46700   314.0506       5737.9544     -36687.489     -36460.946    
     46800   302.41963      21072.077     -36708.16      -36490.007    
     46900   300.99         5860.9382     -36722.713     -36505.592    
     47000   301.01717      11615.126     -36728.543     -36511.403    
     47100   294.12265      17317.014     -36715.591     -36503.424    
     47200   319.35232      17835.717     -36707.882     -36477.516    
     47300   322.43257      4837.3879     -36698.973     -36466.384    
     47400   315.12443      14883.646     -36712.753     -36485.436    
     47500   289.11398      13873.334     -36724.575     -36516.021    
     47600   295.87838      8767.0006     -36724.907     -36511.474    
     47700   299.96504      12458.831     -36709.93      -36493.548    
     47800   303.751        20017.138     -36704.696     -36485.583    
     47900   310.0417       9740.8243     -36706.666     -36483.015    
     48000   327.23281      12211.06      -36732.312     -36496.261    
     48100   295.96832      10093.113     -36734.115     -36520.617    
     48200   288.67918      16614.85      -36727.84      -36519.6      
     48300   306.54759      11065.848     -36714.916     -36493.786    
     48400   323.38728      9758.6        -36715.125     -36481.848    
     48500   310.51941      14962.135     -36719.337     -36495.342    
     48600   275.36474      20601.618     -36701.747     -36503.111    
     48700   286.22832      13374.025     -36709.615     -36503.142    
     48800   297.66024      12713.158     -36710.602     -36495.883    
     48900   303.34952      12192.863     -36701.921     -36483.098    
     49000   340.54293      15867.927     -36726.093     -36480.44     
     49100   298.97046      8835.7129     -36714.557     -36498.893    
     49200   277.5992       17953.332     -36718.992     -36518.744    
     49300   308.31208      11689.854     -36735.472     -36513.069    
     49400   287.25243      10421.03      -36710.111     -36502.9      
     49500   305.37867      16137.327     -36712.515     -36492.228    
     49600   318.50645      8836.2297     -36700.008     -36470.252    
     49700   322.50986      13255.264     -36678.194     -36445.549    
     49800   324.68684      15511.859     -36708.034     -36473.819    
     49900   292.39573      10138.99      -36708.134     -36497.213    
     50000   300.14375      9394.6404     -36718.076     -36501.565    
     50100   297.94372      15361.704     -36722.389     -36507.466    
     50200   314.77211      11437.861     -36734.578     -36507.516    
     50300   273.14512      12653.59      -36701.36      -36504.325    
     50400   312.15838      14064.734     -36706.939     -36481.762    
     50500   319.47856      9723.7492     -36704.974     -36474.517    
     50600   307.60724      9045.2322     -36717.591     -36495.697    
     50700   286.40337      11523.999     -36712.437     -36505.838    
     50800   296.67821      10599.394     -36719.208     -36505.197    
     50900   296.39009      15891.276     -36715.076     -36501.273    
     51000   318.02734      8000.7388     -36713.078     -36483.667    
     51100   321.42133      8891.5234     -36698.117     -36466.258    
     51200   301.03022      14459.085     -36695.211     -36478.061    
     51300   299.17052      8985.2561     -36720.827     -36505.018    
     51400   290.42342      9206.7574     -36717.604     -36508.105    
     51500   310.09548      15850.98      -36729.516     -36505.826    
     51600   329.78959      15879.344     -36729.624     -36491.728    
     51700   314.95675      6310.678      -36686.472     -36459.276    
     51800   358.96387      18063.765     -36723.322     -36464.381    
     51900   309.64949      17642.852     -36712.247     -36488.879    
     52000   303.07644      4799.235      -36714.919     -36496.293    
     52100   296.91153      18231.5       -36722.095     -36507.917    
     52200   270.90746      21362.6       -36711.125     -36515.704    
     52300   298.87111      11803.7       -36715.155     -36499.562    
     52400   315.22416      11945.963     -36703.231     -36475.842    
     52500   298.62703      17488.286     -36707.156     -36491.739    
     52600   289.99326      10001.43      -36717.496     -36508.308    
     52700   295.70032      8258.5188     -36718.346     -36505.04     
     52800   297.48055      11998.365     -36715.049     -36500.46     
     52900   303.33581      13131.385     -36722.601     -36503.788    
     53000   306.85334      10957.697     -36718.757     -36497.407    
     53100   308.35884      12730.097     -36709.664     -36487.228    
     53200   305.20177      16688.596     -36683.613     -36463.454    
     53300   312.47983      6805.7929     -36686.68      -36461.271    
     53400   298.97577      11492.831     -36711.315     -36495.647    
     53500   278.7767       16003.599     -36707.784     -36506.687    
     53600   305.76203      15419.803     -36722.671     -36502.107    
     53700   328.29155      9336.8012     -36722.293     -36485.478    
     53800   305.20544      8023.3507     -36706.868     -36486.706    
     53900   292.37536      8205.5937     -36723.301     -36512.395    
     54000   292.1641       14659.323     -36730.124     -36519.369    
     54100   309.54248      13154.401     -36727.79      -36504.499    
     54200   299.0567       13365.776     -36701.155     -36485.429    
     54300   318.79606      10998.865     -36710.173     -36480.208    
     54400   298.20852      9266.5689     -36703.161     -36488.046    
     54500   310.35588      17682.006     -36716.945     -36493.068    
     54600   294.03812      16908.175     -36714.454     -36502.348    
     54700   300.93611      9445.7472     -36742.071     -36524.989    
     54800   269.53554      15262.081     -36722.691     -36528.26     
     54900   288.21104      15600.163     -36717.086     -36509.183    
     55000   291.90793      5460.4437     -36709.488     -36498.918    
     55100   306.95443      14150.789     -36710.564     -36489.14     
     55200   297.90443      17100.62      -36703.903     -36489.008    
     55300   302.87418      5740.0925     -36692.52      -36474.04     
     55400   308.52615      14420.839     -36700.487     -36477.93     
     55500   295.89108      19635.304     -36720.017     -36506.575    
     55600   291.00836      11116.445     -36721.275     -36511.354    
     55700   310.12007      8037.0997     -36723.935     -36500.228    
     55800   323.23821      21539.145     -36712.697     -36479.527    
     55900   337.48446      15376.85      -36711.939     -36468.492    
     56000   316.46939      1175.8003     -36706.037     -36477.749    
     56100   314.47746      11954.06      -36714.952     -36488.102    
     56200   295.75359      18508.755     -36715.343     -36501.999    
     56300   282.80945      9009.4108     -36715.86      -36511.854    
     56400   267.54158      9925.0768     -36712.625     -36519.633    
     56500   266.67917      12772.05      -36692.041     -36499.67     
     56600   317.43677      10941.679     -36705.787     -36476.802    
     56700   317.59253      11863.828     -36707.252     -36478.155    
     56800   301.05454      13962.8       -36719.596     -36502.428    
     56900   290.54826      13732.89      -36719.694     -36510.106    
     57000   304.4036       9071.8111     -36724.699     -36505.115    
     57100   310.67148      11044.556     -36720.161     -36496.057    
     57200   322.20762      16702.384     -36713.508     -36481.081    
     57300   346.7098       9437.8392     -36696.396     -36446.295    
     57400   306.94714      11449.711     -36685.208     -36463.789    
     57500   308.39249      14198.041     -36714.326     -36491.865    
     57600   287.48248      13471.41      -36710.404     -36503.026    
     57700   282.27633      8150.0943     -36711.307     -36507.686    
     57800   312.99145      13027.126     -36725.911     -36500.133    
     57900   323.72245      14078.98      -36706.394     -36472.875    
     58000   312.70806      12396.754     -36693.571     -36467.997    
     58100   309.52769      13455.966     -36718.134     -36494.854    
     58200   307.12166      13768.709     -36731.206     -36509.662    
     58300   289.72216      10227.918     -36716.033     -36507.04     
     58400   314.00086      11115.187     -36723.628     -36497.121    
     58500   314.21505      18495.309     -36709.39      -36482.73     
     58600   302.13851      5068.1994     -36703.33      -36485.38     
     58700   288.02589      13768.18      -36726.222     -36518.453    
     58800   300.29003      16982.68      -36740.904     -36524.288    
     58900   307.67204      10396.632     -36726.505     -36504.564    
     59000   308.58411      13568.72      -36716.44      -36493.841    
     59100   313.11755      13033.628     -36714.091     -36488.222    
     59200   298.88426      8856.7758     -36706.322     -36490.72     
     59300   277.99582      10452.278     -36719.818     -36519.284    
     59400   279.91097      14413.032     -36739.371     -36537.456    
     59500   286.65822      9958.5787     -36729.152     -36522.369    
     59600   294.89972      5187.7552     -36713.06      -36500.332    
     59700   299.3873       10961.831     -36708.143     -36492.178    
     59800   311.42576      10055.225     -36713.784     -36489.135    
     59900   311.49513      11686.502     -36710.579     -36485.88     
     60000   302.26683      8528.8053     -36720.775     -36502.733    
     60100   284.46802      11593.877     -36721.305     -36516.102    
     60200   288.62895      10741.869     -36711.748     -36503.544    
     60300   305.15124      7949.6728     -36703.783     -36483.66     
     60400   321.2185       10985.125     -36699.473     -36467.76     
     60500   307.53597      10622.805     -36704.196     -36482.354    
     60600   286.74595      12211.108     -36716.569     -36509.723    
     60700   301.23716      10307.022     -36731.337     -36514.038    
     60800   270.01152      10064.595     -36695.756     -36500.981    
     60900   325.40408      9533.139      -36713.663     -36478.931    
     61000   290.86836      13065.823     -36693.327     -36483.508    
     61100   315.27987      15451.553     -36721.012     -36493.583    
     61200   299.99543      8635.0299     -36713.952     -36497.549    
     61300   301.95491      8380.8528     -36715.946     -36498.129    
     61400   275.12962      14336.633     -36704.88      -36506.414    
     61500   307.79318      13074.858     -36726.85      -36504.821    
     61600   310.89651      2808.6699     -36705.9       -36481.633    
     61700   321.33909      17349.85      -36708.162     -36476.362    
     61800   283.54799      17485.713     -36706.024     -36501.485    
     61900   294.65685      7517.9793     -36714.586     -36502.033    
     62000   290.2067       7963.9465     -36704.752     -36495.41     
     62100   289.49424      18951.936     -36707.451     -36498.623    
     62200   286.92814      6614.1925     -36713.23      -36506.253    
     62300   304.98775      17681.05      -36729.265     -36509.26     
     62400   299.18303      13055.156     -36723.137     -36507.32     
     62500   303.68457      10407.519     -36714.18      -36495.116    
     62600   319.5072       12884.347     -36704.41      -36473.932    
     62700   319.59489      20545.037     -36711.411     -36480.869    
     62800   283.60819      12556.122     -36711.139     -36506.556    
     62900   297.17444      16481.556     -36721.252     -36506.883    
     63000   311.10736      10178.267     -36725.427     -36501.008    
     63100   274.63158      8545.1632     -36700.289     -36502.182    
     63200   317.31513      20763.106     -36705.277     -36476.38     
     63300   316.38948      15195.602     -36698.654     -36470.424    
     63400   304.21469      5461.1582     -36706.038     -36486.591    
     63500   304.73465      17494.64      -36722.355     -36502.533    
     63600   281.5912       7732.0197     -36705.981     -36502.853    
     63700   291.66979      12950.187     -36712.799     -36502.401    
     63800   301.91776      15892.257     -36706.817     -36489.027    
     63900   337.4282       8709.4455     -36705.288     -36461.883    
     64000   308.57391      8815.8846     -36702.924     -36480.332    
     64100   312.12032      17219.756     -36723.582     -36498.432    
     64200   292.80661      10002.012     -36715.334     -36504.116    
     64300   301.2691       8929.881      -36719.623     -36502.301    
     64400   305.54876      19517.361     -36714.506     -36494.096    
     64500   325.25021      11152.081     -36703.599     -36468.978    
     64600   325.99503      5570.3055     -36703.285     -36468.126    
     64700   289.38492      9137.0012     -36706.401     -36497.652    
     64800   314.56096      18832.989     -36730.023     -36503.113    
     64900   305.15509      7371.3734     -36720.131     -36500.006    
     65000   299.62165      8600.3222     -36713.709     -36497.575    
     65100   301.7696       15392.147     -36701.096     -36483.412    
     65200   323.37947      11292.746     -36700.139     -36466.867    
     65300   326.45836      3588.1873     -36716.905     -36481.412    
     65400   294.54586      18787.63      -36723.513     -36511.04     
     65500   290.11203      12793.066     -36716.054     -36506.78     
     65600   308.24273      13397.354     -36712.464     -36490.111    
     65700   327.33179      11137.985     -36715.241     -36479.118    
     65800   321.39499      14494.991     -36731.984     -36500.144    
     65900   279.33541      9219.1017     -36721.656     -36520.156    
     66000   279.93365      11651.737     -36717.697     -36515.765    
     66100   301.83288      16857.926     -36713.016     -36495.287    
     66200   313.69042      18328.917     -36712.434     -36486.152    
     66300   325.035        8458.5695     -36724.83      -36490.364    
     66400   282.29832      13772.277     -36701.152     -36497.515    
     66500   300.33861      11747.144     -36713.304     -36496.652    
     66600   285.40083      9682.769      -36700.124     -36494.248    
     66700   312.29058      10211.443     -36722.109     -36496.836    
     66800   301.73188      12952.073     -36719.426     -36501.77     
     66900   295.48228      11625.003     -36712.72      -36499.573    
     67000   313.64856      11843.212     -36724.237     -36497.985    
     67100   300.37043      16473.966     -36719.652     -36502.978    
     67200   298.64636      19319.034     -36718.986     -36503.556    
     67300   315.04044      8651.1214     -36717.563     -36490.307    
     67400   323.21706      13191.388     -36715.891     -36482.736    
     67500   300.76282      16212.868     -36702.344     -36485.387    
     67600   273.95652      16797.63      -36705.864     -36508.244    
     67700   293.96416      8671.2588     -36729.482     -36517.429    
     67800   293.0028       17483.816     -36722.942     -36511.583    
     67900   303.5829       11495.365     -36703.055     -36484.063    
     68000   328.69259      10155.362     -36701.318     -36464.214    
     68100   304.22634      13783.065     -36696.144     -36476.689    
     68200   311.50935      16254.533     -36720.066     -36495.356    
     68300   295.14466      7728.7342     -36720.169     -36507.265    
     68400   300.50386      14662.43      -36722.989     -36506.218    
     68500   308.67225      9962.2177     -36717.379     -36494.717    
     68600   287.90012      9085.8707     -36698.82      -36491.142    
     68700   304.32841      11312.189     -36701.893     -36482.364    
     68800   317.47469      16895.808     -36705.393     -36476.381    
     68900   307.24665      11697.81      -36707.218     -36485.584    
     69000   288.72522      13680.651     -36716.675     -36508.401    
     69100   290.58148      8660.5786     -36726.407     -36516.794    
     69200   268.87658      11401.962     -36703.957     -36510.001    
     69300   321.25896      15517.898     -36707.508     -36475.766    
     69400   324.52297      13033.846     -36706.898     -36472.802    
     69500   303.13678      9325.1992     -36711.045     -36492.376    
     69600   280.52712      15502.655     -36708.243     -36505.883    
     69700   290.99554      16189.799     -36712.58      -36502.668    
     69800   304.23885      10712.212     -36710.384     -36490.92     
     69900   301.14433      11328.127     -36696.272     -36479.04     
     70000   317.05438      15057.802     -36698.161     -36469.451    
     70100   310.91568      6361.8623     -36708         -36483.719    
     70200   307.06547      8841.073      -36724.889     -36503.385    
     70300   292.16124      14934.793     -36720.863     -36510.111    
     70400   312.73159      12141.885     -36721.973     -36496.382    
     70500   305.39104      7953.1778     -36692.906     -36472.611    
     70600   347.78477      13289.102     -36697.482     -36446.605    
     70700   354.78201      10100.437     -36693.52      -36437.595    
     70800   308.45742      13456.079     -36698.818     -36476.31     
     70900   298.74135      9791.2364     -36710.876     -36495.377    
     71000   289.78915      11870.709     -36713.957     -36504.916    
     71100   289.17015      14837.445     -36716.538     -36507.944    
     71200   320.47422      8364.3346     -36726.561     -36495.385    
     71300   300.74964      8934.7759     -36693.657     -36476.709    
     71400   344.41461      13106.112     -36713.732     -36465.287    
     71500   280.93067      14148.941     -36695.856     -36493.205    
     71600   303.88423      9017.2937     -36729.942     -36510.734    
     71700   283.99613      14825.866     -36714.208     -36509.345    
     71800   309.84505      7931.53       -36716.546     -36493.037    
     71900   320.7161       12041.347     -36707.362     -36476.012    
     72000   301.99873      11215.604     -36692.263     -36474.414    
     72100   307.59794      10273.33      -36729.646     -36507.758    
     72200   282.23367      14479.842     -36723.309     -36519.718    
     72300   288.66189      11143.802     -36714.391     -36506.163    
     72400   316.26903      13074.289     -36715.041     -36486.898    
     72500   317.93006      11660.767     -36716.353     -36487.012    
     72600   292.31736      9775.9191     -36706.337     -36495.472    
     72700   295.73116      11537.323     -36732.204     -36518.877    
     72800   296.91001      9505.1287     -36756.435     -36542.257    
     72900   267.03881      13410.453     -36720.751     -36528.121    
     73000   295.05257      11949.908     -36717.399     -36504.561    
     73100   299.93829      19286.671     -36711.676     -36495.314    
     73200   301.47228      12656.825     -36706.043     -36488.574    
     73300   291.71082      13508.178     -36707.287     -36496.86     
     73400   281.92457      17118.411     -36726.736     -36523.368    
     73500   287.653        14554.156     -36731.601     -36524.101    
     73600   293.56586      7457.3595     -36715.356     -36503.59     
     73700   298.68742      17696.073     -36709.714     -36494.254    
     73800   301.71398      14764.475     -36714.025     -36496.382    
     73900   285.70597      5075.3359     -36706.483     -36500.387    
     74000   301.06945      14801.068     -36713.475     -36496.296    
     74100   328.95761      18651.362     -36717.9       -36480.605    
     74200   304.56866      5058.1038     -36694.901     -36475.198    
     74300   287.81212      14528.53      -36707.068     -36499.453    
     74400   289.27926      10879.509     -36726.397     -36517.724    
     74500   288.7036       16176.896     -36722.094     -36513.836    
     74600   309.59343      5356.3842     -36718.358     -36495.031    
     74700   300.69333      16370.668     -36689.308     -36472.401    
     74800   332.05477      15027.349     -36705.354     -36465.824    
     74900   297.4945       10769.44      -36718.568     -36503.969    
     75000   292.30735      9203.9277     -36717.281     -36506.423    
     75100   310.75397      15391.46      -36722.199     -36498.035    
     75200   303.45556      6771.2393     -36706.595     -36487.696    
     75300   294.73313      12367.938     -36699.906     -36487.298    
     75400   322.11994      18026.622     -36723.395     -36491.032    
     75500   300.13223      10247.466     -36726.264     -36509.762    
     75600   280.11199      10349.212     -36725.73      -36523.669    
     75700   287.08187      14225.412     -36719.885     -36512.797    
     75800   325.65318      9008.798      -36716.647     -36481.735    
     75900   313.90713      13436.442     -36712.322     -36485.884    
     76000   293.61682      16018.493     -36708.443     -36496.641    
     76100   292.9835       7141.2199     -36719.036     -36507.69     
     76200   276.53436      9692.5521     -36715.019     -36515.539    
     76300   307.18765      17736.592     -36728.125     -36506.533    
     76400   294.63709      15881.351     -36691.744     -36479.205    
     76500   309.43414      9534.6146     -36695.041     -36471.829    
     76600   314.86379      16602.034     -36719.397     -36492.268    
     76700   281.00439      18912.701     -36712.982     -36510.278    
     76800   300.53817      4593.6186     -36722.097     -36505.302    
     76900   300.0687       12662.257     -36715.789     -36499.332    
     77000   292.52846      15709.898     -36705.979     -36494.961    
     77100   291.45631      15477.733     -36695.619     -36485.375    
     77200   317.53125      14243.086     -36705.267     -36476.214    
     77300   291.02276      12536.877     -36703.781     -36493.85     
     77400   292.57683      11775.944     -36720.847     -36509.795    
     77500   294.27089      11913.47      -36726.372     -36514.098    
     77600   319.45558      12391.877     -36719.565     -36489.124    
     77700   289.36754      10743.832     -36687.573     -36478.836    
     77800   320.62518      15743.005     -36730.864     -36499.58     
     77900   287.53794      13611.27      -36740.564     -36533.147    
     78000   282.51561      9085.7517     -36720.395     -36516.601    
     78100   302.73485      15792.43      -36713.549     -36495.17     
     78200   296.30665      9613.145      -36701.701     -36487.958    
     78300   296.8163       9930.2445     -36709.157     -36495.046    
     78400   278.42248      8705.3072     -36712.774     -36511.932    
     78500   277.57998      14953.017     -36721.786     -36521.552    
     78600   315.27512      8868.4808     -36729.552     -36502.127    
     78700   289.41007      12937.299     -36692.436     -36483.668    
     78800   302.34897      12968.572     -36701.913     -36483.811    
     78900   320.34629      11398.134     -36725.124     -36494.04     
     79000   264.77148      10843.628     -36710.739     -36519.745    
     79100   279.5452       12931.846     -36722.919     -36521.268    
     79200   307.55081      9244.5612     -36726.523     -36504.67     
     79300   306.28224      11009.494     -36714.941     -36494.003    
     79400   297.32344      13057.339     -36704.826     -36490.35     
     79500   295.5611       19541.463     -36708.475     -36495.27     
     79600   314.87726      11801.306     -36731.514     -36504.375    
     79700   288.07725      18821.733     -36725.306     -36517.499    
     79800   280.70189      6350.7631     -36728.196     -36525.71     
     79900   280.42925      17703.074     -36717.711     -36515.422    
     80000   328.07799      12923.705     -36729.337     -36492.676    
     80100   289.45493      10853.924     -36694.045     -36485.245    
     80200   325.83938      8941.8183     -36721.081     -36486.035    
     80300   281.69975      15109.159     -36719.146     -36515.94     
     80400   305.07484      9206.5449     -36743.106     -36523.038    
     80500   296.52495      10185.357     -36725.513     -36511.613    
     80600   298.5702       16312.447     -36714.488     -36499.113    
     80700   289.51874      11228.361     -36699.548     -36490.702    
     80800   311.36689      11147.866     -36714.983     -36490.377    
     80900   296.924        14063.969     -36712.933     -36498.745    
     81000   288.39935      10712.124     -36721.64      -36513.602    
     81100   301.23098      13423.84      -36736.887     -36519.592    
     81200   282.60781      9875.4564     -36705.684     -36501.823    
     81300   317.68516      16885.895     -36711.952     -36482.788    
     81400   311.48644      8653.628      -36712.768     -36488.075    
     81500   292.69947      14526.61      -36715.883     -36504.743    
     81600   272.41087      12342.154     -36722.233     -36525.727    
     81700   265.91519      15636.733     -36722.096     -36530.277    
     81800   301.25812      3581.7896     -36724.441     -36507.127    
     81900   288.83217      18708.406     -36709.896     -36501.546    
     82000   339.43374      10257.204     -36734.455     -36489.602    
     82100   292.4369       5888.309      -36703.763     -36492.812    
     82200   293.77477      17974.118     -36713.282     -36501.366    
     82300   289.0594       14536.614     -36729.578     -36521.063    
     82400   284.12982      8197.8297     -36732.044     -36527.085    
     82500   289.35702      12805.442     -36716.845     -36508.116    
     82600   305.72868      7849.1634     -36704.55      -36484.011    
     82700   282.58118      6245.8044     -36689.34      -36485.498    
     82800   295.8189       18447.518     -36713.19      -36499.799    
     82900   282.91412      14581.8       -36724.593     -36520.511    
     83000   286.28546      6101.3878     -36724.292     -36517.778    
     83100   317.04067      17183.499     -36716.88      -36488.181    
     83200   303.81775      13406.289     -36702.685     -36483.524    
     83300   302.79252      12854.866     -36713.155     -36494.734    
     83400   295.24764      20000.7       -36725.814     -36512.835    
     83500   261.98294      14531.025     -36713.034     -36524.051    
     83600   298.72743      1034.3856     -36721.904     -36506.415    
     83700   305.40412      17721.236     -36705.278     -36484.972    
     83800   312.57531      12918.472     -36710.514     -36485.036    
     83900   293.8642       7042.3521     -36709.214     -36497.234    
     84000   280.92383      10566.599     -36719.23      -36516.584    
     84100   299.50698      14675.635     -36733.349     -36517.298    
     84200   299.73269      7279.9139     -36699.273     -36483.059    
     84300   313.407        12315.208     -36697.796     -36471.718    
     84400   322.21059      15343.077     -36720.581     -36488.152    
     84500   310.96768      15006.443     -36728.201     -36503.883    
     84600   297.91568      7422.7571     -36725.872     -36510.969    
     84700   271.18459      12714.804     -36718.927     -36523.306    
     84800   280.16171      10718.561     -36720.04      -36517.943    
     84900   314.20966      8721.5801     -36715.85      -36489.192    
     85000   309.59631      12908.854     -36704.184     -36480.854    
     85100   299.00661      16405.475     -36711.52      -36495.83     
     85200   278.08069      10101.253     -36714.987     -36514.391    
     85300   279.97836      15325.16      -36718.861     -36516.897    
     85400   289.34619      12446.621     -36713.53      -36504.808    
     85500   318.15231      8907.1204     -36726.572     -36497.071    
     85600   300.22048      9627.6211     -36712.314     -36495.748    
     85700   314.38357      16621.655     -36726.749     -36499.967    
     85800   273.39446      10788.476     -36692.14      -36494.925    
     85900   314.45496      10698.695     -36703.704     -36476.87     
     86000   309.96919      6146.5724     -36706.284     -36482.686    
     86100   264.43286      17568.235     -36700.949     -36510.198    
     86200   276.02867      12349.963     -36709.69      -36510.575    
     86300   314.25178      7834.0499     -36727.234     -36500.547    
     86400   287.69159      11195.765     -36703.775     -36496.246    
     86500   308.37957      15431.472     -36717.481     -36495.03     
     86600   280.55306      16168.806     -36699.71      -36497.332    
     86700   306.79311      13890.974     -36712.681     -36491.374    
     86800   331.11847      8975.2129     -36726.953     -36488.099    
     86900   293.39307      12955.808     -36718.585     -36506.944    
     87000   291.09784      13852.572     -36734.05      -36524.065    
     87100   288.60638      7909.9489     -36727.552     -36519.364    
     87200   299.37927      17050.048     -36701.854     -36485.895    
     87300   326.12583      16525.479     -36715.978     -36480.725    
     87400   300.2636       16200.393     -36705.609     -36489.012    
     87500   289.51859      9942.0203     -36713.884     -36505.038    
     87600   282.92093      13239.129     -36729.736     -36525.65     
     87700   272.46854      13029.254     -36730.366     -36533.819    
     87800   305.55863      8809.9241     -36717.299     -36496.882    
     87900   338.40988      10660.098     -36726.303     -36482.189    
     88000   293.1036       14768.407     -36699.042     -36487.61     
     88100   280.99861      14357.834     -36704.43      -36501.73     
     88200   288.93365      4376.6532     -36725.087     -36516.663    
     88300   267.26134      12966.06      -36713.053     -36520.263    
     88400   311.87658      14728.723     -36712.302     -36487.328    
     88500   296.01236      3916.8725     -36690.058     -36476.528    
     88600   309.07698      9208.9049     -36711.753     -36488.799    
     88700   282.04219      14571.416     -36714.445     -36510.992    
     88800   290.17855      15655.669     -36726.02      -36516.698    
     88900   312.27419      9375.1869     -36731.235     -36505.974    
     89000   334.07177      14750.782     -36711.889     -36470.904    
     89100   317.58858      11523.39      -36700.843     -36471.748    
     89200   297.36575      10852.85      -36702.735     -36488.229    
     89300   293.24776      18119.381     -36714.808     -36503.272    
     89400   282.94203      13755.449     -36711.222     -36507.12     
     89500   307.93091      12818.175     -36725.696     -36503.568    
     89600   307.82929      15360.842     -36699.713     -36477.658    
     89700   323.29692      3557.8371     -36694.842     -36461.63     
     89800   311.63124      15888.125     -36707.126     -36482.329    
     89900   311.78021      14416.735     -36727.558     -36502.654    
     90000   294.90121      7846.2915     -36720.15      -36507.421    
     90100   303.3727       10775.552     -36724.48      -36505.64     
     90200   287.56408      11582.546     -36694.387     -36486.951    
     90300   324.9659       12158.556     -36690.993     -36456.577    
     90400   313.39048      15883.523     -36700.454     -36474.388    
     90500   312.50297      12706.084     -36719.893     -36494.467    
     90600   298.47089      8104.6839     -36717.003     -36501.699    
     90700   284.98283      14848.584     -36706.367     -36500.793    
     90800   322.58622      15731.382     -36712.698     -36479.999    
     90900   320.26344      13260.86      -36699.208     -36468.184    
     91000   282.5501       10265.909     -36705.765     -36501.945    
     91100   280.31224      11668.908     -36714.964     -36512.759    
     91200   293.01805      14676.633     -36712.966     -36501.596    
     91300   324.00396      13555.632     -36716.978     -36483.256    
     91400   298.46031      9288.1624     -36701.315     -36486.019    
     91500   273.42756      11692.345     -36708.169     -36510.93     
     91600   272.72393      9536.4285     -36723.918     -36527.187    
     91700   286.21495      15652.826     -36731.274     -36524.812    
     91800   279.91739      6612.6818     -36716.079     -36514.159    
     91900   310.77656      18102.611     -36724.056     -36499.875    
     92000   296.85966      12841.275     -36702.503     -36488.362    
     92100   309.08783      16932.394     -36703.626     -36480.664    
     92200   331.69951      7407.2311     -36722.318     -36483.044    
     92300   266.48339      15624.104     -36710.09      -36517.86     
     92400   289.01036      15170.485     -36725.248     -36516.769    
     92500   299.99724      8820.1322     -36712.919     -36496.514    
     92600   300.81492      7491.1718     -36699.193     -36482.198    
     92700   291.37581      14629.612     -36704.679     -36494.493    
     92800   301.51581      10880.864     -36715.041     -36497.541    
     92900   304.27995      12763.643     -36723.287     -36503.793    
     93000   300.09155      9369.2208     -36720.03      -36503.557    
     93100   293.37223      16311.097     -36722.006     -36510.38     
     93200   297.08227      7736.3293     -36712.792     -36498.49     
     93300   313.08387      17416.322     -36707.219     -36481.374    
     93400   283.10458      11804.608     -36688.917     -36484.698    
     93500   316.2188       15198.299     -36740.045     -36511.939    
     93600   282.61113      10166.973     -36727.159     -36523.295    
     93700   288.79539      8854.1564     -36726.583     -36518.259    
     93800   304.59407      10412.074     -36726.521     -36506.8      
     93900   283.07033      11833.58      -36700.466     -36496.272    
     94000   320.43529      5128.5236     -36711.617     -36480.469    
     94100   318.9621       17533.849     -36704.475     -36474.39     
     94200   303.74653      6795.9084     -36698.995     -36479.885    
     94300   298.5182       9504.7217     -36722.353     -36507.015    
     94400   295.73236      12486.219     -36729.674     -36516.346    
     94500   292.5866       15873.251     -36713.501     -36502.442    
     94600   316.19425      6610.7819     -36704.237     -36476.149    
     94700   311.71221      15404.33      -36709.109     -36484.253    
     94800   315.69845      13233.462     -36721.345     -36493.614    
     94900   291.19438      9943.4123     -36712.42      -36502.365    
     95000   266.70956      5328.8224     -36698.723     -36506.33     
     95100   321.79573      15350.18      -36729.117     -36496.988    
     95200   326.97122      13746.453     -36696.44      -36460.577    
     95300   315.96477      17260.692     -36693.58      -36465.657    
     95400   302.36699      14770.141     -36712.49      -36494.376    
     95500   279.15667      13770.821     -36705.854     -36504.482    
     95600   286.49266      11442.485     -36703.526     -36496.863    
     95700   295.54745      12352.633     -36704.518     -36491.323    
     95800   302.49069      13971.368     -36701.059     -36482.855    
     95900   310.32155      14559.274     -36713.358     -36489.506    
     96000   287.68295      13167.768     -36718.078     -36510.556    
     96100   296.72019      10530.435     -36733.142     -36519.101    
     96200   303.6424       14298.989     -36729.34      -36510.306    
     96300   317.55079      14669.503     -36708.348     -36479.281    
     96400   330.93882      11543.031     -36716.823     -36478.099    
     96500   298.89383      13259.972     -36708.367     -36492.758    
     96600   283.51424      11479.563     -36707.982     -36503.467    
     96700   284.68103      11879.523     -36729.672     -36524.316    
     96800   262.70081      14270.723     -36740.604     -36551.104    
     96900   274.33514      16739.559     -36734.214     -36536.32     
     97000   270.23904      4028.1622     -36703.21      -36508.272    
     97100   280.10037      20271.272     -36699         -36496.948    
     97200   310.52242      11009.746     -36708.534     -36484.536    
[...]
    174500   296.65968      16695.79      -36718.856     -36504.858    
    174600   317.15717      15302.577     -36723.271     -36494.488    
    174700   309.91792      13669.875     -36709.778     -36486.217    
    174800   293.02439      4047.1912     -36704.272     -36492.897    
    174900   288.56334      17857.366     -36732.326     -36524.169    
    175000   288.88613      10959.456     -36733.105     -36524.716    
    175100   279.99161      16707.565     -36704.621     -36502.647    
    175200   306.54208      9828.8749     -36710.119     -36488.993    
    175300   306.48982      16517.542     -36713.792     -36492.704    
    175400   287.68191      16953.905     -36704.313     -36496.792    
    175500   290.18689      14536.921     -36730.137     -36520.808    
    175600   268.41469      5718.3659     -36720.861     -36527.239    
    175700   307.34729      13800.766     -36726.971     -36505.264    
    175800   311.18621      11735.507     -36715.209     -36490.733    
    175900   303.28036      12271.614     -36710.723     -36491.949    
    176000   324.86054      7128.864      -36726.15      -36491.81     
    176100   300.08722      18479.89      -36732.813     -36516.343    
    176200   281.58164      9474.3918     -36729.95      -36526.83     
    176300   290.61636      9019.4436     -36717.431     -36507.793    
    176400   316.69739      7491.9277     -36721.108     -36492.656    
    176500   305.25879      14785.81      -36714.672     -36494.471    
    176600   297.28889      9553.8661     -36705.899     -36491.448    
    176700   313.3693       11456.881     -36707.388     -36481.337    
    176800   323.16035      15706.381     -36709.859     -36476.746    
    176900   298.76745      17679.023     -36711.765     -36496.247    
    177000   289.60643      8316.43       -36722.219     -36513.31     
    177100   305.95646      9214.5965     -36736.77      -36516.066    
    177200   285.49003      12885.339     -36702.497     -36496.557    
    177300   314.27305      19988.816     -36703.621     -36476.919    
    177400   315.91851      7904.7707     -36713.134     -36485.244    
    177500   293.32226      12793.01      -36710.74      -36499.151    
    177600   307.21802      10134.537     -36729.525     -36507.911    
    177700   289.13857      12571.571     -36708.287     -36499.715    
    177800   316.29066      8196.6681     -36698.587     -36470.429    
    177900   314.81697      12746.84      -36695.854     -36468.759    
    178000   326.30647      15955.634     -36725.438     -36490.054    
    178100   309.4238       7819.9318     -36719.487     -36496.282    
    178200   293.44331      18842.27      -36709.395     -36497.718    
    178300   295.68804      11510.968     -36717.331     -36504.035    
    178400   275.65138      16567.427     -36715.154     -36516.311    
    178500   294.64404      16052.935     -36733.896     -36521.353    
    178600   295.55149      12609.953     -36712.167     -36498.97     
    178700   298.35147      8023.0564     -36695.604     -36480.387    
    178800   308.69487      16254.8       -36706.364     -36483.686    
    178900   294.10683      13191.962     -36710.327     -36498.172    
    179000   298.21748      8347.4249     -36740.183     -36525.062    
    179100   271.76894      15255.472     -36730.174     -36534.132    
    179200   267.50397      11349.365     -36715.734     -36522.769    
    179300   310.29923      14517.539     -36725.541     -36501.705    
    179400   310.26091      9427.4943     -36715.236     -36491.428    
    179500   295.65194      10834.491     -36704.72      -36491.449    
    179600   274.55387      24378.228     -36702.575     -36504.524    
    179700   316.74706      9598.6681     -36735.624     -36507.136    
    179800   285.30709      3104.9033     -36724.676     -36518.868    
    179900   298.87721      15887.568     -36731.413     -36515.816    
    180000   314.88077      16362.594     -36715.9       -36488.759    
    180100   301.39339      977.09737     -36699.997     -36482.585    
    180200   320.67814      14244.032     -36720.31      -36488.987    
    180300   288.608        12784.624     -36718.148     -36509.959    
    180400   294.49689      10704.367     -36738.675     -36526.238    
    180500   299.36721      15224.624     -36729.315     -36513.364    
    180600   291.661        16377.341     -36710.345     -36499.954    
    180700   327.52744      11003.035     -36725.18      -36488.916    
    180800   305.9869       17545.449     -36716.627     -36495.902    
    180900   272.55593      16810.874     -36704.738     -36508.129    
    181000   293.9882       8400.8311     -36727.181     -36515.111    
    181100   269.41483      13519.153     -36722.159     -36527.815    
    181200   298.84658      11116.318     -36728.695     -36513.12     
    181300   292.32928      12820.182     -36705.037     -36494.164    
    181400   304.41121      13828.863     -36702.169     -36482.581    
    181500   334.17528      12365.905     -36723.197     -36482.137    
    181600   284.0149       11950.523     -36712.571     -36507.696    
    181700   302.24419      8772.2298     -36739.586     -36521.56     
    181800   280.57218      14811.381     -36711.404     -36509.011    
    181900   294.90231      10486.344     -36705.116     -36492.386    
    182000   303.79125      11879.823     -36706.096     -36486.955    
    182100   288.94873      11725.627     -36694.424     -36485.989    
    182200   311.31228      10234.649     -36714.519     -36489.952    
    182300   294.03939      12979.225     -36711.151     -36499.044    
    182400   266.38229      18624.618     -36696.176     -36504.02     
    182500   306.27154      7948.3457     -36727.529     -36506.599    
    182600   302.16324      8509.1225     -36717.921     -36499.953    
    182700   304.98072      18137.879     -36702.22      -36482.22     
    182800   302.41161      12995.835     -36691.127     -36472.98     
    182900   301.95253      8023.909      -36715.442     -36497.627    
    183000   292.37003      15738.671     -36726.319     -36515.416    
    183100   314.57537      20105.523     -36736.399     -36509.479    
    183200   290.11877      11232.071     -36705.783     -36496.504    
    183300   307.35633      14003.781     -36714.655     -36492.942    
    183400   305.69659      13096.427     -36691.425     -36470.909    
    183500   330.88402      13679.345     -36698.273     -36459.587    
    183600   304.2836       14101.55      -36702.687     -36483.19     
    183700   306.20589      17640.31      -36727.369     -36506.485    
    183800   298.51309      12606.944     -36718.093     -36502.759    
    183900   278.80461      16460.24      -36694.535     -36493.418    
    184000   320.8724       20730.94      -36711.177     -36479.713    
    184100   316.77224      18197.402     -36703.672     -36475.167    
    184200   315.48753      10304.633     -36714.252     -36486.673    
    184300   290.00291      16559.22      -36724.165     -36514.969    
    184400   269.11848      9125.7774     -36711.273     -36517.143    
    184500   302.17303      19244.091     -36723.844     -36505.87     
    184600   311.79587      12530.353     -36713.442     -36488.526    
    184700   304.35121      12351.242     -36705.282     -36485.736    
    184800   336.68653      12706.265     -36733.432     -36490.562    
    184900   286.93001      13325.637     -36708.871     -36501.892    
    185000   290.50732      2710.416      -36716.301     -36506.741    
    185100   282.88699      14531.047     -36722.388     -36518.326    
    185200   291.5805       12366.437     -36722.609     -36512.276    
    185300   298.91309      5687.1952     -36702.012     -36486.39     
    185400   319.08853      11128.744     -36712.829     -36482.652    
    185500   299.00898      16805.076     -36716.802     -36501.11     
    185600   280.63938      6933.2404     -36722.299     -36519.858    
    185700   288.81946      15546.668     -36727.305     -36518.963    
    185800   275.51033      14582.979     -36703.763     -36505.022    
    185900   311.9667       13244.224     -36725.363     -36500.324    
    186000   294.22658      11503.738     -36708.427     -36496.185    
    186100   306.33348      21860.268     -36717.883     -36496.908    
    186200   282.28681      11090.287     -36696.114     -36492.485    
    186300   309.71487      15709.73      -36719.413     -36495.998    
    186400   288.16624      21096.038     -36716.01      -36508.139    
    186500   295.48024      12547.354     -36731.932     -36518.786    
    186600   279.50474      10728.922     -36712.695     -36511.073    
    186700   329.89143      14946.05      -36722.422     -36484.453    
    186800   309.18435      6662.4179     -36701.072     -36478.04     
    186900   302.73776      15838.993     -36711.654     -36493.272    
    187000   284.41461      8890.8617     -36716.531     -36511.367    
    187100   289.29719      13980.829     -36732.903     -36524.217    
    187200   264.46386      5313.5068     -36728.479     -36537.707    
    187300   295.36695      16159.023     -36736.891     -36523.827    
    187400   290.68422      10872.102     -36707.524     -36497.837    
    187500   314.41743      15510.718     -36709.726     -36482.919    
    187600   303.3426       20773.66      -36702.383     -36483.565    
    187700   300.96704      9139.3788     -36719.013     -36501.908    
    187800   292.34012      12221.94      -36730.707     -36519.825    
    187900   285.48504      16035.231     -36722.849     -36516.913    
    188000   314.67138      8423.3177     -36729.78      -36502.79     
    188100   301.0893       11748.391     -36712.573     -36495.38     
    188200   301.36714      12572.395     -36703.771     -36486.378    
    188300   315.33141      11222.058     -36701.064     -36473.598    
    188400   313.51363      12014.114     -36691.86      -36465.705    
    188500   304.74075      13963.085     -36710.172     -36490.345    
    188600   306.65522      3625.7146     -36725.211     -36504.004    
    188700   301.00382      13027.311     -36720.817     -36503.686    
    188800   284.7587       15459.137     -36701.256     -36495.844    
    188900   328.70784      5781.7794     -36710.812     -36473.697    
    189000   309.13378      10049.223     -36690.038     -36467.042    
    189100   312.56518      18318.698     -36714.349     -36488.879    
    189200   286.39439      5383.3005     -36718.524     -36511.932    
    189300   303.30441      11726.19      -36730.139     -36511.349    
    189400   296.18357      21025.631     -36708.547     -36494.894    
    189500   311.32895      11224.979     -36704.607     -36480.028    
    189600   315.39359      4680.4665     -36710.497     -36482.986    
    189700   306.07071      15820.567     -36727.69      -36506.904    
    189800   264.71236      9029.8969     -36725.882     -36534.93     
    189900   276.3279       6129.348      -36725.566     -36526.235    
    190000   291.95544      19697.47      -36722.705     -36512.101    
    190100   306.06591      20279.343     -36712.593     -36491.81     
    190200   324.95086      4774.5592     -36714.955     -36480.55     
    190300   303.267        16789.961     -36712.565     -36493.801    
    190400   272.71233      16313.816     -36719.579     -36522.857    
    190500   271.33001      7716.5888     -36717.951     -36522.225    
    190600   285.17933      9064.3741     -36717.603     -36511.887    
    190700   285.64136      17236.069     -36707.723     -36501.674    
    190800   295.28997      9003.691      -36701.629     -36488.62     
    190900   315.1375       13224.45      -36709.77      -36482.444    
    191000   296.84833      7401.0315     -36719.675     -36505.542    
    191100   294.38913      12171.398     -36726.321     -36513.962    
    191200   279.32289      15305.848     -36707.859     -36506.368    
    191300   308.96786      9680.6376     -36713.403     -36490.527    
    191400   321.72395      10141.722     -36719.42      -36487.343    
    191500   275.27142      18295.538     -36709.057     -36510.488    
    191600   292.25169      15307.062     -36735.621     -36524.804    
    191700   255.62456      6389.3109     -36727.742     -36543.346    
    191800   287.06624      16034.117     -36740.191     -36533.114    
    191900   290.98285      17310.126     -36716.3       -36506.398    
    192000   300.91375      4834.1935     -36708.767     -36491.701    
    192100   305.45888      16208.094     -36701.565     -36481.22     
    192200   309.48225      26561.527     -36705.861     -36482.614    
    192300   302.33879      9732.6231     -36727.19      -36509.096    
    192400   263.94789      24396.88      -36714.372     -36523.971    
    192500   292.47787      15045.802     -36722.428     -36511.447    
    192600   298.23455      8905.6493     -36705.155     -36490.022    
    192700   306.48846      17520.264     -36706.626     -36485.539    
    192800   291.73708      14636.799     -36703.853     -36493.407    
    192900   298.78686      7444.7108     -36709.2       -36493.668    
    193000   294.17581      12892.74      -36709.031     -36496.825    
    193100   316.95187      11159.414     -36728.969     -36500.334    
    193200   315.38203      13368.937     -36725.671     -36498.168    
    193300   275.76744      11081.679     -36697.508     -36498.582    
    193400   338.05276      22042.709     -36733.536     -36489.68     
    193500   317.37961      8898.6999     -36702.51      -36473.566    
    193600   313.24438      9820.5971     -36700.95      -36474.989    
    193700   296.80732      11855.143     -36718.883     -36504.779    
    193800   280.88519      10954.201     -36717.485     -36514.867    
    193900   290.55688      6214.4248     -36711.736     -36502.141    
    194000   317.82929      12491.443     -36717.885     -36488.617    
    194100   327.00328      21113.675     -36699.194     -36463.308    
    194200   331.16926      10615.915     -36686.421     -36447.53     
    194300   281.5571       9503.0504     -36693.25      -36490.147    
    194400   287.35122      16237.816     -36715.374     -36508.091    
    194500   294.38108      8365.1968     -36725.043     -36512.69     
    194600   306.14414      10732.917     -36729.585     -36508.746    
    194700   307.52101      17875.79      -36713.118     -36491.286    
    194800   336.62681      10691.635     -36721.835     -36479.007    
    194900   310.57437      10779.273     -36717.374     -36493.339    
    195000   280.22281      21360.212     -36727.312     -36525.171    
    195100   296.94271      4832.4443     -36727.6       -36513.398    
    195200   321.10107      9138.8145     -36730.574     -36498.946    
    195300   297.58672      16722.235     -36703.216     -36488.55     
    195400   308.57923      16285.683     -36699.538     -36476.943    
    195500   322.87927      10014.138     -36682.768     -36449.857    
    195600   319.15899      19646.743     -36697.937     -36467.709    
    195700   298.11733      13421.204     -36709.812     -36494.763    
    195800   303.78985      12058.854     -36723.047     -36503.907    
    195900   306.25915      14549.031     -36728.959     -36508.037    
    196000   306.23351      9710.0537     -36720.896     -36499.993    
    196100   302.29615      14152.465     -36695.274     -36477.211    
    196200   334.22643      7265.0637     -36707.054     -36465.957    
    196300   303.52283      11680.927     -36713.933     -36494.985    
    196400   287.291        11035.743     -36716.151     -36508.912    
    196500   297.64191      16270.476     -36722.049     -36507.343    
    196600   294.45704      9008.4531     -36708.22      -36495.812    
    196700   324.78712      12601.164     -36707.21      -36472.923    
    196800   315.58416      8500.9572     -36690         -36462.351    
    196900   307.754        16823.175     -36722.699     -36500.699    
    197000   288.35742      15144.429     -36718.15      -36510.141    
    197100   296.97004      11758.072     -36717.742     -36503.521    
    197200   321.46755      13172.003     -36718.086     -36486.193    
    197300   293.28383      11188.041     -36702.366     -36490.804    
    197400   270.65824      7989.8396     -36703.775     -36508.534    
    197500   265.32629      7267.5248     -36718.013     -36526.618    
    197600   271.871        10649.408     -36730.464     -36534.348    
    197700   300.84139      11626.25      -36725.105     -36508.092    
    197800   319.18536      5966.01       -36718.522     -36488.275    
    197900   312.3931       18018.512     -36708.52      -36483.174    
    198000   311.898        14457.707     -36710.266     -36485.276    
    198100   290.49913      7478.6557     -36722.654     -36513.101    
    198200   277.70748      11493.706     -36719.842     -36519.516    
    198300   304.91885      13114.47      -36728.628     -36508.673    
    198400   296.0519       10476.044     -36706.005     -36492.446    
    198500   304.55296      12942.064     -36709.177     -36489.486    
    198600   305.3777       17619.553     -36714.466     -36494.18     
    198700   309.64375      10155.344     -36718.879     -36495.516    
    198800   277.41349      13295.631     -36708.018     -36507.904    
    198900   267.1901       17939.013     -36731.282     -36538.543    
    199000   287.00602      17680.721     -36737.103     -36530.07     
    199100   295.57493      12924.798     -36722.431     -36509.217    
    199200   298.96532      11174.183     -36715.975     -36500.314    
    199300   282.64971      17437.104     -36697.14      -36493.249    
    199400   303.26655      7617.5907     -36706.32      -36487.557    
    199500   301.02782      12498.056     -36706.207     -36489.059    
    199600   305.01946      20039.1       -36720.367     -36500.339    
    199700   288.32281      11332.449     -36721.199     -36513.216    
    199800   290.5629       9363.4346     -36725.989     -36516.39     
    199900   297.51549      19299.249     -36712.023     -36497.408    
    200000   304.60255      14913.858     -36695.294     -36475.567    
Loop time of 4146.17 on 8 procs for 200000 steps with 243 atoms

Performance: 2.084 ns/day, 11.517 hours/ns, 48.237 timesteps/s, 11.722 katom-step/s
98.6% CPU use with 4 MPI tasks x 2 OpenMP threads

MPI task timing breakdown:
Section |  min time  |  avg time  |  max time  |%varavg| %total
---------------------------------------------------------------
Pair    | 3264       | 3404.9     | 3580.6     | 208.8 | 82.12
Bond    | 0.27969    | 0.29695    | 0.3074     |   2.0 |  0.01
Neigh   | 0          | 0          | 0          |   0.0 |  0.00
Comm    | 25.061     | 202.2      | 343.59     | 861.7 |  4.88
Output  | 0.52755    | 0.94418    | 2.1807     |  73.5 |  0.02
Modify  | 534.08     | 534.26     | 534.44     |   0.6 | 12.89
Other   |            | 3.579      |            |       |  0.09

Nlocal:          60.75 ave          65 max          58 min
Histogram: 1 0 2 0 0 0 0 0 0 1
Nghost:        3266.25 ave        3272 max        3264 min
Histogram: 2 1 0 0 0 0 0 0 0 1
Neighs:        34259.5 ave       36541 max       32773 min
Histogram: 1 0 2 0 0 0 0 0 0 1

Total # of neighbors = 137038
Ave neighs/atom = 563.94239
Ave special neighs/atom = 0
Neighbor list builds = 0
Dangerous builds = 0
# Save the equilibrated structure
write_data ${structure}_eq.data
write_data 333SiO2-1-UFF_eq.data
System init for write_data ...
WARNING: Compute rdf cutoff less than neighbor cutoff - forcing a needless neighbor list build (src/compute_rdf.cpp:179)
undump dump_eq
unfix myMSD
unfix myRDF
Total wall time: 1:09:08
