LAMMPS data file via write_data, version 2 Aug 2023, timestep = 20000, units = real

331 atoms
4 atom types

0 15.7087 xlo xhi
0 13.0868 ylo yhi
0 17.5248 zlo zhi
-8.2042 -0.1458 -2.0056 xy xz yz

Masses

1 12.0107
2 1.00794
3 15.9994
4 28.0855

Atoms # full

131 2 3 -0.671570847276003 -0.4880436076639368 3.104062319003626 6.871443301204866 1 0 0
18 1 3 -0.6162191655866888 -0.6495704029972708 4.526822283129995 4.448271581561341 0 0 0
328 35 2 0.0840405771769927 -3.2485987643678813 5.193595182401339 7.3751137133375915 0 0 0
16 1 2 0.02249011593904132 -2.7363509156187424 5.506525168409298 1.9277918373786944 0 0 0
2 1 4 0.2522227955237321 -0.20069991642030838 5.0520139393341434 2.9440470322732333 0 0 0
1 1 4 0.5774131002589031 0.04122096691804341 3.3476594687831027 5.329002031890249 0 0 0
285 10 2 0.03511398265990529 0.49577381336445164 4.434356993976228 0.7474724214570774 0 0 0
286 10 2 0.03725724398582572 1.054276810278132 2.986350209088969 1.7414555910810514 0 0 0
170 3 2 0.3088629390512862 -0.3395309059021375 2.062004073412952 7.227051203260858 0 0 0
315 22 2 0.01977539210156024 -0.09310573397612651 1.7993730764958336 3.156605901928062 1 0 0
4 1 1 -0.1031063922128689 -0.1278892073174871 1.5801239466033485 4.214109531659587 0 0 0
316 23 2 0.05952345950860815 0.7204910608934187 1.0223807453138105 4.593489848202525 1 0 0
3 1 1 -0.1037511082399456 2.099073423438388 3.6762271582245214 5.601300298183274 0 0 0
8 1 2 0.02448590177983653 2.2414919656363015 4.554381518376971 5.023090223024228 0 0 0
9 1 2 0.02589657465907402 2.596123008002263 2.7537010040266874 5.2765764667799235 0 0 0
10 1 2 0.09890863602072816 2.1792602115129833 3.84321922643708 6.688613213781406 0 0 0
24 2 4 0.1353758154873467 6.62743472955946 0.9022175980151876 4.391562211293702 0 0 0
47 2 1 -0.1073495594245494 4.006465164783588 0.6223660773518539 6.149656805494711 0 0 0
82 2 2 0.03377283562887481 4.26825121269676 1.4767645135393757 5.572912673398581 0 0 0
83 2 2 0.07081405296533411 3.039662500709101 0.18618132798593123 5.886813318739085 0 0 0
283 10 1 -0.1191778812160885 0.22791405401179887 3.5526081516077017 1.3233677276950004 0 0 0
81 2 2 0.04601738889493229 4.818436886764567 -0.08574807975462939 6.28145364420419 0 0 0
284 10 2 0.02515878487903942 -0.770603376569153 3.1722084277729223 1.2404632347233249 0 0 0
27 2 4 0.7114970427625382 3.7957409973333713 1.307072590311118 8.066027988805532 0 0 0
87 2 2 0.02724906463507877 5.160006202867863 2.6100507426107886 3.1595956604731836 0 0 0
174 3 2 0.0554325645300579 -3.3100123394956094 5.545492917039394 4.082050923520403 0 0 0
320 27 2 0.02602234704310808 4.151994779058135 0.3661048035411165 1.571095127213941 0 1 1
322 29 2 0.02128243435073667 -4.209863549330852 12.182368226041724 0.2947145620814381 0 0 0
49 2 1 -0.09834682376111202 6.1173598392911845 2.2479033578404697 2.84080207184495 0 0 0
88 2 2 0.05461918414825744 6.076557712136493 1.6309864463574788 1.9533103625214117 0 0 0
12 1 2 0.02633329815373656 1.7047097891764649 6.324603460453275 4.033841536384987 0 0 0
282 9 2 0.01725937850353114 3.3180609586954235 1.4918710623949842 2.6767169197214047 1 1 1
185 3 2 0.05280097624654264 0.7793035457331698 6.050340771904965 7.828281717981321 0 0 0
162 3 2 0.01412330283378124 2.6448220359101096 1.5043479807011202 2.7333011804244434 0 1 0
161 3 2 0.3625026811963906 -0.03773932248640374 -0.5337162399173475 7.222437847951865 0 1 0
5 1 1 -0.1151242371603509 1.4090879841470527 6.390573122216045 3.0054587673464987 0 0 0
169 3 2 0.03360178246670421 -5.959398687451914 8.890917666672205 6.697321029175383 0 0 0
175 3 2 0.02843377971599571 -3.997803882340478 7.264951355027833 3.9079172651251897 0 0 0
321 28 2 0.02381888217999384 -2.55011345219844 12.715592506416268 0.8339463553067481 0 0 0
6 1 1 -0.1244989221565817 -1.8581049617081045 6.160908108589428 2.0398318135885147 0 0 0
17 1 2 0.0331185631055038 -1.187529566107737 6.262712438168979 1.2114749284932398 0 0 0
325 32 2 0.04095377856505619 -4.978064696500017 9.344232204066262 0.783881656627777 0 0 0
242 4 3 -0.6795247543995973 2.060188471129148 9.043487967070057 0.5914307339956164 0 0 0
93 2 2 0.02191850743415141 2.886330318783768 6.56621570420581 6.030160481204598 0 0 0
301 15 1 -0.1209807556086168 -4.581950240335054 8.863725356900765 1.665611254820911 0 0 1
158 3 1 -0.08618299097730155 -0.23937698762093407 5.973055496149584 8.09342870657675 0 0 0
15 1 2 0.0262671447772002 -1.8411830102360043 6.798519579819871 2.9118156743776344 0 0 0
98 2 2 0.01720241013283311 4.1971113752974345 5.006017280389482 4.510758424456289 0 0 0
46 2 1 -0.1355147932020161 -3.6136732412029877 12.935707509966027 0.7488249257319658 0 -1 1
57 2 1 -0.08176902165926571 -3.531816232730717 6.103788629097769 7.868807487278299 1 0 0
111 2 2 0.03575308753632958 -4.325859893239168 6.79818098430047 7.594288629368665 1 0 0
199 3 3 -0.7048724260600794 -0.8072969864012349 9.089304461713724 8.211701580203952 0 0 0
312 19 2 0.08920442392653555 -3.940661516467085 9.274845172128527 5.0079224973717045 0 0 0
80 2 2 0.01981199195658379 -3.2427494901543055 12.135930703620765 3.969332053242071 0 -1 0
45 2 1 -0.1078344578644272 -2.2134868966330385 12.01062342907795 4.159694994704174 0 -1 0
78 2 2 0.04249436311765332 -2.0030993122501863 11.501073863794197 5.074664793299303 0 -1 0
79 2 2 0.03459882876958266 -1.5704070533843382 11.726011591820315 3.337499344730634 0 -1 0
143 3 4 0.2532041127060801 -6.182807728885442 10.534581673722673 6.154965763602366 0 0 0
144 3 4 0.2855156952809683 -2.5685447779317028 6.909307539337486 6.078135303750817 0 0 0
146 3 4 0.6196660219301928 -1.2379790745625543 9.378314638300058 6.680527355926043 0 0 0
164 3 2 0.07607326663713934 -1.0959741438260442 6.274868111725809 5.381491410134755 0 0 0
192 3 3 -0.6145188653386833 -2.519976215962459 8.525592471117111 6.099581095533306 0 0 0
193 3 3 -0.6238078932317023 -6.272368808390323 11.525860996612865 7.493324038843608 0 0 0
213 4 1 -0.1131335106900949 -1.4489807446754919 9.564402766170998 1.7225483278338267 0 0 0
227 4 2 0.03899074538540806 -1.659474367228711 10.28465723461399 0.8728178127998827 0 0 0
229 4 2 0.04047502743007125 -0.7751533288329286 8.743048555570333 1.616020455744534 0 0 0
280 9 4 0.2936362889798514 -2.7730285965808434 7.981433376629133 0.9987214580480931 1 0 1
303 15 2 0.02417189344754865 -4.222366493845402 9.552907704217926 2.4293254413268497 0 0 1
228 4 2 0.02404776675679415 -1.816567062455205 9.728986553971435 2.7324535649419293 0 0 0
187 3 2 0.1108907665417818 -0.7046180436462997 5.043577442065106 7.891695197028066 0 0 0
11 1 2 0.1022360071485685 -1.0902649839353153 1.21361312553899 4.528165611154606 0 0 0
154 3 1 -0.09990138218857883 -3.977517908530979 6.306175919662192 4.472007516752227 0 0 0
186 3 2 0.06106626050775971 -0.8516943942775593 6.8586142883278445 7.925199219427628 0 0 0
206 4 4 0.1016535326761163 0.7029721750285066 10.353533705286909 1.690286742122355 0 0 0
215 4 1 -0.1408184939659421 0.4943113846456984 9.390440367375184 5.30853234846558 0 0 0
116 2 3 -0.7211087026043813 2.218988656048799 1.3708588153116423 8.346747943021407 0 0 0
122 2 3 -0.7109308387313967 4.551150876520445 2.702238644248771 8.415277088715651 0 0 0
234 4 2 0.02584448718392023 0.34042182325052933 10.482545986128992 5.417560673667553 0 0 0
235 4 2 0.0233918736148768 1.1988852039902858 8.849564003538259 5.925991993041232 0 0 0
233 4 2 0.01581079354391441 -0.11389252764617455 8.791093003762281 4.62184514735877 0 0 0
14 1 2 0.04406378626681223 2.1091859514997835 5.975382160767748 2.3126751546446056 0 0 0
13 1 2 0.03852033837055477 0.9705471756040912 7.316861498589933 2.6885443454356532 0 0 0
58 2 2 0.04013257968701867 -5.83581535699428 11.822052475567503 3.4369137912777994 -1 -1 1
166 3 2 0.2801029533111442 -5.618902974547338 8.985264989218727 8.744035961334836 0 0 0
149 3 4 0.4264009370017121 -1.5891756617243369 4.477554344537921 12.14634989604515 0 0 0
77 2 2 0.06330573349402635 -0.07846003137291747 1.362961159107591 14.487092034558007 0 0 0
198 3 3 -0.6508586269734215 -1.1512597013455759 4.818522597698399 10.644218928301754 0 0 0
249 5 4 0.2869634810543013 -3.3933756160830724 4.799347840204197 15.938013091495183 1 0 0
253 5 2 0.06344177664690884 -1.0597127555231833 3.5563657919005918 15.984530242297936 1 0 0
250 5 1 -0.1072465741391926 -2.082384025278648 3.189960160994001 15.949580536027778 1 0 0
252 5 2 0.02067894087253783 -2.4603542542804444 2.7424502166408935 16.835953654565728 1 0 0
254 5 2 0.018823084396438 -2.3489372534139727 2.613977017417775 15.02261291488047 1 0 0
44 2 1 -0.06790196087669369 -0.40211639054508785 1.1596137101395527 13.478681539067724 0 0 0
112 2 3 -0.8321525644259706 -0.30456180450313375 0.8703212094166184 9.036011228908212 0 0 0
76 2 2 0.03631519216689932 -1.4887353660185698 1.1327158153879195 13.328312400923576 0 0 0
84 2 2 0.101249921707404 5.673026611729652 0.11080255546120599 9.279601343744575 0 0 0
75 2 2 0.1579945935107786 0.11665536631451771 0.29536273843352157 13.063629261167131 0 0 0
267 7 3 -0.7301341826581158 1.918498055266965 4.228882357529848 16.848633809096725 0 0 -1
266 7 3 -0.6694708828016621 3.632979428747643 0.6512275781054109 17.292300822080367 0 0 -1
126 2 3 -0.6125304638504131 1.1831028415129332 3.9747530428570843 13.512824741766162 0 0 0
23 2 4 0.5858775405378694 0.30246649297077866 2.9110392393753335 12.515344151252028 0 0 0
19 2 4 0.1621051861542132 0.6902428713165846 0.9772099164998145 16.72330148286603 0 0 0
22 2 4 1.268310163986052 1.1795470780662183 0.919857465127357 9.526199634344724 0 0 0
25 2 4 0.7397506992886363 4.653277128629838 -0.5624903340123533 16.82891809589416 0 0 0
29 2 4 0.7627279141120492 2.4726287531367466 -0.6450114870113233 14.741285239164654 0 0 0
263 7 4 0.4516275494419179 2.9854288671501306 1.8346635487887906 16.41589240401604 0 0 -1
113 2 3 -0.7341468418874141 1.7890958324034958 -0.34969786472634734 10.377190281721534 0 0 0
114 2 3 -0.6866692475548392 0.8180423337604293 2.6093614126476115 10.940292749561912 0 0 0
119 2 3 -0.6448907615415078 1.5483917769665274 -1.0594855021899134 13.50637770752395 0 0 0
121 2 3 -0.5818719059573644 1.2927252654458585 -0.962958504276019 16.465836357031908 0 0 0
125 2 3 -0.595094821344259 2.452140894918033 1.3834615999632498 14.355883810488812 0 0 0
171 3 2 0.3428837397520962 0.4963807422617532 3.256852700820491 10.213417209702968 0 0 0
33 2 4 0.3432813322778746 3.8566100632338354 1.513949283863548 13.548915363288065 0 0 0
141 2 3 -0.6793510036997827 5.535715874276304 0.3105818954727042 13.082386689876717 0 0 0
311 18 2 0.2847107274820564 1.448194687368679 3.905582904785007 16.043670253884816 0 0 -1
53 2 1 -0.109663122683067 3.8723656688624453 3.0825151399602264 11.934636812682426 0 0 0
264 7 2 0.2979248140260095 4.960504233930348 -0.1642369084800286 12.374918104511027 0 0 -1
73 2 2 0.2610304138409577 2.079691933214879 -0.9218825841855225 17.120009310438846 1 1 0
86 2 2 0.07556958659805001 4.157802687751469 0.360675647044175 10.304631859977556 0 0 0
66 2 2 0.310494107151763 5.382079555163467 -0.4231305238297127 13.797975081699805 0 0 0
101 2 2 0.03491739785161746 4.143449159795149 4.049363565140967 11.40786344509071 0 0 0
99 2 2 0.08838712864803458 3.293152770488277 2.4160542601638335 11.235083856138653 0 0 0
34 2 4 0.5950201615010592 2.7259784354285608 4.3401945502352 13.217961761642194 0 0 0
48 2 1 -0.05899207015226096 4.608571600650615 -0.03753843773520793 9.397135408957663 0 0 0
43 2 4 0.2611063809151776 5.0043772229109065 2.184431960901204 15.345757968349899 0 0 0
70 2 2 0.2984612913903431 1.5033598625086462 5.123680474887543 17.030113712424185 0 0 -1
120 2 3 -0.6965531755892039 4.267291764443897 -1.5608036757808472 15.052614201156334 0 0 0
272 8 2 0.07346239466960067 1.593154033216652 6.7260332907785205 14.754991135398393 0 0 0
134 2 3 -0.6351016964228624 6.162347627157246 -0.0008490187260976612 16.88697556859208 0 0 0
173 3 2 0.007438962835828976 1.3369343689535902 9.066352890492908 9.92284248853685 0 0 0
329 36 2 0.0697058622715495 -2.9692562630399717 6.269850306445922 8.81369768835724 0 0 0
197 3 3 -0.6124991478948268 -1.2151436336652097 5.72096993036242 13.748909775402094 0 0 0
195 3 3 -0.731774241390265 -5.855737763142635 9.144187871975387 9.686768406232083 0 0 0
62 2 2 0.2500527521798992 -0.8956006076299248 6.514247786406971 13.137546802025446 0 0 0
331 38 3 -0.5724814508146695 -2.8701572316825645 5.9963600988792916 16.940701137140042 0 0 0
319 26 2 0.05799489878431034 -4.285498188324501 7.106075609637571 10.655440452416185 1 0 0
71 2 2 0.2588834092210078 -4.064736586065807 10.566597236977366 12.880273467409795 1 0 0
156 3 1 -0.1142706871309609 -4.229686924469963 7.8272658004100055 11.47887330853465 0 0 0
180 3 2 0.04934275006548945 -3.2069070054711055 7.864937525009651 11.84604933798995 0 0 0
260 6 2 0.2295886934413369 -4.159416840850707 10.581004015315976 15.378551706837605 0 0 0
21 2 4 0.7759639268644623 -6.362936691558028 11.398823595070592 12.002926183854319 0 -1 0
145 3 4 0.4139425936157939 -3.1203924488170953 6.08263581961243 14.10136080839671 0 0 0
148 3 4 0.7100409845319599 -4.451434374219392 9.54287692956869 10.523662779577045 0 0 0
151 3 4 0.999583383648496 -1.6734173747493284 9.71941270737541 9.508914687151817 0 0 0
155 3 1 -0.113985907636115 -3.278763733668984 8.033425428367167 14.580243117362627 0 0 0
165 3 2 0.2423024602698997 -1.0721725678883365 7.337827026550108 12.129073863232932 0 0 0
177 3 2 0.0190734238923643 -3.3331739110293532 8.65640373340279 13.681737412242635 0 0 0
178 3 2 0.04930308941202234 -2.4108748611849005 8.16598143312408 15.202657091175501 0 0 0
179 3 2 0.02873908813398771 -4.197307024133194 8.044078570830116 15.10432415186989 0 0 0
196 3 3 -0.670997354902257 -4.341224219161658 11.006567080107288 11.958073125395018 0 0 0
200 3 3 -0.7390612840240036 -1.2577311060421992 11.281563756755443 9.624604092111618 0 0 0
201 3 3 -0.6842583507686004 -3.334517340867902 9.661100887063162 9.347592744782082 0 0 0
203 3 3 -0.7089077500074172 -0.970273701535708 7.829943987536723 11.158764952602578 0 0 0
181 3 2 0.01647332738919926 -4.966579733348302 7.792704520422215 12.276429807258063 0 0 0
147 3 4 0.8677710363210102 -6.663900475104872 11.113607030270803 9.009411851467592 0 0 0
273 8 2 0.03327626067528274 -0.6650137264330341 9.828322446043222 16.23677362402017 0 0 0
74 2 2 0.08210994997504945 -0.4583893240763909 6.142500836608141 16.45949037553052 0 0 0
204 3 3 -0.6505216010944158 1.402800649116797 7.929093100115204 12.417996756439203 0 0 0
59 2 2 0.07219904912857752 -0.6527915352628999 6.8871134283084245 16.594108519483356 1 0 0
150 3 4 0.7924023915023412 -0.2356943463779896 6.01894374202061 10.196002803634155 0 0 0
188 3 2 0.08194760188212903 -0.8519427295596768 11.014383149523697 12.04842224736583 0 0 0
327 34 2 0.04346954276194512 -0.04365906468694063 10.124501130731959 13.404704173214345 0 -1 0
152 3 4 0.6059933262361896 2.1607809887598557 6.604249719974547 11.8316400868935 0 0 0
153 3 4 0.5238916976910378 0.4328826280236048 8.722046586970867 11.37900514206866 0 0 0
100 2 2 0.03299706075370808 4.891094816199211 2.811894168692736 12.035955158324507 0 0 0
262 6 2 0.09696307264049869 -7.040777534096113 9.912938388923882 15.017640306544818 0 0 0
202 3 3 -0.6656563232010385 1.348883058432669 5.866464501929204 10.629236365746078 0 0 0
159 3 1 -0.09595291460821803 0.06328170854187518 10.499235479942351 12.398640953672766 0 0 0
172 3 2 0.09849855808726089 1.3258164104840877 6.431510780448575 14.4530597258409 0 0 0
85 2 2 0.1030122614091232 -3.9187948406182045 12.03539377055213 9.124626445834732 0 -1 0
32 2 4 0.2910733753896625 5.240725493996341 5.9486314337845165 6.637955871409921 0 0 0
123 2 3 -0.737595171256784 6.788236569576713 2.6498411466832863 7.003992867268497 0 0 0
124 2 3 -0.6350296740801482 5.732784627518373 5.032178887717692 7.952910664016867 0 0 0
52 2 1 -0.09762149138678873 5.218575055578258 4.845785271491167 4.827524167894444 0 0 0
31 2 4 1.012040001667791 5.95046197945437 3.4144748419226065 8.21496839011201 0 0 0
118 2 3 -0.7365900173357273 7.444174816219804 0.0015048069170926492 7.421208865307103 0 0 0
139 2 3 -0.6697559923223949 12.737604607158815 2.4989384010990294 8.654791362931324 0 0 0
89 2 2 0.0479663577339002 6.905236899614778 2.978996354194115 2.94524803248669 0 0 0
97 2 2 0.03684264667795256 5.998803748560828 5.284529418768211 4.213696512083111 0 0 0
278 8 2 0.0430814314910033 6.015227582289091 12.921172779770908 0.33045181866616197 0 0 1
313 20 2 0.01106342644572609 7.104949839131726 4.2615200594370455 0.6279003589449221 0 0 0
7 1 2 0.2483731849044976 2.7685409762043887 8.941978785556673 1.261820006189106 0 0 0
105 2 2 0.01615317868630323 11.572524722579974 3.782339192838462 2.097647955945076 0 0 0
28 2 4 0.9436165046512285 7.885917971988522 1.4652573113592395 6.760343597174602 0 0 0
117 2 3 -0.6289579576883777 8.615756109037179 1.0237817199566965 4.834814450380122 0 0 0
35 2 4 0.7177154735129483 10.272700951734093 3.326611209993816 6.265990558665047 0 0 0
37 2 4 0.9575695754814867 13.085796675747844 2.6068448113535623 6.6672395824789765 0 0 0
40 2 4 0.1335429950246091 9.899869214012625 5.015524420342261 3.7402634211064365 0 0 0
42 2 4 0.266278206039656 10.30675504228697 4.82370022456555 8.205226245651266 0 0 0
55 2 1 -0.1142735395241976 10.571507508723483 3.566642971930121 2.4176115115401347 0 0 0
106 2 2 0.02416131782326715 9.827060900297749 3.830578934372349 1.6981845712812758 0 0 0
107 2 2 0.04863761563175915 10.429939483951241 2.6273137603487897 2.930020037294085 0 0 0
128 2 3 -0.6500089551215102 9.910350875947397 2.035189843990603 7.272386952594923 0 0 0
132 2 3 -0.7201481093778739 11.898208626492252 3.580169444236767 6.085176295927764 0 0 0
133 2 3 -0.7635006411342208 13.018184987015232 1.1267101040380187 5.9589803931757235 0 0 0
137 2 3 -0.5993271684686894 8.72662358203287 4.388813010279992 5.220752112769986 0 0 0
208 4 4 0.9141042979384382 13.369640886515922 -0.3184334850832151 6.639836624437057 0 1 0
323 30 2 0.07654501593089902 8.453160914418113 0.6989939928065201 2.400050995530188 0 0 0
223 4 2 0.09843252822915372 11.333965190258875 0.6106975548980598 5.110689907366213 0 1 0
295 13 1 -0.08323540308077841 9.33698549440962 0.8306540438250913 1.7574880437000988 0 1 0
297 13 2 0.06881281618282485 10.256898605509106 0.704416426673466 2.3149312681107697 0 1 0
129 2 3 -0.7564716716708372 13.115748962263542 -0.35346735972819043 8.304948543332921 0 0 0
220 4 2 0.2715398111530143 8.405597403292983 3.4676096923590913 4.868985093698762 0 1 0
167 3 2 0.2975649479767868 8.789750893543802 0.06081259073734724 4.985671041270115 0 1 0
296 13 2 0.02754788789713352 9.26943841363788 1.6516126693293445 1.0597042410849422 0 1 0
236 4 2 0.01931970567120959 12.98567557625936 0.6344567463969722 2.6797008693203197 0 1 0
277 8 2 0.04332105467999804 5.59108430426261 11.155962487466514 0.018827943370117395 0 0 1
108 2 2 0.09773238964946664 7.982713272520826 5.352332225928592 7.540088013190125 0 0 0
65 2 2 0.0581342742306448 12.58584358860883 2.7853589950369377 3.9335842568476296 0 0 0
300 14 2 0.04313088500171806 1.7743735959263904 11.852933957225213 7.137596780757387 0 0 0
248 4 3 -0.6715936885178151 15.30071541174924 -0.4906947500343991 6.260825276956863 0 1 0
109 2 2 0.03882737758513548 8.782444517996343 6.8109320117501255 8.281818019261951 0 0 0
56 2 1 -0.08439300884002711 8.503488457882634 5.777371351551799 8.373715636203842 0 0 0
95 2 2 0.05985178825213916 3.173794126267862 6.688772360244389 7.855518530676586 0 0 0
96 2 2 0.0856000381850711 5.4816230746045065 3.8252592808965344 5.119011006075586 0 0 0
205 4 4 0.2818430821467351 7.604430392227641 8.627506168927592 3.505405051110256 0 0 0
94 2 2 0.02747610016911959 3.694582269274191 8.029460066862896 6.803480816963597 0 0 0
216 4 1 -0.1064659404763132 4.698883775720244 12.653430989232776 2.702678712414198 0 0 0
292 12 2 0.02913505741510815 4.496680513704749 8.295999672510233 0.3799937003058248 0 0 0
302 15 2 0.01713113051057288 10.440601218059602 8.096225052963357 2.063961111007674 -1 0 1
69 2 2 0.002745351943236319 8.938168551971039 6.078187871449326 2.698576607059596 0 0 0
219 4 2 0.004661720135125644 6.262770369568325 7.601147122943704 3.9434070164223574 0 0 0
324 31 2 0.03846636811382251 1.2636873968563296 10.231328577789466 7.813574790338228 0 -1 0
230 4 2 0.02207753603479647 3.1967711041954425 8.01018904545793 2.7998379326508704 0 0 0
245 4 3 -0.6226491559464814 7.57576949535154 10.126234667698524 4.167688760278783 0 0 0
237 4 2 0.07033333120391283 4.242596464991978 12.261225148873047 1.8065337828221302 0 0 0
298 14 1 -0.1256015208137786 1.5609441611997936 11.244670084932777 8.025507300450235 0 0 0
317 24 2 0.03024662936634707 8.49001271272875 8.885975811562338 1.125551421628959 -1 0 0
268 8 4 0.287574330980472 1.2625956696785876 12.28471976347543 0.485129074548229 0 0 1
207 4 4 0.2887327096391205 1.837714462853864 10.124753567063252 3.6175180663689184 0 0 0
232 4 2 0.04810160827729192 4.21682273299528 9.458658938399967 2.8899892407616483 0 0 0
238 4 2 0.06975694507321682 5.593620106642612 12.15013333257981 3.0540711627224426 0 0 0
61 2 2 0.07117057578385153 6.450852608779748 7.248118760232342 6.468499848046024 0 0 0
209 4 4 0.6109518712996718 3.420211625687014 12.233561775325988 4.226064559648208 0 0 0
210 4 4 0.6527906096825218 6.629843645898006 9.593996076786636 8.394972800438085 0 0 0
222 4 2 0.2357237222318244 3.510535140721263 10.74849018529889 5.931767512058917 0 0 0
243 4 3 -0.6251671288199334 2.0169598000548854 11.722577509965191 3.7026342253532825 0 0 0
246 4 3 -0.6953091313861475 4.208207657123895 11.267675763357902 5.318003094160328 0 0 0
247 4 3 -0.687807002078373 6.907313375725721 9.387300123115555 6.821724921604084 0 0 0
214 4 1 -0.1122465369711524 3.490662182751678 8.841309053826125 3.3897469833168348 0 0 0
231 4 2 0.04231168379629036 3.78895536996026 8.58273844934838 4.395477367293138 0 0 0
211 4 4 0.7982579779551292 7.221706244017515 10.590958418579802 5.700484953708804 0 0 0
225 4 2 0.04759373944500152 6.884534689293564 9.579283341829226 1.1437061408936573 0 0 0
212 4 1 -0.1141482129145864 7.479709853453687 8.76815676430204 1.4583936488473699 0 0 0
226 4 2 0.01856398722047376 7.0570377459567055 7.818915034320373 1.137082940752273 0 0 0
240 4 2 0.01917760898515558 4.0993416125836895 9.178923773691592 8.18865102872682 0 0 0
218 4 2 0.004046944685822387 9.11305926674102 7.852294366809806 3.8365851317674906 0 0 0
176 3 2 0.04745153251726894 11.070066397868848 6.193598514444686 5.34838774364939 -1 0 0
51 2 1 -0.1163437984288719 3.4506866378013177 6.9764778351782475 6.865138865998923 0 0 0
67 2 2 0.06029395174396964 4.7782901654280066 5.102496538327372 0.724723157626108 0 0 1
265 7 2 0.01995959087140189 5.230030850969205 5.275158162462834 1.441634733312175 0 0 0
279 8 3 -0.5782408596618326 2.7366699340062417 11.820753296119126 0.041592565012288085 0 0 1
72 2 2 0.06908758213472285 13.132456729090627 3.2404743612476152 3.9289958467768713 0 0 0
163 3 2 0.3091360067754741 2.479307804896386 9.74635346611779 0.07546197792983031 0 0 0
91 2 2 0.07490575934549397 6.738542574304173 2.0238109641339532 10.334764937757258 0 0 0
38 2 4 0.3128425381414431 6.8715700845893295 1.4295386162140074 16.655376546008377 0 0 0
50 2 1 -0.1051709134614787 7.162630128248121 2.976006555626964 10.002427841722364 0 0 0
92 2 2 0.01955882413785327 6.94447061231814 3.7743185948081512 10.688628519674937 0 0 0
142 2 3 -0.6254707721540165 5.106367814544717 3.7232378747353927 15.907244011434996 0 0 0
30 2 4 0.7199427103864439 3.8000447855424824 4.736294043881801 15.892493515256703 0 0 0
103 2 2 0.07344374807930321 7.905927253662508 0.5820228798786904 14.627574491466879 0 0 0
90 2 2 0.0869518465264634 8.154087769456483 2.88651526510217 9.574315985204953 0 0 0
20 2 4 1.209393541312987 13.806133517956527 0.7343483183119281 9.339839953750406 0 0 0
36 2 4 0.7808480618069369 9.70646549990882 0.7464347863066427 10.721683936672482 0 0 0
39 2 4 0.6468941130142613 12.217590720845674 -0.3752480549832621 11.674930924368077 0 0 0
54 2 1 -0.1015959723143641 8.355133814644617 1.2966475654356118 15.298463029557512 0 0 0
68 2 2 -0.005681081951063413 11.847589702338016 0.22754138442425487 13.223965205240123 0 0 0
102 2 2 0.03919480625048344 8.442506436185116 2.2745958098413905 14.81332892791195 0 0 0
104 2 2 0.02370668542568548 9.219543915125701 0.981900887645393 15.845586702961295 0 0 0
130 2 3 -0.7313187957983076 8.446933390203275 0.4226104815275107 9.77157631964037 0 0 0
135 2 3 -0.724321247870501 13.402909352702252 0.5168610888533924 10.927387076447836 0 0 0
136 2 3 -0.7107753697071582 10.790379927897105 -0.44845518129167805 10.983430918943105 0 0 0
138 2 3 -0.7170592546842611 9.735681188505927 2.3289191598406265 12.043098533154158 0 0 0
41 2 4 0.7332051976147028 11.121912973655546 2.2376131292504273 8.959392380176373 0 0 0
140 2 3 -0.6071293399626776 10.47389403105341 3.650488820096667 9.397358872648564 0 0 0
60 2 2 0.2792048352947828 9.634990238811582 3.163042336894504 11.493080755521042 -1 0 0
63 2 2 0.2512544461954062 8.789400137598058 2.3837104826651068 12.380855019792172 0 0 0
304 16 1 -0.1340622944195317 11.667027872756643 -0.38612990000653746 16.663132602341776 0 0 -1
184 3 2 0.0769822837851305 12.042688424844252 3.3783672402862974 13.043656105005528 -1 0 0
183 3 2 0.1193551214063346 11.70836585550297 4.212445555541976 11.41780257567496 -1 0 0
255 5 2 0.06333184837901695 10.20212480141999 3.964894498619778 15.168598202066102 0 0 0
251 5 1 -0.1134841269417109 10.426363866232277 4.1603223342366 16.18826423206447 0 0 0
306 16 2 0.01989487611227062 11.67390400240249 -0.1362305230724723 15.606217050113562 0 0 -1
256 5 2 0.03500253175834323 9.879522406616573 5.021167095718788 16.547518301771202 0 0 0
257 5 2 0.01688191814470998 10.432502540616392 3.316893397045825 16.845103658985636 0 0 0
157 3 1 -0.04516395896972746 12.331499683244513 3.52525127148777 11.992302854084317 -1 0 0
305 16 2 0.02227802908856666 12.59393166403335 -0.22804944193835341 17.217492414170817 0 0 -1
182 3 2 0.08807250152928002 12.631736843461283 2.6288975646400483 11.479393542943896 -1 0 0
26 2 4 1.010563333958066 7.980177770034645 -0.7617360869448289 8.792330804271833 0 0 0
281 9 2 0.02866168312510546 8.000172128132368 4.614274594052985 14.918835349578194 0 0 0
64 2 2 0.04455218653272307 7.052152171496907 4.8357420328714245 14.091062404839942 0 0 0
309 17 2 0.03591028844794469 4.27326706488931 10.05681186995529 14.286051046386257 0 -1 0
224 4 2 0.005475071902725314 7.260074388293995 8.239345259840611 9.222542642550126 0 0 0
194 3 3 -0.6496033214547052 11.187232781210982 5.444224075071112 13.487935804565883 -1 0 0
217 4 1 -0.1190074230239779 4.6397916446818765 9.752157213773328 8.91750200780875 0 0 0
239 4 2 0.01723535510695859 4.617908705055685 9.406113663985385 9.928622915874339 0 0 0
294 12 2 0.04469366998314615 5.588008662285656 6.313569195781467 16.518680371793756 0 0 -1
270 8 1 -0.1051598053592773 -0.10265075266859511 10.734691682559838 16.38770448491284 0 0 0
271 8 1 -0.100219832690995 5.586699614033122 10.14835729534132 17.15766241790864 0 0 0
290 11 2 0.03341399197710559 7.037031197649788 7.286573672852036 11.462656633564269 0 0 0
330 37 2 0.02525303333946721 10.79431274127973 -0.13304583820785565 17.22091231885599 0 1 -1
276 8 2 0.05815819985449774 6.190609627418642 10.193579481892018 16.267561833395074 0 0 0
299 14 2 0.06373276983713945 2.24776701485847 11.327792059395616 8.829368424316726 0 0 0
293 12 2 0.04604930201218592 3.9914768890133425 7.058034003395081 16.29538186617654 0 0 -1
244 4 3 -0.6815504488968483 7.431463965510254 10.856274010709905 8.956426584283452 0 0 0
241 4 2 0.1141958590430055 4.4872434770762935 10.819664700310899 8.846483038494796 0 0 0
310 17 2 0.02782490037621391 2.6845687927196535 10.960265905025011 14.15660064755394 0 -1 0
308 17 2 0.06966205176478896 2.7428502024836154 9.21055810785949 14.627164046655071 0 -1 0
307 17 1 -0.1060170595719875 3.2627304323984374 10.13968689354282 14.616316411024103 0 -1 0
269 8 4 0.2920875167699092 3.630618172872892 10.590765928707267 16.644616063506774 0 0 0
160 3 1 -0.1134496309708678 3.981468576120629 7.133133726806967 10.982504522306655 0 0 0
189 3 2 0.03225787994553105 4.075373886710864 8.173964764794198 11.2729716668876 0 0 0
190 3 2 0.05600550717702915 3.8863263963959684 7.02047220369699 9.897267187336842 0 0 0
191 3 2 0.03383913988080937 4.731272859573591 6.5193368760512564 11.495677068429076 0 0 0
314 21 2 0.01435321656786743 4.4972609763719955 11.11010970153021 11.8734090225058 0 0 0
291 12 1 -0.1074495574080484 4.5787414211431585 6.364229828812076 16.849752926696304 0 0 -1
115 2 3 -0.571024342182076 7.5537572848537815 10.557770720030089 12.083451193243658 -1 -1 0
168 3 2 0.2841787109890068 7.326962615488977 10.372435777969645 11.09025754358842 -1 0 0
274 8 2 0.03823147576131839 0.5935125941371742 10.95489346130983 15.57894776244288 0 0 0
221 4 2 0.2538718640901416 10.508521533582451 6.108221602085677 13.50377701817165 0 0 -1
259 6 1 -0.08135820110749448 8.319450674622127 8.88399691157402 14.900680517321613 -1 0 0
258 6 4 0.09919182360433271 8.57257174424249 8.852122414882215 12.826222178564436 -1 0 0
289 11 2 0.06976925998605849 8.756439004898759 7.441724561786169 10.834519867026259 0 0 0
261 6 2 0.04557707124650029 7.260050600883793 8.655168645070594 15.083225963036847 -1 0 0
288 11 2 0.02533084609878693 8.38658786652106 6.342520804781444 12.219418422058531 0 0 0
110 2 2 0.04671148994128978 7.99798585828858 5.621892522115306 9.330636869295025 0 0 0
287 11 1 -0.102683367670782 8.091993046051678 7.202880902079292 11.64259747080144 0 0 0
326 33 2 0.06470041945882131 0.9869116437772515 11.0330289958072 12.215182701401302 0 -1 0
318 25 2 0.02307233979317638 9.013473188481612 8.15639549339352 15.289106693977127 0 0 0
127 2 3 -0.6695769609151131 3.605806430996977 5.19640470330069 14.341795701832673 0 0 0
275 8 2 0.09406250009369782 7.490377690153061 -1.486375562170844 16.67342704585897 0 1 0

Velocities

131 -0.0016088086323414877 -0.0011218331471674863 -0.002016586819319113
18 0.0014918001145248945 0.00396339253794327 -0.0019797105181228888