ITEM: TIMESTEP
0
ITEM: NUMBER OF ATOMS
373
ITEM: BOX BOUNDS xy xz yz pp pp pp
-1.0794400000000000e+01 2.0438599999999997e+01 -1.0794400000000000e+01
-3.3740059999999996e+00 1.4198074999999999e+01 1.3894000000000000e+00
0.0000000000000000e+00 1.7550000000000001e+01 -3.3740059999999996e+00
ITEM: ATOMS id type x y z
3 4 4.94883 1.07545 2.67411
4 4 7.39982 -1.20343 6.45737
5 4 6.06934 1.60743 5.46969
7 4 4.14797 4.10001 2.00439
9 4 4.66214 3.34509 7.66585
10 4 3.33151 5.68537 6.25238
33 3 6.17644 0.469248 1.81394
34 2 3.67443 0.114447 2.45231
118 2 2.26256 3.73991 0.201679
36 3 5.25302 1.10508 4.21531
37 3 6.97276 0.285236 5.98802
41 3 4.58278 2.55325 2.13211
42 1 2.97316 4.56182 0.622738
43 2 2.44378 4.3458 2.50569
359 2 -0.562759 5.30318 7.44278
46 3 5.26767 2.34358 6.59723
47 2 1.68106 5.5957 5.65803
48 3 3.55792 4.36369 7.13521
62 3 5.14704 5.2799 2.51005
323 2 -2.52172 3.2557 5.08409
287 2 5.66504 2.39267 0.266414
356 1 -0.886437 5.17245 8.58779
321 1 -3.32348 4.02051 4.7041
178 4 1.47274 0.00443145 6.69485
179 4 -0.215895 1.94621 8.61459
181 1 1.82776 0.666514 5.0684
182 3 -1.7165 1.88768 8.12637
183 3 0.637715 1.11418 7.56129
189 2 0.199143 3.51756 8.43378
190 2 1.04878 0.200682 4.41931
191 2 2.90003 0.358186 4.84663
192 2 1.78285 1.88436 5.03772
199 4 -0.639593 4.26528 1.12372
200 4 -1.80843 5.2565 4.13657
329 1 8.85597 -0.235666 2.72821
203 1 -0.286257 2.41826 0.840246
205 3 -1.28351 4.7418 2.57292
210 2 -1.03145 1.62952 1.11875
211 2 0.640794 2.43852 1.57733
328 2 -0.625564 4.30072 5.98972
320 2 2.81743 -0.527576 7.57561
63 3 4.45837 5.9138 5.10405
330 2 8.65765 0.731764 3.24456
325 1 -0.215765 5.12907 5.32609
365 2 9.14584 -1.15707 6.23746
327 2 0.503086 4.77342 4.48835
214 2 -2.33717 5.74612 0.476127
184 2 -3.16597 3.6538 6.59544
117 2 2.4879 5.57437 0.68794
227 2 -5.18858 6.86687 0.0582414
202 2 0.0984122 5.64309 0.144847
2 4 4.56125 -0.879554 11.0182
6 4 4.82094 -0.00232437 14.0395
12 4 4.58696 4.66599 11.9886
32 1 6.05749 0.0945073 10.4418
38 3 4.3467 -0.504362 12.5501
39 3 5.37393 -1.33498 15.2225
40 1 3.36645 0.893764 14.7923
50 3 6.15871 1.12766 13.7945
52 1 3.03426 3.59018 11.4134
111 2 6.31548 0.965071 11.0749
112 2 5.93196 0.355723 9.28722
113 2 6.79134 -0.846982 10.5937
114 2 2.67035 1.02843 13.8741
115 2 3.73797 1.8837 15.2491
116 2 2.94043 0.16565 15.5352
129 2 2.86131 3.87419 10.3275
130 2 2.1342 3.84571 12.0576
131 2 3.39255 2.51158 11.5096
180 4 0.105559 1.28251 11.7961
185 2 1.75955 0.740851 12.0824
186 3 -0.0688637 1.57437 10.1747
188 1 -0.262549 2.92966 12.869
196 2 -0.163537 3.85095 12.257
197 2 0.525427 2.74618 13.6664
198 2 -1.36017 2.76619 13.3052
204 1 -0.284512 1.90954 17.2139
213 2 -0.414101 2.51639 16.2799
53 3 5.69733 3.59358 12.6211
215 2 -0.66498 0.738784 16.9756
285 2 8.16495 -0.445626 16.3634
279 4 6.50104 -2.26451 15.724
351 2 7.19698 -1.8239 13.2038
281 1 7.73835 -1.30513 16.9263
45 2 3.9176 2.37536 8.78376
286 2 8.52292 -2.12377 17.2248
212 2 1.3283 -0.959578 17.2795
339 2 4.11829 0.342062 9.98182
11 4 6.5042 2.67941 13.8134
350 2 8.5343 -2.66781 14.2653
357 2 -1.71782 4.26884 8.91257
119 2 5.42405 1.2202 17.3399
358 2 -0.0537482 5.31108 9.25813
276 2 10.036 -2.24075 11.9672
1 4 -3.41216 13.5772 1.62746
13 4 2.17902 9.1391 3.20593
31 1 -4.38728 11.8754 2.04968
49 1 3.12035 7.10065 7.50433
55 1 1.71736 7.53224 4.04157
56 3 2.33806 9.10475 1.6267
57 2 0.445838 9.11378 3.68264
248 2 -5.28441 10.6157 8.68199
60 1 -0.0234996 9.43982 7.64748
297 2 -1.62029 7.22886 6.8855
108 2 -3.85801 11.3052 2.88216
109 2 -4.37772 11.2583 1.11284
110 2 -5.37255 12.2258 2.32884
124 2 3.33394 6.56005 8.46396
125 2 2.0403 7.41003 7.44175
135 2 2.97833 7.20117 3.94004
136 2 1.11726 6.86672 3.27865
137 2 1.38041 7.29442 5.06589
326 2 -0.0354986 6.15741 5.7879
142 2 -0.705099 11.5821 5.66375
144 2 -0.958397 9.64837 7.00781
353 2 -5.08881 11.3762 5.92709
146 2 0.59345 8.51803 7.29903
201 4 -2.83203 8.38475 3.99016
206 1 -2.37148 9.16897 2.27444
207 3 -2.30784 6.90343 4.08219
208 1 -4.64843 8.50869 4.5827
209 2 -2.46857 9.29153 5.42845
216 2 -1.85234 8.40053 1.62607
217 2 -1.57511 9.85002 2.7515
218 2 -3.08748 9.75133 1.66381
219 2 -5.04557 8.75096 3.49816
220 2 -4.64113 9.4524 5.22917
221 2 -5.03248 7.55264 5.01558
120 2 0.624968 7.64786 0.229518
296 2 -3.48445 7.86264 6.66975
332 2 -1.99915 13.077 3.44169
360 2 -4.05337 6.4747 8.12153
352 1 -4.08518 11.7753 5.2318
249 2 -6.44927 9.20347 8.09314
354 2 -3.22835 10.9994 5.29798
355 2 -4.38187 12.0426 4.23458
290 1 -2.71088 7.67643 7.42286
295 2 -2.47357 8.63109 8.14024
8 4 2.58901 9.00557 0.0134588
282 2 -6.06311 13.9002 0.0234273
35 2 -3.91845 12.6096 7.96927
167 2 -6.48574 8.65098 13.3875
44 1 2.35215 4.93038 16.8624
54 1 4.016 5.97554 13.2942
74 1 -4.13419 6.85405 15.0045
338 2 -1.28395 10.1432 14.7119
122 2 1.60857 5.75615 16.6351
247 2 -5.17611 8.81897 9.51083
134 2 2.89255 5.94583 13.078
162 2 -3.14216 6.49378 14.631
163 2 -4.21532 6.89623 16.1831
164 2 -4.44458 7.81204 14.4877
257 2 -8.66263 10.6036 16.4563
133 2 4.24161 5.62 14.3408
165 2 -7.98742 9.26633 14.3276
231 4 -0.596524 9.4465 16.2147
232 1 -0.149804 7.66474 16.5159
233 3 -1.32438 10.041 17.4577
235 2 0.954213 7.61533 16.6694
238 4 -6.79518 10.1296 10.4417
243 1 -5.8389 9.66158 8.95177
241 2 -6.50584 9.0817 11.7796
242 3 -6.47577 11.6714 10.6303
280 1 -5.02301 10.3122 16.455
236 2 -0.514759 7.28895 15.415
283 2 -4.48627 9.39436 15.9763
234 2 -0.713929 7.09744 17.2916
145 2 -0.158174 9.56631 8.79065
284 2 -6.14395 10.2729 16.3334
288 4 -2.39061 6.4043 8.85972
289 4 -2.25335 8.21756 11.731
291 1 -1.6678 10.0766 11.5831
292 3 -2.25204 7.25431 10.2713
293 1 -1.31582 7.29025 13.0671
294 2 -3.90374 8.3386 12.3403
298 2 -2.12126 10.1573 10.4995
299 2 -0.571409 10.2001 11.687
300 2 -2.27981 10.5919 12.4814
301 2 -0.781543 6.39268 12.644
302 2 -1.88918 6.88741 13.9726
303 2 -0.586492 8.11291 13.3861
161 2 -3.76583 4.86959 13.1318
121 2 2.63687 4.30954 15.9618
349 2 -3.6668 10.5171 13.5687
348 1 -3.31983 11.5147 13.94
15 4 5.7064 6.20145 4.13164
16 4 7.30088 6.82063 0.672529
17 4 9.97949 3.8398 7.28879
342 2 14.0911 3.0469 1.6751
61 2 7.12622 2.73007 4.92032
64 2 6.09265 5.70243 1.31417
65 1 8.92849 2.56705 8.4967
66 1 11.1489 2.82955 6.0438
67 1 11.1323 4.79514 8.52913
68 3 5.83193 4.1787 8.41593
71 3 6.916 5.38391 4.76838
72 3 9.15517 4.9106 6.37834
258 2 18.9119 0.0391751 0.391403
141 2 10.6663 -0.840536 6.26668
147 2 9.08687 1.54294 7.9544
148 2 7.84993 2.99283 8.48572
150 2 11.9981 2.53934 6.72635
151 2 11.4548 3.48347 5.18319
152 2 10.5289 1.92392 5.76063
138 2 11.2752 -1.18101 8.72171
157 2 10.1307 6.11312 4.00214
177 4 15.8634 2.02125 7.46369
341 2 15.0375 1.45364 1.14702
223 1 13.0478 6.56895 0.802867
225 2 12.146 5.32609 0.345724
344 1 11.5788 0.0548466 0.94527
372 2 16.5826 -0.523998 4.1653
259 4 12.6948 1.82877 0.385594
262 2 11.4181 1.61978 1.67793
304 4 15.1134 -0.165098 5.02602
305 1 15.2779 0.714193 3.33989
306 3 15.3967 0.889932 6.23565
307 2 14.0776 1.15775 3.53942
308 2 15.3546 -0.014947 2.45697
309 2 16.1062 1.48292 3.56899
370 3 8.46117 6.09835 0.394996
322 2 14.9635 4.4941 5.3343
324 2 15.3916 3.73554 3.63196
331 2 9.94803 -0.197738 2.07381
340 1 14.4599 2.28161 0.782449
317 2 14.2829 3.29335 8.33011
154 2 11.5188 5.58741 7.78094
343 2 16.2245 -0.534607 17.4642
51 1 8.3889 2.7777 13.361
155 2 11.97 4.09296 8.88055
73 1 14.366 4.30135 13.5758
76 3 6.3756 3.31581 15.3356
126 2 8.32116 3.20111 12.2864
127 2 8.76885 1.70723 13.3672
128 2 8.94399 3.48613 14.1065
149 2 9.47427 2.62657 9.47816
160 2 14.6187 3.23667 14.0194
256 2 19.3763 -2.83108 16.2978
169 2 8.36184 4.23598 9.50172
187 1 17.763 -0.0118855 12.1934
193 2 16.8412 0.117816 11.6366
194 2 17.7002 0.0538824 13.3107
195 2 18.4155 -0.936393 11.8522
318 2 15.1667 2.33984 9.81069
260 4 13.3679 0.214213 15.2525
261 4 12.4228 -1.22594 12.2744
263 3 13.6756 -0.819901 16.5941
264 1 14.9374 1.35212 14.7155
265 1 12.0243 1.42127 15.6518
266 3 12.8862 -0.554149 13.865
268 2 12.7134 -0.0961667 10.9988
269 1 10.6119 -1.29066 12.1659
270 2 14.9069 1.60829 13.656
271 2 15.8706 0.728327 15.0001
272 2 14.7866 2.22962 15.4179
273 2 11.5626 1.39283 16.6925
274 2 11.254 1.30009 14.7799
275 2 12.6394 2.3815 15.4917
159 2 13.4511 4.31169 12.9204
277 2 10.4319 -0.452207 11.3724
278 2 10.2721 -0.850406 13.2361
153 2 10.5127 5.23888 9.36733
311 2 15.9364 -1.75175 14.0171
312 1 18.1816 -1.47358 15.4503
139 2 13.0681 -1.70379 9.14739
314 2 18.0729 -1.60388 16.6041
315 2 17.6768 -0.480043 15.0671
316 1 14.578 2.26578 8.82866
319 2 13.7485 1.58306 8.9746
313 2 19.204 -1.59247 15.1117
336 2 10.9419 -2.7495 14.3386
14 4 1.01297 11.0614 7.40486
23 4 6.71869 8.89949 2.87477
24 4 3.52871 11.1778 5.42442
25 4 5.31874 11.2551 1.7763
26 4 7.32777 8.01902 7.95893
28 4 6.13287 10.9239 6.74274
229 2 9.52074 11.8057 4.20801
70 1 9.47969 6.98744 4.35334
83 3 6.00846 7.72639 3.78967
84 3 7.93062 8.05646 2.04349
85 3 7.7997 9.76596 3.83989
86 3 3.03661 10.2013 4.06916
87 3 3.39002 12.7185 5.18064
88 3 2.53018 10.715 6.86728
89 3 5.73648 9.81724 2.10121
90 2 4.9066 12.1095 3.16119
92 3 8.06297 7.38466 6.64034
371 3 6.36621 12.0129 0.837921
97 3 7.54145 11.7889 5.8624
98 3 5.03393 10.7015 5.58553
99 3 6.56835 9.5009 7.57454
100 2 5.54992 12.0083 7.9013
91 3 6.17163 6.94232 8.53339
143 2 0.93462 12.2848 5.11235
255 2 8.75684 10.6911 0.815764
156 2 8.8265 7.46089 3.41601
158 2 10.0465 7.7357 4.98189
222 4 11.6067 7.24967 0.185385
224 2 10.1127 7.63185 0.908114
228 4 8.49817 10.6815 4.8987
373 2 3.81499 11.1347 0.973807
230 2 9.74911 9.71707 5.79988
59 1 0.140337 12.2796 5.90893
19 4 8.33604 6.14217 5.6324
346 2 0.915158 13.5983 1.80336
244 2 8.34716 11.0198 8.36124
337 2 8.81397 12.8091 6.61077
123 2 3.93656 7.90165 7.23432
364 2 2.25808 11.7787 0.170669
345 2 -0.0977194 14.0146 0.369452
226 2 13.0314 7.03748 1.92809
347 2 2.05817 13.9155 0.0421567
18 4 6.23312 5.53257 9.37896
20 4 13.5789 5.44378 14.9296
21 4 6.67955 4.7646 16.0559
22 4 10.8564 6.71352 13.3641
27 4 4.71897 9.33099 10.3852
29 4 7.81788 7.08862 14.4145
30 4 7.13093 9.24895 12.5088
69 3 5.21923 5.51715 10.6903
75 3 13.3744 4.57352 16.3745
77 3 8.00997 4.39171 16.9608
78 3 5.35496 5.10979 16.9757
79 1 11.4468 8.6622 13.478
58 1 1.20103 12.1698 9.03595
81 1 11.018 6.00198 11.6253
82 3 12.2174 6.03584 14.208
253 2 11.0181 8.33283 17.0938
333 1 0.576346 10.6598 15.0176
95 1 2.91177 9.80496 10.884
96 2 3.57546 8.01151 10.7151
101 3 6.8908 5.87999 14.9339
102 3 9.34667 6.57865 14.0041
103 3 8.07458 8.31052 15.6593
104 3 8.41701 9.40829 11.6401
105 3 5.85724 9.6186 11.4831
106 3 6.95592 7.68768 13.1683
107 3 6.9495 10.384 13.675
166 2 10.8678 8.98756 12.5253
140 2 0.816835 11.5912 9.89524
246 2 7.11476 10.9581 9.81856
366 1 5.3314 10.2325 16.1598
245 2 8.54359 11.9982 9.99678
334 2 1.33843 10.0025 14.5423
168 2 8.55341 6.26033 9.66741
252 1 9.36002 10.6495 16.8955
171 2 11.9752 5.44352 11.4844
172 2 10.9283 7.13871 11.1075
173 2 10.0859 5.34995 11.4308
175 2 3.47141 11.0474 10.2746
237 4 9.08703 9.47205 10.1164
239 1 8.18415 11.086 9.47628
176 2 2.87459 9.75764 12.0377
250 4 8.7305 8.6696 17.0049
251 1 10.2122 7.51738 17.3001
254 2 10.2943 6.625 16.6187
267 2 2.42459 11.5221 11.7936
367 2 5.32341 9.12556 15.8767
335 2 0.95991 11.1147 16.0282
361 1 3.94185 7.60555 16.9785
368 2 4.36327 10.7149 16.2338
363 2 4.96324 7.7802 16.5877
93 3 8.472 8.28233 9.21501
362 2 3.15406 7.23995 16.1172
240 3 10.7091 9.73963 10.0821
174 2 2.00706 9.56829 10.3123
132 2 4.59084 6.90164 13.0155
94 2 5.29111 9.61904 8.79855
170 2 7.89656 5.27547 11.1746
80 1 8.02944 5.29166 10.0468
369 2 6.02846 10.4589 17.0114
310 4 6.23332 11.3409 14.7767
ITEM: TIMESTEP
100
ITEM: NUMBER OF ATOMS
373
ITEM: BOX BOUNDS xy xz yz pp pp pp
-1.0794400000000000e+01 2.0438599999999997e+01 -1.0794400000000000e+01
-3.3740059999999996e+00 1.4198074999999999e+01 1.3894000000000000e+00
0.0000000000000000e+00 1.7550000000000001e+01 -3.3740059999999996e+00
ITEM: ATOMS id type x y z
3 4 4.95366 1.15177 2.74187
4 4 7.49785 -1.09407 6.42681
5 4 6.00904 1.55576 5.48022
7 4 4.18947 4.05758 2.14113
9 4 4.75852 3.30934 7.68427
10 4 3.36577 5.76995 6.37301
33 3 6.32585 0.530583 2.09619
34 2 3.65612 0.136451 2.36527
118 2 2.32276 3.52981 0.379501
36 3 4.9781 1.2125 4.33922
37 3 6.80217 0.217608 5.97089
41 3 4.58852 2.57999 2.22141
42 1 3.0041 4.42292 0.692604
43 2 2.45685 4.46317 2.5444
359 2 -0.619926 5.1345 7.21729
46 3 5.34326 2.31979 6.63917
47 2 1.71251 5.73097 5.8244
48 3 3.64865 4.34662 7.11579
62 3 5.21099 5.22268 2.56947
117 2 2.48252 5.38914 0.88912
287 2 5.88667 2.12697 0.348732
356 1 -0.796117 5.28637 8.42169
321 1 -3.30255 4.13504 4.56353
178 4 1.58515 0.0800186 6.80978
179 4 -0.301169 2.01368 8.64465
181 1 1.77428 0.788017 5.17455
182 3 -1.80427 1.96484 8.20369
183 3 0.672069 1.09106 7.77874
189 2 0.193107 3.59227 8.4895
190 2 1.30856 0.0574608 4.44106
191 2 2.9193 0.8361 5.05021
192 2 1.26728 1.85743 5.09724
199 4 -0.7192 4.35298 1.1026
200 4 -1.68686 5.212 4.08037
329 1 8.90778 -0.241681 2.70906
203 1 -0.330609 2.51675 0.970063
205 3 -1.19832 4.72146 2.62553
210 2 -0.618933 1.80759 1.79252
211 2 0.913286 2.83709 0.950419
328 2 -0.65322 4.12556 5.70733
320 2 3.04078 -0.408214 7.54722
63 3 4.461 6.07749 5.20513
330 2 8.56125 0.603081 3.39251
325 1 -0.100297 5.14019 5.2001
35 2 7.64324 -1.41197 8.15105
327 2 0.717566 4.96299 4.39765
202 2 0.0719025 5.65416 0.257747
365 2 9.28907 -0.910982 6.30913
322 2 -3.9135 4.69121 5.33093
184 2 -3.17468 3.7069 6.53279
61 2 7.17267 2.54378 4.85074
2 4 4.61685 -1.00263 11.0535
6 4 4.83036 -0.0205691 14.0192
12 4 4.6119 4.66231 12.0329
32 1 6.0775 -0.149679 10.14
38 3 4.25299 -0.592858 12.548
39 3 5.36714 -1.32908 15.2743
40 1 3.41461 0.917778 14.8368
50 3 6.00289 1.03696 13.7609
52 1 2.99488 3.83275 11.4297
111 2 6.17169 0.932979 10.5381
112 2 6.15303 -0.212712 9.05797
113 2 6.87738 -0.958195 10.7872
114 2 2.53991 0.41718 14.2532
115 2 3.46893 2.02795 14.644
116 2 3.41909 0.677984 15.9707
129 2 2.87626 3.85227 10.316
130 2 2.29197 4.54599 11.9802
131 2 2.93805 2.78835 11.8806
180 4 0.191485 1.21641 11.6685
185 2 1.76942 0.700508 11.968
186 3 -0.0924933 1.66502 10.1539
188 1 -0.187632 2.7693 12.8044
196 2 0.0899882 3.66466 12.2393
197 2 0.570893 2.48568 13.6655
198 2 -1.29258 2.71758 13.0671
204 1 -0.347382 1.89218 17.2354
213 2 0.258675 1.81021 16.287
53 3 5.52773 3.57744 12.8205
215 2 -1.14879 0.989845 17.3137
285 2 7.96405 -0.365712 16.3984
279 4 6.50266 -2.32112 15.6459
351 2 6.86428 -2.47757 13.0045
281 1 7.79656 -1.34614 16.9145
45 2 3.9599 2.34945 8.85481
286 2 8.69031 -2.01428 16.9455
212 2 0.729615 -1.16202 17.4731
339 2 4.16101 0.146568 9.8865
11 4 6.54495 2.66488 13.7819
350 2 8.44315 -2.21968 13.9238
357 2 -1.61303 4.35491 8.92792
119 2 5.23378 1.1879 17.4587
214 2 -0.931319 2.83157 17.2649
1 4 -3.37052 13.6222 1.62103
13 4 2.24517 9.21742 3.24504
31 1 -4.17804 11.8232 2.19119
326 2 -0.0689175 6.12411 5.8042
55 1 1.47557 7.69806 4.05733
258 2 -10.5759 14.0354 0.348566
57 2 0.532046 9.35034 3.3906
290 1 -2.53738 7.63146 7.30715
60 1 -0.0862716 9.4344 7.68852
297 2 -1.60375 7.25649 6.78487
108 2 -3.43621 11.0077 2.44868
109 2 -4.66135 11.6571 1.16008
110 2 -4.98994 12.0046 3.01008
124 2 3.63759 6.73969 8.47001
125 2 2.64023 7.95927 7.31298
135 2 2.537 7.14018 4.02839
136 2 0.677166 7.09758 3.55173
137 2 1.21909 7.91826 5.16069
337 2 -10.1087 12.9298 6.44969
142 2 -0.788971 11.6433 5.84724
144 2 -1.225 9.51533 7.42618
353 2 -4.7618 11.5518 6.04595
146 2 0.468043 8.64729 7.09264
201 4 -2.7521 8.25742 3.94312
206 1 -2.30955 8.9682 2.32859
207 3 -2.17198 6.79217 4.11604
208 1 -4.70623 8.6055 4.55569
209 2 -3.40356 9.27168 5.47985
216 2 -1.8144 8.25428 1.627
217 2 -1.52902 9.74622 2.81014
218 2 -3.15245 9.51895 1.82665
219 2 -4.85168 8.75532 3.34472
220 2 -5.45939 9.33609 4.93793
221 2 -5.07483 7.57567 4.90089
295 2 -2.49233 8.66238 7.78074
296 2 -3.42467 7.48572 6.55675
332 2 -1.89931 12.8906 3.24567
360 2 -3.86594 6.45524 8.00175
352 1 -3.6688 11.6746 5.31671
249 2 -6.38681 8.81476 8.4006
354 2 -2.72659 11.028 5.52335
355 2 -3.89083 11.8549 4.2305
227 2 -5.08613 7.12315 0.730465
167 2 -6.68601 9.29057 13.4355
44 1 2.46572 4.88132 16.7642
282 2 -4.31251 10.3737 17.4803
74 1 -4.18818 6.79404 15.2351
338 2 -1.3223 10.0608 14.7324
122 2 1.76748 5.77585 16.6313
247 2 -5.24173 8.48104 9.98009
134 2 3.13374 6.10357 13.5455
162 2 -3.26334 6.79234 14.5357
163 2 -3.86703 6.65158 16.2957
164 2 -4.8706 7.72081 15.097
257 2 -8.63325 10.1615 16.1098
348 1 -3.35676 11.4403 13.9144
358 2 0.132309 5.45016 8.99927
231 4 -0.575951 9.52813 16.2382
232 1 -0.0197025 7.73823 16.3697
233 3 -1.39064 10.1007 17.4778
235 2 1.09011 7.97927 16.3643
238 4 -6.91583 10.0884 10.2523
243 1 -5.66161 9.26385 9.2237
241 2 -6.51437 9.2587 11.8346
242 3 -6.53491 11.7932 10.4322
280 1 -4.98608 10.3585 16.5347
236 2 -0.274201 6.98048 15.5665
283 2 -4.81532 9.37263 15.9498
234 2 -0.377296 7.42097 17.4207
145 2 0.141883 9.41195 8.79359
284 2 -6.07671 10.505 16.8142
288 4 -2.26795 6.4168 8.80554
289 4 -2.29911 8.06743 11.7031
291 1 -1.6511 9.91223 11.6879
292 3 -2.23042 7.23537 10.2844
293 1 -1.26681 7.04967 12.9501
294 2 -3.79832 8.0595 12.4221
298 2 -1.90055 10.2509 10.6201
299 2 -0.541559 9.83888 11.9002
300 2 -2.24289 10.4717 12.5003
301 2 -0.784841 6.19445 12.3183
302 2 -1.95656 6.76964 13.8503
303 2 -0.525717 7.93646 13.128
161 2 -3.77409 4.6532 13.3483
121 2 2.8349 4.47398 15.7717
349 2 -3.29688 10.3149 14.0901
276 2 -0.68848 11.6556 12.0897
120 2 2.05809 4.08607 17.4737
248 2 -4.83267 9.90213 8.77847
15 4 5.59742 6.20939 4.15087
316 1 14.2762 2.10811 8.52202
17 4 10.0187 3.86889 7.2277
342 2 14.1177 2.26884 2.0417
224 2 9.94323 6.61141 0.373454
64 2 6.16265 6.16248 1.60567
65 1 8.74555 2.54387 8.11826
66 1 10.9986 2.8061 5.90599
67 1 11.2304 4.75025 8.50797
68 3 5.93537 4.18045 8.37946
71 3 7.09979 5.57995 4.66438
72 3 9.15013 4.92935 6.47029
319 2 13.5707 1.27723 8.23306
141 2 10.7356 -0.752969 6.10906
147 2 8.93599 1.6131 7.55104
148 2 7.75182 2.93705 7.90725
150 2 12.1055 2.75282 6.22149
151 2 10.8367 3.07198 4.84705
152 2 10.3486 1.84053 6.21647
345 2 10.5706 0.229915 0.301693
157 2 10.1459 6.104 4.01795
177 4 15.7318 2.14916 7.33637
341 2 14.8678 1.10594 0.603053
223 1 12.9312 6.64601 0.932149
225 2 12.3685 5.38839 0.0847316
344 1 11.5916 0.195614 0.889609
372 2 16.7329 -0.383507 4.27761
259 4 12.6571 1.87587 0.341132
262 2 11.4897 2.01304 1.58078
304 4 15.1681 -0.107837 5.03097
305 1 15.3443 0.474359 3.24466
306 3 15.3252 1.04939 6.24965
307 2 14.2177 1.1952 3.49919
308 2 15.1931 -0.316981 2.4721
309 2 16.3015 1.0796 3.08152
370 3 8.41771 6.11308 0.336086
323 2 16.2123 3.1746 4.80048
324 2 15.4378 4.29562 3.4007
331 2 9.9466 -0.0410416 2.04959
340 1 14.4623 2.14764 0.936278
317 2 14.0265 3.36353 8.05361
154 2 11.5963 5.58636 7.81668
343 2 15.0216 3.03126 0.463872
335 2 11.689 -2.97891 15.9037
51 1 8.33963 2.74 13.0771
155 2 12.0151 4.04404 8.82982
73 1 14.37 4.13281 13.6471
76 3 6.46654 3.23339 15.2902
126 2 8.11536 3.09219 12.0308
127 2 8.72142 1.6355 13.1784
128 2 8.93895 3.49304 13.7097
149 2 8.97706 2.50926 9.19842
160 2 14.5768 3.0674 14.1172
256 2 19.5893 -3.01026 16.3729
169 2 8.22311 4.09944 9.33205
187 1 17.8299 -0.0766036 12.1166
193 2 17.0314 -0.14528 11.2363
194 2 17.3469 0.268236 13.0903
195 2 18.5016 -1.0391 12.1921
318 2 14.7362 2.20439 9.58802
260 4 13.3957 0.304344 15.1561
261 4 12.4118 -1.23836 12.2511
263 3 13.6325 -0.684382 16.5591
264 1 15.0516 1.26089 14.9594
265 1 11.9204 1.46564 15.5393
266 3 12.8953 -0.440818 13.5488
268 2 13.0973 -0.696695 10.8229
269 1 10.5756 -1.46796 12.4131
270 2 15.471 1.3952 13.916
271 2 15.68 0.505447 15.5898
272 2 14.9586 2.26072 15.5297
273 2 11.7031 1.49898 16.6318
274 2 11.0009 1.18502 14.9402
275 2 12.5186 2.41029 15.1172
159 2 13.5952 4.07219 12.83
277 2 10.3129 -0.590936 11.6113
278 2 10.4595 -1.20887 13.5903
153 2 10.6347 5.13802 9.35364
311 2 15.8318 -1.65821 14.2607
312 1 18.3367 -1.61483 15.6551
138 2 11.4715 -1.1767 8.89445
314 2 18.2095 -1.79289 16.7808
315 2 17.9289 -0.635902 15.3184
313 2 19.3955 -1.83025 15.2449
80 1 7.88797 5.04519 9.98212
170 2 7.7349 4.78272 11.1017
310 4 16.9635 -2.75697 14.7532
14 4 1.00145 11.0891 7.31426
23 4 6.63498 8.91845 3.05912
24 4 3.44572 11.1348 5.43758
25 4 5.44474 11.2686 1.89558
26 4 7.22116 8.01752 7.90195
28 4 6.15507 10.8927 6.77313
229 2 9.56378 11.5045 3.93366
70 1 9.41233 6.94952 4.25183
83 3 5.95232 7.68875 3.67883
84 3 7.84982 8.05284 1.90347
85 3 7.63032 9.82834 4.00745
86 3 2.78712 10.3817 4.08341
87 3 3.50865 12.7805 5.11689
88 3 2.47359 10.6839 6.7138
89 3 5.68038 9.76482 2.19049
90 2 5.11434 12.1022 3.35978
92 3 7.86806 7.41416 6.46992
371 3 6.53541 12.0295 0.928749
97 3 7.76329 11.6876 6.0598
98 3 4.93911 10.6889 5.8262
99 3 6.4774 9.56869 7.61324
100 2 5.533 11.9322 7.97118
91 3 6.11356 6.99695 8.58152
143 2 0.714743 12.2381 4.97591
255 2 8.4631 10.2162 0.602197
156 2 8.82509 7.29623 3.29285
158 2 9.85943 7.81804 4.79431
222 4 11.6064 7.19914 0.0284396
226 2 12.3951 6.77823 2.10075
228 4 8.52765 10.6791 5.09908
373 2 3.94147 11.2158 1.03423
230 2 9.51721 9.64557 6.00692
59 1 0.130274 12.3296 5.89185
19 4 8.23078 6.18929 5.56416
346 2 0.709649 13.607 1.70641
244 2 8.46551 11.1641 8.22254
56 3 2.53373 9.13518 1.70662
123 2 4.54929 7.84914 7.14972
364 2 2.34361 11.8193 0.45174
347 2 1.66794 13.9412 0.0766145
16 4 7.42977 7.0441 0.794124
49 1 3.53645 7.30372 7.46605
8 4 2.58425 9.14683 0.0265864
253 2 9.90508 11.3103 0.0230858
18 4 6.14889 5.48692 9.28579
20 4 13.5917 5.37175 14.8855
21 4 6.71317 4.63878 16.0548
22 4 10.8823 6.78673 13.3105
27 4 4.52461 9.69562 10.407
29 4 7.80255 7.13468 14.4778
30 4 7.06993 9.17955 12.4295
69 3 5.25217 5.3546 10.7457
75 3 13.2589 4.52644 16.2768
77 3 8.0524 4.3931 17.0956
78 3 5.2379 5.07932 16.8404
79 1 11.3777 8.77275 13.2841
58 1 1.19512 12.0135 9.01795
81 1 10.9674 6.16322 11.5135
82 3 12.1333 6.0835 14.1285
336 2 0.240754 11.4578 14.0826
333 1 0.442624 10.7084 14.9524
95 1 2.8642 9.85367 11.3517
96 2 2.99737 8.67683 10.0147
101 3 7.02243 5.78246 15.0027
102 3 9.35281 6.72824 13.9522
103 3 7.99072 8.04644 15.9286
104 3 8.45606 9.32011 11.7226
105 3 5.59626 9.16559 11.4358
106 3 7.0947 7.87994 13.3112
107 3 6.69848 10.5174 13.5873
166 2 10.7626 9.21959 12.4213
140 2 0.653243 11.3059 9.66728
246 2 7.43528 11.3286 9.76853
366 1 5.55772 10.2115 16.0386
245 2 9.2479 11.9458 9.64367
334 2 1.20992 9.92845 14.5298
168 2 8.4997 5.98662 9.78474
252 1 9.54532 10.3648 16.8476
171 2 11.9961 5.74327 11.3
172 2 10.7832 7.13737 10.9235
173 2 10.1151 5.45037 11.4518
175 2 3.66484 11.3586 11.0567
237 4 8.84212 9.46544 10.0493
239 1 8.48999 11.2447 9.34334
176 2 3.02972 9.42847 12.32
250 4 8.73246 8.64127 17.1141
251 1 10.3389 7.39118 17.3232
254 2 10.4817 6.74798 16.4267
267 2 2.28279 11.3791 12.4212
367 2 5.63952 9.08591 16.1489
133 2 4.78079 5.72525 14.3951
361 1 3.942 7.73978 17.168
368 2 4.4366 10.4777 15.8011
363 2 4.9174 7.96736 16.517
93 3 8.39484 8.20749 8.98181
362 2 2.92416 7.57533 16.578
240 3 10.6325 9.64243 9.94407
174 2 1.72522 10.0987 11.2917
132 2 4.65423 7.01542 13.0295
139 2 2.25869 12.1242 9.30261
54 1 4.27415 6.03189 13.4354
165 2 10.7577 8.81824 14.3372
369 2 6.00296 10.763 16.923
94 2 5.24662 10.1186 8.9691
ITEM: TIMESTEP
200
ITEM: NUMBER OF ATOMS
373
ITEM: BOX BOUNDS xy xz yz pp pp pp
-1.0794400000000000e+01 2.0438599999999997e+01 -1.0794400000000000e+01
-3.3740059999999996e+00 1.4198074999999999e+01 1.3894000000000000e+00
0.0000000000000000e+00 1.7550000000000001e+01 -3.3740059999999996e+00
ITEM: ATOMS id type x y z
3 4 4.91966 1.18962 2.73869
4 4 7.65465 -1.10887 6.50922
5 4 5.97105 1.53677 5.42041
7 4 4.30094 4.20151 2.04622
9 4 4.76407 3.40983 7.74879
10 4 3.37242 5.7331 6.37308
33 3 6.25423 0.397844 2.17344
34 2 3.5592 0.236106 2.22835
118 2 2.59362 3.59662 0.221184
36 3 4.92334 1.09025 4.35624
37 3 6.88754 0.180012 5.9502
41 3 4.65893 2.66514 2.24357
42 1 3.01426 4.48813 0.636208
43 2 2.57294 4.38155 2.53773
359 2 -0.468696 5.27445 7.33817
46 3 5.29281 2.36296 6.65201
47 2 1.75368 5.59162 5.76932
48 3 3.59907 4.42014 7.30071
62 3 5.19329 5.42095 2.48145
117 2 2.13554 5.30419 0.848383
287 2 5.94169 2.55783 0.0683843
356 1 -0.692585 5.42733 8.42767
321 1 -3.19391 4.0775 4.47488
178 4 1.39889 0.119654 6.92681
179 4 -0.369277 2.04289 8.5999
181 1 1.58616 1.01891 5.34782
182 3 -1.85365 2.08845 8.0963
183 3 0.630408 1.06938 7.82679
189 2 0.144998 3.61828 8.41396
190 2 1.7168 0.315199 4.55265
191 2 2.57715 1.56177 5.52328
192 2 0.786648 1.74408 5.20869
199 4 -0.739451 4.31757 1.0526
200 4 -1.61168 5.28542 4.10916
329 1 9.05457 -0.241945 2.74363
203 1 -0.487361 2.50331 0.928871
205 3 -1.13257 4.75951 2.60529
210 2 -0.97259 1.93702 1.80884
211 2 0.752636 2.64959 1.006
328 2 -0.406908 4.06487 5.84259
320 2 2.98781 -0.252171 7.45
63 3 4.29048 5.95782 5.05596
61 2 7.01876 2.64032 4.71381
325 1 -0.053912 4.97432 5.29805
35 2 7.29814 -1.16643 8.08771
327 2 0.756864 4.79687 4.50471
202 2 0.121571 5.55275 0.0555902
365 2 9.35231 -0.885311 6.63641
322 2 -3.81279 4.64462 5.21066
323 2 -2.59371 3.18412 4.87953
184 2 -3.32534 3.82503 6.43197
2 4 4.55515 -1.21444 10.9757
6 4 4.754 -0.122162 14.0315
12 4 4.55179 4.74796 12.1069
32 1 5.93932 -0.252288 10.081
38 3 4.41267 -0.737254 12.462
39 3 5.27988 -1.29037 15.1565
40 1 3.35323 0.918408 14.7799
50 3 6.03127 1.03525 13.8111
52 1 2.88425 3.9621 11.6961
111 2 5.97693 0.745389 10.5572
112 2 5.90302 -0.256631 8.94435
113 2 6.75857 -1.06076 10.5516
114 2 2.47302 0.460047 14.2056
115 2 3.52297 2.03079 14.5336
116 2 3.26997 0.726151 15.9015
129 2 2.52155 4.22551 10.6433
130 2 2.27937 4.52922 12.518
131 2 2.95162 2.82253 11.8645
180 4 0.0779444 1.15691 11.6983
185 2 1.54736 0.316658 11.9861
186 3 -0.123673 1.58287 10.1476
188 1 0.0180459 2.74809 12.8472
196 2 0.236402 3.58894 12.1093
197 2 0.896012 2.53578 13.5666
198 2 -0.951364 2.77153 13.337
204 1 -0.295994 1.83853 17.0577
213 2 0.137954 1.97347 16.0358
53 3 5.3954 3.58133 12.814
215 2 -1.03902 0.85901 17.1276
285 2 8.18016 -0.370353 15.968
279 4 6.49942 -2.27068 15.571
214 2 -0.761438 2.81989 17.439
281 1 7.83921 -1.20979 16.7049
45 2 4.07491 2.49938 9.01541
286 2 8.66644 -1.93227 16.9328
119 2 5.32457 1.60646 17.513
339 2 3.9346 0.0185282 9.90929
11 4 6.46611 2.57504 13.7646
350 2 8.48162 -2.41826 13.9619
357 2 -1.30573 4.52628 8.98056
212 2 0.47408 -1.13389 17.4237
1 4 -3.26092 13.5729 1.75317
13 4 2.04917 9.3618 3.17078
31 1 -3.98846 11.8337 2.2405
326 2 -0.0389503 5.99283 5.87377
55 1 1.40261 7.91921 4.13438
258 2 -10.369 13.9545 0.295577
57 2 0.328258 9.47281 3.36471
290 1 -2.5076 7.80085 7.20666
60 1 -0.166721 9.6124 7.55119
297 2 -1.39917 7.53312 6.79583
108 2 -3.23543 11.0421 2.54205
109 2 -4.49406 11.5507 1.27564
110 2 -4.70888 12.0826 3.06715
227 2 -5.5144 7.42014 1.15399
125 2 2.47674 7.63377 7.4332
135 2 2.47983 7.21371 3.75243
136 2 0.449815 7.38566 3.85971
137 2 1.42997 8.10067 5.21509
282 2 -5.94517 13.8367 0.10827
142 2 -0.912108 12.0325 5.54075
144 2 -1.36475 9.70125 7.74775
353 2 -4.09451 11.1107 6.06251
146 2 0.101711 9.03316 6.61075
201 4 -2.77012 8.29472 3.92194
206 1 -2.2106 9.15785 2.31179
207 3 -2.18639 6.79193 4.24562
208 1 -4.64103 8.32593 4.40504
209 2 -3.23681 9.182 5.42751
216 2 -1.45053 8.61612 1.64351
217 2 -1.66742 10.0054 2.93899
218 2 -3.13275 9.49452 1.73271
219 2 -4.81903 8.05737 3.14118
220 2 -5.16273 9.28687 4.77466
221 2 -4.91037 7.39253 4.97596
295 2 -2.52999 8.96613 7.60094
296 2 -3.33563 7.66204 6.50467
332 2 -1.67482 12.9039 3.26638
360 2 -3.73992 6.48686 7.86589
352 1 -3.21567 11.6406 5.36638
249 2 -6.37644 8.6672 8.46647
354 2 -2.25085 11.0949 5.63312
355 2 -3.44822 11.5929 4.26977
145 2 0.40041 9.1724 8.51436
288 4 -2.155 6.63231 8.71856
120 2 0.592837 7.88786 0.0884411
56 3 2.29695 9.16303 1.52444
124 2 3.74583 6.76293 8.53804
167 2 -6.87692 9.42143 13.7769
44 1 2.60401 4.98731 16.7834
248 2 -5.01515 9.89792 8.88457
74 1 -4.20831 6.73962 15.16
338 2 -1.38525 10.2195 14.6779
122 2 1.98061 5.60867 16.1243
247 2 -5.07476 8.17788 9.74202
134 2 3.15781 6.25379 13.5565
162 2 -3.37112 6.85193 14.3672
163 2 -3.86784 6.54453 16.207
164 2 -4.94545 7.59091 15.1564
257 2 -8.47272 9.95425 16.1001
348 1 -3.34196 11.252 13.9303
358 2 0.162503 5.85313 9.10851
231 4 -0.6978 9.4907 16.2211
232 1 0.120858 7.86621 16.4746
233 3 -1.35888 10.088 17.5486
235 2 1.20051 8.3421 16.612
238 4 -6.83672 9.92418 10.3529
243 1 -5.6626 9.04899 9.25605
241 2 -6.66971 9.12014 11.9153
242 3 -6.57131 11.4848 10.5085
280 1 -4.98873 10.4657 16.5783
236 2 -0.11446 7.45972 15.4054
283 2 -4.66092 9.5959 15.9674
234 2 -0.215895 7.18147 17.2884
351 2 -3.99267 11.4651 13.0443
284 2 -6.12916 10.5765 16.5707
276 2 -0.796952 11.6351 12.2101
289 4 -2.27035 7.84726 11.7215
291 1 -1.5884 9.71636 11.7164
292 3 -2.18559 7.25986 10.156
293 1 -1.60478 6.78362 13.1417
294 2 -3.88335 7.96661 12.2947
298 2 -1.76681 10.0515 10.643
299 2 -0.51163 9.55964 11.9734
300 2 -2.24555 10.2942 12.503
301 2 -1.87396 5.77648 12.6126
302 2 -1.84186 6.74261 14.2276
303 2 -0.47628 7.19328 12.9556
161 2 -3.90156 4.66788 13.2127
121 2 3.20796 4.14501 16.2231
349 2 -3.29453 10.1533 14.1968
15 4 5.54469 6.23302 4.13825
316 1 14.2867 2.14865 8.3767
17 4 10.0276 3.78903 7.03821
342 2 14.0119 3.44184 1.23649
330 2 8.94467 0.599829 3.52628
64 2 6.44976 5.7764 1.52787
65 1 8.75407 2.64141 8.0459
66 1 11.0719 2.78878 5.70901
67 1 11.249 4.51819 8.42449
68 3 6.02577 4.25023 8.40257
71 3 6.99367 5.53578 4.67061
72 3 9.23058 4.9978 6.32785
319 2 13.4217 1.66813 7.91177
141 2 10.8472 -0.912217 6.41742
147 2 8.70686 1.80414 7.34503
148 2 7.71156 3.19658 8.10865
150 2 12.072 3.2533 6.03799
151 2 10.7953 3.08559 4.68248
152 2 11.0113 1.69824 5.91556
345 2 10.6424 -0.0417701 0.384622
157 2 10.1008 5.98596 3.8083
177 4 15.8067 2.22393 7.26396
341 2 14.6454 1.51909 1.49964
223 1 12.5614 6.84499 1.22381
225 2 12.4425 5.31083 0.681916
344 1 11.5887 0.203392 0.799417
372 2 16.8223 -0.715918 4.3492
259 4 12.5369 2.02464 0.231281
262 2 11.168 2.02012 1.30132
304 4 15.2691 -0.189202 5.08474
305 1 15.4894 0.0859925 3.16511
306 3 15.5914 1.05216 6.18896
307 2 14.5201 1.15552 3.56578
154 2 11.7975 5.27351 7.78093
309 2 16.3096 0.627299 2.64492