ITEM: TIMESTEP
0
ITEM: NUMBER OF ATOMS
373
ITEM: BOX BOUNDS xy xz yz pp pp pp
-1.0794400000000000e+01 2.0614100000000001e+01 -1.0794400000000000e+01
-3.3405999999999998e+00 1.4057499999999999e+01 1.5649000000000000e+00
0.0000000000000000e+00 1.7550000000000001e+01 -3.3405999999999998e+00
ITEM: ATOMS id type x y z
3 4 4.94324 1.18225 2.916
212 2 0.879085 2.63633 0.342338
5 4 6.49092 1.44708 5.55513
7 4 4.24182 4.19124 2.33374
9 4 5.08402 3.1798 7.80992
119 2 2.40896 5.57829 1.17628
33 3 6.00775 0.566659 1.85265
34 2 3.5547 0.299151 2.78526
325 1 -0.582033 4.17186 5.46323
36 3 5.44368 0.916959 4.41574
37 3 7.357 0.245967 6.15338
41 3 4.57567 2.65002 2.61294
190 2 1.84526 -0.701817 5.00644
43 2 2.78994 4.67159 3.09553
111 2 6.14535 0.910454 8.64701
46 3 5.71208 2.27219 6.63224
326 2 -0.775972 3.20762 6.1269
48 3 3.96113 4.18952 7.31459
284 2 4.63055 0.459965 0.466713
4 4 7.38857 -1.11853 7.02485
328 2 0.245409 4.02944 4.70457
320 2 2.41672 2.63345 5.80905
35 2 6.58366 -0.818299 8.5339
178 4 1.9459 1.12221 6.34521
179 4 -0.164758 1.55586 8.70531
181 1 1.00109 0.29803 4.93477
42 1 2.83584 4.49449 1.07816
183 3 0.922663 1.37441 7.42414
327 2 -0.519605 5.12952 6.03952
182 3 -1.75649 1.99531 8.02594
191 2 0.965721 0.952478 3.96222
118 2 3.55974 4.27255 0.130673
199 4 -1.36531 3.95897 1.20954
200 4 -2.15881 4.55706 4.47306
202 2 0.181454 4.61732 0.941384
203 1 0.140814 2.63836 1.1905
205 3 -1.87113 4.27405 2.64652
210 2 -0.846651 1.833 0.944878
211 2 0.638049 2.34948 2.20438
337 2 3.41284 0.458142 7.01234
117 2 1.85106 3.74561 1.12063
192 2 0.02146 0.206873 5.44446
331 2 7.58318 -0.674863 4.05201
207 3 -2.69687 6.06237 4.95388
63 3 4.69415 5.89043 5.06168
2 4 4.78991 -1.05384 10.6113
6 4 4.84166 -0.216548 13.7042
339 2 3.98963 0.298508 9.43965
32 1 5.67698 0.518778 9.61881
38 3 4.53572 -0.736366 12.122
39 3 5.85603 -1.25626 14.6903
40 1 3.15042 -0.195182 14.5258
50 3 5.4105 1.31969 13.7609
11 4 6.26036 2.6946 13.5966
285 2 8.7311 -0.654512 16.0095
112 2 6.61458 -0.870309 10.2436
113 2 5.93485 1.23311 10.4711
114 2 2.26383 -0.429771 13.668
115 2 3.05971 0.833576 15.0001
116 2 3.30014 -1.11005 15.2447
129 2 2.14763 3.27014 12.1442
280 1 5.4442 -2.9795 17.1555
130 2 2.26771 4.63641 10.7694
286 2 8.84794 -2.35601 16.9145
189 2 0.473954 2.86248 9.55435
186 3 -0.164567 0.366309 9.68276
188 1 0.991153 -0.638098 12.1606
196 2 1.98245 -0.287932 11.8256
197 2 1.06126 -1.70353 12.6498
198 2 0.462902 0.177125 12.8609
315 2 0.180844 -0.612584 15.1159
213 2 -0.708002 1.73712 16.9842
53 3 5.27455 3.8214 12.7688
287 2 7.49456 -1.11388 17.4001
52 1 2.47706 4.35359 11.8665
279 4 6.57201 -2.23907 15.6929
204 1 -1.0165 0.629892 17.2865
281 1 8.16515 -1.51406 16.5183
45 2 4.54503 2.03434 8.98081
283 2 4.55607 -2.27494 17.2526
1 4 -3.74606 13.2858 1.55019
13 4 2.27125 8.97063 2.55255
31 1 -4.90126 11.8985 0.793192
357 2 -0.632315 5.59053 8.46853
55 1 1.98844 7.17409 3.12004
359 2 -1.03404 7.89297 8.32586
57 2 0.625423 8.57562 2.61096
59 1 -0.519021 12.2699 5.93381
60 1 0.170786 10.068 8.48507
352 1 -4.20295 11.5055 6.20322
10 4 4.04141 5.82587 6.49637
109 2 -5.91377 12.3875 0.910861
110 2 -4.84446 10.9556 1.44829
249 2 -8.27737 10.4436 7.39891
235 2 -0.537885 11.6199 0.965449
365 2 -1.81234 12.5399 7.47021
136 2 2.06169 7.04437 4.19271
145 2 -0.862588 10.0336 7.99429
141 2 -1.41053 11.5633 5.91066
137 2 2.94519 6.78193 2.54437
144 2 0.860172 9.18133 8.41139
353 2 -5.31272 11.1419 6.67409
124 2 2.58225 7.60749 8.25355
201 4 -3.38178 7.47764 5.41185
206 1 -3.00146 8.90559 4.25996
49 1 3.22767 7.52848 7.31564
208 1 -5.30055 7.19967 5.7845
209 2 -3.13588 7.95685 7.0759
216 2 -2.15746 9.33936 5.15757
217 2 -3.88549 9.56235 4.20742
218 2 -2.40608 8.7661 3.34633
219 2 -5.56491 7.99344 4.99851
220 2 -5.52709 7.44799 6.80081
248 2 -6.84835 11.6874 7.14542
233 3 -2.53061 13.61 0.147948
355 2 -4.31954 12.0543 5.1186
243 1 -7.13683 10.6185 7.3168
247 2 -6.5387 9.81662 6.81401
332 2 -1.80111 12.6948 2.98861
47 2 2.39231 6.38691 6.03897
354 2 -3.40505 10.7106 6.18077
330 2 -3.40439 11.6453 3.16521
297 2 -2.89318 9.42533 8.02723
329 1 -2.90067 12.726 3.15522
296 2 -4.18978 7.93042 8.41362
135 2 1.00707 6.79826 2.67999
257 2 -8.1395 10.0661 16.6498
44 1 2.97747 5.47293 15.8922
146 2 0.201287 10.5227 9.53347
74 1 -4.62037 7.24151 15.5297
120 2 2.40132 6.47383 15.7297
360 2 -2.36337 5.64807 9.73016
131 2 2.05054 5.10961 12.6363
348 1 -3.85991 10.2406 14.6382
162 2 -4.07713 7.31466 16.4965
163 2 -5.48806 8.04969 15.374
164 2 -3.88128 7.20236 14.7112
108 2 -3.09051 8.39396 17.3057
12 4 4.24351 4.9035 12.0025
338 2 -0.139706 8.72027 15.596
231 4 0.265342 10.0343 16.8014
298 2 0.378425 10.02 10.866
349 2 -4.21237 9.1603 15.0066
351 2 -4.26098 10.4574 13.572
238 4 -6.80031 10.247 9.17446
159 2 -3.94279 5.25855 13.798
241 2 -5.48551 9.15555 9.01359
242 3 -6.31119 11.6572 9.8833
121 2 2.54363 4.80976 16.7371
300 2 -0.781372 11.3712 11.7539
303 2 0.724814 8.46292 14.2335
134 2 3.83946 6.17104 14.2139
282 2 -5.68251 9.98554 16.8812
350 2 -2.60803 10.518 14.8933
288 4 -2.30024 7.55953 9.84345
289 4 -1.37725 9.19697 12.5552
291 1 -0.0797132 10.4826 11.8816
292 3 -1.92467 8.22004 11.2727
293 1 -0.265485 8.08026 13.7496
294 2 -2.56898 10.2895 13.1691
356 1 -0.903289 6.42393 9.18016
299 2 0.561645 10.3276 12.9414
167 2 -6.02279 7.62415 12.0949
301 2 -0.102229 7.17018 13.146
302 2 -1.24591 7.9668 14.4618
358 2 -0.156459 6.46951 10.0554
174 2 1.70376 8.85222 11.8439
295 2 -3.95258 9.51435 9.63571
122 2 3.25296 4.94007 14.9107
290 1 -3.52314 8.833 8.78805
342 2 12.0775 3.54267 3.47601
153 2 12.3103 5.14853 7.34769
17 4 10.342 3.58438 7.19878
58 1 12.6471 -1.13922 7.90532
227 2 11.2678 5.61694 0.371437
64 2 6.12148 6.46989 1.45285
65 1 9.08318 2.82189 8.51772
66 1 11.0916 2.26819 5.94938
67 1 11.8406 4.55472 8.13856
61 2 7.60408 2.45519 4.84279
71 3 7.28969 5.41005 4.51887
72 3 9.48509 4.56847 6.35759
138 2 11.8989 -0.337043 7.64939
321 1 15.5037 3.21406 4.85689
147 2 9.14577 1.73139 8.24705
148 2 8.01857 3.26992 8.47212
150 2 10.2825 1.50299 6.22785
151 2 12.1222 1.86222 6.03381
152 2 10.887 2.72616 4.9445
154 2 12.4998 3.78081 8.57329
139 2 13.6106 -1.07764 7.33484
177 4 16.1751 0.843099 7.85831
343 2 12.4427 4.89304 1.82245
223 1 12.8841 6.49626 1.09716
214 2 15.4538 3.85064 0.269207
322 2 15.8069 3.20499 5.9721
346 2 12.5095 0.501481 1.85592
259 4 13.01 2.51396 0.993105
262 2 11.0741 3.19875 1.84115
304 4 15.3035 -0.594407 4.97613
305 1 16.0476 0.464062 3.3171
306 3 15.7466 0.210379 6.41682
307 2 14.4911 0.893108 4.06206
308 2 15.9354 0.389546 2.16442
309 2 16.888 1.09065 3.61897
317 2 13.8478 1.20117 8.13128
323 2 15.6846 2.1467 4.25745
324 2 14.47 3.64888 4.70117
344 1 13.5258 0.775415 1.36503
340 1 12.1182 3.5619 2.33478
341 2 13.9541 3.65999 2.03909
62 3 5.30554 5.32644 2.42056
347 2 14.4856 0.674416 2.09582
370 3 8.73416 6.24778 0.342719
143 2 10.1731 -0.713562 6.24373
68 3 6.30824 3.98214 8.49678
226 2 13.7569 6.49014 0.349397
345 2 13.6525 0.23984 0.404515
19 4 8.48933 5.91125 5.45404
15 4 5.85964 6.09134 4.02028
156 2 10.7274 6.14152 4.61576
258 2 19.0202 -0.0791712 0.495942
225 2 10.4504 3.16904 16.8906
51 1 7.71408 2.20279 12.4411
184 2 14.964 2.21904 9.35051
310 4 17.305 -2.23736 14.1891
76 3 6.94699 3.23082 14.9093
126 2 7.29452 2.2632 11.335
312 1 18.9054 -1.65471 15.2592
128 2 8.45643 3.03271 12.6832
180 4 18.5453 -0.515419 10.924
316 1 14.7042 1.17538 8.97976
336 2 11.7943 -1.47761 16.6809
169 2 7.59085 3.9885 11.4858
187 1 16.8521 0.247211 11.6461
193 2 16.3402 0.900101 10.9649
127 2 8.13847 1.17759 12.7213
195 2 16.3838 -0.865821 11.5585
335 2 12.8265 -2.73179 15.7893
260 4 14.0677 0.161487 15.4828
261 4 13.2051 -1.76469 12.8535
263 3 14.3134 -0.440574 17.0084
264 1 15.6418 1.1383 15.1173
265 1 12.6092 1.44246 15.4981
266 3 13.7115 -0.923427 14.1264
267 2 11.428 -1.93158 12.6388
269 1 13.79 -0.715527 11.4794
270 2 15.8904 0.691203 14.043
271 2 16.5146 1.0073 15.9136
272 2 15.1135 2.20531 15.1144
273 2 12.0224 1.50673 14.549
274 2 13.1492 2.45299 15.7127
275 2 11.9961 1.1888 16.4017
276 2 14.443 -1.43357 10.9284
277 2 14.2531 0.200279 12.0457
278 2 12.7059 -0.558264 10.9533
318 2 14.3472 0.470513 9.90028
311 2 17.0131 -0.735844 13.3256
140 2 12.842 -1.35691 9.02658
319 2 15.8929 -0.306538 9.26719
333 1 11.8093 -2.46187 16.0823
194 2 16.7721 0.676086 12.6515
171 2 10.3678 3.95427 13.1781
161 2 14.3619 3.50749 13.9648
81 1 10.3862 4.55227 12.2776
334 2 11.0103 -2.39355 15.2228
149 2 9.6295 3.06643 9.45953
173 2 9.30028 4.70594 11.7147
369 2 16.5964 -2.37236 16.4097
314 2 18.9319 -1.86468 16.3585
313 2 19.5393 -2.40331 14.7123
172 2 11.184 4.2742 11.5999
155 2 11.3297 5.17745 8.94964
368 2 15.2135 -2.61137 15.0046
215 2 18.1921 -0.164453 16.4909
256 2 19.9499 -3.09815 16.2977
14 4 0.879195 11.428 7.16532
23 4 6.8805 9.06305 3.03996
24 4 3.26848 10.6809 5.21182
25 4 5.44967 11.3059 1.65271
26 4 7.35 7.77399 7.95998
28 4 5.8688 10.3647 6.92449
246 2 8.73418 10.6493 7.71269
70 1 9.7601 6.69616 4.35862
83 3 6.19919 7.69406 3.68157
84 3 7.82658 8.59226 1.46763
85 3 7.79921 9.87872 4.08424
86 3 2.80954 9.82033 3.79845
87 3 3.51992 12.2283 4.69249
88 3 1.92438 10.6648 6.2364
89 3 5.75556 9.97624 2.47022
90 2 5.49684 12.7194 2.6324
92 3 8.02016 6.93696 6.56808
56 3 2.59759 9.21597 1.06594
97 3 6.94756 11.2737 6.17216
98 3 4.55382 10.137 5.87267
99 3 6.49449 9.04806 7.41978
100 2 5.38095 11.0782 8.31413
229 2 8.47516 12.6075 4.37977
91 3 6.469 6.76152 8.75605
123 2 4.48902 7.11595 7.75134
371 3 6.33499 11.5739 0.380673
158 2 9.47065 6.60776 3.25972
373 2 3.76867 11.2576 1.21054
254 2 8.36851 9.70654 0.19818
228 4 8.08464 11.0632 5.09762
224 2 12.7846 7.69209 2.1268
230 2 9.62713 10.6602 5.69932
157 2 9.81374 7.76739 4.717
364 2 2.65549 12.1518 0.137573
255 2 9.61365 11.1233 0.062586
125 2 3.27107 8.51901 6.73549
222 4 11.6124 7.32555 0.449489
232 1 0.0668873 12.3459 0.325507
142 2 -0.0888056 12.3102 4.88694
16 4 7.29039 7.41612 0.625767
96 2 4.2117 8.55961 8.72354
236 2 0.315915 13.3677 0.844465
221 2 13.5523 6.11314 5.52587
372 2 6.11775 13.1168 4.21758
18 4 6.15479 5.37473 9.55206
20 4 13.3004 5.58043 15.2148
21 4 7.16255 4.80893 15.5861
22 4 10.9685 6.29622 12.9775
27 4 4.25063 9.06803 10.3716
29 4 8.20431 7.30336 13.9583
30 4 7.00653 9.3313 12.0815
168 2 8.48652 5.2831 10.3292
75 3 13.2815 4.71102 16.5388
77 3 8.1913 4.56235 16.8026
78 3 5.79544 5.419 16.2646
79 1 12.0201 7.18145 11.6793
73 1 14.1203 4.57553 13.8055
170 2 7.20443 5.91324 11.6313
82 3 11.9052 6.09095 14.6247
8 4 4.46735 6.12108 16.8849
94 2 2.91757 10.3575 10.6273
95 1 2.81758 8.89537 11.7001
363 2 5.74001 8.54756 16.571
101 3 7.76679 5.83409 14.5181
102 3 9.61786 7.08808 13.1667
103 3 8.37919 8.27264 15.358
104 3 8.28592 9.47351 11.1247
105 3 5.56151 9.41435 11.1503
106 3 7.11048 7.93186 12.905
107 3 6.95219 10.6719 13.1154
133 2 5.42135 6.81808 13.2562
268 2 2.95337 10.5768 12.6263
132 2 3.71063 7.38378 12.6795
93 3 8.71273 8.16549 8.82784
165 2 11.4259 7.97238 11.1112
361 1 4.72598 8.15135 16.8768
176 2 3.36696 7.45569 10.9609
252 1 9.8236 10.2325 16.9689
80 1 7.50981 5.04288 10.8767
185 2 7.85027 11.8196 10.4892
367 2 5.44517 9.8672 15.8069
175 2 3.44197 9.2411 12.6174
237 4 9.13293 9.4265 9.78877
239 1 8.64391 11.0227 8.79722
245 2 7.57444 11.3376 8.96953
250 4 9.02011 8.45354 16.7338
362 2 4.05343 8.16129 15.927
251 1 10.3909 7.18852 17.0408
240 3 10.9964 9.53774 9.72825
54 1 4.33091 6.5402 13.1863
253 2 10.8669 6.75725 16.0799
366 1 5.40988 11.0204 15.5208
166 2 12.1552 6.22163 10.9994
244 2 9.47361 11.7606 9.07803
234 2 2.52652 8.5027 17.4586
160 2 13.4322 4.66384 12.889
69 3 4.80259 5.3797 10.4446
ITEM: TIMESTEP
100
ITEM: NUMBER OF ATOMS
373
ITEM: BOX BOUNDS xy xz yz pp pp pp
-1.0794400000000000e+01 2.0614100000000001e+01 -1.0794400000000000e+01
-3.3405999999999998e+00 1.4057499999999999e+01 1.5649000000000000e+00
0.0000000000000000e+00 1.7550000000000001e+01 -3.3405999999999998e+00
ITEM: ATOMS id type x y z
3 4 4.90218 1.12231 2.90315
10 4 4.0081 5.74765 6.46495
5 4 6.57787 1.5781 5.4034
7 4 4.23505 4.23286 2.35286
9 4 5.27144 3.25645 7.70886
119 2 2.55197 5.70991 1.30512
33 3 5.79432 0.331796 1.80265
34 2 3.39016 0.310035 2.93123
325 1 -0.497406 4.21348 5.33533
36 3 5.60712 0.938704 4.29031
37 3 7.27052 0.316657 6.12927
41 3 4.58919 2.69571 2.59529
190 2 2.02644 -0.791916 5.27149
43 2 2.71452 4.6729 3.07994
111 2 5.77485 0.622727 8.44118
46 3 5.8019 2.35716 6.53727
326 2 -0.432121 3.09298 5.59876
48 3 4.13337 4.3261 7.35505
284 2 4.36533 0.489875 0.548907
4 4 7.44281 -1.04472 6.96295
328 2 0.216372 4.57148 4.50539
320 2 2.28105 2.83841 5.39034
35 2 6.6425 -0.888935 8.5127
178 4 1.96925 1.39475 6.24586
179 4 -0.117964 1.69313 8.70294
181 1 1.26287 0.114994 5.06903
42 1 2.79643 4.60628 1.14941
183 3 1.02951 1.50291 7.46227
327 2 -0.524555 4.92861 6.29834
182 3 -1.63478 1.65129 7.99125
191 2 1.42205 0.683654 4.08324
118 2 3.51509 4.52907 0.209555
199 4 -1.43814 3.99326 1.26989
200 4 -2.15472 4.51312 4.45726
202 2 0.0727379 4.76307 0.824556
203 1 0.113656 2.82937 0.953677
205 3 -1.87975 4.28131 2.89057
210 2 -0.76987 1.8736 1.22282
211 2 0.833587 2.81634 1.77652
337 2 3.50839 0.9888 6.72772
117 2 1.81052 3.89406 1.09358
192 2 0.172443 -0.047572 5.45062
331 2 7.53778 -0.527176 4.02394
287 2 5.97853 2.04941 0.0209315
135 2 1.66934 6.52283 2.55279
212 2 0.653652 2.55253 0.0026394
357 2 -0.868647 5.40204 8.37143
226 2 -5.28942 6.86705 0.629374
45 2 4.66547 2.0771 8.76383
2 4 4.8122 -0.96517 10.604
6 4 4.92718 -0.28331 13.8324
339 2 3.95747 0.451756 9.73418
32 1 5.67667 0.506006 9.52392
38 3 4.73154 -0.750374 12.2131
39 3 6.04472 -1.29187 14.7969
40 1 3.26607 -0.295808 14.6548
50 3 5.3421 1.31962 13.7679
11 4 6.10887 2.77331 13.4906
285 2 8.81058 -0.775557 16.2208
112 2 6.64879 -0.817879 10.2973
113 2 6.12451 1.3117 10.1162
114 2 2.34918 -0.462295 13.8737
115 2 3.29445 0.700976 15.1846
116 2 3.43365 -1.16418 15.3551
129 2 2.50594 3.0385 12.5444
280 1 5.29173 -2.84595 17.1357
130 2 2.21241 3.66484 10.9264
286 2 8.97396 -2.49825 17.094
189 2 0.0555009 3.18633 9.42088
186 3 -0.233386 0.571315 9.89077
188 1 0.899319 -0.600046 12.4711
196 2 1.89897 -0.304901 12.0025
197 2 0.804193 -1.62511 12.8078
198 2 0.440815 0.120706 13.1671
315 2 0.0142298 -0.38927 14.9188
213 2 -1.05792 1.48853 17.0919
53 3 5.14879 3.76021 12.5927
127 2 7.77797 1.11984 12.2929
52 1 2.56375 3.92643 11.9178
279 4 6.67728 -2.33067 15.7643
204 1 -1.14148 0.389092 17.4491
281 1 8.27244 -1.62962 16.6986
283 2 4.60709 -1.99555 17.1304
313 2 1.11573 -1.85332 14.7854
1 4 -3.79244 13.2296 1.56789
13 4 2.23177 8.94966 2.6423
31 1 -4.73161 11.6606 0.796832
49 1 3.28049 7.35644 7.49231
55 1 2.22156 7.14416 3.27593
359 2 -1.0278 7.44825 8.2046
57 2 0.687053 8.41808 3.0613
59 1 -0.33857 12.209 5.84717
60 1 0.118723 10.256 8.49983
352 1 -4.14032 11.6628 6.05494
297 2 -3.97143 9.21076 7.75032
109 2 -5.80949 12.021 1.03871
110 2 -4.44379 10.7144 1.30356
249 2 -7.84424 9.87089 7.00066
235 2 -0.418134 11.4346 0.445452
329 1 -2.91902 12.9172 3.18489
136 2 1.94291 6.97303 4.33246
145 2 -0.86863 10.3861 8.02633
141 2 -1.22926 11.5182 5.98936
137 2 3.41672 7.03595 3.04047
144 2 0.475898 9.18886 8.3865
353 2 -5.17878 11.199 6.59672
124 2 2.73523 7.08054 8.43438
201 4 -3.45254 7.44145 5.53014
206 1 -2.95195 8.7309 4.16646
207 3 -2.87547 6.08668 5.02472
208 1 -5.29174 7.20184 5.84341
209 2 -2.91118 8.12233 7.09335
216 2 -2.23908 9.40687 4.8128
217 2 -3.84467 9.26887 3.80432
218 2 -2.44574 8.22749 3.25153
219 2 -5.5979 7.78501 4.83389
220 2 -5.74751 7.6721 6.81738
248 2 -6.86781 11.4893 7.22128
233 3 -2.40162 13.5772 0.209179
355 2 -4.50617 12.2632 5.08829
243 1 -6.91482 10.3641 7.30852
247 2 -5.95088 9.72861 7.14513
332 2 -1.80336 13.0907 2.88074
47 2 2.27222 6.23217 6.41041
354 2 -3.21541 10.9444 5.93963
330 2 -3.15437 11.7819 3.29105
290 1 -3.68881 8.8142 8.74968
365 2 -1.67966 12.5765 7.25113
257 2 -8.17873 10.2517 16.7101
44 1 2.68008 5.67548 16.0295
146 2 0.164694 10.7078 9.59783
74 1 -4.69324 7.20103 15.6857
120 2 2.61659 6.84097 15.5977
360 2 -2.49508 5.73351 10.1147
131 2 1.96471 4.86515 12.3554
348 1 -3.65673 10.0953 14.7676
162 2 -4.2335 7.31942 16.7541
163 2 -5.41264 8.00339 15.5611
164 2 -3.938 7.19268 14.8202
108 2 -2.95968 8.26879 17.1969
12 4 4.18636 4.92122 11.9921
338 2 -0.188743 8.76188 15.5283
231 4 0.354621 9.88561 16.8332
298 2 0.428837 10.3653 10.9269
349 2 -3.95113 9.05589 15.1008
351 2 -4.11409 10.3357 13.7689
238 4 -6.73642 10.2525 9.23834
159 2 -3.83648 5.05378 13.7467
241 2 -5.39459 9.25651 9.67796
242 3 -6.36455 11.7543 9.76944
121 2 1.79353 5.46046 16.745
300 2 -0.629793 11.3727 12.1436
303 2 0.484107 8.27408 14.1965
134 2 3.55403 6.09076 14.265
282 2 -5.97379 10.2411 16.8938
350 2 -2.39529 10.5113 15.0395
288 4 -2.38463 7.5129 9.82286
289 4 -1.31311 9.18682 12.4738
291 1 0.00812516 10.4679 11.9805
292 3 -1.84336 8.36389 11.1426
293 1 -0.418086 7.91287 13.7676
294 2 -2.45883 10.2721 13.2359
356 1 -1.11348 6.29736 9.01705
299 2 0.663439 10.1681 12.8987
167 2 -5.78037 7.26573 12.2179
301 2 -0.25756 6.82775 13.3987
302 2 -1.4398 8.06009 14.4192
358 2 -0.369955 6.2985 9.84885
174 2 1.74794 8.84619 11.8756
295 2 -3.4444 9.63629 9.50698
122 2 2.76913 4.86358 15.2538
296 2 -4.44525 7.8791 9.1992
69 3 4.77785 5.38152 10.4131
342 2 12.6597 3.68684 3.558
153 2 12.2779 4.89384 7.49589
17 4 10.2563 3.51176 7.19662
58 1 12.6142 -1.20279 8.16372
227 2 11.8085 5.55331 0.484395
64 2 6.2357 6.26328 1.32162
65 1 9.10844 2.58197 8.48861
66 1 11.1449 2.10692 6.11105
67 1 11.7171 4.31132 8.26207
61 2 7.73888 2.5734 4.65102
71 3 7.1889 5.10985 4.43856
72 3 9.4663 4.5867 6.35262
138 2 11.7208 -0.499479 8.1118
321 1 15.6498 3.08255 5.00992
147 2 9.00423 1.5814 8.04609
148 2 8.06499 3.15124 8.4625
150 2 10.7581 1.07534 6.41573
151 2 12.2476 2.28226 6.41505
152 2 10.9079 2.42338 5.05297
154 2 12.3271 3.46585 8.68154
139 2 13.4992 -0.781794 7.56952
177 4 16.1189 0.755992 7.81252
343 2 12.5022 4.97604 2.03234
223 1 12.7902 6.7493 1.2031
214 2 15.3531 3.52936 0.298386
322 2 15.6258 2.91889 6.12278
346 2 12.4971 0.476703 1.76052
259 4 12.8786 2.55648 0.994169
262 2 11.2114 3.27849 2.28783
304 4 15.2285 -0.467748 5.06747
305 1 15.9663 0.380047 3.28563
306 3 15.6472 0.15322 6.39843
307 2 14.456 0.836633 3.94603
308 2 15.9203 0.28731 2.18266
309 2 16.7813 1.18322 3.38777
317 2 13.9914 1.65622 7.88692
323 2 15.7522 2.05698 4.36002
324 2 14.6943 3.64945 4.65494
344 1 13.5273 0.841986 1.28681
340 1 12.3483 3.81191 2.52148
341 2 14.1225 3.54803 1.74919
62 3 5.27167 5.45683 2.3971
347 2 14.4113 0.660918 1.98672
15 4 5.98169 6.08826 4.0588
143 2 10.2017 -0.805957 6.23543
68 3 6.48939 3.85551 8.49058
63 3 4.71091 5.89937 5.03189
345 2 13.6956 0.3823 0.246584
19 4 8.54241 5.77542 5.5871
225 2 10.5226 3.33075 16.6654
51 1 7.52039 2.24809 12.2583
184 2 15.1447 2.48815 9.18182
310 4 17.5299 -2.29653 14.3061
76 3 6.81878 3.48668 14.7198
366 1 16.1596 -2.75152 15.4497
312 1 19.1975 -1.51826 15.1733
128 2 8.31456 2.95136 12.732
180 4 18.5192 -0.52433 11.0579
316 1 14.671 1.55572 8.84401
336 2 11.5022 -1.67717 16.778
169 2 7.55874 4.09963 11.4468
187 1 16.76 -0.0413137 11.7844
193 2 16.6071 0.737872 10.8677
256 2 19.998 -2.9713 16.3265
195 2 16.3634 -1.10987 11.457
335 2 13.1325 -2.57124 16.403
260 4 14.0244 0.20094 15.4578
261 4 13.4249 -1.56451 12.7324
263 3 14.0433 -0.368866 17.0707
264 1 15.7576 0.914027 15.0934
265 1 12.7077 1.59316 15.4275
266 3 13.7382 -0.972858 14.1302
267 2 11.706 -1.91925 12.4982
269 1 13.7479 -0.421849 11.3141
270 2 16.2959 0.521003 14.1744
271 2 16.4791 0.854237 16.0622
272 2 15.2453 2.02314 14.8778
273 2 12.2626 1.69196 14.4197
274 2 13.3678 2.48303 15.7358
275 2 11.9031 1.3144 16.2289
276 2 14.3612 -1.23401 10.659
277 2 14.3701 0.409729 11.9033
278 2 12.6625 -0.177765 11.03
318 2 14.2061 0.990042 9.70789
311 2 17.4963 -0.729411 13.4676
140 2 12.8219 -1.49352 9.18727
319 2 15.473 -0.175047 9.24367
333 1 11.947 -2.53805 16.287
194 2 16.3165 0.313438 12.7353
171 2 10.4247 3.86307 13.036
161 2 14.2759 3.42282 14.1404
81 1 10.4224 4.63179 12.17
334 2 11.6568 -2.71471 15.1635
149 2 9.59368 2.59668 9.49279
215 2 18.3489 -0.377167 16.6178
369 2 16.5747 -2.21465 16.4666
314 2 19.0563 -1.76999 16.2898
126 2 7.17046 2.55255 11.2406
172 2 11.2111 4.39694 11.3662
155 2 11.2363 4.95871 9.04312
368 2 15.1905 -2.32099 15.0345
370 3 10.2548 2.78188 17.5445
14 4 1.04314 11.3875 7.15356
23 4 6.82681 9.00291 2.95884
24 4 3.2023 10.6949 5.13863
25 4 5.37505 11.2334 1.57685
26 4 7.42553 7.70912 7.98456
28 4 5.71757 10.2697 6.83506
246 2 8.84523 10.6864 7.6519
70 1 9.75889 6.67923 4.49717
83 3 6.39542 7.57435 3.69503
84 3 7.75461 8.40496 1.63228
85 3 7.73981 9.98899 3.89138
86 3 2.71856 9.98853 3.71001
87 3 3.48541 12.3306 4.9514
88 3 2.03656 10.5391 6.31586
89 3 5.54411 9.95588 2.41952
90 2 5.11731 12.5367 2.63841
92 3 7.98996 6.89462 6.59353
56 3 2.44933 9.20039 1.06857
97 3 6.85538 11.1957 6.1227
98 3 4.45841 9.96514 5.7778
99 3 6.36793 9.0542 7.48331
100 2 5.12809 11.315 8.0502
229 2 8.69549 12.3894 4.66283
239 1 8.48336 11.043 8.73271
123 2 4.71117 7.11578 7.77062
371 3 6.37828 11.6309 0.448582
258 2 8.14722 13.9345 0.520185
373 2 3.79627 11.3314 1.01648
221 2 13.6274 6.07146 5.71381
228 4 8.03654 10.8726 5.11407
224 2 12.3349 8.02532 2.1492
230 2 9.34894 10.4222 6.02285
157 2 9.56176 7.81111 4.65612
156 2 10.8146 6.36165 4.78712
372 2 5.98505 13.08 4.15985
125 2 3.03086 8.34091 7.10339
222 4 11.4712 7.33905 0.474349
232 1 0.164899 12.4051 0.35217
142 2 0.093885 12.1456 4.77584
16 4 7.36272 7.28676 0.523003
96 2 4.22374 8.6714 8.60964
236 2 0.248124 12.8778 1.34072
255 2 9.51703 11.1386 0.0501438
158 2 9.521 6.38038 3.43996
254 2 8.27708 9.7415 0.0237434
18 4 6.19069 5.4038 9.64161
20 4 13.3318 5.61376 15.1519
21 4 7.02233 4.85008 15.5563
22 4 10.9605 6.36479 12.9237
27 4 4.28313 9.01232 10.3353
29 4 8.1615 7.44441 13.9025
30 4 7.08986 9.39023 12.0209
168 2 8.49624 5.52625 10.3584
75 3 13.1559 4.8301 16.6331
77 3 8.21855 4.52452 16.7875
78 3 5.59724 5.41088 16.2402
79 1 12.2469 7.19786 11.8153
73 1 14.1887 4.51079 13.8018
170 2 7.3808 6.06869 11.7528
82 3 11.8984 6.03668 14.5326
8 4 4.3182 6.06057 16.8943
94 2 3.06359 10.4089 10.6231
95 1 2.85154 9.01951 11.7048
363 2 5.79802 8.08088 16.5019
101 3 7.69256 5.93966 14.4931
102 3 9.65522 7.25606 13.0642
103 3 8.2905 8.44103 15.1935
104 3 8.48514 9.7298 11.1955
105 3 5.68109 9.28449 11.0182
106 3 7.09826 7.92812 12.7889
107 3 6.89135 10.5605 13.2349
133 2 5.20528 6.43302 13.3833
268 2 3.08744 10.8285 12.4275
132 2 3.6679 7.42364 12.6756
93 3 8.65273 8.24097 8.82136
165 2 11.791 8.20276 11.5753
361 1 4.65594 8.04877 16.6785
176 2 3.34977 7.51232 10.8398
252 1 9.81396 10.3123 17.0016
80 1 7.57742 5.29519 10.9571
185 2 7.69508 11.9548 10.265
367 2 5.1916 10.1801 15.5771
175 2 3.42102 9.15495 12.68
237 4 9.17385 9.51862 9.76824
91 3 6.54422 6.712 8.81182
245 2 7.39206 11.0845 8.84144
250 4 8.97174 8.51025 16.7554
362 2 4.00639 8.00727 15.6795
251 1 10.3705 7.22601 16.9804
240 3 10.8244 9.61669 9.72521
54 1 4.10104 6.39955 13.2225
253 2 10.9005 6.77508 16.0627
173 2 9.36729 4.83472 11.7018
166 2 12.1918 6.40325 10.9661
244 2 8.99503 11.9513 9.09105
234 2 2.84201 8.81503 17.3979
364 2 4.31951 8.82972 17.4358
160 2 13.6211 4.69922 12.8382
ITEM: TIMESTEP
200
ITEM: NUMBER OF ATOMS
373
ITEM: BOX BOUNDS xy xz yz pp pp pp
-1.0794400000000000e+01 2.0614100000000001e+01 -1.0794400000000000e+01
-3.3405999999999998e+00 1.4057499999999999e+01 1.5649000000000000e+00
0.0000000000000000e+00 1.7550000000000001e+01 -3.3405999999999998e+00
ITEM: ATOMS id type x y z
3 4 4.85956 1.20472 2.91621
212 2 0.874664 2.86845 0.0938028
5 4 6.62087 1.67711 5.33807
7 4 4.28628 4.22023 2.27433
9 4 5.35661 3.27786 7.68759
119 2 2.56385 5.75013 1.20896
33 3 5.66268 0.292548 1.93768
34 2 3.27611 0.519753 3.06897
325 1 -0.501186 4.24058 5.36872
36 3 5.42694 1.19335 4.4289
37 3 7.36651 0.39785 6.01067
41 3 4.60457 2.68305 2.5325
190 2 2.47645 -0.797984 5.40098
43 2 2.65123 4.70169 2.94977
111 2 5.74442 0.473141 8.18556
46 3 6.10068 2.589 6.4854
326 2 -0.557429 3.28653 6.0468
48 3 4.26518 4.22852 7.19409
284 2 4.41867 0.353768 0.495524
4 4 7.54463 -0.947189 6.89049
328 2 0.175387 4.09693 4.46629
320 2 2.27264 2.93353 5.5584
35 2 6.80299 -0.802692 8.4794
178 4 1.95217 1.38858 6.23743
179 4 -0.142926 1.75218 8.62067
181 1 1.41099 -0.176215 5.3588
42 1 2.86738 4.64153 1.03848
183 3 1.01178 1.52551 7.43915
327 2 -0.280741 5.17254 5.94846
182 3 -1.65273 1.68947 8.05933
191 2 1.20578 0.419356 4.3099
118 2 3.57283 4.49816 0.146734
199 4 -1.46383 4.04277 1.20797
200 4 -2.21091 4.49114 4.55597
202 2 0.0654427 4.79328 0.706391
203 1 0.139948 2.88905 0.972077
205 3 -1.80293 4.27064 2.79393
210 2 -0.67674 1.94153 0.787654
211 2 0.624473 2.67288 2.0097
337 2 3.44573 0.764474 6.72951
117 2 1.89994 3.95594 0.911985
192 2 0.497095 -0.598203 5.86327
331 2 7.78583 -0.482465 3.82349
135 2 2.1027 6.2856 2.53202
207 3 -2.91549 5.9452 5.05548
45 2 4.62895 1.95643 8.52014
365 2 9.25618 -1.25268 7.19343
2 4 4.90509 -0.904441 10.6389
6 4 4.99216 -0.291718 13.8921
339 2 3.89525 0.50295 9.76381
32 1 5.63976 0.495096 9.34376
38 3 4.7658 -0.616627 12.1656
39 3 5.95164 -1.28906 14.794
40 1 3.30185 -0.397483 14.5623
50 3 5.48324 1.30402 13.9892
11 4 6.14417 2.85342 13.5067
285 2 8.86656 -0.992571 15.8634
112 2 6.70426 -0.696064 10.2701
113 2 6.2637 1.29571 9.89796
114 2 2.46059 -0.361514 13.784
115 2 3.19295 0.488993 15.2143
116 2 3.26731 -1.38787 15.1266
129 2 2.3859 2.98505 12.4853
280 1 5.26449 -2.77771 17.1784
130 2 2.31946 3.61091 10.6553
286 2 8.96639 -2.5473 17.0193
189 2 0.258153 3.25027 9.25476
186 3 -0.0387038 0.676747 9.90998
188 1 0.881734 -0.380339 12.5188
196 2 1.65902 0.284069 11.9612
197 2 1.29258 -1.45422 12.69
198 2 0.427895 0.131725 13.5104
315 2 0.371293 -0.42029 14.8937
287 2 7.70756 -1.08927 17.3307
53 3 5.00366 3.81401 12.7653
127 2 7.52671 1.27525 12.3572
52 1 2.42103 3.86503 11.7727
279 4 6.6421 -2.3411 15.8296
131 2 1.68934 4.63628 12.1013
281 1 8.32429 -1.63371 16.555
283 2 4.60956 -1.85788 17.3235
213 2 -1.66816 1.21948 17.4441
1 4 -3.84577 13.0204 1.44633
13 4 2.30016 8.97866 2.72791
31 1 -4.55994 11.3227 0.868011
49 1 3.15334 7.27199 7.66524
55 1 2.33857 7.1279 3.28511
359 2 -0.769459 7.19412 8.29097
57 2 0.758898 8.27179 2.93601
59 1 -0.339863 12.1318 5.77592
60 1 -0.121638 10.2825 8.47187
352 1 -4.30162 11.894 5.97313
297 2 -4.74895 7.94349 7.92452
109 2 -5.63894 11.7127 0.899861
110 2 -4.34294 10.559 1.62211
249 2 -7.58624 9.57883 7.12022
10 4 4.12195 5.81691 6.47691
329 1 -2.81961 12.8415 2.97459
136 2 1.68814 7.02669 4.23007
145 2 -1.1389 10.1948 7.97157
141 2 -1.2221 11.5098 5.87823
137 2 3.52579 7.20452 3.4818
144 2 0.522032 9.3535 8.31019
353 2 -5.15931 11.4003 6.51572
124 2 2.69657 6.74835 8.55265
201 4 -3.45489 7.36404 5.52539
206 1 -3.07061 8.65211 4.14479
226 2 -5.46833 7.25452 0.688722
208 1 -5.34183 7.26561 5.78252
209 2 -3.12687 7.97417 7.2344
216 2 -2.5103 9.58914 4.40753
217 2 -4.21783 8.94296 4.00278
218 2 -2.60781 8.20599 3.17668
219 2 -5.55727 7.97729 4.8722
220 2 -5.73021 7.65544 6.76245
248 2 -6.86154 11.387 7.25636
233 3 -2.45939 13.5359 0.126688
355 2 -4.65706 12.4064 4.99157
243 1 -6.73997 10.2833 7.47877
247 2 -5.67987 9.83111 7.33425
332 2 -1.73694 12.9476 2.5321
47 2 2.27347 6.40845 6.40988
354 2 -3.29785 11.1583 5.74386
330 2 -3.14899 11.7126 3.23214
290 1 -4.12406 8.30784 8.75415
232 1 0.00835099 12.0108 0.32429
236 2 -0.180356 12.2262 1.41592
357 2 -1.95099 5.72466 8.2877
257 2 -8.32312 10.0374 16.7354
44 1 2.53643 5.68139 16.0294
146 2 -0.152752 10.4115 9.58413
74 1 -4.73571 7.25634 15.8055
120 2 1.84212 6.30479 15.3723
360 2 -2.74029 5.90733 10.0269
296 2 -4.38151 7.66211 10.2323
348 1 -3.73532 10.131 14.7789
162 2 -4.14559 7.35997 16.8395
163 2 -5.51083 8.0416 15.6514
164 2 -4.0285 7.13093 14.9406
108 2 -2.64987 7.70638 17.3743
12 4 4.08569 4.87502 11.9687
338 2 0.17472 8.85575 15.3807
231 4 0.450877 9.85534 16.8553
298 2 0.579197 10.1947 10.7734
349 2 -4.16357 9.0615 15.1607
351 2 -3.99402 10.3957 13.7306
238 4 -6.77097 10.3347 9.37925
159 2 -3.82863 5.25124 13.9695
241 2 -5.62963 9.04803 9.70725
242 3 -6.31402 11.7548 9.96996
121 2 2.01209 5.36803 16.9591
300 2 -0.621885 11.3439 12.0322
303 2 0.491138 7.83831 14.2716
134 2 3.30974 6.0173 14.1801
282 2 -6.09691 10.3885 16.8659
350 2 -2.52769 10.3661 15.103
288 4 -2.44572 7.60353 9.7897
289 4 -1.10754 9.13343 12.4754
291 1 0.120098 10.4419 11.8448
292 3 -1.74269 8.35793 11.0423
293 1 -0.593495 7.8129 13.9014
294 2 -2.34106 9.9792 13.4132
356 1 -1.24294 6.32783 8.89029
299 2 0.898518 10.2766 12.7172
167 2 -5.65019 7.46021 12.24
301 2 -0.878978 6.80891 13.627
302 2 -1.3382 8.30674 14.6218
358 2 -0.387357 5.75247 9.467
69 3 4.58847 5.34712 10.5247
295 2 -4.05077 9.4117 8.8507
122 2 2.98829 4.79541 15.4808
235 2 1.03511 7.71007 17.4717
244 2 -9.77229 12.1126 8.9964
342 2 13.1004 4.05499 3.60186
153 2 12.2065 4.87637 7.60443
17 4 10.2812 3.30573 7.26529
58 1 12.693 -1.29713 8.25684
227 2 11.8817 5.53443 0.562884
64 2 6.33333 6.13083 1.20228
65 1 9.07498 2.26629 8.46983
66 1 11.1143 2.12902 6.00673
67 1 11.6088 4.30037 8.42495
61 2 7.81561 2.58008 4.50213
71 3 7.28045 5.31769 4.60997
72 3 9.39185 4.44493 6.41319
138 2 12.0208 -0.34078 8.40244
321 1 15.8176 2.90286 5.04208
147 2 8.86107 1.3029 7.94048
148 2 8.10187 2.78655 8.70501
150 2 11.313 1.08693 6.38209
151 2 12.1033 2.81701 5.95626
152 2 10.4811 2.12837 5.09184
345 2 13.4213 0.329942 0.333106
139 2 13.7599 -1.04923 7.87131
177 4 16.0352 0.8265 7.86257
343 2 12.6624 5.07892 2.0772
19 4 8.48459 5.77019 5.64567
214 2 15.4062 2.71549 0.635285
322 2 16.1879 2.75487 6.09788
346 2 12.3262 0.434448 1.90469
259 4 12.6536 2.54361 1.19808
262 2 11.4316 3.46703 2.70165
304 4 15.1923 -0.52102 5.00621
305 1 15.9217 0.265918 3.21373
306 3 15.5975 0.201656 6.45999
307 2 14.3554 0.792135 3.97148
308 2 15.8371 -0.0503022 2.16628
309 2 16.4684 1.19884 3.23981
317 2 13.855 1.68175 8.17113
323 2 15.8139 1.88738 4.36846
324 2 14.7667 3.43871 4.93111
344 1 13.2971 0.837761 1.33201
340 1 12.6821 3.9259 2.56485
341 2 14.1794 2.97122 2.08297
62 3 5.47995 5.30683 2.35227
347 2 14.3499 0.650464 2.01595
15 4 5.99271 6.15693 4.03434