ITEM: TIMESTEP
0
ITEM: NUMBER OF ATOMS
373
ITEM: BOX BOUNDS xy xz yz pp pp pp
-1.0794400000000000e+01 2.0438599999999997e+01 -1.0794400000000000e+01
-3.1650999999999998e+00 1.4057499999999999e+01 1.3894000000000000e+00
0.0000000000000000e+00 1.7550000000000001e+01 -3.1650999999999998e+00
ITEM: ATOMS id type x y z
3 4 4.94883 1.09155 2.67411
4 4 7.39982 -1.12694 6.45737
5 4 6.06934 1.64622 5.46969
7 4 4.14797 4.07946 2.00439
9 4 4.66214 3.38863 7.66585
10 4 3.33151 5.69161 6.25238
33 3 6.17644 0.482741 1.81394
34 2 3.67443 0.137837 2.45231
118 2 2.26256 3.70489 0.201679
36 3 5.25302 1.13629 4.21531
37 3 6.97276 0.342292 5.98802
41 3 4.58278 2.54929 2.13211
42 1 2.97316 4.52288 0.622738
43 2 2.44378 4.32783 2.50569
359 2 -0.562759 5.3251 7.44278
46 3 5.26767 2.38634 6.59723
47 2 1.68106 5.59688 5.65803
48 3 3.55792 4.39184 7.13521
62 3 5.14704 5.25272 2.51005
323 2 -2.52172 3.27431 5.08409
287 2 5.66504 2.37165 0.266414
356 1 -0.886437 5.20712 8.58779
321 1 -3.32348 4.02775 4.7041
178 4 1.47274 0.0713361 6.69485
179 4 -0.215895 2.01309 8.61459
181 1 1.82776 0.710599 5.0684
182 3 -1.7165 1.95025 8.12637
183 3 0.637715 1.17876 7.56129
189 2 0.199143 3.56707 8.43378
190 2 1.04878 0.242888 4.41931
191 2 2.90003 0.403106 4.84663
192 2 1.78285 1.91609 5.03772
199 4 -0.639593 4.23429 1.12372
200 4 -1.80843 5.24582 4.13657
329 1 8.85597 -0.20605 2.72821
203 1 -0.286257 2.40272 0.840246
205 3 -1.28351 4.72058 2.57292
210 2 -1.03145 1.62457 1.11875
211 2 0.640794 2.43015 1.57733
328 2 -0.625564 4.31803 5.98972
320 2 2.81743 -0.446597 7.57561
63 3 4.45837 5.90629 5.10405
330 2 8.65765 0.756964 3.24456
325 1 -0.215765 5.13155 5.32609
365 2 9.14584 -1.08324 6.23746
327 2 0.503086 4.77104 4.48835
214 2 -2.33717 5.69399 0.476127
184 2 -3.16597 3.68358 6.59544
117 2 2.4879 5.52606 0.68794
227 2 -5.18858 6.79946 0.0582414
202 2 0.0984122 5.58866 0.144847
2 4 4.56125 -0.760664 11.0182
6 4 4.82094 0.138094 14.0395
12 4 4.58696 4.73968 11.9886
32 1 6.05749 0.19799 10.4418
38 3 4.3467 -0.373868 12.5501
39 3 5.37393 -1.16954 15.2225
40 1 3.36645 1.03284 14.7923
50 3 6.15871 1.25444 13.7945
52 1 3.03426 3.66876 11.4134
111 2 6.31548 1.06627 11.0749
112 2 5.93196 0.445073 9.28722
113 2 6.79134 -0.732659 10.5937
114 2 2.67035 1.15699 13.8741
115 2 3.73797 2.01754 15.2491
116 2 2.94043 0.319362 15.5352
129 2 2.86131 3.9391 10.3275
130 2 2.1342 3.92821 12.0576
131 2 3.39255 2.60181 11.5096
180 4 0.105559 1.38778 11.7961
185 2 1.75955 0.854339 12.0824
186 3 -0.0688637 1.66053 10.1747
188 1 -0.262549 3.02935 12.869
196 2 -0.163537 3.93539 12.257
197 2 0.525427 2.85565 13.6664
198 2 -1.36017 2.87185 13.3052
204 1 -0.284512 2.06277 17.2139
213 2 -0.414101 2.65427 16.2799
53 3 5.69733 3.68421 12.6211
215 2 -0.66498 0.901224 16.9756
285 2 8.16495 -0.277581 16.3634
279 4 6.50104 -2.08485 15.724
351 2 7.19698 -1.6738 13.2038
281 1 7.73835 -1.12295 16.9263
45 2 3.9176 2.43968 8.78376
286 2 8.52292 -1.9305 17.2248
212 2 1.3283 -0.777283 17.2795
339 2 4.11829 0.438494 9.98182
11 4 6.5042 2.79102 13.8134
350 2 8.5343 -2.49875 14.2653
357 2 -1.71782 4.3157 8.91257
119 2 5.42405 1.38151 17.3399
358 2 -0.0537482 5.35107 9.25813
276 2 10.036 -2.09889 11.9672
1 4 -3.41216 13.4591 1.62746
13 4 2.17902 9.08068 3.20593
31 1 -4.38728 11.7783 2.04968
49 1 3.12035 7.10539 7.50433
55 1 1.71736 7.49807 4.04157
56 3 2.33806 9.03087 1.6267
57 2 0.445838 9.06037 3.68264
248 2 -5.28441 10.5974 8.68199
60 1 -0.0234996 9.42283 7.64748
297 2 -1.62029 7.22614 6.8855
108 2 -3.85801 11.2221 2.88216
109 2 -4.37772 11.158 1.11284
110 2 -5.37255 12.1281 2.32884
124 2 3.33394 6.57974 8.46396
125 2 2.0403 7.41108 7.44175
135 2 2.97833 7.16927 3.94004
136 2 1.11726 6.83152 3.27865
137 2 1.38041 7.27286 5.06589
326 2 -0.0354986 6.15432 5.7879
142 2 -0.705099 11.5241 5.66375
144 2 -0.958397 9.62292 7.00781
353 2 -5.08881 11.3229 5.92709
146 2 0.59345 8.50668 7.29903
201 4 -2.83203 8.34164 3.99016
206 1 -2.37148 9.10093 2.27444
207 3 -2.30784 6.8759 4.08219
208 1 -4.64843 8.47027 4.5827
209 2 -2.46857 9.25382 5.42845
216 2 -1.85234 8.33362 1.62607
217 2 -1.57511 9.78001 2.7515
218 2 -3.08748 9.67142 1.66381
219 2 -5.04557 8.6993 3.49816
220 2 -4.64113 9.4111 5.22917
221 2 -5.03248 7.52801 5.01558
120 2 0.624968 7.57443 0.229518
296 2 -3.48445 7.85149 6.66975
332 2 -1.99915 12.9819 3.44169
360 2 -4.05337 6.49181 8.12153
352 1 -4.08518 11.711 5.2318
249 2 -6.44927 9.19328 8.09314
354 2 -3.22835 10.9435 5.29798
355 2 -4.38187 11.9657 4.23458
290 1 -2.71088 7.67465 7.42286
295 2 -2.47357 8.62703 8.14024
8 4 2.58901 8.91654 0.0134588
282 2 -6.06311 13.7628 0.0234273
35 2 -3.91845 12.5644 7.96927
167 2 -6.48574 8.6992 13.3875
44 1 2.35215 5.05019 16.8624
54 1 4.016 6.04932 13.2942
74 1 -4.13419 6.93624 15.0045
338 2 -1.28395 10.1899 14.7119
122 2 1.60857 5.86551 16.6351
247 2 -5.17611 8.82676 9.51083
134 2 2.89255 6.01774 13.078
162 2 -3.14216 6.57579 14.631
163 2 -4.21532 6.98978 16.1831
164 2 -4.44458 7.87957 14.4877
257 2 -8.66263 10.6632 16.4563
133 2 4.24161 5.70776 14.3408
165 2 -7.98742 9.31786 14.3276
231 4 -0.596524 9.51511 16.2147
232 1 -0.149804 7.75401 16.5159
233 3 -1.32438 10.1162 17.4577
235 2 0.954213 7.70662 16.6694
238 4 -6.79518 10.1337 10.4417
243 1 -5.8389 9.65544 8.95177
241 2 -6.50584 9.10958 11.7796
242 3 -6.47577 11.6621 10.6303
280 1 -5.02301 10.3747 16.455
236 2 -0.514759 7.37093 15.415
283 2 -4.48627 9.46111 15.9763
234 2 -0.713929 7.20009 17.2916
145 2 -0.158174 9.5595 8.79065
284 2 -6.14395 10.3345 16.3334
288 4 -2.39061 6.42949 8.85972
289 4 -2.25335 8.25351 11.731
291 1 -1.6678 10.0927 11.5831
292 3 -2.25204 7.2852 10.2713
293 1 -1.31582 7.34874 13.0671
294 2 -3.90374 8.37945 12.3403
298 2 -2.12126 10.1617 10.4995
299 2 -0.571409 10.216 11.687
300 2 -2.27981 10.6119 12.4814
301 2 -0.781543 6.45583 12.644
302 2 -1.88918 6.95894 13.9726
303 2 -0.586492 8.16644 13.3861
161 2 -3.76583 4.9527 13.1318
121 2 2.63687 4.42649 15.9618
349 2 -3.6668 10.5487 13.5687
348 1 -3.31983 11.5401 13.94
15 4 5.7064 6.18137 4.13164
16 4 7.30088 6.75982 0.672529
17 4 9.97949 3.87467 7.28879
342 2 14.0911 3.03349 1.6751
61 2 7.12622 2.75224 4.92032
64 2 6.09265 5.65911 1.31417
65 1 8.92849 2.6266 8.4967
66 1 11.1489 2.86197 6.0438
67 1 11.1323 4.83295 8.52913
68 3 5.83193 4.22148 8.41593
71 3 6.916 5.37828 4.76838
72 3 9.15517 4.92576 6.37834
258 2 18.9119 0.0427012 0.391403
141 2 10.6663 -0.769547 6.26668
147 2 9.08687 1.60721 7.9544
148 2 7.84993 3.04806 8.48572
150 2 11.9981 2.58146 6.72635
151 2 11.4548 3.50081 5.18319
152 2 10.5289 1.96248 5.76063
138 2 11.2752 -1.0821 8.72171
157 2 10.1307 6.09261 4.00214
177 4 15.8634 2.07587 7.46369
341 2 15.0375 1.45071 1.14702
223 1 13.0478 6.51194 0.802867
225 2 12.146 5.27682 0.345724
344 1 11.5788 0.0637562 0.94527
372 2 16.5826 -0.477157 4.1653
259 4 12.6948 1.81452 0.385594
262 2 11.4181 1.62052 1.67793
304 4 15.1134 -0.113203 5.02602
305 1 15.2779 0.740521 3.33989
306 3 15.3967 0.943478 6.23565
307 2 14.0776 1.18168 3.53942
308 2 15.3546 0.00977072 2.45697
309 2 16.1062 1.50393 3.56899
370 3 8.46117 6.04192 0.394996
322 2 14.9635 4.50295 5.3343
324 2 15.3916 3.73488 3.63196
331 2 9.94803 -0.175042 2.07381
340 1 14.4599 2.26685 0.782449
317 2 14.2829 3.34405 8.33011
154 2 11.5188 5.6099 7.78094
343 2 16.2245 -0.354672 17.4642
51 1 8.3889 2.88381 13.361
155 2 11.97 4.14124 8.88055
73 1 14.366 4.39452 13.5758
76 3 6.3756 3.43634 15.3356
126 2 8.32116 3.29228 12.2864
127 2 8.76885 1.82399 13.3672
128 2 8.94399 3.59267 14.1065
149 2 9.47427 2.69535 9.47816
160 2 14.6187 3.34482 14.0194
256 2 19.3763 -2.64007 16.2978
169 2 8.36184 4.28906 9.50172
187 1 17.763 0.110166 12.1934
193 2 16.8412 0.233015 11.6366
194 2 17.7002 0.186455 13.3107
195 2 18.4155 -0.8086 11.8522
318 2 15.1667 2.41478 9.81069
260 4 13.3679 0.364617 15.2525
261 4 12.4228 -1.09105 12.2744
263 3 13.6756 -0.645842 16.5941
264 1 14.9374 1.48589 14.7155
265 1 12.0243 1.56371 15.6518
266 3 12.8862 -0.410013 13.865
268 2 12.7134 0.0147732 10.9988
269 1 10.6119 -1.15622 12.1659
270 2 14.9069 1.72893 13.656
271 2 15.8706 0.871117 15.0001
272 2 14.7866 2.36172 15.4179
273 2 11.5626 1.54596 16.6925
274 2 11.254 1.43501 14.7799
275 2 12.6394 2.51284 15.4917
159 2 13.4511 4.39821 12.9204
277 2 10.4319 -0.334006 11.3724
278 2 10.2721 -0.709625 13.2361
153 2 10.5127 5.28069 9.36733
311 2 15.9364 -1.59424 14.0171
312 1 18.1816 -1.30449 15.4503
139 2 13.0681 -1.59544 9.14739
314 2 18.0729 -1.42196 16.6041
315 2 17.6768 -0.324619 15.0671
316 1 14.578 2.33163 8.82866
319 2 13.7485 1.65713 8.9746
313 2 19.204 -1.42559 15.1117
336 2 10.9419 -2.57889 14.3386
14 4 1.01297 11.0259 7.40486
23 4 6.71869 8.84013 2.87477
24 4 3.52871 11.1213 5.42442
25 4 5.31874 11.1614 1.7763
26 4 7.32777 8.01921 7.95893
28 4 6.13287 10.8831 6.74274
229 2 9.52074 11.7309 4.20801
70 1 9.47969 6.96179 4.35334
83 3 6.00846 7.68778 3.78967
84 3 7.93062 7.99712 2.04349
85 3 7.7997 9.70766 3.83989
86 3 3.03661 10.141 4.06916
87 3 3.39002 12.6444 5.18064
88 3 2.53018 10.6776 6.86728
89 3 5.73648 9.74105 2.10121
90 2 4.9066 12.0212 3.16119
92 3 8.06297 7.37795 6.64034
371 3 6.36621 11.9023 0.837921
97 3 7.54145 11.7308 5.8624
98 3 5.03393 10.6514 5.58553
99 3 6.56835 9.48258 7.57454
100 2 5.54992 11.9684 7.9013
91 3 6.17163 6.95892 8.53339
143 2 0.93462 12.2143 5.11235
255 2 8.75684 10.5934 0.815764
156 2 8.8265 7.42118 3.41601
158 2 10.0465 7.70893 4.98189
222 4 11.6067 7.17975 0.185385
224 2 10.1127 7.56537 0.908114
228 4 8.49817 10.6248 4.8987
373 2 3.81499 11.0342 0.973807
230 2 9.74911 9.67886 5.79988
59 1 0.140337 12.2171 5.90893
19 4 8.33604 6.13768 5.6324
346 2 0.915158 13.4817 1.80336
244 2 8.34716 10.9943 8.36124
337 2 8.81397 12.7484 6.61077
123 2 3.93656 7.89575 7.23432
364 2 2.25808 11.6638 0.170669
345 2 -0.0977194 13.8796 0.369452
226 2 13.0314 6.98708 1.92809
347 2 2.05817 13.7782 0.0421567
18 4 6.23312 5.57158 9.37896
20 4 13.5789 5.53918 14.9296
21 4 6.67955 4.87799 16.0559
22 4 10.8564 6.78069 13.3641
27 4 4.71897 9.34246 10.3852
29 4 7.81788 7.16258 14.4145
30 4 7.13093 9.28247 12.5088
69 3 5.21923 5.56943 10.6903
75 3 13.3744 4.69198 16.3745
77 3 8.00997 4.51783 16.9608
78 3 5.35496 5.22895 16.9757
79 1 11.4468 8.71121 13.478
58 1 1.20103 12.1396 9.03595
81 1 11.018 6.05881 11.6253
82 3 12.2174 6.11816 14.208
253 2 11.0181 8.42126 17.0938
333 1 0.576346 10.7045 15.0176
95 1 2.91177 9.81672 10.884
96 2 3.57546 8.03934 10.7151
101 3 6.8908 5.97111 14.9339
102 3 9.34667 6.65355 14.0041
103 3 8.07458 8.38483 15.6593
104 3 8.41701 9.43154 11.6401
105 3 5.85724 9.6382 11.4831
106 3 6.95592 7.74325 13.1683
107 3 6.9495 10.4179 13.675
166 2 10.8678 9.02383 12.5253
140 2 0.816835 11.5754 9.89524
246 2 7.11476 10.9478 9.81856
366 1 5.3314 10.2928 16.1598
245 2 8.54359 11.9793 9.99678
334 2 1.33843 10.0489 14.5423
168 2 8.55341 6.29502 9.66741
252 1 9.36002 10.713 16.8955
171 2 11.9752 5.50447 11.4844
172 2 10.9283 7.1791 11.1075
173 2 10.0859 5.41129 11.4308
175 2 3.47141 11.0407 10.2746
237 4 9.08703 9.47943 10.1164
239 1 8.18415 11.071 9.47628
176 2 2.87459 9.78141 12.0377
250 4 8.7305 8.75381 17.0049
251 1 10.2122 7.61595 17.3001
254 2 10.2943 6.72559 16.6187
267 2 2.42459 11.526 11.7936
367 2 5.32341 9.19398 15.8767
335 2 0.95991 11.1649 16.0282
361 1 3.94185 7.70004 16.9785
368 2 4.36327 10.7712 16.2338
363 2 4.96324 7.86904 16.5877
93 3 8.472 8.29248 9.21501
362 2 3.15406 7.32944 16.1172
240 3 10.7091 9.74402 10.0821
174 2 2.00706 9.57667 10.3123
132 2 4.59084 6.96346 13.0155
94 2 5.29111 9.61179 8.79855
170 2 7.89656 5.33498 11.1746
80 1 8.02944 5.33973 10.0468
369 2 6.02846 10.5255 17.0114
310 4 6.23332 11.3763 14.7767
ITEM: TIMESTEP
100
ITEM: NUMBER OF ATOMS
373
ITEM: BOX BOUNDS xy xz yz pp pp pp
-1.0794400000000000e+01 2.0438599999999997e+01 -1.0794400000000000e+01
-3.1650999999999998e+00 1.4057499999999999e+01 1.3894000000000000e+00
0.0000000000000000e+00 1.7550000000000001e+01 -3.1650999999999998e+00
ITEM: ATOMS id type x y z
3 4 4.95705 1.14373 2.74567
4 4 7.50591 -1.02532 6.44133
5 4 6.0081 1.6131 5.47698
7 4 4.17195 4.04193 2.13633
9 4 4.75353 3.33026 7.70475
10 4 3.33828 5.79026 6.36908
33 3 6.3405 0.548842 2.1048
34 2 3.68233 0.0850064 2.38956
118 2 2.34294 3.51671 0.358241
36 3 4.97177 1.23383 4.3434
37 3 6.82543 0.276153 5.96831
41 3 4.56352 2.56183 2.19404
42 1 2.98571 4.41769 0.680615
43 2 2.47222 4.44465 2.53834
359 2 -0.549518 5.12276 7.20357
46 3 5.34288 2.35704 6.64567
47 2 1.71622 5.6842 5.78706
48 3 3.63878 4.36381 7.14465
62 3 5.19919 5.20323 2.56388
117 2 2.43876 5.37066 0.896113
287 2 5.90137 2.14042 0.33421
356 1 -0.790921 5.32688 8.43642
321 1 -3.34014 4.09899 4.5496
178 4 1.58293 0.113076 6.81526
179 4 -0.287286 2.06812 8.64237
181 1 1.75946 0.841562 5.17619
182 3 -1.79176 2.00828 8.21898
183 3 0.680657 1.12735 7.77106
189 2 0.207298 3.65602 8.47191
190 2 1.24095 0.0909138 4.44541
191 2 2.94145 0.834333 5.09982
192 2 1.28927 1.89718 5.1239
199 4 -0.719404 4.32807 1.098
200 4 -1.67171 5.18021 4.07238
329 1 8.92055 -0.224826 2.70885
203 1 -0.320555 2.49329 0.981652
205 3 -1.18751 4.70062 2.61649
210 2 -0.625191 1.74563 1.78587
211 2 0.906327 2.80636 0.991581
328 2 -0.614859 4.0569 5.70311
320 2 3.10641 -0.207815 7.47828
35 2 7.59824 -1.34571 8.17043
202 2 0.100846 5.64047 0.234829
325 1 -0.0923591 5.11082 5.21925
330 2 8.56432 0.637307 3.38796
327 2 0.723502 4.99174 4.38199
63 3 4.45216 6.06977 5.20893
365 2 9.30987 -0.837085 6.31473
184 2 -3.1859 3.75682 6.51059
61 2 7.13391 2.6308 4.83292
2 4 4.62075 -0.856211 11.0505
6 4 4.81011 0.108581 14.0212
12 4 4.59475 4.74129 12.0384
32 1 6.09349 -0.0231333 10.143
38 3 4.23719 -0.455931 12.5484
39 3 5.36094 -1.19122 15.2853
40 1 3.41084 1.07311 14.8183
50 3 6.02096 1.14528 13.7429
52 1 2.98813 3.89159 11.434
111 2 6.19242 1.07347 10.5107
112 2 6.17785 -0.109044 9.05993
113 2 6.86931 -0.817981 10.8169
114 2 2.52733 0.599767 14.249
115 2 3.5066 2.18805 14.5935
116 2 3.41798 0.848685 15.9537
129 2 2.85144 3.89195 10.33
130 2 2.28424 4.61702 11.9782
131 2 2.93411 2.86548 11.912
180 4 0.191547 1.3119 11.6732
185 2 1.75775 0.77453 11.9801
186 3 -0.0819719 1.72946 10.1536
188 1 -0.185391 2.88142 12.7734
196 2 0.0764565 3.79762 12.2372
197 2 0.578544 2.58502 13.6264
198 2 -1.28679 2.81486 13.065
204 1 -0.361076 2.06025 17.2382
213 2 0.253227 1.99492 16.2864
53 3 5.53447 3.67373 12.8249
215 2 -1.1458 1.15789 17.2924
285 2 7.94009 -0.170179 16.3532
279 4 6.50407 -2.16188 15.654
351 2 6.81303 -2.33986 13.0344
281 1 7.78899 -1.14335 16.8907
45 2 3.96136 2.34948 8.85846
286 2 8.68641 -1.8018 16.9274
212 2 0.760675 -0.952702 17.4637
339 2 4.14043 0.333248 9.86078
119 2 5.22614 1.44004 17.4404
350 2 8.39542 -1.99651 13.8762
357 2 -1.5785 4.36575 9.01649
214 2 -0.954821 2.99506 17.2475
313 2 0.355507 -1.56346 15.2564
11 4 6.55958 2.77037 13.7915
1 4 -3.36911 13.489 1.62
13 4 2.30335 9.09628 3.25207
31 1 -4.1795 11.7054 2.14677
355 2 -3.88612 11.7149 4.25077
55 1 1.31007 7.65265 4.10848
227 2 -5.09508 7.02744 0.738819
57 2 0.421788 9.15369 3.45871
295 2 -2.50202 8.71456 7.69466
60 1 -0.0917854 9.40347 7.6954
297 2 -1.65651 7.29165 6.70361
108 2 -3.47916 10.7995 2.32511
109 2 -4.74691 11.5965 1.15626
110 2 -4.94781 11.8898 3.03937
124 2 3.64208 6.81122 8.45461
125 2 2.65471 7.99586 7.28893
135 2 2.87435 7.22267 3.91847
136 2 0.697007 6.83931 3.6699
137 2 1.17492 7.65385 5.21478
290 1 -2.59734 7.64598 7.30903
142 2 -0.768486 11.6086 5.73875
144 2 -1.21673 9.44734 7.36943
353 2 -4.74519 11.4315 6.10137
146 2 0.529941 8.62136 7.1292
201 4 -2.76838 8.22765 3.93794
206 1 -2.33042 8.96194 2.32271
207 3 -2.16813 6.78649 4.11548
208 1 -4.68829 8.56219 4.52919
209 2 -3.40298 9.27524 5.45548
216 2 -1.83658 8.20955 1.66731
217 2 -1.52813 9.72815 2.82436
218 2 -3.12295 9.56649 1.76025
219 2 -4.87886 8.72368 3.31991
220 2 -5.4588 9.25579 4.96287
221 2 -5.00263 7.50613 4.87764
248 2 -4.84447 9.90524 8.75345
296 2 -3.50326 7.51203 6.56152
332 2 -1.89715 12.7849 3.23528
360 2 -3.89553 6.46325 8.05894
352 1 -3.64498 11.5861 5.35313
249 2 -6.39956 8.80434 8.37519
354 2 -2.73352 10.9568 5.56971
337 2 -10.024 12.7472 6.57452
258 2 -10.5732 13.927 0.311069
326 2 -0.0863904 6.06924 5.89097
167 2 -6.63325 9.30909 13.4178
44 1 2.42671 4.98836 16.7698
282 2 -4.29179 10.3944 17.4824
74 1 -4.17455 6.9219 15.2249
338 2 -1.29174 10.1246 14.7115
122 2 1.68896 5.84436 16.6185
247 2 -5.23384 8.47348 9.96003
134 2 3.13931 6.21612 13.5185
162 2 -3.22258 6.92306 14.5353
163 2 -3.87965 6.8138 16.3077
164 2 -4.89646 7.80617 15.023
257 2 -8.62823 10.262 16.1037
348 1 -3.36433 11.4827 13.9207
358 2 0.0685457 5.75201 9.11751
231 4 -0.566537 9.58272 16.247
232 1 -0.0251576 7.8186 16.3784
233 3 -1.38128 10.1773 17.4689
235 2 1.14 8.06698 16.4096
238 4 -6.90413 10.0701 10.2369
243 1 -5.65553 9.25676 9.19942
241 2 -6.54235 9.29378 11.849
242 3 -6.53052 11.7869 10.4199
280 1 -4.96608 10.367 16.5537
236 2 -0.233162 7.02204 15.5929
283 2 -4.78203 9.39358 15.9716
234 2 -0.382024 7.49712 17.4412
145 2 0.0564421 9.36454 8.80822
284 2 -6.04717 10.5064 16.8325
288 4 -2.27966 6.44749 8.81604
289 4 -2.30582 8.09013 11.7237
291 1 -1.67509 9.94754 11.6781
292 3 -2.25726 7.25903 10.2884
293 1 -1.28062 7.09474 12.947
294 2 -3.81946 8.06337 12.4681
298 2 -1.98647 10.2474 10.6074
299 2 -0.534945 9.90223 11.846
300 2 -2.24837 10.5094 12.4816
301 2 -0.799745 6.21914 12.3315
302 2 -1.97224 6.79273 13.8835
303 2 -0.490127 7.96286 13.1765
161 2 -3.75431 4.77956 13.4464
121 2 2.84324 4.59467 15.7903
349 2 -3.25435 10.3644 14.1328
276 2 -0.698182 11.7114 12.1326
120 2 2.09319 4.19934 17.4866
15 4 5.60017 6.18178 4.16026
316 1 14.2786 2.16832 8.51923
17 4 10.0248 3.88371 7.24089
342 2 14.1527 2.3245 2.03811
224 2 9.91371 6.50015 0.373654
64 2 6.176 6.09357 1.6294
65 1 8.75214 2.5613 8.13276
66 1 11.0037 2.82965 5.91956
67 1 11.2328 4.78774 8.5035
68 3 5.92952 4.18675 8.40107
71 3 7.09133 5.53893 4.67269
72 3 9.16115 4.94854 6.47232
319 2 13.5796 1.32535 8.23823
141 2 10.7504 -0.64572 6.09529
147 2 8.93237 1.62337 7.57067
148 2 7.75721 2.96222 7.93209
150 2 12.1071 2.77619 6.23366
151 2 10.8438 3.08924 4.85684
152 2 10.3714 1.84439 6.22991
323 2 16.1843 3.14092 4.86142
157 2 10.1513 6.06802 4.0374
177 4 15.7374 2.22534 7.34305
341 2 14.7769 1.06798 0.611893
223 1 12.9212 6.58319 0.953458
225 2 12.3427 5.28844 0.104576
344 1 11.6163 0.18428 0.884837
372 2 16.7309 -0.304852 4.25384
259 4 12.6418 1.85396 0.357207
262 2 11.4104 1.99735 1.5697
304 4 15.1605 -0.0265492 5.03149
305 1 15.3998 0.55171 3.22323
306 3 15.3448 1.14079 6.25232
307 2 14.2661 1.33027 3.55299
308 2 15.1446 -0.218453 2.46786
309 2 16.2983 1.16087 2.9218
370 3 8.4297 6.04067 0.333065
343 2 15.1028 2.94681 0.426836
324 2 15.3834 4.20396 3.39639
331 2 9.94028 -0.0249033 2.06247
340 1 14.4363 2.1222 0.891473
317 2 14.0134 3.42495 8.06206
345 2 10.5721 0.229008 0.341997
154 2 11.5997 5.60247 7.79501
322 2 15.0443 4.68187 5.28158
335 2 11.6426 -2.73207 15.902
51 1 8.34626 2.8539 13.0816
155 2 12.0141 4.08762 8.85394
73 1 14.3498 4.24154 13.6415
76 3 6.46185 3.31205 15.3199
126 2 8.13171 3.18726 12.0331
127 2 8.752 1.76166 13.2019
128 2 8.94431 3.6258 13.6857
149 2 8.9962 2.5275 9.2127
160 2 14.5322 3.17524 14.1295
256 2 19.6309 -2.8233 16.3719
169 2 8.21407 4.12469 9.33768
187 1 17.8185 0.0308848 12.1288
193 2 17.0502 -0.0551315 11.2393
194 2 17.3239 0.353896 13.0968
195 2 18.5479 -0.88557 12.2032
318 2 14.7367 2.26702 9.58369
260 4 13.4015 0.452963 15.1604
261 4 12.415 -1.08053 12.2533
263 3 13.6143 -0.509331 16.557
264 1 15.0775 1.38547 14.9654
265 1 11.9259 1.6193 15.5228
266 3 12.9054 -0.30299 13.5547
268 2 13.1607 -0.560713 10.8398
269 1 10.5738 -1.2943 12.4306
270 2 15.4702 1.4874 13.9047
271 2 15.7056 0.682233 15.6047
272 2 14.9959 2.41493 15.4903
273 2 11.703 1.6268 16.6212
274 2 10.9942 1.37193 14.9309
275 2 12.5115 2.55827 15.1253
159 2 13.6761 4.17563 12.7369
277 2 10.3339 -0.422408 11.6019
278 2 10.4861 -1.00045 13.6082
153 2 10.6342 5.20527 9.33156
311 2 15.6985 -1.54976 14.253
312 1 18.3478 -1.42282 15.6427
138 2 11.4487 -1.06955 8.8992
314 2 18.2107 -1.60842 16.7655
315 2 17.8466 -0.47688 15.2785
310 4 16.9699 -2.52965 14.7363
170 2 7.73066 4.80089 11.114
80 1 7.88192 5.06462 9.98988
14 4 1.01334 11.0503 7.31978
23 4 6.64493 8.86702 3.03997
24 4 3.44069 11.0745 5.46701
25 4 5.42738 11.2061 1.88976
26 4 7.21803 8.06663 7.88582
28 4 6.1746 10.8696 6.75134
229 2 9.60604 11.4176 3.94615
70 1 9.43703 6.92507 4.25172
83 3 5.96768 7.65589 3.69311
84 3 7.84374 7.99288 1.91546
85 3 7.64312 9.77331 3.99456
86 3 2.76095 10.3375 4.08274
87 3 3.504 12.7201 5.12557
88 3 2.47458 10.6023 6.72077
89 3 5.66625 9.70294 2.19288
90 2 5.07382 12.0907 3.32832
92 3 7.87018 7.41916 6.44857
371 3 6.52453 11.9514 0.916589
97 3 7.77266 11.6868 6.03972
98 3 4.932 10.612 5.83073
99 3 6.53993 9.54243 7.59675
100 2 5.54025 11.9118 7.94409
91 3 6.11885 7.02603 8.56641
143 2 0.807139 12.1874 5.01067
255 2 8.44317 10.0998 0.622003
156 2 8.83169 7.25119 3.30731
158 2 9.88464 7.80001 4.79462
222 4 11.6065 7.10887 0.0374511
347 2 1.70571 13.7221 0.0940011
228 4 8.52819 10.6372 5.09842
373 2 3.93557 11.1674 1.01761
230 2 9.48735 9.59995 6.02836
59 1 0.144282 12.2838 5.87382
19 4 8.24436 6.17861 5.56173
346 2 0.79349 13.6369 1.85232
244 2 8.51204 11.1723 8.21434
16 4 7.44545 6.97696 0.801784
123 2 4.5447 7.85666 7.10453
364 2 2.32478 11.6995 0.432555
8 4 2.57857 9.05843 0.0251409
226 2 12.4041 6.73091 2.12096
49 1 3.53514 7.32915 7.44433
56 3 2.51118 9.07779 1.6851
253 2 9.91892 11.179 0.0417874
18 4 6.14827 5.51431 9.28829
20 4 13.605 5.48444 14.8695
21 4 6.70966 4.73033 16.0629
22 4 10.8776 6.85099 13.2907
27 4 4.48107 9.69823 10.4086
29 4 7.80228 7.21023 14.483
30 4 7.06392 9.22698 12.4161
69 3 5.23457 5.42023 10.7402
75 3 13.2753 4.63211 16.2801
77 3 8.05293 4.50856 17.1058
78 3 5.2303 5.15512 16.8587
79 1 11.3587 8.88185 13.3279
58 1 1.20081 11.9848 8.99726
81 1 10.9856 6.20909 11.5357
82 3 12.1437 6.16292 14.1108
336 2 0.282264 11.5229 13.9917
333 1 0.444042 10.7754 14.9261
95 1 2.84228 9.85308 11.3697
96 2 2.96232 8.59952 10.1255
101 3 7.00932 5.86363 15.0234
102 3 9.33412 6.78033 13.9731
103 3 8.01426 8.12458 15.9162
104 3 8.45438 9.36429 11.7163
105 3 5.62022 9.23582 11.4228
106 3 7.10372 7.942 13.3137
107 3 6.69466 10.5952 13.5723
166 2 10.7441 9.28217 12.4769
140 2 0.662129 11.2326 9.64958
246 2 7.41926 11.3247 9.71619
366 1 5.54258 10.2777 16.0146
245 2 9.23782 11.9614 9.65749
334 2 1.21385 9.96261 14.5925
168 2 8.49025 5.99588 9.7858
252 1 9.56317 10.4356 16.8286
171 2 11.9883 5.77591 11.232
172 2 10.8222 7.28229 11.0489
173 2 10.0989 5.52468 11.4495
175 2 3.59829 11.3561 11.0015
237 4 8.86456 9.49461 10.0442
239 1 8.49981 11.2497 9.3312
176 2 3.04499 9.4833 12.3579
250 4 8.7471 8.72248 17.1154
251 1 10.3279 7.46546 17.339
254 2 10.4602 6.79357 16.4688
267 2 2.2352 11.3766 12.4401
367 2 5.72519 9.14735 16.09
133 2 4.75059 5.81965 14.3993
361 1 3.94221 7.83729 17.1486
368 2 4.45649 10.4783 15.8977
363 2 4.90451 8.07252 16.5029
93 3 8.39817 8.2155 8.96918
362 2 2.92134 7.69306 16.539
240 3 10.6217 9.63841 9.931
174 2 1.69661 10.0663 11.3261
132 2 4.66696 7.09049 13.0227
139 2 2.26104 12.1313 9.30773
165 2 10.8218 8.91504 14.3719
54 1 4.26995 6.12604 13.4359
369 2 6.07575 10.826 16.8844
94 2 5.08203 9.996 8.88494
ITEM: TIMESTEP
200
ITEM: NUMBER OF ATOMS
373
ITEM: BOX BOUNDS xy xz yz pp pp pp
-1.0794400000000000e+01 2.0438599999999997e+01 -1.0794400000000000e+01
-3.1650999999999998e+00 1.4057499999999999e+01 1.3894000000000000e+00
0.0000000000000000e+00 1.7550000000000001e+01 -3.1650999999999998e+00
ITEM: ATOMS id type x y z
3 4 4.91384 1.19291 2.74422
4 4 7.69314 -1.04542 6.51306
5 4 5.96584 1.58652 5.41644
7 4 4.26839 4.17448 2.02528
9 4 4.74687 3.42583 7.75957
10 4 3.37333 5.72777 6.37696
33 3 6.27095 0.429606 2.17985
34 2 3.55773 0.200035 2.27153
118 2 2.4925 3.62374 0.21682
36 3 4.92805 1.11868 4.35958
37 3 6.92051 0.24011 5.97647
41 3 4.62237 2.64706 2.19587
42 1 2.97392 4.51828 0.644728
43 2 2.5487 4.36475 2.53291
359 2 -0.630513 5.28778 7.29572
46 3 5.2748 2.3916 6.64629
47 2 1.77035 5.45477 5.82889
48 3 3.59179 4.45917 7.33786
62 3 5.18602 5.36023 2.50266
117 2 2.14774 5.36434 0.883109
287 2 5.95535 2.43937 0.118207
356 1 -0.717917 5.45705 8.46272
321 1 -3.17766 4.02594 4.44994
178 4 1.41412 0.192776 6.91474
179 4 -0.350027 2.08019 8.60718
181 1 1.56131 1.04409 5.31689
182 3 -1.85436 2.13 8.10276
183 3 0.682962 1.10807 7.87111
189 2 0.122288 3.66554 8.42595
190 2 1.59715 0.300376 4.48548
191 2 2.6669 1.49625 5.50283
192 2 0.794594 1.8623 5.22591
199 4 -0.733527 4.27235 1.04425
200 4 -1.65214 5.25732 4.10993
329 1 9.07296 -0.26927 2.78233
203 1 -0.474831 2.47691 0.938294
205 3 -1.11803 4.70075 2.6015
210 2 -0.754972 2.14479 2.00101
211 2 0.766974 2.66359 0.752517
328 2 -0.608596 4.13495 5.88084
320 2 2.8591 -0.537546 7.55081
35 2 7.38773 -1.10979 8.09909
202 2 0.077859 5.54781 0.0530786
325 1 -0.0883734 4.99291 5.3306
61 2 6.9903 2.70516 4.69853
327 2 0.78088 4.70034 4.635
63 3 4.31419 5.92688 5.06289
365 2 9.41384 -0.782096 6.48809
184 2 -3.23534 3.86219 6.39097
212 2 -1.06991 1.90998 0.0920258
2 4 4.55911 -1.06792 10.9647
6 4 4.73488 -0.00907307 14.0148
214 2 -0.806038 2.98139 17.4048
32 1 5.94372 -0.0851685 10.1033
38 3 4.38767 -0.620046 12.4734
39 3 5.21692 -1.19215 15.1695
40 1 3.37627 1.08933 14.7511
50 3 6.07102 1.11028 13.8043
52 1 2.86713 4.00323 11.7339
111 2 5.93858 0.9119 10.5837
112 2 5.99618 -0.0856399 8.97697
113 2 6.8006 -0.865858 10.6154
114 2 2.46197 0.626739 14.2772
115 2 3.55832 2.18543 14.4218
116 2 3.3709 0.978519 15.8839
129 2 2.45711 4.21327 10.708
130 2 2.31523 4.59767 12.5508
131 2 2.96528 2.88695 11.9451
180 4 0.093196 1.22548 11.7063
185 2 1.55073 0.332129 11.9595
186 3 -0.118807 1.63065 10.1556
188 1 0.0105312 2.88127 12.7869
196 2 0.157538 3.78816 12.0887
197 2 0.928623 2.69936 13.4461
198 2 -0.930119 2.8445 13.3123
204 1 -0.316306 2.02045 17.0475
213 2 0.135 2.13635 16.0302
53 3 5.39458 3.68682 12.8465
215 2 -1.02512 1.01148 17.1319
285 2 8.01712 -0.105124 16
279 4 6.48075 -2.11374 15.5869
11 4 6.48195 2.67308 13.7894
281 1 7.79672 -1.01451 16.6925
45 2 4.03637 2.49781 9.02505
286 2 8.69908 -1.66856 16.8031
357 2 -1.33889 4.57561 9.03781
339 2 3.97286 0.164471 9.9117
119 2 5.3115 1.81878 17.5121
350 2 8.46195 -2.23888 13.9592
12 4 4.55323 4.83528 12.119
1 4 -3.24396 13.4502 1.76499
13 4 2.16966 9.09274 3.17195
31 1 -4.05058 11.7403 2.23331
355 2 -3.41316 11.6272 4.12342
55 1 1.08321 7.96248 4.23195
227 2 -5.54299 7.27256 1.24659
57 2 0.092969 8.83567 3.50544
295 2 -2.56506 8.95436 7.60016
60 1 -0.230975 9.47927 7.60467
297 2 -1.44646 7.47273 6.75305
108 2 -3.30387 10.7344 2.23087
109 2 -4.76221 11.7634 1.34448
110 2 -4.57886 11.7896 3.22544
282 2 -5.93493 13.7364 0.142156
125 2 2.42621 7.6762 7.36148
135 2 2.70427 7.37792 3.62417
136 2 0.50493 7.00465 4.38999
137 2 1.15788 8.42826 5.21991
290 1 -2.56248 7.82554 7.20625
142 2 -0.773211 12.0563 5.42898
144 2 -1.32757 9.67432 7.86265
353 2 -4.067 10.9699 5.93952
146 2 -0.133235 8.91676 6.63281
201 4 -2.79244 8.26799 3.93861
206 1 -2.13427 9.10599 2.26507
207 3 -2.21152 6.75071 4.23377
208 1 -4.67744 8.24858 4.34337
209 2 -3.14571 9.11117 5.36672
216 2 -1.23905 8.70421 1.65798
217 2 -1.78018 10.0467 2.91567
218 2 -3.08043 9.24273 1.6302
219 2 -4.87094 8.05905 3.11127
220 2 -5.15472 9.19886 4.75859
221 2 -4.87948 7.31642 4.90458
145 2 0.305608 8.90832 8.45714
296 2 -3.44868 7.64783 6.57342
332 2 -1.73883 12.722 3.28068
360 2 -3.75399 6.48037 7.85874
352 1 -3.24745 11.5109 5.41739
249 2 -6.3385 8.69613 8.37797
354 2 -2.1782 11.0159 5.76698
326 2 -0.00116088 6.04316 5.85559
258 2 -10.3844 13.8716 0.164306
288 4 -2.1766 6.63774 8.73672
56 3 2.39803 9.10306 1.55829
124 2 3.74703 6.86517 8.48325
167 2 -6.9292 9.54727 13.7285
44 1 2.48612 5.11752 16.8285
248 2 -5.04317 9.94268 8.95278
74 1 -4.26246 6.94882 15.1472
338 2 -1.38001 10.1982 14.6935
122 2 1.88919 5.9492 16.3506
247 2 -5.11587 8.18761 9.6972
134 2 3.1439 6.31674 13.4995
162 2 -3.34586 7.00143 14.3616
163 2 -3.89933 6.72004 16.1751
164 2 -4.9207 7.84159 15.1636
257 2 -8.52499 10.024 16.0344
348 1 -3.36552 11.2966 13.9514
358 2 0.14281 5.91582 9.01699
231 4 -0.656344 9.55375 16.2491
232 1 0.166375 7.92923 16.4367
233 3 -1.34827 10.1539 17.5492
235 2 1.21164 8.33038 16.7434
238 4 -6.83521 9.9185 10.367
243 1 -5.68169 9.04244 9.23152
241 2 -6.66695 9.11535 11.8839
242 3 -6.55588 11.481 10.4856
280 1 -4.9017 10.4303 16.598
236 2 0.141937 7.27926 15.5008
283 2 -4.44557 9.56247 16.1047
234 2 -0.526542 7.50965 17.317
245 2 -9.76534 12.0658 9.59758
284 2 -6.04175 10.3852 16.5263
351 2 -4.04158 11.5159 13.0871
289 4 -2.28354 7.91336 11.7376
291 1 -1.66983 9.73839 11.703
292 3 -2.22801 7.27923 10.1724
293 1 -1.52857 6.78249 13.1314
294 2 -3.8506 8.25158 12.3246
298 2 -1.64118 10.2193 10.7002
299 2 -0.583788 9.42613 12.0686
300 2 -2.31015 10.3491 12.4999
301 2 -1.72016 5.70306 12.8384
302 2 -1.85309 6.96445 14.243
303 2 -0.438345 7.2242 12.8386
161 2 -3.81795 4.78756 13.3032
121 2 3.08277 4.44601 16.0528
349 2 -3.31978 10.1727 14.1933
276 2 -0.75262 11.7275 12.2241
333 1 0.353025 10.7532 14.9124
120 2 1.85611 4.49007 17.4774
15 4 5.56363 6.21476 4.14975
316 1 14.2979 2.22173 8.35803
17 4 10.0427 3.79261 7.07464
342 2 14.0511 3.23649 1.30791
322 2 15.1275 4.5885 5.05512
64 2 6.46218 5.73589 1.5783
65 1 8.77222 2.65003 8.08177
66 1 11.0884 2.783 5.74635
67 1 11.2583 4.53654 8.4438
68 3 5.9848 4.2722 8.4398
71 3 7.00411 5.50319 4.67111
72 3 9.23275 4.98161 6.3441
319 2 13.4194 1.74597 7.92601
141 2 10.9423 -0.691564 6.29981
147 2 8.74292 1.78774 7.39811
148 2 7.72554 3.17432 8.13091
150 2 12.0923 3.25381 6.06445
151 2 10.8179 3.05209 4.70451
152 2 11.0366 1.67627 5.96334
323 2 16.1325 3.02856 4.87987
157 2 10.1003 5.93406 3.78558
177 4 15.8255 2.30797 7.27649
341 2 14.794 1.40827 1.37932
223 1 12.5185 6.76277 1.25844
225 2 12.3986 5.21677 0.6682
344 1 11.6306 0.175927 0.793695
372 2 16.8298 -0.676234 4.28184
259 4 12.4739 1.97137 0.258461
262 2 11.031 1.91939 1.24551
304 4 15.2975 -0.105846 5.11016
305 1 15.5085 0.109211 3.14219
306 3 15.5808 1.15193 6.21425
307 2 14.5932 1.22051 3.68554
154 2 11.8699 5.22769 7.76986
309 2 16.3625 0.672998 2.70929