LAMMPS (2 Aug 2023 - Update 2)
OMP_NUM_THREADS environment is not set. Defaulting to 1 thread. (src/comm.cpp:98)
  using 1 OpenMP thread(s) per MPI task
Reading data file ...
  triclinic box = (-0.11725316 0.18064571 0.072471758) to (17.289453 12.947254 17.514228) with tilt (-9.1387033 0.71139887 0.62771651)
WARNING: Triclinic box skew is large. LAMMPS will run inefficiently. (src/domain.cpp:220)
  2 by 2 by 2 MPI processor grid
  reading atoms ...
  362 atoms
  reading velocities ...
  362 velocities
Finding 1-2 1-3 1-4 neighbors ...
  special bond factors lj:    0        0        0       
  special bond factors coul:  0        0        0       
     0 = max # of 1-2 neighbors
     0 = max # of 1-3 neighbors
     0 = max # of 1-4 neighbors
     1 = max # of special neighbors
  special bonds CPU = 0.001 seconds
  read_data CPU = 0.016 seconds
*****Minimization starts.*****
Setting up cg style minimization ...
  Unit style    : real
  Current step  : 0
WARNING: No pairwise cutoff or binsize set. Atom sorting therefore disabled. (src/atom.cpp:2366)
WARNING: Communication cutoff is 0.0. No ghost atoms will be generated. Atoms may get lost. (src/comm_brick.cpp:210)
Per MPI rank memory allocation (min/avg/max) = 6.365 | 6.365 | 6.365 Mbytes
   Step          Temp          E_pair         E_mol          TotEng         Press     
         0   300            0              0              322.82173      3807.2662    
         1   300            0              0              322.82173      3807.2662    
Loop time of 7.0455e-05 on 8 procs for 1 steps with 362 atoms

55.9% CPU use with 8 MPI tasks x 1 OpenMP threads

Minimization stats:
  Stopping criterion = search direction is not downhill
  Energy initial, next-to-last, final = 
                     0                  0                  0
  Force two-norm initial, final = 0 0
  Force max component initial, final = 0 0
  Final line search alpha, max atom move = 0 0
  Iterations, force evaluations = 1 0

MPI task timing breakdown:
Section |  min time  |  avg time  |  max time  |%varavg| %total
---------------------------------------------------------------
Pair    | 0          | 0          | 0          |   0.0 |  0.00
Bond    | 1.44e-07   | 2.3575e-07 | 3.49e-07   |   0.0 |  0.33
Neigh   | 0          | 0          | 0          |   0.0 |  0.00
Comm    | 8.99e-07   | 1.3964e-06 | 1.999e-06  |   0.0 |  1.98
Output  | 0          | 0          | 0          |   0.0 |  0.00
Modify  | 0          | 0          | 0          |   0.0 |  0.00
Other   |            | 6.882e-05  |            |       | 97.68

Nlocal:          45.25 ave          54 max          40 min
Histogram: 2 1 1 0 0 3 0 0 0 1
Nghost:              0 ave           0 max           0 min
Histogram: 8 0 0 0 0 0 0 0 0 0
Neighs:              0 ave           0 max           0 min
Histogram: 8 0 0 0 0 0 0 0 0 0

Total # of neighbors = 0
Ave neighs/atom = 0
Ave special neighs/atom = 0
Neighbor list builds = 0
Dangerous builds = 0
WARNING: New thermo_style command, previous thermo_modify settings will be lost (src/output.cpp:903)

CITE-CITE-CITE-CITE-CITE-CITE-CITE-CITE-CITE-CITE-CITE-CITE-CITE

Your simulation uses code contributions which should be cited:
- pair reaxff command: doi:10.1016/j.parco.2011.08.005
- fix qeq/reaxff command: doi:10.1016/j.parco.2011.08.005
The log file lists these citations in BibTeX format.

CITE-CITE-CITE-CITE-CITE-CITE-CITE-CITE-CITE-CITE-CITE-CITE-CITE

Neighbor list info ...
  update: every = 10 steps, delay = 0 steps, check = no
  max neighbors/atom: 2000, page size: 100000
  master list distance cutoff = 12
  ghost atom cutoff = 12
  binsize = 6, bins = 5 3 3
  2 neighbor lists, perpetual/occasional/extra = 2 0 0
  (1) pair reaxff, perpetual
      attributes: half, newton off, ghost
      pair build: half/bin/newtoff/ghost
      stencil: full/ghost/bin/3d
      bin: standard
  (2) fix qeq/reaxff, perpetual, copy from (1)
      attributes: half, newton off
      pair build: copy
      stencil: none
      bin: none
Setting up Verlet run ...
  Unit style    : real
  Current step  : 0
  Time step     : 0.5
Per MPI rank memory allocation (min/avg/max) = 135.2 | 136.1 | 136.7 Mbytes
   Step          Temp          PotEng         Press        f_avgp[1]       Density         Volume    
         0   300           -42447.341     -5763.0753      0              1.6996713      3875.9875    
       100   301.41569     -42452.307     -670.25278      4956.0249      1.6996713      3875.9875    
       200   315.99894     -42470.483     -4813.8138     -5272.5481      1.6996713      3875.9875    
       300   297.17841     -42465.883     -1443.1391     -2721.6756      1.6996713      3875.9875    
       400   306.28627     -42490.254     -7730.2254     -4426.0647      1.6996713      3875.9875    
       500   294.03531     -42479.969      8272.3501      3548.2977      1.6996713      3875.9875    
       600   281.05099     -42458.199      9677.4238      2783.3974      1.6996713      3875.9875    
       700   320.16723     -42468.799      3023.1672      49.172944      1.6996713      3875.9875    
       800   318.1655      -42470.615     -3623.3084     -7852.5248      1.6996713      3875.9875    
       900   298.11353     -42472.687      81.138817     -11962.86       1.6996713      3875.9875    
      1000   290.2176      -42474.958      2757.1445     -1504.1043      1.6996713      3875.9875    
      1100   287.50568     -42468.221      9243.4748     -2363.2577      1.6996713      3875.9875    
      1200   302.98834     -42471.816      10893.721      504.92301      1.6996713      3875.9875    
      1300   300.06865     -42454.031     -4637.7199      5581.4555      1.6996713      3875.9875    
      1400   298.35343     -42461.025      2728.1709     -5511.5237      1.6996713      3875.9875    
      1500   298.21028     -42492.42       7224.1553     -4320.1839      1.6996713      3875.9875    
      1600   275.68346     -42479.073      9930.1479      1837.5345      1.6996713      3875.9875    
      1700   281.08704     -42472.996     -1730.8434     -6720.1454      1.6996713      3875.9875    
      1800   293.50602     -42467.324      15355.18       2421.4287      1.6996713      3875.9875    
      1900   292.37474     -42449.466      2235.9869     -579.70237      1.6996713      3875.9875    
      2000   301.6662      -42464.53      -7955.4271     -4871.7643      1.6996713      3875.9875    
Loop time of 107.835 on 8 procs for 2000 steps with 362 atoms

Performance: 0.801 ns/day, 29.954 hours/ns, 18.547 timesteps/s, 6.714 katom-step/s
98.9% CPU use with 8 MPI tasks x 1 OpenMP threads

MPI task timing breakdown:
Section |  min time  |  avg time  |  max time  |%varavg| %total
---------------------------------------------------------------
Pair    | 63.465     | 84.333     | 91.306     |  91.9 | 78.21
Bond    | 0.00072464 | 0.00084199 | 0.00097084 |   0.0 |  0.00
Neigh   | 4.8249     | 6.3815     | 6.8143     |  24.6 |  5.92
Comm    | 1.4166     | 8.3886     | 29.242     | 291.1 |  7.78
Output  | 0.0011362  | 0.00129    | 0.0018427  |   0.6 |  0.00
Modify  | 8.2424     | 8.6859     | 10.261     |  21.3 |  8.05
Other   |            | 0.04344    |            |       |  0.04

Nlocal:          45.25 ave          52 max          41 min
Histogram: 2 1 2 0 1 0 0 0 0 2
Nghost:        3512.12 ave        3536 max        3491 min
Histogram: 2 1 0 1 1 0 0 0 1 2
Neighs:        29500.8 ave       33758 max       26791 min
Histogram: 2 1 2 0 1 0 0 0 0 2

Total # of neighbors = 236006
Ave neighs/atom = 651.95028
Ave special neighs/atom = 0
Neighbor list builds = 200
Dangerous builds not checked
System init for write_data ...
System init for write_restart ...
OMP_NUM_THREADS environment is not set. Defaulting to 1 thread. (src/comm.cpp:98)
  using 1 OpenMP thread(s) per MPI task
Reading restart file ...
  restart file = 2 Aug 2023, LAMMPS = 2 Aug 2023
  restoring atom style full from restart
  triclinic box = (-0.11725316 0.18064571 0.072471758) to (17.289453 12.947254 17.514228) with tilt (-9.1387033 0.71139887 0.62771651)
WARNING: Triclinic box skew is large. LAMMPS will run inefficiently. (src/domain.cpp:220)
  2 by 2 by 2 MPI processor grid
  pair style reaxff stores no restart info
  362 atoms
Finding 1-2 1-3 1-4 neighbors ...
  special bond factors lj:    0        0        0       
  special bond factors coul:  0        0        0       
     0 = max # of 1-2 neighbors
     0 = max # of 1-3 neighbors
     0 = max # of 1-4 neighbors
     1 = max # of special neighbors
  special bonds CPU = 0.000 seconds
  read_restart CPU = 0.003 seconds
*****Negative-change 1 starts.*****
Resetting global fix info from restart file:
  fix style: nvt, fix ID: 4
Changing box ...
WARNING: Triclinic box skew is large. LAMMPS will run inefficiently. (src/domain.cpp:220)
  triclinic box = (-0.11725316 0.18064571 0.072471758) to (17.115386 12.947254 17.514228) with tilt (-9.1387033 0.71139887 0.62771651)
WARNING: Triclinic box skew is large. LAMMPS will run inefficiently. (src/domain.cpp:220)
  triclinic box = (-0.11725316 0.18064571 0.072471758) to (17.115386 12.947254 17.514228) with tilt (-9.0473163 0.71139887 0.62771651)
WARNING: Triclinic box skew is large. LAMMPS will run inefficiently. (src/domain.cpp:220)
  triclinic box = (-0.11725316 0.18064571 0.072471758) to (17.115386 12.947254 17.514228) with tilt (-9.0473163 0.70428488 0.62771651)
All restart file global fix info was re-assigned
Neighbor list info ...
  update: every = 10 steps, delay = 0 steps, check = no
  max neighbors/atom: 2000, page size: 100000
  master list distance cutoff = 12
  ghost atom cutoff = 12
  binsize = 6, bins = 5 3 3
  2 neighbor lists, perpetual/occasional/extra = 2 0 0
  (1) pair reaxff, perpetual
      attributes: half, newton off, ghost
      pair build: half/bin/newtoff/ghost
      stencil: full/ghost/bin/3d
      bin: standard
  (2) fix qeq/reaxff, perpetual, copy from (1)
      attributes: half, newton off
      pair build: copy
      stencil: none
      bin: none
Setting up Verlet run ...
  Unit style    : real
  Current step  : 0
  Time step     : 0.5
Per MPI rank memory allocation (min/avg/max) = 135.2 | 136.1 | 137.1 Mbytes
   Step          Temp          PotEng         Press        f_avgp[1]        Volume    
         0   301.6662      -42450.669      39238.408      0              3837.2276    
       100   289.44556     -42464.961     -2738.8269      4210.8608      3837.2276    
       200   273.45097     -42456.222      5869.4965     -184.64522      3837.2276    
       300   295.00435     -42474.141      3622.9289      4030.6485      3837.2276    
       400   283.17792     -42455.38      -1875.6478      6252.5762      3837.2276    
       500   321.84796     -42475.298     -6213.1427      6540.0498      3837.2276    
       600   314.07866     -42443.342      3674.4678      4205.4067      3837.2276    
       700   320.25566     -42437.692      1563.7551      3701.3604      3837.2276    
       800   292.03371     -42443.687     -1068.4352      6987.5416      3837.2276    
       900   306.21405     -42484.698      7197.1037      2107.4372      3837.2276    
      1000   294.06817     -42485.301      9039.2999      8389.9341      3837.2276    
      1100   276.59521     -42464.818      8957.0499      11325.147      3837.2276    
      1200   299.08574     -42454.36       5076.7399      867.17078      3837.2276    
      1300   292.18032     -42439.634      2862.0362      3946.9508      3837.2276    
      1400   301.84697     -42455.426      5956.5659      1526.2756      3837.2276    
      1500   299.51151     -42473.913      7597.9551      2666.3018      3837.2276    
      1600   272.6799      -42477.247      4105.885       6517.8067      3837.2276    
      1700   274.37243     -42478.324      8176.72        6983.2644      3837.2276    
      1800   301.82691     -42490.986      5781.6926      3133.0128      3837.2276    
      1900   299.6076      -42474.185      560.08074      3356.5718      3837.2276    
      2000   318.96398     -42477.946      707.58017      6282.4111      3837.2276    
Loop time of 108.622 on 8 procs for 2000 steps with 362 atoms

Performance: 0.795 ns/day, 30.173 hours/ns, 18.412 timesteps/s, 6.665 katom-step/s
99.0% CPU use with 8 MPI tasks x 1 OpenMP threads

MPI task timing breakdown:
Section |  min time  |  avg time  |  max time  |%varavg| %total
---------------------------------------------------------------
Pair    | 65.494     | 81.328     | 91.624     | 122.0 | 74.87
Bond    | 0.00071065 | 0.00083131 | 0.0009114  |   0.0 |  0.00
Neigh   | 4.8562     | 6.1389     | 6.9305     |  33.4 |  5.65
Comm    | 1.7409     | 12.039     | 27.867     | 316.8 | 11.08
Output  | 0.0048935  | 0.0059269  | 0.0066853  |   0.8 |  0.01
Modify  | 8.2598     | 9.0656     | 10.358     |  27.8 |  8.35
Other   |            | 0.04422    |            |       |  0.04

Nlocal:          45.25 ave          50 max          39 min
Histogram: 1 1 0 0 2 0 1 0 0 3
Nghost:        3538.88 ave        3558 max        3520 min
Histogram: 1 2 0 1 0 0 1 0 2 1
Neighs:        29817.5 ave       32734 max       25835 min
Histogram: 1 1 0 0 2 0 1 0 0 3

Total # of neighbors = 238540
Ave neighs/atom = 658.95028
Ave special neighs/atom = 0
Neighbor list builds = 200
Dangerous builds not checked
*****Equilibration neg1 starts.*****
WARNING: New thermo_style command, previous thermo_modify settings will be lost (src/output.cpp:903)
Neighbor list info ...
  update: every = 10 steps, delay = 0 steps, check = no
  max neighbors/atom: 2000, page size: 100000
  master list distance cutoff = 12
  ghost atom cutoff = 12
  binsize = 6, bins = 5 3 3
  2 neighbor lists, perpetual/occasional/extra = 2 0 0
  (1) pair reaxff, perpetual
      attributes: half, newton off, ghost
      pair build: half/bin/newtoff/ghost
      stencil: full/ghost/bin/3d
      bin: standard
  (2) fix qeq/reaxff, perpetual, copy from (1)
      attributes: half, newton off
      pair build: copy
      stencil: none
      bin: none
Setting up Verlet run ...
  Unit style    : real
  Current step  : 0
  Time step     : 0.5
Per MPI rank memory allocation (min/avg/max) = 135.2 | 136.1 | 137 Mbytes
   Step          Temp          PotEng         Press        f_avgp[1]        Volume    
         0   318.96398     -42477.946      707.66752      0              3837.2276    
       100   309.12073     -42476.607      4539.4369      3553.7255      3837.2276    
       200   281.1533      -42478.991      5396.7497      3710.7058      3837.2276    
       300   273.37103     -42478.081      18495.252      6783.1526      3837.2276    
       400   279.46547     -42470.464     -1772.109       4532.7347      3837.2276    
       500   298.42555     -42481.585     -10473.959      2611.2999      3837.2276    
       600   294.25528     -42462.398      13888.931      1059.1233      3837.2276    
       700   313.85994     -42464.253      5540.7505      1640.6728      3837.2276    
       800   312.15466     -42473.86       9089.4868      4920.4478      3837.2276    
       900   280.25219     -42483.546     -1326.9732      2439.2079      3837.2276    
      1000   297.37338     -42491.592      13497.797      10027.972      3837.2276    
      1100   306.62942     -42477.48       23966.318      6947.4731      3837.2276    
      1200   304.08025     -42465.472      3069.975       2723.299       3837.2276    
      1300   302.4164      -42475.793      10091.42       897.02483      3837.2276    
      1400   271.21844     -42471.413      9421.3531      1832.9454      3837.2276    
      1500   292.80412     -42511.149      5431.5911      6013.2483      3837.2276    
      1600   288.75401     -42486.279     -888.7373       3036.1891      3837.2276    
      1700   312.02037     -42485.975     -11132.02       6575.9642      3837.2276    
      1800   301.24294     -42468.847      12830.45       5851.5561      3837.2276    
      1900   302.63081     -42468.032     -1249.1031      86.67207       3837.2276    
      2000   306.16223     -42485.516      5536.9659      982.68091      3837.2276    
Loop time of 109.779 on 8 procs for 2000 steps with 362 atoms

Performance: 0.787 ns/day, 30.494 hours/ns, 18.218 timesteps/s, 6.595 katom-step/s
99.0% CPU use with 8 MPI tasks x 1 OpenMP threads

MPI task timing breakdown:
Section |  min time  |  avg time  |  max time  |%varavg| %total
---------------------------------------------------------------
Pair    | 64.245     | 84.696     | 93.05      | 108.3 | 77.15
Bond    | 0.00073389 | 0.00081349 | 0.00089137 |   0.0 |  0.00
Neigh   | 4.8618     | 6.4858     | 7.2847     |  31.3 |  5.91
Comm    | 1.0654     | 9.3984     | 29.86      | 325.0 |  8.56
Output  | 0.00089081 | 0.00108    | 0.0020808  |   1.2 |  0.00
Modify  | 8.3304     | 9.1528     | 10.771     |  26.6 |  8.34
Other   |            | 0.04436    |            |       |  0.04

Nlocal:          45.25 ave          51 max          40 min
Histogram: 1 1 0 2 1 1 0 0 0 2
Nghost:        3519.38 ave        3544 max        3487 min
Histogram: 1 1 0 0 1 0 2 0 2 1
Neighs:        29788.5 ave       33351 max       26392 min
Histogram: 1 1 0 2 1 1 0 0 0 2

Total # of neighbors = 238308
Ave neighs/atom = 658.30939
Ave special neighs/atom = 0
Neighbor list builds = 200
Dangerous builds not checked
OMP_NUM_THREADS environment is not set. Defaulting to 1 thread. (src/comm.cpp:98)
  using 1 OpenMP thread(s) per MPI task
Reading restart file ...
  restart file = 2 Aug 2023, LAMMPS = 2 Aug 2023
  restoring atom style full from restart
  triclinic box = (-0.11725316 0.18064571 0.072471758) to (17.289453 12.947254 17.514228) with tilt (-9.1387033 0.71139887 0.62771651)
WARNING: Triclinic box skew is large. LAMMPS will run inefficiently. (src/domain.cpp:220)
  2 by 2 by 2 MPI processor grid
  pair style reaxff stores no restart info
  362 atoms
Finding 1-2 1-3 1-4 neighbors ...
  special bond factors lj:    0        0        0       
  special bond factors coul:  0        0        0       
     0 = max # of 1-2 neighbors
     0 = max # of 1-3 neighbors
     0 = max # of 1-4 neighbors
     1 = max # of special neighbors
  special bonds CPU = 0.000 seconds
  read_restart CPU = 0.004 seconds
*****Positive-change 1 starts.*****
Resetting global fix info from restart file:
  fix style: nvt, fix ID: 4
Changing box ...
WARNING: Triclinic box skew is large. LAMMPS will run inefficiently. (src/domain.cpp:220)
  triclinic box = (-0.11725316 0.18064571 0.072471758) to (17.46352 12.947254 17.514228) with tilt (-9.1387033 0.71139887 0.62771651)
WARNING: Triclinic box skew is large. LAMMPS will run inefficiently. (src/domain.cpp:220)
  triclinic box = (-0.11725316 0.18064571 0.072471758) to (17.46352 12.947254 17.514228) with tilt (-9.2300903 0.71139887 0.62771651)
WARNING: Triclinic box skew is large. LAMMPS will run inefficiently. (src/domain.cpp:220)
  triclinic box = (-0.11725316 0.18064571 0.072471758) to (17.46352 12.947254 17.514228) with tilt (-9.2300903 0.71851286 0.62771651)
All restart file global fix info was re-assigned
Neighbor list info ...
  update: every = 10 steps, delay = 0 steps, check = no
  max neighbors/atom: 2000, page size: 100000
  master list distance cutoff = 12
  ghost atom cutoff = 12
  binsize = 6, bins = 5 3 3
  2 neighbor lists, perpetual/occasional/extra = 2 0 0
  (1) pair reaxff, perpetual
      attributes: half, newton off, ghost
      pair build: half/bin/newtoff/ghost
      stencil: full/ghost/bin/3d
      bin: standard
  (2) fix qeq/reaxff, perpetual, copy from (1)
      attributes: half, newton off
      pair build: copy
      stencil: none
      bin: none
Setting up Verlet run ...
  Unit style    : real
  Current step  : 0
  Time step     : 0.5
Per MPI rank memory allocation (min/avg/max) = 134.3 | 135.1 | 135.9 Mbytes
   Step          Temp          PotEng         Press        f_avgp[1]        Volume    
         0   301.6662      -42438.748     -55437.054      0              3914.7473    
       100   299.32142     -42463.737     -28448.732     -11912.924      3914.7473    
       200   276.52556     -42449.748      2835.4561     -10222.022      3914.7473    
       300   289.33019     -42460.132     -449.30804     -8478.0293      3914.7473    
       400   281.08238     -42444.729     -3932.8795     -4254.8402      3914.7473    
       500   327.9102      -42468.209      2013.3586     -6672.2976      3914.7473    
       600   315.43018     -42443.275     -4196.8465     -5368.5034      3914.7473    
       700   294.22813     -42435.804     -9185.1867     -12442.129      3914.7473    
       800   284.60605     -42456.655     -2342.0598     -9894.4109      3914.7473    
       900   304.42096     -42481.465     -1003.422      -5398.8117      3914.7473    
      1000   285.72463     -42451.064      4816.3694     -6864.7388      3914.7473    
      1100   293.86752     -42443.521     -10063.728     -6911.5264      3914.7473    
      1200   315.80679     -42442.729     -126.67886     -9160.1025      3914.7473    
      1300   304.34089     -42431.137     -20064.088     -8293.2769      3914.7473    
      1400   291.7928      -42456.146     -16730.872     -11053.493      3914.7473    
      1500   305.08549     -42478.715     -8981.1191     -7797.1389      3914.7473    
      1600   300.75744     -42470.708     -3383.5496     -5889.4174      3914.7473    
      1700   312.40915     -42478.522      5600.073      -8474.4687      3914.7473    
      1800   297.39971     -42449.305     -14756.849     -6401.3023      3914.7473    
      1900   312.59276     -42442.579     -12997.711     -10734.345      3914.7473    
      2000   318.22645     -42459.761      5963.7959     -4013.7585      3914.7473    
Loop time of 108.193 on 8 procs for 2000 steps with 362 atoms

Performance: 0.799 ns/day, 30.054 hours/ns, 18.485 timesteps/s, 6.692 katom-step/s
98.9% CPU use with 8 MPI tasks x 1 OpenMP threads

MPI task timing breakdown:
Section |  min time  |  avg time  |  max time  |%varavg| %total
---------------------------------------------------------------
Pair    | 86.265     | 89.024     | 91.32      |  17.7 | 82.28
Bond    | 0.00069114 | 0.00080292 | 0.00093008 |   0.0 |  0.00
Neigh   | 6.7041     | 6.9067     | 7.1789     |   6.7 |  6.38
Comm    | 1.195      | 3.4814     | 6.2242     |  88.9 |  3.22
Output  | 0.0044112  | 0.0053768  | 0.0061179  |   0.8 |  0.00
Modify  | 8.442      | 8.7299     | 8.9461     |   6.4 |  8.07
Other   |            | 0.04484    |            |       |  0.04

Nlocal:          45.25 ave          53 max          40 min
Histogram: 2 0 1 0 3 1 0 0 0 1
Nghost:        3497.75 ave        3514 max        3477 min
Histogram: 1 1 0 1 0 1 0 2 0 2
Neighs:        29189.5 ave       33933 max       25848 min
Histogram: 1 1 1 0 3 1 0 0 0 1

Total # of neighbors = 233516
Ave neighs/atom = 645.07182
Ave special neighs/atom = 0
Neighbor list builds = 200
Dangerous builds not checked
*****Equilibration pos1 starts.*****
WARNING: New thermo_style command, previous thermo_modify settings will be lost (src/output.cpp:903)
Neighbor list info ...
  update: every = 10 steps, delay = 0 steps, check = no
  max neighbors/atom: 2000, page size: 100000
  master list distance cutoff = 12
  ghost atom cutoff = 12
  binsize = 6, bins = 5 3 3
  2 neighbor lists, perpetual/occasional/extra = 2 0 0
  (1) pair reaxff, perpetual
      attributes: half, newton off, ghost
      pair build: half/bin/newtoff/ghost
      stencil: full/ghost/bin/3d
      bin: standard
  (2) fix qeq/reaxff, perpetual, copy from (1)
      attributes: half, newton off
      pair build: copy
      stencil: none
      bin: none
Setting up Verlet run ...
  Unit style    : real
  Current step  : 0
  Time step     : 0.5
Per MPI rank memory allocation (min/avg/max) = 134.2 | 135.1 | 135.9 Mbytes
   Step          Temp          PotEng         Press        f_avgp[1]        Volume    
         0   318.22645     -42459.761      5963.7772      0              3914.7473    
       100   302.36262     -42458.542     -13746.598     -4461.1418      3914.7473    
       200   297.53885     -42481.245     -4881.4871     -7765.5492      3914.7473    
       300   290.02058     -42470.051      1237.9859     -5822.4696      3914.7473    
       400   317.05001     -42484.345     -247.93721     -2465.6309      3914.7473    
       500   307.06091     -42464.003     -11314.136     -6527.736       3914.7473    
       600   322.48712     -42454.561      9162.7381     -6741.4397      3914.7473    
       700   318.19782     -42429.087      15914.802     -9516.3039      3914.7473    
       800   304.4622      -42446.035     -14343.164     -13061.399      3914.7473    
       900   303.93529     -42462.669      783.01699     -3187.4443      3914.7473    
      1000   308.88483     -42474.625     -10234.612     -9917.5081      3914.7473    
      1100   308.21242     -42476.864      2929.622      -4430.1905      3914.7473    
      1200   302.07833     -42466.638     -10898.019     -9664.4175      3914.7473    
      1300   313.65391     -42461.563     -1226.1178     -9504.3467      3914.7473    
      1400   314.59311     -42451.512     -7396.2989     -6106.9776      3914.7473    
      1500   292.54661     -42447.435     -3124.7731     -4412.6748      3914.7473    
      1600   279.39547     -42457.234     -8342.5796     -703.87922      3914.7473    
      1700   282.9652      -42462.046     -2493.3143     -6037.9848      3914.7473    
      1800   319.19849     -42468.045      1409.6708     -6753.1718      3914.7473    
      1900   313.40517     -42451.455      6003.0278     -7442.2391      3914.7473    
      2000   296.14193     -42438.799     -12679.131     -11268.718      3914.7473    
Loop time of 108.276 on 8 procs for 2000 steps with 362 atoms

Performance: 0.798 ns/day, 30.077 hours/ns, 18.471 timesteps/s, 6.687 katom-step/s
98.8% CPU use with 8 MPI tasks x 1 OpenMP threads

MPI task timing breakdown:
Section |  min time  |  avg time  |  max time  |%varavg| %total
---------------------------------------------------------------
Pair    | 64.181     | 86.521     | 91.693     |  92.5 | 79.91
Bond    | 0.00069863 | 0.00080859 | 0.00092854 |   0.0 |  0.00
Neigh   | 5.1028     | 6.7162     | 7.2072     |  24.4 |  6.20
Comm    | 0.93793    | 6.0892     | 28.416     | 348.5 |  5.62
Output  | 0.00089028 | 0.0010426  | 0.0015323  |   0.6 |  0.00
Modify  | 8.403      | 8.9039     | 10.536     |  21.5 |  8.22
Other   |            | 0.04434    |            |       |  0.04

Nlocal:          45.25 ave          50 max          42 min
Histogram: 1 1 2 2 0 0 0 0 1 1
Nghost:        3503.75 ave        3530 max        3472 min
Histogram: 1 1 0 0 1 1 1 1 0 2
Neighs:        29179.8 ave       32161 max       27138 min
Histogram: 1 1 2 2 0 0 0 0 1 1

Total # of neighbors = 233438
Ave neighs/atom = 644.85635
Ave special neighs/atom = 0
Neighbor list builds = 200
Dangerous builds not checked
OMP_NUM_THREADS environment is not set. Defaulting to 1 thread. (src/comm.cpp:98)
  using 1 OpenMP thread(s) per MPI task
Reading restart file ...
  restart file = 2 Aug 2023, LAMMPS = 2 Aug 2023
  restoring atom style full from restart
  triclinic box = (-0.11725316 0.18064571 0.072471758) to (17.289453 12.947254 17.514228) with tilt (-9.1387033 0.71139887 0.62771651)
WARNING: Triclinic box skew is large. LAMMPS will run inefficiently. (src/domain.cpp:220)
  2 by 2 by 2 MPI processor grid
  pair style reaxff stores no restart info
  362 atoms
Finding 1-2 1-3 1-4 neighbors ...
  special bond factors lj:    0        0        0       
  special bond factors coul:  0        0        0       
     0 = max # of 1-2 neighbors
     0 = max # of 1-3 neighbors
     0 = max # of 1-4 neighbors
     1 = max # of special neighbors
  special bonds CPU = 0.000 seconds
  read_restart CPU = 0.003 seconds
*****Negative-change 2 starts.*****
Resetting global fix info from restart file:
  fix style: nvt, fix ID: 4
Changing box ...
WARNING: Triclinic box skew is large. LAMMPS will run inefficiently. (src/domain.cpp:220)
  triclinic box = (-0.11725316 0.18064571 0.072471758) to (17.289453 12.819588 17.514228) with tilt (-9.1387033 0.71139887 0.62771651)
WARNING: Triclinic box skew is large. LAMMPS will run inefficiently. (src/domain.cpp:220)
  triclinic box = (-0.11725316 0.18064571 0.072471758) to (17.289453 12.819588 17.514228) with tilt (-9.1387033 0.71139887 0.62143935)
All restart file global fix info was re-assigned
Neighbor list info ...
  update: every = 10 steps, delay = 0 steps, check = no
  max neighbors/atom: 2000, page size: 100000
  master list distance cutoff = 12
  ghost atom cutoff = 12
  binsize = 6, bins = 5 3 3
  2 neighbor lists, perpetual/occasional/extra = 2 0 0
  (1) pair reaxff, perpetual
      attributes: half, newton off, ghost
      pair build: half/bin/newtoff/ghost
      stencil: full/ghost/bin/3d
      bin: standard
  (2) fix qeq/reaxff, perpetual, copy from (1)
      attributes: half, newton off
      pair build: copy
      stencil: none
      bin: none
Setting up Verlet run ...
  Unit style    : real
  Current step  : 0
  Time step     : 0.5
Per MPI rank memory allocation (min/avg/max) = 136.3 | 137.1 | 138.1 Mbytes
   Step          Temp          PotEng         Press        f_avgp[1]        Volume    
         0   301.6662      -42454.233      37773.141      0              3837.2276    
       100   295.04031     -42473.357     -439.46404     -1491.3494      3837.2276    
       200   273.6905      -42459.556      623.07144     -3157.8492      3837.2276    
       300   290.74732     -42472.261      5282.2856     -1504.12        3837.2276    
       400   287.27135     -42456.223      9041.1416      2946.9329      3837.2276    
       500   296.98956     -42451.414      7003.1463      5638.4457      3837.2276    
       600   307.36335     -42461.766      7731.8533      2345.3477      3837.2276    
       700   291.92378     -42474.143      3312.0354     -1952.4184      3837.2276    
       800   278.18258     -42479.63       4073.3545     -1653.8075      3837.2276    
       900   292.19056     -42480.546      6902.7173      810.39893      3837.2276    
      1000   311.22996     -42478.859      3142.1423      581.34496      3837.2276    
      1100   299.87991     -42456.139      4045.4636      6011.7333      3837.2276    
      1200   305.08096     -42465.303     -4218.774       1542.4977      3837.2276    
      1300   305.59455     -42475.137     -10394.879     -1540.6373      3837.2276    
      1400   287.95942     -42462.22       141.95897     -6787.207       3837.2276    
      1500   318.42514     -42462.949      6406.3221     -136.14157      3837.2276    
      1600   308.15152     -42431.371      10640.106      3031.6736      3837.2276    
      1700   315.30622     -42460.578      14956.307     -1864.8292      3837.2276    
      1800   315.07779     -42476.207     -6428.1639     -2234.8626      3837.2276    
      1900   309.40579     -42481.6        6724.7285     -911.32369      3837.2276    
      2000   293.33819     -42475.383     -1620.5084     -1154.3845      3837.2276    
Loop time of 111.729 on 8 procs for 2000 steps with 362 atoms

Performance: 0.773 ns/day, 31.036 hours/ns, 17.900 timesteps/s, 6.480 katom-step/s
98.9% CPU use with 8 MPI tasks x 1 OpenMP threads

MPI task timing breakdown:
Section |  min time  |  avg time  |  max time  |%varavg| %total
---------------------------------------------------------------
Pair    | 62.154     | 88.863     | 94.551     | 109.0 | 79.53
Bond    | 0.00068041 | 0.00082383 | 0.00092155 |   0.0 |  0.00
Neigh   | 4.9378     | 6.8348     | 7.4102     |  28.5 |  6.12
Comm    | 1.2106     | 6.8778     | 33.572     | 391.4 |  6.16
Output  | 0.0045414  | 0.0056056  | 0.006392   |   0.9 |  0.01
Modify  | 8.5205     | 9.1019     | 11.019     |  25.0 |  8.15
Other   |            | 0.04542    |            |       |  0.04

Nlocal:          45.25 ave          54 max          40 min
Histogram: 1 3 0 1 0 1 1 0 0 1
Nghost:        3543.25 ave        3565 max        3518 min
Histogram: 1 0 1 1 0 1 1 2 0 1
Neighs:        29794.4 ave       35280 max       26512 min
Histogram: 1 3 0 1 0 1 1 0 0 1

Total # of neighbors = 238355
Ave neighs/atom = 658.43923
Ave special neighs/atom = 0
Neighbor list builds = 200
Dangerous builds not checked
*****Equilibration neg2 starts.*****
WARNING: New thermo_style command, previous thermo_modify settings will be lost (src/output.cpp:903)
Neighbor list info ...
  update: every = 10 steps, delay = 0 steps, check = no
  max neighbors/atom: 2000, page size: 100000
  master list distance cutoff = 12
  ghost atom cutoff = 12
  binsize = 6, bins = 5 3 3
  2 neighbor lists, perpetual/occasional/extra = 2 0 0
  (1) pair reaxff, perpetual
      attributes: half, newton off, ghost
      pair build: half/bin/newtoff/ghost
      stencil: full/ghost/bin/3d
      bin: standard
  (2) fix qeq/reaxff, perpetual, copy from (1)
      attributes: half, newton off
      pair build: copy
      stencil: none
      bin: none
Setting up Verlet run ...
  Unit style    : real
  Current step  : 0
  Time step     : 0.5
Per MPI rank memory allocation (min/avg/max) = 136.2 | 137.1 | 138.1 Mbytes
   Step          Temp          PotEng         Press        f_avgp[1]        Volume    
         0   293.33819     -42475.383     -1620.5369      0              3837.2276    
       100   291.07215     -42464.491     -5206.2119      5719.8177      3837.2276    
       200   306.64778     -42453.694      5155.9619      2856.0684      3837.2276    
       300   319.26416     -42440.022      5598.9827      410.17161      3837.2276    
       400   318.02838     -42443.83       2724.0891     -560.50988      3837.2276    
       500   313.92395     -42486.706      7657.3686     -2696.5084      3837.2276    
       600   294.27241     -42479.199      2419.4259      105.12976      3837.2276    
       700   299.38405     -42481.897      6458.645      -3338.4685      3837.2276    
       800   288.09857     -42448.278      864.25263      559.06588      3837.2276    
       900   319.53844     -42457.662      3546.9938     -311.97743      3837.2276    
      1000   308.05036     -42446.9       -2530.1869     -795.48666      3837.2276    
      1100   316.12548     -42469.476      4902.3109      2517.8727      3837.2276    
      1200   311.99701     -42473.486     -2792.2059      4511.9482      3837.2276    
      1300   284.47611     -42448.441     -4621.802      -35.359535      3837.2276    
      1400   286.09345     -42455.165     -667.40576     -3994.6576      3837.2276    
      1500   311.88835     -42478.172      9832.8464     -4976.7065      3837.2276    
      1600   300.61104     -42443.131     -2771.7174     -267.99565      3837.2276    
      1700   315.26629     -42436.595     -250.06195     -881.57662      3837.2276    
      1800   312.58352     -42448.416      10707.783      1310.3661      3837.2276    
      1900   302.21499     -42473.736     -1558.4705      1560.0401      3837.2276    
      2000   283.42276     -42458.51       1904.2392     -3491.2138      3837.2276    
Loop time of 112.512 on 8 procs for 2000 steps with 362 atoms

Performance: 0.768 ns/day, 31.253 hours/ns, 17.776 timesteps/s, 6.435 katom-step/s
98.5% CPU use with 8 MPI tasks x 1 OpenMP threads

MPI task timing breakdown:
Section |  min time  |  avg time  |  max time  |%varavg| %total
---------------------------------------------------------------
Pair    | 64.037     | 86.808     | 94.289     | 101.6 | 77.15
Bond    | 0.00068839 | 0.00081694 | 0.00092676 |   0.0 |  0.00
Neigh   | 5.0014     | 6.6201     | 7.188      |  25.7 |  5.88
Comm    | 1.992      | 9.4074     | 32.21      | 309.2 |  8.36
Output  | 0.00098167 | 0.0011324  | 0.0018101  |   0.8 |  0.00
Modify  | 8.9881     | 9.6306     | 11.223     |  21.0 |  8.56
Other   |            | 0.0443     |            |       |  0.04

Nlocal:          45.25 ave          50 max          40 min
Histogram: 1 0 0 2 0 1 0 3 0 1
Nghost:        3546.62 ave        3581 max        3523 min
Histogram: 3 0 0 1 0 2 1 0 0 1
Neighs:        29821.4 ave       32904 max       26581 min
Histogram: 1 0 2 0 1 0 3 0 0 1

Total # of neighbors = 238571
Ave neighs/atom = 659.03591
Ave special neighs/atom = 0
Neighbor list builds = 200
Dangerous builds not checked
OMP_NUM_THREADS environment is not set. Defaulting to 1 thread. (src/comm.cpp:98)
  using 1 OpenMP thread(s) per MPI task
Reading restart file ...
  restart file = 2 Aug 2023, LAMMPS = 2 Aug 2023
  restoring atom style full from restart
  triclinic box = (-0.11725316 0.18064571 0.072471758) to (17.289453 12.947254 17.514228) with tilt (-9.1387033 0.71139887 0.62771651)
WARNING: Triclinic box skew is large. LAMMPS will run inefficiently. (src/domain.cpp:220)
  2 by 2 by 2 MPI processor grid
  pair style reaxff stores no restart info
  362 atoms
Finding 1-2 1-3 1-4 neighbors ...
  special bond factors lj:    0        0        0       
  special bond factors coul:  0        0        0       
     0 = max # of 1-2 neighbors
     0 = max # of 1-3 neighbors
     0 = max # of 1-4 neighbors
     1 = max # of special neighbors
  special bonds CPU = 0.000 seconds
  read_restart CPU = 0.003 seconds
*****Positive-change 2 starts.*****
Resetting global fix info from restart file:
  fix style: nvt, fix ID: 4
Changing box ...
WARNING: Triclinic box skew is large. LAMMPS will run inefficiently. (src/domain.cpp:220)
  triclinic box = (-0.11725316 0.18064571 0.072471758) to (17.289453 13.07492 17.514228) with tilt (-9.1387033 0.71139887 0.62771651)
WARNING: Triclinic box skew is large. LAMMPS will run inefficiently. (src/domain.cpp:220)
  triclinic box = (-0.11725316 0.18064571 0.072471758) to (17.289453 13.07492 17.514228) with tilt (-9.1387033 0.71139887 0.63399368)
All restart file global fix info was re-assigned
Neighbor list info ...
  update: every = 10 steps, delay = 0 steps, check = no
  max neighbors/atom: 2000, page size: 100000
  master list distance cutoff = 12
  ghost atom cutoff = 12
  binsize = 6, bins = 5 3 3
  2 neighbor lists, perpetual/occasional/extra = 2 0 0
  (1) pair reaxff, perpetual
      attributes: half, newton off, ghost
      pair build: half/bin/newtoff/ghost
      stencil: full/ghost/bin/3d
      bin: standard
  (2) fix qeq/reaxff, perpetual, copy from (1)
      attributes: half, newton off
      pair build: copy
      stencil: none
      bin: none
Setting up Verlet run ...
  Unit style    : real
  Current step  : 0
  Time step     : 0.5
Per MPI rank memory allocation (min/avg/max) = 133.7 | 134.9 | 135.9 Mbytes
   Step          Temp          PotEng         Press        f_avgp[1]        Volume    
         0   301.6662      -42438.723     -52171.395      0              3914.7473    
       100   298.99293     -42464.032     -18467.319     -6760.0986      3914.7473    
       200   287.43177     -42462.074     -1899.6834     -8076.7988      3914.7473    
       300   308.10359     -42480.184     -5856.8535     -4157.763       3914.7473    
       400   276.47077     -42441.641     -10727.005      210.49226      3914.7473    
       500   318.03836     -42463.15       1686.5102     -3505.4643      3914.7473    
       600   321.38731     -42455.04       429.0447      -1334.2039      3914.7473    
       700   298.58865     -42456.758     -7575.2617     -11103.28       3914.7473    
       800   281.66564     -42465.248     -5094.0237     -9060.7475      3914.7473    
       900   305.60328     -42492.103      878.89231     -5787.0216      3914.7473    
      1000   293.65176     -42469.308     -7101.4209     -2487.9855      3914.7473    
      1100   304.10711     -42456.141     -10320.892     -2882.6593      3914.7473    
      1200   316.67667     -42444.821      191.28733     -1512.6551      3914.7473    
      1300   313.50059     -42453.875     -157.9507      -275.58577      3914.7473    
      1400   304.22558     -42461.509     -7218.1585     -10191.915      3914.7473    
      1500   314.37302     -42478.497     -840.04677     -7697.4512      3914.7473    
      1600   301.34467     -42478.246      2047.041      -1225.768       3914.7473    
      1700   283.31946     -42461.651     -13604.246     -7117.1994      3914.7473    
      1800   305.386       -42454.693      3299.8119     -2990.593       3914.7473    
      1900   306.60773     -42433.078     -4127.0525     -1459.5593      3914.7473    
      2000   290.60995     -42427.478      67.273076     -4353.4735      3914.7473    
Loop time of 104.794 on 8 procs for 2000 steps with 362 atoms

Performance: 0.824 ns/day, 29.110 hours/ns, 19.085 timesteps/s, 6.909 katom-step/s
99.0% CPU use with 8 MPI tasks x 1 OpenMP threads

MPI task timing breakdown:
Section |  min time  |  avg time  |  max time  |%varavg| %total
---------------------------------------------------------------
Pair    | 62.002     | 73.467     | 88.747     | 138.4 | 70.11
Bond    | 0.00064311 | 0.00083271 | 0.0010349  |   0.0 |  0.00
Neigh   | 4.738      | 5.5965     | 6.732      |  36.8 |  5.34
Comm    | 1.217      | 16.504     | 27.963     | 291.9 | 15.75
Output  | 0.0050192  | 0.0061612  | 0.0069536  |   0.9 |  0.01
Modify  | 8.0283     | 9.1809     | 10.045     |  29.0 |  8.76
Other   |            | 0.03864    |            |       |  0.04

Nlocal:          45.25 ave          55 max          41 min
Histogram: 3 2 0 0 1 1 0 0 0 1
Nghost:        3465.62 ave        3498 max        3431 min
Histogram: 1 0 1 0 2 1 1 1 0 1
Neighs:          29183 ave       35098 max       26558 min
Histogram: 3 2 0 0 1 1 0 0 0 1

Total # of neighbors = 233464
Ave neighs/atom = 644.92818
Ave special neighs/atom = 0
Neighbor list builds = 200
Dangerous builds not checked
*****Equilibration pos2 starts.*****
WARNING: New thermo_style command, previous thermo_modify settings will be lost (src/output.cpp:903)
Neighbor list info ...
  update: every = 10 steps, delay = 0 steps, check = no
  max neighbors/atom: 2000, page size: 100000
  master list distance cutoff = 12
  ghost atom cutoff = 12
  binsize = 6, bins = 5 3 3
  2 neighbor lists, perpetual/occasional/extra = 2 0 0
  (1) pair reaxff, perpetual
      attributes: half, newton off, ghost
      pair build: half/bin/newtoff/ghost
      stencil: full/ghost/bin/3d
      bin: standard
  (2) fix qeq/reaxff, perpetual, copy from (1)
      attributes: half, newton off
      pair build: copy
      stencil: none
      bin: none
Setting up Verlet run ...
  Unit style    : real
  Current step  : 0
  Time step     : 0.5
Per MPI rank memory allocation (min/avg/max) = 133.7 | 134.9 | 135.7 Mbytes
   Step          Temp          PotEng         Press        f_avgp[1]        Volume    
         0   290.60995     -42427.478      67.304767      0              3914.7473    
       100   312.14404     -42462.46      -3719.9869     -4051.4427      3914.7473    
       200   294.84501     -42478.347     -2137.5984      759.16318      3914.7473    
       300   303.09853     -42486.207      3215.8269     -3830.192       3914.7473    
       400   295.26727     -42468.144      3220.8949     -4467.6695      3914.7473    
       500   296.38816     -42447.359     -18752.496     -10811.025      3914.7473    
       600   317.58137     -42452.608     -8495.6724     -12352.311      3914.7473    
       700   316.70249     -42454.661     -6368.8591     -557.22286      3914.7473    
       800   291.63352     -42472.355     -4019.8755     -2940.2014      3914.7473    
       900   294.76832     -42483.129     -4481.5632     -5652.5492      3914.7473    
      1000   299.46833     -42472.822     -7748.0361      1499.9725      3914.7473    
      1100   303.05294     -42451.134     -14477.729     -5689.5162      3914.7473    
      1200   329.00751     -42474.677     -16759.088     -3128.1023      3914.7473    
      1300   307.56485     -42477.979      3048.7823     -4603.1447      3914.7473    
      1400   296.48079     -42478.619     -139.98236     -2109.16        3914.7473    
      1500   298.62975     -42478.005     -6750.8809     -6265.4984      3914.7473    
      1600   315.51694     -42476.927     -1705.2717     -2176.0565      3914.7473    
      1700   304.16617     -42450.956      1340.8614     -5409.1245      3914.7473    
      1800   305.62164     -42475.197     -10029.628     -1593.2533      3914.7473    
      1900   288.5004      -42473.073     -787.80422      310.57913      3914.7473    
      2000   302.34248     -42479.177     -9644.3127     -7833.3513      3914.7473    
Loop time of 105.23 on 8 procs for 2000 steps with 362 atoms

Performance: 0.821 ns/day, 29.231 hours/ns, 19.006 timesteps/s, 6.880 katom-step/s
99.1% CPU use with 8 MPI tasks x 1 OpenMP threads

MPI task timing breakdown:
Section |  min time  |  avg time  |  max time  |%varavg| %total
---------------------------------------------------------------
Pair    | 61.388     | 79.144     | 88.692     | 110.8 | 75.21
Bond    | 0.0006628  | 0.00081391 | 0.00095802 |   0.0 |  0.00
Neigh   | 4.8071     | 6.0534     | 6.7252     |  28.4 |  5.75
Comm    | 1.5988     | 11.152     | 28.898     | 295.1 | 10.60
Output  | 0.0009493  | 0.0010761  | 0.0016498  |   0.7 |  0.00
Modify  | 8.1542     | 8.8374     | 10.1       |  23.7 |  8.40
Other   |            | 0.04081    |            |       |  0.04

Nlocal:          45.25 ave          52 max          41 min
Histogram: 2 1 0 2 0 1 1 0 0 1
Nghost:        3463.88 ave        3503 max        3408 min
Histogram: 1 1 0 0 0 1 2 1 0 2
Neighs:        29200.2 ave       33285 max       26563 min
Histogram: 2 1 0 2 0 1 1 0 0 1

Total # of neighbors = 233602
Ave neighs/atom = 645.30939
Ave special neighs/atom = 0
Neighbor list builds = 200
Dangerous builds not checked
OMP_NUM_THREADS environment is not set. Defaulting to 1 thread. (src/comm.cpp:98)
  using 1 OpenMP thread(s) per MPI task
Reading restart file ...
  restart file = 2 Aug 2023, LAMMPS = 2 Aug 2023
  restoring atom style full from restart
  triclinic box = (-0.11725316 0.18064571 0.072471758) to (17.289453 12.947254 17.514228) with tilt (-9.1387033 0.71139887 0.62771651)
WARNING: Triclinic box skew is large. LAMMPS will run inefficiently. (src/domain.cpp:220)
  2 by 2 by 2 MPI processor grid
  pair style reaxff stores no restart info
  362 atoms
Finding 1-2 1-3 1-4 neighbors ...
  special bond factors lj:    0        0        0       
  special bond factors coul:  0        0        0       
     0 = max # of 1-2 neighbors
     0 = max # of 1-3 neighbors
     0 = max # of 1-4 neighbors
     1 = max # of special neighbors
  special bonds CPU = 0.000 seconds
  read_restart CPU = 0.003 seconds
*****Negative-change 3 starts.*****
Resetting global fix info from restart file:
  fix style: nvt, fix ID: 4
Changing box ...
WARNING: Triclinic box skew is large. LAMMPS will run inefficiently. (src/domain.cpp:220)
  triclinic box = (-0.11725316 0.18064571 0.072471758) to (17.289453 12.947254 17.339811) with tilt (-9.1387033 0.71139887 0.62771651)
All restart file global fix info was re-assigned
Neighbor list info ...
  update: every = 10 steps, delay = 0 steps, check = no
  max neighbors/atom: 2000, page size: 100000
  master list distance cutoff = 12
  ghost atom cutoff = 12
  binsize = 6, bins = 5 3 3
  2 neighbor lists, perpetual/occasional/extra = 2 0 0
  (1) pair reaxff, perpetual
      attributes: half, newton off, ghost
      pair build: half/bin/newtoff/ghost
      stencil: full/ghost/bin/3d
      bin: standard
  (2) fix qeq/reaxff, perpetual, copy from (1)
      attributes: half, newton off
      pair build: copy
      stencil: none
      bin: none
Setting up Verlet run ...
  Unit style    : real
  Current step  : 0
  Time step     : 0.5
Per MPI rank memory allocation (min/avg/max) = 135.5 | 136.1 | 136.8 Mbytes
   Step          Temp          PotEng         Press        f_avgp[1]        Volume    
         0   301.6662      -42454.029      37938.742      0              3837.2276    
       100   290.20967     -42467.276     -5564.7756     -1669.0539      3837.2276    
       200   279.15507     -42464.323     -4558.6706     -1570.7482      3837.2276    
       300   300.13623     -42483.533     -2154.5866      145.16703      3837.2276    
       400   291.53456     -42464.61       12877.13       562.19233      3837.2276    
       500   316.52329     -42475.781      16600.83       3516.0556      3837.2276    
       600   313.49338     -42468.095      6683.1334      560.83803      3837.2276    
       700   302.86185     -42468.336      13968.779     -3416.083       3837.2276    
       800   289.0818      -42480.552     -848.05101     -1883.6412      3837.2276    
       900   302.02117     -42500.6        5118.215       1078.5462      3837.2276    
      1000   282.29518     -42472.991      5490.6107      3336.0068      3837.2276    
      1100   292.21689     -42446.453      8847.7412      6444.836       3837.2276    
      1200   317.45867     -42460.932      3135.937       7333.1083      3837.2276    
      1300   300.34255     -42457.095      4286.1722     -876.48008      3837.2276    
      1400   303.21764     -42479.581      4071.5504     -3325.0335      3837.2276    
      1500   300.75877     -42483.12       8670.3915      800.95318      3837.2276    
      1600   290.53552     -42474.001      2238.0158      3894.1345      3837.2276    
      1700   292.36271     -42471.233      5063.9766     -1750.663       3837.2276    
      1800   306.08305     -42475.28      -1204.8865      488.10674      3837.2276    
      1900   299.4225      -42462.942      1907.5058     -2509.7209      3837.2276    
      2000   320.06972     -42478.8        1054.4638      1550.0656      3837.2276    
Loop time of 108.929 on 8 procs for 2000 steps with 362 atoms

Performance: 0.793 ns/day, 30.258 hours/ns, 18.361 timesteps/s, 6.647 katom-step/s
98.9% CPU use with 8 MPI tasks x 1 OpenMP threads

MPI task timing breakdown:
Section |  min time  |  avg time  |  max time  |%varavg| %total
---------------------------------------------------------------
Pair    | 62.677     | 84.704     | 92.454     | 119.8 | 77.76
Bond    | 0.00072314 | 0.00084729 | 0.00093022 |   0.0 |  0.00
Neigh   | 4.8894     | 6.3842     | 6.9331     |  29.1 |  5.86
Comm    | 1.1897     | 8.9387     | 30.956     | 368.5 |  8.21
Output  | 0.0045287  | 0.0055629  | 0.0062994  |   0.8 |  0.01
Modify  | 8.306      | 8.8509     | 10.359     |  25.0 |  8.13
Other   |            | 0.04398    |            |       |  0.04

Nlocal:          45.25 ave          52 max          39 min
Histogram: 1 0 0 4 1 0 0 0 0 2
Nghost:        3508.25 ave        3530 max        3494 min
Histogram: 3 0 0 2 0 1 0 0 1 1
Neighs:        29797.4 ave       34110 max       25827 min
Histogram: 1 0 0 4 1 0 0 0 0 2

Total # of neighbors = 238379
Ave neighs/atom = 658.50552
Ave special neighs/atom = 0
Neighbor list builds = 200
Dangerous builds not checked
*****Equilibration neg3 starts.*****
WARNING: New thermo_style command, previous thermo_modify settings will be lost (src/output.cpp:903)
Neighbor list info ...
  update: every = 10 steps, delay = 0 steps, check = no
  max neighbors/atom: 2000, page size: 100000
  master list distance cutoff = 12
  ghost atom cutoff = 12
  binsize = 6, bins = 5 3 3
  2 neighbor lists, perpetual/occasional/extra = 2 0 0
  (1) pair reaxff, perpetual
      attributes: half, newton off, ghost
      pair build: half/bin/newtoff/ghost
      stencil: full/ghost/bin/3d
      bin: standard
  (2) fix qeq/reaxff, perpetual, copy from (1)
      attributes: half, newton off
      pair build: copy
      stencil: none
      bin: none
Setting up Verlet run ...
  Unit style    : real
  Current step  : 0
  Time step     : 0.5
Per MPI rank memory allocation (min/avg/max) = 135.5 | 136.1 | 136.8 Mbytes
   Step          Temp          PotEng         Press        f_avgp[1]        Volume    
         0   320.06972     -42478.8        1054.4317      0              3837.2276    
       100   319.20165     -42479.091      7101.1059      4928.515       3837.2276    
       200   286.17978     -42471.021      7807.5011     -1901.9489      3837.2276    
       300   295.76561     -42494.425      3930.8783      4559.633       3837.2276    
       400   293.75249     -42468.558      11407.103      3923.8847      3837.2276    
       500   321.1691      -42471.67       1859.926      -2360.5824      3837.2276    
       600   304.69704     -42462.929     -5018.0247     -3814.6483      3837.2276    
       700   311.09003     -42483.459      4648.8085      4796.0881      3837.2276    
       800   296.42465     -42484.406      5365.5814      1235.4396      3837.2276    
       900   290.7359      -42494.943     -1798.8997     -1245.0934      3837.2276    
      1000   271.90636     -42500.15      -2283.4765      2086.8404      3837.2276    
      1100   283.02262     -42499.332     -14913.078     -1600.5968      3837.2276    
      1200   296.70644     -42480.45       9463.1124      4587.3875      3837.2276    
      1300   310.33003     -42480.288     -13355.837     -6242.0221      3837.2276    
      1400   315.2526      -42476.676     -1741.3482     -2425.0367      3837.2276    
      1500   295.95718     -42470.112     -4412.9045      6840.6456      3837.2276    
      1600   305.75081     -42503.265      2817.2744      1452.1698      3837.2276    
      1700   287.66812     -42495.441      10655.279      3821.4771      3837.2276    
      1800   290.16382     -42465.337      2389.2361     -2684.1776      3837.2276    
      1900   289.63469     -42441.274      10010.829      4484.8359      3837.2276    
      2000   320.42686     -42479.14       3895.287      -2820.7038      3837.2276    
Loop time of 109.203 on 8 procs for 2000 steps with 362 atoms

Performance: 0.791 ns/day, 30.334 hours/ns, 18.314 timesteps/s, 6.630 katom-step/s
99.0% CPU use with 8 MPI tasks x 1 OpenMP threads

MPI task timing breakdown:
Section |  min time  |  avg time  |  max time  |%varavg| %total
---------------------------------------------------------------
Pair    | 62.513     | 85.558     | 92.506     | 113.0 | 78.35
Bond    | 0.00067842 | 0.00083739 | 0.00092849 |   0.0 |  0.00
Neigh   | 4.8759     | 6.4547     | 6.9298     |  27.4 |  5.91
Comm    | 1.3838     | 8.3302     | 31.369     | 361.8 |  7.63
Output  | 0.0009715  | 0.0010959  | 0.0016843  |   0.7 |  0.00
Modify  | 8.3448     | 8.8145     | 10.405     |  23.7 |  8.07
Other   |            | 0.04407    |            |       |  0.04

Nlocal:          45.25 ave          50 max          37 min
Histogram: 1 0 0 0 2 0 2 0 0 3
Nghost:           3522 ave        3549 max        3480 min
Histogram: 1 0 0 1 0 1 2 0 2 1
Neighs:        29795.4 ave       32864 max       24669 min
Histogram: 1 0 0 0 2 0 2 0 0 3

Total # of neighbors = 238363
Ave neighs/atom = 658.46133
Ave special neighs/atom = 0
Neighbor list builds = 200
Dangerous builds not checked
OMP_NUM_THREADS environment is not set. Defaulting to 1 thread. (src/comm.cpp:98)
  using 1 OpenMP thread(s) per MPI task
Reading restart file ...
  restart file = 2 Aug 2023, LAMMPS = 2 Aug 2023
  restoring atom style full from restart
  triclinic box = (-0.11725316 0.18064571 0.072471758) to (17.289453 12.947254 17.514228) with tilt (-9.1387033 0.71139887 0.62771651)
WARNING: Triclinic box skew is large. LAMMPS will run inefficiently. (src/domain.cpp:220)
  2 by 2 by 2 MPI processor grid
  pair style reaxff stores no restart info
  362 atoms
Finding 1-2 1-3 1-4 neighbors ...
  special bond factors lj:    0        0        0       
  special bond factors coul:  0        0        0       
     0 = max # of 1-2 neighbors
     0 = max # of 1-3 neighbors
     0 = max # of 1-4 neighbors
     1 = max # of special neighbors
  special bonds CPU = 0.000 seconds
  read_restart CPU = 0.003 seconds
*****Positive-change 3 starts.*****
Resetting global fix info from restart file:
  fix style: nvt, fix ID: 4
Changing box ...
WARNING: Triclinic box skew is large. LAMMPS will run inefficiently. (src/domain.cpp:220)
  triclinic box = (-0.11725316 0.18064571 0.072471758) to (17.289453 12.947254 17.688646) with tilt (-9.1387033 0.71139887 0.62771651)
All restart file global fix info was re-assigned
Neighbor list info ...
  update: every = 10 steps, delay = 0 steps, check = no
  max neighbors/atom: 2000, page size: 100000
  master list distance cutoff = 12
  ghost atom cutoff = 12
  binsize = 6, bins = 5 3 3
  2 neighbor lists, perpetual/occasional/extra = 2 0 0
  (1) pair reaxff, perpetual
      attributes: half, newton off, ghost
      pair build: half/bin/newtoff/ghost
      stencil: full/ghost/bin/3d
      bin: standard
  (2) fix qeq/reaxff, perpetual, copy from (1)
      attributes: half, newton off
      pair build: copy
      stencil: none
      bin: none
Setting up Verlet run ...
  Unit style    : real
  Current step  : 0
  Time step     : 0.5
Per MPI rank memory allocation (min/avg/max) = 134.3 | 135.1 | 135.9 Mbytes
   Step          Temp          PotEng         Press        f_avgp[1]        Volume    
         0   301.6662      -42439.768     -53363.361      0              3914.7473    
       100   304.99374     -42471.612     -19207.419     -6586.0789      3914.7473    
       200   273.2029      -42445.689      2289.524      -5204.6564      3914.7473    
       300   298.03992     -42466.869     -12572.812     -6242.7441      3914.7473    
       400   293.243       -42460.615      2247.8624     -617.15048      3914.7473    
       500   309.03132     -42459.631      22194.285      759.81276      3914.7473    
       600   308.79609     -42438.501     -2429.2366     -4412.9284      3914.7473    
       700   324.00878     -42448.08       10105.232     -7653.1708      3914.7473    
       800   288.65488     -42448.419     -6548.6849     -4569.4788      3914.7473    
       900   301.59138     -42477.858     -12026.134     -6373.5422      3914.7473    
      1000   303.73199     -42488.28      -5837.5542     -5616.0961      3914.7473    
      1100   287.15976     -42477.322     -1405.5822     -458.17761      3914.7473    
      1200   301.13378     -42457.616     -372.21119     -1356.3896      3914.7473    
      1300   291.29839     -42429.94      -7301.7436     -5089.1029      3914.7473    
      1400   305.6058      -42453.814     -3908.1253     -7924.0782      3914.7473    
      1500   287.64315     -42457.294      6882.5428     -1350.646       3914.7473    
      1600   299.82262     -42481.377     -8596.338       1704.6317      3914.7473    
      1700   270.70828     -42472.367     -5331.9163     -5086.5611      3914.7473    
      1800   275.70471     -42495.127     -9349.588      -8992.3614      3914.7473    
      1900   308.01045     -42499.263     -7991.0529     -7149.5262      3914.7473    
      2000   294.92592     -42464.054      4362.7348     -3850.1504      3914.7473    
Loop time of 105.691 on 8 procs for 2000 steps with 362 atoms

Performance: 0.817 ns/day, 29.359 hours/ns, 18.923 timesteps/s, 6.850 katom-step/s
99.1% CPU use with 8 MPI tasks x 1 OpenMP threads

MPI task timing breakdown:
Section |  min time  |  avg time  |  max time  |%varavg| %total
---------------------------------------------------------------
Pair    | 61.378     | 81.087     | 89.355     | 116.3 | 76.72
Bond    | 0.00071952 | 0.00082257 | 0.00093129 |   0.0 |  0.00
Neigh   | 4.8028     | 6.2067     | 6.7985     |  29.6 |  5.87
Comm    | 1.4172     | 9.6954     | 29.397     | 336.1 |  9.17
Output  | 0.0041386  | 0.0051602  | 0.0058974  |   0.8 |  0.00
Modify  | 8.0564     | 8.654      | 10.069     |  25.4 |  8.19
Other   |            | 0.04262    |            |       |  0.04

Nlocal:          45.25 ave          51 max          42 min
Histogram: 3 1 0 1 0 1 0 0 1 1
Nghost:           3464 ave        3486 max        3430 min
Histogram: 1 0 1 0 0 2 0 1 2 1
Neighs:        29185.1 ave       32637 max       27166 min
Histogram: 3 1 0 1 0 1 0 0 0 2

Total # of neighbors = 233481
Ave neighs/atom = 644.97514
Ave special neighs/atom = 0
Neighbor list builds = 200
Dangerous builds not checked
*****Equilibration pos3 starts.*****
WARNING: New thermo_style command, previous thermo_modify settings will be lost (src/output.cpp:903)
Neighbor list info ...
  update: every = 10 steps, delay = 0 steps, check = no
  max neighbors/atom: 2000, page size: 100000
  master list distance cutoff = 12
  ghost atom cutoff = 12
  binsize = 6, bins = 5 3 3
  2 neighbor lists, perpetual/occasional/extra = 2 0 0
  (1) pair reaxff, perpetual
      attributes: half, newton off, ghost
      pair build: half/bin/newtoff/ghost
      stencil: full/ghost/bin/3d
      bin: standard
  (2) fix qeq/reaxff, perpetual, copy from (1)
      attributes: half, newton off
      pair build: copy
      stencil: none
      bin: none
Setting up Verlet run ...
  Unit style    : real
  Current step  : 0
  Time step     : 0.5
Per MPI rank memory allocation (min/avg/max) = 134.3 | 135.1 | 135.8 Mbytes
   Step          Temp          PotEng         Press        f_avgp[1]        Volume    
         0   294.92592     -42464.054      4362.7135      0              3914.7473    
       100   293.37291     -42459.538     -7199.839      -6849.1271      3914.7473    
       200   286.98464     -42444.639      6814.274      -6121.6606      3914.7473    
       300   320.27523     -42461.446     -5247.8877     -952.78183      3914.7473    
       400   314.61449     -42452.255      4530.8361     -900.24459      3914.7473    
       500   310.81569     -42473.268      4419.0625     -2319.3719      3914.7473    
       600   284.55746     -42470.204     -8231.1236     -6141.7885      3914.7473    
       700   325.61606     -42501.765     -9697.2754     -9199.1401      3914.7473    
       800   311.42808     -42469.704     -2055.3181     -4648.2452      3914.7473    
       900   306.48321     -42458.256     -963.55519     -2365.499       3914.7473    
      1000   287.01106     -42456.006     -8155.83       -7064.8344      3914.7473    
      1100   279.3371      -42472.633     -5429.9399     -9396.8194      3914.7473    
      1200   301.94939     -42486.305     -3652.8576     -4898.4358      3914.7473    
      1300   305.57971     -42463.335      2238.6211     -518.84388      3914.7473    
      1400   303.31929     -42455.535     -1429.8864     -2708.5729      3914.7473    
      1500   297.48523     -42455.978     -3589.3196     -3300.221       3914.7473    
      1600   305.27481     -42467.735      791.90201      617.63381      3914.7473    
      1700   298.97282     -42466.019      5648.1112     -1656.4833      3914.7473    
      1800   292.33948     -42463.966     -1580.0368     -5403.2803      3914.7473    
      1900   292.46604     -42461.081     -10371.094     -8215.0386      3914.7473    
      2000   291.04322     -42457.685     -8282.8782     -7114.5924      3914.7473    
Loop time of 104.899 on 8 procs for 2000 steps with 362 atoms

Performance: 0.824 ns/day, 29.139 hours/ns, 19.066 timesteps/s, 6.902 katom-step/s
99.0% CPU use with 8 MPI tasks x 1 OpenMP threads

MPI task timing breakdown:
Section |  min time  |  avg time  |  max time  |%varavg| %total
---------------------------------------------------------------
Pair    | 60.633     | 76.378     | 88.958     | 139.4 | 72.81
Bond    | 0.00066723 | 0.00081927 | 0.00098578 |   0.0 |  0.00
Neigh   | 4.799      | 5.8947     | 6.822      |  36.4 |  5.62
Comm    | 1.1351     | 13.724     | 29.448     | 328.7 | 13.08
Output  | 0.00090939 | 0.0010488  | 0.0015011  |   0.6 |  0.00
Modify  | 7.9127     | 8.8612     | 9.9781     |  30.1 |  8.45
Other   |            | 0.04003    |            |       |  0.04

Nlocal:          45.25 ave          53 max          41 min
Histogram: 2 1 1 0 2 1 0 0 0 1
Nghost:        3482.88 ave        3496 max        3474 min
Histogram: 3 1 0 0 0 2 0 0 1 1
Neighs:        29202.1 ave       34031 max       26561 min
Histogram: 2 1 1 0 2 1 0 0 0 1

Total # of neighbors = 233617
Ave neighs/atom = 645.35083
Ave special neighs/atom = 0
Neighbor list builds = 200
Dangerous builds not checked
OMP_NUM_THREADS environment is not set. Defaulting to 1 thread. (src/comm.cpp:98)
  using 1 OpenMP thread(s) per MPI task
Reading restart file ...
  restart file = 2 Aug 2023, LAMMPS = 2 Aug 2023
  restoring atom style full from restart
  triclinic box = (-0.11725316 0.18064571 0.072471758) to (17.289453 12.947254 17.514228) with tilt (-9.1387033 0.71139887 0.62771651)
WARNING: Triclinic box skew is large. LAMMPS will run inefficiently. (src/domain.cpp:220)
  2 by 2 by 2 MPI processor grid
  pair style reaxff stores no restart info
  362 atoms
Finding 1-2 1-3 1-4 neighbors ...
  special bond factors lj:    0        0        0       
  special bond factors coul:  0        0        0       
     0 = max # of 1-2 neighbors
     0 = max # of 1-3 neighbors
     0 = max # of 1-4 neighbors
     1 = max # of special neighbors
  special bonds CPU = 0.000 seconds
  read_restart CPU = 0.003 seconds
*****Negative-change 4 starts.*****
Resetting global fix info from restart file:
  fix style: nvt, fix ID: 4
Changing box ...
WARNING: Triclinic box skew is large. LAMMPS will run inefficiently. (src/domain.cpp:220)
  triclinic box = (-0.11725316 0.18064571 0.072471758) to (17.289453 12.947254 17.514228) with tilt (-9.1387033 0.71139887 0.45329895)
All restart file global fix info was re-assigned
Neighbor list info ...
  update: every = 10 steps, delay = 0 steps, check = no
  max neighbors/atom: 2000, page size: 100000
  master list distance cutoff = 12
  ghost atom cutoff = 12
  binsize = 6, bins = 5 3 3
  2 neighbor lists, perpetual/occasional/extra = 2 0 0
  (1) pair reaxff, perpetual
      attributes: half, newton off, ghost
      pair build: half/bin/newtoff/ghost
      stencil: full/ghost/bin/3d
      bin: standard
  (2) fix qeq/reaxff, perpetual, copy from (1)
      attributes: half, newton off
      pair build: copy
      stencil: none
      bin: none
Setting up Verlet run ...
  Unit style    : real
  Current step  : 0
  Time step     : 0.5
Per MPI rank memory allocation (min/avg/max) = 135 | 135.9 | 136.8 Mbytes
   Step          Temp          PotEng         Press        f_avgp[1]        Volume    
         0   301.6662      -42455.798     -5831.1151      0              3875.9875    
       100   302.50072     -42481.974     -14971.365     -4402.0091      3875.9875    
       200   276.41349     -42463.608      4773.8034     -4152.8013      3875.9875    
       300   287.86921     -42468.62      -6754.61       -4554.488       3875.9875    
       400   284.92252     -42457.612     -2482.528      -2057.9683      3875.9875    
       500   315.55753     -42475.636     -2634.8122      723.60096      3875.9875    
       600   307.92646     -42458.917     -1024.5282     -4091.2376      3875.9875    
       700   310.67469     -42456.742     -3556.9402     -5869.9707      3875.9875    
       800   275.8208      -42442.369      1516.9536     -886.69683      3875.9875    
       900   291.95079     -42475.844     -8325.3142     -3030.7883      3875.9875    
      1000   280.02469     -42471.844     -8089.7038      1911.7958      3875.9875    
      1100   291.12779     -42480.111     -1052.2127     -361.21353      3875.9875    
      1200   301.18079     -42454.68      -1385.7475      3993.4228      3875.9875    
      1300   314.4634      -42459.645      7204.5681     -556.49496      3875.9875    
      1400   306.42547     -42458.241     -1639.0628     -4464.4109      3875.9875    
      1500   294.24841     -42467.116      7103.4876      3263.2747      3875.9875    
      1600   285.37527     -42480.72       9051.2352     -1192.3947      3875.9875    
      1700   288.77675     -42479.968      9196.0846     -3764.009       3875.9875    
      1800   305.57707     -42481.848     -6264.5978     -4986.582       3875.9875    
      1900   301.07713     -42468.114      13156.822      39.276899      3875.9875    
      2000   309.0974      -42472.595      2436.7446     -3278.2129      3875.9875    
Loop time of 106.492 on 8 procs for 2000 steps with 362 atoms

Performance: 0.811 ns/day, 29.581 hours/ns, 18.781 timesteps/s, 6.799 katom-step/s
99.0% CPU use with 8 MPI tasks x 1 OpenMP threads

MPI task timing breakdown:
Section |  min time  |  avg time  |  max time  |%varavg| %total
---------------------------------------------------------------
Pair    | 61.922     | 78.734     | 90.235     | 139.4 | 73.93
Bond    | 0.00070252 | 0.0008375  | 0.00099324 |   0.0 |  0.00
Neigh   | 4.816      | 5.9634     | 6.7962     |  36.0 |  5.60
Comm    | 1.3515     | 12.861     | 29.654     | 344.7 | 12.08
Output  | 0.0049248  | 0.0059992  | 0.0067882  |   0.8 |  0.01
Modify  | 8.0586     | 8.8849     | 10.052     |  29.8 |  8.34
Other   |            | 0.04087    |            |       |  0.04

Nlocal:          45.25 ave          51 max          40 min
Histogram: 2 0 0 1 2 0 1 0 1 1
Nghost:        3516.38 ave        3533 max        3501 min
Histogram: 2 1 0 1 0 1 0 0 2 1
Neighs:        29478.9 ave       33137 max       26130 min
Histogram: 1 1 0 1 2 0 1 0 1 1

Total # of neighbors = 235831
Ave neighs/atom = 651.46685
Ave special neighs/atom = 0
Neighbor list builds = 200
Dangerous builds not checked
*****Equilibration neg4 starts.*****
WARNING: New thermo_style command, previous thermo_modify settings will be lost (src/output.cpp:903)
Neighbor list info ...
  update: every = 10 steps, delay = 0 steps, check = no
  max neighbors/atom: 2000, page size: 100000
  master list distance cutoff = 12
  ghost atom cutoff = 12
  binsize = 6, bins = 5 3 3
  2 neighbor lists, perpetual/occasional/extra = 2 0 0
  (1) pair reaxff, perpetual
      attributes: half, newton off, ghost
      pair build: half/bin/newtoff/ghost
      stencil: full/ghost/bin/3d
      bin: standard
  (2) fix qeq/reaxff, perpetual, copy from (1)
      attributes: half, newton off
      pair build: copy
      stencil: none
      bin: none
Setting up Verlet run ...
  Unit style    : real
  Current step  : 0
  Time step     : 0.5
Per MPI rank memory allocation (min/avg/max) = 135 | 135.9 | 136.8 Mbytes
   Step          Temp          PotEng         Press        f_avgp[1]        Volume    
         0   309.0974      -42472.595      2436.7171      0              3875.9875    
       100   278.50982     -42440.502     -7504.36       -3075.5769      3875.9875    
       200   308.56495     -42471.505     -5168.2165      2323.2924      3875.9875    
       300   284.95758     -42458.813      7032.4989     -1332.6281      3875.9875    
       400   288.94645     -42476.978      8019.5749      2597.031       3875.9875    
       500   283.24304     -42472.098      8093.3948     -541.81272      3875.9875    
       600   294.23152     -42457.093      5608.5691      391.85087      3875.9875    
       700   327.61054     -42473.647      10026.868      2076.8662      3875.9875    
       800   297.5143      -42443.975      2397.7159     -2247.4912      3875.9875    
       900   308.84334     -42473.165      242.01821     -7175.1825      3875.9875    
      1000   279.74021     -42474.94      -6591.8569     -8010.5026      3875.9875    
      1100   293.93833     -42486.352      1083.224      -1924.82        3875.9875    
      1200   297.94051     -42470.019      1411.5381     -2361.7131      3875.9875    
      1300   293.17641     -42448.61       735.62765     -1973.5391      3875.9875    
      1400   311.5379      -42470.909     -9905.8324     -2468.2619      3875.9875    
      1500   280.10016     -42456.781     -76.674767     -9562.9261      3875.9875    
      1600   282.23249     -42495.524      5549.9833     -5695.78        3875.9875    
      1700   278.08727     -42482.405      2485.1115      1083.8564      3875.9875    
      1800   295.23663     -42478.595     -4857.5221     -2853.2485      3875.9875    
      1900   303.73626     -42473.221      1450.0144     -4934.9105      3875.9875    
      2000   302.93512     -42459.399     -7452.5465      1170.3909      3875.9875    
Loop time of 106.834 on 8 procs for 2000 steps with 362 atoms

Performance: 0.809 ns/day, 29.676 hours/ns, 18.721 timesteps/s, 6.777 katom-step/s
99.0% CPU use with 8 MPI tasks x 1 OpenMP threads

MPI task timing breakdown:
Section |  min time  |  avg time  |  max time  |%varavg| %total
---------------------------------------------------------------
Pair    | 61.761     | 79.413     | 90.374     | 147.9 | 74.33
Bond    | 0.0007251  | 0.00081795 | 0.00095678 |   0.0 |  0.00
Neigh   | 4.8147     | 6.0243     | 6.7921     |  38.0 |  5.64
Comm    | 1.4457     | 12.414     | 30.046     | 374.0 | 11.62
Output  | 0.00088348 | 0.0010687  | 0.0016549  |   0.7 |  0.00
Modify  | 8.1524     | 8.9398     | 10.177     |  31.6 |  8.37
Other   |            | 0.04126    |            |       |  0.04

Nlocal:          45.25 ave          52 max          41 min
Histogram: 1 2 1 1 1 0 1 0 0 1
Nghost:        3494.75 ave        3520 max        3470 min
Histogram: 1 1 0 2 0 1 1 0 0 2
Neighs:        29493.5 ave       33659 max       26803 min
Histogram: 1 1 2 1 1 0 1 0 0 1

Total # of neighbors = 235948
Ave neighs/atom = 651.79006
Ave special neighs/atom = 0
Neighbor list builds = 200
Dangerous builds not checked
OMP_NUM_THREADS environment is not set. Defaulting to 1 thread. (src/comm.cpp:98)
  using 1 OpenMP thread(s) per MPI task
Reading restart file ...
  restart file = 2 Aug 2023, LAMMPS = 2 Aug 2023
  restoring atom style full from restart
  triclinic box = (-0.11725316 0.18064571 0.072471758) to (17.289453 12.947254 17.514228) with tilt (-9.1387033 0.71139887 0.62771651)
WARNING: Triclinic box skew is large. LAMMPS will run inefficiently. (src/domain.cpp:220)
  2 by 2 by 2 MPI processor grid
  pair style reaxff stores no restart info
  362 atoms
Finding 1-2 1-3 1-4 neighbors ...
  special bond factors lj:    0        0        0       
  special bond factors coul:  0        0        0       
     0 = max # of 1-2 neighbors
     0 = max # of 1-3 neighbors
     0 = max # of 1-4 neighbors
     1 = max # of special neighbors
  special bonds CPU = 0.000 seconds
  read_restart CPU = 0.003 seconds
*****Positive-change 4 starts.*****
Resetting global fix info from restart file:
  fix style: nvt, fix ID: 4
Changing box ...
WARNING: Triclinic box skew is large. LAMMPS will run inefficiently. (src/domain.cpp:220)
  triclinic box = (-0.11725316 0.18064571 0.072471758) to (17.289453 12.947254 17.514228) with tilt (-9.1387033 0.71139887 0.80213408)
All restart file global fix info was re-assigned
Neighbor list info ...
  update: every = 10 steps, delay = 0 steps, check = no
  max neighbors/atom: 2000, page size: 100000
  master list distance cutoff = 12
  ghost atom cutoff = 12
  binsize = 6, bins = 5 3 3
  2 neighbor lists, perpetual/occasional/extra = 2 0 0
  (1) pair reaxff, perpetual
      attributes: half, newton off, ghost
      pair build: half/bin/newtoff/ghost
      stencil: full/ghost/bin/3d
      bin: standard
  (2) fix qeq/reaxff, perpetual, copy from (1)
      attributes: half, newton off
      pair build: copy
      stencil: none
      bin: none
Setting up Verlet run ...
  Unit style    : real
  Current step  : 0
  Time step     : 0.5
Per MPI rank memory allocation (min/avg/max) = 135 | 135.9 | 137 Mbytes
   Step          Temp          PotEng         Press        f_avgp[1]        Volume    
         0   301.6662      -42465.227     -9707.34        0              3875.9875    
       100   290.79649     -42474.388     -19525.339     -4524.6509      3875.9875    
       200   264.66974     -42468.028     -3705.2947     -4867.2416      3875.9875    
       300   278.29556     -42508.571     -2584.482      -4398.1621      3875.9875    
       400   259.98533     -42478.089      5450.2365      629.28316      3875.9875    
       500   292.66593     -42479.171      2090.0921      3370.5411      3875.9875    
       600   299.17291     -42468.5       -9721.1621     -2222.4031      3875.9875    
       700   296.71932     -42451.7       -3533.4768     -6534.0946      3875.9875    
       800   298.4782      -42444.238     -11042.595     -5384.6622      3875.9875    
       900   317.52219     -42468.49      -19465.791     -2218.4811      3875.9875    
      1000   286.77848     -42474.057     -1678.8913      885.70291      3875.9875    
      1100   287.08898     -42479.661      3429.2942      5128.6371      3875.9875    
      1200   281.64144     -42454.391      923.77301      1111.5794      3875.9875    
      1300   290.72276     -42442.705      4026.2603     -1881.6112      3875.9875    
      1400   298.76744     -42442.163     -8615.4868     -7214.2791      3875.9875    
      1500   292.80557     -42442.035      7210.0275     -354.25414      3875.9875    
      1600   295.36891     -42462.568     -5601.8504     -113.37928      3875.9875    
      1700   300.01039     -42472.796     -1560.2711     -7273.9589      3875.9875    
      1800   289.43584     -42459.586     -3754.7231     -2819.048       3875.9875    
      1900   319.02927     -42485.122     -3452.7735     -2461.9625      3875.9875    
      2000   286.66543     -42451.396      14490.451      6056.0924      3875.9875    
Loop time of 107.206 on 8 procs for 2000 steps with 362 atoms

Performance: 0.806 ns/day, 29.779 hours/ns, 18.656 timesteps/s, 6.753 katom-step/s
98.9% CPU use with 8 MPI tasks x 1 OpenMP threads

MPI task timing breakdown:
Section |  min time  |  avg time  |  max time  |%varavg| %total
---------------------------------------------------------------
Pair    | 61.904     | 80.31      | 90.542     | 136.5 | 74.91
Bond    | 0.00069573 | 0.00081762 | 0.00098581 |   0.0 |  0.00
Neigh   | 4.8912     | 6.1703     | 6.9353     |  35.5 |  5.76
Comm    | 1.5178     | 11.757     | 30.143     | 356.4 | 10.97
Output  | 0.0056595  | 0.006702   | 0.0074776  |   0.8 |  0.01
Modify  | 8.1353     | 8.9198     | 10.224     |  29.9 |  8.32
Other   |            | 0.04149    |            |       |  0.04

Nlocal:          45.25 ave          53 max          41 min
Histogram: 3 0 1 0 2 1 0 0 0 1
Nghost:        3522.88 ave        3549 max        3495 min
Histogram: 1 0 0 0 3 2 1 0 0 1
Neighs:          29498 ave       34264 max       26824 min
Histogram: 3 0 1 0 2 1 0 0 0 1

Total # of neighbors = 235984
Ave neighs/atom = 651.8895
Ave special neighs/atom = 0
Neighbor list builds = 200
Dangerous builds not checked
*****Equilibration pos4 starts.*****
WARNING: New thermo_style command, previous thermo_modify settings will be lost (src/output.cpp:903)
Neighbor list info ...
  update: every = 10 steps, delay = 0 steps, check = no
  max neighbors/atom: 2000, page size: 100000
  master list distance cutoff = 12
  ghost atom cutoff = 12
  binsize = 6, bins = 5 3 3
  2 neighbor lists, perpetual/occasional/extra = 2 0 0
  (1) pair reaxff, perpetual
      attributes: half, newton off, ghost
      pair build: half/bin/newtoff/ghost
      stencil: full/ghost/bin/3d
      bin: standard
  (2) fix qeq/reaxff, perpetual, copy from (1)
      attributes: half, newton off
      pair build: copy
      stencil: none
      bin: none
Setting up Verlet run ...
  Unit style    : real
  Current step  : 0
  Time step     : 0.5
Per MPI rank memory allocation (min/avg/max) = 135 | 135.9 | 136.9 Mbytes
   Step          Temp          PotEng         Press        f_avgp[1]        Volume    
         0   286.66543     -42451.396      14490.482      0              3875.9875    
       100   302.90917     -42469.592     -4127.5248     -984.83129      3875.9875    
       200   285.39805     -42462.408     -9757.9922     -5357.8806      3875.9875    
       300   280.39551     -42477.592      628.01262     -782.63828      3875.9875    
       400   286.58756     -42476.26      -8943.64       -485.98674      3875.9875    
       500   305.75741     -42463.442      5192.6608      2693.8501      3875.9875    
       600   303.4115      -42459.441     -3803.946      -5470.845       3875.9875    
       700   290.27794     -42453.834      3269.8493     -839.8473       3875.9875    
[...]
      1600   285.68979     -42420.099      6237.1571      2891.9019      3875.9875    
      1700   302.90548     -42469.62      -2127.9813     -3840.9514      3875.9875    
      1800   293.807       -42477.94       4663.2126     -4513.1143      3875.9875    
      1900   286.0437      -42469.191      11029.411      3363.5867      3875.9875    
      2000   316.16031     -42474.18       5958.587      -5409.2455      3875.9875    
Loop time of 107.715 on 8 procs for 2000 steps with 362 atoms

Performance: 0.802 ns/day, 29.921 hours/ns, 18.567 timesteps/s, 6.721 katom-step/s
98.9% CPU use with 8 MPI tasks x 1 OpenMP threads

MPI task timing breakdown:
Section |  min time  |  avg time  |  max time  |%varavg| %total
---------------------------------------------------------------
Pair    | 62.27      | 80.141     | 90.748     | 141.4 | 74.40
Bond    | 0.00075261 | 0.00084128 | 0.00093254 |   0.0 |  0.00
Neigh   | 4.886      | 6.1324     | 6.9218     |  36.1 |  5.69
Comm    | 1.7092     | 12.329     | 30.181     | 360.5 | 11.45
Output  | 0.00097178 | 0.0010802  | 0.001554   |   0.6 |  0.00
Modify  | 8.2602     | 9.0683     | 10.337     |  29.8 |  8.42
Other   |            | 0.04233    |            |       |  0.04

Nlocal:          45.25 ave          51 max          39 min
Histogram: 1 0 2 0 1 0 2 0 0 2
Nghost:        3520.75 ave        3538 max        3506 min
Histogram: 1 2 0 0 2 1 0 0 0 2
Neighs:        29481.4 ave       33010 max       25569 min
Histogram: 1 0 2 0 1 0 2 0 0 2

Total # of neighbors = 235851
Ave neighs/atom = 651.5221
Ave special neighs/atom = 0
Neighbor list builds = 200
Dangerous builds not checked
OMP_NUM_THREADS environment is not set. Defaulting to 1 thread. (src/comm.cpp:98)
  using 1 OpenMP thread(s) per MPI task
Reading restart file ...
  restart file = 2 Aug 2023, LAMMPS = 2 Aug 2023
  restoring atom style full from restart
  triclinic box = (-0.11725316 0.18064571 0.072471758) to (17.289453 12.947254 17.514228) with tilt (-9.1387033 0.71139887 0.62771651)
WARNING: Triclinic box skew is large. LAMMPS will run inefficiently. (src/domain.cpp:220)
  2 by 2 by 2 MPI processor grid
  pair style reaxff stores no restart info
  362 atoms
Finding 1-2 1-3 1-4 neighbors ...
  special bond factors lj:    0        0        0       
  special bond factors coul:  0        0        0       
     0 = max # of 1-2 neighbors
     0 = max # of 1-3 neighbors
     0 = max # of 1-4 neighbors
     1 = max # of special neighbors
  special bonds CPU = 0.000 seconds
  read_restart CPU = 0.004 seconds
*****Negative-change 6 starts.*****
Resetting global fix info from restart file:
  fix style: nvt, fix ID: 4
Changing box ...
WARNING: Triclinic box skew is large. LAMMPS will run inefficiently. (src/domain.cpp:220)
  triclinic box = (-0.11725316 0.18064571 0.072471758) to (17.289453 12.947254 17.514228) with tilt (-9.2663694 0.71139887 0.62771651)
All restart file global fix info was re-assigned
Neighbor list info ...
  update: every = 10 steps, delay = 0 steps, check = no
  max neighbors/atom: 2000, page size: 100000
  master list distance cutoff = 12
  ghost atom cutoff = 12
  binsize = 6, bins = 5 3 3
  2 neighbor lists, perpetual/occasional/extra = 2 0 0
  (1) pair reaxff, perpetual
      attributes: half, newton off, ghost
      pair build: half/bin/newtoff/ghost
      stencil: full/ghost/bin/3d
      bin: standard
  (2) fix qeq/reaxff, perpetual, copy from (1)
      attributes: half, newton off
      pair build: copy
      stencil: none
      bin: none
Setting up Verlet run ...
  Unit style    : real
  Current step  : 0
  Time step     : 0.5
Per MPI rank memory allocation (min/avg/max) = 135.1 | 136.1 | 137 Mbytes
   Step          Temp          PotEng         Press        f_avgp[1]        Volume    
         0   301.6662      -42462.583     -7223.3055      0              3875.9875    
       100   296.07124     -42479.245     -13799.586     -4486.2122      3875.9875    
       200   271.83368     -42469.958     -8909.0803     -7380.0853      3875.9875    
       300   283.163       -42498.769      2030.138      -2557.2528      3875.9875    
       400   274.63085     -42477.362      733.06848     -2723.9932      3875.9875    
       500   303.94491     -42475.374      1485.1251      1599.605       3875.9875    
       600   293.92734     -42447.449     -2350.7312     -1182.2665      3875.9875    
       700   294.7998      -42439.869     -3093.1125     -10282.622      3875.9875    
       800   297.01591     -42451.325      8309.5942      474.38312      3875.9875    
       900   301.71615     -42486.557      137.08235     -4265.2406      3875.9875    
      1000   292.09482     -42497.648      3740.8675      647.29106      3875.9875    
      1100   279.66738     -42474.088      3402.5139      1144.4549      3875.9875    
      1200   305.17237     -42480.595      569.14713     -5260.7615      3875.9875    
      1300   300.3708      -42470.769      594.57514      3197.8851      3875.9875    
      1400   291.75479     -42463.63      -3019.093      -8592.7769      3875.9875    
      1500   316.16407     -42471.427      43.537593     -1193.3888      3875.9875    
      1600   315.82516     -42441.631      17898.645     -15.781243      3875.9875    
      1700   331.34762     -42466.882      5827.5701     -3952.4195      3875.9875    
      1800   308.0866      -42469.166     -1544.9865     -2041.577       3875.9875    
      1900   301.68727     -42471.97      -8662.8495     -5972.6514      3875.9875    
      2000   302.51583     -42484.178     -7377.6139      475.73216      3875.9875    
Loop time of 109.556 on 8 procs for 2000 steps with 362 atoms

Performance: 0.789 ns/day, 30.432 hours/ns, 18.255 timesteps/s, 6.608 katom-step/s
98.7% CPU use with 8 MPI tasks x 1 OpenMP threads

MPI task timing breakdown:
Section |  min time  |  avg time  |  max time  |%varavg| %total
---------------------------------------------------------------
Pair    | 62.464     | 83.605     | 92.168     | 132.7 | 76.31
Bond    | 0.00080065 | 0.0008549  | 0.0009224  |   0.0 |  0.00
Neigh   | 4.8863     | 6.4284     | 7.181      |  35.5 |  5.87
Comm    | 1.6494     | 10.207     | 31.331     | 379.5 |  9.32
Output  | 0.0048843  | 0.0060766  | 0.0068522  |   0.9 |  0.01
Modify  | 8.4824     | 9.2643     | 10.82      |  29.9 |  8.46
Other   |            | 0.04473    |            |       |  0.04

Nlocal:          45.25 ave          51 max          42 min
Histogram: 2 2 1 0 1 0 0 0 0 2
Nghost:        3526.75 ave        3545 max        3513 min
Histogram: 2 0 1 1 0 2 0 0 1 1
Neighs:        29492.9 ave       33085 max       27431 min
Histogram: 2 2 1 0 1 0 0 0 0 2

Total # of neighbors = 235943
Ave neighs/atom = 651.77624
Ave special neighs/atom = 0
Neighbor list builds = 200
Dangerous builds not checked
*****Equilibration neg6 starts.*****
WARNING: New thermo_style command, previous thermo_modify settings will be lost (src/output.cpp:903)
Neighbor list info ...
  update: every = 10 steps, delay = 0 steps, check = no
  max neighbors/atom: 2000, page size: 100000
  master list distance cutoff = 12
  ghost atom cutoff = 12
  binsize = 6, bins = 5 3 3
  2 neighbor lists, perpetual/occasional/extra = 2 0 0
  (1) pair reaxff, perpetual
      attributes: half, newton off, ghost
      pair build: half/bin/newtoff/ghost
      stencil: full/ghost/bin/3d
      bin: standard
  (2) fix qeq/reaxff, perpetual, copy from (1)
      attributes: half, newton off
      pair build: copy
      stencil: none
      bin: none
Setting up Verlet run ...
  Unit style    : real
  Current step  : 0
  Time step     : 0.5
Per MPI rank memory allocation (min/avg/max) = 135.1 | 136.1 | 137 Mbytes
   Step          Temp          PotEng         Press        f_avgp[1]        Volume    
         0   302.51583     -42484.178     -7377.6009      0              3875.9875    
       100   296.27158     -42468.887      8834.722      -430.77841      3875.9875    
       200   307.23805     -42459.089      5267.9549      253.37853      3875.9875    
       300   329.78265     -42456.883      6129.4301      1728.4293      3875.9875    
       400   298.9696      -42441.947      1492.2508     -2381.1826      3875.9875    
       500   278.17715     -42453.628     -6206.3967     -3795.956       3875.9875    
       600   289.69371     -42470.044     -21916.866     -9272.0178      3875.9875    
       700   294.46578     -42460.711      964.82509     -3410.3728      3875.9875    
       800   306.69013     -42461.354      7376.6005      265.05988      3875.9875    
       900   306.81123     -42477.838     -10510.201      1410.3171      3875.9875    
      1000   291.97973     -42492.696      2082.0828      1632.6073      3875.9875    
      1100   289.56038     -42484.063     -9947.8817     -4268.0703      3875.9875    
      1200   300.11275     -42473.638      11858.969      3419.2586      3875.9875    
      1300   293.94928     -42450.477     -6600.7152      2004.2618      3875.9875    
      1400   304.6521      -42461.721      7476.4342     -2547.2105      3875.9875    
      1500   292.29803     -42454.005     -375.35503     -1105.7156      3875.9875    
      1600   308.86504     -42474.455      16033.379      2039.2207      3875.9875    
      1700   295.93251     -42476.666     -16295.571     -6034.134       3875.9875    
      1800   284.71531     -42493.709     -7906.3609     -3680.1115      3875.9875    
      1900   272.13864     -42474.443      2665.7554     -6714.5943      3875.9875    
      2000   305.7978      -42481.192     -859.49226     -2770.3306      3875.9875    
Loop time of 105.091 on 8 procs for 2000 steps with 362 atoms

Performance: 0.822 ns/day, 29.192 hours/ns, 19.031 timesteps/s, 6.889 katom-step/s
98.8% CPU use with 8 MPI tasks x 1 OpenMP threads

MPI task timing breakdown:
Section |  min time  |  avg time  |  max time  |%varavg| %total
---------------------------------------------------------------
Pair    | 60.132     | 76.354     | 87.948     | 119.6 | 72.66
Bond    | 0.00073113 | 0.00079592 | 0.00088228 |   0.0 |  0.00
Neigh   | 4.8757     | 6.0429     | 6.9231     |  31.1 |  5.75
Comm    | 1.8587     | 13.464     | 29.672     | 284.7 | 12.81
Output  | 0.00083918 | 0.00095724 | 0.0013969  |   0.0 |  0.00
Modify  | 8.2933     | 9.1881     | 10.371     |  25.5 |  8.74
Other   |            | 0.04052    |            |       |  0.04

Nlocal:          45.25 ave          55 max          40 min
Histogram: 3 0 0 1 2 1 0 0 0 1
Nghost:        3532.62 ave        3545 max        3511 min
Histogram: 1 0 0 1 1 0 1 1 0 3
Neighs:        29492.1 ave       35421 max       26210 min
Histogram: 3 0 0 1 2 1 0 0 0 1

Total # of neighbors = 235937
Ave neighs/atom = 651.75967
Ave special neighs/atom = 0
Neighbor list builds = 200
Dangerous builds not checked
OMP_NUM_THREADS environment is not set. Defaulting to 1 thread. (src/comm.cpp:98)
  using 1 OpenMP thread(s) per MPI task
Reading restart file ...
  restart file = 2 Aug 2023, LAMMPS = 2 Aug 2023
  restoring atom style full from restart
  triclinic box = (-0.11725316 0.18064571 0.072471758) to (17.289453 12.947254 17.514228) with tilt (-9.1387033 0.71139887 0.62771651)
WARNING: Triclinic box skew is large. LAMMPS will run inefficiently. (src/domain.cpp:220)
  2 by 2 by 2 MPI processor grid
  pair style reaxff stores no restart info
  362 atoms
Finding 1-2 1-3 1-4 neighbors ...
  special bond factors lj:    0        0        0       
  special bond factors coul:  0        0        0       
     0 = max # of 1-2 neighbors
     0 = max # of 1-3 neighbors
     0 = max # of 1-4 neighbors
     1 = max # of special neighbors
  special bonds CPU = 0.000 seconds
  read_restart CPU = 0.003 seconds
*****Positive-change 6 starts.*****
Resetting global fix info from restart file:
  fix style: nvt, fix ID: 4
Changing box ...
WARNING: Triclinic box skew is large. LAMMPS will run inefficiently. (src/domain.cpp:220)
  triclinic box = (-0.11725316 0.18064571 0.072471758) to (17.289453 12.947254 17.514228) with tilt (-9.0110372 0.71139887 0.62771651)
All restart file global fix info was re-assigned
Neighbor list info ...
  update: every = 10 steps, delay = 0 steps, check = no
  max neighbors/atom: 2000, page size: 100000
  master list distance cutoff = 12
  ghost atom cutoff = 12
  binsize = 6, bins = 5 3 3
  2 neighbor lists, perpetual/occasional/extra = 2 0 0
  (1) pair reaxff, perpetual
      attributes: half, newton off, ghost
      pair build: half/bin/newtoff/ghost
      stencil: full/ghost/bin/3d
      bin: standard
  (2) fix qeq/reaxff, perpetual, copy from (1)
      attributes: half, newton off
      pair build: copy
      stencil: none
      bin: none
Setting up Verlet run ...
  Unit style    : real
  Current step  : 0
  Time step     : 0.5
Per MPI rank memory allocation (min/avg/max) = 134.5 | 135.5 | 136.4 Mbytes
   Step          Temp          PotEng         Press        f_avgp[1]        Volume    
         0   301.6662      -42459.242     -8033.9744      0              3875.9875    
       100   294.30949     -42475.474     -17477.186     -3211.5463      3875.9875    
       200   265.07251     -42457.743      8045.2823     -3457.36        3875.9875    
       300   295.60391     -42467.484     -1160.7775     -3728.4599      3875.9875    
       400   294.81999     -42438.529      3158.1182     -560.30534      3875.9875    
       500   314.99402     -42459.857      6465.0145      1814.4028      3875.9875    
       600   304.41154     -42475.71       729.41529     -157.59723      3875.9875    
       700   281.49977     -42464.419     -4283.5631     -7171.8009      3875.9875    
       800   300.68004     -42483.215     -15304.854     -3501.7041      3875.9875    
       900   314.24211     -42462.84      -11510.363     -7011.6773      3875.9875    
      1000   328.40168     -42458.032     -8552.193      -1389.8982      3875.9875    
      1100   304.19232     -42444.575      5004.3636      877.17612      3875.9875    
      1200   309.59325     -42468.716      2144.2072     -3372.7778      3875.9875    
      1300   282.6815      -42454.889      5252.9072     -1815.7103      3875.9875    
      1400   305.69661     -42481.159     -2492.3601     -7976.5483      3875.9875    
      1500   293.48654     -42463.958      12001.203     -881.77052      3875.9875    
      1600   300.97395     -42461.286     -673.90324      1684.6199      3875.9875    
      1700   309.46395     -42452.48      -311.35604     -2963.6284      3875.9875    
      1800   290.08438     -42420.219      9455.4419     -1544.9435      3875.9875    
      1900   313.80854     -42469.55       10921.243      3052.1728      3875.9875    
      2000   286.55531     -42466.813     -626.15073     -1558.144       3875.9875    
Loop time of 87.9889 on 8 procs for 2000 steps with 362 atoms

Performance: 0.982 ns/day, 24.441 hours/ns, 22.730 timesteps/s, 8.228 katom-step/s
98.9% CPU use with 8 MPI tasks x 1 OpenMP threads

MPI task timing breakdown:
Section |  min time  |  avg time  |  max time  |%varavg| %total
---------------------------------------------------------------
Pair    | 53.838     | 62.82      | 73.42      | 109.2 | 71.40
Bond    | 0.00056929 | 0.00066931 | 0.00077618 |   0.0 |  0.00
Neigh   | 4.7828     | 5.4403     | 6.2845     |  28.4 |  6.18
Comm    | 0.89291    | 11.485     | 20.453     | 255.3 | 13.05
Output  | 0.0035527  | 0.0044783  | 0.0051046  |   0.8 |  0.01
Modify  | 7.3456     | 8.2024     | 8.8652     |  23.4 |  9.32
Other   |            | 0.03601    |            |       |  0.04

Nlocal:          45.25 ave          51 max          40 min
Histogram: 2 0 1 0 1 1 0 1 1 1
Nghost:        3507.25 ave        3516 max        3485 min
Histogram: 1 0 0 1 0 0 1 0 0 5
Neighs:        29502.6 ave       32998 max       26193 min
Histogram: 2 0 1 0 1 1 0 1 1 1

Total # of neighbors = 236021
Ave neighs/atom = 651.99171
Ave special neighs/atom = 0
Neighbor list builds = 200
Dangerous builds not checked
*****Equilibration pos6 starts.*****
WARNING: New thermo_style command, previous thermo_modify settings will be lost (src/output.cpp:903)
Neighbor list info ...
  update: every = 10 steps, delay = 0 steps, check = no
  max neighbors/atom: 2000, page size: 100000
  master list distance cutoff = 12
  ghost atom cutoff = 12
  binsize = 6, bins = 5 3 3
  2 neighbor lists, perpetual/occasional/extra = 2 0 0
  (1) pair reaxff, perpetual
      attributes: half, newton off, ghost
      pair build: half/bin/newtoff/ghost
      stencil: full/ghost/bin/3d
      bin: standard
  (2) fix qeq/reaxff, perpetual, copy from (1)
      attributes: half, newton off
      pair build: copy
      stencil: none
      bin: none
Setting up Verlet run ...
  Unit style    : real
  Current step  : 0
  Time step     : 0.5
Per MPI rank memory allocation (min/avg/max) = 134.5 | 135.5 | 136.3 Mbytes
   Step          Temp          PotEng         Press        f_avgp[1]        Volume    
         0   286.55531     -42466.813     -626.15575      0              3875.9875    
       100   285.90709     -42456.599      1213.5247     -3170.1916      3875.9875    
       200   312.63252     -42454.972      3237.9204      528.8717       3875.9875    
       300   299.30071     -42436.15      -8209.7222     -7929.61        3875.9875    
       400   289.82807     -42469.958     -4759.6506      4627.915       3875.9875    
       500   276.96854     -42464.276     -80.17022      -1736.6194      3875.9875    
       600   306.26185     -42482.463     -6079.5757     -8153.6891      3875.9875    
       700   311.92473     -42473.543      7049.7352      342.7861       3875.9875    
       800   301.67242     -42446.017     -2024.2169     -3164.2382      3875.9875    
       900   299.30416     -42422.236     -1962.9304     -4633.0778      3875.9875    
      1000   313.72717     -42450.958      3391.2165      683.64251      3875.9875    
      1100   286.39494     -42455.222      6142.3021     -3116.9971      3875.9875    
      1200   289.08991     -42458.435     -3185.3126     -863.91103      3875.9875    
      1300   312.81205     -42470.371     -2984.7001      1018.6945      3875.9875    
      1400   289.0428      -42435.487      8937.1037      3698.038       3875.9875    
      1500   317.13092     -42450.522      3440.6783      500.55861      3875.9875    
      1600   301.84269     -42445.366     -9116.2416     -5367.0412      3875.9875    
      1700   284.43027     -42457.05      -3075.8658     -5898.6075      3875.9875    
      1800   301.80467     -42488.499     -7826.0118     -2699.4156      3875.9875    
      1900   279.77598     -42457.578      5845.2873     -3801.485       3875.9875    
      2000   304.00291     -42460.204     -997.67349     -2615.499       3875.9875    
Loop time of 60.9853 on 8 procs for 2000 steps with 362 atoms

Performance: 1.417 ns/day, 16.940 hours/ns, 32.795 timesteps/s, 11.872 katom-step/s
98.7% CPU use with 8 MPI tasks x 1 OpenMP threads

MPI task timing breakdown:
Section |  min time  |  avg time  |  max time  |%varavg| %total
---------------------------------------------------------------
Pair    | 47.254     | 48.636     | 49.544     |  11.3 | 79.75
Bond    | 0.00050749 | 0.00058872 | 0.00066667 |   0.0 |  0.00
Neigh   | 4.779      | 4.8224     | 5.0421     |   3.8 |  7.91
Comm    | 0.58161    | 1.4947     | 2.871      |  64.1 |  2.45
Output  | 0.00085846 | 0.00091478 | 0.0011374  |   0.0 |  0.00
Modify  | 5.7697     | 5.9959     | 6.0415     |   3.5 |  9.83
Other   |            | 0.0352     |            |       |  0.06

Nlocal:          45.25 ave          50 max          39 min
Histogram: 1 1 0 0 1 1 0 1 2 1
Nghost:        3497.38 ave        3520 max        3474 min
Histogram: 1 1 1 0 0 2 1 0 1 1
Neighs:        29495.1 ave       32309 max       25597 min
Histogram: 1 1 0 0 1 1 0 1 2 1

Total # of neighbors = 235961
Ave neighs/atom = 651.82597
Ave special neighs/atom = 0
Neighbor list builds = 200
Dangerous builds not checked
Total wall time: 0:43:50
