LAMMPS (2 Aug 2023 - Update 2)
  using 6 OpenMP thread(s) per MPI task

include init.in

# set log file
# log log.elastic

# Define MD parameters
variable nevery equal 5                 # sampling interval
variable nrepeat equal 20                 # times to use input values for calculating averages
variable nfreq equal ${nevery}*${nrepeat} # length of one average
variable nfreq equal 5*${nrepeat} 
variable nfreq equal 5*20 
variable nthermo equal ${nfreq}           # interval for thermo output: 100
variable nthermo equal 100           

variable temp equal 300.0                # temperature of initial sample
variable timestep equal 0.5               # timestep
variable adiabatic equal 2                # adiabatic (1) or isothermal (2)
variable tdamp equal 50.0                 # time constant for temperature
variable pdamp equal 10*${tdamp}          # time constant for pressure
variable pdamp equal 10*50          
variable up equal 2.0e-3                  # the deformation magnitude
variable thermostat equal 1               # 0 if NVE, 1 if NPT, 2 if NVT
variable delta index 1.0e-6               # Born numdiff strain magnitude

# read initial structure
units           real
dimension       3
boundary        p p p
atom_style      full

# read initial structure
# read_data 333SiO2-1-UFF-c_eq.data
read_data 333SiO2-1-UFF-c.data
Reading data file ...
  triclinic box = (0 0 0) to (14.6913 12.723 15.9631) with tilt (-7.3456 0 0)
WARNING: Triclinic box skew is large. LAMMPS will run inefficiently. (src/domain.cpp:220)
  1 by 1 by 2 MPI processor grid
  reading atoms ...
  243 atoms
Finding 1-2 1-3 1-4 neighbors ...
  special bond factors lj:    0        0        0       
  special bond factors coul:  0        0        0       
     0 = max # of 1-2 neighbors
     0 = max # of 1-3 neighbors
     0 = max # of 1-4 neighbors
     1 = max # of special neighbors
  special bonds CPU = 0.000 seconds
  read_data CPU = 0.008 seconds
variable nequil equal 1000*${nthermo}       # length of equilibration run 1000
variable nequil equal 1000*100       
variable nrun equal 1000*${nthermo}          # length of equilibrated run
variable nrun equal 1000*100          
variable seed index 123456                # seed for thermostat 123456

thermo ${nthermo}
thermo 100
thermo_style custom step temp pe press

# Energy minimization
print "##### Minimization starts."
##### Minimization starts.
minimize 1.0e-6 1.0e-6 100 1000
WARNING: No pairwise cutoff or binsize set. Atom sorting therefore disabled. (src/atom.cpp:2366)
WARNING: Communication cutoff is 0.0. No ghost atoms will be generated. Atoms may get lost. (src/comm_brick.cpp:210)
Per MPI rank memory allocation (min/avg/max) = 8.865 | 8.865 | 8.865 Mbytes
   Step          Temp          PotEng         Press     
         0   0              0              0            
         1   0              0              0            
Loop time of 3.108e-05 on 12 procs for 1 steps with 243 atoms

56.3% CPU use with 2 MPI tasks x 6 OpenMP threads

Minimization stats:
  Stopping criterion = search direction is not downhill
  Energy initial, next-to-last, final = 
                     0                  0                  0
  Force two-norm initial, final = 0 0
  Force max component initial, final = 0 0
  Final line search alpha, max atom move = 0 0
  Iterations, force evaluations = 1 0

MPI task timing breakdown:
Section |  min time  |  avg time  |  max time  |%varavg| %total
---------------------------------------------------------------
Pair    | 0          | 0          | 0          |   0.0 |  0.00
Bond    | 1.467e-06  | 1.467e-06  | 1.467e-06  |   0.0 |  4.72
Neigh   | 0          | 0          | 0          |   0.0 |  0.00
Comm    | 5.098e-06  | 5.098e-06  | 5.098e-06  |   0.0 | 16.40
Output  | 0          | 0          | 0          |   0.0 |  0.00
Modify  | 0          | 0          | 0          |   0.0 |  0.00
Other   |            | 2.452e-05  |            |       | 78.88

Nlocal:          121.5 ave         126 max         117 min
Histogram: 1 0 0 0 0 0 0 0 0 1
Nghost:              9 ave          12 max           6 min
Histogram: 1 0 0 0 0 0 0 0 0 1
Neighs:              0 ave           0 max           0 min
Histogram: 2 0 0 0 0 0 0 0 0 0

Total # of neighbors = 0
Ave neighs/atom = 0
Ave special neighs/atom = 0
Neighbor list builds = 0
Dangerous builds = 0
min_style cg
# Save the optimized structure
write_data sio2_opt.data
System init for write_data ...
WARNING: Communication cutoff is 0.0. No ghost atoms will be generated. Atoms may get lost. (src/comm_brick.cpp:210)
reset_timestep 0
timestep ${timestep}
timestep 0.5

velocity        all create ${temp} ${seed} dist gaussian
velocity        all create 300 ${seed} dist gaussian
velocity        all create 300 123456 dist gaussian
# equilibration
variable thermostat equal 2               # 0 if NVE, 1 if NPT, 2 if NVT
print "equil: ${thermostat}"
equil: 2
include ff.in
if "$(is_defined(fix,5))" then "unfix 5"
if "$(is_defined(fix,6))" then "unfix 6"
reset_timestep 0

# Assign the force field
pair_style reaxff NULL safezone 3.0 mincap 150
# pair_coeff * * CHONSSi.ff O Si
# pair_coeff * * CHOSiNa.ff O Si
# pair_coeff * * SiOCHN_2018.ff O Si
# pair_coeff * * PDMSDecomp.ff Si O
# pair_coeff * * CHONSi.ff C H O Si
pair_coeff * * CHOFe.ff O Si
WARNING: Van der Waals parameters for element SI indicate inner wall+shielding, but earlier atoms indicate a different van der Waals method. This may cause division-by-zero errors. Keeping van der Waals setting for earlier atoms. (src/REAXFF/reaxff_ffield.cpp:251)
WARNING: Van der Waals parameters for element AL indicate inner wall+shielding, but earlier atoms indicate a different van der Waals method. This may cause division-by-zero errors. Keeping van der Waals setting for earlier atoms. (src/REAXFF/reaxff_ffield.cpp:251)
WARNING: Changed valency_val to valency_boc for X (src/REAXFF/reaxff_ffield.cpp:296)

# charge method for reaxff
fix myqeq all qeq/reaxff 1 0.0 10.0 1.0e-6 reaxff maxiter 400
# Setup neighbor style
neighbor        2 bin
neigh_modify    every 10 delay 0 check no

# Setup MD
# 0 if NVE, 1 if NPT, 2 if NVT

if "${thermostat} == 0" then    "fix 4 all nve" elif "${thermostat} == 1"    "fix 5 all npt temp ${temp} ${temp} ${tdamp} tri 1.0 1.0 ${pdamp}" elif "${thermostat} == 2"    "fix 6 all nvt temp ${temp} ${temp} ${tdamp}"
fix 6 all nvt temp ${temp} ${temp} ${tdamp}
fix 6 all nvt temp 300 ${temp} ${tdamp}
fix 6 all nvt temp 300 300 ${tdamp}
fix 6 all nvt temp 300 300 50
print "md: ${thermostat}"
md: 2
# save trajectory
dump dump_opt all custom ${nthermo} dump_opt.lammpstrj id type x y z
dump dump_opt all custom 100 dump_opt.lammpstrj id type x y z
run ${nequil}
run 100000

CITE-CITE-CITE-CITE-CITE-CITE-CITE-CITE-CITE-CITE-CITE-CITE-CITE

Your simulation uses code contributions which should be cited:

- pair reaxff command: doi:10.1016/j.parco.2011.08.005

@Article{Aktulga12,
 author = {H. M. Aktulga and J. C. Fogarty and S. A. Pandit and A. Y. Grama},
 title = {Parallel Reactive Molecular Dynamics: {N}umerical Methods and Algorithmic Techniques},
 journal = {Parallel Computing},
 year =    2012,
 volume =  38,
 number =  {4--5},
 pages =   {245--259}
}

- fix qeq/reaxff command: doi:10.1016/j.parco.2011.08.005

@Article{Aktulga12,
 author = {H. M. Aktulga and J. C. Fogarty and S. A. Pandit and A. Y. Grama},
 title = {Parallel Reactive Molecular Dynamics: {N}umerical Methods and Algorithmic Techniques},
 journal = {Parallel Computing},
 year =    2012,
 volume =  38,
 pages =   {245--259}
}

CITE-CITE-CITE-CITE-CITE-CITE-CITE-CITE-CITE-CITE-CITE-CITE-CITE

Neighbor list info ...
  update: every = 10 steps, delay = 0 steps, check = no
  max neighbors/atom: 2000, page size: 100000
  master list distance cutoff = 12
  ghost atom cutoff = 12
  binsize = 6, bins = 4 3 3
  2 neighbor lists, perpetual/occasional/extra = 2 0 0
  (1) pair reaxff, perpetual
      attributes: half, newton off, ghost
      pair build: half/bin/newtoff/ghost
      stencil: full/ghost/bin/3d
      bin: standard
  (2) fix qeq/reaxff, perpetual, copy from (1)
      attributes: half, newton off
      pair build: copy
      stencil: none
      bin: none
Per MPI rank memory allocation (min/avg/max) = 160.8 | 160.9 | 161 Mbytes
   Step          Temp          PotEng         Press     
         0   300           -36881.566      21554.575    
       100   188.92588     -36766.954      5347.404     
       200   220.21689     -36750.968      6626.3863    
       300   258.20253     -36732.471      27570.119    
       400   287.91775     -36705.25       8158.216     
       500   300.22759     -36685.231      3942.2982    
       600   313.63845     -36708.016      28370.025    
       700   278.63881     -36697.689      6260.0444    
       800   287.77908     -36717.334      15246.889    
       900   327.04132     -36744.877      14302.098    
      1000   292.18051     -36715.085      9250.4072    
      1100   293.00644     -36712.026      3831.6964    
      1200   308.28975     -36715.346      21103.299    
      1300   321.14286     -36715.05       16624.422    
      1400   321.34326     -36721.856      12265.101    
      1500   282.57596     -36720.997      15095.507    
      1600   264.90942     -36717.124      15096.692    
      1700   306.01058     -36729.631      9305.1757    
      1800   302.64724     -36706.344      16330.979    
      1900   328.07152     -36725.286      20833.458    
      2000   301.75775     -36712.177      91.493843    
      2100   312.70869     -36731.761      12616.667    
      2200   293.57517     -36722.301      18214.58     
      2300   294.26866     -36708.738      11806.437    
      2400   299.66659     -36691.415      7407.8817    
      2500   324.46137     -36709.613      23590.005    
      2600   305.11632     -36714.745      5716.7616    
      2700   305.877       -36722.534      14016.913    
      2800   295.57091     -36722.153      13583.828    
      2900   305.97834     -36727.184      16077.939    
      3000   280.07635     -36677.436      6962.832     
      3100   325.37036     -36702.261      21789.418    
      3200   317.12224     -36710.382      8651.3293    
      3300   302.27907     -36712.882      10034.793    
      3400   297.50053     -36716.783      12960.738    
      3500   292.01325     -36713.773      12849.063    
      3600   315.18005     -36709.088      11431.145    
      3700   319.95914     -36698.247      10868.531    
      3800   326.27949     -36714.111      11747.724    
      3900   301.98286     -36727.151      10450.787    
      4000   293.76424     -36718.428      7300.8219    
      4100   324.3406      -36728.608      10249.116    
      4200   294.83655     -36702.397      17365.13     
      4300   306.46483     -36698.789      11539.466    
      4400   300.921       -36690.627      8142.5811    
      4500   298.39503     -36714.683      21648.716    
      4600   286.45871     -36718.702      15053.832    
      4700   285.72116     -36715.609      3897.1065    
      4800   299.58317     -36709.37       10672.957    
      4900   321.64121     -36701.623      15224.982    
      5000   308.08189     -36697.995      11121.528    
      5100   316.07315     -36717.163      11715.364    
      5200   301.58931     -36722.248      13231.813    
      5300   278.85536     -36709.758      2812.1298    
      5400   306.9288      -36725.766      13337.332    
      5500   293.24684     -36710.78       23513.65     
      5600   306.73872     -36716.749      5706.8463    
      5700   281.36256     -36704.109      9799.8357    
      5800   295.82282     -36725.8        22239.692    
      5900   279.98176     -36705.476      6277.913     
      6000   288.60759     -36692.72       11624.06     
      6100   337.49076     -36722.57       15115.412    
      6200   291.29815     -36707.35       15075.541    
      6300   305.59408     -36735.28       8349.3723    
      6400   267.3048      -36707.618      18364.269    
      6500   304.42714     -36719.709      10923.054    
      6600   281.01219     -36696.644      6753.9338    
      6700   309.84094     -36717.301      17691.418    
      6800   315.25566     -36725.57       17496.683    
      6900   304.66184     -36719.009      10914.43     
      7000   296.73037     -36715.774      16758.646    
      7100   291.48038     -36719.15       10564.218    
      7200   282.46151     -36728.032      7204.8572    
      7300   275.96666     -36717.477      8562.4083    
      7400   284.79334     -36700.43       14408.21     
      7500   308.40598     -36707.793      11703.242    
      7600   283.67862     -36695.789      15423.336    
      7700   313.54784     -36719.836      15803.587    
      7800   296.52223     -36723.892      9149.68      
      7900   277.10391     -36726.389      13526.078    
      8000   287.37726     -36722.406      12235.864    
      8100   291.98817     -36701.986      17273.51     
      8200   318.99582     -36715.985      7776.1583    
      8300   305.09339     -36719.161      11514.634    
      8400   273.24521     -36715.485      13347.896    
      8500   284.68547     -36721.209      9648.0158    
      8600   325.51115     -36710.048      4521.0575    
      8700   296.99041     -36687.895      15496.548    
      8800   324.01874     -36727.488      17543.344    
      8900   302.8859      -36727.923      4347.6342    
      9000   282.12037     -36710.799      16091.461    
      9100   315.71162     -36717.257      13224.473    
      9200   327.85877     -36704.197      3763.209     
      9300   310.57311     -36693.552      16139.708    
      9400   296.79977     -36714.115      16984.564    
      9500   285.54774     -36718.062      7581.5092    
      9600   288.00701     -36715.74       9587.6873    
      9700   300.48202     -36715.177      13113.198    
      9800   302.45905     -36690.103      7958.5638    
      9900   320.93416     -36702.671      14484.067    
     10000   307.22822     -36724.52       11965.629    
     10100   297.98844     -36726.817      12589.531    
     10200   311.35154     -36726.59       4102.285     
     10300   307.81475     -36710.875      20133.614    
     10400   306.83046     -36698.624      8295.701     
     10500   311.7457      -36711.987      14190.732    
     10600   296.9153      -36731.296      6467.8444    
     10700   274.17824     -36720.797      8222.4899    
     10800   303.7856      -36723.621      15596.467    
     10900   299.97878     -36704.883      12705.927    
     11000   315.80066     -36710.67       4280.401     
     11100   305.32165     -36717.218      17105.026    
     11200   293.01951     -36719.673      13691.569    
     11300   291.95967     -36709.252      8513.8974    
     11400   334.71257     -36702.782      12016.978    
     11500   312.38615     -36706.147      13129.418    
     11600   298.57544     -36714.421      4078.3296    
     11700   293.0279      -36716.345      11295.482    
     11800   287.27085     -36714.931      12691.495    
     11900   286.93678     -36724.809      13968.484    
     12000   275.3392      -36707.939      14218.385    
     12100   309.70264     -36708.985      7739.4008    
     12200   293.5914      -36696.78       3785.7292    
     12300   297.37346     -36712.173      13848.781    
     12400   297.81222     -36740.558      11764.682    
     12500   272.54374     -36721.205      10399.05     
     12600   296.73056     -36719.972      12004.071    
     12700   324.42363     -36728.374      12866.81     
     12800   312.53604     -36717.915      12760.769    
     12900   298.46097     -36713.883      9135.5359    
     13000   292.23218     -36723.766      13144.859    
     13100   282.424       -36736.031      12446.126    
     13200   274.58384     -36721.316      8263.4966    
     13300   303.65953     -36716.776      15207.198    
     13400   277.3244      -36694.055      10685.977    
     13500   308.44917     -36709.282      12611.572    
     13600   302.26158     -36703.438      15906.134    
     13700   296.29006     -36719.179      12534.225    
     13800   282.11333     -36724.031      10347.314    
     13900   293.28085     -36721.763      19509.757    
     14000   312.34108     -36714.996      12647.174    
     14100   314.59176     -36715.415      11703.295    
     14200   315.12762     -36723.382      14349.249    
     14300   295.13527     -36718.648      5817.7452    
     14400   277.53716     -36708.173      8920.1315    
     14500   292.53623     -36715.205      17311.299    
     14600   308.52525     -36720.058      8703.2386    
     14700   303.63628     -36713.662      6858.9693    
     14800   302.4583      -36708.872      18934.17     
     14900   321.53815     -36721.441      12449.75     
     15000   299.65589     -36713.366      11089.732    
     15100   302.03383     -36737.829      11263.707    
     15200   297.44329     -36732.115      14016.245    
     15300   302.8608      -36712.475      12301.724    
     15400   324.55277     -36714.899      14325.869    
     15500   313.85422     -36715.853      11709.39     
     15600   322.86104     -36730.64       16250.845    
     15700   297.45241     -36726.318      9160.6282    
     15800   272.027       -36716.388      10611.236    
     15900   294.36125     -36714.159      12552.708    
     16000   311.48685     -36705.999      9041.2356    
     16100   295.57086     -36699.257      7005.5512    
     16200   300.50258     -36714.015      16558.471    
     16300   276.00842     -36717.035      9022.5158    
     16400   284.72735     -36728.569      9230.3143    
     16500   296.5502      -36707.053      10540.05     
     16600   302.613       -36696.952      14461.49     
     16700   325.53743     -36722.532      13611.659    
     16800   298.00002     -36721.767      12383.412    
     16900   289.60197     -36719.205      8704.7481    
     17000   299.70583     -36721.493      7627.8449    
     17100   287.54877     -36686.471      17769.31     
     17200   311.98327     -36689.829      10463.14     
     17300   317.81558     -36712.191      12540.426    
     17400   286.47291     -36713.059      9081.3639    
     17500   266.0283      -36700.821      15000.823    
     17600   302.54037     -36715.055      13374.697    
     17700   318.69311     -36711.556      12277.276    
     17800   320.35622     -36711.817      15077.818    
     17900   300.39994     -36715.935      14432.463    
     18000   291.11475     -36724.677      17007.047    
     18100   298.02017     -36735.219      13171.248    
     18200   284.16807     -36701.258      6697.5918    
     18300   320.52557     -36708.175      14593.101    
     18400   298.84705     -36703.262      11393.201    
     18500   282.47542     -36704.276      10679.77     
     18600   312.11668     -36729.684      14453.018    
     18700   278.56509     -36726.009      11482.15     
     18800   269.2566      -36734.966      16130.422    
     18900   295.45796     -36732.786      14011.201    
     19000   314.74466     -36726.906      5237.0777    
     19100   321.61804     -36723.781      11667.108    
     19200   318.51405     -36717.548      13040.298    
     19300   296.95447     -36711.985      4771.2402    
     19400   279.55777     -36724.506      18617.224    
     19500   279.74107     -36727.459      13940.167    
     19600   295.14366     -36703.142      4112.5321    
     19700   307.42536     -36706.864      10222.305    
     19800   308.67446     -36718.497      19399.146    
     19900   306.16955     -36725.319      6238.6704    
     20000   278.60547     -36715.307      7133.9528    
     20100   290.39028     -36736.351      20069.743    
     20200   279.54489     -36713.775      10845.723    
     20300   311.23411     -36708.63       13818.648    
     20400   309.0232      -36705.007      19596.46     
     20500   280.35079     -36698.194      16537.786    
     20600   283.25629     -36715.643      4076.9119    
     20700   281.94559     -36730.524      18751.661    
     20800   281.65818     -36733.313      16306.87     
     20900   283.36988     -36714.617      13213.834    
     21000   303.84601     -36705.752      13356.068    
     21100   316.96555     -36709.992      5532.6848    
     21200   311.49848     -36719.235      15794.883    
     21300   286.46225     -36727.81       17974.525    
     21400   266.53371     -36709.154      12298.274    
     21500   288.91962     -36710.951      4196.2157    
     21600   313.09372     -36726.608      21466.909    
     21700   294.81459     -36715.259      13302.404    
     21800   292.75572     -36714.48       15671.848    
     21900   289.35628     -36708.222      15958.692    
     22000   309.5921      -36715.281      10191.474    
     22100   315.95717     -36709.958      12987.857    
     22200   304.99594     -36708.344      17485.024    
     22300   287.57975     -36715.439      10974.467    
     22400   277.67934     -36721.272      10055.101    
     22500   302.57709     -36728.956      19516.532    
     22600   313.41641     -36706.122      17332.992    
     22700   313.65374     -36702.035      9004.1556    
     22800   312.44173     -36723.526      12697.242    
     22900   282.86571     -36717.153      9295.9497    
     23000   282.84867     -36711.864      9680.2343    
     23100   303.23467     -36713.885      18054.587    
     23200   306.31815     -36713.951      14129.056    
     23300   304.46655     -36712.975      11669.838    
     23400   298.38407     -36719.721      19164.505    
     23500   282.30534     -36726.18       13205.203    
     23600   278.71985     -36741.728      15573.534    
     23700   269.58872     -36719.737      10036.179    
     23800   282.03017     -36709.375      17956.828    
     23900   313.8774      -36721.467      13228.695    
     24000   325.0426      -36713.313      5994.9593    
     24100   307.09998     -36705.811      11258.697    
     24200   280.32093     -36715.343      11452.887    
     24300   273.09155     -36721.513      12015.642    
     24400   282.85761     -36713.383      7371.9687    
     24500   309.58267     -36722.71       18090.11     
     24600   298.13035     -36711.644      12083.323    
     24700   282.16273     -36704.499      10249.216    
     24800   297.78678     -36733.434      10815.847    
     24900   259.63712     -36728.329      17731.829    
     25000   282.78268     -36725.746      7035.247     
     25100   311.11965     -36722.758      6354.397     
     25200   308.95621     -36717.296      18446.33     
     25300   288.32043     -36706.493      18907.739    
     25400   281.70461     -36702.642      4773.9295    
     25500   291.9137      -36726.441      14308.622    
     25600   285.40297     -36733.55       9262.7079    
     25700   292.63291     -36731.329      15647.49     
     25800   301.29163     -36708.735      6985.1401    
     25900   302.11683     -36708.549      15513.937    
     26000   304.02492     -36710.694      11744.839    
     26100   298.98039     -36721.339      17882.531    
     26200   268.3724      -36720.162      12673.787    
     26300   293.6338      -36729.098      17390.263    
     26400   287.38968     -36701.787      14524.033    
     26500   299.30689     -36707.503      14616.769    
     26600   293.36524     -36708.941      9281.6954    
     26700   312.83101     -36729.632      11792.038    
     26800   277.63069     -36717.249      10985.409    
     26900   284.80332     -36730.247      16911.104    
     27000   307.49224     -36726.273      10998.808    
     27100   307.37322     -36703.613      3889.7377    
     27200   310.54328     -36706.622      16537.851    
     27300   306.596       -36713.659      13673.604    
     27400   299.29943     -36723.327      15753.434    
     27500   286.87482     -36747.212      2610.3089    
     27600   264.99708     -36727.39       13785.836    
     27700   267.96254     -36704.815      12026.626    
     27800   301.55808     -36713.866      11843.279    
     27900   320.3695      -36718.284      17226.248    
     28000   318.23751     -36717.158      10819.59     
     28100   288.36047     -36709.806      11942.435    
     28200   274.93857     -36721.612      12341.413    
     28300   282.82151     -36717.957      10520.587    
     28400   300.60285     -36708.91       20437.659    
     28500   298.71831     -36698.863      9942.1196    
     28600   294.81099     -36702.269      17256.75     
     28700   289.61334     -36707.109      9783.9466    
     28800   302.46413     -36732.103      11836.812    
     28900   288.71112     -36734.068      14947.219    
     29000   289.46683     -36737.519      14383.485    
     29100   308.83596     -36726.045      10454.187    
     29200   283.9838      -36690.939      11503.341    
     29300   317.1916      -36707.119      13623.329    
     29400   306.02214     -36712.646      11907.436    
     29500   290.65148     -36726.529      9847.8951    
     29600   269.28505     -36711.383      15112.315    
     29700   303.55595     -36722.584      12178.571    
     29800   317.78421     -36724.842      13554.945    
     29900   298.44705     -36710.951      12573.996    
     30000   298.38111     -36708.164      12073.015    
     30100   293.69407     -36696.707      16531.413    
     30200   311.60775     -36706.715      16630.34     
     30300   285.99616     -36702.262      15845.213    
     30400   286.79606     -36719.25       13036.645    
     30500   293.34204     -36723.349      17479.713    
     30600   314.79748     -36711.967      10496.248    
     30700   317.7033      -36696.481      22527.364    
     30800   319.07604     -36693.94       19356.11     
     30900   298.75111     -36707          7942.9266    
     31000   292.28518     -36723.156      9652.7522    
     31100   285.10659     -36722.101      17086.6      
     31200   287.181       -36702.132      16186.128    
     31300   324.21546     -36714.096      11477.961    
     31400   297.08813     -36700.89       13096.078    
     31500   298.63863     -36729.106      10310.246    
     31600   282.94114     -36734.777      10241.875    
     31700   276.87192     -36717.369      16138.597    
     31800   294.49797     -36708.568      14235.911    
     31900   294.14229     -36698.206      11632.734    
     32000   292.95365     -36704.292      14407.244    
     32100   279.7093      -36718.81       16850.332    
     32200   284.43285     -36733.789      6512.1394    
     32300   293.65492     -36729.78       10550.121    
     32400   306.6053      -36724.579      21742.871    
     32500   296.36023     -36709.673      10105.44     
     32600   310.8089      -36716.11       5746.0577    
     32700   320.82096     -36729.373      21127.873    
     32800   272.59617     -36703.761      11877.344    
     32900   271.09449     -36714.958      6480.3541    
     33000   272.32876     -36713.366      23612.409    
     33100   318.99892     -36716.404      16395.782    
     33200   305.58623     -36700.658      7976.5273    
     33300   308.81554     -36715.744      17228.765    
     33400   305.85437     -36728.743      19553.225    
     33500   285.19937     -36719.237     -405.99167    
     33600   291.55421     -36715.454      18037.819    
     33700   298.98895     -36698.395      24116.977    
     33800   332.73826     -36713.453      1223.7907    
     33900   304.87447     -36716.093      11248.522    
     34000   290.88137     -36723.428      15156.906    
     34100   298.30808     -36724.625      13571.842    
     34200   291.30001     -36703.649      9405.0773    
     34300   311.58666     -36693.662      17936.811    
     34400   319.93419     -36703.486      14148.027    
     34500   283.4995      -36698.625      9335.7806    
     34600   295.12854     -36715.221      9280.7783    
     34700   303.92703     -36719.342      10875.422    
     34800   292.11406     -36709.541      15694.921    
     34900   304.23785     -36703.286      10285.179    
     35000   315.91961     -36698.414      8666.6855    
     35100   306.87516     -36703.529      14891.002    
     35200   280.46144     -36710.601      16710.023    
     35300   314.04879     -36738.691      8258.9358    
     35400   287.98085     -36713.026      12299.16     
     35500   305.93294     -36712.914      13157.615    
     35600   319.30692     -36711.017      10985.356    
     35700   328.54443     -36689.072      15129.724    
     35800   318.66789     -36688.361      16930.228    
     35900   314.84557     -36713.8        7206.0834    
     36000   290.73372     -36712.71       9545.9932    
     36100   300.01397     -36723.372      15803.16     
     36200   313.26229     -36720.9        11996.045    
     36300   306.17012     -36694.054      4919.7412    
     36400   328.97989     -36717.394      14081.03     
     36500   276.48431     -36711.257      20013.596    
     36600   296.78148     -36730.229      9843.8222    
     36700   285.95147     -36708.942      18492.053    
     36800   321.72192     -36723.082      14091.902    
     36900   282.88407     -36702.599      3199.8511    
     37000   280.82696     -36726.872      15158.681    
     37100   261.152       -36730.005      17643.844    
     37200   292.49238     -36731.798      10777.849    
     37300   315.85295     -36732.603      9853.4623    
     37400   275.28106     -36697.006      20293.13     
     37500   318.37208     -36709.514      14447.33     
     37600   313.69215     -36716.183      13053.169    
     37700   272.57943     -36716.283      18612.562    
     37800   280.81095     -36721.849      16139.717    
     37900   276.04943     -36700.86       10988.339    
     38000   310.42183     -36714.85       18530.586    
     38100   308.98788     -36711.472      17316.634    
     38200   296.8853      -36726.737      15327.759    
     38300   275.93286     -36731.725      11492.222    
     38400   282.12525     -36727.108      15195.196    
     38500   282.62097     -36711.419      8116.0416    
     38600   311.11194     -36723.933      14979.385    
     38700   305.48599     -36714.882      13743.987    
     38800   301.29293     -36709.514      11716.378    
     38900   280.67012     -36710.446      16129.673    
     39000   270.11766     -36723.545      18489.802    
     39100   307.09357     -36739.685      11147.902    
     39200   300.87911     -36712.387      13437.426    
     39300   325.01804     -36725.867      12352.393    
     39400   279.83075     -36697.806      6902.0811    
     39500   291.19355     -36715.598      8358.3297    
     39600   286.97146     -36718.868      16995.304    
     39700   304.29181     -36726.194      9051.0204    
     39800   297.79925     -36713.953      13617.722    
     39900   305.21937     -36710.02       19131.998    
     40000   326.87997     -36707.939      12430.244    
     40100   322.64733     -36717.539      7599.949     
     40200   278.21346     -36714.368      13357.398    
     40300   308.53496     -36730.572      15791.834    
     40400   306.78902     -36712.098      8860.4981    
     40500   337.64585     -36724.82       12570.925    
     40600   291.77599     -36707.368      7796.9784    
     40700   284.76611     -36728.132      13504.239    
     40800   304.31976     -36733.931      8803.8106    
     40900   303.43167     -36716.347      14066.173    
     41000   322.08238     -36719.724      8840.6904    
     41100   303.2716      -36709.909      16147.204    
     41200   292.45527     -36705.99       9170.836     
     41300   298.59542     -36715.621      18863.237    
     41400   295.21062     -36718.194      10028.609    
     41500   291.47262     -36732.897      10246.623    
     41600   311.10177     -36749.666      6337.3883    
     41700   271.4192      -36709.713      17523.277    
     41800   296.18892     -36702.708      14810.764    
     41900   304.42882     -36706.257      4104.7674    
     42000   292.89962     -36712.755      18057.824    
     42100   273.26507     -36719.824      18877.082    
     42200   289.86306     -36727.793      11251.762    
     42300   278.84155     -36708.992      14586.21     
     42400   306.00047     -36724.004      13187.063    
     42500   316.76523     -36718.234      13559.631    
     42600   296.05171     -36706.027      14259.128    
     42700   297.89229     -36728.632      16245.341    
     42800   265.32678     -36725.389      16906.494    
     42900   287.27039     -36721.611      17579.944    
     43000   305.1224      -36711.523      12691.061    
     43100   298.11433     -36710.537      11478.778    
     43200   309.94537     -36722.902      14148.757    
     43300   291.57311     -36714.665      15330.071    
     43400   288.10676     -36722.68       8108.9516    
     43500   290.32528     -36721.487      11389.884    
     43600   320.05989     -36718.204      12460.503    
     43700   297.4603      -36689.875      5618.965     
     43800   319.12785     -36710.928      21758.837    
     43900   290.44365     -36721.784      12136.279    
     44000   304.44564     -36732.766      10435.243    
     44100   299.8459      -36720.393      14167.047    
     44200   292.41        -36696.616      10251.313    
     44300   326.80789     -36708.447      9233.7844    
     44400   290.83313     -36716.642      15013.324    
     44500   279.52535     -36720.697      15117.626    
     44600   299.2324      -36720.6        8735.9081    
     44700   299.15419     -36703.064      11091.487    
     44800   302.13494     -36703.74       20797.992    
     44900   286.83573     -36710.338      8432.6662    
     45000   276.1719      -36725.154      13817.7      
     45100   304.58964     -36736.25       13117.545    
     45200   309.24625     -36723.408      13184.934    
     45300   302.2122      -36710.489      12062.651    
     45400   311.01689     -36718.723      17338.725    
     45500   296.42697     -36706.75       16410.939    
     45600   304.43446     -36709.94       12458.636    
     45700   293.32373     -36710.586      7786.2846    
     45800   274.42505     -36705.717      15529.394    
     45900   304.4099      -36721.556      14224.475    
     46000   315.88769     -36719.791      6975.4532    
     46100   291.14578     -36702.441      16551.812    
     46200   304.72696     -36726.468      11778.192    
     46300   273.26288     -36725.836      8705.05      
     46400   314.46405     -36749.246      14256.854    
     46500   293.78232     -36722.145      15574.917    
     46600   285.29543     -36703.389      13838.426    
     46700   317.9923      -36724.79       10292.355    
     46800   299.34339     -36714.111      13451.802    
     46900   290.33949     -36717.678      8316.7552    
     47000   288.7442      -36730.513      14320.718    
     47100   276.4443      -36733.385      14261.497    
     47200   291.78453     -36720.567      11604.197    
     47300   314.44935     -36715.956      11802.215    
     47400   310.23708     -36709.157      24280.04     
     47500   298.15739     -36706.711      13430.644    
     47600   305.41635     -36735.936      11203.133    
     47700   287.07774     -36737.813      9191.5966    
     47800   277.43087     -36718.337      6541.8588    
     47900   293.6498      -36715.506      17082.148    
     48000   289.8143      -36702.538      16559.468    
     48100   293.69359     -36700.444      11531.18     
     48200   288.70306     -36709.247      10145.629    
     48300   274.96002     -36723.415      15464.29     
     48400   273.95291     -36723.004      9218.6499    
     48500   274.27199     -36697.051      14183.744    
     48600   325.87642     -36729.136      14901.598    
     48700   289.01011     -36709.939      12354.513    
     48800   314.01313     -36725.501      13014.81     
     48900   314.135       -36712.128      11848.644    
     49000   322.97557     -36712.486      14218.292    
     49100   301.44389     -36715.443      12259.04     
     49200   284.46956     -36719.28       14246.965    
     49300   306.87554     -36733.474      7044.128     
     49400   315.25994     -36727.57       13524.349    
     49500   298.64547     -36688.692      15532.392    
     49600   332.32149     -36713.13       13620.403    
     49700   290.19858     -36704.095      7701.3082    
     49800   298.78744     -36720.069      20930.451    
     49900   296.97509     -36714.735      7779.5794    
     50000   299.58837     -36709.745      7926.0046    
     50100   289.60243     -36694.202      13853.968    
     50200   313.91361     -36698.988      19990.542    
     50300   312.0057      -36709.886      10729.989    
     50400   276.98588     -36710.109      14826.612    
     50500   308.26555     -36731.098      15725.346    
     50600   312.0763      -36723.886      15027.439    
     50700   312.94633     -36710.467      8412.9879    
     50800   327.97751     -36700.575      13272.632    
     50900   331.61674     -36697.104      19900.49     
     51000   297.22285     -36703.149      9919.3736    
     51100   295.98048     -36716.489      12885.137    
     51200   269.94317     -36705.766      14210.266    
     51300   293.51021     -36712.137      11854.759    
     51400   306.01894     -36694.586      10838.243    
     51500   303.16978     -36690.602      14187.091    
     51600   331.83597     -36726.584      16080.112    
     51700   295.93648     -36706.239      16685.107    
     51800   310.81668     -36723.5        9629.0602    
     51900   283.93447     -36718.073      15209.097    
     52000   280.0728      -36716.896      13841.152    
     52100   299.17652     -36706.115      4995.0873    
     52200   317.00727     -36705.509      15849.42     
     52300   325.0759      -36717.458      12593.898    
     52400   295.60574     -36718.806      8450.6751    
     52500   287.0774      -36722.022      10220.947    
     52600   302.90844     -36730.835      17783.235    
     52700   318.91293     -36729.087      8764.3842    
     52800   298.67238     -36709.758      16344.152    
     52900   297.81517     -36701.461      14087.884    
     53000   346.18        -36716.916      8335.7277    
     53100   333.82957     -36702.826      12281.012    
     53200   296.77719     -36705.265      15625.736    
     53300   298.82082     -36721.265      14623.472    
     53400   284.13949     -36709.251      9588.6248    
     53500   317.91723     -36724.367      11339.874    
     53600   292.76311     -36687.565      11458.127    
     53700   320.00619     -36696.369      17489.835    
     53800   329.81962     -36725.835      13346.863    
     53900   276.13865     -36709.749      9749.3962    
     54000   297.94706     -36721.504      11007.683    
     54100   290.89227     -36712.591      15293.347    
     54200   307.94833     -36708.275      17950.008    
     54300   315.14189     -36693.787      10934.556    
     54400   316.33719     -36706.506      14766.776    
     54500   303.61185     -36728.233      10527.494    
     54600   298.51643     -36726.672      6839.1881    
     54700   297.43845     -36715.096      12734.123    
     54800   309.00327     -36705.712      11498.576    
     54900   326.60391     -36715.715      13419.519    
     55000   289.70772     -36719.393      14431.542    
     55100   300.71975     -36739.414      11540.535    
     55200   290.58352     -36720.73       12505.008    
     55300   319.80305     -36729.533      16794.894    
     55400   298.48191     -36704.086      13573.702    
     55500   296.87843     -36706.233      15172.956    
     55600   278.14082     -36700.57       11697.001    
     55700   302.47734     -36719.419      16499.714    
     55800   298.76292     -36715.757      10557.046    
     55900   302.6526      -36714.125      14159.957    
     56000   331.64185     -36707.999      9867.2531    
     56100   313.49435     -36680.364      12630.47     
     56200   289.36003     -36690.199      12290.288    
     56300   314.72919     -36723.701      11184.344    
     56400   294.0823      -36715.247      8327.2835    
     56500   282.13837     -36716.979      16862.993    
     56600   287.76312     -36711.217      14576.868    
     56700   318.04119     -36702.382      5709.7967    
     56800   313.59638     -36705.065      11138.655    
     56900   293.84516     -36714.243      13381.726    
     57000   294.5178      -36718.176      15339.891    
     57100   312.68932     -36729.623      17325.673    
     57200   297.43732     -36711.916      15404.52     
     57300   315.20742     -36693.358      10809.851    
     57400   316.07242     -36695.182      10486.286    
     57500   288.76768     -36703.709      13891.552    
     57600   326.55304     -36737.243      15749.12     
     57700   287.01932     -36706.49       15911.368    
     57800   303.67756     -36711.895      11521.626    
     57900   317.6862      -36703.518      12652.54     
     58000   316.8281      -36695.048      12425.412    
     58100   296.56456     -36706.314      16875.481    
     58200   305.70721     -36729.799      13195.808    
     58300   281.95358     -36711.831      7439.558     
     58400   298.89057     -36718.632      15703.836    
     58500   306.31331     -36695.032      18371.009    
     58600   325.98481     -36700.061      7433.0697    
     58700   301.4782      -36698.918      11721.177    
     58800   295.66258     -36710.222      8584.1834    
     58900   296.27634     -36717.643      16575.337    
     59000   305.82004     -36723.334      19085.339    
     59100   299.46602     -36709.034      11594.099    
     59200   361.20378     -36731.465      13774.319    
     59300   278.06396     -36680.135      8879.9476    
     59400   294.91359     -36712.918      11818.603    
     59500   286.55587     -36712.824      10670.299    
     59600   299.4489      -36720.803      13330.139    
     59700   315.89736     -36729.417      9098.2963    
     59800   283.91181     -36700.065      11386.699    
     59900   340.05552     -36711.054      18004.73     
     60000   347.1703      -36710.534      11986.271    
     60100   306.59259     -36701.12       12297.489    
     60200   294.33282     -36708.297      14794.547    
     60300   301.42908     -36725.278      13818.205    
     60400   283.63217     -36717.229      15534.708    
     60500   260.25423     -36700.697      11552.119    
     60600   287.28938     -36702.018      18539.433    
     60700   311.46431     -36697.665      8623.5198    
     60800   292.72804     -36691.209      15479.416    
     60900   313.22807     -36726.338      17159.461    
     61000   277.69942     -36715.07       12940.051    
     61100   289.57096     -36717.576      7882.1654    
     61200   286.6435      -36707.005      13057.528    
     61300   309.26649     -36709.032      11281.382    
     61400   323.99855     -36717.031      15866.432    
     61500   279.53726     -36714.42       14989.343    
     61600   286.8336      -36730.065      11411.165    
     61700   294.75638     -36718.768      17466.072    
     61800   293.22962     -36708.633      14727.064    
     61900   320.10978     -36724.975      16340.991    
     62000   314.29958     -36723.738      13074.587    
     62100   291.4117      -36723.874      10825.787    
     62200   290.0019      -36731.352      15269.971    
     62300   293.11        -36723.446      5332.5247    
     62400   300.34554     -36703.343      11646.11     
     62500   313.00666     -36709.081      13540.373    
     62600   301.81164     -36711.754      10751.869    
     62700   285.75445     -36710.572      7752.5892    
     62800   284.90408     -36737.19       7621.6177    
     62900   259.63288     -36739.421      18676.466    
     63000   286.77735     -36741.272      7509.5662    
     63100   281.20876     -36718.449      13630.813    
     63200   286.37439     -36706.635      17074.046    
     63300   312.67833     -36706.063      8523.371     
     63400   339.52105     -36724.705      17684.493    
     63500   268.70254     -36699.341      12348.447    
     63600   311.79299     -36733.687      13303.496    
     63700   300.08529     -36720.894      11880.35     
     63800   270.58859     -36691.337      14118.091    
     63900   322.98078     -36702.571      10609.703    
     64000   317.63543     -36689.683      11562.076    
     64100   311.29307     -36718.239      12172.468    
     64200   278.16574     -36717.071      12436.602    
     64300   299.35571     -36731.404      18471.423    
     64400   304.30433     -36719.638      11733.76     
     64500   312.00024     -36704.92       11367.271    
     64600   321.18008     -36705.666      17152.599    
     64700   310.07424     -36724.118      5275.9196    
     64800   289.00518     -36722.756      7109.8689    
     64900   287.11239     -36713.184      23666.676    
     65000   296.81589     -36703.642      14737.929    
     65100   314.89611     -36705.298      7938.8654    
     65200   326.92036     -36717.988      18983.25     
     65300   274.71848     -36702.726      17972.17     
     65400   302.43495     -36734.016      2123.0451    
     65500   274.30418     -36717.023      15842.211    
     65600   319.41285     -36722.31       22373.239    
     65700   303.07507     -36696.282      10033.578    
     65800   300.15073     -36705.674      7776.0399    
     65900   298.91722     -36719.521      19038.282    
     66000   303.03828     -36730.553      10437.247    
     66100   272.00349     -36723.392      5635.5947    
     66200   287.44805     -36739.105      16273.767    
     66300   285.98517     -36706.498      14517.863    
     66400   296.83026     -36700.703      5199.1663    
     66500   303.54366     -36712.091      14702.506    
     66600   272.1871      -36707.967      17274.766    
     66700   305.13298     -36727.813      6992.3974    
     66800   323.47465     -36714.605      11989.992    
     66900   323.85219     -36700.893      13329.538    
     67000   309.48588     -36707.857      5121.3726    
     67100   297.46444     -36715.037      14063.594    
     67200   310.28597     -36732.004      18488.387    
     67300   282.31967     -36705.727      11535.027    
     67400   320.69649     -36710.871      15366.747    
     67500   322.86633     -36701.603      14612.313    
     67600   299.39734     -36703.412      12783.034    
     67700   282.50927     -36713.674      13129.765    
     67800   279.83238     -36711.875      13005.443    
     67900   302.55253     -36719.046      7902.7528    
     68000   304.57881     -36708.195      10874.089    
     68100   322.25904     -36711.408      12777.059    
     68200   318.71711     -36703.869      19320.343    
     68300   320.37533     -36711.989      10744.602    
     68400   281.10227     -36710.128      14857.087    
     68500   301.40613     -36732.615      11730.579    
     68600   273.7574      -36700.358      15781.453    
     68700   329.899       -36716.523      6101.1313    
     68800   316.41108     -36709.447      7636.3209    
     68900   304.05914     -36712.222      19779.48     
     69000   308.29192     -36724.173      12939.088    
     69100   288.87089     -36716.677      7014.7358    
     69200   313.2747      -36718.188      17395.597    
     69300   330.0202      -36704.935      13275.395    
     69400   295.76397     -36695.909      8919.8553    
     69500   303.89488     -36723.378      17722.202    
     69600   304.13111     -36731.73       14733.553    
     69700   285.87835     -36715.303      6250.499     
     69800   311.14131     -36706.997      18687.278    
     69900   327.72516     -36709.088      17957.527    
     70000   289.10994     -36689.427      4277.8347    
     70100   287.53917     -36719.539      16341.421    
     70200   292.64669     -36728.76       17203.833    
     70300   296.90646     -36719.959      7843.909     
     70400   310.88381     -36715.543      8988.0859    
     70500   312.58835     -36711.629      15553.471    
     70600   300.30475     -36711.698      5296.9473    
     70700   264.96044     -36717.691      12224.387    
     70800   295.55849     -36731.587      16628.501    
     70900   303.23421     -36712.344      11267.816    
     71000   320.8923      -36719.389      14580.059    
     71100   296.8655      -36710.356      18239.224    
     71200   300.43434     -36715.755      7216.8055    
     71300   279.81899     -36719.263      9179.3629    
     71400   262.72915     -36721.853      19047.629    
     71500   279.3882      -36713.144      7743.6749    
     71600   312.84633     -36716.045      9166.6674    
     71700   304.1381      -36708.622      15765.24     
     71800   294.58801     -36707.882      11243.483    
     71900   290.81581     -36720.64       12832.936    
     72000   288.47651     -36744.554      12572.441    
     72100   270.62906     -36721.635      9552.3854    
     72200   282.42798     -36702.517      9602.9839    
     72300   311.09783     -36719.782      12431.252    
     72400   303.73192     -36715.673      12878.47     
     72500   293.11972     -36703.258      12931.072    
     72600   323.95819     -36719.201      11336.24     
     72700   286.74143     -36702.174      10845.126    
     72800   288.96219     -36722.626      12880.775    
     72900   284.22899     -36719.028      16391.742    
     73000   301.973       -36698.208      10373.563    
     73100   319.89504     -36705.251      9876.4013    
     73200   305.8395      -36714.634      16226.529    
     73300   286.98821     -36712.226      9526.5061    
     73400   280.88989     -36708.574      13691.587    
     73500   306.84674     -36713.916      14881.593    
     73600   321.10182     -36690.104      13056.07     
     73700   321.05565     -36697.831      13445.554    
     73800   304.69012     -36705.352      12509.948    
     73900   311.67378     -36719.85       11103.372    
     74000   290.05087     -36717.506      18494.354    
     74100   298.57353     -36733.072      15214.045    
     74200   279.92361     -36719.629      7593.0747    
     74300   306.42489     -36716.866      9537.7691    
     74400   312.90316     -36708.384      22497.668    
     74500   293.62608     -36697.839      9060.056     
     74600   315.16254     -36735.977      10536.037    
     74700   281.57346     -36728.23       16508.684    
     74800   282.42665     -36718.516      11458.57     
     74900   297.45376     -36695.567      12330.513    
     75000   316.13438     -36708.125      19956.394    
     75100   310.82269     -36719.947      15993.453    
     75200   291.72958     -36725.186      15278.84     
     75300   290.69762     -36725.613      11087.565    
     75400   294.8818      -36706.383      12321.369    
     75500   309.08994     -36699.634      13162.586    
     75600   313.80483     -36715.211      14142.925    
     75700   288.76168     -36709.095      11819.742    
     75800   291.45833     -36721.34       17646.903    
     75900   282.5868      -36724.367      8166.1956    
     76000   284.59325     -36733.77       16840.668    
     76100   299.69264     -36716.506      16800.916    
     76200   323.89757     -36718.915      13032.206    
     76300   293.49056     -36699.764      9589.7406    
     76400   306.39049     -36729.812      15985.074    
     76500   270.42846     -36717.606      10807.833    
     76600   308.11931     -36734.631      10585.197    
     76700   299.49468     -36695.697      18320.915    
     76800   306.68787     -36699.864      17147.635    
     76900   312.08044     -36712.41       5546.4368    
     77000   284.46471     -36720.386      15280.116    
     77100   285.87096     -36722.013      17148.896    
     77200   289.45256     -36713.583      10997.228    
     77300   319.57533     -36724.45       13767.305    
     77400   309.09311     -36713.746      19174.852    
     77500   282.80302     -36692.602      11442.39     
     77600   314.01337     -36717.141      7033.6192    
     77700   315.33137     -36728.207      14933.277    
     77800   298.03389     -36721.304      10635.932    
     77900   293.35421     -36700.519      17636.541    
     78000   320.14134     -36697.091      12933.716    
     78100   323.25312     -36715.507      11954.184    
     78200   291.91985     -36707.999      12654.719    
     78300   295.56979     -36713.437      16106.131    
     78400   304.61084     -36717.812      9090.7103    
     78500   306.53878     -36721.934      13067.408    
     78600   270.975       -36713.149      14217.813    
     78700   288.48044     -36725.294      14700.804    
     78800   304.09436     -36710.547      17007.807    
     78900   324.2888      -36716.447      3840.5593    
     79000   310.93922     -36720.487      14894.38     
     79100   293.85887     -36718.43       17328.825    
     79200   301.08972     -36718.445      7649.3597    
     79300   297.1152      -36715.496      13913.723    
     79400   291.91511     -36712.358      12920.549    
     79500   286.7688      -36710.46       3322.564     
     79600   287.25939     -36719.983      14390.492    
     79700   293.73355     -36722.182      13980.836    
     79800   307.39717     -36707.558      13884.372    
     79900   335.77247     -36720.678      9861.2915    
     80000   284.92452     -36706.26       18678.341    
     80100   279.04682     -36709.976      12637.88     
     80200   297.96102     -36717.937      11300.215    
     80300   294.73727     -36712.151      10213.896    
     80400   312.7352      -36726.03       12981.472    
     80500   275.05693     -36705.786      12996.431    
     80600   298.12231     -36719.307      17490.484    
     80700   324.59806     -36723.244      8282.2849    
     80800   322.6769      -36716.703      13185.876    
     80900   291.76337     -36709.858      12419.047    
     81000   276.18997     -36717.334      10588.865    
     81100   274.10527     -36716.092      10690.385    
     81200   325.05075     -36725.75       11410.785    
     81300   324.14116     -36710.361      13877.766    
     81400   328.36546     -36721.513      9118.2316    
     81500   293.28452     -36718.678      17287.64     
     81600   287.73913     -36716.86       14503.877    
     81700   308.61605     -36725.687      11380.846    
     81800   307.89246     -36711.403      17734.514    
     81900   333.0429      -36699.337      12392.794    
     82000   313.99439     -36699.403      14372.391    
     82100   317.57852     -36728.021      22814.104    
     82200   286.57402     -36714.399      12398.324    
     82300   311.48551     -36729.345      7610.2767    
     82400   308.27698     -36710.835      17171.137    
     82500   328.60567     -36701.745      6503.7364    
     82600   298.85752     -36697.328      15663.095    
     82700   282.73944     -36704.5        14844.444    
     82800   298.61474     -36714.282      10797.926    
     82900   304.82523     -36717.67       18420.823    
     83000   302.45468     -36713.016      12491.891    
     83100   284.19734     -36703.115      13353.846    
     83200   291.5438      -36723.573      14067.865    
     83300   304.22036     -36735.486      13091.767    
     83400   308.69567     -36723.342      13575.871    
     83500   296.39365     -36692.604      9743.1769    
     83600   326.57227     -36704.775      20934.505    
     83700   302.32673     -36711.686      9227.6397    
     83800   300.64443     -36722.54       9406.9628    
     83900   309.92153     -36726.744      15388.475    
     84000   289.84215     -36716.035      18447.136    
     84100   304.65953     -36722.09       11973.973    
     84200   316.04452     -36711.871      13716.729    
     84300   315.80676     -36699.462      13942.18     
     84400   299.30512     -36709.426      11762.215    
     84500   290.80807     -36723.744      11399.988    
     84600   313.44542     -36733.08       13488.701    
     84700   302.53769     -36708.498      15282.829    
     84800   309.37755     -36701.593      14322.65     
     84900   331.85487     -36705.099      17714.333    
     85000   320.55539     -36700.05       16965.012    
     85100   297.65063     -36712.724      6080.5154    
     85200   294.90616     -36723.785      21377.57     
     85300   290.65362     -36715.731      11309.289    
     85400   328.009       -36721.221      8358.977     
     85500   301.80266     -36700.068      16653.63     
     85600   298.22201     -36723.679      19338.206    
     85700   262.16382     -36714.351      7589.4899    
     85800   291.67361     -36724.554      14204.823    
     85900   295.298       -36709.843      16243.06     
     86000   294.12472     -36701.484      7764.9268    
     86100   320.49157     -36717.496      19106.452    
     86200   299.0332      -36728.232      18973.992    
     86300   268.37054     -36713.893      6038.4338    
     86400   291.47302     -36722.76       17065.525    
     86500   298.65859     -36705.593      12691.972    
     86600   306.51176     -36703.59       12792.981    
     86700   321.49088     -36720.482      10114.142    
     86800   305.62419     -36715.538      18605.224    
     86900   314.423       -36726.593      10919.453    
     87000   290.80721     -36714.474      9001.2423    
     87100   300.60643     -36707.999      14387.59     
     87200   334.39949     -36699.965      16628.287    
     87300   320.40983     -36700.071      15378.976    
     87400   304.60695     -36710.379      19016.583    
     87500   286.22824     -36708.227      15169.33     
     87600   311.4502      -36728.802      8254.7662    
     87700   271.67961     -36707.377      9488.4037    
     87800   281.42086     -36729.016      10456.123    
     87900   266.82281     -36701.647      10736.918    
     88000   315.3861      -36712.106      5580.8883    
     88100   337.34772     -36729.532      10542.363    
     88200   290.57872     -36708.205      18977.401    
     88300   291.31521     -36726.206      9126.8582    
     88400   272.19711     -36732.321      11477.133    
     88500   270.30087     -36720.737      15798.573    
     88600   308.41535     -36729.607      11077.261    
     88700   300.30673     -36714.216      10748.81     
     88800   287.09852     -36702.251      21808.161    
     88900   297.36882     -36694.341      12661.187    
     89000   340.1034      -36716.072      9374.3591    
     89100   292.28438     -36710.681      22126.169    
     89200   285.49243     -36720.122      11906.412    
     89300   314.12939     -36729.767      5956.7164    
     89400   305.34714     -36713.042      16795.719    
     89500   300.1933      -36696.621      11702.379    
     89600   333.25935     -36688.865      8789.7222    
     89700   314.62055     -36697.477      18255.511    
     89800   295.22478     -36709.119      18485.455    
     89900   286.60743     -36710.272      12533.427    
     90000   310.89606     -36730.632      7431.3995    
     90100   310.64201     -36724.426      14221.165    
     90200   317.75724     -36709.774      12512.904    
     90300   298.69192     -36688.056      11861.863    
     90400   288.24778     -36707.397      8250.6303    
     90500   285.37545     -36717.678      16000.507    
     90600   285.46628     -36712.702      14999.546    
     90700   313.44936     -36722.603      8042.1883    
     90800   311.43522     -36701.243      15519.52     
     90900   321.37864     -36684.601      10753.519    
     91000   316.32603     -36692.874      8205.2809    
     91100   297.18585     -36718.969      21159.425    
     91200   291.61931     -36728.07       13273.454    
     91300   274.51256     -36708.746      6331.1044    
     91400   301.36278     -36709.715      19758.751    
     91500   322.78994     -36714.745      14032.936    
     91600   295.36099     -36703.805      10974.552    
     91700   283.32139     -36714.712      14714.22     
     91800   265.50148     -36733.489      21280.255    
     91900   266.41314     -36743.067      6226.5399    
     92000   264.94865     -36725.183      11896.413    
     92100   298.89142     -36733.787      17903.028    
     92200   302.51827     -36712.679      14771.579    
     92300   320.32199     -36709.228      7291.9234    
     92400   321.07393     -36717.131      17254.602    
     92500   296.55607     -36719.991      11136.99     
     92600   279.93659     -36710.864      8764.3787    
     92700   308.0896      -36724.986      16169.727    
     92800   335.97136     -36737.303      12682.178    
     92900   298.28483     -36708.906      5652.2491    
     93000   288.55201     -36704.426      15501.808    
     93100   320.47813     -36724.877      15869.118    
     93200   288.65816     -36701.248      3540.534     
     93300   308.30916     -36723.275      11918.041    
     93400   278.43166     -36717.819      19090.242    
     93500   273.12334     -36711.397      7824.3334    
     93600   304.46105     -36706.695      10495.725    
     93700   310.18616     -36707.112      15642.747    
     93800   292.07433     -36702.92       15934.674    
     93900   304.24871     -36729.389      8974.7211    
     94000   277.84692     -36733.01       14703.495    
     94100   284.85144     -36727.533      14174.468    
     94200   292.34124     -36718.8        11086.664    
     94300   284.37415     -36697.646      7686.6569    
     94400   310.12623     -36711.883      22201.247    
     94500   298.86261     -36703.274      7926.6581    
     94600   295.4716      -36710.101      7630.5738    
     94700   294.33311     -36712.904      11898.19     
     94800   291.95345     -36716.463      22660.354    
     94900   299.92078     -36712.189      7002.0583    
     95000   322.75594     -36703.11       18711.681    
     95100   330.51418     -36698.987      16613.981    
     95200   308.20877     -36707.524      12138.716    
     95300   301.90823     -36716.458      14034.675    
     95400   321.116       -36732.641      19355.221    
     95500   289.18742     -36709.665      8930.8266    
     95600   296.61324     -36716.805      13992.105    
     95700   327.75181     -36722.109      14464.177    
     95800   303.14939     -36699.375      8554.9124    
     95900   296.86736     -36713.966      12045.548    
     96000   279.76053     -36722.495      19524.496    
     96100   317.16473     -36736.845      11278.867    
     96200   291.53432     -36713.387      14866.737    
     96300   289.05937     -36706.309      7570.7273    
     96400   301.58809     -36711.612      15745.251    
     96500   318.12902     -36723.733      12472.235    
     96600   290.7452      -36710.258      11991.102    
     96700   283.05082     -36718.708      7547.6741    
     96800   270.37154     -36732.5        15121.247    
     96900   280.74124     -36726.245      13313.499    
     97000   296.44867     -36712.02       8094.6692    
     97100   293.97892     -36703.631      8276.9392    
     97200   313.46963     -36719.491      18435.544    
     97300   282.72382     -36705.258      8598.8124    
     97400   299.57897     -36724.426      12259.631    
     97500   297.72698     -36733.032      12073.263    
     97600   300.94694     -36734.154      14333.531    
     97700   299.8913      -36704.774      11917.331    
     97800   314.50049     -36708.561      15344.128    
     97900   302.4452      -36716.424      15704.702    
     98000   294.64212     -36718.783      6884.3558    
     98100   294.19881     -36712.422      12272.127    
     98200   296.43441     -36712.49       8352.7289    
     98300   301.50699     -36716.395      11752.811    
     98400   309.5784      -36718.121      15193.119    
     98500   326.43351     -36718.701      14999.614    
     98600   323.94675     -36713.034      8455.8337    
     98700   288.55853     -36700.369      23880.595    
     98800   298.71196     -36726.631      15598.382    
     98900   311.26077     -36740.235      6499.7183    
     99000   298.67303     -36717.561      17598.977    
     99100   305.86114     -36692.344      17531.579    
     99200   333.4488      -36709.59       8062.6064    
     99300   297.75368     -36701.152      7263.8765    
     99400   298.54821     -36719.472      12685.728    
     99500   303.16895     -36728.359      18508.439    
     99600   300.65336     -36719.392      6231.546     
     99700   323.87837     -36704.002      11996.433    
     99800   316.74417     -36696.603      14915.461    
     99900   313.13475     -36711.477      9995.1343    
    100000   326.53328     -36735.347      10402.306    
Loop time of 4871.04 on 12 procs for 100000 steps with 243 atoms

Performance: 0.887 ns/day, 27.061 hours/ns, 20.530 timesteps/s, 4.989 katom-step/s
99.1% CPU use with 2 MPI tasks x 6 OpenMP threads

MPI task timing breakdown:
Section |  min time  |  avg time  |  max time  |%varavg| %total
---------------------------------------------------------------
Pair    | 4009.8     | 4047.4     | 4085       |  59.1 | 83.09
Bond    | 0.18156    | 0.18392    | 0.18628    |   0.5 |  0.00
Neigh   | 325.67     | 326.77     | 327.86     |   6.1 |  6.71
Comm    | 18.368     | 56.062     | 93.755     | 503.4 |  1.15
Output  | 0.32165    | 0.39997    | 0.47829    |  12.4 |  0.01
Modify  | 436.2      | 437.3      | 438.39     |   5.2 |  8.98
Other   |            | 2.898      |            |       |  0.06

Nlocal:          121.5 ave         122 max         121 min
Histogram: 1 0 0 0 0 0 0 0 0 1
Nghost:         3952.5 ave        3953 max        3952 min
Histogram: 1 0 0 0 0 0 0 0 0 1
Neighs:        65851.5 ave       66131 max       65572 min
Histogram: 1 0 0 0 0 0 0 0 0 1

Total # of neighbors = 131703
Ave neighs/atom = 541.98765
Ave special neighs/atom = 0
Neighbor list builds = 10000
Dangerous builds not checked
write_data sio2_eq.data
System init for write_data ...
undump dump_opt
reset_timestep 0

variable thermostat equal 2               # 0 if NVE, 1 if NPT, 2 if NVT
print "##### Main run: ${thermostat}"
##### Main run: 2
include ff.in
if "$(is_defined(fix,5))" then "unfix 5"
if "$(is_defined(fix,6))" then "unfix 6"
unfix 6
reset_timestep 0

# Assign the force field
pair_style reaxff NULL safezone 3.0 mincap 150
# pair_coeff * * CHONSSi.ff O Si
# pair_coeff * * CHOSiNa.ff O Si
# pair_coeff * * SiOCHN_2018.ff O Si
# pair_coeff * * PDMSDecomp.ff Si O
# pair_coeff * * CHONSi.ff C H O Si
pair_coeff * * CHOFe.ff O Si
WARNING: Van der Waals parameters for element SI indicate inner wall+shielding, but earlier atoms indicate a different van der Waals method. This may cause division-by-zero errors. Keeping van der Waals setting for earlier atoms. (src/REAXFF/reaxff_ffield.cpp:251)
WARNING: Van der Waals parameters for element AL indicate inner wall+shielding, but earlier atoms indicate a different van der Waals method. This may cause division-by-zero errors. Keeping van der Waals setting for earlier atoms. (src/REAXFF/reaxff_ffield.cpp:251)
WARNING: Changed valency_val to valency_boc for X (src/REAXFF/reaxff_ffield.cpp:296)

# charge method for reaxff
fix myqeq all qeq/reaxff 1 0.0 10.0 1.0e-6 reaxff maxiter 400
# Setup neighbor style
neighbor        2 bin
neigh_modify    every 10 delay 0 check no

# Setup MD
# 0 if NVE, 1 if NPT, 2 if NVT

if "${thermostat} == 0" then    "fix 4 all nve" elif "${thermostat} == 1"    "fix 5 all npt temp ${temp} ${temp} ${tdamp} tri 1.0 1.0 ${pdamp}" elif "${thermostat} == 2"    "fix 6 all nvt temp ${temp} ${temp} ${tdamp}"
fix 6 all nvt temp ${temp} ${temp} ${tdamp}
fix 6 all nvt temp 300 ${temp} ${tdamp}
fix 6 all nvt temp 300 300 ${tdamp}
fix 6 all nvt temp 300 300 50
print "md: ${thermostat}"
md: 2
include calc.in
# Setup output
# Born term, 2nd derivative of energy
compute     vir all pressure NULL virial
compute     born all born/matrix numdiff ${delta} vir
compute     born all born/matrix numdiff 1.0e-6 vir
fix 	    avborn all ave/time ${nevery} ${nrepeat} ${nfreq} c_born[*] ave running             file born.out
fix 	    avborn all ave/time 5 ${nrepeat} ${nfreq} c_born[*] ave running             file born.out
fix 	    avborn all ave/time 5 20 ${nfreq} c_born[*] ave running             file born.out
fix 	    avborn all ave/time 5 20 100 c_born[*] ave running             file born.out
fix         avvir all ave/time 1 1 1 c_vir[*]             file vir.out

thermo		${nthermo}
thermo		100
thermo_style custom step temp pe press
thermo_modify norm no


# save trajectory
dump dump_main all custom ${nthermo} dump_main.lammpstrj id type x y z
dump dump_main all custom 100 dump_main.lammpstrj id type x y z
run ${nrun}
run 100000
Neighbor list info ...
  update: every = 10 steps, delay = 0 steps, check = no
  max neighbors/atom: 2000, page size: 100000
  master list distance cutoff = 12
  ghost atom cutoff = 12
  binsize = 6, bins = 4 3 3
  2 neighbor lists, perpetual/occasional/extra = 2 0 0
  (1) pair reaxff, perpetual
      attributes: half, newton off, ghost
      pair build: half/bin/newtoff/ghost
      stencil: full/ghost/bin/3d
      bin: standard
  (2) fix qeq/reaxff, perpetual, copy from (1)
      attributes: half, newton off
      pair build: copy
      stencil: none
      bin: none
Per MPI rank memory allocation (min/avg/max) = 161.7 | 161.7 | 161.7 Mbytes
   Step          Temp          PotEng         Press     
         0   326.53328     -36735.346      10405.015    
       100   288.2477      -36710.99       8059.6404    
       200   297.3907      -36708.522      14757.686    
       300   323.69998     -36707.066      11291.381    
       400   320.17163     -36708.729      9575.4285    
       500   294.06014     -36721.719      14517.481    
       600   277.54278     -36714.292      15790.386    
       700   308.23054     -36729.323      13051.954    
       800   298.73577     -36708.859      15861.851    
       900   323.08301     -36697.738      11360.907    
      1000   309.72227     -36675.802      13060.78     
      1100   312.63199     -36718.634      16872.519    
      1200   300.56171     -36715.532      9130.8009    
      1300   295.50572     -36711.203      10381.682    
      1400   294.06243     -36715.989      14982.159    
      1500   292.01887     -36715.914      11417.694    
      1600   317.75802     -36721.707      16086.356    
      1700   324.23564     -36719.634      14292.783    
      1800   302.2959      -36710.953      19331.524    
      1900   268.06162     -36699.687      20717.561    
      2000   287.70062     -36729.445      6027.7091    
      2100   285.46765     -36730.725      8525.8378    
      2200   295.83608     -36710.262      20334.382    
      2300   315.86245     -36716.492      11030.724    
      2400   277.36401     -36696.077      5861.8098    
      2500   308.5055      -36730.712      17724.803    
      2600   276.29022     -36717.236      9602.2523    
      2700   291.81841     -36720.904      10612.421    
      2800   335.6442      -36724.664      15297.073    
      2900   303.12008     -36705.81       13581.084    
      3000   301.30988     -36715.075      4695.0466    
      3100   279.13406     -36713.411      11172.369    
      3200   282.42369     -36729.338      13586.526    
      3300   274.09738     -36725.418      7962.9933    
      3400   307.41797     -36723.237      16461.493    
      3500   300.93916     -36707.059      14860.864    
      3600   308.58783     -36703.091      10058.09     
      3700   297.80053     -36700.501      15738.289    
      3800   299.75516     -36730.648      9555.7173    
      3900   276.24473     -36722.66       9605.354     
      4000   298.02542     -36722.127      8495.3256    
      4100   294.77868     -36704.908      12686.659    
      4200   297.84674     -36704.769      7011.6452    
      4300   318.40251     -36727.301      20795.828    
      4400   272.16875     -36715.2        9167.1672    
      4500   266.68296     -36718.253      11367.236    
      4600   322.15807     -36730.541      11770.459    
      4700   317.20054     -36716.339      12977.423    
      4800   321.47734     -36716.384      9359.8326    
      4900   284.94087     -36702.89       15254.377    
      5000   299.92354     -36725.217      16698.709    
      5100   274.30588     -36717.15       9877.7689    
      5200   286.21147     -36721.753      8734.7089    
      5300   317.50322     -36716.286      13168.251    
      5400   311.33619     -36705.451      14191.844    
      5500   298.09514     -36704.336      9479.7028    
      5600   288.59777     -36716.153      18256.896    
      5700   286.30595     -36738.916      8885.4376    
      5800   263.52932     -36718.44       8993.5215    
      5900   298.17999     -36726.53       9823.256     
      6000   290.66109     -36710.918      10476.379    
      6100   332.56299     -36726.053      14023.521    
      6200   313.83262     -36707.03       14046.42     
      6300   303.35037     -36710.886      8919.6209    
      6400   287.60622     -36728.684      10842.244    
      6500   292.83313     -36733.25       14253.527    
      6600   313.28201     -36726.026      11018.803    
      6700   293.7133      -36699.304      6535.5328    
      6800   300.66522     -36708.719      18551.258    
      6900   301.2482      -36707.696      10269.149    
      7000   309.38687     -36727.941      9281.6207    
      7100   261.54333     -36723.431      12234.495    
      7200   283.58362     -36729.121      16652.555    
      7300   286.38312     -36708.81       7236.0754    
      7400   297.99983     -36708.308      18199.807    
      7500   303.71399     -36709.385      10309.119    
      7600   315.60041     -36720.894      9393.2271    
      7700   273.45153     -36703.414      14595.919    
      7800   295.55123     -36725.094      15929.486    
      7900   297.31622     -36713.157      6206.4263    
      8000   308.73616     -36699.941      11477.247    
      8100   328.3358      -36706.891      12361.615    
      8200   295.05567     -36706.636      13584.874    
      8300   284.14815     -36713.929      10445.588    
      8400   277.54185     -36706.838      15335.049    
      8500   321.72038     -36723.564      12322.551    
      8600   311.73335     -36706.373      10146.931    
      8700   323.60581     -36726.925      12087.175    
      8800   299.22078     -36735.788      8824.0063    
      8900   276.26856     -36720.182      10599.828    
      9000   306.52188     -36722.916      11657.902    
      9100   329.96312     -36731.654      13230.83     
      9200   293.16519     -36708.959      7143.3484    
      9300   279.94266     -36707.405      16436.605    
      9400   303.35389     -36721.099      19731.183    
      9500   313.93897     -36707.748      7077.3591    
      9600   328.98509     -36712.193      17589.354    
      9700   306.17924     -36722.092      16846.546    
      9800   293.09134     -36721.9        12921.467    
      9900   269.02373     -36699.03       11379.971    
     10000   329.5913      -36729.357      15498.19     
     10100   324.30291     -36711.971      8481.7115    
     10200   323.8909      -36700.214      16165.488    
     10300   289.11994     -36688.764      8293.6574    
     10400   307.87083     -36727.14       12181.323    
     10500   281.81101     -36714.71       10952.147    
     10600   312.83499     -36733.063      12897.532    
     10700   302.63869     -36711.203      14423.854    
     10800   321.46185     -36688.85       11489.578    
     10900   322.3664      -36696.619      13443.294    
     11000   304.96366     -36709.929      18172.82     
     11100   293.42879     -36714.363      7367.0043    
     11200   297.10171     -36721.344      13580.113    
     11300   284.24453     -36708.351      19658.275    
     11400   316.93619     -36704.533      12970.259    
     11500   313.05248     -36695.709      15505.909    
     11600   321.92898     -36727.445      15859.054    
     11700   283.40028     -36710.633      7785.8989    
     11800   313.8382      -36726.074      13068.619    
     11900   320.86374     -36721.755      22434.558    
     12000   319.41896     -36711.174      7669.9011    
     12100   307.03255     -36690.545      13476.748    
     12200   314.76645     -36709.34       16970.702    
     12300   276.46319     -36700.522      3725.1535    
     12400   302.46966     -36728.772      8418.9653    
     12500   309.99048     -36734.339      15255.293    
     12600   300.04951     -36689.35       7057.0817    
     12700   331.63306     -36709.718      3614.8962    
     12800   289.80378     -36704.121      23888.551    
     12900   267.92656     -36693.727      13459.541    
     13000   310.19388     -36722.424      1940.7264    
     13100   280.92038     -36718.273      14058.311    
     13200   284.84206     -36740.327      13341.841    
     13300   297.87348     -36727.095      6907.5305    
     13400   293.18593     -36709.33       12722.669    
     13500   291.09131     -36707.447      14134.761    
     13600   321.47004     -36721.798      11786.707    
     13700   304.47124     -36707.781      11179.275    
     13800   290.67402     -36720.155      13653.436    
     13900   276.61172     -36713.824      10438.225    
     14000   308.54777     -36722.267      14569.636    
     14100   326.79416     -36709.213      13246.092    
     14200   312.63375     -36688.04       17032.667    
     14300   312.01967     -36703.878      5383.8335    
     14400   315.34805     -36723.05       15008.196    
     14500   305.68921     -36720.794      13067.721    
     14600   316.5117      -36734.056      6284.1138    
     14700   283.88798     -36712.274      7035.1354    
     14800   304.54834     -36714.998      20385.67     
     14900   324.44262     -36704.976      7698.2936    
     15000   317.00207     -36707.459      11828.093    
     15100   274.46623     -36698.44       13684.453    
     15200   284.90464     -36708.998      12858.734    
     15300   299.8784      -36711.154      10428.667    
     15400   329.67843     -36724.631      11243.957    
     15500   293.83462     -36702.135      19637.766    
     15600   299.0474      -36731.222      11554.023    
     15700   281.71539     -36724.853      9753.695     
     15800   289.87904     -36712.801      13444.839    
     15900   317.18927     -36718.309      8268.9218    
     16000   318.20455     -36718.349      14353.166    
     16100   303.16519     -36719.812      13401.11     
     16200   271.17716     -36714.061      9675.668     
     16300   260.6965      -36727.45       8127.9942    
     16400   267.55334     -36732.128      18684.353    
     16500   289.93763     -36717.676      11267.241    
     16600   293.24016     -36702.766      10101.048    
     16700   318.46164     -36711.702      17238.466    
     16800   303.52399     -36704.344      14059.923    
     16900   264.93307     -36699.655      6424.0491    
     17000   290.14696     -36722.06       12216.596    
     17100   297.32253     -36717.634      14484.378    
     17200   305.57431     -36712.268      8971.1367    
     17300   305.99295     -36711.809      11259.277    
[...]
     69200   271.96461     -36695.771      6208.8143    
     69300   342.8792      -36722.208      17103.565    
     69400   297.75474     -36684.45       15886.391    
     69500   305.13268     -36697.512      9891.9125    
     69600   316.64119     -36727.262      18538.466    
     69700   278.53933     -36711.307      11560.682    
     69800   301.60619     -36728.306     -177.71151    
     69900   294.08154     -36723.61       16688.275    
     70000   307.95623     -36705.849      28013.747    
     70100   299.94929     -36687.475      5569.4494    
     70200   306.87651     -36715.04       17228.64     
     70300   296.65833     -36724.96       17799.378    
     70400   287.39592     -36714.306      3681.1447    
     70500   299.16673     -36713.056      12615.524    
     70600   294.07146     -36710.322      19707        
     70700   305.17416     -36712.619      8750.9426    
     70800   288.76164     -36710.569      8261.066     
     70900   286.26963     -36731.605      15264.385    
     71000   295.34458     -36727.559      6811.1254    
     71100   308.53792     -36713.435      11693.767    
     71200   304.29402     -36710.741      18233.85     
     71300   310.28813     -36724.034      7975.5859    
     71400   271.56534     -36712.442      16053.179    
     71500   283.62209     -36731.329      13460.049    
     71600   297.35836     -36729.94       4479.7829    
     71700   312.48109     -36715.832      13365.078    
     71800   298.06342     -36704.426      14455.782    
     71900   297.50331     -36701.03       7955.5973    
     72000   330.23238     -36722.412      7888.7479    
     72100   301.62828     -36726.985      17333.026    
     72200   281.73468     -36726.942      22341.446    
     72300   279.80981     -36712.775      14822.314    
     72400   329.28615     -36729.569      7204.0501    
     72500   314.65224     -36718.112      11190.821    
     72600   312.82863     -36729.033      13484.242    
     72700   309.95809     -36737.117      14059.201    
     72800   286.46484     -36709.114      12840.224    
     72900   314.09046     -36703.821      10151.329    
     73000   315.99301     -36712.196      12076.695    
     73100   274.88107     -36703.284      15035.658    
     73200   272.76604     -36709.632      12892.885    
     73300   296.56728     -36722.632      14833.31     
     73400   305.96298     -36689.633      12604.024    
     73500   325.79168     -36697.675      8776.619     
     73600   336.12355     -36726.331      16996.957    
     73700   295.49753     -36715.094      9976.5424    
     73800   288.5987      -36711.413      10014.365    
     73900   292.33384     -36713.726      16435.006    
     74000   292.07482     -36696.203      14274.81     
     74100   312.01244     -36691.042      13040.197    
     74200   305.58213     -36702.358      16596.953    
     74300   301.4086      -36722.931      12308.481    
     74400   308.61501     -36730.172      4852.7411    
     74500   285.79007     -36714.516      16244.98     
     74600   298.96688     -36705.24       14845.684    
     74700   324.83277     -36707.482      10118.751    
     74800   289.29782     -36709.845      17038.775    
     74900   296.33976     -36736.822      13777.777    
     75000   287.48974     -36713.674      6410.6467    
     75100   326.62435     -36724.467      13200.871    
     75200   305.58854     -36710.292      12815.179    
     75300   294.54496     -36712.75       13179.578    
     75400   276.58675     -36721.219      16639.265    
     75500   268.89216     -36736.5        17186.284    
     75600   288.39274     -36734.026      12130.407    
     75700   283.16939     -36711.271      8126.005     
     75800   310.38338     -36720.391      13688.102    
     75900   323.94639     -36716.99       20285.586    
     76000   317.01916     -36711.937      6620.3414    
     76100   285.88374     -36719.806      12026.352    
     76200   286.77309     -36728.184      18692.443    
     76300   267.87352     -36705.672      9686.9491    
     76400   311.29984     -36721.539      11105.734    
     76500   298.32063     -36711.53       17129.029    
     76600   304.58619     -36715.829      11853.751    
     76700   291.40938     -36716.857      6515.7557    
     76800   272.4625      -36730.218      12895.118    
     76900   279.44092     -36724.449      13242.314    
     77000   315.67825     -36724.661      330.96703    
     77100   305.78312     -36714.524      14218.525    
     77200   297.23163     -36709.349      11934.859    
     77300   324.64768     -36724.206      7289.093     
     77400   325.92374     -36722.906      16503.007    
     77500   304.9155      -36717.528      15837.699    
     77600   291.8567      -36718.453      4605.6794    
     77700   291.82933     -36721.317      13715.563    
     77800   314.54281     -36715.312      15375.16     
     77900   305.06464     -36694.16       13238.363    
     78000   314.89857     -36714.143      8633.2881    
     78100   285.62592     -36710.041      16898.655    
     78200   301.72957     -36719.398      13033.856    
     78300   313.46476     -36724.733      10769.93     
     78400   286.1398      -36708.888      12617.518    
     78500   280.87617     -36706.904      17410.225    
     78600   283.33813     -36694.395      4364.1073    
     78700   320.23259     -36708.009      10700.084    
     78800   312.35344     -36703.79       15726.466    
     78900   287.46018     -36710.599      8405.2739    
     79000   313.7145      -36732.261      12818.917    
     79100   309.3228      -36726.731      15307.543    
     79200   312.5613      -36717.568      2780.7231    
     79300   309.85938     -36689.948      19792.427    
     79400   318.23865     -36694.236      15337.821    
     79500   288.25276     -36697.605      9507.4389    
     79600   308.71323     -36726.292      13585.255    
     79700   266.7257      -36702.192      16556.502    
     79800   298.04043     -36717.09       10492.305    
     79900   312.31387     -36705.829      9002.9571    
     80000   324.86508     -36706.929      18123.455    
     80100   291.76969     -36704.639      10559.752    
     80200   291.84208     -36714.337      6458.3317    
     80300   315.14452     -36732.982      11286.132    
     80400   274.09152     -36702.049      16328.239    
     80500   314.02165     -36703.271      10351.168    
     80600   325.40515     -36711.989      10556.998    
     80700   310.83197     -36714.629      15871.034    
     80800   281.47389     -36700.43       14425.064    
     80900   298.61191     -36713.677      15338.838    
     81000   301.83753     -36724.553      13344.327    
     81100   278.37664     -36726.787      12345.875    
     81200   284.58645     -36742.829      15704.694    
     81300   283.23928     -36718.063      11855.861    
     81400   306.54775     -36717.768      14473.529    
     81500   310.68685     -36713.099      11379.053    
     81600   297.98403     -36714.421      13454.545    
     81700   285.74683     -36722.63       10101.8      
     81800   276.42211     -36709.103      24238.372    
     81900   318.32811     -36700.192      2740.1422    
     82000   291.84621     -36689.229      14245.25     
     82100   283.64831     -36702.898      20583.543    
     82200   286.55635     -36709.628      12730.976    
     82300   303.41778     -36720.509      10031.145    
     82400   315.30558     -36720.366      15188.055    
     82500   299.79266     -36696.351      6243.2287    
     82600   307.53082     -36711.055      17347.836    
     82700   291.516       -36723.985      13342.179    
     82800   292.97743     -36720.724      16347.736    
     82900   330.80916     -36738.706      15367.035    
     83000   309.1193      -36718.029      14718.992    
     83100   297.10756     -36686.676      14427.12     
     83200   333.95522     -36706.749      7704.5792    
     83300   304.30982     -36713.555      6863.4656    
     83400   294.64074     -36717.987      14774.602    
     83500   295.19972     -36717.771      19656.726    
     83600   300.65145     -36709.926      7011.9216    
     83700   320.3243      -36705.482      14986.41     
     83800   318.0608      -36704.243      17105.813    
     83900   303.65138     -36722.633      11943.103    
     84000   303.66794     -36728.123      12219.697    
     84100   290.59657     -36716.297      13852.548    
     84200   306.14562     -36715.433      16492.406    
     84300   339.07813     -36711.203      10982.774    
     84400   320.87123     -36696.891      11056.328    
     84500   316.8003      -36713.034      19057.241    
     84600   280.30761     -36700.058      15223.737    
     84700   296.46657     -36719.928      14812.737    
     84800   311.32907     -36727.387      12174.078    
     84900   297.13409     -36694.272      6787.761     
     85000   345.47474     -36713.956      14498.228    
     85100   308.75121     -36712.389      13641.555    
     85200   290.59518     -36704.083      14113.966    
     85300   317.07753     -36725.829      10962.665    
     85400   273.71107     -36709.549      11523.275    
     85500   272.88196     -36718.661      13644.952    
     85600   301.77826     -36720.052      12037.131    
     85700   316.93876     -36709.85       14488.066    
     85800   317.64687     -36710.389      13544.517    
     85900   295.19185     -36711.949      15032.787    
     86000   284.07248     -36723.538      10288.4      
     86100   291.03917     -36731.587      12249.644    
     86200   278.13549     -36715.816      11473.526    
     86300   301.63605     -36720.37       8127.8622    
     86400   305.38118     -36708.476      13778.148    
     86500   316.46717     -36720.899      15609.567    
     86600   265.95314     -36699.556      13664.971    
     86700   278.28808     -36737.762      11755.441    
     86800   285.22069     -36742.364      13187.679    
     86900   275.26769     -36717.073      13013.302    
     87000   301.50302     -36722.959      12165.305    
     87100   296.04121     -36707.019      13521.261    
     87200   342.34979     -36726.915      10901.874    
     87300   328.74544     -36720.744      13608.077    
     87400   298.26525     -36727.517      11278.554    
     87500   289.26618     -36725.344      5376.5934    
     87600   295.39259     -36714.948      16453.344    
     87700   306.14474     -36708.98       14837.66     
     87800   326.29588     -36719.078      11237.513    
     87900   305.75112     -36711.274      10537.787    
     88000   302.60704     -36714.214      10992.058    
     88100   285.61959     -36712.119      9150.2185    
     88200   274.13848     -36717.492      7438.0694    
     88300   293.33199     -36717.911      17205.786    
     88400   330.40998     -36716.113      11738.53     
     88500   301.72518     -36698.585      15199.102    
     88600   297.28962     -36714.486      19746.589    
     88700   286.42211     -36721.937      8569.5611    
     88800   302.01967     -36731.645      10655.487    
     88900   306.38722     -36727.009      14831.213    
     89000   304.32786     -36718.353      10895.567    
     89100   313.00105     -36714.271      7473.5471    
     89200   319.67967     -36705.056      14256.584    
     89300   313.04754     -36698.602      8978.3495    
     89400   301.76154     -36719.551      11219.505    
     89500   298.37229     -36727.812      12686.521    
     89600   279.89255     -36711.486      13871.736    
     89700   292.9823      -36699.084      13538.071    
     89800   302.56219     -36690.261      17513.265    
     89900   303.74661     -36696.49       17729.165    
     90000   309.10531     -36713.198      13085.761    
     90100   299.30339     -36711.965      15524.577    
     90200   294.76767     -36715.205      11587.756    
     90300   300.58696     -36731.694      10026.101    
     90400   266.83488     -36714.859      12077.943    
     90500   309.1093      -36722.998      16542.049    
     90600   316.76136     -36710.225      8791.7145    
     90700   307.05934     -36706.731      16846.783    
     90800   308.39086     -36725.59       14788.058    
     90900   272.51039     -36722.865      11564.881    
     91000   298.3166      -36734.67       14363.727    
     91100   304.87936     -36724.57       16466.438    
     91200   298.07387     -36707.654      9155.6638    
     91300   309.52194     -36716.434      12675.503    
     91400   319.06543     -36727.818      17107.944    
     91500   293.27076     -36711.366      10082.799    
     91600   314.84148     -36727.342      7914.8735    
     91700   290.36521     -36714.196      16134.549    
     91800   292.84118     -36712.764      12149.086    
     91900   307.13223     -36720.645      7022.368     
     92000   295.00764     -36720.663      16918.189    
     92100   317.10328     -36725.596      16189.966    
     92200   298.28462     -36686.49       8312.3503    
     92300   317.46752     -36692.274      16881.541    
     92400   314.84541     -36720.879      15048.405    
     92500   296.54474     -36721.979      4040.7908    
     92600   300.72988     -36728.445      21369.342    
     92700   295.83666     -36715.317      18753.488    
     92800   308.78568     -36698.911      9888.8939    
     92900   331.36034     -36710.148      12249.927    
     93000   283.61479     -36694.218      15775.089    
     93100   300.1952      -36708.414      5545.5371    
     93200   291.67515     -36711.265      21215.831    
     93300   284.1064      -36712.378      9048.3215    
     93400   297.21588     -36713.425      10869.486    
     93500   319.05887     -36707.06       10771.176    
     93600   352.62553     -36726.91       20020.466    
     93700   312.91797     -36723.844      7978.3733    
     93800   302.03419     -36724.118      19964.07     
     93900   289.09674     -36715.784      10016.221    
     94000   313.93829     -36724.752      12310.126    
     94100   319.56933     -36704.7        12832.398    
     94200   337.53621     -36707.304      10806.461    
     94300   305.84175     -36711.302      17695.954    
     94400   293.75925     -36723.438      15627.353    
     94500   258.48873     -36702.343      6131.2045    
     94600   310.93357     -36726.667      15247.753    
     94700   308.28075     -36705.684      14620.861    
     94800   295.46479     -36695.379      8407.1677    
     94900   314.92075     -36717.325      15638.656    
     95000   298.29438     -36713.87       17046.783    
     95100   289.69017     -36708.866      7398.0827    
     95200   293.92325     -36708.682      10908.127    
     95300   313.0311      -36708.138      17335.198    
     95400   319.18648     -36700.598      15613.663    
     95500   301.79025     -36697.115      14952.245    
     95600   305.58603     -36725.839      13042.204    
     95700   307.58796     -36736.347      7122.7592    
     95800   298.19934     -36726.973      14767.188    
     95900   305.35581     -36707.453      14233.076    
     96000   333.86934     -36713.906      12476.363    
     96100   286.61142     -36694.422      13308.518    
     96200   281.17031     -36704.354      10854.305    
     96300   292.00648     -36721.21       20715        
     96400   301.38621     -36728.683      12244.593    
     96500   288.03055     -36696.698      14871.768    
     96600   322.3614      -36702.815      8366.633     
     96700   317.07782     -36714.903      10055.385    
     96800   316.63758     -36729.917      7552.0248    
     96900   295.86607     -36719.537      14742.169    
     97000   295.26381     -36713.623      12046.148    
     97100   342.76749     -36721.121      13004.531    
     97200   287.13091     -36678.828      8899.0761    
     97300   289.13596     -36722.78       16400.738    
     97400   292.85248     -36723.316      9554.883     
     97500   291.09338     -36706.299      9147.2378    
     97600   331.47533     -36723.063      15824.89     
     97700   302.75751     -36704.382      10985.876    
     97800   296.5464      -36720.774      11081.581    
     97900   261.78857     -36719.099      15691.456    
     98000   283.06278     -36719.996      11469.348    
     98100   296.72416     -36717.161      19340.548    
     98200   304.40318     -36716.839      16459.019    
     98300   310.40705     -36715.734      7635.8566    
     98400   295.58826     -36708.772      8839.2383    
     98500   284.24814     -36720.782      14094.816    
     98600   282.49557     -36723.818      8577.2075    
     98700   288.42396     -36713.283      13402.057    
     98800   299.85247     -36695.688      16988.151    
     98900   325.37917     -36711.702      12601.641    
     99000   289.34914     -36700.093      12625.211    
     99100   316.0274      -36733.36       9868.0388    
     99200   282.95311     -36711.443      12764.782    
     99300   293.27191     -36712.769      16014.894    
     99400   295.90792     -36712.108      13323.982    
     99500   295.23188     -36716.554      8580.1963    
     99600   291.90095     -36727.141      9657.5111    
     99700   302.80075     -36742.715      9686.5152    
     99800   293.55152     -36725.859      13726.777    
     99900   307.8527      -36710.467      22827.456    
    100000   327.52135     -36724.693      14483.495    
Loop time of 17448.3 on 12 procs for 100000 steps with 243 atoms

Performance: 0.248 ns/day, 96.935 hours/ns, 5.731 timesteps/s, 1.393 katom-step/s
99.7% CPU use with 2 MPI tasks x 6 OpenMP threads

MPI task timing breakdown:
Section |  min time  |  avg time  |  max time  |%varavg| %total
---------------------------------------------------------------
Pair    | 4231.5     | 4269.3     | 4307.1     |  57.8 | 24.47
Bond    | 0.18812    | 0.1945     | 0.20089    |   1.4 |  0.00
Neigh   | 331.18     | 332.17     | 333.16     |   5.4 |  1.90
Comm    | 18.508     | 58.767     | 99.025     | 525.2 |  0.34
Output  | 0.3536     | 0.3686     | 0.3836     |   2.5 |  0.00
Modify  | 12783      | 12785      | 12786      |   1.4 | 73.27
Other   |            | 2.888      |            |       |  0.02

Nlocal:          121.5 ave         122 max         121 min
Histogram: 1 0 0 0 0 0 0 0 0 1
Nghost:           3939 ave        3943 max        3935 min
Histogram: 1 0 0 0 0 0 0 0 0 1
Neighs:        65879.5 ave       66099 max       65660 min
Histogram: 1 0 0 0 0 0 0 0 0 1

Total # of neighbors = 131759
Ave neighs/atom = 542.21811
Ave special neighs/atom = 0
Neighbor list builds = 10000
Dangerous builds not checked

# summarize sampling protocol
print "Stress sampling interval = ${nevery}"
Stress sampling interval = 5
variable tmp equal ${nrun}/${nevery}
variable tmp equal 100000/${nevery}
variable tmp equal 100000/5
print "Stress sample count = ${tmp}"
Stress sample count = 20000
print "Born sampling interval = ${nevery}"
Born sampling interval = 5
variable tmp equal ${nrun}/${nevery}
variable tmp equal 100000/${nevery}
variable tmp equal 100000/5
print "Born sample count = ${tmp}"
Born sample count = 20000

# output the result
# print ""
# print "Output the tensor to C.lmp.log"

# print "${C11} ${C12} ${C13} ${C14} ${C15} ${C16}" #     file "C.lmp.log" screen no
# print "${C12} ${C22} ${C23} ${C24} ${C25} ${C26}"#     append "C.lmp.log" screen no
# print "${C13} ${C23} ${C33} ${C34} ${C35} ${C36}"#     append "C.lmp.log" screen no
# print "${C14} ${C24} ${C34} ${C44} ${C45} ${C46}"#     append "C.lmp.log" screen no
# print "${C15} ${C25} ${C35} ${C45} ${C55} ${C56}"#     append "C.lmp.log" screen no
# print "${C16} ${C26} ${C36} ${C46} ${C56} ${C66}"#     append "C.lmp.log" screen no

print "done!"
done!
Total wall time: 6:11:59
