LAMMPS (2 Aug 2023 - Update 2)
  using 6 OpenMP thread(s) per MPI task
Reading data file ...
  triclinic box = (0 0 0) to (14.6913 12.723 15.9631) with tilt (-7.3456 0 0)
WARNING: Triclinic box skew is large. LAMMPS will run inefficiently. (src/domain.cpp:220)
  1 by 1 by 2 MPI processor grid
  reading atoms ...
  243 atoms
Finding 1-2 1-3 1-4 neighbors ...
  special bond factors lj:    0        0        0       
  special bond factors coul:  0        0        0       
     0 = max # of 1-2 neighbors
     0 = max # of 1-3 neighbors
     0 = max # of 1-4 neighbors
     1 = max # of special neighbors
  special bonds CPU = 0.000 seconds
  read_data CPU = 0.008 seconds
##### Minimization starts.
Setting up cg style minimization ...
  Unit style    : real
  Current step  : 0
WARNING: No pairwise cutoff or binsize set. Atom sorting therefore disabled. (src/atom.cpp:2366)
WARNING: Communication cutoff is 0.0. No ghost atoms will be generated. Atoms may get lost. (src/comm_brick.cpp:210)
Per MPI rank memory allocation (min/avg/max) = 8.865 | 8.865 | 8.865 Mbytes
   Step          Temp          PotEng         Press     
         0   0              0              0            
         1   0              0              0            
Loop time of 3.2895e-05 on 12 procs for 1 steps with 243 atoms

31.9% CPU use with 2 MPI tasks x 6 OpenMP threads

Minimization stats:
  Stopping criterion = search direction is not downhill
  Energy initial, next-to-last, final = 
                     0                  0                  0
  Force two-norm initial, final = 0 0
  Force max component initial, final = 0 0
  Final line search alpha, max atom move = 0 0
  Iterations, force evaluations = 1 0

MPI task timing breakdown:
Section |  min time  |  avg time  |  max time  |%varavg| %total
---------------------------------------------------------------
Pair    | 0          | 0          | 0          |   0.0 |  0.00
Bond    | 1.537e-06  | 1.537e-06  | 1.537e-06  |   0.0 |  4.67
Neigh   | 0          | 0          | 0          |   0.0 |  0.00
Comm    | 5.307e-06  | 5.307e-06  | 5.307e-06  |   0.0 | 16.13
Output  | 0          | 0          | 0          |   0.0 |  0.00
Modify  | 0          | 0          | 0          |   0.0 |  0.00
Other   |            | 2.605e-05  |            |       | 79.19

Nlocal:          121.5 ave         126 max         117 min
Histogram: 1 0 0 0 0 0 0 0 0 1
Nghost:              9 ave          12 max           6 min
Histogram: 1 0 0 0 0 0 0 0 0 1
Neighs:              0 ave           0 max           0 min
Histogram: 2 0 0 0 0 0 0 0 0 0

Total # of neighbors = 0
Ave neighs/atom = 0
Ave special neighs/atom = 0
Neighbor list builds = 0
Dangerous builds = 0
System init for write_data ...
WARNING: Communication cutoff is 0.0. No ghost atoms will be generated. Atoms may get lost. (src/comm_brick.cpp:210)
equil: 2
WARNING: Van der Waals parameters for element SI indicate inner wall+shielding, but earlier atoms indicate a different van der Waals method. This may cause division-by-zero errors. Keeping van der Waals setting for earlier atoms. (src/REAXFF/reaxff_ffield.cpp:251)
WARNING: Van der Waals parameters for element AL indicate inner wall+shielding, but earlier atoms indicate a different van der Waals method. This may cause division-by-zero errors. Keeping van der Waals setting for earlier atoms. (src/REAXFF/reaxff_ffield.cpp:251)
WARNING: Changed valency_val to valency_boc for X (src/REAXFF/reaxff_ffield.cpp:296)
md: 2

CITE-CITE-CITE-CITE-CITE-CITE-CITE-CITE-CITE-CITE-CITE-CITE-CITE

Your simulation uses code contributions which should be cited:
- pair reaxff command: doi:10.1016/j.parco.2011.08.005
- fix qeq/reaxff command: doi:10.1016/j.parco.2011.08.005
The log file lists these citations in BibTeX format.

CITE-CITE-CITE-CITE-CITE-CITE-CITE-CITE-CITE-CITE-CITE-CITE-CITE

Neighbor list info ...
  update: every = 10 steps, delay = 0 steps, check = no
  max neighbors/atom: 2000, page size: 100000
  master list distance cutoff = 12
  ghost atom cutoff = 12
  binsize = 6, bins = 4 3 3
  2 neighbor lists, perpetual/occasional/extra = 2 0 0
  (1) pair reaxff, perpetual
      attributes: half, newton off, ghost
      pair build: half/bin/newtoff/ghost
      stencil: full/ghost/bin/3d
      bin: standard
  (2) fix qeq/reaxff, perpetual, copy from (1)
      attributes: half, newton off
      pair build: copy
      stencil: none
      bin: none
Setting up Verlet run ...
  Unit style    : real
  Current step  : 0
  Time step     : 0.5
Per MPI rank memory allocation (min/avg/max) = 160.8 | 160.9 | 161 Mbytes
   Step          Temp          PotEng         Press     
         0   300           -36881.566      21554.575    
       100   191.10044     -36767.325      3770.0947    
       200   230.24596     -36757.577      4355.8021    
       300   258.47597     -36733.243      26387.748    
       400   261.90069     -36685.568      10082.121    
       500   310.62884     -36691.407      4366.5954    
       600   309.9677      -36710.503      32433.818    
       700   286.7195      -36707.105      7413.7189    
       800   286.85297     -36719.702      1660.2934    
       900   292.48907     -36722.87       21652.972    
      1000   321.68629     -36726.904      8188.4045    
      1100   289.84574     -36700.3        4557.6817    
      1200   311.50234     -36716.523      25775.513    
      1300   325.29736     -36712.947      19243.304    
      1400   294.33587     -36711.364     -127.65445    
      1500   278.83973     -36715.457      27776.696    
      1600   306.36791     -36731.048      17125.369    
      1700   298.24257     -36697.292     -2980.5955    
      1800   332.39422     -36711.54       15751.15     
      1900   319.27378     -36712.11       21751.76     
      2000   304.01496     -36711.59       4676.7164    
      2100   307.02552     -36723.177      12456.089    
      2200   280.47515     -36709.76       17184.665    
      2300   296.95753     -36711.606      7068.458     
      2400   323.8788      -36718.799      13107.959    
      2500   311.29737     -36708.393      22379.325    
      2600   307.74611     -36720.718      4363.238     
      2700   302.76167     -36728.885      10664.379    
      2800   324.17946     -36743.111      12584.402    
      2900   312.81682     -36712.21       6584.8526    
      3000   303.30437     -36689.569      13778.338    
      3100   311.42344     -36698.973      15800.593    
      3200   306.01103     -36723.612      12214.392    
      3300   290.4066      -36723.434      9094.7958    
      3400   295.23173     -36720.396      16273.828    
      3500   319.90221     -36722.391      15566.681    
      3600   302.16092     -36692.704      5190.4641    
      3700   318.98208     -36697.695      14421.369    
      3800   304.70554     -36710.381      12837.97     
      3900   300.72116     -36727.001      11012.254    
      4000   295.41846     -36721.994      11975.309    
      4100   282.73136     -36699.688      16509.495    
      4200   332.69898     -36715.838      8352.1704    
      4300   309.90315     -36699.133      13366.135    
      4400   273.50832     -36708.207      12742.241    
      4500   290.62463     -36724.042      11232.114    
      4600   281.80838     -36708.489      7774.9331    
      4700   289.87018     -36696.562      14018.334    
      4800   306.44092     -36699.608      9266.1405    
      4900   306.8299      -36708.086      6767.4398    
      5000   296.98032     -36736.839      11203.798    
      5100   298.33129     -36737.563      10624.411    
      5200   303.17381     -36720.769      5394.3916    
      5300   317.05718     -36716.581      16858.013    
      5400   309.72548     -36711.497      13640.259    
      5500   299.17127     -36709.039      7135.1388    
      5600   281.34917     -36712.927      14559.403    
      5700   277.01985     -36735.248      15199.825    
      5800   260.59905     -36736.205      9913.4508    
      5900   320.3325      -36757.459      13287.31     
      6000   283.56518     -36715.112      8700.7059    
      6100   296.29386     -36704.013      11977.443    
      6200   323.96533     -36719.154      8768.865     
      6300   302.49603     -36718.19       14308.105    
      6400   303.2594      -36734.116      7240.9413    
      6500   268.9677      -36733.829      8588.8395    
      6600   261.94098     -36739.326      17879.48     
      6700   298.68281     -36733.438      13033.502    
      6800   280.0597      -36702.957      19261.689    
      6900   293.38521     -36704.087      11306.509    
      7000   312.14445     -36709.765      10059.42     
      7100   325.30455     -36717.233      16018.462    
      7200   304.69746     -36724.93       8914.7586    
      7300   279.83255     -36720.377      19900.579    
      7400   298.34403     -36724.801      10998.404    
      7500   293.96759     -36709.605      12890.054    
      7600   287.18451     -36700.048      11765.676    
      7700   313.89812     -36717.707      9196.3398    
      7800   323.13407     -36729.959      10573.194    
      7900   286.33231     -36726.591      15764.634    
      8000   280.80515     -36730.556      16993.691    
      8100   286.65159     -36700.953      10446.689    
      8200   314.13115     -36714.026      10152.642    
      8300   298.06775     -36707.982      13166.75     
      8400   298.15864     -36719.213      11830.792    
      8500   284.64872     -36722.111      11293.096    
      8600   307.77764     -36729.291      12628.957    
      8700   300.9124      -36692.346      12260.79     
      8800   303.86407     -36695.548      6541.4041    
      8900   307.71406     -36719.326      13268.739    
      9000   285.56178     -36713.874      18755.699    
      9100   283.65036     -36706.01       15110.73     
      9200   297.01891     -36711.098      15197.236    
      9300   312.94738     -36715.941      17071.465    
      9400   323.42036     -36704.898      9678.9739    
      9500   306.21048     -36692.788      6881.203     
      9600   305.80112     -36715.151      19611.897    
      9700   292.48133     -36723.415      12372.124    
      9800   287.81168     -36720.843      7585.7753    
      9900   283.67442     -36708.761      15266.213    
     10000   315.71377     -36716.276      11328.29     
     10100   318.60949     -36690.216      4228.5979    
     10200   353.90968     -36698.657      18815.549    
     10300   324.77698     -36703.639      13849.299    
     10400   314.51609     -36720.833      7716.3755    
     10500   285.98749     -36718.058      12590.005    
     10600   302.97294     -36727.884      16593.02     
     10700   291.62259     -36698.358      7430.658     
     10800   322.28266     -36702.038      10152.323    
     10900   327.40528     -36712.617      17726.377    
     11000   285.50204     -36717.566      12086.963    
     11100   278.43149     -36712.354      13212.794    
     11200   327.60862     -36732.631      16777.395    
     11300   304.61437     -36707.426      7871.6024    
     11400   303.17094     -36709.065      12829.884    
     11500   282.98074     -36701.56       14748.055    
     11600   306.56468     -36727.646      12046.237    
     11700   294.22674     -36732.876      10093.716    
     11800   276.96336     -36727.027      15752.603    
     11900   307.77225     -36719.286      13205.182    
     12000   312.37342     -36709.994      10173.006    
     12100   302.98847     -36716.963      15716.718    
     12200   293.1541      -36723.737      13282.487    
     12300   276.59327     -36712.99       14940.782    
     12400   337.69363     -36723.407      18742.803    
     12500   327.42914     -36710.444      12286.466    
     12600   297.86523     -36704.545      10213.985    
     12700   286.06558     -36713.094      29820.506    
     12800   291.59506     -36718.735      10171.71     
     12900   279.84736     -36699.128      14499.141    
     13000   315.25655     -36689.416      17499.187    
     13100   322.74137     -36701.588      11416.522    
     13200   306.8641      -36715.474      8329.7126    
     13300   315.66259     -36733.552      17183.172    
     13400   302.32438     -36722.701      11387.947    
     13500   297.67135     -36709.175      17224.638    
     13600   285.3238      -36682.228      21825.045    
     13700   313.28025     -36691.673      12909.923    
     13800   291.83973     -36698.469      7635.4877    
     13900   305.06461     -36731.185      18455.542    
     14000   279.54155     -36712.209      11830.665    
     14100   309.57504     -36726.153      8206.202     
     14200   302.70439     -36706.772      21141.825    
     14300   339.83601     -36711.712      17754.941    
     14400   280.34786     -36691.238      2521.1401    
     14500   303.35833     -36730.18       20028.801    
     14600   285.43225     -36710.974      11441.435    
     14700   319.17305     -36715.629      8151.1327    
     14800   294.32561     -36692.386      16256.791    
     14900   302.95241     -36706.201      11826.328    
     15000   284.90599     -36717.943      8527.4272    
     15100   294.641       -36736.448      20491.802    
     15200   283.82255     -36715.878      10248.65     
     15300   302.85926     -36717.722      14294.499    
     15400   288.68078     -36702.988      22011.815    
     15500   304.92543     -36716.025      13809.671    
     15600   280.89454     -36704.364      9758.8552    
     15700   286.6349      -36728.371      18387.177    
     15800   283.61185     -36724.944      11894.673    
     15900   313.41912     -36720.904      4240.2795    
     16000   312.83271     -36706.944      16008.293    
     16100   293.28572     -36699.216      18430.866    
     16200   299.86348     -36712.303      13189.182    
     16300   296.76088     -36720.883      14614.694    
     16400   268.31101     -36730.542      12472.292    
     16500   280.75953     -36737.987      13230.522    
     16600   308.48159     -36732.213      6788.2462    
     16700   282.6081      -36704.752      15694.665    
     16800   299.85435     -36706.589      10718.032    
     16900   301.44739     -36706.453      23573.505    
     17000   284.31089     -36713.486      9637.3647    
     17100   287.48879     -36735.707      14136.599    
     17200   275.55469     -36716.934      13276.796    
     17300   297.54506     -36705.318      8752.4366    
     17400   319.32172     -36716.202      12019.754    
     17500   303.01356     -36712.616      16677.151    
     17600   288.96219     -36714.448      12005.859    
     17700   293.30724     -36735.13       13406.723    
     17800   261.83704     -36727.376      8180.3056    
     17900   290.98148     -36728.925      14981.879    
     18000   308.81423     -36719.487      13675.708    
     18100   290.78392     -36704.151      7259.1186    
     18200   292.88976     -36712.598      15823.568    
     18300   269.28522     -36708.568      17664.183    
     18400   286.54992     -36717.229      15222.968    
     18500   321.84133     -36723.595      12356.785    
     18600   318.03833     -36708.757      10997.232    
     18700   318.35274     -36702.368      13461.707    
     18800   328.33655     -36707.647      11757.527    
     18900   308.00444     -36720.528      14807.893    
     19000   288.71979     -36721.762      7361.8342    
     19100   295.50523     -36723.027      16216.456    
     19200   304.933       -36706.605      16938.259    
     19300   314.97792     -36704.368      6922.637     
     19400   307.765       -36709.165      15992.048    
     19500   297.20979     -36711.779      13826.94     
     19600   301.56327     -36717.635      9954.8069    
     19700   279.54372     -36695.592      13542.894    
     19800   306.3169      -36705.298      17610.263    
     19900   335.36535     -36699.586      11736.13     
     20000   312.25701     -36705.693      9539.9789    
     20100   288.00587     -36709.516      17816.456    
     20200   306.96068     -36724.498      10905.046    
     20300   290.66278     -36713.814      7672.1423    
     20400   294.24298     -36700.185      16939.403    
     20500   306.4543      -36687.718      9084.1891    
     20600   313.18222     -36705.078      10394.665    
     20700   284.45196     -36717.3        11909.177    
     20800   293.87644     -36716.533      10660.272    
     20900   328.18431     -36729.592      9417.5838    
     21000   297.06597     -36704.166      12030.008    
     21100   320.41069     -36719.213      18683.026    
     21200   286.67476     -36712.932      7423.847     
     21300   283.17266     -36725.514      15518.74     
     21400   289.89797     -36716.959      15256.476    
     21500   294.95502     -36693.145      4142.6422    
     21600   325.67862     -36721.932      12844.58     
     21700   311.59686     -36720.783      19807.171    
     21800   299.99743     -36717.005      6913.8933    
     21900   314.41738     -36742.687      11769.949    
     22000   273.69237     -36733.866      15153.129    
     22100   272.99298     -36712.395      12843.367    
     22200   299.96321     -36714.091      10248.021    
     22300   303.73949     -36716.633      21488.254    
     22400   304.42711     -36715.618      13135.68     
     22500   286.33771     -36710.031      11002.153    
     22600   297.02232     -36737.517      15450.508    
     22700   279.56217     -36728.532      15954.746    
     22800   286.35624     -36705.879      6984.1204    
     22900   300.37605     -36703.635      13788.56     
     23000   299.61157     -36704.674      14670.13     
     23100   292.90982     -36712.167      7106.012     
     23200   306.60585     -36735.178      11413.828    
     23300   279.70809     -36737.531      15557.497    
     23400   267.64882     -36730.825      9492.6941    
     23500   300.61236     -36730.91       14367.032    
     23600   297.37458     -36715.345      17452.955    
     23700   287.08313     -36695.657      11223.862    
     23800   304.43218     -36707.316      8047.9895    
     23900   318.40952     -36720.924      16500.326    
     24000   284.03221     -36712.874      8812.4763    
     24100   271.4777      -36714.453      9488.2905    
     24200   309.26601     -36732.135      12278.114    
     24300   286.69115     -36690.483      15334.374    
     24400   332.07943     -36711.844      22285.181    
     24500   313.39972     -36706.813      13466.714    
     24600   287.57539     -36701.351      10064.569    
     24700   292.29498     -36710.6        21606.467    
     24800   300.40176     -36718.462      9026.7604    
     24900   306.64872     -36725.778      6633.4044    
     25000   283.589       -36706.853      16266.668    
     25100   315.70328     -36718.046      8527.6166    
     25200   315.46112     -36707.373      15097.63     
     25300   307.70274     -36701.883      14619.576    
     25400   296.50074     -36719.951      13850.02     
     25500   299.58432     -36733.883      10556.671    
     25600   284.4786      -36719.252      16479.106    
     25700   299.62034     -36707.4        11515.937    
     25800   308.97177     -36706.347      9874.4025    
     25900   296.89343     -36705.818      18105.321    
     26000   320.47256     -36729.85       12927.975    
     26100   291.82178     -36714.108      10709.85     
     26200   268.81765     -36710.03       11424.552    
     26300   279.22674     -36711.413      13821.992    
     26400   295.49695     -36698.706      10504.735    
     26500   325.75068     -36710.572      12177.089    
     26600   312.66815     -36712.789      15726.793    
     26700   280.32634     -36709.18       12259.864    
     26800   295.85523     -36720.844      16764.817    
     26900   309.80677     -36722.557      18396.023    
     27000   287.0479      -36696.762      3595.8699    
     27100   290.26123     -36716.615      14013.6      
     27200   277.77995     -36730.453      16117.649    
     27300   291.28727     -36730.117      9544.5568    
     27400   293.36286     -36704.802      8440.5896    
     27500   309.39468     -36715.648      19613.782    
     27600   303.47507     -36713.296      14636.692    
     27700   273.6801      -36699.158      5088.8725    
     27800   289.87883     -36730.811      12359.234    
     27900   276.19057     -36732.117      17951.873    
     28000   271.63266     -36703.089      6825.6009    
     28100   330.57528     -36724.965      12735.695    
     28200   316.0669      -36716.254      20091.597    
     28300   317.02055     -36721.544      6058.175     
     28400   284.45253     -36722.604      16786.59     
     28500   279.19857     -36725.312      13711.349    
     28600   302.95029     -36712.897      8210.5647    
     28700   302.80611     -36706.62       6425.3191    
     28800   297.94337     -36713.175      22467.824    
     28900   319.83639     -36723.512      8721.3018    
     29000   296.23817     -36717.9        7046.6435    
     29100   284.56112     -36730.903      12431.544    
     29200   275.92701     -36719.149      11096.181    
     29300   309.7917      -36709.187      9073.8927    
     29400   307.08788     -36708.583      11463.324    
     29500   286.71076     -36706.161      16045.76     
     29600   309.65619     -36723.889      14573.857    
     29700   300.15993     -36722.422      10263.351    
     29800   290.14307     -36731.484      11161.784    
     29900   292.72586     -36719.708      16285.85     
     30000   304.19494     -36704.157      9948.3295    
     30100   332.07198     -36721.584      12894.919    
     30200   291.26842     -36707.994      16777.073    
     30300   316.80422     -36727.589      12493.622    
     30400   280.52392     -36701.555      11206.711    
     30500   302.10198     -36718.5        11894.799    
     30600   288.241       -36716.203      13721.517    
     30700   272.64229     -36712.97       13093.297    
     30800   299.69424     -36724.082      9537.9571    
     30900   291.83218     -36696.614      12758.508    
     31000   311.63733     -36699.827      13277.293    
     31100   311.37566     -36713.932      17759.184    
     31200   281.82893     -36721.57       10535.412    
     31300   281.00633     -36720.109      11047.901    
     31400   307.69292     -36722.394      15463.783    
     31500   311.44601     -36718.21       9311.8591    
     31600   297.3641      -36704.179      15592.316    
     31700   319.63574     -36701.46       20117.117    
     31800   325.96481     -36696.952      10848.615    
     31900   293.57472     -36705.302      11983.699    
     32000   303.87162     -36725.911      14900.535    
     32100   271.55712     -36706.341      15440.653    
     32200   310.02099     -36717.581      8025.013     
     32300   309.17028     -36698.325      13859.98     
     32400   296.45034     -36695.833      5003.4922    
     32500   268.74594     -36709.532      9791.1326    
     32600   294.17177     -36728.835      14749.872    
     32700   297.1616      -36720.095      9972.2617    
     32800   304.9443      -36704.647      6156.991     
     32900   338.4658      -36710.958      18734.457    
     33000   309.31566     -36697.783      11138.278    
     33100   329.79874     -36728.228      12601.06     
     33200   299.4412      -36721.568      14959.9      
     33300   284.58781     -36714.086      15152.148    
     33400   291.28858     -36709.355      8411.8934    
     33500   317.33601     -36700.656      18096.995    
     33600   314.69077     -36698.828      7505.8566    
     33700   312.43281     -36716.868      14480.757    
     33800   284.70657     -36706.371      14778.264    
     33900   289.41233     -36712.427      9077.5598    
     34000   282.79187     -36694.877      9943.8096    
     34100   321.46558     -36708.206      19573.31     
     34200   332.33337     -36695.983      6368.1572    
     34300   305.71677     -36697.832      9044.1395    
     34400   315.2361      -36730.905      15715.734    
     34500   282.48536     -36714.38       13648.094    
     34600   296.95019     -36718.769      8794.0903    
     34700   322.77958     -36726.369      23236.438    
     34800   316.55379     -36701.745      12533.19     
     34900   321.09364     -36688.441      9985.6388    
     35000   321.6946      -36712.338      13831.997    
     35100   291.47115     -36712.362      12396.212    
     35200   296.83453     -36717.04       6979.5377    
     35300   303.56523     -36716.977      17708.419    
     35400   326.08248     -36715.135      9348.5184    
     35500   304.55729     -36691.376      18342.515    
     35600   320.19387     -36725.981      14064.994    
     35700   284.93908     -36723.958      12416.249    
     35800   297.58165     -36729.546      6400.8437    
     35900   303.72599     -36713.044      18029.375    
     36000   310.16277     -36708.579      16837.86     
     36100   318.54646     -36718.594      13580.787    
     36200   294.94178     -36714.462      15672.001    
     36300   313.50984     -36727.38       9972.1026    
     36400   285.9853      -36710.642      7243.8377    
     36500   311.37432     -36719.773      15536.848    
     36600   317.71426     -36706.671      14000.085    
     36700   337.51791     -36703.497      11327.331    
     36800   276.28596     -36695.414      10006.388    
     36900   280.67699     -36706.934      18633.832    
     37000   308.53279     -36722.894      9789.8334    
     37100   297.25752     -36705.266      18971.955    
     37200   308.87267     -36709.353      18764.063    
     37300   289.10866     -36707.073      12094.938    
     37400   276.77252     -36715.566      14057.044    
     37500   317.43126     -36741.066      8571.4493    
     37600   297.66262     -36700.358      10645.017    
     37700   319.93738     -36703.747      20310.017    
     37800   312.41537     -36703.8        17040.742    
     37900   310.62147     -36712.877      11081.284    
     38000   310.84575     -36721.871      5153.9628    
     38100   283.60939     -36710.585      18365.701    
     38200   318.24999     -36726.458      20057.62     
     38300   308.78732     -36706.752      12691.403    
     38400   337.17782     -36710.846      9073.9619    
     38500   297.77341     -36696.779      11808.452    
     38600   283.24488     -36707.899      12510.759    
     38700   303.50606     -36724.634      15941.405    
     38800   294.50496     -36718.615      19191.576    
     38900   304.42569     -36711.453      6669.3862    
     39000   314.90455     -36706.134      17924.844    
     39100   324.91033     -36711.056      13638.5      
     39200   311.73153     -36722.81       10203.686    
     39300   283.88999     -36723.468      8245.9436    
     39400   275.6501      -36715.171      14727.182    
     39500   282.66533     -36697.753      8987.5488    
     39600   311.1146      -36710.184      11671.038    
     39700   289.07616     -36706.297      19066.499    
     39800   293.16408     -36711.167      15137.521    
     39900   320.52055     -36721.505      10366.464    
     40000   301.27923     -36710.516      21108.085    
     40100   296.35519     -36726.474      12115.929    
     40200   292.82632     -36745.773      15888.876    
     40300   308.91624     -36743.568      15164.857    
     40400   298.99609     -36719.996      14125.764    
     40500   309.22675     -36720.86       15811.405    
     40600   288.60338     -36707.155      14422.695    
     40700   269.33699     -36700.258      6677.0279    
     40800   283.12409     -36728.406      15200.527    
     40900   274.35134     -36721.246      9255.747     
     41000   306.14304     -36724.302      5220.0254    
     41100   300.17924     -36700.765      16793.085    
     41200   320.22447     -36717.591      17499.091    
     41300   296.48344     -36707.979      9.0820906    
     41400   281.98034     -36726.601      11613.656    
     41500   298.92501     -36743.729      12863.353    
     41600   291.89064     -36729.317      9048.7225    
     41700   302.45809     -36724.138      9176.0168    
     41800   321.65919     -36726.97       21807.33     
     41900   321.97761     -36717.544      8384.8151    
     42000   299.03823     -36716.363      10307.911    
     42100   272.67784     -36718.286      14523.281    
     42200   301.56147     -36738.743      15298.418    
     42300   328.58506     -36716.138      8704.6414    
     42400   325.68957     -36711.676      8482.7465    
     42500   295.08974     -36706.219      14310.841    
     42600   305.80417     -36729.479      9387.5381    
     42700   283.28941     -36716.785      8856.2247    
     42800   300.74543     -36726.928      21108.051    
     42900   316.95111     -36711.006      9953.9732    
     43000   311.511       -36694.099      21960.255    
     43100   312.73393     -36711.569      9301.6927    
     43200   297.46198     -36722.108      9999.0152    
     43300   301.91958     -36725.686      14027.553    
     43400   312.9369      -36727.36       14589.192    
     43500   315.53797     -36710.83       7311.1024    
     43600   330.42485     -36700.541      14865.618    
     43700   313.85217     -36703.598      13553.045    
     43800   311.30844     -36729.964      9305.8805    
     43900   296.89709     -36727.78       11815.287    
     44000   290.26982     -36725.315      10372.259    
     44100   286.63634     -36703.69       10811.411    
     44200   347.3418      -36724.919      12356.421    
     44300   315.97934     -36713.41       9497.0144    
     44400   290.26805     -36711.104      15860.755    
     44500   299.63565     -36717.074      14611.41     
     44600   311.83484     -36722.377      6865.7071    
     44700   273.71623     -36707.805      11230.325    
     44800   283.41076     -36724.415      15287.334    
     44900   307.18367     -36726.491      14570.858    
     45000   307.11178     -36707.58       9273.7609    
     45100   303.25123     -36703          23680.291    
     45200   282.58786     -36706.639      12640.975    
     45300   271.4913      -36721.271      11283.86     
     45400   283.4398      -36723.491      8844.3327    
     45500   284.83558     -36705.259      12852.313    
     45600   297.67476     -36708.418      11529.371    
     45700   283.89336     -36704.178      15422.755    
     45800   303.28897     -36716.066      8936.6319    
     45900   308.46549     -36710          14042.613    
     46000   333.89108     -36712.209      10612.537    
     46100   294.73709     -36693.565      11949.475    
     46200   290.22663     -36716.747      12994.304    
     46300   289.5423      -36725.285      12966.214    
     46400   312.63308     -36732.323      9680.0415    
     46500   296.09646     -36707.916      12363.326    
     46600   319.62306     -36708.574      7977.5683    
     46700   339.30008     -36691.845      17123.586    
     46800   319.52026     -36693.87       13396.922    
     46900   313.84075     -36711.505      15687.408    
     47000   303.79167     -36716.852      10776.237    
     47100   297.54828     -36724.799      9354.6581    
     47200   280.0028      -36717.799      13061.606    
     47300   283.02323     -36703.648      14835.748    
     47400   308.34939     -36698.524      12161.232    
     47500   317.35965     -36718.683      16955.995    
     47600   290.55087     -36713.585      10457.932    
     47700   282.19777     -36719.587      5491.5522    
     47800   275.20796     -36721.233      15748.867    
     47900   297.44619     -36721.853      13251.804    
     48000   308.74884     -36703.243      5195.4398    
     48100   330.09327     -36720.165      13187.142    
     48200   299.00086     -36715.697      10788.115    
     48300   285.41284     -36721.432      9701.8131    
     48400   295.97826     -36727.764      14244.781    
     48500   285.1012      -36712.69       12580.551    
     48600   304.68969     -36718.966      5580.5143    
     48700   311.22043     -36720.847      19999.266    
     48800   288.93599     -36699.57       12609.202    
     48900   314.74753     -36716.211      10511.116    
     49000   298.46602     -36713.357      13937.023    
     49100   317.53802     -36742.088      13480.381    
     49200   277.79217     -36719.048      5876.7873    
     49300   300.85906     -36722.793      15765.081    
     49400   305.74065     -36701.863      11267.804    
     49500   290.90427     -36690.658      8557.9892    
     49600   287.94516     -36704.111      14436.53     
     49700   284.14136     -36720.316      14208.469    
     49800   298.80735     -36726.498      5134.4081    
     49900   309.89424     -36730.57       14536.996    
     50000   292.37669     -36711.391      14115.08     
     50100   308.34031     -36706.623      10696.528    
     50200   331.52603     -36709.563      16502.895    
     50300   276.89949     -36703.621      12029.111    
     50400   286.51123     -36722.423      10887.791    
     50500   294.47251     -36717.477      12441.299    
     50600   323.31765     -36718.335      17800.923    
     50700   306.65964     -36706.035      4344.5392    
     50800   295.72533     -36717.207      15570.029    
     50900   286.53916     -36738.569      14284.299    
     51000   275.24665     -36720.192      8356.1685    
     51100   316.87428     -36736.248      15269.007    
     51200   275.70487     -36697.22       10085.056    
     51300   319.03564     -36722.017      17860.366    
     51400   309.18728     -36699.293      11214.741    
     51500   335.86235     -36702.55       12680.786    
     51600   305.01076     -36702.834      5387.7743    
     51700   280.70696     -36709.904      21825.24     
     51800   297.1521      -36719.647      7888.3948    
     51900   290.61849     -36711.297      12342.134    
     52000   291.40027     -36689.909      12249.346    
     52100   303.21203     -36690.817      11306.95     
     52200   307.53914     -36723.625      10307.148    
     52300   281.43298     -36720.61       17704.78     
     52400   298.94106     -36719.448      13472.758    
     52500   298.98889     -36710.704      16982.63     
     52600   303.14904     -36707.596      13408.656    
     52700   322.32033     -36705.354      8590.1562    
     52800   311.48876     -36686.763      11472.545    
     52900   308.43728     -36718.446      19428.243    
     53000   284.84233     -36712.426      12078.285    
     53100   295.43615     -36712.24       4747.3633    
     53200   324.48995     -36720.906      13751.12     
     53300   307.33279     -36706.193      18658.253    
     53400   304.3372      -36703.605      10775.503    
     53500   320.62463     -36732.002      15879.293    
     53600   302.29022     -36738.299      17348.462    
     53700   289.86236     -36724.473      14346.561    
     53800   306.96878     -36712.275      9705.2468    
     53900   316.29697     -36703.936      13608.656    
     54000   312.3457      -36710.172      14468.276    
     54100   291.71046     -36707.471      9428.7929    
     54200   289.62848     -36716.487      15932.247    
     54300   292.07142     -36722.134      13805.76     
     54400   294.1016      -36729.588      7166.4892    
     54500   272.73105     -36715.116      17162.701    
     54600   306.40139     -36718.619      18620.817    
     54700   313.3962      -36703.955      9511.0229    
     54800   304.0993      -36704.025      7621.0996    
     54900   281.47559     -36710.219      14897.175    
     55000   289.75586     -36720.509      12821.107    
     55100   295.08613     -36718.207      13526.698    
     55200   304.97847     -36713.858      13685.533    
     55300   318.29416     -36711.54       13565.187    
     55400   308.4497      -36703.315      7853.7079    
     55500   275.97797     -36713.198      18369.745    
     55600   285.55373     -36724.174      20626.834    
     55700   306.6149      -36717.188      7125.5186    
     55800   319.56151     -36718.789      8343.3299    
     55900   291.35256     -36707.846      17397.439    
     56000   265.48915     -36710.794      9450.3426    
     56100   281.6785      -36730.897      7621.0595    
     56200   305.54359     -36727.55       15978.101    
     56300   304.36179     -36705.304      11565.265    
     56400   300.77376     -36699.665      7762.2326    
     56500   320.15983     -36725.326      13801.422    
     56600   294.51593     -36721.077      18154.822    
     56700   273.23886     -36726.931      9690.4864    
     56800   274.71864     -36729.888      9842.3876    
     56900   308.1224      -36721.258      17912.211    
     57000   292.92501     -36701.994      11502.67     
     57100   314.4114      -36711.824      10911.443    
     57200   298.47155     -36712.509      16099.794    
     57300   290.37285     -36724.42       15134.452    
     57400   290.56871     -36717.917      19321.28     
     57500   307.12352     -36703.241      13222.101    
     57600   332.14696     -36717.25       8378.2609    
     57700   287.93127     -36698.793      12871.661    
     57800   296.02003     -36713.194      11754.236    
     57900   302.40595     -36724.784      10210.999    
     58000   287.34575     -36729.617      10537.85     
     58100   277.77487     -36721.64       16159.741    
     58200   279.73775     -36694.232      9839.8058    
     58300   317.94015     -36715.162      16595.326    
     58400   311.23896     -36715.477      10461.098    
     58500   295.9769      -36726.989      9253.7455    
     58600   285.96632     -36728.772      10218.164    
     58700   298.16141     -36705.919      17250.352    
     58800   323.21488     -36702.56       5422.0694    
     58900   294.1166      -36691.197      23603.186    
     59000   297.28682     -36716.605      12158.849    
     59100   300.46978     -36722.895      10873.032    
     59200   288.36454     -36714.632      9055.6682    
     59300   272.49698     -36692.108      13516.607    
     59400   327.35175     -36699.158      12987.476    
     59500   323.84746     -36700.629      6268.1442    
     59600   302.24756     -36711.808      16887.315    
     59700   301.76566     -36719.84       16837.747    
     59800   293.77868     -36717.171      9272.9733    
     59900   308.65475     -36721.632      13997.181    
     60000   325.58261     -36706.557      14967.158    
     60100   310.34421     -36688.91       3308.1538    
     60200   302.77565     -36708.178      14291.329    
     60300   291.57701     -36712.156      9607.6331    
     60400   297.6236      -36714.804      14500.523    
     60500   311.98317     -36724.653      14234.787    
     60600   291.73757     -36717.776      12100.67     
     60700   278.63759     -36702.554      13468.779    
     60800   340.66434     -36730.803      6384.5316    
     60900   313.00253     -36712.39       10295.567    
     61000   280.98542     -36713.945      18104.503    
     61100   301.93565     -36736.496      16308.015    
     61200   303.93124     -36720.6        9005.945     
     61300   290.32603     -36693.39       19330.805    
     61400   331.66465     -36724.842      14743.46     
     61500   287.94022     -36696.148      9703.6726    
     61600   297.08546     -36717.122      9654.5731    
     61700   285.88142     -36735.224      18657.754    
     61800   271.41433     -36718.862      8724.0498    
     61900   293.16403     -36722.051      14340.616    
     62000   299.08819     -36717.266      14317.096    
     62100   293.67325     -36702.034      6426.3607    
     62200   328.6878      -36712.778      10152.467    
     62300   315.57091     -36701.847      16081.673    
     62400   310.61356     -36725.253      12921.161    
     62500   303.62425     -36733.792      17008.105    
     62600   307.14211     -36734.174      8144.2119    
     62700   303.14877     -36709.318      9668.9208    
     62800   300.43267     -36689.446      14962.817    
     62900   306.06367     -36697.971      11755.619    
     63000   295.79189     -36701.892      7964.7059    
     63100   315.49405     -36720.004      19636.001    
     63200   298.49339     -36714.849      9474.2129    
     63300   292.35069     -36722.941      7849.5467    
     63400   292.51115     -36724.375      18317.542    
     63500   306.93894     -36709.222      9345.6028    
     63600   317.96278     -36703.176      9898.2017    
     63700   287.36737     -36699.874      19243.148    
     63800   293.54805     -36718.784      16720.225    
     63900   302.97161     -36726.872      15571.755    
     64000   288.02281     -36716.328      8417.6656    
     64100   320.45319     -36733.471      14729.691    
     64200   305.06887     -36714.845      14177.055    
     64300   304.83        -36716.662      14674.041    
     64400   296.87085     -36711.004      13523.569    
     64500   313.57672     -36724.784      9580.3147    
     64600   278.86387     -36706.145      10303.551    
     64700   297.01436     -36715.214      20524.378    
     64800   304.10351     -36691.283      12951.825    
     64900   319.08378     -36686.023      11793.43     
     65000   316.4748      -36704.813      13556.731    
     65100   294.67643     -36707.812      10958.977    
     65200   309.43534     -36727.115      10152.659    
     65300   284.25582     -36713.534      10351.156    
     65400   319.41625     -36714.899      13994.568    
     65500   321.33595     -36710.861      14629.208    
     65600   283.00206     -36702.264      8603.5274    
     65700   306.90955     -36723.022      18800.646    
     65800   309.57785     -36721.452      13993.716    
     65900   291.50339     -36714.979      14758.044    
     66000   287.36193     -36720.396      8578.1196    
     66100   304.53134     -36734.511      12627.738    
     66200   305.01841     -36717.001      9501.6442    
     66300   327.70867     -36716.287      11259.268    
     66400   308.84477     -36704.366      10389.264    
     66500   276.83217     -36713.426      18972.467    
     66600   297.01745     -36735.181      6530.3092    
     66700   294.15243     -36723.393      12864.143    
     66800   294.01317     -36707.737      16374.717    
     66900   292.03805     -36701.482      9831.3466    
     67000   303.13653     -36711.824      11171.564    
     67100   299.65468     -36713.269      20263.994    
     67200   291.99997     -36711.702      11225.441    
     67300   317.11645     -36733.936      6094.9521    
     67400   275.48578     -36721.568      16162.493    
     67500   272.90464     -36726.217      13975.773    
     67600   298.01975     -36714.702      6195.1287    
     67700   322.32748     -36718.984      11956.879    
     67800   327.5512      -36721.755      19344.631    
     67900   307.23933     -36716.593      19751.602    
     68000   283.84383     -36723.994      3990.4264    
     68100   300.04461     -36744.179      14978.464    
     68200   290.68503     -36721.66       10604.259    
     68300   312.0948      -36723.597      5813.012     
     68400   314.0252      -36720.05       18139.228    
     68500   301.77567     -36717.325      15731.953    
     68600   302.75178     -36721.935      7094.1103    
     68700   266.9615      -36717.722      22506.467    
     68800   296.34675     -36737.059      8293.443     
     68900   297.71019     -36713.23       8170.1538    
     69000   307.76539     -36708.53       21143.579    
     69100   319.17391     -36719.405      16900.112    
     69200   296.29213     -36712.96       8204.3084    
     69300   278.70311     -36707.646      17508.186    
     69400   309.77926     -36717.296      12894.714    
     69500   301.89067     -36697.803      11267.034    
     69600   302.16977     -36704.818      17422.232    
     69700   302.80689     -36724.993      12210.729    
     69800   296.2997      -36724.939      5370.1873    
     69900   293.72006     -36714.269      15739.111    
     70000   320.01464     -36700.729      9870.2855    
     70100   330.3036      -36699.599      6604.3764    
     70200   327.05144     -36717.715      16572.817    
     70300   296.08463     -36704.909      15852.168    
     70400   299.87771     -36717.104      4538.0145    
     70500   286.709       -36717.857      10489.192    
     70600   308.2832      -36728.28       16189.582    
     70700   299.99045     -36691.106      10442.804    
     70800   319.88872     -36702.715      13829.309    
     70900   316.08803     -36717.16       17068.011    
     71000   301.54155     -36718.748      6813.7087    
     71100   302.41547     -36717.596      8713.7726    
     71200   317.06215     -36725.304      14259.327    
     71300   301.40103     -36714.539      9518.3294    
     71400   298.03227     -36715.396      14158.777    
     71500   299.14839     -36716.316      19199.168    
     71600   298.03685     -36708.749      2199.9382    
     71700   297.10782     -36701.618      18764.147    
     71800   318.32795     -36716.263      24507.822    
     71900   278.50642     -36698.267      8629.655     
     72000   293.06586     -36725.79       12796.959    
     72100   288.20959     -36732.689      13568.609    
     72200   289.46715     -36723.52       9994.0937    
     72300   307.64467     -36706.53       8493.0315    
     72400   295.47291     -36700.378      18733.625    
     72500   302.178       -36718.654      7737.5958    
     72600   256.10549     -36699.917      17904.378    
     72700   316.49299     -36725.268      4745.8656    
     72800   312.78072     -36692.402      10210.359    
     72900   326.34883     -36706.589      9968.8308    
     73000   301.8968      -36706.168      18104.257    
     73100   289.93816     -36714.417      8249.2797    
     73200   284.55267     -36713.096      18354.968    
     73300   298.16697     -36714.886      9571.2202    
     73400   308.40328     -36715.517      7498.068     
     73500   312.18984     -36692.298      8883.4314    
     73600   346.34704     -36707.03       16589.944    
     73700   306.09917     -36701.668      9944.496     
     73800   295.56414     -36709.121      15068.433    
     73900   305.18247     -36723.574      9840.2775    
     74000   295.12038     -36717.757      16622.503    
     74100   308.16927     -36706.493      7625.8192    
     74200   316.19424     -36695.465      12355.713    
     74300   326.32145     -36716.682      23491.806    
     74400   275.69526     -36705.942      13793.965    
     74500   303.19992     -36720.765      10654.788    
     74600   300.21882     -36716.411      19724.181    
     74700   304.59671     -36700.564      6215.4942    
     74800   318.11627     -36690.881      14548.125    
     74900   322.23698     -36703.457      16241.278    
     75000   300.78779     -36719.878      11621.493    
     75100   274.94002     -36707.527      12183.027    
     75200   293.97018     -36715.835      17666.117    
     75300   306.11722     -36707.406      9055.1472    
     75400   305.6174      -36695.382      14676.578    
     75500   314.42317     -36719.387      10502.081    
     75600   264.17132     -36708.657      12119.869    
     75700   287.0666      -36718.516      4316.2537    
     75800   301.79799     -36713.501      17275.403    
     75900   303.63542     -36701.457      15323.917    
     76000   335.05999     -36723.526      14978.767    
     76100   265.44812     -36710.913      12912.83     
     76200   288.00141     -36725.298      17156.713    
     76300   303.38984     -36716.467      10160.569    
     76400   325.47396     -36716.918      14530.259    
     76500   311.79314     -36710.533      13210.33     
     76600   293.7195      -36719.15       14707.349    
     76700   269.42471     -36720.035      14146.272    
     76800   277.45639     -36718.777      9925.4224    
     76900   305.31231     -36720.398      12064.941    
     77000   297.97528     -36709.748      14471.161    
     77100   314.72382     -36717.921      9967.1582    
     77200   301.99584     -36717.294      15613.442    
     77300   289.80439     -36731.161      11251.175    
     77400   259.1765      -36726.459      10076.893    
     77500   285.00718     -36725.429      13664.817    
     77600   282.70372     -36712.094      13320.133    
     77700   297.87875     -36710.886      15601.27     
     77800   313.99446     -36712.12       7771.1689    
     77900   293.63277     -36704.367      16678.597    
     78000   278.40352     -36721.543      17476.229    
     78100   273.41526     -36719.581      11901.036    
     78200   289.39872     -36710.316      10004.581    
     78300   293.04725     -36707.895      13114.642    
     78400   303.53833     -36714.361      12080.397    
     78500   306.17756     -36716.226      9273.6706    
     78600   305.61872     -36723.962      16357.691    
     78700   284.87748     -36729.798      14485.438    
     78800   272.81429     -36716.035      8332.589     
     78900   298.21175     -36707.706      8342.0093    
     79000   304.12564     -36705.665      15645.621    
     79100   289.5676      -36701.578      14666.447    
     79200   288.01678     -36717.085      7548.6522    
     79300   311.99518     -36738.551      13772.626    
     79400   272.98869     -36705.284      12437.53     
     79500   308.71133     -36724.91       14441.648    
     79600   299.21691     -36719.263      6331.0056    
     79700   300.88438     -36721.317      23226.775    
     79800   311.36674     -36702.438      19071.678    
     79900   310.54228     -36696.494      14819.758    
     80000   288.59941     -36712.548      20089.838    
     80100   270.60936     -36711.02       16271.435    
     80200   294.04406     -36713.5        1155.2727    
     80300   306.65623     -36712.488      19385.599    
     80400   301.68549     -36704.128      17035.913    
     80500   294.28707     -36716.571      8430.0745    
     80600   272.14104     -36719.985      20123.019    
     80700   298.57846     -36733.345      17257.072    
     80800   314.49806     -36716.322      4315.6526    
     80900   301.44617     -36707.024      10567.205    
     81000   298.94027     -36713.867      18523.659    
     81100   308.27983     -36721.111      13591.422    
     81200   274.95374     -36698.217      7564.2117    
     81300   288.22208     -36729.099      14135.014    
     81400   276.1552      -36727.191      14820.847    
     81500   312.39027     -36731.718      5281.016     
     81600   302.38404     -36709.54       12076.868    
     81700   313.58925     -36712.947      12701.094    
     81800   308.06068     -36710.357      7823.3507    
     81900   279.71969     -36723.086      14915.341    
     82000   285.4409      -36732.011      11349.036    
     82100   285.44702     -36714.287      6046.5925    
     82200   300.7028      -36710.098      14051.192    
     82300   318.78393     -36721.81       10941.305    
     82400   318.55804     -36723.33       9871.9408    
     82500   288.38076     -36717.771      11581.965    
     82600   278.72078     -36733.289      13953.221    
     82700   264.9162      -36712.647      9146.167     
     82800   292.30797     -36711.067      17726.183    
     82900   305.96355     -36719.828      13704.339    
     83000   303.30682     -36716.548      9996.2405    
     83100   300.84635     -36710.121      15283.375    
     83200   316.16067     -36713.146      18174.178    
     83300   296.21708     -36709.768      6819.301     
     83400   290.13608     -36726.153      13698.707    
     83500   297.93824     -36730.893      17625.434    
     83600   294.41096     -36700.846      6101.5742    
     83700   315.49603     -36702.762      9020.7699    
     83800   300.77934     -36699.55       22228.248    
     83900   317.82649     -36715.659      7933.8445    
     84000   310.43245     -36719.977      4699.002     
     84100   275.91106     -36713.184      16264.615    
     84200   294.2754      -36727.418      12562.546    
     84300   314.83728     -36716.459      9956.5207    
     84400   296.33204     -36692.076      14728.658    
     84500   323.14652     -36717.117      15177.756    
     84600   276.71725     -36697.684      11715.197    
     84700   308.52758     -36725.231      15708.633    
     84800   300.43913     -36718.695      12658.208    
     84900   307.39941     -36716.789      5709.6405    
     85000   323.76262     -36699.566      16629.94     
     85100   324.84335     -36696.413      15495.105    
     85200   286.97629     -36688.941      7399.741     
     85300   295.38145     -36708.494      11572.6      
     85400   306.00339     -36725.3        18083.005    
     85500   278.57564     -36707.979      8097.1667    
     85600   299.55843     -36709.507      12286.314    
     85700   312.97714     -36696.04       13658.532    
     85800   313.64008     -36700.466      15339.565    
     85900   313.73        -36724.992      9236.8471    
     86000   289.24611     -36716.53       9606.5843    
     86100   307.08673     -36725.05       14640.781    
     86200   298.60877     -36712.09       15001.902    
     86300   315.73323     -36700.711      9824.5104    
     86400   323.67462     -36690.823      10571.084    
     86500   306.57865     -36707.569      15198.861    
     86600   291.07629     -36715.011      7937.1524    
     86700   277.75164     -36706.299      13745.783    
     86800   321.72398     -36722.165      14734.349    
     86900   328.34181     -36715.935      6714.028     
     87000   282.46035     -36698.295      12068.802    
     87100   297.83838     -36734.307      13841.715    
     87200   301.28297     -36732.614      9992.5894    
     87300   294.50291     -36717.199      9386.3176    
     87400   303.12137     -36712.693      13015.658    
     87500   306.71898     -36715.18       15287.682    
     87600   295.62309     -36711.154      11437.81     
     87700   294.36704     -36722.415      15009.769    
     87800   293.55587     -36739.818      11427.026    
     87900   272.30064     -36730.518      12796.901    
     88000   295.93265     -36716.927      11731.315    
     88100   319.04396     -36718.712      18167.741    
     88200   303.9721      -36705.948      1652.0437    
     88300   316.77897     -36729.226      20151.134    
     88400   281.65032     -36722.025      13303.069    
     88500   299.4381      -36739.863      12260.845    
     88600   286.66119     -36705.269      14321.576    
     88700   307.07199     -36705.18       21077.667    
     88800   293.50666     -36697.103      5698.6495    
     88900   290.50635     -36715.328      17224.925    
     89000   297.58534     -36736.414      14440.349    
     89100   263.70691     -36712.548      6434.5817    
     89200   303.13809     -36704.194      8753.1899    
     89300   314.55709     -36710.428      24290.628    
     89400   307.65443     -36713.598      6993.139     
     89500   292.36366     -36720.679      9136.2421    
     89600   298.13999     -36731.672      18879.668    
     89700   291.09196     -36704.088      15083.01     
     89800   323.76057     -36700.017      4338.4416    
     89900   324.36037     -36712.285      17118.042    
     90000   305.50629     -36721.029      14283.582    
     90100   295.01658     -36718.934      10329.083    
     90200   287.07098     -36707.369      12902.215    
     90300   289.09254     -36706.082      19851.102    
     90400   322.38881     -36715.41       7120.5733    
     90500   326.63884     -36704.416      18585.515    
     90600   323.52477     -36712.161      7151.5854    
     90700   295.08898     -36717.605      8477.1723    
     90800   285.10381     -36710.94       9145.1176    
     90900   298.45165     -36711.154      13631.86     
     91000   313.57406     -36705.413      4467.0584    
     91100   297.12811     -36673.42       17505.059    
     91200   347.81616     -36707.849      12958.871    
     91300   306.65853     -36706.81       10705.56     
     91400   292.28399     -36707.405      20628.702    
     91500   281.81665     -36710.824      7204.6234    
     91600   308.02012     -36737.245      13929.449    
     91700   296.72492     -36720.47       22161.269    
     91800   305.57229     -36695.342      12835.263    
     91900   311.51832     -36700.07       14443.102    
     92000   283.70561     -36703.18       13539.04     
     92100   293.19596     -36713.846      13994.166    
     92200   311.8724      -36727.105      8980.5586    
     92300   277.58582     -36714.496      10083.104    
     92400   289.52025     -36729.592      25738.406    
     92500   312.83943     -36726.3        7006.5048    
     92600   302.1106      -36702.873      10915.608    
     92700   303.51297     -36702.839      24583.553    
     92800   296.95094     -36709.666      6964.6406    
     92900   285.98528     -36728.396      8025.5822    
     93000   291.0585      -36727.756      22802.483    
     93100   299.83792     -36714.294      17310.752    
     93200   308.32863     -36705.911      9213.7041    
     93300   298.91997     -36702.638      18253.354    
     93400   309.44317     -36714.434      9663.0124    
     93500   292.59375     -36705.509      9329.4215    
     93600   312.95948     -36729.18       13856.983    
     93700   281.43368     -36714.78       10318.683    
     93800   294.69904     -36724.089      8315.3478    
     93900   328.45551     -36723.397      16005.706    
     94000   341.13051     -36720.4        10243.448    
     94100   304.99163     -36708.468      6959.9874    
     94200   294.49084     -36718.947      15992.413    
     94300   299.62649     -36720.739      19200.178    
     94400   292.7383      -36709.665      9348.1379    
     94500   327.72175     -36730.682      10823.31     
     94600   316.98224     -36705.853      15408.32     
     94700   306.12005     -36682.273      11822.822    
     94800   296.9026      -36696.486      8529.6391    
     94900   290.85342     -36713.38       12375.317    
     95000   290.58414     -36711.286      12320.47     
     95100   305.83739     -36718.429      11027.109    
     95200   289.60548     -36715.84       10034.491    
     95300   273.80762     -36722.274      10925.131    
     95400   273.74774     -36720.104      13674.041    
     95500   315.4583      -36724.411      13080.774    
     95600   324.49278     -36722.494      19692.358    
     95700   301.56642     -36707.856      10762.837    
     95800   315.29711     -36728.643      12819.098    
     95900   276.71672     -36727.534      19598.702    
     96000   291.68467     -36735.363      13098.075    
     96100   303.95827     -36705.018      4557.652     
     96200   307.81169     -36704.179      16034.843    
     96300   311.1052      -36719.798      18665.458    
     96400   297.49199     -36721.376      8675.1854    
     96500   294.33166     -36730.584      8610.0833    
     96600   305.30655     -36735.871      19617.524    
     96700   299.07886     -36701.973      4878.1637    
     96800   309.69417     -36702.211      10242.336    
     96900   302.32765     -36705.334      26305.457    
     97000   308.13435     -36732.052      9672.8129    
     97100   273.07763     -36720.057      7284.8627    
     97200   273.16583     -36716.763      13413.14     
     97300   297.2647      -36715.861      15521.283    
     97400   291.83476     -36705.893      3370.3737    
     97500   313.91436     -36722.336      12770.467    
     97600   297.22806     -36706.958      18903.866    
     97700   289.2814      -36712.104      15727.344    
     97800   288.44542     -36722.286      9581.6315    
     97900   312.54073     -36731.805      25747.73     
     98000   318.46679     -36709.98       8183.3675    
     98100   321.38782     -36718.175      8503.8565    
     98200   269.98474     -36716.799      16327.135    
     98300   275.27672     -36722.113      18894.451    
     98400   308.79124     -36728.212      2609.5524    
     98500   308.17968     -36720.184      15598.647    
     98600   299.91937     -36703.207      16741.196    
     98700   312.45863     -36691.725      12110.61     
     98800   356.06266     -36708.969      13449.286    
     98900   310.57836     -36707.576      19480.007    
     99000   304.55553     -36716.372      13340.864    
     99100   296.40501     -36723.349      7991.521     
     99200   282.29786     -36718.838      14759.25     
     99300   330.19065     -36728.259      19305.649    
     99400   315.92665     -36704.728      5049.2642    
     99500   310.90604     -36714.697      13861.834    
     99600   304.1244      -36716.827      17815.508    
     99700   307.84708     -36719.905      3876.5954    
     99800   307.74898     -36722.587      14271.453    
     99900   310.99599     -36719.593      14457.797    
    100000   289.36506     -36698.356      40.940226    
Loop time of 3184.3 on 12 procs for 100000 steps with 243 atoms

Performance: 1.357 ns/day, 17.691 hours/ns, 31.404 timesteps/s, 7.631 katom-step/s
98.9% CPU use with 2 MPI tasks x 6 OpenMP threads

MPI task timing breakdown:
Section |  min time  |  avg time  |  max time  |%varavg| %total
---------------------------------------------------------------
Pair    | 2546.8     | 2557.7     | 2568.6     |  21.6 | 80.32
Bond    | 0.15629    | 0.15683    | 0.15737    |   0.1 |  0.00
Neigh   | 244.16     | 250.07     | 255.97     |  37.3 |  7.85
Comm    | 13.942     | 24.887     | 35.833     | 219.4 |  0.78
Output  | 0.23288    | 0.2595     | 0.28612    |   5.2 |  0.01
Modify  | 342.97     | 348.88     | 354.79     |  31.6 | 10.96
Other   |            | 2.353      |            |       |  0.07

Nlocal:          121.5 ave         123 max         120 min
Histogram: 1 0 0 0 0 0 0 0 0 1
Nghost:         3946.5 ave        3948 max        3945 min
Histogram: 1 0 0 0 0 0 0 0 0 1
Neighs:          65835 ave       66629 max       65041 min
Histogram: 1 0 0 0 0 0 0 0 0 1

Total # of neighbors = 131670
Ave neighs/atom = 541.85185
Ave special neighs/atom = 0
Neighbor list builds = 10000
Dangerous builds not checked
System init for write_data ...
##### Main run: 2
WARNING: Van der Waals parameters for element SI indicate inner wall+shielding, but earlier atoms indicate a different van der Waals method. This may cause division-by-zero errors. Keeping van der Waals setting for earlier atoms. (src/REAXFF/reaxff_ffield.cpp:251)
WARNING: Van der Waals parameters for element AL indicate inner wall+shielding, but earlier atoms indicate a different van der Waals method. This may cause division-by-zero errors. Keeping van der Waals setting for earlier atoms. (src/REAXFF/reaxff_ffield.cpp:251)
WARNING: Changed valency_val to valency_boc for X (src/REAXFF/reaxff_ffield.cpp:296)
md: 2
Neighbor list info ...
  update: every = 10 steps, delay = 0 steps, check = no
  max neighbors/atom: 2000, page size: 100000
  master list distance cutoff = 12
  ghost atom cutoff = 12
  binsize = 6, bins = 4 3 3
  2 neighbor lists, perpetual/occasional/extra = 2 0 0
  (1) pair reaxff, perpetual
      attributes: half, newton off, ghost
      pair build: half/bin/newtoff/ghost
      stencil: full/ghost/bin/3d
      bin: standard
  (2) fix qeq/reaxff, perpetual, copy from (1)
      attributes: half, newton off
      pair build: copy
      stencil: none
      bin: none
Setting up Verlet run ...
  Unit style    : real
  Current step  : 0
  Time step     : 0.5
Per MPI rank memory allocation (min/avg/max) = 161.6 | 161.7 | 161.7 Mbytes
   Step          Temp          PotEng         Press     
         0   289.36506     -36698.356      41.11406     
       100   311.54283     -36714.448      16386.59     
       200   302.71481     -36715.073      22661.161    
       300   281.82213     -36718.896      8619.3034    
       400   307.58449     -36739.975      15787.374    
       500   300.40017     -36716.284      13696.474    
       600   325.90943     -36712.152      10721.99     
       700   296.79811     -36697.47       11980.145    
       800   300.62491     -36709.663      15921.314    
       900   312.95772     -36725.752      15129.983    
      1000   309.15951     -36728.087      8845.7379    
      1100   296.06838     -36724.92       16882.668    
      1200   287.57101     -36706.385      17909.953    
      1300   302.43548     -36703.562      8437.884     
      1400   332.89888     -36732.928      8337.576     
      1500   295.34325     -36721.018      18503.692    
      1600   300.98862     -36722.599      10430.606    
      1700   310.52718     -36721.52       14222.128    
      1800   307.92279     -36715.583      14780.936    
      1900   307.65887     -36720.863      11094.727    
      2000   260.58379     -36714.126      10612.259    
      2100   276.88305     -36724.712      21051.452    
      2200   292.94506     -36708.845      10547.41     
      2300   326.44654     -36722.977      6854.4324    
      2400   309.61523     -36719.602      15066.058    
      2500   280.6258      -36710.325      8839.3294    
      2600   286.37304     -36718.01       7090.8101    
      2700   284.17433     -36702.054      14464.444    
      2800   329.90148     -36714.474      14607.324    
      2900   312.57286     -36711.512      5434.8285    
      3000   288.57009     -36716.737      15975.267    
      3100   302.12201     -36729.048      15607.751    
      3200   303.9409      -36723.108      2602.2483    
      3300   287.03377     -36711.24       14346.878    
      3400   294.49135     -36707.565      12755.324    
      3500   295.58765     -36697.329      15729.972    
      3600   337.31245     -36709.589      10468.492    
      3700   313.38326     -36708.335      13974.07     
      3800   311.16425     -36726.497      17388.619    
      3900   287.65103     -36720.529      10163.054    
      4000   309.73904     -36733.847      17471.199    
      4100   290.69487     -36702.383      17188.724    
      4200   317.39869     -36690.992      15084.026    
      4300   318.46259     -36705.516      12128.971    
      4400   287.40676     -36709.052      16202.589    
      4500   303.96404     -36722.655      13336.03     
      4600   312.48672     -36725.16       5164.9368    
      4700   287.13484     -36709.303      9954.7986    
      4800   317.00174     -36721.167      15626.665    
      4900   306.9968      -36698.052      7946.6806    
      5000   306.50363     -36706.863      5877.9622    
      5100   280.85607     -36714.379      16177.776    
      5200   286.09217     -36715.355      11069.4      
      5300   303.02092     -36720.336      5721.1482    
      5400   309.86114     -36712.038      18735.271    
      5500   328.5896      -36692.056      21649.51     
      5600   310.05548     -36686.98       2692.3216    
      5700   301.15155     -36706.605      9834.376     
      5800   306.02217     -36730.729      20245.061    
      5900   263.91115     -36701.824      4693.6915    
      6000   286.56264     -36701.675      15651.733    
      6100   289.24705     -36687.781      12323.276    
      6200   319.7196      -36712.456      11472.997    
      6300   288.2242      -36700.808      13119.609    
      6400   305.73506     -36725.809      8345.807     
      6500   301.5385      -36728.459      11947.766    
      6600   274.96908     -36700.615      15291.538    
      6700   322.76264     -36712.659      12769.531    
      6800   292.77597     -36697.265      16372.742    
      6900   290.6942      -36714.175      19413.331    
      7000   292.45075     -36719.943      7244.1975    
      7100   315.37799     -36724.356      6709.2848    
      7200   304.92704     -36699.075      15573.334    
      7300   331.44266     -36701.405      9026.3999    
      7400   319.69896     -36711.717      7731.4219    
      7500   301.22526     -36725.824      19369.46     
      7600   296.18425     -36718.491      9937.7664    
      7700   297.52546     -36711.298      9023.9085    
      7800   316.31256     -36716.087      18621.077    
      7900   320.96532     -36700.123      12639.751    
      8000   350.17199     -36713.57       4383.0333    
      8100   295.90334     -36711.153      23220.89     
      8200   298.15153     -36719.775      14539.503    
      8300   281.38269     -36706.379      7593.2297    
      8400   284.12893     -36703.941      15393.92     
      8500   312.49608     -36701.617      15351.972    
      8600   328.95479     -36699.679      8402.697     
      8700   304.85662     -36709.414      9223.8518    
      8800   290.64437     -36713.173      17032.148    
      8900   309.14168     -36725.384      6830.0926    
      9000   285.31387     -36706.87       10689.181    
      9100   319.80836     -36715.663      19794.72     
      9200   313.91483     -36700.46       6096.1754    
      9300   308.1906      -36724.061      7850.0027    
      9400   299.37876     -36733.078      12088.753    
      9500   291.42166     -36715.705      14006.555    
      9600   293.40719     -36701.045      10878.139    
      9700   335.63496     -36721.83       14377.37     
      9800   274.68636     -36691.539      15301.92     
      9900   285.95632     -36724.355      16493.82     
     10000   278.78833     -36717.542      12699.606    
     10100   289.0518      -36705.853      12466.551    
     10200   307.04771     -36703.126      10652.381    
     10300   300.85876     -36700.605      7195.9366    
     10400   298.20687     -36703.815      9479.5797    
     10500   311.54706     -36724.827      11003.949    
     10600   298.80398     -36724.004      10139.328    
     10700   303.19281     -36727.587      11241.981    
     10800   309.70716     -36700.82       17319.752    
     10900   337.52924     -36710.13       5571.8651    
     11000   313.45931     -36718.068      12857.667    
     11100   291.24034     -36719.788      17532.687    
     11200   287.8542      -36714.389      6905.0378    
     11300   297.09933     -36708.069      9164.0545    
     11400   335.99719     -36712.63       22963.974    
     11500   317.14967     -36698.749      8871.1184    
     11600   321.91516     -36715.196      8287.9436    
     11700   299.21147     -36713.874      19578.475    
     11800   286.33627     -36715.961      10731.034    
     11900   295.96734     -36724.616      7016.7119    
     12000   308.63452     -36724.543      21655.719    
     12100   322.90014     -36709.973      16356.014    
     12200   309.06382     -36702.695      1498.6951    
     12300   296.77003     -36716.057      13874.31     
     12400   298.99987     -36722.949      18299.27     
     12500   311.04587     -36724.41       9746.185     
     12600   283.40613     -36706.525      12541.396    
     12700   307.61568     -36712.299      18653.203    
     12800   327.33217     -36703.283      1428.9697    
     12900   318.59705     -36700.019      12737.14     
     13000   303.09871     -36725.333      21648.189    
     13100   300.69292     -36728.172      7334.6256    
     13200   303.91452     -36721.475      14037.116    
     13300   312.6798      -36712.38       11569.517    
     13400   308.24319     -36700.293      11934.267    
     13500   321.28604     -36697.772      20725.593    
     13600   338.36191     -36717.459      12539.823    
     13700   302.18482     -36719.723      9962.3377    
     13800   295.30617     -36723.551      16551.082    
     13900   303.54957     -36716.205      14601.146    
     14000   307.81825     -36701.107      7754.4995    
     14100   333.36722     -36709.952      16578.518    
     14200   300.60484     -36695.787      11741.347    
     14300   292.04077     -36713.939      7012.9222    
     14400   291.63909     -36727.924      16136.566    
     14500   300.47397     -36726.547      13182.743    
     14600   314.51047     -36712.091      11444.697    
     14700   310.55141     -36697.821      15403.361    
     14800   324.22897     -36716.27       15336.051    
     14900   271.39293     -36711.153      18862.078    
     15000   268.16204     -36710.595      13259.883    
     15100   295.158       -36712.117      12000.926    
     15200   307.06709     -36704.611      22356.008    
     15300   318.38184     -36711.276      14733.051    
     15400   313.99513     -36723.113      9706.6512    
     15500   273.30407     -36727.274      6690.7446    
     15600   260.12014     -36712.97       9858.366     
     15700   300.13147     -36722.335      13304.328    
     15800   304.50894     -36714.331      11058.077    
     15900   301.2077      -36703.051      11139.831    
     16000   324.94243     -36715.761      15525.809    
     16100   300.09406     -36716.463      8960.1312    
     16200   292.93055     -36730.406      14199.348    
     16300   281.06664     -36718.275      11279.942    
     16400   319.39349     -36718.946      7982.0219    
     16500   296.4928      -36699.583      10181.757    
     16600   303.87616     -36710.552      19212.33     
     16700   306.3683      -36717.593      14729.34     
     16800   276.93785     -36703.754      10532.284    
     16900   297.38357     -36721.306      9108.3558    
     17000   281.05506     -36707.453      20018.405    
     17100   320.81331     -36732.875      11881.031    
     17200   285.44273     -36703.144      9461.7618    
     17300   319.25862     -36722.115      11450.633    
     17400   288.64575     -36702.035      18269.362    
     17500   295.08103     -36713.681      7341.8056    
     17600   277.67749     -36716.677      16096.937    
     17700   289.53877     -36734.876      11446.084    
     17800   281.37938     -36716.545      8287.2874    
     17900   301.7226      -36704.732      13746.554    
     18000   316.57557     -36717.834      18455.068    
     18100   289.53939     -36710.973      16268.015    
     18200   294.7871      -36725.624      13807.865    
     18300   304.28578     -36729.823      12626.921    
     18400   292.95314     -36698.088      12195.716    
     18500   299.7756      -36689.019      13396.102    
     18600   308.75165     -36711.054      15281.179    
     18700   282.6633      -36708.873      13711.854    
     18800   296.00046     -36721.168      8847.2707    
     18900   311.56544     -36729.983      14879.316    
     19000   295.1482      -36712.819      7121.5241    
     19100   310.26872     -36713.936      4321.1119    
     19200   315.06118     -36698.081      19861.794    
     19300   309.87414     -36682.078      7058.8402    
     19400   322.48112     -36718.913      7787.935     
     19500   280.73241     -36707.879      16255.807    
     19600   297.77138     -36722.755      15221.087    
     19700   294.8249      -36708.825      394.57467    
     19800   313.0365      -36704.328      15046.536    
     19900   324.35999     -36702.748      15576.979    
     20000   296.05566     -36705.131      17862.742    
     20100   299.08378     -36723.974      5064.9064    
     20200   296.33033     -36725.379      15016.011    
     20300   303.68346     -36719.952      14234.878    
     20400   321.83217     -36708.384      10905.731    
     20500   319.44404     -36698.9        11848.215    
     20600   302.78654     -36715.245      15050.123    
     20700   276.80808     -36713.637      14342.386    
     20800   293.56618     -36718.197      11591.412    
     20900   298.5715      -36708.875      11103.955    
     21000   312.34484     -36705.5        19320.5      
     21100   311.5446      -36701.12       10805.014    
     21200   294.45403     -36717.514      15226.724    
     21300   293.75375     -36730.907      10035.736    
     21400   277.28135     -36712.783      5878.5215    
     21500   302.89006     -36713.796      9937.0804    
     21600   298.89541     -36708.836      15551.699    
     21700   325.38456     -36728.609      9853.5181    
     21800   293.76085     -36708.902      15366.721    
     21900   294.16549     -36699.138      10315.459    
     22000   335.06088     -36715.687      6068.6348    
     22100   302.6421      -36699.284      12698.963    
     22200   311.21355     -36729.787      18644.377    
     22300   278.54266     -36718.556      20454.383    
     22400   297.61604     -36724.802      11511.528    
     22500   284.12272     -36702.01       12311.705    
     22600   313.98843     -36720.508      11344.822    
     22700   310.93813     -36719.326      13002.817    
     22800   295.20182     -36706.802      12921.444    
     22900   305.35661     -36707.989      11737.352    
     23000   290.64553     -36694.677      15450.151    
     23100   312.67638     -36718.753      12724.308    
     23200   295.06309     -36721.059      9916.938     
     23300   285.3282      -36715.241      11053.606    
     23400   308.77096     -36716.961      15424.977    
     23500   310.88103     -36699.971      17006.984    
     23600   296.83563     -36700.289      4677.2922    
     23700   280.72502     -36721.165      16121.407    
     23800   294.4121      -36731.486      13831.455    
     23900   270.19427     -36704.526      6652.3246    
     24000   295.8239      -36704.958      13713.296    
     24100   297.51806     -36702.019      17625.987    
     24200   311.27888     -36713.033      5948.6813    
     24300   278.68972     -36723.545      14370.745    
     24400   274.99959     -36728.051      13565.348    
     24500   284.62042     -36714.836      12495.798    
     24600   284.05847     -36698.648      9995.7787    
     24700   319.002       -36720.165      15336.684    
     24800   285.24673     -36697.167      13835.349    
     24900   304.59704     -36722.724      20887.257    
     25000   255.53458     -36714.005      9329.2021    
     25100   295.92133     -36733.65       12798.743    
     25200   293.14731     -36711.529      12755.929    
     25300   313.75428     -36718.211      15053.011    
     25400   294.05007     -36703.654      2868.1282    
     25500   303.48689     -36727.382      15192.727    
     25600   304.06888     -36752.517      9842.274     
     25700   260.88363     -36720.267      10458.222    
     25800   299.95845     -36722.011      14377.994    
     25900   288.61638     -36712.039      16459.126    
     26000   304.78328     -36709.889      7776.314     
     26100   307.9324      -36701.711      13198.577    
     26200   326.69214     -36719.452      13314.231    
     26300   282.85039     -36718.415      9163.5741    
     26400   280.85656     -36715.397      8912.7053    
     26500   322.32349     -36732.48       20147.07     
     26600   311.46761     -36714.315      18672.531    
     26700   312.51709     -36721.637      11138.814    
     26800   284.70336     -36729.853      14312.385    
     26900   269.6579      -36720.335      14608.926    
     27000   297.20851     -36714.398      8456.1008    
     27100   318.52394     -36718.111      14830.411    
     27200   298.36955     -36706.116      10454.095    
     27300   312.25738     -36721.405      14084.522    
[...]
     67400   309.10153     -36728.624      6747.5188    
     67500   310.78219     -36707.889      15539.624    
     67600   304.04417     -36698.022      14928.771    
     67700   317.71284     -36712.941      12659.453    
     67800   299.9121      -36707.885      12785.274    
     67900   294.96671     -36710.763      9962.8339    
     68000   296.6659      -36716.859      16459.387    
     68100   308.5155      -36726.369      12895.651    
     68200   296.7656      -36717.634      10012.248    
     68300   315.31634     -36719.794      12971.098    
     68400   298.60663     -36697.437      25347.787    
     68500   319.78148     -36710.636      11504.226    
     68600   302.1935      -36728.07       10423.832    
     68700   293.71391     -36728.464      12443.432    
     68800   290.70424     -36714.865      14779.211    
     68900   314.71241     -36716.815      10094.911    
     69000   324.42441     -36723.58       12538.994    
     69100   298.88427     -36713.103      9735.9767    
     69200   297.16604     -36712.209      12989.619    
     69300   290.37673     -36703.214      14560.778    
     69400   292.81182     -36701.759      8887.0248    
     69500   319.56272     -36728.151      11654.907    
     69600   264.0063      -36705.467      8404.8576    
     69700   285.38584     -36727.578      13198.95     
     69800   305.3749      -36718.591      12124.927    
     69900   306.16408     -36702.529      10944.97     
     70000   295.83144     -36703.185      11679.141    
     70100   291.80073     -36717.069      13379.915    
     70200   295.12299     -36729.381      10602.705    
     70300   294.49344     -36723.34       9842.7689    
     70400   300.00921     -36698.908      17911.503    
     70500   343.48349     -36718.753      14731.891    
     70600   294.32843     -36704.149      14594.043    
     70700   288.01785     -36719.233      29618.468    
     70800   274.04565     -36706.623      9175.5856    
     70900   296.62274     -36697.465      1244.6445    
     71000   313.13287     -36703.858      21390.225    
     71100   306.48774     -36706.872      17674.793    
     71200   297.00539     -36702.083      2770.7539    
     71300   303.87664     -36717.622      15352.625    
     71400   291.64593     -36719.969      19228.728    
     71500   302.98113     -36726.623      4333.4921    
     71600   302.96307     -36716.727      7777.6776    
     71700   297.99227     -36698.22       21073.414    
     71800   318.71453     -36702.985      11594.411    
     71900   294.76702     -36714.416      16136.508    
     72000   300.82857     -36735.799      15953.112    
     72100   287.00865     -36717.769      7306.1519    
     72200   286.65048     -36700.896      9809.0867    
     72300   300.46632     -36702.665      15832.893    
     72400   293.42646     -36684.799      10324.27     
     72500   316.74959     -36687.236      15004.546    
     72600   314.2749      -36708.208      10938.738    
     72700   285.68368     -36709.665      10852.202    
     72800   297.83609     -36718.996      16885.802    
     72900   307.06183     -36721.365      12550.812    
     73000   286.42459     -36694.322      10445.83     
     73100   328.1884      -36707.547      14347.019    
     73200   287.98407     -36687.588      11285.399    
     73300   310.12078     -36732.272      13288.772    
     73400   280.50623     -36713.768      10850.938    
     73500   308.83659     -36726.062      10925.48     
     73600   311.73908     -36710.266      13369.294    
     73700   310.24321     -36693.42       26262.386    
     73800   345.74212     -36692.222      6674.2806    
     73900   315.90497     -36698.681      17081.95     
     74000   302.83435     -36714.165      14055.956    
     74100   290.78117     -36716.006      20412.94     
     74200   300.42493     -36725.024      4385.0034    
     74300   279.38593     -36718.766      16011.008    
     74400   301.14082     -36716.209      13105.163    
     74500   324.25204     -36712.427      14407.212    
     74600   296.20151     -36704.288      6524.852     
     74700   302.27223     -36726.957      13448.267    
     74800   297.88706     -36724.609      8978.5814    
     74900   290.18194     -36709.274      16651.52     
     75000   327.53401     -36690.794      3807.8672    
     75100   328.13641     -36700.46       19775.921    
     75200   306.5336      -36705.614      5022.3493    
     75300   288.02477     -36714.849      16243.049    
     75400   282.4861      -36715.73       17276.255    
     75500   314.15184     -36730.38       13618.788    
     75600   295.84838     -36688.528      11186.41     
     75700   303.77318     -36693.18       21897.817    
     75800   294.65171     -36696.133      10413.674    
     75900   304.79915     -36715.418      14334.121    
     76000   287.52115     -36710.371      11493.62     
     76100   300.59665     -36721.145      14834.275    
     76200   301.42535     -36719.611      9362.2046    
     76300   296.52809     -36717.315      18506.774    
     76400   314.15487     -36708.384      13847.224    
     76500   344.4057      -36722.86       6595.6177    
     76600   309.15378     -36721.918      11202.853    
     76700   305.48688     -36730.68       20365.473    
     76800   297.95722     -36719.484      10159.645    
     76900   310.22286     -36721.179      11198.097    
     77000   285.28553     -36694.703      17994.982    
     77100   344.32706     -36709.335      15277.925    
     77200   319.67542     -36681.043      13223.78     
     77300   292.0678      -36699.167      9153.2302    
     77400   318.39461     -36725.689      15905.375    
     77500   275.05844     -36704.014      14538.394    
     77600   301.0351      -36727.762      13972.457    
     77700   294.91495     -36711.69       14091.463    
     77800   319.01368     -36710.731      11972.18     
     77900   319.82783     -36716.971      18003.65     
     78000   293.8802      -36728.83       17413.956    
     78100   277.9218      -36723.253      5282.9101    
     78200   288.61683     -36719.451      10972.874    
     78300   295.22757     -36715.338      15675.916    
     78400   301.32539     -36710.143      8703.2381    
     78500   322.94475     -36720.127      5107.5692    
     78600   312.04518     -36723.715      17906.787    
     78700   287.20742     -36728.728      10767.541    
     78800   283.35413     -36738.076      7764.3663    
     78900   284.48061     -36712.919      19602.556    
     79000   320.25806     -36719.837      17093.51     
     79100   296.73948     -36703.878      8420.3538    
     79200   304.92678     -36722.612      13325.027    
     79300   288.16326     -36719.375      5463.1142    
     79400   279.64717     -36714.911      11423.066    
     79500   325.53556     -36720.711      10134.042    
     79600   298.86556     -36694.508      15866.967    
     79700   296.96971     -36702.803      10138.11     
     79800   285.48835     -36718.175      20264.35     
     79900   283.15102     -36730.928      5769.7786    
     80000   270.93919     -36731.461      7996.1899    
     80100   274.06654     -36722.293      14423.111    
     80200   289.65963     -36706.439      16607.712    
     80300   310.38507     -36707.937      6598.9848    
     80400   287.53188     -36697.375      17127.088    
     80500   298.64118     -36714.033      15995.624    
     80600   286.32019     -36721.473      17967.436    
     80700   286.57754     -36733.298      7773.1763    
     80800   283.36694     -36716.872      22546.841    
     80900   287.75711     -36690.121      7273.5895    
     81000   320.44591     -36711.777      9857.9684    
     81100   299.58895     -36710.677      15269.834    
     81200   287.75325     -36721.712      7593.6035    
     81300   301.68484     -36735.386      10546.12     
     81400   292.32044     -36712.544      17056.686    
     81500   310.80821     -36692.968      10024.331    
     81600   306.58244     -36696.337      10317.833    
     81700   305.51309     -36718.43       11247.461    
     81800   312.39833     -36739.591      15574.819    
     81900   278.51827     -36712.11       4843.02      
     82000   314.22185     -36718.303      7590.3932    
     82100   301.02904     -36700.495      20395.117    
     82200   323.86609     -36715.771      10642.152    
     82300   303.456       -36715.547      12001.885    
     82400   304.15096     -36734.674      16042.797    
     82500   294.5522      -36718.049      13820.391    
     82600   321.4414      -36713.234      3773.7471    
     82700   329.79373     -36696.876      17981.102    
     82800   349.94819     -36695.816      19100.37     
     82900   308.57115     -36699.643      8197.2261    
     83000   299.85459     -36708.033      6876.5527    
     83100   279.22852     -36713.21       11916.539    
     83200   278.17706     -36714.91       12081.683    
     83300   306.29615     -36721.436      13405.586    
     83400   306.96272     -36699.081      15543.942    
     83500   310.68806     -36693.858      15605.337    
     83600   305.61774     -36706.966      4872.5686    
     83700   282.58214     -36700.141      15729.434    
     83800   304.92526     -36723.917      17241.167    
     83900   302.34853     -36723.192      9779.3749    
     84000   297.91274     -36714.163      15009.845    
     84100   307.91112     -36708.165      9185.0758    
     84200   313.59349     -36696.579      13740.398    
     84300   301.26128     -36696.408      16255.435    
     84400   292.83042     -36720.481      6906.5145    
     84500   279.27641     -36713.215      10970.465    
     84600   297.52719     -36712.996      15442.903    
     84700   308.05278     -36706.817      10068.394    
     84800   310.79285     -36703.746      12787.895    
     84900   303.38524     -36716.107      12081.788    
     85000   294.02706     -36732.219      13158.953    
     85100   277.04348     -36718.429      7993.9964    
     85200   320.77188     -36727.164      16900.206    
     85300   300.9154      -36706.074      12823.691    
     85400   287.91932     -36705.557      7752.6383    
     85500   291.91185     -36718.091      14200.413    
     85600   268.1004      -36718.493      11796.492    
     85700   274.68983     -36732.746      5528.8251    
     85800   287.34058     -36727.16       12752.51     
     85900   298.7166      -36712.354      17029.28     
     86000   328.60469     -36726.22       8568.3039    
     86100   299.62003     -36707.601      8053.5669    
     86200   306.36849     -36733.141      17997.107    
     86300   254.81155     -36713.413      12103.106    
     86400   301.06148     -36733.463      2442.225     
     86500   308.46991     -36723.85       18677.606    
     86600   299.85902     -36716.249      17214.135    
     86700   304.28455     -36715.813      8924.5784    
     86800   299.9035      -36715.493      14374.698    
     86900   298.52717     -36717.608      20722.969    
     87000   320.4517      -36721.438      10152.696    
     87100   302.01546     -36712.013      7459.1701    
     87200   282.00955     -36714.078      20333.922    
     87300   302.96724     -36731.678      11018.635    
     87400   289.72769     -36715.627      8920.2007    
     87500   281.49072     -36696.315      20008.06     
     87600   343.55621     -36724.466      15245.624    
     87700   281.32594     -36676.288      9140.7902    
     87800   302.03135     -36726.631      12535.971    
     87900   277.87099     -36718.376      16677.849    
     88000   311.79578     -36728.99       10599.401    
     88100   291.78958     -36698.789      7074.6358    
     88200   323.00886     -36712.864      20333.769    
     88300   295.05919     -36708.493      11892.446    
     88400   279.05442     -36723.365      3951.8088    
     88500   288.57321     -36723.07       17884.487    
     88600   297.39001     -36713.184      19743.63     
     88700   313.38403     -36706.629      7846.2697    
     88800   320.10992     -36708.153      15934.571    
     88900   290.75346     -36714.062      15545.338    
     89000   264.83644     -36708.69       9243.6492    
     89100   291.81128     -36717.842      8984.0598    
     89200   306.76865     -36715.887      17671.139    
     89300   327.78095     -36711.34       13000.225    
     89400   323.27032     -36705.7        12448.681    
     89500   322.63297     -36720.424      12921.523    
     89600   292.26739     -36709.368      11804.124    
     89700   311.51651     -36724.745      14138.323    
     89800   281.82912     -36706.799      7640.3778    
     89900   288.76716     -36715.875      13333.476    
     90000   292.15319     -36707.681      27824.745    
     90100   342.28065     -36718.908      3500.3616    
     90200   301.61        -36700.173      10962.838    
     90300   287.2519      -36716.722      20620.175    
     90400   300.3822      -36724.229      15836.229    
     90500   286.13587     -36706.24       2277.0197    
     90600   294.78345     -36708.708      18988.725    
     90700   316.69284     -36705.367      14074.638    
     90800   312.03598     -36677.968      9042.8769    
     90900   338.02434     -36706.658      18537.218    
     91000   317.09805     -36723.365      17851.458    
     91100   293.7856      -36712.515      3216.7267    
     91200   301.80536     -36729.829      16763.924    
     91300   268.10885     -36703.644      19732.784    
     91400   307.10349     -36699.705      2983.7642    
     91500   331.52697     -36712.402      10877.624    
     91600   298.03212     -36711.029      22669.973    
     91700   292.5434      -36711.326      10321.9      
     91800   319.55047     -36729.324      12115.171    
     91900   300.79881     -36714.666      19567.759    
     92000   297.16542     -36711.416      9333.8534    
     92100   298.79651     -36714.033      8814.4601    
     92200   299.20675     -36725.409      18140.991    
     92300   270.20012     -36699.584      8824.8243    
     92400   345.83618     -36735.024      10398.536    
     92500   308.95476     -36701.335      13097.926    
     92600   292.63436     -36710.013      11162.016    
     92700   306.13083     -36741.728      11995.934    
     92800   304.116       -36742.689      12681.559    
     92900   282.43783     -36716.488      8812.2383    
     93000   277.48874     -36704.798      17843.491    
     93100   324.49318     -36724.171      12336.552    
     93200   299.21251     -36702.159      10961.167    
     93300   294.27073     -36713.952      13025.787    
     93400   267.7236      -36717.211      15388.479    
     93500   267.65496     -36718.825      8295.2649    
     93600   278.493       -36701.675      12620.571    
     93700   306.67091     -36710.676      10112.645    
     93800   314.55711     -36715.894      10057.617    
     93900   292.65588     -36713.28       14600.334    
     94000   295.04915     -36719.146      18250.369    
     94100   303.01411     -36721.872      14098.533    
     94200   300.46909     -36713.874      12826.859    
     94300   317.74539     -36711.236      11588.117    
     94400   309.01906     -36701.783      12722.857    
     94500   291.1798      -36712.29       13173.635    
     94600   270.97888     -36717.04       12777.758    
     94700   296.91405     -36726.515      11098.263    
     94800   291.856       -36711.876      9353.4084    
     94900   307.68965     -36710.521      13006.607    
     95000   334.42449     -36726.411      10394.259    
     95100   303.18261     -36718.04       14755.477    
     95200   279.72806     -36717.276      17321.886    
     95300   303.38156     -36719.464      9699.7533    
     95400   311.27804     -36701.059      4273.1923    
     95500   320.56722     -36704.56       13257.37     
     95600   299.7954      -36722.965      21573.659    
     95700   285.12992     -36723.37       6966.5536    
     95800   300.09309     -36727.855      15026.79     
     95900   308.89035     -36713.716      17896.361    
     96000   310.64239     -36699.173      6778.2559    
     96100   313.17357     -36709.23       11544.948    
     96200   282.61854     -36720.302      16210.04     
     96300   307.08234     -36733.462      9095.9882    
     96400   292.59797     -36717.698      11921.289    
     96500   297.10406     -36708.316      20640.167    
     96600   313.6642      -36711.099      13293.199    
     96700   301.42766     -36716.436      6219.6183    
     96800   269.67688     -36722.337      18070.088    
     96900   295.00519     -36730.299      7952.5908    
     97000   318.70901     -36725.034      8300.0597    
     97100   319.481       -36719.193      17137.639    
     97200   300.72833     -36708.541      14290.724    
     97300   299.53393     -36722.83       8406.8048    
     97400   280.2768      -36740.839      13235.393    
     97500   278.75635     -36728.853      12184.326    
     97600   274.16335     -36705.253      13664.576    
     97700   322.46134     -36727.13       16282.35     
     97800   295.64458     -36705.435      7892.804     
     97900   294.00567     -36714.9        11400.22     
     98000   276.66505     -36717.397      14162.534    
     98100   273.86183     -36726.905      13693.15     
     98200   292.74262     -36729.882      14294.167    
     98300   312.90305     -36720.335      23142.671    
     98400   314.42351     -36716.082      8044.6012    
     98500   297.55757     -36711.443      11962.22     
     98600   291.50245     -36727.974      12305.808    
     98700   292.63068     -36739.212      11849.202    
     98800   300.03996     -36717.119      11655.422    
     98900   291.91961     -36689.169      13338.21     
     99000   312.68068     -36707.348      16760.916    
     99100   280.48279     -36707.521      7746.0203    
     99200   288.82965     -36715.554      11447.463    
     99300   300.10381     -36716.325      16124.223    
     99400   321.53707     -36703.705      7398.6188    
     99500   333.11436     -36705.102      18105.868    
     99600   322.59382     -36722.522      9502.6761    
     99700   297.0543      -36717.08       9701.4372    
     99800   304.65374     -36726.977      14570.794    
     99900   294.98229     -36715.888      9959.7217    
    100000   312.06825     -36708.583      8913.1026    
Loop time of 10145.5 on 12 procs for 100000 steps with 243 atoms

Performance: 0.426 ns/day, 56.364 hours/ns, 9.857 timesteps/s, 2.395 katom-step/s
99.6% CPU use with 2 MPI tasks x 6 OpenMP threads

MPI task timing breakdown:
Section |  min time  |  avg time  |  max time  |%varavg| %total
---------------------------------------------------------------
Pair    | 2475.4     | 2488.7     | 2502       |  26.6 | 24.53
Bond    | 0.15638    | 0.15895    | 0.16152    |   0.6 |  0.00
Neigh   | 241.12     | 247.5      | 253.87     |  40.5 |  2.44
Comm    | 12.588     | 28.061     | 43.534     | 292.1 |  0.28
Output  | 0.23775    | 0.24947    | 0.26119    |   2.3 |  0.00
Modify  | 7374.5     | 7378.6     | 7382.7     |   4.8 | 72.73
Other   |            | 2.296      |            |       |  0.02

Nlocal:          121.5 ave         124 max         119 min
Histogram: 1 0 0 0 0 0 0 0 0 1
Nghost:         3946.5 ave        3949 max        3944 min
Histogram: 1 0 0 0 0 0 0 0 0 1
Neighs:          65806 ave       66988 max       64624 min
Histogram: 1 0 0 0 0 0 0 0 0 1

Total # of neighbors = 131612
Ave neighs/atom = 541.61317
Ave special neighs/atom = 0
Neighbor list builds = 10000
Dangerous builds not checked
Stress sampling interval = 5
Stress sample count = 20000
Born sampling interval = 5
Born sample count = 20000
done!
Total wall time: 3:42:10
