LAMMPS (2 Aug 2023 - Update 2)
  using 6 OpenMP thread(s) per MPI task
Reading data file ...
  triclinic box = (0 0 0) to (14.6913 12.723 15.9631) with tilt (-7.3456 0 0)
WARNING: Triclinic box skew is large. LAMMPS will run inefficiently. (src/domain.cpp:220)
  1 by 1 by 2 MPI processor grid
  reading atoms ...
  243 atoms
Finding 1-2 1-3 1-4 neighbors ...
  special bond factors lj:    0        0        0       
  special bond factors coul:  0        0        0       
     0 = max # of 1-2 neighbors
     0 = max # of 1-3 neighbors
     0 = max # of 1-4 neighbors
     1 = max # of special neighbors
  special bonds CPU = 0.000 seconds
  read_data CPU = 0.008 seconds
##### Minimization starts.
Setting up cg style minimization ...
  Unit style    : real
  Current step  : 0
WARNING: No pairwise cutoff or binsize set. Atom sorting therefore disabled. (src/atom.cpp:2366)
WARNING: Communication cutoff is 0.0. No ghost atoms will be generated. Atoms may get lost. (src/comm_brick.cpp:210)
Per MPI rank memory allocation (min/avg/max) = 8.865 | 8.865 | 8.865 Mbytes
   Step          Temp          PotEng         Press     
         0   0              0              0            
         1   0              0              0            
Loop time of 2.34975e-05 on 12 procs for 1 steps with 243 atoms

44.7% CPU use with 2 MPI tasks x 6 OpenMP threads

Minimization stats:
  Stopping criterion = search direction is not downhill
  Energy initial, next-to-last, final = 
                     0                  0                  0
  Force two-norm initial, final = 0 0
  Force max component initial, final = 0 0
  Final line search alpha, max atom move = 0 0
  Iterations, force evaluations = 1 0

MPI task timing breakdown:
Section |  min time  |  avg time  |  max time  |%varavg| %total
---------------------------------------------------------------
Pair    | 0          | 0          | 0          |   0.0 |  0.00
Bond    | 1.79e-07   | 2.115e-07  | 2.44e-07   |   0.0 |  0.90
Neigh   | 0          | 0          | 0          |   0.0 |  0.00
Comm    | 2.323e-06  | 2.738e-06  | 3.153e-06  |   0.0 | 11.65
Output  | 0          | 0          | 0          |   0.0 |  0.00
Modify  | 0          | 0          | 0          |   0.0 |  0.00
Other   |            | 2.055e-05  |            |       | 87.45

Nlocal:          121.5 ave         126 max         117 min
Histogram: 1 0 0 0 0 0 0 0 0 1
Nghost:              9 ave          12 max           6 min
Histogram: 1 0 0 0 0 0 0 0 0 1
Neighs:              0 ave           0 max           0 min
Histogram: 2 0 0 0 0 0 0 0 0 0

Total # of neighbors = 0
Ave neighs/atom = 0
Ave special neighs/atom = 0
Neighbor list builds = 0
Dangerous builds = 0
System init for write_data ...
WARNING: Communication cutoff is 0.0. No ghost atoms will be generated. Atoms may get lost. (src/comm_brick.cpp:210)
equil: 2
WARNING: Van der Waals parameters for element SI indicate inner wall+shielding, but earlier atoms indicate a different van der Waals method. This may cause division-by-zero errors. Keeping van der Waals setting for earlier atoms. (src/REAXFF/reaxff_ffield.cpp:251)
WARNING: Van der Waals parameters for element AL indicate inner wall+shielding, but earlier atoms indicate a different van der Waals method. This may cause division-by-zero errors. Keeping van der Waals setting for earlier atoms. (src/REAXFF/reaxff_ffield.cpp:251)
WARNING: Changed valency_val to valency_boc for X (src/REAXFF/reaxff_ffield.cpp:296)
md: 2

CITE-CITE-CITE-CITE-CITE-CITE-CITE-CITE-CITE-CITE-CITE-CITE-CITE

Your simulation uses code contributions which should be cited:
- pair reaxff command: doi:10.1016/j.parco.2011.08.005
- fix qeq/reaxff command: doi:10.1016/j.parco.2011.08.005
The log file lists these citations in BibTeX format.

CITE-CITE-CITE-CITE-CITE-CITE-CITE-CITE-CITE-CITE-CITE-CITE-CITE

Neighbor list info ...
  update: every = 10 steps, delay = 0 steps, check = no
  max neighbors/atom: 2000, page size: 100000
  master list distance cutoff = 12
  ghost atom cutoff = 12
  binsize = 6, bins = 4 3 3
  2 neighbor lists, perpetual/occasional/extra = 2 0 0
  (1) pair reaxff, perpetual
      attributes: half, newton off, ghost
      pair build: half/bin/newtoff/ghost
      stencil: full/ghost/bin/3d
      bin: standard
  (2) fix qeq/reaxff, perpetual, copy from (1)
      attributes: half, newton off
      pair build: copy
      stencil: none
      bin: none
Setting up Verlet run ...
  Unit style    : real
  Current step  : 0
  Time step     : 0.5
Per MPI rank memory allocation (min/avg/max) = 160.8 | 160.9 | 161 Mbytes
   Step          Temp          PotEng         Press     
         0   300           -36881.566      21554.575    
       100   188.92588     -36766.954      5347.404     
       200   220.21689     -36750.968      6626.3863    
       300   258.20253     -36732.471      27570.119    
       400   287.91775     -36705.25       8158.216     
       500   300.22759     -36685.231      3942.2982    
       600   313.63845     -36708.016      28370.025    
       700   278.63881     -36697.689      6260.0444    
       800   287.77908     -36717.334      15246.889    
       900   327.04132     -36744.877      14302.098    
      1000   292.18051     -36715.085      9250.4072    
      1100   293.00644     -36712.026      3831.6964    
      1200   308.28975     -36715.346      21103.299    
      1300   321.14286     -36715.05       16624.422    
      1400   321.34326     -36721.856      12265.101    
      1500   282.57596     -36720.997      15095.507    
      1600   264.90942     -36717.124      15096.692    
      1700   306.01058     -36729.631      9305.1757    
      1800   302.64724     -36706.344      16330.979    
      1900   328.07152     -36725.286      20833.458    
      2000   301.75775     -36712.177      91.493843    
