LAMMPS (2 Aug 2023 - Update 2)
  using 6 OpenMP thread(s) per MPI task
Reading data file ...
  triclinic box = (0 0 0) to (14.6913 12.723 15.9631) with tilt (-7.3456 0 0)
WARNING: Triclinic box skew is large. LAMMPS will run inefficiently. (src/domain.cpp:220)
  1 by 1 by 2 MPI processor grid
  reading atoms ...
  243 atoms
Finding 1-2 1-3 1-4 neighbors ...
  special bond factors lj:    0        0        0       
  special bond factors coul:  0        0        0       
     0 = max # of 1-2 neighbors
     0 = max # of 1-3 neighbors
     0 = max # of 1-4 neighbors
     1 = max # of special neighbors
  special bonds CPU = 0.000 seconds
  read_data CPU = 0.008 seconds
##### Minimization starts.
Setting up cg style minimization ...
  Unit style    : real
  Current step  : 0
WARNING: No pairwise cutoff or binsize set. Atom sorting therefore disabled. (src/atom.cpp:2366)
WARNING: Communication cutoff is 0.0. No ghost atoms will be generated. Atoms may get lost. (src/comm_brick.cpp:210)
Per MPI rank memory allocation (min/avg/max) = 8.865 | 8.865 | 8.865 Mbytes
   Step          Temp          E_pair         E_mol          TotEng         Press     
         0   0              0              0              0              0            
         1   0              0              0              0              0            
Loop time of 2.3609e-05 on 12 procs for 1 steps with 243 atoms

44.5% CPU use with 2 MPI tasks x 6 OpenMP threads

Minimization stats:
  Stopping criterion = search direction is not downhill
  Energy initial, next-to-last, final = 
                     0                  0                  0
  Force two-norm initial, final = 0 0
  Force max component initial, final = 0 0
  Final line search alpha, max atom move = 0 0
  Iterations, force evaluations = 1 0

MPI task timing breakdown:
Section |  min time  |  avg time  |  max time  |%varavg| %total
---------------------------------------------------------------
Pair    | 0          | 0          | 0          |   0.0 |  0.00
Bond    | 1.16e-07   | 1.34e-07   | 1.52e-07   |   0.0 |  0.57
Neigh   | 0          | 0          | 0          |   0.0 |  0.00
Comm    | 2.405e-06  | 2.7775e-06 | 3.15e-06   |   0.0 | 11.76
Output  | 0          | 0          | 0          |   0.0 |  0.00
Modify  | 0          | 0          | 0          |   0.0 |  0.00
Other   |            | 2.07e-05   |            |       | 87.67

Nlocal:          121.5 ave         126 max         117 min
Histogram: 1 0 0 0 0 0 0 0 0 1
Nghost:              9 ave          12 max           6 min
Histogram: 1 0 0 0 0 0 0 0 0 1
Neighs:              0 ave           0 max           0 min
Histogram: 2 0 0 0 0 0 0 0 0 0

Total # of neighbors = 0
Ave neighs/atom = 0
Ave special neighs/atom = 0
Neighbor list builds = 0
Dangerous builds = 0
System init for write_data ...
WARNING: Communication cutoff is 0.0. No ghost atoms will be generated. Atoms may get lost. (src/comm_brick.cpp:210)
equil: 1
WARNING: Van der Waals parameters for element SI indicate inner wall+shielding, but earlier atoms indicate a different van der Waals method. This may cause division-by-zero errors. Keeping van der Waals setting for earlier atoms. (src/REAXFF/reaxff_ffield.cpp:251)
WARNING: Van der Waals parameters for element AL indicate inner wall+shielding, but earlier atoms indicate a different van der Waals method. This may cause division-by-zero errors. Keeping van der Waals setting for earlier atoms. (src/REAXFF/reaxff_ffield.cpp:251)
WARNING: Changed valency_val to valency_boc for X (src/REAXFF/reaxff_ffield.cpp:296)
md: 1

CITE-CITE-CITE-CITE-CITE-CITE-CITE-CITE-CITE-CITE-CITE-CITE-CITE

Your simulation uses code contributions which should be cited:
- pair reaxff command: doi:10.1016/j.parco.2011.08.005
- fix qeq/reaxff command: doi:10.1016/j.parco.2011.08.005
The log file lists these citations in BibTeX format.

CITE-CITE-CITE-CITE-CITE-CITE-CITE-CITE-CITE-CITE-CITE-CITE-CITE

Neighbor list info ...
  update: every = 10 steps, delay = 0 steps, check = no
  max neighbors/atom: 2000, page size: 100000
  master list distance cutoff = 12
  ghost atom cutoff = 12
  binsize = 6, bins = 4 3 3
  2 neighbor lists, perpetual/occasional/extra = 2 0 0
  (1) pair reaxff, perpetual
      attributes: half, newton off, ghost
      pair build: half/bin/newtoff/ghost
      stencil: full/ghost/bin/3d
      bin: standard
  (2) fix qeq/reaxff, perpetual, copy from (1)
      attributes: half, newton off
      pair build: copy
      stencil: none
      bin: none
Setting up Verlet run ...
  Unit style    : real
  Current step  : 0
  Time step     : 0.5
Per MPI rank memory allocation (min/avg/max) = 160.9 | 160.9 | 161 Mbytes
   Step          Temp          PotEng         Press         Density         Volume    
         0   300           -36881.566      21554.575      2.8878482      2983.7813    
       100   149.79705     -36737.927     -22949.746      2.7618676      3119.8843    
       200   210.13931     -36758.177      32411.447      2.8886306      2982.9731    
       300   259.78543     -36735.761     -13794.532      2.7751572      3104.9439    
       400   291.29971     -36716.733     -237.79939      2.8040007      3073.0047    
       500   336.27274     -36715.29       7417.1129      2.8176809      3058.0849    
       600   345.48004     -36709.866     -9919.3543      2.8029548      3074.1513    
       700   314.91736     -36720.782      9792.9092      2.8521118      3021.1674    
       800   283.65949     -36713.884     -13864.242      2.7689036      3111.9565    
       900   276.83876     -36713.519      19683.439      2.8394672      3034.6212    
      1000   273.90182     -36681.372     -17279.595      2.7525863      3130.4041    
      1100   330.21454     -36709.751      14246.842      2.8576428      3015.32      
      1200   300.73352     -36685.614     -8523.4382      2.7989953      3078.5001    
      1300   305.71378     -36710.921      8288.7971      2.825226       3049.9179    
      1400   296.47729     -36723.389     -4588.8247      2.7813279      3098.0551    
      1500   295.81347     -36722.258      3295.5289      2.8041044      3072.8911    
      1600   305.27632     -36711.876      7237.4793      2.8165147      3059.3511    
      1700   309.66279     -36694.454     -10360.348      2.7844776      3094.5508    
      1800   292.7375      -36696.562      7794.3154      2.8227106      3052.6358    
      1900   288.94322     -36701.027     -8541.4379      2.7835317      3095.6024    
      2000   304.52443     -36719.555      10387.326      2.8285059      3046.3813    
      2100   284.79984     -36696.049     -5751.0937      2.7732857      3107.0392    
      2200   313.55677     -36711.954      6023.4234      2.821329       3054.1307    
      2300   296.10708     -36717.718     -5588.8297      2.804919       3071.9986    
      2400   276.96426     -36728.279      10105.815      2.849819       3023.5981    
      2500   292.97467     -36726.152     -6408.8271      2.8095572      3066.9272    
      2600   295.85787     -36714.623     -3072.5502      2.8090227      3067.5107    
      2700   302.53519     -36713.439      262.70023      2.7950407      3082.8558    
      2800   296.4721      -36698.393     -2722.1886      2.7962915      3081.4768    
      2900   345.04653     -36723.967      3905.6757      2.8171812      3058.6273    
      3000   307.85718     -36703.055     -7579.6651      2.7923399      3085.8376    
      3100   294.98163     -36720.815      6122.5298      2.8173989      3058.391     
      3200   279.26891     -36710.128     -6708.0457      2.7905472      3087.82      
      3300   289.57525     -36694.807     -3293.1555      2.8140436      3062.0376    
      3400   325.36788     -36711.237     -320.81944      2.8099169      3066.5346    
      3500   296.13587     -36700.215      4951.5587      2.8336424      3040.8592    
      3600   305.43083     -36725.587     -4449.7038      2.8004513      3076.8996    
      3700   277.48194     -36732.874     -4083.3758      2.7980977      3079.4877    
      3800   282.82022     -36726.197      1919.2054      2.8049247      3071.9924    
      3900   288.13608     -36709.906      1614.0972      2.8098364      3066.6224    
      4000   308.70467     -36709.941     -3007.5667      2.8088932      3067.6522    
      4100   329.81603     -36711.453     -2708.7973      2.8041796      3072.8087    
      4200   313.728       -36712.625      6818.9178      2.8184657      3057.2334    
      4300   289.38732     -36721.425     -58.385829      2.8027866      3074.3358    
      4400   302.10446     -36729.99      -3790.5883      2.807235       3069.4642    
      4500   280.24649     -36705.519      2116.3408      2.8066431      3070.1115    
      4600   307.41861     -36710.975      8981.8157      2.8359344      3038.4015    
      4700   315.80578     -36710.72      -2371.5174      2.8083039      3068.2959    
      4800   278.37491     -36701.764     -5827.8334      2.7976187      3080.0149    
      4900   272.33612     -36721.29       2887.0814      2.7883912      3090.2075    
      5000   288.02142     -36727.446      3233.6875      2.8141106      3061.9647    
      5100   283.77085     -36694.575     -2107.8077      2.8377453      3036.4625    
      5200   316.62242     -36709.548     -8424.292       2.8245409      3050.6577    
      5300   290.02326     -36703.52       7572.4284      2.8112462      3065.0846    
      5400   285.84761     -36705.935      1931.691       2.7820948      3097.2012    
      5500   298.03831     -36703.38      -8656.8692      2.7819345      3097.3797    
      5600   316.32703     -36706.681     -1041.9405      2.8077555      3068.8952    
      5700   314.10272     -36695.903      3982.0051      2.8378153      3036.3876    
      5800   313.14769     -36708.33       5619.2988      2.8363851      3037.9187    
      5900   301.83145     -36723.629     -6885.6295      2.8044654      3072.4955    
      6000   292.68222     -36722.783      1275.1744      2.8085345      3068.044     
      6100   280.25903     -36702.626     -408.9118       2.7924382      3085.7289    
      6200   318.07989     -36710.46       932.3205       2.8071432      3069.5645    
      6300   311.01598     -36703.379     -2024.0155      2.8154928      3060.4615    
      6400   311.65052     -36714.814     -707.12619      2.8148666      3061.1423    
      6500   292.95658     -36709.142      869.36545      2.8141346      3061.9386    
      6600   287.85619     -36713.905     -4612.5415      2.8029589      3074.1469    
      6700   258.35302     -36711.411      6748.1221      2.8122822      3063.9554    
      6800   257.5222      -36707.352     -523.04882      2.8055344      3071.3248    
      6900   302.07283     -36714.392     -1302.8343      2.8123293      3063.9041    
      7000   292.80965     -36696.265     -1188.3465      2.8187339      3056.9425    
      7100   305.45096     -36704.192      1907.1802      2.8250746      3050.0814    
      7200   333.87943     -36721.584      1734.8301      2.8044019      3072.5651    
      7300   292.834       -36717.3       -1458.6339      2.7968206      3080.8938    
      7400   285.03215     -36719.674      1197.5748      2.8058178      3071.0146    
      7500   277.28841     -36701.58       950.93638      2.8130585      3063.11      
      7600   339.5412      -36726.092      2809.3708      2.8125157      3063.7011    
      7700   308.8694      -36701.576     -4443.1794      2.7928768      3085.2444    
      7800   304.80981     -36707.183      39.795164      2.8060574      3070.7524    
      7900   310.35101     -36719.714      274.31778      2.815705       3060.2309    
      8000   274.41635     -36709.934      5696.9878      2.8185674      3057.123     
      8100   284.94766     -36723.639      176.36856      2.8134978      3062.6317    
      8200   293.65005     -36716.102     -3873.2993      2.7989437      3078.5568    
      8300   318.83715     -36715.537      6582.5544      2.8188459      3056.821     
      8400   295.64791     -36688.099     -5983.6657      2.8040106      3072.9939    
      8500   322.99082     -36715.395      2148.1435      2.8123086      3063.9266    
      8600   275.14418     -36711.04      -2546.8488      2.7788033      3100.8698    
      8700   281.60376     -36721.108      1272.6357      2.7993913      3078.0646    
      8800   285.84047     -36706.428     -2764.4197      2.82516        3049.9892    
      8900   304.40538     -36709.265     -3027.3555      2.8328881      3041.6688    
      9000   312.78493     -36715.224      4754.1941      2.8358646      3038.4763    
      9100   295.19577     -36705.654     -3830.8563      2.775988       3104.0146    
      9200   289.69235     -36702.871      263.42657      2.8013303      3075.934     
      9300   296.11495     -36704.606     -5617.9266      2.7800916      3099.4329    
      9400   305.89211     -36706.98       10171.792      2.8202382      3055.3119    
      9500   330.30802     -36714.674     -6725.3286      2.8062063      3070.5894    
      9600   277.79125     -36710.374      5878.2325      2.8486047      3024.8871    
      9700   297.57694     -36733.897     -2392.217       2.8089019      3067.6427    
      9800   281.5626      -36709.613      4119.3346      2.8046147      3072.332     
      9900   310.81274     -36705.648     -8087.2299      2.7804192      3099.0677    
     10000   318.38442     -36713.163     -552.4131       2.8079483      3068.6845    
     10100   298.82975     -36707.232      3152.215       2.8264785      3048.5664    
     10200   295.84295     -36720.866     -10288.257      2.7965858      3081.1525    
     10300   289.50422     -36741.978      448.6545       2.8256961      3049.4105    
     10400   288.1234      -36730.92      -2764.7334      2.794469       3083.4864    
     10500   298.00031     -36725.401      5682.1786      2.825873       3049.2196    
     10600   290.51329     -36701.504     -9533.5756      2.7878792      3090.775     
     10700   313.10156     -36708.708      6204.052       2.8159548      3059.9594    
     10800   334.73445     -36714.155      3099.9532      2.7881866      3090.4342    
     10900   307.02915     -36698.349     -3177.4861      2.7789739      3100.6794    
     11000   275.75718     -36702.329     -3766.938       2.8063375      3070.4459    
     11100   295.74242     -36723.433     -4184.7914      2.8111465      3065.1933    
     11200   300.21018     -36719.963      9463.6997      2.8377017      3036.5093    
     11300   296.03165     -36685.893     -5542.7153      2.8087893      3067.7657    
     11400   324.95359     -36692.929      3217.6018      2.8255901      3049.5248    
     11500   301.45424     -36688.54       880.08023      2.7992527      3078.217     
     11600   318.80574     -36709.298      534.09982      2.7772224      3102.6349    
     11700   297.5007      -36706.319     -4974.6581      2.7752052      3104.8902    
     11800   303.04592     -36723.394     -4371.232       2.8042633      3072.717     
     11900   290.50114     -36724.092      9723.4141      2.8435819      3030.23      
     12000   329.94245     -36727.278     -4450.1282      2.8220107      3053.3928    
     12100   298.61506     -36686.906      1773.696       2.80927        3067.2407    
     12200   292.24102     -36693.493     -353.06388      2.7856492      3093.2493    
     12300   280.38706     -36704.256      10887.377      2.8009833      3076.3152    
     12400   297.67287     -36715.742     -6904.7934      2.7788125      3100.8595    
     12500   313.76532     -36720.028     -594.86205      2.8085759      3067.9988    
     12600   297.66324     -36707.853      5379.7         2.8356767      3038.6777    
     12700   293.48966     -36704.785      4005.9568      2.8382357      3035.9379    
     12800   287.40947     -36709.897     -2812.658       2.8058107      3071.0223    
     12900   302.03946     -36726.41      -2094.6478      2.7939246      3084.0872    
     13000   300.04614     -36712.741      2252.8251      2.7946464      3083.2907    
     13100   334.97452     -36713.006      2171.0912      2.8011078      3076.1784    
     13200   307.75237     -36698.774      2868.0123      2.8136617      3062.4532    
     13300   295.93263     -36707.174     -3836.5324      2.80472        3072.2166    
     13400   299.57782     -36722.54       6721.9807      2.8284811      3046.408     
     13500   265.99748     -36696.505     -1363.8592      2.8048761      3072.0457    
     13600   310.01751     -36719.339     -547.15509      2.806427       3070.348     
     13700   306.81328     -36703.063     -3501.7735      2.7936368      3084.405     
     13800   306.12262     -36702.065      753.43047      2.796204       3081.5732    
     13900   303.98482     -36715.712      3214.4137      2.8046207      3072.3254    
     14000   290.4         -36724.511     -6037.2585      2.8021523      3075.0318    
     14100   281.07044     -36713.613     -2659.1044      2.8186203      3057.0656    
     14200   306.72148     -36710.781     -2535.2065      2.8232715      3052.0293    
     14300   309.44003     -36711.582      6484.2632      2.8325642      3042.0166    
     14400   283.84064     -36696.477     -6627.5305      2.7934279      3084.6357    
     14500   295.27431     -36710.149      1771.761       2.8016402      3075.5939    
     14600   296.24245     -36706.415     -4926.009       2.7801993      3099.3128    
     14700   337.45768     -36711.892      1650.6311      2.8003977      3076.9584    
     14800   311.83326     -36689.785      975.02046      2.8207047      3054.8066    
     14900   319.77981     -36723.055     -3872.9836      2.8040759      3072.9223    
     15000   278.09995     -36707.439      6568.7568      2.8188153      3056.8542    
     15100   301.66546     -36721.449     -34.699595      2.8045486      3072.4043    
     15200   298.13631     -36702.198      7148.6355      2.8199745      3055.5977    
     15300   338.56416     -36708.448     -10944.002      2.788961       3089.5761    
     15400   332.01706     -36708.248      1854.5386      2.8098058      3066.6559    
     15500   284.22412     -36710.642      1422.1829      2.8167037      3059.1458    
     15600   298.34711     -36726.017     -1747.3847      2.813521       3062.6064    
     15700   308.16386     -36724.375      4533.7625      2.8230787      3052.2377    
     15800   306.66549     -36703.643     -813.76886      2.8005345      3076.8081    
     15900   310.9414      -36699.185      2657.1921      2.8117773      3064.5056    
     16000   294.92242     -36695.186     -2024.6629      2.8044306      3072.5336    
     16100   280.92801     -36719.508     -716.64385      2.8167741      3059.0693    
     16200   270.26546     -36709.254     -1735.4223      2.8069773      3069.746     
     16300   302.41372     -36714.484      4330.8902      2.8183212      3057.3901    
     16400   301.08291     -36699.539     -1509.8562      2.809846       3066.612     
     16500   296.59782     -36695.495      5615.5921      2.8171208      3058.6929    
     16600   274.3164      -36696.186     -191.96202      2.811235       3065.0967    
     16700   283.96001     -36726.856     -2122.0551      2.8109431      3065.415     
     16800   284.29826     -36726.907      5616.6431      2.8314405      3043.2239    
     16900   298.30366     -36710.496     -2015.6944      2.8101597      3066.2696    
     17000   329.03576     -36719.757     -2355.9351      2.8045652      3072.3862    
     17100   278.16279     -36687.916     -4919.4428      2.7918946      3086.3297    
     17200   307.33823     -36706.731      2942.2646      2.802667       3074.4671    
     17300   302.48715     -36708.801     -1791.8621      2.7973932      3080.2632    
     17400   282.98966     -36719.403      3122.4079      2.8232105      3052.0952    
     17500   285.68693     -36725.52      -532.9591       2.8203432      3055.1982    
     17600   279.53656     -36696.958      3489.8957      2.8240143      3051.2265    
     17700   314.28195     -36708.247      3650.4771      2.8100693      3066.3682    
     17800   315.94723     -36713.884     -5961.5179      2.7868657      3091.899     
     17900   298.71591     -36715.143      526.22797      2.8029615      3074.144     
     18000   280.71503     -36714.625     -1997.7929      2.8150681      3060.9233    
     18100   290.88809     -36732.166      8340.977       2.8402395      3033.796     
     18200   278.64856     -36719.402     -4289.8704      2.8061594      3070.6407    
     18300   304.98748     -36711.867      339.97129      2.8018817      3075.3288    
     18400   316.61747     -36710.572     -118.45103      2.7994474      3078.003     
     18500   294.33153     -36699.841     -5207.8105      2.7915202      3086.7437    
     18600   273.0691      -36703.908      3668.0388      2.797688       3079.9386    
     18700   276.07591     -36726.849     -1043.0036      2.7984886      3079.0575    
     18800   259.85229     -36723.499      639.93176      2.8372298      3037.0143    
     18900   301.38056     -36720.754     -4605.7265      2.8356811      3038.673     
     19000   296.72654     -36703.762      4744.6739      2.8229778      3052.3468    
     19100   305.51336     -36703.927      2065.2425      2.7888711      3089.6758    
     19200   295.93994     -36698.497      73.716187      2.7856291      3093.2716    
     19300   309.08605     -36714.552     -4817.4495      2.7948091      3083.1112    
     19400   284.6373      -36715.515      2720.5725      2.8231384      3052.1732    
     19500   311.31144     -36742.643      5273.2227      2.8374329      3036.7969    
     19600   291.97003     -36711.6        2105.2744      2.8193503      3056.2741    
     19700   304.77718     -36696.685     -4280.7229      2.792446       3085.7203    
     19800   290.46983     -36693.783     -3059.2339      2.7791591      3100.4729    
     19900   304.37731     -36719.243      1883.4775      2.7878225      3090.8379    
     20000   297.92415     -36722.785      2450.3832      2.8061907      3070.6065    
     20100   286.74611     -36695.42      -4173.9062      2.8242323      3050.991     
     20200   337.90276     -36704.581      4673.5992      2.8355069      3038.8596    
     20300   312.28048     -36697.757      10387.976      2.8244637      3050.7411    
     20400   302.0446      -36708.993     -1241.0865      2.7908219      3087.516     
     20500   293.45767     -36710.346     -4362.9264      2.7781463      3101.6031    
     20600   301.61576     -36715.114      3562.7706      2.8071139      3069.5967    
     20700   320.79438     -36715         -3422.3345      2.8222647      3053.1181    
     20800   330.47099     -36693.583      1883.9442      2.8254883      3049.6348    
     20900   299.46972     -36681.026      3886.1818      2.8144322      3061.6149    
     21000   305.96104     -36716.371      80.707787      2.7936601      3084.3793    
     21100   298.0473      -36710.749     -6486.9041      2.7835674      3095.5627    
     21200   295.08592     -36702.853     -1709.0692      2.8061059      3070.6993    
     21300   318.57722     -36713.165      8126.1657      2.8310051      3043.6919    
     21400   277.96269     -36698.386      1959.6848      2.814096       3061.9806    
     21500   270.7674      -36708.507      412.07449      2.8202138      3055.3383    
     21600   272.97626     -36710.8       -4880.1752      2.8012479      3076.0245    
     21700   307.90008     -36711.622      12808.38       2.8175925      3058.1808    
     21800   302.49042     -36691.428     -7881.3473      2.7887411      3089.8198    
     21900   306.79555     -36701.688      2239.0001      2.8171635      3058.6466    
     22000   285.9787      -36707.459     -4039.2213      2.8074487      3069.2306    
     22100   290.83482     -36719.77       7767.613       2.8266498      3048.3816    
     22200   305.53185     -36718.096     -3487.6005      2.7934532      3084.6077    
     22300   307.75871     -36717.965     -436.33508      2.8004073      3076.9479    
     22400   306.33907     -36718.075      3663.951       2.8146175      3061.4132    
     22500   310.30675     -36712.627      6242.3107      2.8223581      3053.0171    
     22600   327.25286     -36686.796     -3743.0594      2.8072239      3069.4763    
     22700   318.18038     -36684.167     -4357.7253      2.7913593      3086.9216    
     22800   320.89278     -36713.624      4534.7508      2.8197167      3055.877     
     22900   307.07764     -36712.114     -4711.096       2.8090174      3067.5165    
     23000   287.79488     -36700.728     -2719.8642      2.8125418      3063.6726    
     23100   307.58234     -36719.956     -6137.4837      2.8069854      3069.7371    
     23200   292.95048     -36719.542      8430.3294      2.8316908      3042.9549    
     23300   288.39815     -36713.122     -6593.8869      2.7989244      3078.5781    
     23400   291.46686     -36700.476      1709.7205      2.8186134      3057.0731    
     23500   297.99198     -36688.211     -2450.2788      2.8078693      3068.7708    
     23600   311.55736     -36695.821      5493.7436      2.8152715      3060.7021    
     23700   286.62974     -36710.671     -7675.3026      2.7883623      3090.2395    
     23800   275.81072     -36710.165      1834.7888      2.8114295      3064.8847    
     23900   307.8824      -36722.788      3963.7635      2.8183137      3057.3982    
     24000   300.02331     -36699.887      3189.8718      2.8342005      3040.2603    
     24100   315.55994     -36691.619     -6610.6615      2.7999487      3077.4518    
     24200   305.7959      -36692.977      2507.1637      2.790642       3087.7151    
     24300   278.40828     -36705.365      6370.4058      2.8073241      3069.3667    
     24400   302.91553     -36722.245     -5572.483       2.8005762      3076.7623    
     24500   290.69352     -36710.708     -3407.9355      2.8232224      3052.0824    
     24600   301.54165     -36702.941     -2826.4938      2.8101015      3066.3331    
     24700   340.29332     -36715.49       8728.9224      2.8401419      3033.9003    
     24800   301.74315     -36690.124     -3880.2386      2.8025541      3074.591     
     24900   294.31576     -36713.067     -213.77989      2.8094617      3067.0315    
     25000   277.65989     -36715.959     -3184.635       2.7937432      3084.2875    
     25100   293.58009     -36718.172      4790.2749      2.8278345      3047.1045    
     25200   302.7391      -36704.349     -5439.2904      2.8194975      3056.1146    
     25300   304.76781     -36698.873      5357.132       2.8421331      3031.7748    
     25400   302.57262     -36709.978      1441.2423      2.8034065      3073.656     
     25500   282.67973     -36729.337      918.75737      2.7947369      3083.1909    
     25600   281.0182      -36717.179     -7242.4542      2.7908575      3087.4767    
     25700   304.13431     -36721.13       7677.4023      2.8304502      3044.2886    
     25800   294.74696     -36707.641      2090.2473      2.8291227      3045.7171    
     25900   315.03413     -36712.25       1292.8873      2.8216138      3053.8223    
     26000   298.12215     -36703.248     -7374.8797      2.8003235      3077.0399    
     26100   287.06533     -36710.803      2115.7107      2.8026758      3074.4574    
     26200   280.29848     -36717.379      1758.1697      2.8072163      3069.4846    
     26300   300.24373     -36719.805     -3947.8743      2.7971895      3080.4875    
     26400   295.8444      -36694.89      -1896.8462      2.8132676      3062.8822    
     26500   321.59179     -36701.233     -2045.4741      2.8100349      3066.4059    
     26600   308.90043     -36711.796      9157.8035      2.8188986      3056.7638    
     26700   284.49292     -36720.968     -7671.6073      2.7749406      3105.1862    
     26800   285.82281     -36712.906     -3647.0208      2.7976896      3079.9369    
     26900   303.51042     -36703.557      3922.4966      2.8216945      3053.735     
     27000   322.86066     -36713.612      6701.52        2.8442861      3029.4799    
     27100   309.3846      -36713.835     -1356.2269      2.8233892      3051.9021    
     27200   273.92953     -36712.447     -7400.736       2.7893143      3089.1848    
     27300   289.41084     -36724.967      5476.5994      2.7988882      3078.6179    
     27400   278.21104     -36699.919     -3565.7447      2.7819724      3097.3375    
     27500   301.89056     -36702.58       2240.7198      2.8183419      3057.3676    
     27600   304.43428     -36702.839     -4697.095       2.8156853      3060.2523    
     27700   302.58382     -36710.322      6368.2585      2.8358826      3038.457     
     27800   274.32474     -36722.103      1786.0163      2.8237869      3051.4723    
     27900   297.55952     -36734.414     -7514.3974      2.8051272      3071.7707    
     28000   308.85402     -36724.316      3923.3079      2.8157757      3060.1541    
     28100   302.15534     -36706.638     -808.82495      2.796485       3081.2636    
     28200   300.44573     -36706.593      10200.879      2.8173464      3058.448     
     28300   282.85337     -36698.742     -9381.2846      2.7913301      3086.9539    
     28400   302.58479     -36735.154      4157.3766      2.8300535      3044.7153    
     28500   271.65091     -36727.936      2065.3232      2.8162609      3059.6268    
     28600   280.2108      -36708.259     -699.88614      2.8286668      3046.208     
     28700   314.77736     -36712.261     -4245.4828      2.8229393      3052.3884    
     28800   301.35888     -36705.552     -1309.3888      2.8107708      3065.603     
     28900   293.91608     -36707.417      3543.2618      2.8029956      3074.1066    
     29000   267.31847     -36690.66      -10389.907      2.7826394      3096.595     
     29100   312.83736     -36709.087      661.21385      2.8113896      3064.9282    
     29200   306.00211     -36693.125     -1968.2885      2.8222032      3053.1846    
     29300   317.97035     -36712.184      4278.7156      2.8412708      3032.6948    
     29400   277.62256     -36708.713     -6936.4453      2.7977243      3079.8987    
     29500   286.22616     -36719.394     -788.21111      2.8001905      3077.1862    
     29600   289.5134      -36702.303     -572.02783      2.7860585      3092.7948    
     29700   312.38527     -36707.343      5515.6411      2.8070847      3069.6285    
     29800   288.01568     -36694.024     -2089.1941      2.8179232      3057.8219    
     29900   301.89228     -36711.431     -3921.3095      2.808125       3068.4914    
     30000   278.58551     -36715.033      4950.3005      2.8174256      3058.3619    
     30100   284.08222     -36740.474     -4525.2977      2.8087834      3067.7721    
     30200   293.68816     -36734.531     -563.98435      2.8218777      3053.5368    
     30300   274.6401      -36701.402      1828.1824      2.8151464      3060.8381    
     30400   287.43882     -36702.781      2438.0155      2.8195462      3056.0618    
     30500   292.34301     -36690.773     -1529.184       2.8052568      3071.6287    
     30600   304.21293     -36696.994      1332.0428      2.7929787      3085.1318    
     30700   293.50867     -36711.385      562.59169      2.7909484      3087.3761    
     30800   280.3953      -36714.681     -839.87591      2.8016668      3075.5647    
     30900   305.43716     -36721.746     -1299.3573      2.8095586      3066.9256    
     31000   340.76498     -36715.329      2213.9716      2.8302186      3044.5377    
     31100   335.6783      -36686.098      3367.7118      2.8219397      3053.4697    
     31200   327.13343     -36697         -1715.9083      2.7841622      3094.9014    
     31300   297.2921      -36686.914      6911.5539      2.7853454      3093.5867    
     31400   307.0223      -36708.839     -6191.9849      2.7783567      3101.3682    
     31500   305.9453      -36727.781      4565.0967      2.827655       3047.298     
     31600   269.76882     -36705.142     -5118.1134      2.839153       3034.957     
     31700   285.14406     -36712.463      3266.58        2.8296268      3045.1745    
     31800   293.6232      -36688.495     -1613.7171      2.7906561      3087.6995    
     31900   300.80117     -36688.05       1590.389       2.7805649      3098.9053    
     32000   329.57286     -36716.819     -1390.7937      2.7751195      3104.986     
     32100   281.12327     -36697.674      1362.0178      2.8146278      3061.4021    
     32200   290.61472     -36710.749     -2010.6257      2.8345245      3039.9128    
     32300   303.52625     -36717.371     -546.61025      2.8269211      3048.0891    
     32400   291.66402     -36714.014      4535.0024      2.8205909      3054.9299    
     32500   301.89784     -36718.067     -3548.3057      2.7814188      3097.954     
     32600   294.54793     -36691.994      9866.4004      2.7851563      3093.7967    
     32700   308.08813     -36684.043     -4984.5648      2.7685698      3112.3316    
     32800   314.57202     -36702.656      7387.2422      2.8245773      3050.6184    
     32900   285.48843     -36697.511     -7699.4295      2.8239382      3051.3088    
     33000   297.93492     -36713.331      4758.3534      2.851403       3021.9185    
     33100   299.47835     -36709.535     -612.77843      2.7990884      3078.3978    
     33200   294.59126     -36703.566     -1069.2127      2.7877411      3090.9281    
     33300   319.10665     -36702.776     -5632.3287      2.7725125      3107.9057    
     33400   318.88441     -36698.623      535.48885      2.803023       3074.0766    
     33500   309.4681      -36718.896      3610.2495      2.8330195      3041.5278    
     33600   291.12179     -36719.059     -4357.6888      2.8316366      3043.0131    
     33700   310.33992     -36730.901     -541.7404       2.8298613      3044.9222    
     33800   289.58504     -36712.599     -7625.102       2.7931922      3084.8959    
     33900   301.91013     -36699.972      7187.4395      2.8053815      3071.4922    
     34000   318.60308     -36689.805     -1623.4783      2.775849       3104.1701    
     34100   320.43544     -36701.064      4183.0151      2.8090392      3067.4927    
     34200   278.43035     -36696.002      3647.8249      2.8049902      3071.9206    
     34300   298.10551     -36720.368      3298.1692      2.8169829      3058.8426    
     34400   287.97619     -36713.939     -4165.389       2.8020982      3075.0912    
     34500   299.36254     -36702.356     -1960.6751      2.8150871      3060.9026    
     34600   329.99302     -36705.713     -151.58026      2.8029117      3074.1986    
     34700   299.29325     -36691.256      2627.412       2.8067498      3069.9948    
     34800   291.09055     -36702.45       143.00069      2.802195       3074.9849    
     34900   284.15294     -36708.594     -3507.8689      2.7871304      3091.6054    
     35000   286.0699      -36713.573      3887.1549      2.8045408      3072.4129    
     35100   307.96454     -36699.103      1533.93        2.8093828      3067.1176    
     35200   307.25846     -36685.851      4197.9216      2.8212128      3054.2564    
     35300   314.38128     -36707.651      1989.3222      2.8117563      3064.5286    
     35400   294.26641     -36710.38      -2384.0013      2.7893497      3089.1456    
     35500   297.86287     -36720.105      789.57594      2.8004034      3076.9522    
     35600   273.09784     -36700.219      1210.8523      2.8162645      3059.6228    
     35700   300.86681     -36713.644      2700.1992      2.8398285      3034.2352    
     35800   303.22094     -36707.887     -4668.4572      2.8036426      3073.3973    
     35900   302.78968     -36707.002      1756.3523      2.7966082      3081.1278    
     36000   297.4014      -36709.978     -4035.9093      2.7780659      3101.693     
     36100   300.39939     -36710.448      2513.1368      2.7989577      3078.5415    
     36200   308.78948     -36715.874     -4767.6601      2.7898637      3088.5765    
     36300   301.03539     -36694.479     -185.07469      2.7979753      3079.6223    
     36400   311.94705     -36691.175      637.48074      2.7960857      3081.7036    
     36500   297.03435     -36708.731     -4019.9098      2.8211518      3054.3225    
     36600   288.88718     -36713.794      2594.7979      2.8322808      3042.321     
     36700   278.63606     -36704.785      9690.2451      2.8200748      3055.4889    
     36800   312.43452     -36717.167     -3691.487       2.7797696      3099.7919    
     36900   302.49977     -36693.439     -1269.3093      2.7758034      3104.2211    
     37000   327.58707     -36695.239      1574.6632      2.7941056      3083.8875    
     37100   299.06777     -36695.123      4499.2509      2.8158842      3060.0361    
     37200   292.9782      -36708.27      -4765.6743      2.8002963      3077.0699    
     37300   290.51924     -36713.378      997.69105      2.8060893      3070.7174    
     37400   281.23758     -36709.476      4818.2302      2.8234119      3051.8775    
     37500   316.48441     -36716.224      3561.9709      2.8399585      3034.0962    
     37600   329.58011     -36699.816     -5949.2066      2.7921399      3086.0586    
     37700   314.02175     -36696.059      3938.8984      2.7932334      3084.8505    
     37800   319.3222      -36716.861     -2980.7696      2.7829772      3096.2191    
     37900   290.68729     -36707.43       4379.0363      2.8312259      3043.4545    
     38000   285.61979     -36702.018     -427.40799      2.8175535      3058.2232    
     38100   309.92312     -36713.578      2664.4931      2.8084443      3068.1425    
     38200   340.53635     -36705.589      2547.8503      2.8025752      3074.5678    
     38300   302.72398     -36680.476     -1156.8887      2.8017609      3075.4613    
     38400   308.20989     -36707.056     -2732.5957      2.8130478      3063.1215    
     38500   299.36581     -36711.556      946.65971      2.8082952      3068.3054    
     38600   300.05822     -36710.581      4423.4317      2.8117852      3064.497     
     38700   312.48115     -36719.199     -8512.4279      2.7954265      3082.4304    
     38800   271.78118     -36705.482      4933.5212      2.8282806      3046.6239    
     38900   274.51484     -36717.333      1811.6653      2.8218163      3053.6033    
     39000   280.4432      -36705.923      624.62907      2.806393       3070.3851    
     39100   310.48362     -36704.121     -4549.7214      2.7806048      3098.8609    
     39200   286.65853     -36693.544      3468.1571      2.8050985      3071.802     
     39300   306.67585     -36716.604      2332.9446      2.8194096      3056.2098    
     39400   286.89836     -36719.339      2226.5018      2.8187682      3056.9053    
     39500   287.97706     -36737.565      1732.717       2.8144385      3061.608     
     39600   294.9914      -36736.75       2953.6982      2.810475       3065.9256    
     39700   297.80178     -36706.163      2581.3274      2.8254313      3049.6963    
     39800   299.74288     -36698.185      1817.2571      2.8156066      3060.3379    
     39900   307.71892     -36703.254      2035.1516      2.806519       3070.2473    
     40000   275.85202     -36687.338      1206.226       2.7935183      3084.5358    
     40100   295.67953     -36724.732      425.05334      2.816719       3059.1292    
     40200   280.11962     -36717.862     -2180.6307      2.8189915      3056.6631    
     40300   301.62024     -36717.66      -973.74415      2.807685       3068.9723    
     40400   298.9029      -36684.922     -3290.8389      2.8092909      3067.2179    
     40500   303.52513     -36693.874     -3012.8376      2.8176282      3058.142     
     40600   284.95682     -36697.75      -2365.8368      2.8316321      3043.018     
     40700   286.99829     -36718.208      6956.7076      2.8279892      3046.9378    
     40800   298.42908     -36728.072     -628.22502      2.7871829      3091.5472    
     40900   289.06015     -36705.879     -803.06518      2.7950716      3082.8217    
     41000   303.59125     -36709.673     -4690.1019      2.808622       3067.9484    
     41100   304.16459     -36710.435      5619.6403      2.830492       3044.2436    
     41200   315.76254     -36716.238      1158.5543      2.8135826      3062.5393    
     41300   281.96268     -36702.795     -5725.0509      2.8003186      3077.0454    
     41400   281.27597     -36720.782     -1716.4558      2.8130158      3063.1564    
     41500   293.34851     -36717.621      728.49963      2.8336673      3040.8324    
     41600   304.29166     -36700.99      -810.49535      2.8028796      3074.2338    
     41700   297.597       -36699.603     -582.76489      2.7857751      3093.1095    
     41800   324.00088     -36725.978     -583.23711      2.7872665      3091.4544    
     41900   282.68316     -36713.936      178.46795      2.8166375      3059.2177    
     42000   269.64913     -36722.319     -548.71582      2.8312835      3043.3926    
     42100   283.09833     -36725.887     -2853.9923      2.8107363      3065.6407    
     42200   304.30316     -36713.582      1124.0007      2.807015       3069.7048    
     42300   313.03715     -36704.3        932.69699      2.7873417      3091.371     
     42400   319.66426     -36703.093     -3815.7415      2.7900934      3088.3222    
     42500   317.22205     -36719.883      873.02844      2.8153325      3060.6358    
     42600   271.61727     -36713.017      2595.317       2.8327211      3041.8481    
     42700   295.46381     -36721.361      4099.6201      2.8247296      3050.4538    
     42800   288.52913     -36704.33      -5927.8212      2.8064857      3070.2837    
     42900   330.15383     -36717.651      9203.5991      2.8181247      3057.6033    
     43000   303.71161     -36687.313     -1510.1647      2.7943258      3083.6445    
     43100   310.77062     -36696.696     -1768.2238      2.7953177      3082.5503    
     43200   306.67103     -36721.056     -5053.6788      2.8007975      3076.5192    
     43300   304.61647     -36732.418      6783.8006      2.8367309      3037.5483    
     43400   297.98761     -36715.266     -3471.5816      2.8243994      3050.8105    
     43500   291.22334     -36690.48      -7869.5562      2.8015559      3075.6863    
     43600   314.9386      -36703.582      10619.255      2.8072707      3069.4252    
     43700   276.44166     -36692.677     -1411.2539      2.7858269      3093.052     
     43800   273.5987      -36717.908      2249.5824      2.8016781      3075.5523    
     43900   278.86586     -36720.791     -770.05736      2.8110359      3065.3139    
     44000   311.91226     -36724.188      5526.3846      2.8301009      3044.6644    
     44100   302.12207     -36706.836     -7052.9208      2.8064038      3070.3733    
     44200   301.61248     -36707.415     -2249.8784      2.81851        3057.1853    
     44300   303.39807     -36710.315      3851.396       2.798788       3078.7282    
     44400   284.03489     -36713.494      2294.2483      2.7880172      3090.622     
     44500   279.06051     -36715.979     -3549.6947      2.7923214      3085.858     
     44600   294.07607     -36713.986      2321.0452      2.828657       3046.2185    
     44700   320.31833     -36708.516      1839.4651      2.8540015      3019.1671    
     44800   306.32925     -36700.441     -142.13212      2.8201807      3055.3742    
     44900   297.63468     -36707.937      898.00933      2.7840806      3094.9921    
     45000   273.84961     -36692.631     -1091.6991      2.7555961      3126.9848    
     45100   312.78666     -36715.016     -1671.7502      2.7878045      3090.8578    
     45200   329.00615     -36722.046      322.94325      2.8254055      3049.7242    
     45300   302.1865      -36708.399      8725.4241      2.8531079      3020.1127    
     45400   306.29851     -36717.354     -1029.0774      2.8285814      3046.2999    
     45500   306.56365     -36719.404      10.408684      2.7981279      3079.4544    
     45600   288.41965     -36698.235      468.90726      2.7812558      3098.1355    
     45700   312.40101     -36689.419      240.66225      2.7848494      3094.1376    
     45800   341.87067     -36708.37      -2205.045       2.7987064      3078.8179    
     45900   298.81329     -36702.449     -792.75958      2.8213461      3054.1122    
     46000   286.27716     -36705.986     -1543.3498      2.8414193      3032.5364    
     46100   302.96415     -36719.623     -700.1339       2.8267142      3048.3122    
     46200   300.75369     -36719.834      1311.4816      2.8086111      3067.9603    
     46300   297.60322     -36701.863     -7173.1972      2.7744664      3105.7169    
     46400   309.66799     -36689.509      647.28644      2.7960329      3081.7618    
     46500   327.44581     -36706.724     -5440.3394      2.8062689      3070.5209    
     46600   320.19643     -36723.731      6790.1674      2.8360716      3038.2546    
     46700   306.02673     -36720.473      1234.8815      2.8012783      3075.9912    
     46800   293.08372     -36708.072     -2887.5953      2.7895863      3088.8836    
     46900   276.52813     -36691.253     -2995.8305      2.8047         3072.2385    
     47000   303.26883     -36675.735     -2012.271       2.8064223      3070.3531    
     47100   329.57775     -36700.443      5740.0518      2.8188714      3056.7934    
     47200   290.27564     -36685.432      1646.8385      2.8017158      3075.5109    
     47300   312.17161     -36712.909     -4081.1753      2.8151539      3060.8299    
     47400   291.19304     -36708.995      2227.6244      2.8204102      3055.1256    
     47500   297.87567     -36720.22       1451.2424      2.8054731      3071.3919    
     47600   268.2642      -36699.76       2964.0058      2.7907947      3087.5461    
     47700   311.54406     -36711.174     -1824.7897      2.7912487      3087.044     
     47800   310.05546     -36696.292      1527.5616      2.8140347      3062.0473    
     47900   311.8144      -36708.965      3356.6804      2.8373893      3036.8436    
     48000   281.36546     -36711.649     -934.84242      2.8057039      3071.1393    
     48100   285.92422     -36716.172     -1197.7857      2.7911401      3087.164     
     48200   283.89665     -36701.08       761.39309      2.7850426      3093.9231    
     48300   304.94532     -36703.628     -4451.0879      2.7901049      3088.3095    
     48400   320.20591     -36715.742      3627.1476      2.8409371      3033.0511    
     48500   308.03943     -36713.546     -1216.0315      2.8275389      3047.4231    
     48600   288.45838     -36703.758     -3514.2008      2.8133745      3062.7658    
     48700   314.09586     -36723.793      189.14108      2.795866       3081.9458    
     48800   277.78109     -36698.516      168.07854      2.8062644      3070.5259    
     48900   322.55187     -36706.754     -1466.0157      2.7999331      3077.469     
     49000   328.14996     -36694.659     -2784.3698      2.8030024      3074.0992    
     49100   319.34549     -36702.338     -2049.5826      2.8205813      3054.9402    
     49200   289.72029     -36700.9       -2195.8289      2.8179104      3057.8358    
     49300   289.73878     -36706.998      2726.7211      2.8295716      3045.2339    
     49400   300.25643     -36710.826      1931.3738      2.7989899      3078.506     
     49500   312.90073     -36710.37      -2796.3464      2.7818649      3097.4571    
     49600   300.9647      -36690.897     -4677.961       2.79444        3083.5185    
     49700   318.87638     -36699.437      3194.6044      2.8416105      3032.3323    
     49800   276.39924     -36694.301      2206.0525      2.839654       3034.4215    
     49900   302.41708     -36727.836     -5781.451       2.7945343      3083.4144    
     50000   289.66648     -36716.037     -3814.4069      2.7720231      3108.4543    
     50100   310.55153     -36714.242      522.71708      2.7953606      3082.503     
     50200   297.09542     -36687.135     -118.16424      2.8108398      3065.5278    
     50300   300.32124     -36694.936     -2776.3531      2.8204398      3055.0936    
     50400   315.01707     -36716.354      881.55483      2.818942       3056.7168    
     50500   296.67566     -36713.948      3455.85        2.8040282      3072.9745    
     50600   287.15713     -36710.052     -1403.9852      2.7935094      3084.5457    
     50700   305.27366     -36721.06       3912.1796      2.8147316      3061.2891    
     50800   296.92532     -36694.923      3562.9729      2.8129565      3063.2209    
     50900   315.57441     -36699.737     -4600.8209      2.781273       3098.1163    
     51000   293.4473      -36706.705     -1650.1038      2.805131       3071.7664    
     51100   283.67205     -36707.074     -5481.7451      2.8014763      3075.7738    
     51200   291.00042     -36707.95       6084.7219      2.8199194      3055.6573    
     51300   306.32541     -36714.016      605.98485      2.802771       3074.3529    
     51400   309.81783     -36714.427     -2617.3361      2.8003994      3076.9566    
     51500   322.83659     -36723.196      332.15007      2.8084782      3068.1055    
     51600   291.21741     -36704.314     -1057.8025      2.8180964      3057.634     
     51700   321.93711     -36729.683      2820.0348      2.8221444      3053.2483    
     51800   290.39189     -36713.813     -2091.5593      2.7940671      3083.93      
     51900   295.70428     -36715.585      4307.7606      2.8131356      3063.026     
     52000   294.55509     -36693.618     -5357.775       2.7869077      3091.8525    
     52100   316.76087     -36704.761      2871.8973      2.8248547      3050.3187    
     52200   303.62152     -36700.041     -6490.3717      2.8020713      3075.1206    
     52300   301.03898     -36730.736      4480.304       2.8172075      3058.5988    
     52400   295.80839     -36728.502      1059.0292      2.7980428      3079.5481    
     52500   298.4212      -36714.217     -1031.0437      2.8046854      3072.2545    
     52600   324.20529     -36717.219      133.59237      2.8154819      3060.4734    
     52700   317.57858     -36712.603      1830.297       2.822019       3053.3839    
     52800   301.23468     -36704.456     -3415.1436      2.8049662      3071.947     
     52900   298.81226     -36717.358     -2863.3532      2.8103604      3066.0507    
     53000   293.38767     -36717.189      4246.9054      2.8144674      3061.5765    
     53100   300.43826     -36713.447      460.89657      2.7928926      3085.2269    
     53200   311.47522     -36720.353      1976.4256      2.8107634      3065.6111    
     53300   301.81073     -36710.001     -2673.5002      2.8010203      3076.2745    
     53400   288.98929     -36711.107      5848.3922      2.8367662      3037.5106    
     53500   311.75333     -36728.195     -3162.1637      2.8016337      3075.601     
     53600   300.65847     -36713.552      6775.1426      2.8105699      3065.8221    
     53700   307.9244      -36700.406     -6090.2261      2.7874292      3091.274     
     53800   320.31425     -36705.295     -1612.7922      2.7982179      3079.3553    
     53900   297.75349     -36707.964      128.97057      2.802157       3075.0266    
     54000   283.64668     -36716.01      -345.83733      2.8113066      3065.0188    
     54100   283.87186     -36717.244      1782.3198      2.8187455      3056.9299    
     54200   313.29085     -36723.811     -799.50105      2.8171879      3058.6201    
     54300   303.3936      -36690.713      6456.316       2.8268083      3048.2107    
     54400   328.27159     -36692.473     -4277.1601      2.7900274      3088.3953    
     54500   308.18492     -36694.843     -801.09301      2.7982733      3079.2945    
     54600   286.49156     -36702.863     -5173.0073      2.7877088      3090.964     
     54700   320.33961     -36729.25       3440.1483      2.8255412      3049.5777    
     54800   304.80712     -36716.976     -4534.4948      2.8233229      3051.9737    
     54900   305.6548      -36704.916     -493.35167      2.8341286      3040.3374    
     55000   315.36246     -36693.59       7717.677       2.8154785      3060.4771    
     55100   316.73438     -36699.024     -1029.293       2.7780575      3101.7023    
     55200   274.98235     -36692.349     -3919.006       2.774939       3105.188     
     55300   290.80617     -36706.534     -7916.7129      2.7864339      3092.3781    
     55400   304.86006     -36711.583      6970.2686      2.8452343      3028.4702    
     55500   293.47062     -36698.305     -4658.2859      2.8320902      3042.5258    
     55600   283.35992     -36714.381     -5390.1186      2.819794       3055.7932    
     55700   277.78601     -36729.766     -2361.3679      2.7948761      3083.0374    
     55800   285.18403     -36723.754      8654.004       2.8050904      3071.8109    
     55900   299.499       -36715.247     -1887.9421      2.7988054      3078.709     
     56000   287.45934     -36693.371     -9363.4087      2.7973733      3080.2852    
     56100   318.234       -36714.476      6172.474       2.8361162      3038.2067    
     56200   273.79844     -36694.39      -697.13053      2.8300973      3044.6682    
     56300   268.78229     -36716.311      1625.9945      2.8306047      3044.1224    
     56400   282.39073     -36720.355     -3297.0407      2.7890979      3089.4245    
     56500   287.11703     -36706.246      5107.0273      2.8003596      3077.0003    
     56600   319.93423     -36712.603     -4130.5768      2.7882047      3090.4142    
     56700   290.30698     -36698.914     -1669.95        2.8260471      3049.0318    
     56800   309.56352     -36725.601      2737.3717      2.8431842      3030.6539    
     56900   306.00516     -36719.681      4284.8237      2.8231345      3052.1774    
     57000   288.08604     -36705.881      1362.2669      2.8075576      3069.1116    
     57100   290.15078     -36701.207     -7676.0913      2.776754       3103.1583    
     57200   311.49952     -36713.223      6101.5174      2.8153859      3060.5777    
     57300   327.53638     -36711.929     -3563.3551      2.7976985      3079.9271    
     57400   315.34701     -36711.06      -137.07355      2.820311       3055.233     
     57500   315.47565     -36735.287     -5065.9703      2.8243037      3050.9139    
     57600   305.9924      -36732.016      5706.0975      2.8319003      3042.7298    
     57700   297.32808     -36713.009     -1893.3878      2.7972187      3080.4554    
     57800   316.19473     -36700.705     -6088.4521      2.7719173      3108.573     
     57900   294.02167     -36683.656      3723.0073      2.7893735      3089.1192    
     58000   317.06172     -36705.139      809.04556      2.8167908      3059.0512    
     58100   284.4372      -36696.351      4026.4116      2.841917       3032.0053    
     58200   313.1925      -36719.408     -5401.4561      2.8092526      3067.2598    
     58300   280.97587     -36716.478      7241.042       2.8113697      3064.9499    
     58400   266.13627     -36726.074     -4774.173       2.7910032      3087.3155    
     58500   276.6775      -36709.332     -1574.1416      2.8072532      3069.4443    
     58600   297.91651     -36707.76      -2118.5942      2.8114177      3064.8976    
     58700   289.15863     -36702.286      1035.7455      2.8272809      3047.7012    
     58800   294.48028     -36702.678     -1269.1449      2.8115015      3064.8063    
     58900   304.16349     -36711.877     -2658.6195      2.8045485      3072.4045    
     59000   277.10928     -36696.321     -1385.3809      2.8104132      3065.9931    
     59100   320.76449     -36724.028      2110.6689      2.805462       3071.4041    
     59200   310.7656      -36705.824     -3133.7677      2.7919718      3086.2444    
     59300   297.58644     -36703.226     -648.19509      2.8080491      3068.5743    
     59400   311.11753     -36720.669      4442.5549      2.8115125      3064.7942    
     59500   300.26961     -36730.369      1922.6176      2.8137664      3062.3392    
     59600   294.93108     -36733.158     -591.19588      2.8158813      3060.0392    
     59700   276.4005      -36704.526      1642.4792      2.8200822      3055.4809    
     59800   298.88858     -36696.381      2494.5129      2.8174869      3058.2954    
     59900   334.05312     -36718.522      184.12698      2.8178253      3057.9281    
     60000   303.34148     -36710.945     -4205.0592      2.8064147      3070.3614    
     60100   297.72444     -36719.295     -244.87154      2.7916032      3086.6519    
     60200   258.35743     -36720.652     -2089.1826      2.7972784      3080.3896    
     60300   287.17831     -36736.671     -3412.7062      2.813097       3063.068     
     60400   300.31818     -36724.037      1372.3508      2.8346412      3039.7876    
     60500   287.29        -36705.752     -1226.7307      2.8225669      3052.7912    
     60600   290.24392     -36704.562      3166.1351      2.8140111      3062.073     
     60700   307.60214     -36705.567     -5478.1394      2.779607       3099.9733    
     60800   320.72834     -36697.392      2178.6908      2.7881574      3090.4666    
     60900   326.14128     -36699.444     -978.22212      2.7869742      3091.7787    
     61000   306.45183     -36713.917      1284.846       2.8145337      3061.5044    
     61100   277.4265      -36705.378     -4150.3048      2.8090925      3067.4346    
     61200   309.66343     -36732.888      5169.2234      2.835868       3038.4726    
     61300   285.88005     -36710.451     -5142.1511      2.8046254      3072.3203    
     61400   310.39316     -36699.991      2892.9861      2.8060305      3070.7817    
     61500   305.33056     -36689.865     -3920.9685      2.7823075      3096.9644    
     61600   322.62871     -36715.068      2149.0131      2.8084401      3068.1471    
     61700   293.28761     -36713.377     -5884.1709      2.816936       3058.8935    
     61800   296.137       -36724.058      5529.9328      2.8315905      3043.0627    
     61900   292.25088     -36716.111      5387.5385      2.8261134      3048.9602    
     62000   307.16822     -36708.925     -5495.8063      2.7957268      3082.0992    
     62100   313.80458     -36699.106     -314.96776      2.7764831      3103.4612    
     62200   315.11141     -36704.179      1694.3863      2.7897747      3088.675     
     62300   317.21264     -36718.454      823.45514      2.8132691      3062.8806    
     62400   286.81255     -36717.301      1019.6287      2.8424288      3031.4594    
     62500   275.47632     -36708.031      4110.4274      2.8252346      3049.9086    
     62600   304.71644     -36711.867      1448.901       2.8055913      3071.2625    
     62700   302.47296     -36698.859     -4681.1272      2.7814363      3097.9344    
     62800   313.44162     -36695.095     -270.32861      2.7832286      3095.9395    
     62900   302.58145     -36706.555      4035.289       2.8031367      3073.9519    
     63000   289.51228     -36718.007     -3921.3679      2.8061571      3070.6433    
     63100   286.66522     -36714.825      5534.4158      2.8390124      3035.1074    
     63200   295.62442     -36713.017     -800.74379      2.8360833      3038.242     
     63300   293.12787     -36702.175      1819.91        2.8262468      3048.8163    
     63400   310.80407     -36705.461     -3110.254       2.7816821      3097.6607    
     63500   303.77631     -36673.038      7121.2884      2.7897116      3088.7448    
     63600   351.47226     -36699.827     -6636.1278      2.7670836      3114.0032    
     63700   310.30866     -36701.461      3273.1606      2.8191738      3056.4655    
     63800   309.18888     -36715.47      -114.29366      2.8347771      3039.6419    
     63900   299.52702     -36723.378     -1862.3296      2.8380952      3036.0882    
     64000   277.55974     -36709.046     -718.25532      2.8116678      3064.6249    
     64100   320.01747     -36718.982      4767.7593      2.8018786      3075.3321    
     64200   304.56447     -36689.595     -1451.2184      2.7891526      3089.364     
     64300   310.31423     -36693.665     -6436.9869      2.7804487      3099.0349    
     64400   312.89632     -36713.457      1428.325       2.8144066      3061.6427    
     64500   289.16442     -36707.048      8688.9234      2.8340307      3040.4425    
     64600   278.29188     -36703.455      5563.6089      2.8421411      3031.7662    
     64700   302.49885     -36708.332     -9034.7971      2.7969011      3080.8052    
     64800   328.00795     -36715.653     -156.68858      2.794638       3083.3       
     64900   327.47788     -36697.835      119.31522      2.7853428      3093.5896    
     65000   319.83345     -36695.754      2735.8442      2.8067848      3069.9566    
     65100   303.98513     -36711.584     -2972.146       2.8221309      3053.2628    
     65200   298.60639     -36723.817      3085.649       2.8241938      3051.0326    
     65300   306.5469      -36735.712      9305.9724      2.8291037      3045.7376    
     65400   301.71736     -36710.998     -12488.415      2.7832222      3095.9467    
     65500   315.15373     -36697.684     -1968.8771      2.8176627      3058.1046    
     65600   314.35373     -36697.934      1127.3292      2.793499       3084.5572    
     65700   291.54598     -36698.055      2392.6861      2.8065047      3070.2629    
     65800   298.24927     -36710.703     -8067.6155      2.783651       3095.4698    
     65900   290.64329     -36711.328      3710.9278      2.8293508      3045.4715    
     66000   293.98977     -36713.11       6551.1504      2.8403847      3033.641     
     66100   293.70782     -36704.434     -3169.2539      2.8055068      3071.355     
     66200   276.74462     -36688.637      2748.7386      2.7834077      3095.7403    
     66300   310.27708     -36690.557     -1897.567       2.7714342      3109.1149    
     66400   329.16814     -36689.904      3623.4867      2.8073639      3069.3233    
     66500   318.2268      -36699.399     -7367.1443      2.8018195      3075.397     
     66600   309.99865     -36717.056      5184.0446      2.8259968      3049.086     
     66700   306.60027     -36717.777     -2857.35        2.8145972      3061.4354    
     66800   295.06247     -36718.971     -1197.946       2.8220583      3053.3414    
     66900   255.56382     -36697.521     -6789.2724      2.7951372      3082.7494    
     67000   307.98579     -36723.132      915.78547      2.8049251      3071.9919    
     67100   331.06157     -36717.207      2976.7003      2.8040288      3072.9739    
     67200   308.23755     -36700.881     -1992.2066      2.8117518      3064.5334    
     67300   305.62936     -36715.96      -4077.9345      2.8123348      3063.8982    
     67400   291.70186     -36727.647     -248.46945      2.8122579      3063.9819    
     67500   275.4901      -36712.619      8611.3523      2.8200952      3055.4668    
     67600   297.60256     -36707.89      -5674.2666      2.7793996      3100.2045    
     67700   312.53505     -36713.402      1024.7708      2.8123515      3063.8799    
     67800   303.78533     -36709.427     -2489.0552      2.8064609      3070.3109    
     67900   321.37478     -36728.484      6524.4511      2.8354241      3038.9483    
     68000   281.01744     -36724.318     -9750.9289      2.7884248      3090.1702    
     68100   276.67076     -36721.694      5854.4629      2.8151796      3060.802     
     68200   284.72715     -36703.185      1133.2922      2.8055568      3071.3002    
     68300   307.81916     -36710.868     -1572.0061      2.8303121      3044.4372    
     68400   288.32314     -36698.576     -1558.0066      2.8074256      3069.2559    
     68500   308.38698     -36716.278     -1647.9363      2.7966802      3081.0485    
     68600   303.42796     -36725.864      4693.4497      2.8141004      3061.9758    
     68700   275.88614     -36706.625     -5023.3681      2.7804728      3099.008     
     68800   300.42192     -36717.909      5274.3298      2.8177012      3058.0629    
     68900   283.78414     -36684.935     -241.68079      2.8097753      3066.6891    
     69000   325.34082     -36701.056      9399.979       2.8292129      3045.62      
     69100   310.06895     -36693.623     -7261.1341      2.7755917      3104.4578    
     69200   300.40513     -36703.088      493.59193      2.792913       3085.2044    
     69300   297.47766     -36704.594      964.13901      2.7837328      3095.3788    
     69400   299.81337     -36712.509      11519.976      2.8223921      3052.9803    
     69500   289.85126     -36710.459     -6410.0842      2.8288204      3046.0425    
     69600   279.83349     -36722         -1107.2968      2.8391311      3034.9804    
     69700   279.43655     -36732.725      5405.8561      2.8129052      3063.2768    
     69800   308.44695     -36721.602      4521.003       2.7981027      3079.4821    
     69900   299.48772     -36700.943     -3150.7648      2.7878929      3090.7599    
     70000   323.14285     -36708.181     -4762.1879      2.7978198      3079.7935    
     70100   297.09142     -36696.594      6215.3318      2.8206071      3054.9123    
     70200   303.54498     -36726.165     -1206.2537      2.8232981      3052.0006    
     70300   287.62636     -36720.084      2517.0428      2.830819       3043.892     
     70400   287.24037     -36710.236     -2821.0827      2.8058887      3070.9369    
     70500   292.50609     -36703.091      1706.2484      2.8074405      3069.2396    
     70600   286.98773     -36688.463     -8136.0369      2.7867887      3091.9844    
     70700   297.01498     -36697.51       2579.2862      2.8087216      3067.8396    
     70800   312.83785     -36715.929      4866.0805      2.8130248      3063.1466    
     70900   297.62026     -36714.936      89.965354      2.8073647      3069.3224    
     71000   284.83265     -36721.077     -1072.2612      2.8179953      3057.7437    
     71100   281.72515     -36743.892     -7143.9945      2.8031957      3073.8872    
     71200   268.06339     -36736.102      9793.9794      2.8289321      3045.9223    
     71300   273.22201     -36705.598     -5443.5748      2.7975479      3080.0929    
     71400   304.67735     -36709.922      5983.7448      2.833696       3040.8017    
     71500   290.00301     -36690.054     -2525.5025      2.7914786      3086.7897    
     71600   317.34632     -36713.162      7858.8451      2.8162263      3059.6644    
     71700   274.97201     -36695.472     -6957.8531      2.7803514      3099.1433    
     71800   283.61891     -36718.625      94.009812      2.8168226      3059.0167    
     71900   279.19765     -36725.924      3114.3862      2.8294067      3045.4114    
     72000   303.82123     -36716.294      1354.1377      2.8200105      3055.5586    
     72100   299.31674     -36697.21      -1009.7164      2.802219       3074.9586    
     72200   307.99954     -36709.221     -3195.823       2.783749       3095.3607    
     72300   290.85222     -36711.44       4760.9846      2.8047942      3072.1353    
     72400   291.42902     -36717.098     -5974.9373      2.7887574      3089.8017    
     72500   294.76676     -36718.902     -1765.3891      2.8206036      3054.9161    
     72600   305.76526     -36716.89      -2540.112       2.8118401      3064.4372    
     72700   318.84407     -36720.203      10174.272      2.8389294      3035.1961    
     72800   295.71523     -36690.029     -5844.4092      2.7922149      3085.9757    
     72900   327.35033     -36697.089      2241.7396      2.798536       3079.0054    
     73000   299.63079     -36687.032     -1097.858       2.778967       3100.6872    
     73100   278.96439     -36704.437     -854.7724       2.7955252      3082.3215    
     73200   286.66185     -36713.614      4245.8577      2.8216122      3053.8242    
     73300   276.64537     -36693.954     -3327.2526      2.8224171      3052.9532    
     73400   341.08394     -36725.591      3319.4539      2.824237       3050.9859    
     73500   308.49343     -36714.56      -4973.1721      2.7910346      3087.2808    
     73600   287.06434     -36728.679      4145.0078      2.7962493      3081.5233    
     73700   295.11648     -36725.445     -2790.7407      2.7790627      3100.5804    
     73800   285.83665     -36706.273      4682.8349      2.8066661      3070.0864    
     73900   310.00604     -36715.616      783.3962       2.8208125      3054.6898    
     74000   287.24509     -36693.079      3466.3614      2.8329994      3041.5493    
     74100   307.56514     -36712.743     -2763.3582      2.8142322      3061.8325    
     74200   282.5137      -36710.197     -718.5618       2.786462       3092.347     
     74300   278.83811     -36718.981     -1554.6789      2.7795496      3100.0372    
     74400   284.22396     -36702.626     -1184.8818      2.7833911      3095.7588    
     74500   314.69776     -36705.691      1914.3853      2.8162629      3059.6246    
     74600   318.07757     -36716.001     -898.06458      2.8227768      3052.5642    
     74700   284.85127     -36706.591      4128.0305      2.8321649      3042.4455    
     74800   297.29365     -36721.774     -3622.209       2.7883575      3090.2448    
     74900   271.63157     -36717.937      2303.6229      2.8020325      3075.1633    
     75000   271.1195      -36721.957     -551.72167      2.8094392      3067.056     
     75100   289.45779     -36710.274     -1282.3054      2.8234672      3051.8178    
     75200   288.8114      -36697.789      3303.9802      2.8126892      3063.5121    
     75300   308.07335     -36708.562     -6112.2404      2.788658       3089.9119    
     75400   304.17594     -36715.073      3789.4179      2.8102236      3066.1999    
     75500   285.8158      -36716.503     -3338.7322      2.8117175      3064.5708    
     75600   285.32173     -36728.466      293.21074      2.8193806      3056.2413    
     75700   278.54256     -36711.791     -888.81005      2.8125486      3063.6652    
     75800   322.03232     -36717.382      989.75082      2.8104972      3065.9014    
     75900   286.70021     -36691.416      802.63456      2.8090194      3067.5143    
     76000   314.47606     -36708.599      1661.9283      2.8068285      3069.9087    
     76100   307.29194     -36719.069     -6648.5618      2.7929225      3085.1938    
     76200   281.50848     -36722.249     -1679.7642      2.8166048      3059.2532    
     76300   281.84629     -36712.77       9033.4947      2.8241456      3051.0847    
     76400   308.4722      -36714.175     -1972.5485      2.8225838      3052.773     
     76500   293.646       -36700.54      -3445.2868      2.8143915      3061.6591    
     76600   295.10218     -36704.953      1482.693       2.8071274      3069.5819    
     76700   308.21497     -36716.054      7078.6492      2.8089486      3067.5917    
     76800   289.6241      -36700.839     -2133.2854      2.7920351      3086.1744    
     76900   283.50024     -36724.561     -812.99124      2.8093862      3067.1139    
     77000   279.26955     -36731.847     -648.03162      2.8085923      3067.9808    
     77100   312.726       -36733.518      4877.7653      2.8254249      3049.7032    
     77200   283.17875     -36693.133     -1870.206       2.815645       3060.2961    
     77300   321.05901     -36707.625      2216.5262      2.8305041      3044.2306    
     77400   300.01017     -36698.011      4766.0341      2.8123285      3063.905     
     77500   274.8545      -36706.124     -1145.1271      2.8029134      3074.1968    
     77600   274.97562     -36706.563     -4943.4844      2.7851559      3093.7971    
     77700   303.10738     -36716.767     -3669.6247      2.7845378      3094.4839    
     77800   314.2028      -36716.126      3306.9728      2.816181       3059.7136    
     77900   321.91226     -36702.363     -4243.1238      2.8039424      3073.0686    
     78000   292.9944      -36690.06      -3341.3796      2.8158286      3060.0965    
     78100   285.20834     -36720.033      1761.4964      2.8327226      3041.8465    
     78200   282.38055     -36715.558      5458.2949      2.8278039      3047.1376    
     78300   284.56016     -36704.899      1824.0424      2.8051004      3071.8       
     78400   331.70066     -36716.942     -7834.9905      2.7740358      3106.199     
     78500   298.57351     -36693.263      3195.6279      2.7935528      3084.4978    
     78600   314.39272     -36712.217     -224.02934      2.8084591      3068.1263    
     78700   292.5527      -36709.055      676.13169      2.8093992      3067.0996    
     78800   267.61107     -36716.393      4507.2452      2.825346       3049.7884    
     78900   266.5072      -36733.19      -360.10435      2.817085       3058.7318    
     79000   264.6889      -36740.855      6175.507       2.8332143      3041.3186    
     79100   274.55656     -36717.75      -6011.8469      2.7946272      3083.3119    
     79200   306.63859     -36721.698      4125.1759      2.8072582      3069.4388    
     79300   324.37136     -36718.347     -1286.8949      2.7932075      3084.8791    
     79400   306.97114     -36696.067      2069.3355      2.8039204      3073.0927    
     79500   298.52253     -36691.739     -7998.223       2.7928639      3085.2586    
     79600   296.55442     -36719.836      6209.4272      2.8288629      3045.9968    
     79700   277.26392     -36714.67       1561.1964      2.8170461      3058.774     
     79800   318.5699      -36734.423     -2468.7474      2.80727        3069.4259    
     79900   299.00868     -36714.105      1990.895       2.8035135      3073.5388    
     80000   294.7233      -36707.805     -3979.1844      2.7893762      3089.1162    
     80100   298.29526     -36709.461      3335.6787      2.8128845      3063.2994    
     80200   309.83964     -36713.738     -5773.6629      2.7968169      3080.8979    
     80300   307.26391     -36710.38       4253.0195      2.8324286      3042.1622    
     80400   310.94941     -36708.287     -933.08943      2.8201531      3055.4041    
     80500   308.4915      -36711.326      5574.2435      2.8244967      3050.7054    
     80600   282.28892     -36695.102     -7264.7604      2.7675625      3113.4644    
     80700   300.99837     -36716.389      12025.03       2.8207211      3054.7889    
     80800   322.38546     -36725.591     -6387.0451      2.8005785      3076.7598    
     80900   296.94541     -36692.696     -231.02411      2.8246736      3050.5144    
     81000   320.41848     -36696.027     -1907.2667      2.804246       3072.7359    
     81100   307.18813     -36714.352      3361.2811      2.8153288      3060.6398    
     81200   286.10166     -36711.132     -4043.691       2.7983974      3079.1579    
     81300   284.60324     -36704.447     -6180.1331      2.8023569      3074.8073    
     81400   297.55666     -36707.289      1701.0513      2.8138222      3062.2785    
     81500   312.14042     -36715.117      946.19187      2.8093218      3067.1842    
     81600   285.25535     -36709.183      1233.9         2.8104871      3065.9124    
     81700   274.47733     -36719.027     -5222.0802      2.7853211      3093.6137    
     81800   303.25033     -36734.32       7468.2261      2.8160422      3059.8644    
     81900   305.11972     -36710.958     -4202.0164      2.8132279      3062.9255    
     82000   307.77309     -36702.503     -3271.1853      2.8303921      3044.3511    
     82100   285.80912     -36698.319      1239.9634      2.816385       3059.492     
     82200   307.98147     -36720.768      4545.1494      2.8058762      3070.9506    
     82300   286.65552     -36705.579     -616.19274      2.7938995      3084.1151    
     82400   293.4752      -36698.606     -6378.6063      2.7811236      3098.2827    
     82500   333.18421     -36709.666      4963.4643      2.8026334      3074.504     
     82600   302.73878     -36685.642     -2747.9206      2.8125588      3063.6542    
     82700   308.68379     -36714.599      789.63349      2.8238269      3051.429     
     82800   299.1004      -36719.577     -3711.6279      2.8179459      3057.7973    
     82900   276.47051     -36703.19      -822.86681      2.821069       3054.4121    
     83000   313.08292     -36719.812      3958.3706      2.8170515      3058.7681    
     83100   322.26148     -36691.599     -2223.9523      2.8022909      3074.8796    
     83200   320.00575     -36685.853      230.46696      2.7872634      3091.4579    
     83300   303.08513     -36693.558      2301.944       2.7920379      3086.1714    
     83400   301.06373     -36700.242     -1190.307       2.8098468      3066.6111    
     83500   315.27985     -36720.681     -4307.568       2.8237274      3051.5366    
     83600   301.30299     -36726.782      6816.2699      2.8317609      3042.8795    
     83700   295.12174     -36725.181      255.49152      2.7984917      3079.0541    
     83800   312.00919     -36715.207     -4379.7535      2.7910791      3087.2315    
     83900   323.76519     -36701.703      5002.1293      2.8071645      3069.5413    
     84000   314.45002     -36695.177      1670.3203      2.8108975      3065.4648    
     84100   285.49086     -36695.94       777.79742      2.8128565      3063.3298    
     84200   291.91409     -36710.651     -7228.7542      2.7955853      3082.2552    
     84300   291.32354     -36714.459      6594.0934      2.8301404      3044.6219    
     84400   305.35728     -36715.81       2263.7385      2.8216824      3053.7481    
     84500   302.12736     -36708.073     -2131.9702      2.8050618      3071.8423    
     84600   309.18152     -36712.536      1814.9859      2.8087561      3067.8019    
     84700   291.64641     -36700.706     -3709.8795      2.7924457      3085.7206    
     84800   305.49397     -36709.892      3602.4018      2.8123383      3063.8944    
     84900   282.38993     -36696.619     -4293.7607      2.8091478      3067.3742    
     85000   292.61782     -36704.15       286.13055      2.8173517      3058.4422    
     85100   305.5968      -36713.107     -2112.7669      2.8070464      3069.6704    
     85200   304.05086     -36717.799      2479.3512      2.8176474      3058.1213    
     85300   289.95634     -36701.708     -1543.4949      2.803014       3074.0864    
     85400   301.90204     -36705.276     -5278.4335      2.7832566      3095.9083    
     85500   345.51895     -36729.523      1314.0164      2.7983548      3079.2047    
     85600   290.09069     -36682.222     -503.19417      2.8021123      3075.0757    
     85700   320.38887     -36699.813     -31.020064      2.8298063      3044.9814    
     85800   284.73256     -36706.027      454.2657       2.8176593      3058.1083    
     85900   288.29203     -36718.908      6435.7878      2.8120839      3064.1715    
     86000   280.74019     -36704.063      414.53421      2.7940657      3083.9316    
     86100   302.03159     -36695.601     -8995.2922      2.7931274      3084.9675    
     86200   310.32236     -36703.358      267.73219      2.8237378      3051.5253    
     86300   306.87032     -36713.271      8843.6389      2.8292217      3045.6105    
[...]
     67400   298.27823     -36712.356     -1743.5727    
     67500   313.03736     -36712.17      -5986.5558    
     67600   305.47833     -36709.465     -48.911808    
     67700   305.53186     -36712.046      1847.6421    
     67800   284.38556     -36709.889     -4776.8102    
     67900   279.7096      -36715.589     -3887.1182    
     68000   306.88582     -36723.42       3916.4205    
     68100   316.44326     -36708.833     -6432.7545    
     68200   316.25274     -36701.651      1893.3691    
     68300   293.59755     -36699.753      1622.9441    
     68400   303.58605     -36733.529     -4079.4245    
     68500   277.09627     -36711.803     -9169.6704    
     68600   304.36004     -36717.003      387.49247    
     68700   292.72017     -36697.773     -169.36192    
     68800   312.88542     -36682.406      7701.6641    
     68900   332.10861     -36690.882     -5255.0587    
     69000   307.32777     -36695.732     -5397.8839    
     69100   315.38472     -36716.827      729.85878    
     69200   296.12675     -36722.94       3975.8311    
     69300   289.52299     -36719.884     -7000.3351    
     69400   322.4628      -36724.526     -5061.2708    
     69500   308.29236     -36694.268      903.8604     
     69600   309.58082     -36700.134      2782.099     
     69700   294.68275     -36700.03      -7236.6402    
     69800   295.64692     -36707.562     -354.24608    
     69900   317.30485     -36729.728     -1582.7544    
     70000   288.56052     -36734.912     -2146.6332    
     70100   278.66124     -36724.149     -2575.5095    
     70200   295.62466     -36713.461      2459.9686    
     70300   317.99479     -36714.911     -409.31025    
     70400   292.58595     -36694.345     -4316.6108    
     70500   291.49533     -36702.813     -3466.4287    
     70600   278.4324      -36717.411     -654.16808    
     70700   275.12906     -36719.335     -1378.5186    
     70800   311.73782     -36715.311     -2142.312     
     70900   299.48723     -36700.789     -746.47863    
     71000   303.6536      -36710.894     -2451.4854    
     71100   304.55079     -36719.91      -2049.2231    
     71200   287.75095     -36706.648     -3524.0996    
     71300   290.70478     -36695.017     -2653.8137    
     71400   312.11997     -36694.059     -2942.3753    
     71500   311.68546     -36708.282     -386.399      
     71600   280.11712     -36705.642     -3127.0773    
     71700   291.36923     -36713.817      5178.8085    
     71800   313.4584      -36719.234     -2892.6767    
     71900   298.37986     -36698.39      -4006.2686    
     72000   309.76496     -36704.26      -1105.8414    
     72100   273.92298     -36696.287     -326.72569    
     72200   286.00435     -36710.946     -447.04421    
     72300   284.73685     -36709.518     -3059.0709    
     72400   283.52961     -36693.763     -1935.0259    
     72500   330.43072     -36708.399      5281.1694    
     72600   291.44223     -36683.968     -4852.3791    
     72700   301.44889     -36704.317     -3036.8674    
     72800   298.2131      -36727.345      700.77535    
     72900   274.48168     -36723.521     -2633.7895    
     73000   283.1199      -36742.612     -6093.8493    
     73100   276.58214     -36718.974      1299.4604    
     73200   309.58082     -36716.908     -3721.8418    
     73300   305.00484     -36694.743     -6179.2027    
     73400   290.26566     -36687.654      508.59542    
     73500   276.69054     -36694.986      1225.6721    
     73600   290.08368     -36719.536     -4201.8166    
     73700   282.63609     -36724.901     -4614.116     
     73800   277.51157     -36718.987     -3133.9574    
     73900   300.22929     -36706.549     -1277.7724    
     74000   309.07864     -36698.703      649.88105    
     74100   304.80422     -36701.916     -4118.7429    
     74200   298.68365     -36718.669     -5140.7941    
     74300   283.30876     -36718.647      1983.0199    
     74400   286.60037     -36716.915      4583.2864    
     74500   305.37774     -36716.54      -5208.5388    
     74600   277.53369     -36689.64      -2734.5828    
     74700   321.48345     -36713.36       5294.6248    
     74800   300.79699     -36700.4        2272.8763    
     74900   299.78194     -36720.634     -2082.8816    
     75000   284.86876     -36720.578      4385.05      
     75100   301.68921     -36713.972      466.45519    
     75200   298.36409     -36686.685     -7990.0998    
     75300   320.28662     -36708.45      -4894.1982    
     75400   287.06242     -36701.413      3518.7538    
     75500   293.40872     -36709.222     -1285.1726    
     75600   316.78829     -36725.263     -8733.4669    
     75700   288.11123     -36714.695     -346.41387    
     75800   303.88212     -36716.49       3558.3077    
     75900   307.20037     -36702.513     -1979.6066    
     76000   306.9038      -36702.647     -4276.0787    
     76100   323.92098     -36721.391      4896.2485    
     76200   285.43827     -36711.875     -5807.4291    
     76300   279.93693     -36715.622     -3144.5699    
     76400   303.06961     -36716.229      779.20361    
     76500   298.4615      -36685.402     -1077.0276    
     76600   301.51863     -36687.079      3892.2578    
     76700   309.12062     -36704.652     -3800.9561    
     76800   297.37002     -36709.963     -9778.9102    
     76900   294.59539     -36716.83       1827.5745    
     77000   297.8769      -36715.541      6785.4728    
     77100   310.54403     -36696.365     -7262.4344    
     77200   325.58072     -36691.254     -5891.8816    
     77300   313.42943     -36700.622      2089.487     
     77400   294.63347     -36708.981     -233.8193     
     77500   280.3047      -36707.146     -5584.1837    
     77600   291.18516     -36706.049      2140.5797    
     77700   309.09396     -36697.853      2250.3853    
     77800   329.1716      -36713.737     -6801.104     
     77900   311.16369     -36715.357     -2253.508     
     78000   283.01884     -36699.484      5511.2056    
     78100   327.80845     -36719.789     -2450.6066    
     78200   319.16361     -36712.086     -8893.4587    
     78300   284.259       -36710.863     -3449.7545    
     78400   270.21748     -36718.619      2418.0674    
     78500   286.5638      -36714.193     -5134.6547    
     78600   312.32622     -36713.944     -3780.2279    
     78700   324.05068     -36721.119     -634.52153    
     78800   299.4224      -36713.385     -9077.0344    
     78900   291.63034     -36713.131     -3745.319     
     79000   301.49888     -36708.223      5583.2159    
     79100   321.79489     -36697.965     -1936.2291    
     79200   315.20099     -36696.119     -4041.1159    
     79300   290.96389     -36709.529     -687.34605    
     79400   305.35016     -36725.949     -95.013461    
     79500   277.14452     -36702.163     -7453.0518    
     79600   297.64109     -36700.055      3198.6031    
     79700   295.52542     -36688.325      2936.2404    
     79800   306.62493     -36707.184     -3968.4915    
     79900   291.36553     -36727.65      -1907.489     
     80000   290.7128      -36725.258     -1965.8818    
     80100   305.06291     -36711.053     -6876.2411    
     80200   295.91612     -36697.569     -3012.1154    
     80300   310.6467      -36706.765     -2499.3891    
     80400   281.4965      -36695.079     -1951.8108    
     80500   248.39878     -36698.282     -2562.2023    
     80600   286.14299     -36736.684     -1920.7889    
     80700   293.41975     -36721.695     -9582.6791    
     80800   286.22926     -36709.732      385.22424    
     80900   303.94919     -36706.68      -775.78746    
     81000   325.45205     -36713.815     -6357.3197    
     81100   301.6749      -36713.945     -1525.8296    
     81200   283.28202     -36725.851      3728.5204    
     81300   276.46028     -36708.834     -4419.5367    
     81400   301.40072     -36714.875     -2376.9033    
     81500   321.20065     -36720.784     -2709.3344    
     81600   317.03962     -36715.353      591.51625    
     81700   305.5405      -36700.207     -1306.4415    
     81800   301.50238     -36700.272      2261.4693    
     81900   286.50857     -36704.973      2534.6936    
     82000   277.05704     -36710.87       586.43975    
     82100   294.50463     -36717.492     -5609.6777    
     82200   308.38185     -36700.045     -3235.5546    
     82300   317.83562     -36701.269     -1158.4605    
     82400   310.27489     -36705.314      2577.6875    
     82500   302.34015     -36709.463     -9251.6312    
     82600   279.65755     -36702.128     -1994.0664    
     82700   303.31509     -36717.759      2741.7441    
     82800   286.30298     -36701.395     -5409.1996    
     82900   303.26131     -36699.554     -5663.3548    
     83000   299.4671      -36682.477      5254.9686    
     83100   319.38221     -36687.439     -651.12139    
     83200   325.4939      -36715.781     -5133.0399    
     83300   301.60821     -36720.115     -4376.4392    
     83400   307.58396     -36728.455      4267.9967    
     83500   278.70669     -36701.823     -2204.9908    
     83600   308.81717     -36697.92      -2543.8521    
     83700   312.96379     -36702.72       2984.8712    
     83800   302.12865     -36706.961     -6159.3423    
     83900   285.55866     -36698.312     -4435.9037    
     84000   307.72453     -36716.287      2928.8303    
     84100   293.68234     -36707.845     -2267.6731    
     84200   260.48159     -36699.613     -7094.3595    
     84300   297.22063     -36748.097     -38.267658    
     84400   290.46944     -36727.835     -2528.0484    
     84500   304.30019     -36715.664     -6161.2852    
     84600   281.17341     -36690.783     -2892.9933    
     84700   293.14539     -36689.022      4715.1766    
     84800   295.65591     -36699.487     -2798.6949    
     84900   279.07586     -36711.087     -2040.9737    
     85000   299.14009     -36738.378     -2571.8024    
     85100   265.20118     -36712.086     -5590.6598    
     85200   315.22789     -36713.058     -1402.2612    
     85300   290.50431     -36689.233      2037.5195    
     85400   278.02397     -36685.684     -4063.2046    
     85500   307.98279     -36723.252      1.6379871    
     85600   290.6734      -36722.726     -197.66856    
     85700   289.23988     -36716.726     -7462.4741    
     85800   304.06505     -36698.926     -3987.1552    
     85900   317.50001     -36704.143      3508.1739    
     86000   318.11044     -36709.061     -1691.2878    
     86100   280.99967     -36715.259     -2976.7772    
     86200   281.84795     -36718.264     -2367.4256    
     86300   302.40147     -36720.95       451.20893    
     86400   287.61065     -36694.571     -6420.6546    
     86500   309.82888     -36697.459      1698.229     
     86600   313.69564     -36699.472     -1309.5208    
     86700   317.47863     -36711.596     -3282.6914    
     86800   310.32172     -36715.56       3396.076     
     86900   293.08246     -36712.049     -2480.6142    
     87000   298.44765     -36708.176     -3870.1816    
     87100   321.94139     -36701.764     -1059.7475    
     87200   324.52355     -36697.869     -2663.9582    
     87300   284.93004     -36697.128      687.91006    
     87400   294.63825     -36713.042     -6802.2178    
     87500   298.75141     -36715.939     -309.03068    
     87600   307.85375     -36714.371     -4523.9614    
     87700   315.36329     -36703.209      5852.4994    
     87800   307.19689     -36694.896     -373.08122    
     87900   289.04441     -36707.667     -9090.2688    
     88000   290.18141     -36720.927     -1181.3396    
     88100   287.96214     -36711.865      1028.7602    
     88200   320.77734     -36712.292     -7154.2694    
     88300   310.80568     -36687.634     -1659.1969    
     88400   324.57433     -36675.239      9365.8431    
     88500   338.91784     -36689.893     -217.52925    
     88600   302.30763     -36697.047     -6682.0074    
     88700   283.0174      -36704.929     -3789.7796    
     88800   283.32562     -36714.711      3947.065     
     88900   294.79042     -36707.806     -4864.3972    
     89000   317.26261     -36704.828     -1096.4182    
     89100   317.56014     -36706.48       3272.0055    
     89200   297.74123     -36720.185     -4289.0877    
     89300   291.53475     -36723.428     -4220.5724    
     89400   297.51345     -36715.116     -2209.5295    
     89500   306.0576      -36702.263     -4081.6312    
     89600   339.70078     -36718.449      1036.2536    
     89700   283.68461     -36697.109     -3627.6391    
     89800   267.86654     -36702.942     -24.09341     
     89900   292.6492      -36713.451     -2661.9778    
     90000   299.70187     -36713.476     -4332.5986    
     90100   320.58348     -36718.482     -5641.0795    
     90200   303.03751     -36693.776      1511.3789    
     90300   303.70868     -36670.378     -4983.8981    
     90400   332.02952     -36692.609     -3811.0219    
     90500   292.9164      -36700.206     -943.55085    
     90600   293.58568     -36716.68      -290.1805     
     90700   297.59231     -36719.936     -3501.2818    
     90800   289.21418     -36700.36      -3900.8332    
     90900   302.03439     -36688.185     -1168.3728    
     91000   324.9413      -36698.603      3753.1364    
     91100   283.73386     -36701.752     -3025.7976    
     91200   296.38714     -36717.984      1092.2288    
     91300   295.4067      -36713.334     -4368.9982    
     91400   293.03991     -36700.289      2073.5675    
     91500   301.78832     -36691.889      4055.3672    
     91600   303.69348     -36688.391     -2617.333     
     91700   302.6089      -36712.806     -3446.2976    
     91800   263.94459     -36703.901     -977.67397    
     91900   293.10377     -36717.202     -1540.4541    
     92000   295.26331     -36696.254     -4706.5282    
     92100   314.80314     -36704.142      1017.9027    
     92200   297.49895     -36699.973     -2112.0665    
     92300   307.61092     -36713.326     -3397.3513    
     92400   302.1396      -36711.58      -7609.2672    
     92500   297.66348     -36722.835      1673.1973    
     92600   273.40878     -36724.677      3048.9908    
     92700   287.29409     -36722.043     -6479.1512    
     92800   313.68147     -36716.051      226.96305    
     92900   286.61459     -36694.078      2353.6872    
     93000   307.71989     -36712.394     -2149.3009    
     93100   296.51304     -36715.049     -4141.9575    
     93200   265.62985     -36716.597     -841.85232    
     93300   286.15531     -36730.18       86.04753     
     93400   289.50942     -36706.214     -839.2699     
     93500   298.41838     -36701.627      3665.0173    
     93600   308.73723     -36704.653     -3147.2839    
     93700   289.30979     -36696.608     -4196.6807    
     93800   297.2538      -36729.708      587.8815     
     93900   300.47647     -36734.487      247.03223    
     94000   290.89743     -36709.777     -262.19394    
     94100   297.56601     -36708.901      2535.4583    
     94200   303.78797     -36713.677      4864.9013    
     94300   309.80714     -36712.321     -407.88969    
     94400   316.86365     -36704.057     -1630.2751    
     94500   311.32767     -36697.698     -5068.6336    
     94600   302.74427     -36716.358      468.59793    
     94700   296.023       -36725.06      -2704.3539    
     94800   290.3413      -36715.589     -8398.4562    
     94900   304.49288     -36701.677     -2678.4891    
     95000   290.73131     -36690.346      698.07115    
     95100   298.40773     -36698.517      489.67361    
     95200   298.80836     -36707.919     -1301.4685    
     95300   298.67906     -36718.39      -8531.6673    
     95400   258.04124     -36708.978     -1412.2258    
     95500   284.55681     -36735.744      1091.4626    
     95600   287.06751     -36715.235      330.92564    
     95700   312.10723     -36711.74      -4313.7254    
     95800   302.45705     -36705.824      4509.4418    
     95900   289.45657     -36703.341     -1658.1634    
     96000   291.45929     -36721.801     -4184.3853    
     96100   274.69622     -36726.866     -4329.8462    
     96200   295.84704     -36737.517      3718.6324    
     96300   291.54134     -36698.546     -6844.338     
     96400   289.29594     -36687.824     -4395.9831    
     96500   314.27744     -36701.465      1306.2045    
     96600   289.03936     -36704.083     -4038.2609    
     96700   290.51931     -36717.661     -764.38772    
     96800   281.17081     -36709.622     -2991.8903    
     96900   293.58313     -36705.967      1127.4444    
     97000   307.65196     -36705.511     -2016.8345    
     97100   306.5251      -36707.263     -1551.4109    
     97200   303.09398     -36704.323      1271.8987    
     97300   312.29395     -36717.648     -3537.227     
     97400   291.075       -36719.943     -3950.1305    
     97500   262.00794     -36701.444     -2877.2046    
     97600   321.92903     -36713.854     -916.00978    
     97700   310.90966     -36699.351     -3768.3586    
     97800   311.77321     -36708.374      1484.36      
     97900   288.27085     -36707.981     -4957.6929    
     98000   284.54248     -36728.098     -2760.0066    
     98100   278.48255     -36719.639     -4436.066     
     98200   271.97394     -36704.32      -6301.8886    
     98300   304.7747      -36708.123     -1203.6199    
     98400   314.40201     -36703.048      3717.295     
     98500   298.70977     -36701.266     -6043.5764    
     98600   279.08677     -36709.905     -2282.4345    
     98700   287.52841     -36722.377      4474.422     
     98800   275.8072      -36701.427     -3428.641     
     98900   301.61707     -36714.803     -3795.5977    
     99000   297.60539     -36704.345     -3646.5626    
     99100   315.0429      -36712.091     -1626.5936    
     99200   323.61181     -36714.018      469.02004    
     99300   278.15158     -36684.397     -1620.1365    
     99400   297.43799     -36711.835     -4552.0955    
     99500   282.32236     -36717.404      3212.6666    
     99600   298.36625     -36727.229      104.27087    
     99700   318.72272     -36707.825     -5626.9039    
     99800   343.00496     -36722.597      5630.5815    
     99900   300.90207     -36706.398      3401.1015    
    100000   302.37661     -36717.78      -6255.6915    
Loop time of 9722.69 on 12 procs for 100000 steps with 243 atoms

Performance: 0.444 ns/day, 54.015 hours/ns, 10.285 timesteps/s, 2.499 katom-step/s
99.7% CPU use with 2 MPI tasks x 6 OpenMP threads

MPI task timing breakdown:
Section |  min time  |  avg time  |  max time  |%varavg| %total
---------------------------------------------------------------
Pair    | 2398.7     | 2405       | 2411.3     |  12.8 | 24.74
Bond    | 0.020833   | 0.021134   | 0.021435   |   0.2 |  0.00
Neigh   | 238.74     | 238.77     | 238.8      |   0.2 |  2.46
Comm    | 14.233     | 22.314     | 30.396     | 171.1 |  0.23
Output  | 0.21854    | 0.27739    | 0.33624    |  11.2 |  0.00
Modify  | 7052.7     | 7054.5     | 7056.2     |   2.1 | 72.56
Other   |            | 1.866      |            |       |  0.02

Nlocal:          121.5 ave         124 max         119 min
Histogram: 1 0 0 0 0 0 0 0 0 1
Nghost:         3922.5 ave        3925 max        3920 min
Histogram: 1 0 0 0 0 0 0 0 0 1
Neighs:          63843 ave       65044 max       62642 min
Histogram: 1 0 0 0 0 0 0 0 0 1

Total # of neighbors = 127686
Ave neighs/atom = 525.45679
Ave special neighs/atom = 0
Neighbor list builds = 10000
Dangerous builds not checked
Stress sampling interval = 5
Stress sample count = 20000
Born sampling interval = 5
Born sample count = 20000
done!
Total wall time: 3:32:32
