LAMMPS (2 Aug 2023 - Update 2)
  using 2 OpenMP thread(s) per MPI task
Reading data file ...
  triclinic box = (0 0 0) to (15.4861 14.0699 16.771) with tilt (-7.3915 0.9919 1.0308)
WARNING: Triclinic box skew is large. LAMMPS will run inefficiently. (src/domain.cpp:220)
  2 by 2 by 2 MPI processor grid
  reading atoms ...
  274 atoms
  reading velocities ...
  274 velocities
Finding 1-2 1-3 1-4 neighbors ...
  special bond factors lj:    0        0        0       
  special bond factors coul:  0        0        0       
     0 = max # of 1-2 neighbors
     0 = max # of 1-3 neighbors
     0 = max # of 1-4 neighbors
     1 = max # of special neighbors
  special bonds CPU = 0.001 seconds
  read_data CPU = 0.007 seconds
WARNING: Van der Waals parameters for element SI indicate inner wall+shielding, but earlier atoms indicate a different van der Waals method. This may cause division-by-zero errors. Keeping van der Waals setting for earlier atoms. (src/REAXFF/reaxff_ffield.cpp:251)
System init for write_restart ...
Neighbor list info ...
  update: every = 1 steps, delay = 0 steps, check = yes
  max neighbors/atom: 2000, page size: 100000
  master list distance cutoff = 12
  ghost atom cutoff = 12
  binsize = 6, bins = 4 3 3
  2 neighbor lists, perpetual/occasional/extra = 2 0 0
  (1) pair reaxff, perpetual
      attributes: half, newton off, ghost
      pair build: half/bin/newtoff/ghost
      stencil: full/ghost/bin/3d
      bin: standard
  (2) fix qeq/reaxff, perpetual, copy from (1)
      attributes: half, newton off
      pair build: copy
      stencil: none
      bin: none
  using 2 OpenMP thread(s) per MPI task
Reading restart file ...
  restart file = 2 Aug 2023, LAMMPS = 2 Aug 2023
  restoring atom style full from restart
  triclinic box = (0 0 0) to (15.4861 14.0699 16.771) with tilt (-7.3915 0.9919 1.0308)
WARNING: Triclinic box skew is large. LAMMPS will run inefficiently. (src/domain.cpp:220)
  2 by 2 by 2 MPI processor grid
  pair style reaxff stores no restart info
  274 atoms
Finding 1-2 1-3 1-4 neighbors ...
  special bond factors lj:    0        0        0       
  special bond factors coul:  0        0        0       
     0 = max # of 1-2 neighbors
     0 = max # of 1-3 neighbors
     0 = max # of 1-4 neighbors
     1 = max # of special neighbors
  special bonds CPU = 0.000 seconds
  read_restart CPU = 0.004 seconds
*****debug*****
xy = -7.3914999999999997371, deltaxy = 0.073915
xz = 0.99190000000000000391, deltaxz = -0.009919
yz = 1.0307999999999999385, deltayz = -0.010308
*****
*****Negative-deform 1 starts.*****
WARNING: Van der Waals parameters for element SI indicate inner wall+shielding, but earlier atoms indicate a different van der Waals method. This may cause division-by-zero errors. Keeping van der Waals setting for earlier atoms. (src/REAXFF/reaxff_ffield.cpp:251)

CITE-CITE-CITE-CITE-CITE-CITE-CITE-CITE-CITE-CITE-CITE-CITE-CITE

Your simulation uses code contributions which should be cited:
- pair reaxff command: doi:10.1016/j.parco.2011.08.005
- fix qeq/reaxff command: doi:10.1016/j.parco.2011.08.005
The log file lists these citations in BibTeX format.

CITE-CITE-CITE-CITE-CITE-CITE-CITE-CITE-CITE-CITE-CITE-CITE-CITE

Neighbor list info ...
  update: every = 10 steps, delay = 0 steps, check = yes
  max neighbors/atom: 2000, page size: 100000
  master list distance cutoff = 12
  ghost atom cutoff = 12
  binsize = 6, bins = 4 3 3
  2 neighbor lists, perpetual/occasional/extra = 2 0 0
  (1) pair reaxff, perpetual
      attributes: half, newton off, ghost
      pair build: half/bin/newtoff/ghost
      stencil: full/ghost/bin/3d
      bin: standard
  (2) fix qeq/reaxff, perpetual, copy from (1)
      attributes: half, newton off
      pair build: copy
      stencil: none
      bin: none
Setting up Verlet run ...
  Unit style    : real
  Current step  : 0
  Time step     : 0.5
Per MPI rank memory allocation (min/avg/max) = 102.3 | 104.6 | 106.6 Mbytes
   Step          Temp          PotEng         Press          Volume    
         0   313.74632     -28691.336     -1287.3437      3654.1976    
       100   296.69063     -28694.74       1302.8291      3653.4668    
       200   289.12358     -28705.788     -1435.862       3652.7359    
       300   290.81562     -28704.086     -5332.4609      3652.0051    
       400   306.41922     -28705.123     -4335.5755      3651.2743    
       500   291.71774     -28687.042     -2732.3568      3650.5434    
       600   313.06128     -28695.092     -342.08012      3649.8126    
       700   335.03777     -28680.612     -10200.921      3649.0817    
       800   335.1694      -28678.863     -4368.1591      3648.3509    
       900   312.13337     -28692.079     -9236.4498      3647.6201    
      1000   311.91197     -28710.345     -3107.3763      3646.8892    
      1100   292.72795     -28704.818     -4114.1711      3646.1584    
      1200   298.52996     -28698.301      7128.1927      3645.4275    
      1300   324.54166     -28697.66      -5096.3912      3644.6967    
      1400   333.16079     -28695.814     -7302.5148      3643.9659    
      1500   277.65383     -28688.378     -1812.8917      3643.235     
      1600   311.20876     -28719.034     -8840.0708      3642.5042    
      1700   273.54468     -28682.762     -10508.097      3641.7733    
      1800   299.78412     -28693.372     -3865.675       3641.0425    
      1900   330.61382     -28704.805     -2084.3107      3640.3117    
      2000   306.9548      -28678.413     -8436.6026      3639.5808    
      2100   321.38849     -28691.035      2976.3241      3638.85      
      2200   294.13952     -28705.071     -1597.1618      3638.1191    
      2300   284.61066     -28702.098     -6671.9593      3637.3883    
      2400   288.77208     -28700.585     -680.84241      3636.6575    
      2500   329.2186      -28714.37      -4767.1623      3635.9266    
      2600   301.62559     -28678.635      6859.0216      3635.1958    
      2700   307.2305      -28695.544     -9355.7286      3634.4649    
      2800   295.8588      -28714.335      16119.063      3633.7341    
      2900   287.09928     -28710.328     -3789.1694      3633.0033    
      3000   289.61358     -28696.709     -7114.0765      3632.2724    
      3100   324.95079     -28701.974     -24863.369      3631.5416    
      3200   302.7833      -28682.563     -10539.251      3630.8107    
      3300   328.00101     -28715.242      1981.4135      3630.0799    
      3400   296.03397     -28709.166     -846.58332      3629.3491    
      3500   291.88984     -28705.9       -8097.1539      3628.6182    
      3600   303.46365     -28707.649     -7091.5266      3627.8874    
      3700   305.6342      -28704.31       2842.2049      3627.1565    
      3800   293.14278     -28689.614     -8202.9487      3626.4257    
      3900   309.87913     -28702.609      2885.7496      3625.6949    
      4000   289.13932     -28696.254     -8889.3974      3624.964     
      4100   271.91088     -28697.729      3447.7599      3624.2332    
      4200   287.2711      -28711.959      2638.5302      3623.5023    
      4300   297.32306     -28689.645      2730.7586      3622.7715    
      4400   304.46298     -28683.813     -7668.9708      3622.0407    
      4500   302.08777     -28686.466      3449.2414      3621.3098    
      4600   319.12395     -28702.659      1708.5254      3620.579     
      4700   284.51695     -28687.481      5105.2564      3619.8482    
      4800   276.79212     -28697.849     -6565.7502      3619.1173    
      4900   283.65353     -28707.167     -10639.513      3618.3865    
      5000   304.21474     -28701.249     -4494.765       3617.6556    
Loop time of 149.067 on 16 procs for 5000 steps with 274 atoms

Performance: 1.449 ns/day, 16.563 hours/ns, 33.542 timesteps/s, 9.190 katom-step/s
98.8% CPU use with 8 MPI tasks x 2 OpenMP threads

MPI task timing breakdown:
Section |  min time  |  avg time  |  max time  |%varavg| %total
---------------------------------------------------------------
Pair    | 87.26      | 112.27     | 129.84     | 150.0 | 75.32
Bond    | 0.012264   | 0.013575   | 0.014446   |   0.6 |  0.01
Neigh   | 1.3914     | 1.6931     | 1.8934     |  14.4 |  1.14
Comm    | 2.3442     | 19.906     | 44.938     | 356.6 | 13.35
Output  | 0.01423    | 0.033532   | 0.078184   |  13.7 |  0.02
Modify  | 14.824     | 15.035     | 15.35      |   4.9 | 10.09
Other   |            | 0.1127     |            |       |  0.08

Nlocal:          34.25 ave          43 max          30 min
Histogram: 2 3 0 1 0 0 1 0 0 1
Nghost:         2635.5 ave        2674 max        2591 min
Histogram: 1 1 0 1 1 1 0 1 0 2
Neighs:        18159.1 ave       22577 max       15909 min
Histogram: 2 3 0 1 0 0 1 0 0 1

Total # of neighbors = 145273
Ave neighs/atom = 530.19343
Ave special neighs/atom = 0
Neighbor list builds = 82
Dangerous builds = 0
  using 2 OpenMP thread(s) per MPI task
Reading restart file ...
  restart file = 2 Aug 2023, LAMMPS = 2 Aug 2023
  restoring atom style full from restart
  triclinic box = (0 0 0) to (15.4861 14.0699 16.771) with tilt (-7.3915 0.9919 1.0308)
WARNING: Triclinic box skew is large. LAMMPS will run inefficiently. (src/domain.cpp:220)
  2 by 2 by 2 MPI processor grid
  pair style reaxff stores no restart info
  274 atoms
Finding 1-2 1-3 1-4 neighbors ...
  special bond factors lj:    0        0        0       
  special bond factors coul:  0        0        0       
     0 = max # of 1-2 neighbors
     0 = max # of 1-3 neighbors
     0 = max # of 1-4 neighbors
     1 = max # of special neighbors
  special bonds CPU = 0.000 seconds
  read_restart CPU = 0.003 seconds
*****Positive-deform 1 starts.*****
WARNING: Van der Waals parameters for element SI indicate inner wall+shielding, but earlier atoms indicate a different van der Waals method. This may cause division-by-zero errors. Keeping van der Waals setting for earlier atoms. (src/REAXFF/reaxff_ffield.cpp:251)
Neighbor list info ...
  update: every = 10 steps, delay = 0 steps, check = yes
  max neighbors/atom: 2000, page size: 100000
  master list distance cutoff = 12
  ghost atom cutoff = 12
  binsize = 6, bins = 4 3 3
  2 neighbor lists, perpetual/occasional/extra = 2 0 0
  (1) pair reaxff, perpetual
      attributes: half, newton off, ghost
      pair build: half/bin/newtoff/ghost
      stencil: full/ghost/bin/3d
      bin: standard
  (2) fix qeq/reaxff, perpetual, copy from (1)
      attributes: half, newton off
      pair build: copy
      stencil: none
      bin: none
Setting up Verlet run ...
  Unit style    : real
  Current step  : 0
  Time step     : 0.5
Per MPI rank memory allocation (min/avg/max) = 102.3 | 104.6 | 106.6 Mbytes
   Step          Temp          PotEng         Press          Volume    
         0   313.74632     -28691.336     -1287.3437      3654.1976    
       100   296.6914      -28694.755      1311.1522      3654.9284    
       200   289.42106     -28705.547     -1289.7141      3655.6593    
       300   287.60378     -28700.54      -2156.1725      3656.3901    
       400   307.28207     -28705.542     -276.27237      3657.121     
       500   294.78076     -28688.556      162.9833       3657.8518    
       600   305.55813     -28694.823     -5917.9649      3658.5826    
       700   332.19788     -28707.57      -15378.771      3659.3135    
       800   322.3383      -28693.586     -867.59648      3660.0443    
       900   293.71822     -28686.149     -14411.298      3660.7752    
      1000   302.03371     -28710.735     -1939.1215      3661.506     
      1100   293.96228     -28707.3       -8844.7482      3662.2368    
      1200   299.06749     -28684.573     -3142.865       3662.9677    
      1300   305.75111     -28675.089     -2657.1144      3663.6985    
      1400   308.6673      -28684.107     -6052.6134      3664.4294    
      1500   284.62764     -28687.808     -8858.7109      3665.1602    
      1600   312.03572     -28716.8       -7637.8162      3665.891     
      1700   299.38279     -28703.239     -3879.233       3666.6219    
      1800   268.5814      -28669.771     -388.37706      3667.3527    
      1900   319.6294      -28678.167     -1244.9282      3668.0836    
      2000   344.21902     -28694.974      80.174346      3668.8144    
      2100   303.67299     -28684.602      5888.1664      3669.5452    
      2200   306.65718     -28702.475     -5574.6994      3670.2761    
      2300   277.10384     -28679.368     -6999.4338      3671.0069    
      2400   299.55718     -28693.27      -7498.9311      3671.7378    
      2500   319.91411     -28706.321     -19558.044      3672.4686    
      2600   319.01755     -28680.935      5841.2728      3673.1994    
      2700   342.12705     -28709.709      4889.2838      3673.9303    
      2800   302.84515     -28706.238      4800.2261      3674.6611    
      2900   308.14471     -28720.476     -15186.082      3675.392     
      3000   277.0775      -28687.19       7554.3012      3676.1228    
      3100   324.65155     -28700.941     -12553.79       3676.8536    
      3200   309.93816     -28687.855     -11094.883      3677.5845    
      3300   314.34394     -28697.175     -3369.0349      3678.3153    
      3400   301.16578     -28695.426     -741.621        3679.0462    
      3500   316.84062     -28713.263     -5797.524       3679.777     
      3600   292.23457     -28713.032     -20067.443      3680.5078    
      3700   265.18628     -28712.777     -3929.728       3681.2387    
      3800   270.02539     -28700.713     -10309.166      3681.9695    
      3900   289.1218      -28695.3       -15660.976      3682.7003    
      4000   326.50146     -28714.872      10873.765      3683.4312    
      4100   320.47009     -28699.609      6190.4727      3684.162     
      4200   298.97039     -28695.017      1278.8542      3684.8929    
      4300   316.55255     -28728.365     -5120.8271      3685.6237    
      4400   280.52738     -28712.822     -6911.5346      3686.3545    
      4500   256.27695     -28711.756      10260.096      3687.0854    
      4600   300.5764      -28736.771     -2985.3041      3687.8162    
      4700   278.05719     -28688.356     -2219.2913      3688.5471    
      4800   306.92299     -28690.562     -8499.4028      3689.2779    
      4900   306.39674     -28681.537      2409.7522      3690.0087    
      5000   311.15987     -28695.437     -8447.2505      3690.7396    
Loop time of 147.717 on 16 procs for 5000 steps with 274 atoms

Performance: 1.462 ns/day, 16.413 hours/ns, 33.848 timesteps/s, 9.274 katom-step/s
98.8% CPU use with 8 MPI tasks x 2 OpenMP threads

MPI task timing breakdown:
Section |  min time  |  avg time  |  max time  |%varavg| %total
---------------------------------------------------------------
Pair    | 83.523     | 116.82     | 128.66     | 138.4 | 79.09
Bond    | 0.012598   | 0.013547   | 0.014784   |   0.6 |  0.01
Neigh   | 1.1701     | 1.6003     | 1.7591     |  14.9 |  1.08
Comm    | 2.5342     | 14.36      | 47.613     | 394.1 |  9.72
Output  | 0.014135   | 0.033662   | 0.07863    |  13.9 |  0.02
Modify  | 14.584     | 14.769     | 15.236     |   5.5 | 10.00
Other   |            | 0.1171     |            |       |  0.08

Nlocal:          34.25 ave          40 max          29 min
Histogram: 2 0 1 1 0 0 2 0 0 2
Nghost:        2601.12 ave        2665 max        2541 min
Histogram: 1 1 0 1 2 0 1 0 1 1
Neighs:        17779.5 ave       20620 max       15132 min
Histogram: 2 0 1 1 0 0 2 0 0 2

Total # of neighbors = 142236
Ave neighs/atom = 519.10949
Ave special neighs/atom = 0
Neighbor list builds = 79
Dangerous builds = 0
  using 2 OpenMP thread(s) per MPI task
Reading restart file ...
  restart file = 2 Aug 2023, LAMMPS = 2 Aug 2023
  restoring atom style full from restart
  triclinic box = (0 0 0) to (15.4861 14.0699 16.771) with tilt (-7.3915 0.9919 1.0308)
WARNING: Triclinic box skew is large. LAMMPS will run inefficiently. (src/domain.cpp:220)
  2 by 2 by 2 MPI processor grid
  pair style reaxff stores no restart info
  274 atoms
Finding 1-2 1-3 1-4 neighbors ...
  special bond factors lj:    0        0        0       
  special bond factors coul:  0        0        0       
     0 = max # of 1-2 neighbors
     0 = max # of 1-3 neighbors
     0 = max # of 1-4 neighbors
     1 = max # of special neighbors
  special bonds CPU = 0.000 seconds
  read_restart CPU = 0.005 seconds
*****debug*****
xy = -7.3914999999999997371, deltaxy = 0.073915
xz = 0.99190000000000000391, deltaxz = -0.009919
yz = 1.0307999999999999385, deltayz = -0.010308
*****
*****Negative-deform 2 starts.*****
WARNING: Van der Waals parameters for element SI indicate inner wall+shielding, but earlier atoms indicate a different van der Waals method. This may cause division-by-zero errors. Keeping van der Waals setting for earlier atoms. (src/REAXFF/reaxff_ffield.cpp:251)
Neighbor list info ...
  update: every = 10 steps, delay = 0 steps, check = yes
  max neighbors/atom: 2000, page size: 100000
  master list distance cutoff = 12
  ghost atom cutoff = 12
  binsize = 6, bins = 4 3 3
  2 neighbor lists, perpetual/occasional/extra = 2 0 0
  (1) pair reaxff, perpetual
      attributes: half, newton off, ghost
      pair build: half/bin/newtoff/ghost
      stencil: full/ghost/bin/3d
      bin: standard
  (2) fix qeq/reaxff, perpetual, copy from (1)
      attributes: half, newton off
      pair build: copy
      stencil: none
      bin: none
Setting up Verlet run ...
  Unit style    : real
  Current step  : 0
  Time step     : 0.5
Per MPI rank memory allocation (min/avg/max) = 102.3 | 104.6 | 106.6 Mbytes
   Step          Temp          PotEng         Press          Volume    
         0   313.74632     -28691.336     -1287.3437      3654.1976    
       100   296.67187     -28694.755      1306.9648      3653.4668    
       200   288.55066     -28705.27      -1449.1537      3652.7359    
       300   287.94974     -28701.499     -3892.3215      3652.0051    
       400   305.00136     -28704.184     -901.43867      3651.2743    
       500   291.07797     -28686.871      3681.3439      3650.5434    
       600   306.53715     -28692.033     -2884.4347      3649.8126    
       700   340.77284     -28688.182     -13334.817      3649.0817    
       800   322.85227     -28675.238      615.65542      3648.3509    
       900   310.98029     -28697.023     -10180.187      3647.6201    
      1000   300.76628     -28701.834      13362.297      3646.8892    
      1100   302.63503     -28711.133     -3544.8909      3646.1584    
      1200   295.6536      -28706.807      3310.2463      3645.4275    
      1300   307.75116     -28695.437     -8890.2731      3644.6967    
      1400   310.27237     -28678.932      2897.6332      3643.9659    
      1500   317.62273     -28699.494     -10708.876      3643.235     
      1600   290.44405     -28698.318     -1757.1606      3642.5042    
      1700   301.43731     -28711.433     -8939.7503      3641.7733    
      1800   292.38384     -28708.613      1614.4775      3641.0425    
      1900   307.53286     -28707.682     -795.93678      3640.3117    
      2000   323.16981     -28692.131     -4396.793       3639.5808    
      2100   321.16739     -28693.994      15586.195      3638.85      
      2200   312.32735     -28707.791     -7310.0612      3638.1191    
      2300   284.66733     -28693.26      -9491.6599      3637.3883    
      2400   298.76805     -28710.73      -6479.6587      3636.6575    
      2500   306.53637     -28716.901     -14237.048      3635.9266    
      2600   289.40422     -28693.939     -5460.913       3635.1958    
      2700   310.20057     -28695.18      -6437.366       3634.4649    
      2800   335.40704     -28697.571     -4616.4575      3633.7341    
      2900   336.02441     -28691.234      7081.2664      3633.0033    
      3000   304.34804     -28703.175      7956.0642      3632.2724    
      3100   280.67318     -28697.271     -9456.8682      3631.5416    
      3200   289.61572     -28706.869     -3405.8832      3630.8107    
      3300   327.4213      -28726.894      3871.0402      3630.0799    
      3400   314.97886     -28706.005     -5048.7903      3629.3491    
      3500   306.4212      -28686.698     -4716.2826      3628.6182    
      3600   311.3987      -28703.105      244.11398      3627.8874    
      3700   296.48544     -28714.928     -2739.1267      3627.1565    
      3800   293.88448     -28715.405     -3522.458       3626.4257    
      3900   298.34389     -28701.954      233.92992      3625.6949    
      4000   307.71515     -28684.775     -4180.3581      3624.964     
      4100   312.91307     -28691.517     -12501.273      3624.2332    
      4200   307.11421     -28692.053     -11021.614      3623.5023    
      4300   319.40836     -28709.694     -12181.649      3622.7715    
      4400   285.67358     -28699.075      335.70689      3622.0407    
      4500   284.14483     -28710.167     -12881.014      3621.3098    
      4600   283.82142     -28707.858      3188.2161      3620.579     
      4700   308.52827     -28696.78      -225.78055      3619.8482    
      4800   324.04667     -28700.275     -1397.6262      3619.1173    
      4900   299.03881     -28698.169     -2027.247       3618.3865    
      5000   294.19731     -28709.381     -4744.2477      3617.6556    
Loop time of 160.436 on 16 procs for 5000 steps with 274 atoms

Performance: 1.346 ns/day, 17.826 hours/ns, 31.165 timesteps/s, 8.539 katom-step/s
98.8% CPU use with 8 MPI tasks x 2 OpenMP threads

MPI task timing breakdown:
Section |  min time  |  avg time  |  max time  |%varavg| %total
---------------------------------------------------------------
Pair    | 121        | 127.19     | 132.61     |  31.7 | 79.28
Bond    | 0.013823   | 0.01498    | 0.016493   |   0.7 |  0.01
Neigh   | 1.9305     | 1.9716     | 2.0161     |   2.4 |  1.23
Comm    | 10.098     | 15.542     | 21.738     |  91.1 |  9.69
Output  | 0.021909   | 0.0401     | 0.080155   |  11.7 |  0.02
Modify  | 15.372     | 15.418     | 15.475     |   1.0 |  9.61
Other   |            | 0.2583     |            |       |  0.16

Nlocal:          34.25 ave          42 max          26 min
Histogram: 1 0 1 0 2 1 1 0 1 1
Nghost:        2621.38 ave        2686 max        2555 min
Histogram: 2 0 0 1 1 0 2 0 0 2
Neighs:        18123.4 ave       22051 max       13961 min
Histogram: 1 0 1 0 3 1 0 0 1 1

Total # of neighbors = 144987
Ave neighs/atom = 529.14964
Ave special neighs/atom = 0
Neighbor list builds = 90
Dangerous builds = 0
  using 2 OpenMP thread(s) per MPI task
Reading restart file ...
  restart file = 2 Aug 2023, LAMMPS = 2 Aug 2023
  restoring atom style full from restart
  triclinic box = (0 0 0) to (15.4861 14.0699 16.771) with tilt (-7.3915 0.9919 1.0308)
WARNING: Triclinic box skew is large. LAMMPS will run inefficiently. (src/domain.cpp:220)
  2 by 2 by 2 MPI processor grid
  pair style reaxff stores no restart info
  274 atoms
Finding 1-2 1-3 1-4 neighbors ...
  special bond factors lj:    0        0        0       
  special bond factors coul:  0        0        0       
     0 = max # of 1-2 neighbors
     0 = max # of 1-3 neighbors
     0 = max # of 1-4 neighbors
     1 = max # of special neighbors
  special bonds CPU = 0.001 seconds
  read_restart CPU = 0.006 seconds
*****Positive-deform 2 starts.*****
WARNING: Van der Waals parameters for element SI indicate inner wall+shielding, but earlier atoms indicate a different van der Waals method. This may cause division-by-zero errors. Keeping van der Waals setting for earlier atoms. (src/REAXFF/reaxff_ffield.cpp:251)
Neighbor list info ...
  update: every = 10 steps, delay = 0 steps, check = yes
  max neighbors/atom: 2000, page size: 100000
  master list distance cutoff = 12
  ghost atom cutoff = 12
  binsize = 6, bins = 4 3 3
  2 neighbor lists, perpetual/occasional/extra = 2 0 0
  (1) pair reaxff, perpetual
      attributes: half, newton off, ghost
      pair build: half/bin/newtoff/ghost
      stencil: full/ghost/bin/3d
      bin: standard
  (2) fix qeq/reaxff, perpetual, copy from (1)
      attributes: half, newton off
      pair build: copy
      stencil: none
      bin: none
Setting up Verlet run ...
  Unit style    : real
  Current step  : 0
  Time step     : 0.5
Per MPI rank memory allocation (min/avg/max) = 102.3 | 104.6 | 106.6 Mbytes
   Step          Temp          PotEng         Press          Volume    
         0   313.74632     -28691.336     -1287.3437      3654.1976    
       100   296.71024     -28694.74       1306.7121      3654.9284    
       200   289.32439     -28705.629     -1836.9139      3655.6593    
       300   288.65682     -28701.685     -4822.0258      3656.3901    
       400   306.90495     -28705.615     -1711.6586      3657.121     
       500   292.7811      -28687.822     -872.77387      3657.8518    
       600   305.29656     -28690.738     -1280.0562      3658.5826    
       700   339.58277     -28690.59      -8764.5849      3659.3135    
       800   320.18507     -28674.584     -2313.1584      3660.0443    
       900   294.51049     -28683.93      -8125.3036      3660.7752    
      1000   304.30718     -28703.047      8283.6549      3661.506     
      1100   302.69978     -28707.196     -5252.6935      3662.2368    
      1200   303.89424     -28701.527      3663.8367      3662.9677    
      1300   319.76513     -28690.076     -6034.309       3663.6985    
      1400   320.77891     -28681.303      3130.897       3664.4294    
      1500   299.22107     -28691.557     -9272.2505      3665.1602    
      1600   308.71212     -28709.266     -1436.1004      3665.891     
      1700   296.62341     -28705.162      2818.3612      3666.6219    
      1800   288.89603     -28698.037     -6608.0106      3667.3527    
      1900   318.80634     -28697.612     -2055.7418      3668.0836    
      2000   325.30288     -28687.123     -5784.0296      3668.8144    
      2100   304.5665      -28682.079      3798.8815      3669.5452    
      2200   310.96045     -28709.124     -25533.5        3670.2761    
      2300   294.85513     -28697.823     -10993.771      3671.0069    
      2400   320.30654     -28714.106      683.84158      3671.7378    
      2500   314.52473     -28705.617     -20614.01       3672.4686    
      2600   279.9559      -28683.231      3197.8343      3673.1994    
      2700   300.27932     -28718.913     -11781.412      3673.9303    
      2800   284.67118     -28716.953     -520.72125      3674.6611    
      2900   288.53924     -28695.672     -1709.5386      3675.392     
      3000   301.33935     -28686.936     -4796.1252      3676.1228    
      3100   325.52133     -28713.124     -5288.691       3676.8536    
      3200   290.68409     -28701.57      -4829.8848      3677.5845    
      3300   298.88675     -28720.636     -6397.1704      3678.3153    
      3400   291.2098      -28708.805     -10573.712      3679.0462    
      3500   316.80607     -28696.245     -4596.1253      3679.777     
      3600   295.56402     -28674.381     -6380.9563      3680.5078    
      3700   307.92605     -28701.108     -11757.331      3681.2387    
      3800   290.08643     -28707.384     -6825.2767      3681.9695    
      3900   295.64499     -28709.834     -9917.4979      3682.7003    
      4000   301.96384     -28708.45      -4162.5502      3683.4312    
      4100   282.03643     -28684.916     -763.4067       3684.162     
      4200   309.92858     -28697.555     -3031.1076      3684.8929    
      4300   322.60561     -28683.847     -9192.2792      3685.6237    
      4400   325.36733     -28685.103      10899.565      3686.3545    
      4500   303.23557     -28698.305      7587.6694      3687.0854    
      4600   286.98233     -28692.545      3542.1976      3687.8162    
      4700   295.23172     -28700.53       1860.5121      3688.5471    
      4800   325.51979     -28714.603     -11177.916      3689.2779    
      4900   293.70818     -28664.03      -12155.831      3690.0087    
      5000   320.68199     -28682.247     -12103.913      3690.7396    
Loop time of 158.543 on 16 procs for 5000 steps with 274 atoms

Performance: 1.362 ns/day, 17.616 hours/ns, 31.537 timesteps/s, 8.641 katom-step/s
98.8% CPU use with 8 MPI tasks x 2 OpenMP threads

MPI task timing breakdown:
Section |  min time  |  avg time  |  max time  |%varavg| %total
---------------------------------------------------------------
Pair    | 113.96     | 124.49     | 136.36     |  54.5 | 78.52
Bond    | 0.013757   | 0.014957   | 0.016366   |   0.7 |  0.01
Neigh   | 1.7539     | 1.911      | 2.0266     |   5.7 |  1.21
Comm    | 4.6365     | 16.495     | 26.96      | 149.2 | 10.40
Output  | 0.023905   | 0.042562   | 0.084513   |  11.7 |  0.03
Modify  | 15.178     | 15.315     | 15.432     |   1.9 |  9.66
Other   |            | 0.274      |            |       |  0.17

Nlocal:          34.25 ave          42 max          27 min
Histogram: 2 0 0 0 2 0 3 0 0 1
Nghost:        2578.12 ave        2617 max        2523 min
Histogram: 1 1 0 1 1 0 0 1 1 2
Neighs:        17763.8 ave       21599 max       14187 min
Histogram: 2 0 0 1 1 0 3 0 0 1

Total # of neighbors = 142110
Ave neighs/atom = 518.64964
Ave special neighs/atom = 0
Neighbor list builds = 90
Dangerous builds = 0
  using 2 OpenMP thread(s) per MPI task
Reading restart file ...
  restart file = 2 Aug 2023, LAMMPS = 2 Aug 2023
  restoring atom style full from restart
  triclinic box = (0 0 0) to (15.4861 14.0699 16.771) with tilt (-7.3915 0.9919 1.0308)
WARNING: Triclinic box skew is large. LAMMPS will run inefficiently. (src/domain.cpp:220)
  2 by 2 by 2 MPI processor grid
  pair style reaxff stores no restart info
  274 atoms
Finding 1-2 1-3 1-4 neighbors ...
  special bond factors lj:    0        0        0       
  special bond factors coul:  0        0        0       
     0 = max # of 1-2 neighbors
     0 = max # of 1-3 neighbors
     0 = max # of 1-4 neighbors
     1 = max # of special neighbors
  special bonds CPU = 0.000 seconds
  read_restart CPU = 0.004 seconds
*****debug*****
xy = -7.3914999999999997371, deltaxy = 0.073915
xz = 0.99190000000000000391, deltaxz = -0.009919
yz = 1.0307999999999999385, deltayz = -0.010308
*****
*****Negative-deform 3 starts.*****
WARNING: Van der Waals parameters for element SI indicate inner wall+shielding, but earlier atoms indicate a different van der Waals method. This may cause division-by-zero errors. Keeping van der Waals setting for earlier atoms. (src/REAXFF/reaxff_ffield.cpp:251)
Neighbor list info ...
  update: every = 10 steps, delay = 0 steps, check = yes
  max neighbors/atom: 2000, page size: 100000
  master list distance cutoff = 12
  ghost atom cutoff = 12
  binsize = 6, bins = 4 3 3
  2 neighbor lists, perpetual/occasional/extra = 2 0 0
  (1) pair reaxff, perpetual
      attributes: half, newton off, ghost
      pair build: half/bin/newtoff/ghost
      stencil: full/ghost/bin/3d
      bin: standard
  (2) fix qeq/reaxff, perpetual, copy from (1)
      attributes: half, newton off
      pair build: copy
      stencil: none
      bin: none
Setting up Verlet run ...
  Unit style    : real
  Current step  : 0
  Time step     : 0.5
Per MPI rank memory allocation (min/avg/max) = 102.3 | 104.6 | 106.6 Mbytes
   Step          Temp          PotEng         Press          Volume    
         0   313.74632     -28691.336     -1287.3437      3654.1976    
       100   296.69289     -28694.743      1303.2813      3653.4668    
       200   288.9286      -28705.584     -1452.0468      3652.7359    
       300   287.95021     -28701.552     -3952.9087      3652.0051    
       400   305.84272     -28705.199     -1313.6216      3651.2743    
       500   294.83915     -28690.115     -2041.8058      3650.5434    
       600   306.21954     -28692.823     -3166.8961      3649.8126    
       700   337.41488     -28688.693     -13889.659      3649.0817    
       800   328.42634     -28681.538      600.65172      3648.3509    
       900   298.76936     -28688.165     -11634.014      3647.6201    
      1000   308.41175     -28706.909      6068.7526      3646.8892    
      1100   302.61776     -28709.661     -3065.0709      3646.1584    
      1200   307.37849     -28713.921      637.64988      3645.4275    
      1300   305.31052     -28695.703      3866.2465      3644.6967    
      1400   312.62013     -28681.629     -3728.0969      3643.9659    
      1500   290.59463     -28678.464     -1221.1699      3643.235     
      1600   314.45132     -28719.801     -1066.4493      3642.5042    
      1700   299.9981      -28716.023      925.3329       3641.7733    
      1800   285.5884      -28702.155      2387.0632      3641.0425    
      1900   311.95891     -28711.154     -1523.4861      3640.3117    
      2000   336.02419     -28706.166     -8253.6724      3639.5808    
      2100   317.11434     -28673.656     -4195.1711      3638.85      
      2200   312.64917     -28684.234     -2536.3093      3638.1191    
      2300   291.02907     -28697.565     -5762.7044      3637.3883    
      2400   289.23426     -28704.762     -1015.9415      3636.6575    
      2500   276.88654     -28700.904     -9044.2183      3635.9266    
      2600   290.62557     -28702.601     -3967.4739      3635.1958    
      2700   306.38685     -28691.454     -4646.0818      3634.4649    
      2800   316.52313     -28687.125      6513.6458      3633.7341    
      2900   312.19163     -28700.639     -7329.9603      3633.0033    
      3000   296.1107      -28716.772      411.23645      3632.2724    
      3100   291.97253     -28706.758      2592.3093      3631.5416    
      3200   299.95948     -28697.855     -22357.681      3630.8107    
      3300   294.66517     -28687.746     -13341.077      3630.0799    
      3400   309.53783     -28684.641     -7217.754       3629.3491    
      3500   322.10891     -28683.326     -1934.1614      3628.6182    
      3600   300.81726     -28683.385     -21508.877      3627.8874    
      3700   294.34139     -28705.516     -5834.5026      3627.1565    
      3800   272.35653     -28696.599     -10563.543      3626.4257    
      3900   290.67248     -28702.049     -10388.863      3625.6949    
      4000   320.48192     -28705.286     -348.03467      3624.964     
      4100   320.27768     -28706.957      3373.3224      3624.2332    
      4200   288.2046      -28690.034     -7588.1378      3623.5023    
      4300   284.44276     -28694.658     -6215.1351      3622.7715    
      4400   323.16327     -28720.647     -7112.1984      3622.0407    
      4500   331.50901     -28709.582     -13773.928      3621.3098    
      4600   326.53518     -28682.411     -9018.8697      3620.579     
      4700   334.18355     -28701.331      7405.96        3619.8482    
      4800   298.18722     -28697.971      2772.3206      3619.1173    
      4900   299.53213     -28698.921     -10629.051      3618.3865    
      5000   304.88503     -28702.506     -2680.7756      3617.6556    
Loop time of 160.701 on 16 procs for 5000 steps with 274 atoms

Performance: 1.344 ns/day, 17.856 hours/ns, 31.114 timesteps/s, 8.525 katom-step/s
98.7% CPU use with 8 MPI tasks x 2 OpenMP threads

MPI task timing breakdown:
Section |  min time  |  avg time  |  max time  |%varavg| %total
---------------------------------------------------------------
Pair    | 120.54     | 126.88     | 131.47     |  29.9 | 78.95
Bond    | 0.013665   | 0.015008   | 0.016591   |   0.7 |  0.01
Neigh   | 1.8036     | 1.8524     | 1.8921     |   1.9 |  1.15
Comm    | 11.526     | 16.142     | 22.492     |  84.0 | 10.04
Output  | 0.023814   | 0.042042   | 0.082594   |  11.5 |  0.03
Modify  | 15.399     | 15.483     | 15.549     |   1.3 |  9.63
Other   |            | 0.2864     |            |       |  0.18

Nlocal:          34.25 ave          41 max          29 min
Histogram: 2 2 0 0 0 1 1 0 0 2
Nghost:        2591.75 ave        2628 max        2559 min
Histogram: 3 0 1 0 0 0 1 0 1 2
Neighs:        18124.2 ave       21503 max       15444 min
Histogram: 2 1 1 0 0 1 1 0 0 2

Total # of neighbors = 144994
Ave neighs/atom = 529.17518
Ave special neighs/atom = 0
Neighbor list builds = 85
Dangerous builds = 0
  using 2 OpenMP thread(s) per MPI task
Reading restart file ...
  restart file = 2 Aug 2023, LAMMPS = 2 Aug 2023
  restoring atom style full from restart
  triclinic box = (0 0 0) to (15.4861 14.0699 16.771) with tilt (-7.3915 0.9919 1.0308)
WARNING: Triclinic box skew is large. LAMMPS will run inefficiently. (src/domain.cpp:220)
  2 by 2 by 2 MPI processor grid
  pair style reaxff stores no restart info
  274 atoms
Finding 1-2 1-3 1-4 neighbors ...
  special bond factors lj:    0        0        0       
  special bond factors coul:  0        0        0       
     0 = max # of 1-2 neighbors
     0 = max # of 1-3 neighbors
     0 = max # of 1-4 neighbors
     1 = max # of special neighbors
  special bonds CPU = 0.000 seconds
  read_restart CPU = 0.004 seconds
*****Positive-deform 3 starts.*****
WARNING: Van der Waals parameters for element SI indicate inner wall+shielding, but earlier atoms indicate a different van der Waals method. This may cause division-by-zero errors. Keeping van der Waals setting for earlier atoms. (src/REAXFF/reaxff_ffield.cpp:251)
Neighbor list info ...
  update: every = 10 steps, delay = 0 steps, check = yes
  max neighbors/atom: 2000, page size: 100000
  master list distance cutoff = 12
  ghost atom cutoff = 12
  binsize = 6, bins = 4 3 3
  2 neighbor lists, perpetual/occasional/extra = 2 0 0
  (1) pair reaxff, perpetual
      attributes: half, newton off, ghost
      pair build: half/bin/newtoff/ghost
      stencil: full/ghost/bin/3d
      bin: standard
  (2) fix qeq/reaxff, perpetual, copy from (1)
      attributes: half, newton off
      pair build: copy
      stencil: none
      bin: none
Setting up Verlet run ...
  Unit style    : real
  Current step  : 0
  Time step     : 0.5
Per MPI rank memory allocation (min/avg/max) = 102.3 | 104.6 | 106.6 Mbytes
   Step          Temp          PotEng         Press          Volume    
         0   313.74632     -28691.336     -1287.3437      3654.1976    
       100   296.68905     -28694.752      1310.3254      3654.9284    
       200   288.85692     -28705.201     -1803.5839      3655.6593    
       300   288.011       -28701.077     -4785.5805      3656.3901    
       400   306.77259     -28705.2       -2710.085       3657.121     
       500   295.21315     -28689.688     -2128.234       3657.8518    
       600   303.39475     -28689.379     -5576.7954      3658.5826    
       700   336.4552      -28689.014     -13549.94       3659.3135    
       800   320.38403     -28677.333      1624.6947      3660.0443    
       900   302.98845     -28692.997     -5600.1979      3660.7752    
      1000   305.04082     -28705.914      3502.9557      3661.506     
      1100   297.52672     -28705.034     -9241.2493      3662.2368    
      1200   315.51415     -28711.41      -618.46205      3662.9677    
      1300   302.68906     -28671.607      2932.9253      3663.6985    
      1400   326.33371     -28686.889      4671.615       3664.4294    
      1500   306.8521      -28690.04       2461.2316      3665.1602    
      1600   294.28639     -28688.651      1574.0455      3665.891     
      1700   308.38827     -28712.969     -9554.5301      3666.6219    
      1800   269.37967     -28693.086      2880.7169      3667.3527    
      1900   293.1495      -28707.454     -9321.2116      3668.0836    
      2000   329.09784     -28702.48      -572.08456      3668.8144    
      2100   321.93569     -28688.282      2618.2129      3669.5452    
      2200   297.50743     -28687.655     -1129.0672      3670.2761    
      2300   296.41864     -28700.473     -5339.3792      3671.0069    
      2400   298.34906     -28705.367     -7292.5454      3671.7378    
      2500   299.57225     -28697.966     -12313.075      3672.4686    
      2600   324.06267     -28685.793      12187.167      3673.1994    
      2700   303.78764     -28667.403      19174.47       3673.9303    
      2800   291.0963      -28682.684     -9331.8642      3674.6611    
      2900   289.81514     -28693.068      1833.4635      3675.392     
      3000   300.80361     -28704.299      4260.0431      3676.1228    
      3100   302.21042     -28703.605     -11763.676      3676.8536    
      3200   309.60258     -28687.953     -5803.3653      3677.5845    
      3300   316.61923     -28669.728     -1893.8462      3678.3153    
      3400   328.78391     -28697.806      734.23141      3679.0462    
      3500   315.24965     -28709.157     -9070.1699      3679.777     
      3600   288.43066     -28693.274     -14477.814      3680.5078    
      3700   299.04117     -28698.31      -12975.083      3681.2387    
      3800   328.39998     -28702.068      877.44896      3681.9695    
      3900   317.57101     -28678.132      586.24599      3682.7003    
      4000   306.3857      -28692.349     -1015.1437      3683.4312    
      4100   298.70704     -28709.966      163.24903      3684.162     
      4200   285.67532     -28696.018     -5622.248       3684.8929    
      4300   285.64233     -28675.896     -13873.666      3685.6237    
      4400   328.45431     -28697.985     -16524.409      3686.3545    
      4500   308.18924     -28690.117     -10968.012      3687.0854    
      4600   285.93134     -28696.35      -12087.422      3687.8162    
      4700   280.49686     -28707.057     -11050.628      3688.5471    
      4800   298.35088     -28715.888     -7274.064       3689.2779    
      4900   289.72113     -28694.082     -14635.769      3690.0087    
      5000   303.67397     -28689.043     -5595.0348      3690.7396    
Loop time of 158.196 on 16 procs for 5000 steps with 274 atoms

Performance: 1.365 ns/day, 17.577 hours/ns, 31.606 timesteps/s, 8.660 katom-step/s
98.8% CPU use with 8 MPI tasks x 2 OpenMP threads

MPI task timing breakdown:
Section |  min time  |  avg time  |  max time  |%varavg| %total
---------------------------------------------------------------
Pair    | 111.2      | 124.69     | 138.7      |  67.5 | 78.82
Bond    | 0.013641   | 0.01502    | 0.0167     |   0.7 |  0.01
Neigh   | 1.6455     | 1.7596     | 1.8607     |   4.8 |  1.11
Comm    | 2.2517     | 16.247     | 29.711     | 186.9 | 10.27
Output  | 0.020277   | 0.038224   | 0.079014   |  11.9 |  0.02
Modify  | 15.149     | 15.216     | 15.31      |   1.5 |  9.62
Other   |            | 0.2267     |            |       |  0.14

Nlocal:          34.25 ave          39 max          28 min
Histogram: 2 0 0 0 0 2 1 0 1 2
Nghost:        2595.12 ave        2635 max        2544 min
Histogram: 1 0 1 1 1 0 0 2 0 2
Neighs:        17737.5 ave       20073 max       14725 min
Histogram: 2 0 0 0 0 3 0 0 1 2

Total # of neighbors = 141900
Ave neighs/atom = 517.88321
Ave special neighs/atom = 0
Neighbor list builds = 82
Dangerous builds = 0
  using 2 OpenMP thread(s) per MPI task
Reading restart file ...
  restart file = 2 Aug 2023, LAMMPS = 2 Aug 2023
  restoring atom style full from restart
  triclinic box = (0 0 0) to (15.4861 14.0699 16.771) with tilt (-7.3915 0.9919 1.0308)
WARNING: Triclinic box skew is large. LAMMPS will run inefficiently. (src/domain.cpp:220)
  2 by 2 by 2 MPI processor grid
  pair style reaxff stores no restart info
  274 atoms
Finding 1-2 1-3 1-4 neighbors ...
  special bond factors lj:    0        0        0       
  special bond factors coul:  0        0        0       
     0 = max # of 1-2 neighbors
     0 = max # of 1-3 neighbors
     0 = max # of 1-4 neighbors
     1 = max # of special neighbors
  special bonds CPU = 0.000 seconds
  read_restart CPU = 0.003 seconds
*****debug*****
xy = -7.3914999999999997371, deltaxy = 0.073915
xz = 0.99190000000000000391, deltaxz = -0.009919
yz = 1.0307999999999999385, deltayz = -0.010308
*****
*****Negative-deform 4 starts.*****
WARNING: Van der Waals parameters for element SI indicate inner wall+shielding, but earlier atoms indicate a different van der Waals method. This may cause division-by-zero errors. Keeping van der Waals setting for earlier atoms. (src/REAXFF/reaxff_ffield.cpp:251)
Neighbor list info ...
  update: every = 10 steps, delay = 0 steps, check = yes
  max neighbors/atom: 2000, page size: 100000
  master list distance cutoff = 12
  ghost atom cutoff = 12
  binsize = 6, bins = 4 3 3
  2 neighbor lists, perpetual/occasional/extra = 2 0 0
  (1) pair reaxff, perpetual
      attributes: half, newton off, ghost
      pair build: half/bin/newtoff/ghost
      stencil: full/ghost/bin/3d
      bin: standard
  (2) fix qeq/reaxff, perpetual, copy from (1)
      attributes: half, newton off
      pair build: copy
      stencil: none
      bin: none
Setting up Verlet run ...
  Unit style    : real
  Current step  : 0
  Time step     : 0.5
Per MPI rank memory allocation (min/avg/max) = 102.3 | 104.6 | 106.6 Mbytes
   Step          Temp          PotEng         Press          Volume    
         0   313.74632     -28691.336     -1287.3437      3654.1976    
       100   296.68594     -28694.745      1309.4366      3654.1976    
       200   288.96817     -28705.355     -1651.6914      3654.1976    
       300   288.17737     -28701.407     -4403.0049      3654.1976    
       400   306.38344     -28705.361     -1942.4722      3654.1976    
       500   295.1975      -28689.999     -1986.0299      3654.1976    
       600   305.33645     -28691.566     -1897.6984      3654.1976    
       700   337.21448     -28688.047     -14131.694      3654.1976    
       800   325.54849     -28679.395      2286.5216      3654.1976    
       900   292.72666     -28683.635     -14913.148      3654.1976    
      1000   308.33985     -28707.507      5514.1804      3654.1976    
      1100   307.22068     -28715.845     -9539.717       3654.1976    
      1200   288.33504     -28703.314      6535.7782      3654.1976    
      1300   309.50398     -28701.135     -8045.8841      3654.1976    
      1400   308.23063     -28677.969      6462.4764      3654.1976    
      1500   280.64576     -28666.219     -16387.576      3654.1976    
      1600   311.7179      -28710.549     -1797.0296      3654.1976    
      1700   277.89964     -28695.889     -3362.5418      3654.1976    
      1800   284.92674     -28698.102      907.54958      3654.1976    
      1900   316.94867     -28712.018      4194.5862      3654.1976    
      2000   314.94616     -28700.824      14435.417      3654.1976    
      2100   317.62648     -28708.684      11430.079      3654.1976    
      2200   291.54203     -28718.29      -9272.3587      3654.1976    
      2300   284.10642     -28713.259     -16485.38       3654.1976    
      2400   301.08344     -28706.451     -10382.879      3654.1976    
      2500   312.73414     -28701.974     -16008.517      3654.1976    
      2600   290.53042     -28688.178     -1890.5653      3654.1976    
      2700   299.65728     -28697.323      16509.946      3654.1976    
      2800   298.62305     -28699.118      8283.9868      3654.1976    
      2900   301.49236     -28713.33      -19756.227      3654.1976    
      3000   279.83046     -28710.935     -9603.6645      3654.1976    
      3100   275.56082     -28698.705     -11473.593      3654.1976    
      3200   307.7818      -28700.984     -6535.1824      3654.1976    
      3300   311.06893     -28697.625     -4531.2909      3654.1976    
      3400   309.63806     -28700.831     -11656.964      3654.1976    
      3500   301.79405     -28728.835      3881.052       3654.1976    
      3600   272.93056     -28712.194     -7137.4501      3654.1976    
      3700   285.20074     -28706.613      1400.7877      3654.1976    
      3800   288.5279      -28689.26       3431.2998      3654.1976    
      3900   327.87927     -28713.765     -7400.5068      3654.1976    
      4000   287.71347     -28693.456     -11714.763      3654.1976    
      4100   302.14404     -28721.883      5050.1003      3654.1976    
      4200   247.1405      -28695.846     -11380.266      3654.1976    
      4300   253.81298     -28724.818      13784.885      3654.1976    
      4400   297.64327     -28736.83      -2492.0362      3654.1976    
      4500   296.4225      -28715.369      1870.956       3654.1976    
      4600   306.96257     -28705.126     -3910.2661      3654.1976    
      4700   294.4473      -28680.172     -16225.411      3654.1976    
      4800   283.40205     -28667.459      553.67706      3654.1976    
      4900   312.61547     -28694.516     -6737.2951      3654.1976    
      5000   292.5951      -28706.06      -17531.473      3654.1976    
Loop time of 159.987 on 16 procs for 5000 steps with 274 atoms

Performance: 1.350 ns/day, 17.776 hours/ns, 31.253 timesteps/s, 8.563 katom-step/s
98.8% CPU use with 8 MPI tasks x 2 OpenMP threads

MPI task timing breakdown:
Section |  min time  |  avg time  |  max time  |%varavg| %total
---------------------------------------------------------------
Pair    | 119.7      | 126.56     | 131.89     |  38.4 | 79.10
Bond    | 0.013721   | 0.015078   | 0.016934   |   0.8 |  0.01
Neigh   | 1.8284     | 1.895      | 1.9826     |   3.2 |  1.18
Comm    | 10.521     | 15.862     | 22.771     | 108.7 |  9.91
Output  | 0.027138   | 0.045641   | 0.087208   |  11.2 |  0.03
Modify  | 15.252     | 15.362     | 15.422     |   1.3 |  9.60
Other   |            | 0.2506     |            |       |  0.16

Nlocal:          34.25 ave          43 max          27 min
Histogram: 1 0 1 2 1 1 0 1 0 1
Nghost:        2597.25 ave        2645 max        2545 min
Histogram: 1 1 0 0 1 0 3 0 1 1
Neighs:        17922.9 ave       22253 max       14291 min
Histogram: 1 0 1 2 2 0 0 1 0 1

Total # of neighbors = 143383
Ave neighs/atom = 523.29562
Ave special neighs/atom = 0
Neighbor list builds = 88
Dangerous builds = 0
  using 2 OpenMP thread(s) per MPI task
Reading restart file ...
  restart file = 2 Aug 2023, LAMMPS = 2 Aug 2023
  restoring atom style full from restart
  triclinic box = (0 0 0) to (15.4861 14.0699 16.771) with tilt (-7.3915 0.9919 1.0308)
WARNING: Triclinic box skew is large. LAMMPS will run inefficiently. (src/domain.cpp:220)
  2 by 2 by 2 MPI processor grid
  pair style reaxff stores no restart info
  274 atoms
Finding 1-2 1-3 1-4 neighbors ...
  special bond factors lj:    0        0        0       
  special bond factors coul:  0        0        0       
     0 = max # of 1-2 neighbors
     0 = max # of 1-3 neighbors
     0 = max # of 1-4 neighbors
     1 = max # of special neighbors
  special bonds CPU = 0.002 seconds
  read_restart CPU = 0.007 seconds
*****Positive-deform 4 starts.*****
WARNING: Van der Waals parameters for element SI indicate inner wall+shielding, but earlier atoms indicate a different van der Waals method. This may cause division-by-zero errors. Keeping van der Waals setting for earlier atoms. (src/REAXFF/reaxff_ffield.cpp:251)
Neighbor list info ...
  update: every = 10 steps, delay = 0 steps, check = yes
  max neighbors/atom: 2000, page size: 100000
  master list distance cutoff = 12
  ghost atom cutoff = 12
  binsize = 6, bins = 4 3 3
  2 neighbor lists, perpetual/occasional/extra = 2 0 0
  (1) pair reaxff, perpetual
      attributes: half, newton off, ghost
      pair build: half/bin/newtoff/ghost
      stencil: full/ghost/bin/3d
      bin: standard
  (2) fix qeq/reaxff, perpetual, copy from (1)
      attributes: half, newton off
      pair build: copy
      stencil: none
      bin: none
Setting up Verlet run ...
  Unit style    : real
  Current step  : 0
  Time step     : 0.5
Per MPI rank memory allocation (min/avg/max) = 102.3 | 104.6 | 106.6 Mbytes
   Step          Temp          PotEng         Press          Volume    
         0   313.74632     -28691.336     -1287.3437      3654.1976    
       100   296.69607     -28694.751      1304.1079      3654.1976    
       200   288.81709     -28705.486     -1619.099       3654.1976    
       300   287.67894     -28701.253     -4362.4058      3654.1976    
       400   306.16556     -28705.105     -1948.2176      3654.1976    
       500   295.08703     -28690.144     -2280.7991      3654.1976    
       600   304.9051      -28691.304     -2196.1701      3654.1976    
       700   337.08483     -28690.753     -12288.85       3654.1976    
       800   325.30982     -28679.485     -1310.1987      3654.1976    
       900   304.62881     -28693.119     -10915.739      3654.1976    
      1000   308.87448     -28710.568      2892.919       3654.1976    
      1100   301.28809     -28711.575     -6608.0062      3654.1976    
      1200   291.54991     -28697.852     -285.69671      3654.1976    
      1300   309.7429      -28684.785     -4851.8354      3654.1976    
      1400   305.21842     -28670.549     -596.47736      3654.1976    
      1500   302.26631     -28681.27      -6702.0393      3654.1976    
      1600   314.90343     -28701.337     -1491.1133      3654.1976    
      1700   286.11005     -28683.782     -10228.967      3654.1976    
      1800   297.20679     -28706.377      1608.5723      3654.1976    
      1900   287.69658     -28713.521     -1317.2625      3654.1976    
      2000   296.13476     -28721.912      1353.6642      3654.1976    
      2100   300.69635     -28691.385     -892.39953      3654.1976    
      2200   319.37166     -28697.92      -4406.8934      3654.1976    
      2300   327.02669     -28718.664     -6235.5809      3654.1976    
      2400   284.16885     -28704.913     -3379.7042      3654.1976    
      2500   277.49262     -28701.194     -18957.275      3654.1976    
      2600   303.20246     -28711.411     -11101.387      3654.1976    
      2700   288.55986     -28697.171     -427.92995      3654.1976    
      2800   299.85989     -28699.053     -7059.6683      3654.1976    
      2900   318.04038     -28700.656     -5441.0784      3654.1976    
      3000   308.77918     -28690.424     -20739.159      3654.1976    
      3100   264.4235      -28684.468     -1902.286       3654.1976    
      3200   286.53601     -28704.758     -4979.0048      3654.1976    
      3300   314.24839     -28706.336     -7756.1632      3654.1976    
      3400   307.78091     -28690.796     -3739.9485      3654.1976    
      3500   318.32369     -28708.921      3966.765       3654.1976    
      3600   292.94091     -28695.344     -6921.5049      3654.1976    
      3700   294.25532     -28699.784     -4593.5486      3654.1976    
      3800   300.10577     -28708.315     -2334.5158      3654.1976    
      3900   291.04994     -28712.558     -6531.4983      3654.1976    
      4000   296.29772     -28733.421     -1580.242       3654.1976    
      4100   282.86652     -28713.116      2347.8029      3654.1976    
      4200   291.02065     -28693.256     -4370.3829      3654.1976    
      4300   305.80353     -28694.177     -8997.4131      3654.1976    
      4400   315.30964     -28705.576     -9369.4277      3654.1976    
      4500   298.04075     -28705.299     -7849.101       3654.1976    
      4600   280.48212     -28715.288     -9027.2016      3654.1976    
      4700   272.03925     -28701.682     -6641.9164      3654.1976    
      4800   322.25592     -28711.513      4032.917       3654.1976    
      4900   309.609       -28700.018      1118.3278      3654.1976    
      5000   269.54113     -28672.753     -6288.0926      3654.1976    
Loop time of 159.977 on 16 procs for 5000 steps with 274 atoms

Performance: 1.350 ns/day, 17.775 hours/ns, 31.254 timesteps/s, 8.564 katom-step/s
98.7% CPU use with 8 MPI tasks x 2 OpenMP threads

MPI task timing breakdown:
Section |  min time  |  avg time  |  max time  |%varavg| %total
---------------------------------------------------------------
Pair    | 122.27     | 127.93     | 136.48     |  43.1 | 79.97
Bond    | 0.013771   | 0.015016   | 0.016483   |   0.7 |  0.01
Neigh   | 1.8408     | 1.9525     | 2.0063     |   3.8 |  1.22
Comm    | 5.7694     | 14.365     | 20.05      | 128.8 |  8.98
Output  | 0.022774   | 0.041642   | 0.082771   |  11.9 |  0.03
Modify  | 15.308     | 15.42      | 15.564     |   1.9 |  9.64
Other   |            | 0.2522     |            |       |  0.16

Nlocal:          34.25 ave          40 max          26 min
Histogram: 2 0 0 0 0 1 1 2 0 2
Nghost:         2614.5 ave        2691 max        2534 min
Histogram: 1 0 0 2 1 0 2 1 0 1
Neighs:        17971.1 ave       20888 max       13859 min
Histogram: 2 0 0 0 0 0 2 2 0 2

Total # of neighbors = 143769
Ave neighs/atom = 524.70438
Ave special neighs/atom = 0
Neighbor list builds = 89
Dangerous builds = 0
  using 2 OpenMP thread(s) per MPI task
Reading restart file ...
  restart file = 2 Aug 2023, LAMMPS = 2 Aug 2023
  restoring atom style full from restart
  triclinic box = (0 0 0) to (15.4861 14.0699 16.771) with tilt (-7.3915 0.9919 1.0308)
WARNING: Triclinic box skew is large. LAMMPS will run inefficiently. (src/domain.cpp:220)
  2 by 2 by 2 MPI processor grid
  pair style reaxff stores no restart info
  274 atoms
Finding 1-2 1-3 1-4 neighbors ...
  special bond factors lj:    0        0        0       
  special bond factors coul:  0        0        0       
     0 = max # of 1-2 neighbors
     0 = max # of 1-3 neighbors
     0 = max # of 1-4 neighbors
     1 = max # of special neighbors
  special bonds CPU = 0.000 seconds
  read_restart CPU = 0.003 seconds
*****debug*****
xy = -7.3914999999999997371, deltaxy = 0.073915
xz = 0.99190000000000000391, deltaxz = -0.009919
yz = 1.0307999999999999385, deltayz = -0.010308
*****
*****Negative-deform 5 starts.*****
WARNING: Van der Waals parameters for element SI indicate inner wall+shielding, but earlier atoms indicate a different van der Waals method. This may cause division-by-zero errors. Keeping van der Waals setting for earlier atoms. (src/REAXFF/reaxff_ffield.cpp:251)
Neighbor list info ...
  update: every = 10 steps, delay = 0 steps, check = yes
  max neighbors/atom: 2000, page size: 100000
  master list distance cutoff = 12
  ghost atom cutoff = 12
  binsize = 6, bins = 4 3 3
  2 neighbor lists, perpetual/occasional/extra = 2 0 0
  (1) pair reaxff, perpetual
      attributes: half, newton off, ghost
      pair build: half/bin/newtoff/ghost
      stencil: full/ghost/bin/3d
      bin: standard
  (2) fix qeq/reaxff, perpetual, copy from (1)
      attributes: half, newton off
      pair build: copy
      stencil: none
      bin: none
Setting up Verlet run ...
  Unit style    : real
  Current step  : 0
  Time step     : 0.5
Per MPI rank memory allocation (min/avg/max) = 102.3 | 104.6 | 106.6 Mbytes
   Step          Temp          PotEng         Press          Volume    
         0   313.74632     -28691.336     -1287.3437      3654.1976    
       100   296.68594     -28694.754      1303.6852      3654.1976    
       200   288.8637      -28705.343     -1592.4949      3654.1976    
       300   287.73958     -28701.085     -4399.8252      3654.1976    
       400   306.35125     -28705.142     -2046.6625      3654.1976    
       500   295.14306     -28689.874     -2095.1994      3654.1976    
       600   305.50481     -28692.113     -4398.9558      3654.1976    
       700   336.36965     -28691.06      -13796.641      3654.1976    
       800   321.55303     -28677.548      26.606916      3654.1976    
       900   300.48235     -28690.461     -5532.2081      3654.1976    
      1000   304.18972     -28706.941      678.13092      3654.1976    
      1100   301.66122     -28711.378     -7587.7704      3654.1976    
      1200   292.20661     -28700.272      1717.6272      3654.1976    
      1300   309.59276     -28686.344     -1153.3091      3654.1976    
      1400   319.31674     -28678.876     -2560.792       3654.1976    
      1500   299.52845     -28677.884     -8003.4226      3654.1976    
      1600   307.03204     -28698.319      3986.1544      3654.1976    
      1700   293.29818     -28693.273      362.6528       3654.1976    
      1800   289.7905      -28699.218      2765.0167      3654.1976    
      1900   295.79996     -28699.452     -6923.1993      3654.1976    
      2000   331.87545     -28693.001     -9215.8579      3654.1976    
      2100   300.64594     -28668.851      12854.255      3654.1976    
      2200   311.3466      -28700.065     -2933.8444      3654.1976    
      2300   300.87154     -28706.978     -3935.2087      3654.1976    
      2400   292.61256     -28704.053     -673.1155       3654.1976    
      2500   319.1425      -28728.783     -11380.864      3654.1976    
      2600   323.43165     -28731.363     -6180.4829      3654.1976    
      2700   292.44506     -28691.388     -12668.898      3654.1976    
      2800   317.45331     -28693.744     -9615.2006      3654.1976    
      2900   310.05156     -28687.469     -12638.631      3654.1976    
      3000   294.33631     -28693.376     -2318.8144      3654.1976    
      3100   292.11002     -28714.017     -2111.7513      3654.1976    
      3200   292.92441     -28715.392     -13098.554      3654.1976    
      3300   297.00019     -28701.246      2899.2652      3654.1976    
      3400   303.43238     -28689.324      339.61414      3654.1976    
      3500   307.63811     -28691.542     -6339.2284      3654.1976    
      3600   296.79144     -28692.81      -14034.779      3654.1976    
      3700   304.31348     -28715.025     -13708.453      3654.1976    
      3800   284.57838     -28715.766     -14121.599      3654.1976    
      3900   273.38526     -28714.498      61.700206      3654.1976    
      4000   300.86639     -28711.339     -8342.3272      3654.1976    
      4100   295.17931     -28681.385      446.71325      3654.1976    
      4200   321.95828     -28695.679     -6494.3224      3654.1976    
      4300   293.08205     -28680.344     -12551.938      3654.1976    
      4400   276.33339     -28694.211      9898.1806      3654.1976    
      4500   298.41494     -28717.537     -500.13189      3654.1976    
      4600   284.33899     -28697.91      -888.08993      3654.1976    
      4700   311.3406      -28717.515     -9609.4015      3654.1976    
      4800   282.48907     -28691.677     -9117.5555      3654.1976    
      4900   315.63719     -28710.459     -8060.7398      3654.1976    
      5000   298.7402      -28690.845     -14527.725      3654.1976    
Loop time of 159.097 on 16 procs for 5000 steps with 274 atoms

Performance: 1.358 ns/day, 17.677 hours/ns, 31.427 timesteps/s, 8.611 katom-step/s
98.7% CPU use with 8 MPI tasks x 2 OpenMP threads

MPI task timing breakdown:
Section |  min time  |  avg time  |  max time  |%varavg| %total
---------------------------------------------------------------
Pair    | 118.89     | 126.42     | 134.06     |  39.2 | 79.46
Bond    | 0.013904   | 0.015204   | 0.016748   |   0.7 |  0.01
Neigh   | 1.8228     | 1.8996     | 1.9946     |   4.1 |  1.19
Comm    | 7.5492     | 15.232     | 22.749     | 113.1 |  9.57
Output  | 0.017817   | 0.036918   | 0.079947   |  12.9 |  0.02
Modify  | 15.169     | 15.252     | 15.334     |   1.2 |  9.59
Other   |            | 0.2443     |            |       |  0.15

Nlocal:          34.25 ave          40 max          26 min
Histogram: 1 0 1 0 1 0 1 3 0 1
Nghost:        2604.38 ave        2621 max        2585 min
Histogram: 1 0 0 3 0 0 1 1 1 1
Neighs:          17927 ave       20787 max       13832 min
Histogram: 1 0 1 0 1 0 1 3 0 1

Total # of neighbors = 143416
Ave neighs/atom = 523.41606
Ave special neighs/atom = 0
Neighbor list builds = 88
Dangerous builds = 0
  using 2 OpenMP thread(s) per MPI task
Reading restart file ...
  restart file = 2 Aug 2023, LAMMPS = 2 Aug 2023
  restoring atom style full from restart
  triclinic box = (0 0 0) to (15.4861 14.0699 16.771) with tilt (-7.3915 0.9919 1.0308)
WARNING: Triclinic box skew is large. LAMMPS will run inefficiently. (src/domain.cpp:220)
  2 by 2 by 2 MPI processor grid
  pair style reaxff stores no restart info
  274 atoms
Finding 1-2 1-3 1-4 neighbors ...
  special bond factors lj:    0        0        0       
  special bond factors coul:  0        0        0       
     0 = max # of 1-2 neighbors
     0 = max # of 1-3 neighbors
     0 = max # of 1-4 neighbors
     1 = max # of special neighbors
  special bonds CPU = 0.000 seconds
  read_restart CPU = 0.003 seconds
*****Positive-deform 5 starts.*****
WARNING: Van der Waals parameters for element SI indicate inner wall+shielding, but earlier atoms indicate a different van der Waals method. This may cause division-by-zero errors. Keeping van der Waals setting for earlier atoms. (src/REAXFF/reaxff_ffield.cpp:251)
Neighbor list info ...
  update: every = 10 steps, delay = 0 steps, check = yes
  max neighbors/atom: 2000, page size: 100000
  master list distance cutoff = 12
  ghost atom cutoff = 12
  binsize = 6, bins = 4 3 3
  2 neighbor lists, perpetual/occasional/extra = 2 0 0
  (1) pair reaxff, perpetual
      attributes: half, newton off, ghost
      pair build: half/bin/newtoff/ghost
      stencil: full/ghost/bin/3d
      bin: standard
  (2) fix qeq/reaxff, perpetual, copy from (1)
      attributes: half, newton off
      pair build: copy
      stencil: none
      bin: none
Setting up Verlet run ...
  Unit style    : real
  Current step  : 0
  Time step     : 0.5
Per MPI rank memory allocation (min/avg/max) = 102.3 | 104.6 | 106.6 Mbytes
   Step          Temp          PotEng         Press          Volume    
         0   313.74632     -28691.336     -1287.3437      3654.1976    
       100   296.69596     -28694.74       1310.3407      3654.1976    
       200   288.91578     -28705.492     -1673.3389      3654.1976    
       300   288.15107     -28701.568     -4350.5449      3654.1976    
       400   306.09372     -28705.239     -1916.6072      3654.1976    
       500   295.08051     -28690.246     -2203.1789      3654.1976    
       600   306.04364     -28691.914     -2223.2927      3654.1976    
       700   339.34309     -28688.344     -14382.365      3654.1976    
       800   322.91417     -28677.031      1208.2752      3654.1976    
       900   296.04741     -28685.868     -3254.3438      3654.1976    
      1000   303.46947     -28703.737      7198.9354      3654.1976    
      1100   289.30799     -28704.849     -8460.7198      3654.1976    
      1200   303.61225     -28718.499      8893.7665      3654.1976    
      1300   312.03126     -28703.74      -745.05963      3654.1976    
      1400   321.12036     -28688.794      4691.14        3654.1976    
      1500   296.96765     -28681.63      -8446.1908      3654.1976    
      1600   315.98115     -28716.616     -10114.772      3654.1976    
      1700   273.99076     -28690.514     -7423.6444      3654.1976    
      1800   289.87883     -28696.744     -3259.0535      3654.1976    
      1900   283.67175     -28686.622      2052.7467      3654.1976    
      2000   331.72741     -28715.93      -12749.063      3654.1976    
      2100   289.25682     -28680.443      5076.4141      3654.1976    
      2200   305.83146     -28706.032     -9289.1416      3654.1976    
      2300   283.17972     -28695.162     -3701.5037      3654.1976    
      2400   284.19259     -28694.703     -8616.1913      3654.1976    
      2500   310.13428     -28703.853     -6095.5179      3654.1976    
      2600   326.75594     -28699.071      2837.5974      3654.1976    
      2700   330.88985     -28699.517      3586.9778      3654.1976    
      2800   293.94515     -28703.307     -18870.197      3654.1976    
      2900   289.62978     -28709.416     -14364.458      3654.1976    
      3000   279.77818     -28691.265     -2683.5806      3654.1976    
      3100   298.26917     -28689.235     -8038.8845      3654.1976    
      3200   311.26243     -28686.493     -15037.689      3654.1976    
      3300   306.28916     -28688.611     -2957.9598      3654.1976    
      3400   309.93144     -28714.869     -11532.233      3654.1976    
      3500   301.69197     -28724.087      2618.6307      3654.1976    
      3600   274.23297     -28697.14      -1112.3351      3654.1976    
      3700   315.02751     -28702.957     -1491.1791      3654.1976    
      3800   310.92123     -28690.144     -12641.765      3654.1976    
      3900   302.37918     -28690.415      3816.4352      3654.1976    
      4000   325.88304     -28721.636      8732.8262      3654.1976    
      4100   296.84559     -28709.258     -6301.7579      3654.1976    
      4200   297.0516      -28703.459      7750.6622      3654.1976    
      4300   267.66381     -28675.392      2799.4343      3654.1976    
      4400   316.80047     -28709.165     -8993.5073      3654.1976    
      4500   292.55654     -28695.221     -6379.427       3654.1976    
      4600   294.55162     -28711.96      -2854.0659      3654.1976    
      4700   297.274       -28722.903     -4596.6304      3654.1976    
      4800   287.94208     -28697.522     -13475.893      3654.1976    
      4900   313.82883     -28694.383     -14474.297      3654.1976    
      5000   302.39875     -28693.352     -10676.771      3654.1976    
Loop time of 159.942 on 16 procs for 5000 steps with 274 atoms

Performance: 1.350 ns/day, 17.771 hours/ns, 31.261 timesteps/s, 8.566 katom-step/s
98.7% CPU use with 8 MPI tasks x 2 OpenMP threads

MPI task timing breakdown:
Section |  min time  |  avg time  |  max time  |%varavg| %total
---------------------------------------------------------------
Pair    | 116.14     | 125.71     | 133.18     |  52.2 | 78.59
Bond    | 0.013693   | 0.01528    | 0.0166     |   0.7 |  0.01
Neigh   | 1.8152     | 1.8861     | 1.9704     |   3.9 |  1.18
Comm    | 9.1906     | 16.684     | 26.272     | 143.1 | 10.43
Output  | 0.023642   | 0.042738   | 0.086914   |  12.0 |  0.03
Modify  | 15.291     | 15.36      | 15.444     |   1.4 |  9.60
Other   |            | 0.2481     |            |       |  0.16

Nlocal:          34.25 ave          43 max          25 min
Histogram: 1 1 0 0 2 0 1 2 0 1
Nghost:        2589.75 ave        2665 max        2503 min
Histogram: 1 0 1 1 0 2 0 1 1 1
Neighs:        17939.2 ave       22256 max       13336 min
Histogram: 1 1 0 0 2 0 2 1 0 1

Total # of neighbors = 143514
Ave neighs/atom = 523.77372
Ave special neighs/atom = 0
Neighbor list builds = 88
Dangerous builds = 0
  using 2 OpenMP thread(s) per MPI task
Reading restart file ...
  restart file = 2 Aug 2023, LAMMPS = 2 Aug 2023
  restoring atom style full from restart
  triclinic box = (0 0 0) to (15.4861 14.0699 16.771) with tilt (-7.3915 0.9919 1.0308)
WARNING: Triclinic box skew is large. LAMMPS will run inefficiently. (src/domain.cpp:220)
  2 by 2 by 2 MPI processor grid
  pair style reaxff stores no restart info
  274 atoms
Finding 1-2 1-3 1-4 neighbors ...
  special bond factors lj:    0        0        0       
  special bond factors coul:  0        0        0       
     0 = max # of 1-2 neighbors
     0 = max # of 1-3 neighbors
     0 = max # of 1-4 neighbors
     1 = max # of special neighbors
  special bonds CPU = 0.002 seconds
  read_restart CPU = 0.006 seconds
*****debug*****
xy = -7.3914999999999997371, deltaxy = 0.073915
xz = 0.99190000000000000391, deltaxz = -0.009919
yz = 1.0307999999999999385, deltayz = -0.010308
*****
*****Negative-deform 6 starts.*****
WARNING: Van der Waals parameters for element SI indicate inner wall+shielding, but earlier atoms indicate a different van der Waals method. This may cause division-by-zero errors. Keeping van der Waals setting for earlier atoms. (src/REAXFF/reaxff_ffield.cpp:251)
Neighbor list info ...
  update: every = 10 steps, delay = 0 steps, check = yes
  max neighbors/atom: 2000, page size: 100000
  master list distance cutoff = 12
  ghost atom cutoff = 12
  binsize = 6, bins = 4 3 3
  2 neighbor lists, perpetual/occasional/extra = 2 0 0
  (1) pair reaxff, perpetual
      attributes: half, newton off, ghost
      pair build: half/bin/newtoff/ghost
      stencil: full/ghost/bin/3d
      bin: standard
  (2) fix qeq/reaxff, perpetual, copy from (1)
      attributes: half, newton off
      pair build: copy
      stencil: none
      bin: none
Setting up Verlet run ...
  Unit style    : real
  Current step  : 0
  Time step     : 0.5
Per MPI rank memory allocation (min/avg/max) = 102.3 | 104.6 | 106.6 Mbytes
   Step          Temp          PotEng         Press          Volume    
         0   313.74632     -28691.336     -1287.3437      3654.1976    
       100   296.6653      -28694.741      1303.4842      3654.1976    
       200   288.89451     -28705.359     -1518.2018      3654.1976    
       300   288.7398      -28701.842     -4195.0635      3654.1976    
       400   306.96482     -28705.497     -845.16312      3654.1976    
       500   291.13875     -28686.639     -998.52675      3654.1976    
       600   307.50843     -28691.361      399.91618      3654.1976    
       700   338.89463     -28685.237     -15284.595      3654.1976    
       800   326.96372     -28677.361      1721.2094      3654.1976    
       900   299.53037     -28685.444     -8687.2616      3654.1976    
      1000   307.72627     -28702.65       3024.1947      3654.1976    
      1100   292.58526     -28697.322     -9244.0248      3654.1976    
      1200   302.91775     -28695.68       1020.6856      3654.1976    
      1300   331.08988     -28696.643     -5618.8321      3654.1976    
      1400   322.58075     -28694.232      3937.3128      3654.1976    
      1500   285.20897     -28697.698     -7183.4688      3654.1976    
      1600   305.71125     -28709.353     -4921.3643      3654.1976    
      1700   288.88355     -28690.279     -1872.4375      3654.1976    
      1800   300.83049     -28696.228     -253.49132      3654.1976    
      1900   293.88117     -28684.891      1735.0318      3654.1976    
      2000   303.47144     -28696.329      3379.3063      3654.1976    
      2100   288.56597     -28686.793      8968.9301      3654.1976    
      2200   297.23162     -28702.74      -3840.0617      3654.1976    
      2300   274.52091     -28704.087      1610.2792      3654.1976    
      2400   295.86236     -28717.647     -11887.352      3654.1976    
      2500   310.55223     -28697.993      5023.2379      3654.1976    
      2600   293.84679     -28677.626     -7173.9225      3654.1976    
      2700   313.86649     -28706.17      -1360.471       3654.1976    
      2800   289.01932     -28704.96      -16487.291      3654.1976    
      2900   288.76699     -28708.591     -9856.9833      3654.1976    
      3000   322.66327     -28704.891     -15336.41       3654.1976    
      3100   309.49086     -28680.143     -9063.4954      3654.1976    
      3200   324.71059     -28707.399     -13379.451      3654.1976    
      3300   281.91387     -28691.35      -11081.756      3654.1976    
      3400   302.52377     -28716.418     -13356.45       3654.1976    
      3500   276.8819      -28700.961      4515.2514      3654.1976    
      3600   298.2571      -28714.034     -18352.407      3654.1976    
      3700   279.85169     -28678.793     -10334.285      3654.1976    
      3800   299.00391     -28676.731     -12392.185      3654.1976    
      3900   315.17465     -28685.984     -3547.6114      3654.1976    
      4000   277.67059     -28683.349     -10407.317      3654.1976    
      4100   299.6444      -28715.989     -6461.1687      3654.1976    
      4200   298.79467     -28708.419     -5524.6318      3654.1976    
      4300   299.93506     -28697.426      3283.8385      3654.1976    
      4400   311.54337     -28697.401     -3055.3821      3654.1976    
      4500   348.45726     -28702.307     -8107.6482      3654.1976    
      4600   310.00516     -28668.868     -8875.3377      3654.1976    
      4700   286.53515     -28677.461      2312.0456      3654.1976    
      4800   291.12754     -28690.687     -2304.7931      3654.1976    
      4900   297.11209     -28694.644     -127.29415      3654.1976    
      5000   311.40308     -28707.257     -2747.6667      3654.1976    
Loop time of 160.411 on 16 procs for 5000 steps with 274 atoms

Performance: 1.347 ns/day, 17.823 hours/ns, 31.170 timesteps/s, 8.541 katom-step/s
98.7% CPU use with 8 MPI tasks x 2 OpenMP threads

MPI task timing breakdown:
Section |  min time  |  avg time  |  max time  |%varavg| %total
---------------------------------------------------------------
Pair    | 119.79     | 128.28     | 134.24     |  37.6 | 79.97
Bond    | 0.013755   | 0.015277   | 0.016728   |   0.7 |  0.01
Neigh   | 1.7198     | 1.8032     | 1.8367     |   2.6 |  1.12
Comm    | 8.5395     | 14.505     | 22.977     | 111.9 |  9.04
Output  | 0.021029   | 0.040615   | 0.085185   |  12.6 |  0.03
Modify  | 15.443     | 15.506     | 15.597     |   1.1 |  9.67
Other   |            | 0.2616     |            |       |  0.16

Nlocal:          34.25 ave          40 max          26 min
Histogram: 1 0 1 0 0 1 0 4 0 1
Nghost:        2618.12 ave        2684 max        2552 min
Histogram: 1 0 1 1 1 1 1 1 0 1
Neighs:        17941.2 ave       20845 max       13843 min
Histogram: 1 0 1 0 0 1 2 2 0 1

Total # of neighbors = 143530
Ave neighs/atom = 523.83212
Ave special neighs/atom = 0
Neighbor list builds = 85
Dangerous builds = 0
  using 2 OpenMP thread(s) per MPI task
Reading restart file ...
  restart file = 2 Aug 2023, LAMMPS = 2 Aug 2023
  restoring atom style full from restart
  triclinic box = (0 0 0) to (15.4861 14.0699 16.771) with tilt (-7.3915 0.9919 1.0308)
WARNING: Triclinic box skew is large. LAMMPS will run inefficiently. (src/domain.cpp:220)
  2 by 2 by 2 MPI processor grid
  pair style reaxff stores no restart info
  274 atoms
Finding 1-2 1-3 1-4 neighbors ...
  special bond factors lj:    0        0        0       
  special bond factors coul:  0        0        0       
     0 = max # of 1-2 neighbors
     0 = max # of 1-3 neighbors
     0 = max # of 1-4 neighbors
     1 = max # of special neighbors
  special bonds CPU = 0.001 seconds
  read_restart CPU = 0.004 seconds
*****Positive-deform 6 starts.*****
WARNING: Van der Waals parameters for element SI indicate inner wall+shielding, but earlier atoms indicate a different van der Waals method. This may cause division-by-zero errors. Keeping van der Waals setting for earlier atoms. (src/REAXFF/reaxff_ffield.cpp:251)
Neighbor list info ...
  update: every = 10 steps, delay = 0 steps, check = yes
  max neighbors/atom: 2000, page size: 100000
  master list distance cutoff = 12
  ghost atom cutoff = 12
  binsize = 6, bins = 4 3 3
  2 neighbor lists, perpetual/occasional/extra = 2 0 0
  (1) pair reaxff, perpetual
      attributes: half, newton off, ghost
      pair build: half/bin/newtoff/ghost
      stencil: full/ghost/bin/3d
      bin: standard
  (2) fix qeq/reaxff, perpetual, copy from (1)
      attributes: half, newton off
      pair build: copy
      stencil: none
      bin: none
Setting up Verlet run ...
  Unit style    : real
  Current step  : 0
  Time step     : 0.5
Per MPI rank memory allocation (min/avg/max) = 102.3 | 104.6 | 106.6 Mbytes
   Step          Temp          PotEng         Press          Volume    
         0   313.74632     -28691.336     -1287.3437      3654.1976    
       100   296.71682     -28694.754      1310.2464      3654.1976    
       200   288.99858     -28705.556     -1753.7793      3654.1976    
       300   288.3451      -28701.807     -4472.1918      3654.1976    
       400   304.82712     -28704.178     -1506.9498      3654.1976    
       500   292.33739     -28687.851      4225.8649      3654.1976    
       600   302.4439      -28688.685     -935.17491      3654.1976    
       700   344.47715     -28691.791     -10336.031      3654.1976    
       800   319.96176     -28672.427     -2514.2577      3654.1976    
       900   302.92158     -28690.373     -1441.295       3654.1976    
      1000   305.87706     -28702.751      318.82766      3654.1976    
      1100   301.27447     -28704.821     -14260.042      3654.1976    
      1200   285.20537     -28690.745      4764.0187      3654.1976    
      1300   303.67911     -28681.216     -7111.8886      3654.1976    
      1400   337.86119     -28694.48       2949.1218      3654.1976    
      1500   298.55655     -28688.995     -14175.64       3654.1976    
      1600   311.90167     -28708.804     -711.0953       3654.1976    
      1700   281.87629     -28691.674      6545.9399      3654.1976    
      1800   283.39583     -28702.55      -1097.9242      3654.1976    
      1900   295.56512     -28713.77      -9568.2626      3654.1976    
      2000   308.62125     -28700.923     -7982.4196      3654.1976    
      2100   320.62251     -28695.009      4042.3949      3654.1976    
      2200   314.25784     -28699.171     -11994.066      3654.1976    
      2300   266.78675     -28685.467     -3035.0639      3654.1976    
      2400   287.44882     -28704.255     -5050.5651      3654.1976    
      2500   303.56518     -28712.231     -6098.912       3654.1976    
      2600   305.77521     -28703.63      -9827.41        3654.1976    
      2700   320.7842      -28708.751     -2952.4639      3654.1976    
      2800   298.03966     -28697.071      6938.0588      3654.1976    
      2900   291.77369     -28702.202     -10396.256      3654.1976    
      3000   298.74621     -28714.605     -1479.5594      3654.1976    
      3100   307.60941     -28710.369     -3543.8282      3654.1976    
      3200   306.01447     -28683.894     -12800.167      3654.1976    
      3300   290.7868      -28667.605     -12052.061      3654.1976    
      3400   295.18771     -28682.776     -2545.7106      3654.1976    
      3500   319.99928     -28713.318     -3358.6986      3654.1976    
      3600   296.77552     -28703.392     -12930.692      3654.1976    
      3700   296.77362     -28703.399     -19671.764      3654.1976    
      3800   277.10352     -28685.059     -2225.0947      3654.1976    
      3900   303.35577     -28693.471     -15429.654      3654.1976    
      4000   307.30364     -28692.826     -7340.3779      3654.1976    
      4100   311.27901     -28715.088      1343.769       3654.1976    
      4200   275.59457     -28707.245     -4061.0995      3654.1976    
      4300   277.39747     -28697.191      6659.2943      3654.1976    
      4400   291.34897     -28687.899     -14558.17       3654.1976    
      4500   278.63743     -28664.965      7199.5962      3654.1976    
      4600   321.65822     -28694.963      1397.7238      3654.1976    
      4700   297.17676     -28696.939     -7114.7018      3654.1976    
      4800   295.94784     -28713.336     -9463.0702      3654.1976    
      4900   300.86404     -28718.027     -384.89333      3654.1976    
      5000   303.29313     -28708.152     -6471.0429      3654.1976    
Loop time of 159.403 on 16 procs for 5000 steps with 274 atoms

Performance: 1.355 ns/day, 17.711 hours/ns, 31.367 timesteps/s, 8.595 katom-step/s
98.7% CPU use with 8 MPI tasks x 2 OpenMP threads

MPI task timing breakdown:
Section |  min time  |  avg time  |  max time  |%varavg| %total
---------------------------------------------------------------
Pair    | 124.34     | 128.28     | 135.17     |  31.6 | 80.48
Bond    | 0.013606   | 0.015088   | 0.016302   |   0.7 |  0.01
Neigh   | 1.7575     | 1.8184     | 1.8661     |   2.7 |  1.14
Comm    | 6.7743     | 13.678     | 17.545     |  96.6 |  8.58
Output  | 0.029218   | 0.047785   | 0.089047   |  10.9 |  0.03
Modify  | 15.242     | 15.291     | 15.373     |   1.0 |  9.59
Other   |            | 0.2681     |            |       |  0.17

Nlocal:          34.25 ave          41 max          28 min
Histogram: 1 0 1 2 2 0 0 0 0 2
Nghost:        2586.38 ave        2615 max        2547 min
Histogram: 1 0 1 1 1 0 0 0 2 2
Neighs:        17992.5 ave       21375 max       14877 min
Histogram: 1 0 1 1 3 0 0 0 0 2

Total # of neighbors = 143940
Ave neighs/atom = 525.32847
Ave special neighs/atom = 0
Neighbor list builds = 83
Dangerous builds = 0
Total wall time: 0:31:34
