LAMMPS (2 Aug 2023 - Update 2)
OMP_NUM_THREADS environment is not set. Defaulting to 1 thread. (src/comm.cpp:98)
  using 1 OpenMP thread(s) per MPI task
Reading data file ...
  triclinic box = (0 0 0) to (15.6782 14.2194 17.6383) with tilt (-7.0409 -1.0144 0.675)
  2 by 2 by 2 MPI processor grid
  reading atoms ...
  350 atoms
Finding 1-2 1-3 1-4 neighbors ...
  special bond factors lj:    0        0        0       
  special bond factors coul:  0        0        0       
     0 = max # of 1-2 neighbors
     0 = max # of 1-3 neighbors
     0 = max # of 1-4 neighbors
     1 = max # of special neighbors
  special bonds CPU = 0.001 seconds
  read_data CPU = 0.007 seconds
*****Minimization starts.*****
Setting up cg style minimization ...
  Unit style    : real
  Current step  : 0
WARNING: No pairwise cutoff or binsize set. Atom sorting therefore disabled. (src/atom.cpp:2366)
WARNING: Communication cutoff is 0.0. No ghost atoms will be generated. Atoms may get lost. (src/comm_brick.cpp:210)
Per MPI rank memory allocation (min/avg/max) = 6.365 | 6.365 | 6.365 Mbytes
   Step          Temp          E_pair         E_mol          TotEng         Press     
         0   0              0              0              0              0            
         1   0              0              0              0              0            
Loop time of 5.77675e-05 on 8 procs for 1 steps with 350 atoms

53.2% CPU use with 8 MPI tasks x 1 OpenMP threads

Minimization stats:
  Stopping criterion = search direction is not downhill
  Energy initial, next-to-last, final = 
                     0                  0                  0
  Force two-norm initial, final = 0 0
  Force max component initial, final = 0 0
  Final line search alpha, max atom move = 0 0
  Iterations, force evaluations = 1 0

MPI task timing breakdown:
Section |  min time  |  avg time  |  max time  |%varavg| %total
---------------------------------------------------------------
Pair    | 0          | 0          | 0          |   0.0 |  0.00
Bond    | 1.327e-06  | 1.912e-06  | 2.305e-06  |   0.0 |  3.31
Neigh   | 0          | 0          | 0          |   0.0 |  0.00
Comm    | 3.84e-06   | 4.844e-06  | 5.377e-06  |   0.0 |  8.39
Output  | 0          | 0          | 0          |   0.0 |  0.00
Modify  | 0          | 0          | 0          |   0.0 |  0.00
Other   |            | 5.101e-05  |            |       | 88.30

Nlocal:          43.75 ave          49 max          38 min
Histogram: 2 1 0 1 0 0 0 1 1 2
Nghost:              0 ave           0 max           0 min
Histogram: 8 0 0 0 0 0 0 0 0 0
Neighs:              0 ave           0 max           0 min
Histogram: 8 0 0 0 0 0 0 0 0 0

Total # of neighbors = 0
Ave neighs/atom = 0
Ave special neighs/atom = 0
Neighbor list builds = 0
Dangerous builds = 0
System init for write_data ...
WARNING: Communication cutoff is 0.0. No ghost atoms will be generated. Atoms may get lost. (src/comm_brick.cpp:210)
WARNING: New thermo_style command, previous thermo_modify settings will be lost (src/output.cpp:903)

CITE-CITE-CITE-CITE-CITE-CITE-CITE-CITE-CITE-CITE-CITE-CITE-CITE

Your simulation uses code contributions which should be cited:
- pair reaxff command: doi:10.1016/j.parco.2011.08.005
- fix qeq/reaxff command: doi:10.1016/j.parco.2011.08.005
The log file lists these citations in BibTeX format.

CITE-CITE-CITE-CITE-CITE-CITE-CITE-CITE-CITE-CITE-CITE-CITE-CITE

WARNING: Fix qeq/reaxff group is not charge neutral, net charge = -10.66 (src/REAXFF/fix_qeq_reaxff.cpp:392)
Neighbor list info ...
  update: every = 10 steps, delay = 0 steps, check = no
  max neighbors/atom: 2000, page size: 100000
  master list distance cutoff = 12
  ghost atom cutoff = 12
  binsize = 6, bins = 4 3 3
  2 neighbor lists, perpetual/occasional/extra = 2 0 0
  (1) pair reaxff, perpetual
      attributes: half, newton off, ghost
      pair build: half/bin/newtoff/ghost
      stencil: full/ghost/bin/3d
      bin: standard
  (2) fix qeq/reaxff, perpetual, copy from (1)
      attributes: half, newton off
      pair build: copy
      stencil: none
      bin: none
Setting up Verlet run ...
  Unit style    : real
  Current step  : 0
  Time step     : 0.5
Per MPI rank memory allocation (min/avg/max) = 122.3 | 123 | 123.7 Mbytes
   Step          Temp          PotEng         Press        f_avgp[1]       Density         Volume    
         0   300           -38963.433      102489.53      0              1.6516858      3932.1873    
       100   818.7958      -40090.051     -25805.076      3387.3356      1.6516858      3932.1873    
       200   609.55022     -40434.752     -10112.432      3045.1049      1.6516858      3932.1873    
       300   476.2777      -40665.002      13.431169     -2224.2605      1.6516858      3932.1873    
       400   359.05501     -40792.817      14819.286     -4701.5741      1.6516858      3932.1873    
       500   315.9059      -40907.936      3146.2061     -814.41004      1.6516858      3932.1873    
       600   289.23918     -40978.778     -6847.2998     -796.81477      1.6516858      3932.1873    
       700   265.59754     -40989.609     -8482.2105     -6634.5398      1.6516858      3932.1873    
       800   301.58706     -41004.799     -12887.395     -4893.1058      1.6516858      3932.1873    
       900   301.42583     -40968.266     -9420.7734     -4188.0651      1.6516858      3932.1873    
      1000   323.62896     -40987.852     -11094.557     -2566.2348      1.6516858      3932.1873    
      1100   297.9147      -41005.6       -4213.7463     -3135.856       1.6516858      3932.1873    
      1200   295.62378     -41043.871     -593.79113     -115.35334      1.6516858      3932.1873    
      1300   298.65395     -41074.234     -3614.3977     -209.25774      1.6516858      3932.1873    
      1400   290.32705     -41080.779     -6775.9377     -4076.0103      1.6516858      3932.1873    
      1500   284.37281     -41072.601     -19712.599     -3199.8366      1.6516858      3932.1873    
      1600   303.99065     -41071.598     -7502.4916      707.91697      1.6516858      3932.1873    
      1700   297.46512     -41044.072     -4328.2975     -1987.8576      1.6516858      3932.1873    
      1800   316.50978     -41055.993     -4105.7996      3968.6692      1.6516858      3932.1873    
      1900   292.24878     -41042.854     -5421.454       2211.8055      1.6516858      3932.1873    
      2000   325.19731     -41089.602     -4661.4125     -2004.9856      1.6516858      3932.1873    
      2100   317.03608     -41099.426     -11922.93      -11070.363      1.6516858      3932.1873    
      2200   289.06435     -41079.603     -15089.626     -591.18669      1.6516858      3932.1873    
      2300   298.96132     -41086.185     -6739.7201      1727.0747      1.6516858      3932.1873    
      2400   317.02286     -41089.474     -18822.931     -4812.5186      1.6516858      3932.1873    
      2500   299.4654      -41072.288      2526.457      -6508.6371      1.6516858      3932.1873    
      2600   299.54421     -41079.135     -3755.0308     -5961.7061      1.6516858      3932.1873    
      2700   295.97095     -41078.019     -7559.5803     -8348.9132      1.6516858      3932.1873    
      2800   276.16629     -41064.501     -11525.277      2017.2929      1.6516858      3932.1873    
      2900   313.3314      -41104.361     -158.86441     -2086.1561      1.6516858      3932.1873    
      3000   286.18816     -41071.636     -11391.879     -3804.1997      1.6516858      3932.1873    
Loop time of 130.918 on 8 procs for 3000 steps with 350 atoms

Performance: 0.990 ns/day, 24.244 hours/ns, 22.915 timesteps/s, 8.020 katom-step/s
98.9% CPU use with 8 MPI tasks x 1 OpenMP threads

MPI task timing breakdown:
Section |  min time  |  avg time  |  max time  |%varavg| %total
---------------------------------------------------------------
Pair    | 73.992     | 101.7      | 108.41     | 105.3 | 77.69
Bond    | 0.0076225  | 0.0083847  | 0.0091046  |   0.5 |  0.01
Neigh   | 6.933      | 9.3569     | 9.9436     |  30.3 |  7.15
Comm    | 1.5733     | 8.286      | 35.991     | 368.9 |  6.33
Output  | 0.0015795  | 0.0017671  | 0.0026265  |   0.8 |  0.00
Modify  | 10.908     | 11.49      | 13.927     |  27.5 |  8.78
Other   |            | 0.06998    |            |       |  0.05

Nlocal:          43.75 ave          50 max          37 min
Histogram: 1 0 0 2 2 0 1 0 0 2
Nghost:        3101.25 ave        3143 max        3062 min
Histogram: 1 1 2 0 0 0 2 0 0 2
Neighs:          27201 ave       30902 max       23320 min
Histogram: 1 0 1 1 2 1 0 0 0 2

Total # of neighbors = 217608
Ave neighs/atom = 621.73714
Ave special neighs/atom = 0
Neighbor list builds = 300
Dangerous builds not checked
System init for write_data ...
System init for write_restart ...
OMP_NUM_THREADS environment is not set. Defaulting to 1 thread. (src/comm.cpp:98)
  using 1 OpenMP thread(s) per MPI task
Reading restart file ...
  restart file = 2 Aug 2023, LAMMPS = 2 Aug 2023
  restoring atom style full from restart
  triclinic box = (0 0 0) to (15.6782 14.2194 17.6383) with tilt (-7.0409 -1.0144 0.675)
  2 by 2 by 2 MPI processor grid
  pair style reaxff stores no restart info
  350 atoms
Finding 1-2 1-3 1-4 neighbors ...
  special bond factors lj:    0        0        0       
  special bond factors coul:  0        0        0       
     0 = max # of 1-2 neighbors
     0 = max # of 1-3 neighbors
     0 = max # of 1-4 neighbors
     1 = max # of special neighbors
  special bonds CPU = 0.000 seconds
  read_restart CPU = 0.003 seconds
*****Negative-change 1 starts.*****
Resetting global fix info from restart file:
  fix style: nvt, fix ID: 4
Changing box ...
  triclinic box = (0 0 0) to (15.521418 14.2194 17.6383) with tilt (-7.0409 -1.0144 0.675)
  triclinic box = (0 0 0) to (15.521418 14.2194 17.6383) with tilt (-6.970491 -1.0144 0.675)
  triclinic box = (0 0 0) to (15.521418 14.2194 17.6383) with tilt (-6.970491 -1.004256 0.675)
All restart file global fix info was re-assigned
Neighbor list info ...
  update: every = 10 steps, delay = 0 steps, check = no
  max neighbors/atom: 2000, page size: 100000
  master list distance cutoff = 12
  ghost atom cutoff = 12
  binsize = 6, bins = 4 3 3
  2 neighbor lists, perpetual/occasional/extra = 2 0 0
  (1) pair reaxff, perpetual
      attributes: half, newton off, ghost
      pair build: half/bin/newtoff/ghost
      stencil: full/ghost/bin/3d
      bin: standard
  (2) fix qeq/reaxff, perpetual, copy from (1)
      attributes: half, newton off
      pair build: copy
      stencil: none
      bin: none
Setting up Verlet run ...
  Unit style    : real
  Current step  : 0
  Time step     : 0.5
Per MPI rank memory allocation (min/avg/max) = 120.7 | 121.6 | 122.7 Mbytes
   Step          Temp          PotEng         Press        f_avgp[1]        Volume    
         0   286.18816     -41060.539      35837.782      0              3892.8654    
       100   299.26634     -41072.567     -277.36862      739.31691      3892.8654    
       200   304.9079      -41094.631     -7201.3349      11698.949      3892.8654    
       300   292.91073     -41110.241     -1702.5609      1608.7177      3892.8654    
       400   291.38055     -41122.966     -7013.4791     -4433.0318      3892.8654    
       500   296.30217     -41107.14      -13569.589     -1939.507       3892.8654    
       600   327.10138     -41102.251     -10116.056      614.43268      3892.8654    
       700   321.01353     -41084.832     -6559.4384     -1950.3736      3892.8654    
       800   294.95156     -41084.609     -8539.7886     -5309.0577      3892.8654    
       900   292.74977     -41124.357     -2326.5689      490.6796       3892.8654    
      1000   274.88611     -41127.645     -2585.3592     -32.188003      3892.8654    
      1100   296.58546     -41136.77      -4227.2058      1568.9554      3892.8654    
      1200   309.02605     -41117.023     -4300.6679     -6961.3307      3892.8654    
      1300   310.13893     -41100.013     -1658.9804     -2524.1877      3892.8654    
      1400   305.10272     -41098.652     -6633.2427     -3684.9643      3892.8654    
      1500   291.10006     -41101.928     -7791.6219      3520.1034      3892.8654    
      1600   310.67889     -41139.355      1684.3228     -2955.0997      3892.8654    
      1700   304.21865     -41141.196     -1433.7691     -2065.7181      3892.8654    
      1800   304.58267     -41138.527     -6152.1898      2724.3492      3892.8654    
      1900   304.89692     -41131.198     -1217.4511      4404.0053      3892.8654    
      2000   298.02144     -41118.139     -3213.8354      4239.1836      3892.8654    
      2100   307.77041     -41120.322      3475.1728     -2608.5416      3892.8654    
      2200   315.94924     -41122.722     -6555.1831     -1751.202       3892.8654    
      2300   293.72699     -41112.444     -4679.0024      2435.3176      3892.8654    
      2400   312.61098     -41140.351     -2144.7148      2349.8088      3892.8654    
      2500   282.14765     -41116.001      331.93418      346.70411      3892.8654    
      2600   287.082       -41123.874     -6102.287      -2223.865       3892.8654    
      2700   299.04474     -41118.553     -7635.0109     -2869.5797      3892.8654    
      2800   314.27199     -41114.059     -10817.327     -4792.9362      3892.8654    
      2900   315.79068     -41116.357     -7474.4434     -3320.2304      3892.8654    
      3000   282.35698     -41113.978     -10743.597     -3920.3571      3892.8654    
Loop time of 132.385 on 8 procs for 3000 steps with 350 atoms

Performance: 0.979 ns/day, 24.516 hours/ns, 22.661 timesteps/s, 7.931 katom-step/s
99.0% CPU use with 8 MPI tasks x 1 OpenMP threads

MPI task timing breakdown:
Section |  min time  |  avg time  |  max time  |%varavg| %total
---------------------------------------------------------------
Pair    | 74.029     | 99.525     | 109.78     | 143.4 | 75.18
Bond    | 0.0078058  | 0.0086197  | 0.0092144  |   0.5 |  0.01
Neigh   | 7.0081     | 9.1161     | 10.122     |  40.3 |  6.89
Comm    | 1.686      | 11.932     | 37.421     | 414.2 |  9.01
Output  | 0.0064724  | 0.0082547  | 0.0095303  |   1.2 |  0.01
Modify  | 10.725     | 11.727     | 13.842     |  35.7 |  8.86
Other   |            | 0.0679     |            |       |  0.05

Nlocal:          43.75 ave          48 max          37 min
Histogram: 1 0 1 0 0 0 2 1 2 1
Nghost:        3102.75 ave        3136 max        3068 min
Histogram: 1 1 1 0 1 0 0 2 1 1
Neighs:        27477.4 ave       30007 max       23585 min
Histogram: 1 0 1 0 0 0 2 1 2 1

Total # of neighbors = 219819
Ave neighs/atom = 628.05429
Ave special neighs/atom = 0
Neighbor list builds = 300
Dangerous builds not checked
*****Equilibration neg1 starts.*****
WARNING: New thermo_style command, previous thermo_modify settings will be lost (src/output.cpp:903)
Neighbor list info ...
  update: every = 10 steps, delay = 0 steps, check = no
  max neighbors/atom: 2000, page size: 100000
  master list distance cutoff = 12
  ghost atom cutoff = 12
  binsize = 6, bins = 4 3 3
  2 neighbor lists, perpetual/occasional/extra = 2 0 0
  (1) pair reaxff, perpetual
      attributes: half, newton off, ghost
      pair build: half/bin/newtoff/ghost
      stencil: full/ghost/bin/3d
      bin: standard
  (2) fix qeq/reaxff, perpetual, copy from (1)
      attributes: half, newton off
      pair build: copy
      stencil: none
      bin: none
Setting up Verlet run ...
  Unit style    : real
  Current step  : 0
  Time step     : 0.5
Per MPI rank memory allocation (min/avg/max) = 120.7 | 121.6 | 122.7 Mbytes
   Step          Temp          PotEng         Press        f_avgp[1]        Volume    
         0   282.35698     -41113.978     -10743.623      0              3892.8654    
       100   296.32371     -41126.328     -3442.9469      3024.6655      3892.8654    
       200   288.32361     -41130.839      3296.7062     -491.05106      3892.8654    
       300   277.80566     -41143.355     -1635.1864     -6556.3858      3892.8654    
       400   286.94308     -41138.127     -6365.6003     -3247.5938      3892.8654    
       500   300.71096     -41122.438     -11390.094     -3656.3771      3892.8654    
       600   312.56074     -41132.122      5380.6283     -1312.8685      3892.8654    
       700   303.47538     -41130.405     -2179.2534      966.85435      3892.8654    
       800   304.38982     -41144.527     -3739.5251      1115.2832      3892.8654    
       900   285.17364     -41151.638     -14528.081     -2007.4125      3892.8654    
      1000   282.20351     -41148.028     -4582.0973     -1691.6836      3892.8654    
      1100   326.35875     -41156.766     -4576.6334     -6537.1298      3892.8654    
      1200   290.27139     -41112.368     -12301.104     -3001.5166      3892.8654    
      1300   294.09814     -41122.254     -2869.2006     -368.1506       3892.8654    
      1400   302.68903     -41141.239     -8103.1299     -3317.0488      3892.8654    
      1500   309.21422     -41172.761     -9429.6069     -4953.7359      3892.8654    
      1600   284.16372     -41161.166     -8304.1407     -5548.0575      3892.8654    
      1700   319.45943     -41171.692     -8029.945      -3236.188       3892.8654    
      1800   296.92808     -41123.653     -20823.587     -5085.4511      3892.8654    
      1900   319.00958     -41143.055     -5735.6794      761.13553      3892.8654    
      2000   289.83712     -41120.586     -12137.244      1329.5852      3892.8654    
      2100   298.32463     -41145.231     -4727.95       -3907.0376      3892.8654    
      2200   286.79644     -41154.158      3321.1956     -5187.4406      3892.8654    
      2300   272.96098     -41145.263     -6601.3685     -1478.2907      3892.8654    
      2400   285.19179     -41127.31      -4156.3697     -2821.8412      3892.8654    
      2500   301.41691     -41122.558     -7915.3251      708.28837      3892.8654    
      2600   309.32819     -41130.703     -4394.4999      1831.46        3892.8654    
      2700   327.76549     -41160.703     -789.70776     -2135.918       3892.8654    
      2800   290.57643     -41153.173     -10397.23       5356.8955      3892.8654    
      2900   294.3282      -41158.503      6116.2643     -2836.6015      3892.8654    
      3000   300.52558     -41144.456     -4919.8858     -888.32338      3892.8654    
Loop time of 132.321 on 8 procs for 3000 steps with 350 atoms

Performance: 0.979 ns/day, 24.504 hours/ns, 22.672 timesteps/s, 7.935 katom-step/s
98.9% CPU use with 8 MPI tasks x 1 OpenMP threads

MPI task timing breakdown:
Section |  min time  |  avg time  |  max time  |%varavg| %total
---------------------------------------------------------------
Pair    | 74.109     | 99.646     | 110.12     | 145.0 | 75.31
Bond    | 0.0078103  | 0.0085808  | 0.0093641  |   0.5 |  0.01
Neigh   | 6.9477     | 9.0683     | 10.019     |  40.4 |  6.85
Comm    | 1.3969     | 11.874     | 37.405     | 419.9 |  8.97
Output  | 0.0012515  | 0.0014128  | 0.0022276  |   0.8 |  0.00
Modify  | 10.707     | 11.655     | 13.781     |  35.7 |  8.81
Other   |            | 0.06808    |            |       |  0.05

Nlocal:          43.75 ave          48 max          36 min
Histogram: 2 0 0 0 0 1 0 0 2 3
Nghost:           3132 ave        3199 max        3094 min
Histogram: 3 1 0 0 2 0 0 1 0 1
Neighs:        27472.2 ave       30119 max       22765 min
Histogram: 1 1 0 0 1 0 0 0 2 3

Total # of neighbors = 219778
Ave neighs/atom = 627.93714
Ave special neighs/atom = 0
Neighbor list builds = 300
Dangerous builds not checked
OMP_NUM_THREADS environment is not set. Defaulting to 1 thread. (src/comm.cpp:98)
  using 1 OpenMP thread(s) per MPI task
Reading restart file ...
  restart file = 2 Aug 2023, LAMMPS = 2 Aug 2023
  restoring atom style full from restart
  triclinic box = (0 0 0) to (15.6782 14.2194 17.6383) with tilt (-7.0409 -1.0144 0.675)
  2 by 2 by 2 MPI processor grid
  pair style reaxff stores no restart info
  350 atoms
Finding 1-2 1-3 1-4 neighbors ...
  special bond factors lj:    0        0        0       
  special bond factors coul:  0        0        0       
     0 = max # of 1-2 neighbors
     0 = max # of 1-3 neighbors
     0 = max # of 1-4 neighbors
     1 = max # of special neighbors
  special bonds CPU = 0.000 seconds
  read_restart CPU = 0.003 seconds
*****Positive-change 1 starts.*****
Resetting global fix info from restart file:
  fix style: nvt, fix ID: 4
Changing box ...
  triclinic box = (0 0 0) to (15.834982 14.2194 17.6383) with tilt (-7.0409 -1.0144 0.675)
WARNING: Triclinic box skew is large. LAMMPS will run inefficiently. (src/domain.cpp:220)
  triclinic box = (0 0 0) to (15.834982 14.2194 17.6383) with tilt (-7.111309 -1.0144 0.675)
WARNING: Triclinic box skew is large. LAMMPS will run inefficiently. (src/domain.cpp:220)
  triclinic box = (0 0 0) to (15.834982 14.2194 17.6383) with tilt (-7.111309 -1.024544 0.675)
All restart file global fix info was re-assigned
Neighbor list info ...
  update: every = 10 steps, delay = 0 steps, check = no
  max neighbors/atom: 2000, page size: 100000
  master list distance cutoff = 12
  ghost atom cutoff = 12
  binsize = 6, bins = 4 3 3
  2 neighbor lists, perpetual/occasional/extra = 2 0 0
  (1) pair reaxff, perpetual
      attributes: half, newton off, ghost
      pair build: half/bin/newtoff/ghost
      stencil: full/ghost/bin/3d
      bin: standard
  (2) fix qeq/reaxff, perpetual, copy from (1)
      attributes: half, newton off
      pair build: copy
      stencil: none
      bin: none
Setting up Verlet run ...
  Unit style    : real
  Current step  : 0
  Time step     : 0.5
Per MPI rank memory allocation (min/avg/max) = 119.3 | 120.4 | 121.5 Mbytes
   Step          Temp          PotEng         Press        f_avgp[1]        Volume    
         0   286.18816     -41047.022     -55474.477      0              3971.5092    
       100   316.16465     -41079.165     -10534.325     -10829.146      3971.5092    
       200   300.27153     -41092.407     -19826.737     -3886.0642      3971.5092    
       300   281.27117     -41102.259     -15417.002     -6524.2968      3971.5092    
       400   285.30334     -41111.874     -16736.236     -12884.508      3971.5092    
       500   278.36498     -41072.4       -10910.17      -10769.767      3971.5092    
       600   331.04255     -41084.925     -9769.7753     -7063.212       3971.5092    
       700   316.58915     -41062.064      604.22178     -4252.5415      3971.5092    
       800   306.34819     -41081.592     -2045.5445     -9228.9988      3971.5092    
       900   293.17504     -41103.064      12201.649     -7735.7455      3971.5092    
      1000   262.21973     -41080.825     -11652.234     -13407.4        3971.5092    
      1100   307.23355     -41105.171     -23877.41      -8455.3394      3971.5092    
      1200   311.16992     -41094.024     -14612.143     -11942.406      3971.5092    
      1300   309.06824     -41102.55      -4422.3796     -9222.6419      3971.5092    
      1400   317.0494      -41125.717      8194.4706     -7215.8019      3971.5092    
      1500   277.49963     -41097.073     -5797.3414     -9745.3391      3971.5092    
      1600   278.22744     -41097.167     -13178.461     -11820.919      3971.5092    
      1700   310.02059     -41115.92      -6484.6553     -8344.0073      3971.5092    
      1800   298.81652     -41097.051     -10791.801     -11378.092      3971.5092    
      1900   304.67701     -41107.308     -22995.542     -7046.0633      3971.5092    
      2000   290.21721     -41102.654     -16020.168     -16103.541      3971.5092    
      2100   284.32583     -41091.158     -25737.48      -9762.6134      3971.5092    
      2200   307.30757     -41094.415     -3178.5161     -10763.42       3971.5092    
      2300   315.95604     -41088.218     -12629.816     -8285.7735      3971.5092    
      2400   302.54978     -41077.6       -18516.429     -5915.016       3971.5092    
      2500   308.34604     -41104.89      -16878.235     -10348.415      3971.5092    
      2600   299.79383     -41121.408     -10210.809     -6364.7706      3971.5092    
      2700   290.49636     -41114.177     -4482.1316     -7317.81        3971.5092    
      2800   294.44021     -41100.815     -13314.503     -14046.681      3971.5092    
      2900   310.03956     -41092.344     -17243.883     -14346.849      3971.5092    
      3000   304.0899      -41074.828     -14771.466     -8524.4513      3971.5092    
Loop time of 129.938 on 8 procs for 3000 steps with 350 atoms

Performance: 0.997 ns/day, 24.063 hours/ns, 23.088 timesteps/s, 8.081 katom-step/s
98.9% CPU use with 8 MPI tasks x 1 OpenMP threads

MPI task timing breakdown:
Section |  min time  |  avg time  |  max time  |%varavg| %total
---------------------------------------------------------------
Pair    | 72.054     | 97.277     | 107.86     | 141.7 | 74.86
Bond    | 0.0078201  | 0.00849    | 0.0091134  |   0.5 |  0.01
Neigh   | 6.924      | 8.9905     | 9.9448     |  39.8 |  6.92
Comm    | 1.4555     | 12.03      | 37.247     | 402.9 |  9.26
Output  | 0.0062118  | 0.00797    | 0.0092575  |   1.2 |  0.01
Modify  | 10.612     | 11.556     | 13.632     |  35.3 |  8.89
Other   |            | 0.06706    |            |       |  0.05

Nlocal:          43.75 ave          49 max          37 min
Histogram: 1 1 1 0 0 0 1 1 2 1
Nghost:        3102.12 ave        3147 max        3078 min
Histogram: 3 1 0 1 1 0 0 1 0 1
Neighs:        26939.9 ave       29994 max       22903 min
Histogram: 1 1 1 0 0 0 1 1 2 1

Total # of neighbors = 215519
Ave neighs/atom = 615.76857
Ave special neighs/atom = 0
Neighbor list builds = 300
Dangerous builds not checked
*****Equilibration pos1 starts.*****
WARNING: New thermo_style command, previous thermo_modify settings will be lost (src/output.cpp:903)
Neighbor list info ...
  update: every = 10 steps, delay = 0 steps, check = no
  max neighbors/atom: 2000, page size: 100000
  master list distance cutoff = 12
  ghost atom cutoff = 12
  binsize = 6, bins = 4 3 3
  2 neighbor lists, perpetual/occasional/extra = 2 0 0
  (1) pair reaxff, perpetual
      attributes: half, newton off, ghost
      pair build: half/bin/newtoff/ghost
      stencil: full/ghost/bin/3d
      bin: standard
  (2) fix qeq/reaxff, perpetual, copy from (1)
      attributes: half, newton off
      pair build: copy
      stencil: none
      bin: none
Setting up Verlet run ...
  Unit style    : real
  Current step  : 0
  Time step     : 0.5
Per MPI rank memory allocation (min/avg/max) = 119.4 | 120.4 | 121.5 Mbytes
   Step          Temp          PotEng         Press        f_avgp[1]        Volume    
         0   304.0899      -41074.828     -14771.489      0              3971.5092    
       100   302.39404     -41090.917     -10565.709     -10585.845      3971.5092    
       200   269.98735     -41077.177     -17099.353     -13886.356      3971.5092    
       300   297.61583     -41109.538     -11129.923     -10776.108      3971.5092    
       400   295.15334     -41102.713     -14547.525     -10214.607      3971.5092    
       500   305.52327     -41106.189     -13214.552     -10887.955      3971.5092    
       600   307.99766     -41106.253     -15795.47      -9580.9792      3971.5092    
       700   316.69659     -41098.435     -14466.856     -3978.6562      3971.5092    
       800   326.63525     -41083.32      -10188.466     -7628.4758      3971.5092    
       900   314.0537      -41078.791     -4533.1028     -11793.413      3971.5092    
      1000   293.32611     -41092.76      -10932.195     -6457.076       3971.5092    
      1100   295.88399     -41104.015     -22599.865     -8752.6488      3971.5092    
      1200   294.89355     -41108.043     -3289.3806     -10276.777      3971.5092    
      1300   293.05451     -41111.071     -10224.462     -6348.3823      3971.5092    
      1400   308.30666     -41122.318     -10352.415     -10756.178      3971.5092    
      1500   326.33743     -41119.536     -14509.181     -12323.848      3971.5092    
      1600   317.81997     -41095.568     -12999.306     -9538.0405      3971.5092    
      1700   305.49671     -41108.915     -14747.701     -14566.089      3971.5092    
      1800   287.39133     -41109.669     -6685.1704     -4553.8431      3971.5092    
      1900   299.26765     -41121.94      -13594.251     -3696.3057      3971.5092    
      2000   301.99782     -41123.479     -5129.5869     -7504.6375      3971.5092    
      2100   307.70975     -41128.812     -4698.2687     -9082.4645      3971.5092    
      2200   290.69135     -41116.265     -4862.8044     -7752.8464      3971.5092    
      2300   321.16601     -41138.45      -1792.4691     -9770.1361      3971.5092    
      2400   301.53005     -41104.377     -13360.549     -7821.511       3971.5092    
      2500   310.01796     -41116.713     -9751.7079     -5960.8014      3971.5092    
      2600   283.74827     -41120.885     -13834.616     -10394.698      3971.5092    
      2700   295.69065     -41151.724     -2980.6295     -8857.874       3971.5092    
      2800   274.35588     -41137.49      -1043.702      -6165.0133      3971.5092    
      2900   301.86303     -41148.353     -16024.117     -5956.2208      3971.5092    
      3000   307.60693     -41137.807     -12987.642     -6276.2727      3971.5092    
Loop time of 129.953 on 8 procs for 3000 steps with 350 atoms

Performance: 0.997 ns/day, 24.065 hours/ns, 23.085 timesteps/s, 8.080 katom-step/s
98.9% CPU use with 8 MPI tasks x 1 OpenMP threads

MPI task timing breakdown:
Section |  min time  |  avg time  |  max time  |%varavg| %total
---------------------------------------------------------------
Pair    | 72.376     | 97.311     | 107.46     | 141.7 | 74.88
Bond    | 0.0076758  | 0.0084502  | 0.009158   |   0.5 |  0.01
Neigh   | 6.8931     | 8.9764     | 9.9715     |  40.1 |  6.91
Comm    | 1.8862     | 12.048     | 36.977     | 402.5 |  9.27
Output  | 0.001205   | 0.0013929  | 0.0022307  |   0.9 |  0.00
Modify  | 10.557     | 11.541     | 13.636     |  35.5 |  8.88
Other   |            | 0.06638    |            |       |  0.05

Nlocal:          43.75 ave          49 max          38 min
Histogram: 2 0 1 0 1 0 0 1 2 1
Nghost:         3089.5 ave        3148 max        3053 min
Histogram: 3 0 1 0 2 0 0 0 1 1
Neighs:        26924.1 ave       29959 max       23491 min
Histogram: 1 1 1 0 1 0 0 1 2 1

Total # of neighbors = 215393
Ave neighs/atom = 615.40857
Ave special neighs/atom = 0
Neighbor list builds = 300
Dangerous builds not checked
OMP_NUM_THREADS environment is not set. Defaulting to 1 thread. (src/comm.cpp:98)
  using 1 OpenMP thread(s) per MPI task
Reading restart file ...
  restart file = 2 Aug 2023, LAMMPS = 2 Aug 2023
  restoring atom style full from restart
  triclinic box = (0 0 0) to (15.6782 14.2194 17.6383) with tilt (-7.0409 -1.0144 0.675)
  2 by 2 by 2 MPI processor grid
  pair style reaxff stores no restart info
  350 atoms
Finding 1-2 1-3 1-4 neighbors ...
  special bond factors lj:    0        0        0       
  special bond factors coul:  0        0        0       
     0 = max # of 1-2 neighbors
     0 = max # of 1-3 neighbors
     0 = max # of 1-4 neighbors
     1 = max # of special neighbors
  special bonds CPU = 0.000 seconds
  read_restart CPU = 0.003 seconds
*****Negative-change 2 starts.*****
Resetting global fix info from restart file:
  fix style: nvt, fix ID: 4
Changing box ...
WARNING: Triclinic box skew is large. LAMMPS will run inefficiently. (src/domain.cpp:220)
  triclinic box = (0 0 0) to (15.6782 14.077206 17.6383) with tilt (-7.0409 -1.0144 0.675)
WARNING: Triclinic box skew is large. LAMMPS will run inefficiently. (src/domain.cpp:220)
  triclinic box = (0 0 0) to (15.6782 14.077206 17.6383) with tilt (-7.0409 -1.0144 0.66825)
All restart file global fix info was re-assigned
Neighbor list info ...
  update: every = 10 steps, delay = 0 steps, check = no
  max neighbors/atom: 2000, page size: 100000
  master list distance cutoff = 12
  ghost atom cutoff = 12
  binsize = 6, bins = 4 3 3
  2 neighbor lists, perpetual/occasional/extra = 2 0 0
  (1) pair reaxff, perpetual
      attributes: half, newton off, ghost
      pair build: half/bin/newtoff/ghost
      stencil: full/ghost/bin/3d
      bin: standard
  (2) fix qeq/reaxff, perpetual, copy from (1)
      attributes: half, newton off
      pair build: copy
      stencil: none
      bin: none
Setting up Verlet run ...
  Unit style    : real
  Current step  : 0
  Time step     : 0.5
Per MPI rank memory allocation (min/avg/max) = 120.9 | 122.1 | 123.4 Mbytes
   Step          Temp          PotEng         Press        f_avgp[1]        Volume    
         0   286.18816     -41066.187      38070.51       0              3892.8654    
       100   304.69022     -41085.143      4047.5496     -2877.915       3892.8654    
       200   304.53904     -41105.571     -9496.7551      4046.5773      3892.8654    
       300   286.93354     -41111.236     -13630.991     -6183.7963      3892.8654    
       400   279.18038     -41108.425     -6509.3244     -6443.3475      3892.8654    
       500   296.37813     -41093.352     -10478.345     -5625.4248      3892.8654    
       600   318.31023     -41084.749      417.8813      -6402.22        3892.8654    
       700   307.00874     -41083.961      1394.8887      3110.9039      3892.8654    
       800   282.53365     -41091.24      -8349.1795     -3922.2666      3892.8654    
       900   281.11125     -41107.671     -5257.1493     -5964.7726      3892.8654    
      1000   280.27664     -41094.932     -9876.7435     -3874.2696      3892.8654    
      1100   299.19826     -41087.565     -17534.589     -6333.2414      3892.8654    
      1200   327.70626     -41106.829     -4803.7165      2347.5197      3892.8654    
      1300   299.33298     -41113.792     -14501.996     -2285.9382      3892.8654    
      1400   289.08353     -41136.09      -613.67218     -2342.4436      3892.8654    
      1500   304.49069     -41159.225     -9327.8509     -259.89822      3892.8654    
      1600   291.33802     -41130.624     -13200.352     -4759.3792      3892.8654    
      1700   311.73013     -41121.867     -1258.6561     -5924.8762      3892.8654    
      1800   330.0388      -41124.356      9025.2497     -1740.7075      3892.8654    
      1900   296.20466     -41114.956     -3566.8584      3880.8725      3892.8654    
      2000   303.73646     -41149.499     -5087.7212     -5909.3375      3892.8654    
      2100   285.78258     -41142.989     -6325.4069     -1041.4148      3892.8654    
      2200   300.28029     -41150.93      -6037.8916     -2536.1026      3892.8654    
      2300   323.5851      -41156.059     -9763.572       17.50391       3892.8654    
      2400   323.49532     -41144.503     -1816.1392     -951.89216      3892.8654    
      2500   307.21655     -41130.938     -9003.1358      4821.8264      3892.8654    
      2600   293.25596     -41131.184     -4955.7476      2818.968       3892.8654    
      2700   305.25968     -41156.991     -8697.0586     -2910.4373      3892.8654    
      2800   304.31964     -41167.613      358.85051      1155.7831      3892.8654    
      2900   274.88005     -41137.053     -6354.638      -2077.8687      3892.8654    
      3000   309.73732     -41140.744      1501.9281     -2331.5268      3892.8654    
Loop time of 132.788 on 8 procs for 3000 steps with 350 atoms

Performance: 0.976 ns/day, 24.590 hours/ns, 22.592 timesteps/s, 7.907 katom-step/s
99.0% CPU use with 8 MPI tasks x 1 OpenMP threads

MPI task timing breakdown:
Section |  min time  |  avg time  |  max time  |%varavg| %total
---------------------------------------------------------------
Pair    | 74.362     | 99.74      | 110.16     | 144.4 | 75.11
Bond    | 0.0077077  | 0.008391   | 0.0089563  |   0.5 |  0.01
Neigh   | 7.0403     | 9.1789     | 10.126     |  40.5 |  6.91
Comm    | 1.7777     | 12.209     | 37.579     | 412.6 |  9.19
Output  | 0.0060928  | 0.0078521  | 0.0090798  |   1.1 |  0.01
Modify  | 10.635     | 11.577     | 13.724     |  36.3 |  8.72
Other   |            | 0.06733    |            |       |  0.05

Nlocal:          43.75 ave          49 max          36 min
Histogram: 1 0 0 2 0 0 1 2 1 1
Nghost:           3142 ave        3190 max        3098 min
Histogram: 1 1 0 1 1 1 1 1 0 1
Neighs:        27514.8 ave       30666 max       22968 min
Histogram: 1 0 1 1 0 0 1 2 1 1

Total # of neighbors = 220118
Ave neighs/atom = 628.90857
Ave special neighs/atom = 0
Neighbor list builds = 300
Dangerous builds not checked
*****Equilibration neg2 starts.*****
WARNING: New thermo_style command, previous thermo_modify settings will be lost (src/output.cpp:903)
Neighbor list info ...
  update: every = 10 steps, delay = 0 steps, check = no
  max neighbors/atom: 2000, page size: 100000
  master list distance cutoff = 12
  ghost atom cutoff = 12
  binsize = 6, bins = 4 3 3
  2 neighbor lists, perpetual/occasional/extra = 2 0 0
  (1) pair reaxff, perpetual
      attributes: half, newton off, ghost
      pair build: half/bin/newtoff/ghost
      stencil: full/ghost/bin/3d
      bin: standard
  (2) fix qeq/reaxff, perpetual, copy from (1)
      attributes: half, newton off
      pair build: copy
      stencil: none
      bin: none
Setting up Verlet run ...
  Unit style    : real
  Current step  : 0
  Time step     : 0.5
Per MPI rank memory allocation (min/avg/max) = 120.9 | 122.1 | 123.4 Mbytes
   Step          Temp          PotEng         Press        f_avgp[1]        Volume    
         0   309.73732     -41140.744      1501.939       0              3892.8654    
       100   314.35525     -41155.336     -1746.0377     -3788.8652      3892.8654    
       200   292.74543     -41156.982     -7101.3609     -6956.2679      3892.8654    
       300   287.8988      -41168.252     -2597.3065     -2526.993       3892.8654    
       400   291.98225     -41153.91      -5607.6375      577.2592       3892.8654    
       500   287.22764     -41114.461     -4200.313       3794.1047      3892.8654    
       600   285.66543     -41103.744     -22885.129     -822.15843      3892.8654    
       700   295.54707     -41115.424     -11455.672      1536.1416      3892.8654    
       800   309.65302     -41145.696     -2828.0252     -702.46752      3892.8654    
       900   294.68293     -41164.673     -10570.955      3291.3853      3892.8654    
      1000   304.19345     -41178.915     -4699.744      -4604.7028      3892.8654    
      1100   308.63015     -41166.884      2645.7193     -2175.1886      3892.8654    
      1200   307.1147      -41141.578      4007.5679     -2690.9014      3892.8654    
      1300   333.34303     -41165.907      6875.5631     -792.29274      3892.8654    
      1400   299.67386     -41138.643     -21213.437     -6950.6743      3892.8654    
      1500   299.25844     -41146.713     -6873.4209     -5302.1542      3892.8654    
      1600   291.07277     -41149.468      4596.6329     -1572.6953      3892.8654    
      1700   286.8135      -41154.579     -2545.8938     -4688.6417      3892.8654    
      1800   285.26357     -41174.259     -8931.9966     -2044.4882      3892.8654    
      1900   297.92753     -41186.715     -23344.133     -3188.7015      3892.8654    
      2000   281.86665     -41140.921     -2452.868      -1430.6308      3892.8654    
      2100   303.89565     -41141.911     -7355.3001      535.64072      3892.8654    
      2200   312.08715     -41146.409      2742.7503     -4.7407453      3892.8654    
      2300   302.99761     -41152.028     -8122.5625     -2066.9613      3892.8654    
      2400   287.74379     -41159.42       7735.4779      6789.2597      3892.8654    
      2500   271.71498     -41165.101     -10492.686     -113.82344      3892.8654    
      2600   284.23262     -41155.419     -1177.7123      3505.351       3892.8654    
      2700   308.88337     -41150.093     -2124.8111      1218.8035      3892.8654    
      2800   294.4612      -41129.541     -6595.5606     -2193.3608      3892.8654    
      2900   306.05667     -41142.326     -11129.753     -700.47697      3892.8654    
      3000   287.14709     -41151.492     -285.69258      305.91296      3892.8654    
Loop time of 132.854 on 8 procs for 3000 steps with 350 atoms

Performance: 0.976 ns/day, 24.603 hours/ns, 22.581 timesteps/s, 7.903 katom-step/s
99.0% CPU use with 8 MPI tasks x 1 OpenMP threads

MPI task timing breakdown:
Section |  min time  |  avg time  |  max time  |%varavg| %total
---------------------------------------------------------------
Pair    | 74.42      | 99.462     | 110.04     | 144.2 | 74.87
Bond    | 0.007719   | 0.0083168  | 0.0089097  |   0.4 |  0.01
Neigh   | 7.0137     | 9.2021     | 10.215     |  41.5 |  6.93
Comm    | 1.9377     | 12.531     | 37.566     | 406.1 |  9.43
Output  | 0.0012133  | 0.0013993  | 0.0022173  |   0.8 |  0.00
Modify  | 10.576     | 11.582     | 13.779     |  37.1 |  8.72
Other   |            | 0.06721    |            |       |  0.05

Nlocal:          43.75 ave          48 max          38 min
Histogram: 1 1 0 1 0 0 1 1 0 3
Nghost:        3135.75 ave        3184 max        3107 min
Histogram: 2 1 0 2 1 1 0 0 0 1
Neighs:        27498.6 ave       30033 max       24089 min
Histogram: 1 1 1 0 0 0 2 0 0 3

Total # of neighbors = 219989
Ave neighs/atom = 628.54
Ave special neighs/atom = 0
Neighbor list builds = 300
Dangerous builds not checked
OMP_NUM_THREADS environment is not set. Defaulting to 1 thread. (src/comm.cpp:98)
  using 1 OpenMP thread(s) per MPI task
Reading restart file ...
  restart file = 2 Aug 2023, LAMMPS = 2 Aug 2023
  restoring atom style full from restart
  triclinic box = (0 0 0) to (15.6782 14.2194 17.6383) with tilt (-7.0409 -1.0144 0.675)
  2 by 2 by 2 MPI processor grid
  pair style reaxff stores no restart info
  350 atoms
Finding 1-2 1-3 1-4 neighbors ...
  special bond factors lj:    0        0        0       
  special bond factors coul:  0        0        0       
     0 = max # of 1-2 neighbors
     0 = max # of 1-3 neighbors
     0 = max # of 1-4 neighbors
     1 = max # of special neighbors
  special bonds CPU = 0.000 seconds
  read_restart CPU = 0.003 seconds
*****Positive-change 2 starts.*****
Resetting global fix info from restart file:
  fix style: nvt, fix ID: 4
Changing box ...
  triclinic box = (0 0 0) to (15.6782 14.361594 17.6383) with tilt (-7.0409 -1.0144 0.675)
  triclinic box = (0 0 0) to (15.6782 14.361594 17.6383) with tilt (-7.0409 -1.0144 0.68175)
All restart file global fix info was re-assigned
Neighbor list info ...
  update: every = 10 steps, delay = 0 steps, check = no
  max neighbors/atom: 2000, page size: 100000
  master list distance cutoff = 12
  ghost atom cutoff = 12
  binsize = 6, bins = 4 3 3
  2 neighbor lists, perpetual/occasional/extra = 2 0 0
  (1) pair reaxff, perpetual
      attributes: half, newton off, ghost
      pair build: half/bin/newtoff/ghost
      stencil: full/ghost/bin/3d
      bin: standard
  (2) fix qeq/reaxff, perpetual, copy from (1)
      attributes: half, newton off
      pair build: copy
      stencil: none
      bin: none
Setting up Verlet run ...
  Unit style    : real
  Current step  : 0
  Time step     : 0.5
Per MPI rank memory allocation (min/avg/max) = 119.1 | 120.1 | 121.2 Mbytes
   Step          Temp          PotEng         Press        f_avgp[1]        Volume    
         0   286.18816     -41041.677     -55444.29       0              3971.5092    
       100   315.74123     -41071.711     -10576.374     -6731.6815      3971.5092    
       200   295.8202      -41079.787     -12638.562      691.73512      3971.5092    
       300   279.09067     -41089.355     -6416.5671     -2236.8927      3971.5092    
       400   284.74384     -41098.62      -4486.6598     -7668.0743      3971.5092    
       500   292.53064     -41076.407     -10964.605     -8996.0889      3971.5092    
       600   326.6897      -41076.405     -6174.7418     -9469.8709      3971.5092    
       700   309.25285     -41056.916     -15068.51      -6723.5157      3971.5092    
       800   303.40361     -41076.155     -16652.71      -7405.3739      3971.5092    
       900   303.11378     -41103.236     -14173.753     -8002.9575      3971.5092    
      1000   285.26053     -41096.24      -13090.273     -8842.6815      3971.5092    
      1100   303.60578     -41091.428     -14024.287     -6772.9235      3971.5092    
      1200   300.00826     -41067.036     -11008.889     -4497.927       3971.5092    
      1300   301.69894     -41070.746     -1324.9768      2555.5768      3971.5092    
      1400   296.64831     -41077.373     -13594.232     -4094.9965      3971.5092    
      1500   289.70106     -41092.109     -18351.703     -9103.7912      3971.5092    
      1600   294.14754     -41105.894     -16278.914     -11834.522      3971.5092    
      1700   291.81104     -41091.336     -18186.45      -9335.7178      3971.5092    
      1800   308.80005     -41085.636     -15681.313     -3954.473       3971.5092    
      1900   310.05422     -41078.265     -15028.494     -6789.979       3971.5092    
      2000   306.17169     -41075.706     -12065.763     -11107.558      3971.5092    
      2100   304.17971     -41093.959     -7397.2657     -4069.9736      3971.5092    
      2200   280.79633     -41093.797     -6814.192      -6246.0093      3971.5092    
      2300   279.03136     -41101.651     -12459.559     -6468.3232      3971.5092    
      2400   289.85282     -41098.57      -1971.1363     -2326.3313      3971.5092    
      2500   317.92422     -41101.532     -8971.9354     -6424.7536      3971.5092    
      2600   319.31318     -41092.492     -3907.1797     -4586.3235      3971.5092    
      2700   307.21266     -41087.798     -12641.017     -5096.0073      3971.5092    
      2800   282.84334     -41084.303     -10661.039     -4482.0008      3971.5092    
      2900   294.25899     -41112.766     -12667.473     -8121.4573      3971.5092    
      3000   287.69422     -41110.098     -14646.559     -3563.3499      3971.5092    
Loop time of 128.741 on 8 procs for 3000 steps with 350 atoms

Performance: 1.007 ns/day, 23.841 hours/ns, 23.303 timesteps/s, 8.156 katom-step/s
99.0% CPU use with 8 MPI tasks x 1 OpenMP threads

MPI task timing breakdown:
Section |  min time  |  avg time  |  max time  |%varavg| %total
---------------------------------------------------------------
Pair    | 71.782     | 96.165     | 106.46     | 140.1 | 74.70
Bond    | 0.007598   | 0.0082392  | 0.0086968  |   0.4 |  0.01
Neigh   | 6.8631     | 8.8963     | 9.7936     |  39.6 |  6.91
Comm    | 1.9079     | 12.217     | 36.596     | 393.1 |  9.49
Output  | 0.0062132  | 0.0079595  | 0.0092105  |   1.2 |  0.01
Modify  | 10.487     | 11.379     | 13.417     |  35.1 |  8.84
Other   |            | 0.06753    |            |       |  0.05

Nlocal:          43.75 ave          52 max          37 min
Histogram: 2 0 0 0 3 0 2 0 0 1
Nghost:           3095 ave        3158 max        3056 min
Histogram: 3 0 1 0 1 1 1 0 0 1
Neighs:        26950.8 ave       31735 max       23193 min
Histogram: 2 0 0 2 1 1 1 0 0 1

Total # of neighbors = 215606
Ave neighs/atom = 616.01714
Ave special neighs/atom = 0
Neighbor list builds = 300
Dangerous builds not checked
*****Equilibration pos2 starts.*****
WARNING: New thermo_style command, previous thermo_modify settings will be lost (src/output.cpp:903)
Neighbor list info ...
  update: every = 10 steps, delay = 0 steps, check = no
  max neighbors/atom: 2000, page size: 100000
  master list distance cutoff = 12
  ghost atom cutoff = 12
  binsize = 6, bins = 4 3 3
  2 neighbor lists, perpetual/occasional/extra = 2 0 0
  (1) pair reaxff, perpetual
      attributes: half, newton off, ghost
      pair build: half/bin/newtoff/ghost
      stencil: full/ghost/bin/3d
      bin: standard
  (2) fix qeq/reaxff, perpetual, copy from (1)
      attributes: half, newton off
      pair build: copy
      stencil: none
      bin: none
Setting up Verlet run ...
  Unit style    : real
  Current step  : 0
  Time step     : 0.5
Per MPI rank memory allocation (min/avg/max) = 119 | 120.1 | 121.3 Mbytes
   Step          Temp          PotEng         Press        f_avgp[1]        Volume    
         0   287.69422     -41110.098     -14646.526      0              3971.5092    
       100   304.51892     -41117.526     -12989.23      -2927.3531      3971.5092    
       200   312.30032     -41096.056     -12435.381     -9166.6834      3971.5092    
       300   315.25054     -41080.274     -6088.1919     -3822.315       3971.5092    
       400   332.39427     -41108.942     -12489.345     -5492.9196      3971.5092    
       500   307.90275     -41102.967     -23079.804     -5450.9228      3971.5092    
       600   290.43818     -41099.566     -11034.445     -3735.3616      3971.5092    
       700   274.19253     -41092.29      -18834.735     -8898.2158      3971.5092    
       800   291.53751     -41111.867     -5633.098      -6198.4169      3971.5092    
       900   307.85816     -41106.481     -11773.154     -744.18419      3971.5092    
      1000   313.20552     -41089.795     -13848.066     -6133.6354      3971.5092    
      1100   305.01618     -41101.515     -14563.287     -2155.7325      3971.5092    
      1200   302.27066     -41120.682     -11132.488     -3838.394       3971.5092    
      1300   290.74547     -41109.014     -15634.801     -4580.0506      3971.5092    
      1400   307.9873      -41113.124     -13852.962     -5584.394       3971.5092    
      1500   296.97275     -41085.422     -5134.9365     -4521.7836      3971.5092    
      1600   320.50733     -41076.913     -3874.4402     -8517.0951      3971.5092    
      1700   326.07467     -41089.622     -5911.8731     -2573.3272      3971.5092    
      1800   288.19306     -41093.491     -13227.663     -5651.9437      3971.5092    
      1900   313.26996     -41125.502     -12418.695     -12337.116      3971.5092    
      2000   305.61404     -41125.499     -7923.3361     -4629.2585      3971.5092    
      2100   293.85813     -41112.111     -6863.4373     -8634.9312      3971.5092    
      2200   303.60912     -41095.363     -13956.81      -1782.8937      3971.5092    
      2300   319.83889     -41093.381     -12967.528     -1946.3324      3971.5092    
      2400   288.32584     -41075.452     -23167.894     -3807.0889      3971.5092    
      2500   301.26413     -41099.885     -14764.434     -8992.6506      3971.5092    
      2600   291.77758     -41098.551     -17838.929     -6432.9928      3971.5092    
      2700   290.63343     -41102.301     -15008.443     -6666.6944      3971.5092    
      2800   327.50584     -41140.21      -15750.804     -9335.7762      3971.5092    
      2900   300.17175     -41129.922     -10090.012     -6878.7341      3971.5092    
      3000   283.44246     -41133.663     -13802.088     -9105.7386      3971.5092    
Loop time of 128.94 on 8 procs for 3000 steps with 350 atoms

Performance: 1.005 ns/day, 23.878 hours/ns, 23.267 timesteps/s, 8.143 katom-step/s
98.9% CPU use with 8 MPI tasks x 1 OpenMP threads

MPI task timing breakdown:
Section |  min time  |  avg time  |  max time  |%varavg| %total
---------------------------------------------------------------
Pair    | 72.126     | 96.5       | 106.42     | 139.7 | 74.84
Bond    | 0.0075765  | 0.0081977  | 0.0086278  |   0.4 |  0.01
Neigh   | 6.8167     | 8.8727     | 9.8046     |  39.5 |  6.88
Comm    | 2.159      | 12.093     | 36.465     | 394.6 |  9.38
Output  | 0.0012281  | 0.0014096  | 0.0021442  |   0.7 |  0.00
Modify  | 10.471     | 11.398     | 13.458     |  35.0 |  8.84
Other   |            | 0.06714    |            |       |  0.05

Nlocal:          43.75 ave          50 max          37 min
Histogram: 1 2 0 0 0 0 3 0 0 2
Nghost:         3067.5 ave        3109 max        3032 min
Histogram: 1 1 0 2 1 0 2 0 0 1
Neighs:          26934 ave       30602 max       23208 min
Histogram: 1 2 0 0 0 0 3 0 0 2

Total # of neighbors = 215472
Ave neighs/atom = 615.63429
Ave special neighs/atom = 0
Neighbor list builds = 300
Dangerous builds not checked
OMP_NUM_THREADS environment is not set. Defaulting to 1 thread. (src/comm.cpp:98)
  using 1 OpenMP thread(s) per MPI task
Reading restart file ...
  restart file = 2 Aug 2023, LAMMPS = 2 Aug 2023
  restoring atom style full from restart
  triclinic box = (0 0 0) to (15.6782 14.2194 17.6383) with tilt (-7.0409 -1.0144 0.675)
  2 by 2 by 2 MPI processor grid
  pair style reaxff stores no restart info
  350 atoms
Finding 1-2 1-3 1-4 neighbors ...
  special bond factors lj:    0        0        0       
  special bond factors coul:  0        0        0       
     0 = max # of 1-2 neighbors
     0 = max # of 1-3 neighbors
     0 = max # of 1-4 neighbors
     1 = max # of special neighbors
  special bonds CPU = 0.000 seconds
  read_restart CPU = 0.002 seconds
*****Negative-change 3 starts.*****
Resetting global fix info from restart file:
  fix style: nvt, fix ID: 4
Changing box ...
  triclinic box = (0 0 0) to (15.6782 14.2194 17.461917) with tilt (-7.0409 -1.0144 0.675)
All restart file global fix info was re-assigned
Neighbor list info ...
  update: every = 10 steps, delay = 0 steps, check = no
  max neighbors/atom: 2000, page size: 100000
  master list distance cutoff = 12
  ghost atom cutoff = 12
  binsize = 6, bins = 4 3 3
  2 neighbor lists, perpetual/occasional/extra = 2 0 0
  (1) pair reaxff, perpetual
      attributes: half, newton off, ghost
      pair build: half/bin/newtoff/ghost
      stencil: full/ghost/bin/3d
      bin: standard
  (2) fix qeq/reaxff, perpetual, copy from (1)
      attributes: half, newton off
      pair build: copy
      stencil: none
      bin: none
Setting up Verlet run ...
  Unit style    : real
  Current step  : 0
  Time step     : 0.5
Per MPI rank memory allocation (min/avg/max) = 120.8 | 121.9 | 123.2 Mbytes
   Step          Temp          PotEng         Press        f_avgp[1]        Volume    
         0   286.18816     -41057.92       40132.572      0              3892.8654    
       100   311.91045     -41085.073      1615.4001     -2994.8551      3892.8654    
       200   312.71306     -41106.573     -9257.76        7068.7472      3892.8654    
       300   289.38125     -41111.491     -9088.1445     -1148.1881      3892.8654    
       400   278.02288     -41109.808     -1764.3964     -6260.5813      3892.8654    
       500   290.71511     -41091.621     -5147.4144     -4306.0416      3892.8654    
       600   312.89569     -41077.322     -3392.9275     -4940.4018      3892.8654    
       700   310.60925     -41068.677     -1445.8531      4713.3169      3892.8654    
       800   292.33607     -41075.424     -14879.812     -5695.419       3892.8654    
       900   290.9186      -41101.57      -2985.2507     -2834.6431      3892.8654    
      1000   280.41767     -41096.011     -8362.1086     -3840.4118      3892.8654    
      1100   302.68411     -41108.175     -7814.8743     -969.10916      3892.8654    
      1200   303.21588     -41092.601     -1399.8665      1486.312       3892.8654    
      1300   307.05049     -41096.184     -2979.6682     -20.662684      3892.8654    
      1400   300.25369     -41097.49      -4967.195      -2044.785       3892.8654    
      1500   289.22772     -41111.02       1154.9037     -1277.5712      3892.8654    
      1600   274.20854     -41098.649     -1217.4936      2725.7881      3892.8654    
      1700   282.716       -41087.589     -5719.1193     -4135.2175      3892.8654    
      1800   313.61985     -41089.749     -3654.3264     -176.58446      3892.8654    
      1900   320.76014     -41094.091     -9434.1781     -2780.1634      3892.8654    
      2000   307.33259     -41095.487      6872.4382     -2744.4737      3892.8654    
      2100   304.36746     -41119.861     -4573.9094     -6822.8002      3892.8654    
      2200   295.79177     -41129.646      17210.88       5239.4809      3892.8654    
      2300   283.3908      -41114.427      309.54721      1370.0382      3892.8654    
      2400   287.09377     -41087.786     -9432.7892     -1367.0576      3892.8654    
      2500   324.85411     -41101.24      -2248.652       3030.6188      3892.8654    
      2600   305.47542     -41083.31       19474.107      3031.7928      3892.8654    
      2700   301.13025     -41108.49      -7270.072      -6937.774       3892.8654    
      2800   302.71324     -41127.591     -9841.0204     -8661.176       3892.8654    
      2900   301.39575     -41135.035      382.23896     -4908.5231      3892.8654    
      3000   290.23835     -41116.818     -13423.222     -1402.3428      3892.8654    
Loop time of 133.538 on 8 procs for 3000 steps with 350 atoms

Performance: 0.971 ns/day, 24.729 hours/ns, 22.466 timesteps/s, 7.863 katom-step/s
99.0% CPU use with 8 MPI tasks x 1 OpenMP threads

MPI task timing breakdown:
Section |  min time  |  avg time  |  max time  |%varavg| %total
---------------------------------------------------------------
Pair    | 74.588     | 99.921     | 111.12     | 144.5 | 74.83
Bond    | 0.007652   | 0.0082665  | 0.008707   |   0.4 |  0.01
Neigh   | 7.0392     | 9.1447     | 10.193     |  40.2 |  6.85
Comm    | 1.4455     | 12.66      | 37.988     | 405.9 |  9.48
Output  | 0.0061703  | 0.0079119  | 0.0091111  |   1.2 |  0.01
Modify  | 10.687     | 11.728     | 13.841     |  35.6 |  8.78
Other   |            | 0.06749    |            |       |  0.05

Nlocal:          43.75 ave          48 max          39 min
Histogram: 1 0 0 3 0 0 2 0 1 1
Nghost:        3133.88 ave        3184 max        3100 min
Histogram: 2 1 0 1 1 1 1 0 0 1
Neighs:        27483.5 ave       30050 max       24809 min
Histogram: 1 0 0 3 0 0 2 0 1 1

Total # of neighbors = 219868
Ave neighs/atom = 628.19429
Ave special neighs/atom = 0
Neighbor list builds = 300
Dangerous builds not checked
*****Equilibration neg3 starts.*****
WARNING: New thermo_style command, previous thermo_modify settings will be lost (src/output.cpp:903)
Neighbor list info ...
  update: every = 10 steps, delay = 0 steps, check = no
  max neighbors/atom: 2000, page size: 100000
  master list distance cutoff = 12
  ghost atom cutoff = 12
  binsize = 6, bins = 4 3 3
  2 neighbor lists, perpetual/occasional/extra = 2 0 0
  (1) pair reaxff, perpetual
      attributes: half, newton off, ghost
      pair build: half/bin/newtoff/ghost
      stencil: full/ghost/bin/3d
      bin: standard
  (2) fix qeq/reaxff, perpetual, copy from (1)
      attributes: half, newton off
      pair build: copy
      stencil: none
      bin: none
Setting up Verlet run ...
  Unit style    : real
  Current step  : 0
  Time step     : 0.5
Per MPI rank memory allocation (min/avg/max) = 120.8 | 121.9 | 123.2 Mbytes
   Step          Temp          PotEng         Press        f_avgp[1]        Volume    
         0   290.23835     -41116.818     -13423.24       0              3892.8654    
       100   294.73987     -41112.842     -3557.7043     -4589.9859      3892.8654    
       200   326.35967     -41114.779     -13062.105      602.52562      3892.8654    
       300   322.16599     -41099.83      -10929.922     -6100.8781      3892.8654    
       400   316.91914     -41109.823     -5888.6141     -5763.3349      3892.8654    
       500   312.66521     -41115.543     -20696.408     -12055.758      3892.8654    
       600   301.22613     -41118.405     -9185.1228     -6588.4191      3892.8654    
       700   288.01954     -41123.622     -937.09923     -7113.8998      3892.8654    
       800   299.20812     -41142.509     -5050.538      -3710.8559      3892.8654    
       900   312.56474     -41149.338      3535.0634     -1071.6425      3892.8654    
      1000   303.68066     -41114.432      2694.1821     -5985.5312      3892.8654    
      1100   306.93673     -41113.136     -6674.5818     -5650.4462      3892.8654    
      1200   290.60567     -41113.639     -21058.752     -3758.337       3892.8654    
      1300   287.9078      -41122.135      908.03832     -1614.4009      3892.8654    
      1400   302.00862     -41166.093     -9894.0547     -3497.7496      3892.8654    
      1500   293.77965     -41165.634     -9205.598       5620.904       3892.8654    
      1600   283.82632     -41120.715     -13488.852     -1963.4195      3892.8654    
      1700   300.68254     -41124.846     -19755.662     -5073.4816      3892.8654    
      1800   302.2953      -41125.297     -6527.4622     -3409.5888      3892.8654    
      1900   313.92004     -41133.679     -11871.99      -1832.5394      3892.8654    
      2000   292.28381     -41106.351     -5665.9217     -8222.6024      3892.8654    
      2100   307.39031     -41115.073     -6112.7393     -7960.24        3892.8654    
      2200   297.87101     -41113.963      882.40372     -684.45888      3892.8654    
      2300   292.82395     -41123.92       3651.718      -2773.0279      3892.8654    
      2400   307.05438     -41145.987     -3612.9304     -6587.4148      3892.8654    
      2500   290.85913     -41133.262     -3155.904      -6972.3936      3892.8654    
      2600   290.31705     -41108.75      -5390.7312     -5066.8377      3892.8654    
      2700   322.40257     -41124.457     -5825.0202     -6040.1407      3892.8654    
      2800   300.62627     -41109.456     -13023.888     -8346.635       3892.8654    
      2900   290.91631     -41118.177     -10700.401     -1572.4299      3892.8654    
      3000   297.45575     -41158.868     -11607.789     -7097.0362      3892.8654    
Loop time of 133.972 on 8 procs for 3000 steps with 350 atoms

Performance: 0.967 ns/day, 24.810 hours/ns, 22.393 timesteps/s, 7.837 katom-step/s
98.9% CPU use with 8 MPI tasks x 1 OpenMP threads

MPI task timing breakdown:
Section |  min time  |  avg time  |  max time  |%varavg| %total
---------------------------------------------------------------
Pair    | 75.328     | 100.26     | 111.29     | 143.9 | 74.84
Bond    | 0.0077936  | 0.0083897  | 0.0088756  |   0.4 |  0.01
Neigh   | 7.0522     | 9.1753     | 10.239     |  40.2 |  6.85
Comm    | 1.6211     | 12.661     | 37.59      | 404.9 |  9.45
Output  | 0.0011916  | 0.001377   | 0.0021821  |   0.8 |  0.00
Modify  | 10.742     | 11.799     | 13.927     |  35.5 |  8.81
Other   |            | 0.06755    |            |       |  0.05

Nlocal:          43.75 ave          48 max          36 min
Histogram: 2 0 0 0 0 1 0 1 1 3
Nghost:        3140.12 ave        3197 max        3102 min
Histogram: 2 0 2 0 1 0 2 0 0 1
Neighs:        27498.2 ave       30074 max       22975 min
Histogram: 2 0 0 0 1 0 0 1 1 3

Total # of neighbors = 219986
Ave neighs/atom = 628.53143
Ave special neighs/atom = 0
Neighbor list builds = 300
Dangerous builds not checked
OMP_NUM_THREADS environment is not set. Defaulting to 1 thread. (src/comm.cpp:98)
  using 1 OpenMP thread(s) per MPI task
Reading restart file ...
  restart file = 2 Aug 2023, LAMMPS = 2 Aug 2023
  restoring atom style full from restart
  triclinic box = (0 0 0) to (15.6782 14.2194 17.6383) with tilt (-7.0409 -1.0144 0.675)
  2 by 2 by 2 MPI processor grid
  pair style reaxff stores no restart info
  350 atoms
Finding 1-2 1-3 1-4 neighbors ...
  special bond factors lj:    0        0        0       
  special bond factors coul:  0        0        0       
     0 = max # of 1-2 neighbors
     0 = max # of 1-3 neighbors
     0 = max # of 1-4 neighbors
     1 = max # of special neighbors
  special bonds CPU = 0.000 seconds
  read_restart CPU = 0.003 seconds
*****Positive-change 3 starts.*****
Resetting global fix info from restart file:
  fix style: nvt, fix ID: 4
Changing box ...
  triclinic box = (0 0 0) to (15.6782 14.2194 17.814683) with tilt (-7.0409 -1.0144 0.675)
All restart file global fix info was re-assigned
Neighbor list info ...
  update: every = 10 steps, delay = 0 steps, check = no
  max neighbors/atom: 2000, page size: 100000
  master list distance cutoff = 12
  ghost atom cutoff = 12
  binsize = 6, bins = 4 3 3
  2 neighbor lists, perpetual/occasional/extra = 2 0 0
  (1) pair reaxff, perpetual
      attributes: half, newton off, ghost
      pair build: half/bin/newtoff/ghost
      stencil: full/ghost/bin/3d
      bin: standard
  (2) fix qeq/reaxff, perpetual, copy from (1)
      attributes: half, newton off
      pair build: copy
      stencil: none
      bin: none
Setting up Verlet run ...
  Unit style    : real
  Current step  : 0
  Time step     : 0.5
Per MPI rank memory allocation (min/avg/max) = 119.3 | 120.2 | 121.5 Mbytes
   Step          Temp          PotEng         Press        f_avgp[1]        Volume    
         0   286.18816     -41046.983     -55672.806      0              3971.5092    
       100   311.26311     -41074.559     -9314.9116     -5406.2424      3971.5092    
       200   286.65476     -41078.199     -13629.899     -1422.7401      3971.5092    
       300   293.07182     -41113.869      3673.4218     -2547.9362      3971.5092    
       400   278.92911     -41108.471     -8872.5716     -4413.6834      3971.5092    
       500   292.08416     -41089.176     -947.01133     -4540.1504      3971.5092    
       600   310.70333     -41067.042     -8851.6359     -8429.993       3971.5092    
       700   315.95813     -41064.475     -6488.9635     -340.9427       3971.5092    
       800   306.29626     -41073.663     -20884.246     -6765.8249      3971.5092    
       900   297.42236     -41093.003     -11274.59      -2732.3572      3971.5092    
      1000   273.35927     -41083.458     -14825.875     -8323.0611      3971.5092    
      1100   298.13917     -41090.205     -15097.656     -5916.0756      3971.5092    
      1200   307.6344      -41070.905     -12925.373     -10459.244      3971.5092    
      1300   329.18053     -41079.233     -17178.857     -5737.0407      3971.5092    
      1400   312.1509      -41079.967     -20897.928     -10513.45       3971.5092    
      1500   316.41216     -41120.855     -15806.073     -8728.4168      3971.5092    
      1600   288.86053     -41111.245     -16064.907     -7097.3292      3971.5092    
      1700   283.76899     -41093.543     -6493.4821      1113.8026      3971.5092    
      1800   298.00638     -41079.199     -16504.144     -7208.8077      3971.5092    
      1900   320.33209     -41075.106     -13027.328     -16013.067      3971.5092    
      2000   329.8627      -41084.195     -8816.8354     -7764.7925      3971.5092    
      2100   296.27988     -41080.251     -11144.515     -4966.4691      3971.5092    
      2200   273.02697     -41082.289     -20064.256     -13633.832      3971.5092    
      2300   288.27358     -41099.434     -7215.8555     -14106.723      3971.5092    
      2400   302.6418      -41091.929     -15234.558     -10632.148      3971.5092    
      2500   295.44731     -41063.547     -9369.645      -9838.5149      3971.5092    
      2600   298.48381     -41063.543     -7979.1443     -11883.153      3971.5092    
      2700   295.79954     -41087.191     -15578.762     -12366.155      3971.5092    
      2800   297.8827      -41105.934     -9676.1329     -11950.105      3971.5092    
      2900   287.66313     -41093.967     -12056.525     -11786.795      3971.5092    
      3000   329.27945     -41107.184     -16179.435     -4981.9183      3971.5092    
Loop time of 128.921 on 8 procs for 3000 steps with 350 atoms

Performance: 1.005 ns/day, 23.874 hours/ns, 23.270 timesteps/s, 8.145 katom-step/s
98.9% CPU use with 8 MPI tasks x 1 OpenMP threads

MPI task timing breakdown:
Section |  min time  |  avg time  |  max time  |%varavg| %total
---------------------------------------------------------------
Pair    | 72.296     | 96.243     | 106.89     | 138.8 | 74.65
Bond    | 0.007633   | 0.0082977  | 0.0088352  |   0.4 |  0.01
Neigh   | 6.8687     | 8.9249     | 9.8989     |  39.7 |  6.92
Comm    | 1.5881     | 12.253     | 36.193     | 389.0 |  9.50
Output  | 0.0061777  | 0.0078147  | 0.0090456  |   1.1 |  0.01
Modify  | 10.455     | 11.417     | 13.484     |  35.2 |  8.86
Other   |            | 0.06654    |            |       |  0.05

Nlocal:          43.75 ave          48 max          38 min
Histogram: 2 0 1 0 0 0 0 0 2 3
Nghost:        3074.12 ave        3107 max        3035 min
Histogram: 2 0 1 0 0 1 1 0 0 3
Neighs:        26909.5 ave       29381 max       23547 min
Histogram: 2 1 0 0 0 0 0 0 3 2

Total # of neighbors = 215276
Ave neighs/atom = 615.07429
Ave special neighs/atom = 0
Neighbor list builds = 300
Dangerous builds not checked
*****Equilibration pos3 starts.*****
WARNING: New thermo_style command, previous thermo_modify settings will be lost (src/output.cpp:903)
Neighbor list info ...
  update: every = 10 steps, delay = 0 steps, check = no
  max neighbors/atom: 2000, page size: 100000
  master list distance cutoff = 12
  ghost atom cutoff = 12
  binsize = 6, bins = 4 3 3
  2 neighbor lists, perpetual/occasional/extra = 2 0 0
  (1) pair reaxff, perpetual
      attributes: half, newton off, ghost
      pair build: half/bin/newtoff/ghost
      stencil: full/ghost/bin/3d
      bin: standard
  (2) fix qeq/reaxff, perpetual, copy from (1)
      attributes: half, newton off
      pair build: copy
      stencil: none
      bin: none
Setting up Verlet run ...
  Unit style    : real
  Current step  : 0
  Time step     : 0.5
Per MPI rank memory allocation (min/avg/max) = 119.2 | 120.2 | 121.5 Mbytes
   Step          Temp          PotEng         Press        f_avgp[1]        Volume    
         0   329.27945     -41107.184     -16179.447      0              3971.5092    
       100   303.1192      -41088.881     -14422.449     -11416.02       3971.5092    
       200   301.75606     -41117.166     -14190.765     -10814.435      3971.5092    
       300   274.75916     -41103.549     -16666.537     -10351.876      3971.5092    
       400   264.1285      -41078.051     -8952.7428     -10215.018      3971.5092    
       500   313.22715     -41110.932     -15852.022     -7976.2048      3971.5092    
       600   301.11903     -41084.649     -11049.027     -9403.5878      3971.5092    
       700   307.39836     -41084.322     -1624.9089     -2160.1809      3971.5092    
       800   290.71355     -41093.226     -14430.809     -8186.9492      3971.5092    
       900   279.3388      -41102.317     -8561.3962     -9935.3411      3971.5092    
      1000   292.89507     -41105.669     -12537.851     -10669.039      3971.5092    
      1100   308.59794     -41100.897     -17288.429     -7735.6288      3971.5092    
      1200   305.87902     -41092.898     -12862.589     -12096.38       3971.5092    
      1300   285.52161     -41077.531     -16493.541     -9457.188       3971.5092    
      1400   294.3829      -41081.411     -17758.128     -11414.704      3971.5092    
      1500   309.5737      -41075.011     -9261.0415     -9241.5283      3971.5092    
      1600   313.68611     -41050.132     -5248.5438     -9054.3001      3971.5092    
      1700   334.4655      -41083.348     -18956.902     -7546.555       3971.5092    
      1800   290.56901     -41071.904     -16518.604     -10351.486      3971.5092    
      1900   292.02095     -41076.153     -12551.583     -12008.148      3971.5092    
      2000   299.21538     -41085.584     -11925.19      -9804.344       3971.5092    
      2100   287.97237     -41086.014     -10490.629     -7586.7488      3971.5092    
      2200   293.19455     -41110.299     -7519.5534     -6442.7956      3971.5092    
      2300   282.78452     -41098.374     -23877.771     -13131.377      3971.5092    
      2400   295.81554     -41073.711     -349.30384     -6022.0882      3971.5092    
      2500   307.87598     -41078.488     -3784.0779     -10531.585      3971.5092    
      2600   291.05067     -41061.827     -4885.7738     -2143.4069      3971.5092    
      2700   300.31741     -41065.433     -12706.536     -5582.7449      3971.5092    
      2800   299.91296     -41050.255     -8918.6072     -7432.1677      3971.5092    
      2900   297.29827     -41050.171     -13728.815     -8702.1424      3971.5092    
      3000   287.99065     -41071.64      -5382.155      -3055.6286      3971.5092    
Loop time of 128.307 on 8 procs for 3000 steps with 350 atoms

Performance: 1.010 ns/day, 23.761 hours/ns, 23.381 timesteps/s, 8.183 katom-step/s
98.9% CPU use with 8 MPI tasks x 1 OpenMP threads

MPI task timing breakdown:
Section |  min time  |  avg time  |  max time  |%varavg| %total
---------------------------------------------------------------
Pair    | 72.275     | 96.127     | 106.18     | 138.4 | 74.92
Bond    | 0.0075052  | 0.0081912  | 0.0086422  |   0.4 |  0.01
Neigh   | 6.8222     | 8.8984     | 9.8443     |  39.7 |  6.94
Comm    | 1.7977     | 11.864     | 35.711     | 393.9 |  9.25
Output  | 0.0012095  | 0.0014315  | 0.0022333  |   0.8 |  0.00
Modify  | 10.405     | 11.341     | 13.428     |  35.3 |  8.84
Other   |            | 0.06664    |            |       |  0.05

Nlocal:          43.75 ave          49 max          36 min
Histogram: 1 1 0 0 1 0 0 3 1 1
Nghost:        3075.75 ave        3124 max        3038 min
Histogram: 2 2 0 0 0 0 2 0 1 1
Neighs:        26905.8 ave       29926 max       22504 min
Histogram: 1 1 0 0 1 0 0 3 1 1

Total # of neighbors = 215246
Ave neighs/atom = 614.98857
Ave special neighs/atom = 0
Neighbor list builds = 300
Dangerous builds not checked
OMP_NUM_THREADS environment is not set. Defaulting to 1 thread. (src/comm.cpp:98)
  using 1 OpenMP thread(s) per MPI task
Reading restart file ...
  restart file = 2 Aug 2023, LAMMPS = 2 Aug 2023
  restoring atom style full from restart
  triclinic box = (0 0 0) to (15.6782 14.2194 17.6383) with tilt (-7.0409 -1.0144 0.675)
  2 by 2 by 2 MPI processor grid
  pair style reaxff stores no restart info
  350 atoms
Finding 1-2 1-3 1-4 neighbors ...
  special bond factors lj:    0        0        0       
  special bond factors coul:  0        0        0       
     0 = max # of 1-2 neighbors
     0 = max # of 1-3 neighbors
     0 = max # of 1-4 neighbors
     1 = max # of special neighbors
  special bonds CPU = 0.000 seconds
  read_restart CPU = 0.003 seconds
*****Negative-change 4 starts.*****
Resetting global fix info from restart file:
  fix style: nvt, fix ID: 4
Changing box ...
  triclinic box = (0 0 0) to (15.6782 14.2194 17.6383) with tilt (-7.0409 -1.0144 0.498617)
All restart file global fix info was re-assigned
Neighbor list info ...
  update: every = 10 steps, delay = 0 steps, check = no
  max neighbors/atom: 2000, page size: 100000
  master list distance cutoff = 12
  ghost atom cutoff = 12
  binsize = 6, bins = 4 3 3
  2 neighbor lists, perpetual/occasional/extra = 2 0 0
  (1) pair reaxff, perpetual
      attributes: half, newton off, ghost
      pair build: half/bin/newtoff/ghost
      stencil: full/ghost/bin/3d
      bin: standard
  (2) fix qeq/reaxff, perpetual, copy from (1)
      attributes: half, newton off
      pair build: copy
      stencil: none
      bin: none
Setting up Verlet run ...
  Unit style    : real
  Current step  : 0
  Time step     : 0.5
Per MPI rank memory allocation (min/avg/max) = 119.8 | 121 | 122.3 Mbytes
   Step          Temp          PotEng         Press        f_avgp[1]        Volume    
         0   286.18816     -41069.848     -10236.273      0              3932.1873    
       100   299.20583     -41077.722     -3967.8711     -5104.316       3932.1873    
       200   305.04224     -41097.298     -12709.708      3789.312       3932.1873    
       300   298.80495     -41112.211      1909.7852      1940.0003      3932.1873    
       400   300.61416     -41122.352     -22139.329     -4231.5895      3932.1873    
       500   306.54667     -41101.877     -10559.257     -5428.0437      3932.1873    
       600   318.88693     -41083.024     -4127.0196     -7396.16        3932.1873    
       700   310.02099     -41072.337     -3450.4653     -399.19911      3932.1873    
       800   290.61684     -41084.134      1305.2993     -2624.6704      3932.1873    
       900   301.49614     -41122.892     -8854.5715     -2467.8552      3932.1873    
      1000   276.36884     -41106.822     -6576.6762     -4792.5048      3932.1873    
      1100   271.36775     -41087.932     -20434.868     -5754.5616      3932.1873    
      1200   288.15465     -41085.328     -6067.9637     -3774.7185      3932.1873    
      1300   316.94818     -41112.497     -11505.163     -5001.3034      3932.1873    
      1400   311.31051     -41137.851     -6192.1201     -4500.0719      3932.1873    
      1500   294.77346     -41158.538     -5476.1561     -2272.2493      3932.1873    
      1600   282.63334     -41154.364     -8283.1605     -5818.29        3932.1873    
      1700   300.38162     -41148.228     -802.73687     -1105.9695      3932.1873    
      1800   297.56488     -41116.76      -17501.2       -1439.2548      3932.1873    
      1900   306.47647     -41124.817     -3051.5903      356.69666      3932.1873    
      2000   309.46048     -41154.169     -4175.8814     -5525.7364      3932.1873    
      2100   275.00702     -41144.606     -7586.9535     -3872.7137      3932.1873    
      2200   297.9457      -41167.276      2508.4179     -4297.514       3932.1873    
      2300   272.22616     -41120.8       -10473.675     -5894.8987      3932.1873    
      2400   301.30678     -41120.147     -11524.61      -2545.2922      3932.1873    
      2500   336.24669     -41144.336     -6119.0736     -1718.3237      3932.1873    
      2600   304.88962     -41131.252     -8400.7538     -3054.0015      3932.1873    
      2700   280.25419     -41132.61      -10031.87      -4580.8208      3932.1873    
      2800   306.069       -41166.215     -20704.638     -5814.02        3932.1873    
      2900   302.11868     -41169.124     -10765.008     -7571.7898      3932.1873    
      3000   304.38803     -41168.723     -11705.109     -6386.775       3932.1873    
Loop time of 130.888 on 8 procs for 3000 steps with 350 atoms

Performance: 0.990 ns/day, 24.239 hours/ns, 22.920 timesteps/s, 8.022 katom-step/s
98.9% CPU use with 8 MPI tasks x 1 OpenMP threads

MPI task timing breakdown:
Section |  min time  |  avg time  |  max time  |%varavg| %total
---------------------------------------------------------------
Pair    | 73.288     | 98.306     | 108.41     | 141.0 | 75.11
Bond    | 0.0079043  | 0.0084251  | 0.0089621  |   0.4 |  0.01
Neigh   | 6.9146     | 8.993      | 9.9619     |  39.9 |  6.87
Comm    | 1.8872     | 11.999     | 37.012     | 403.4 |  9.17
Output  | 0.0061196  | 0.0078563  | 0.0091148  |   1.2 |  0.01
Modify  | 10.544     | 11.506     | 13.594     |  35.5 |  8.79
Other   |            | 0.06777    |            |       |  0.05

Nlocal:          43.75 ave          53 max          36 min
Histogram: 1 1 1 0 0 3 1 0 0 1
Nghost:         3099.5 ave        3126 max        3083 min
Histogram: 1 1 3 0 1 0 1 0 0 1
Neighs:          27199 ave       32563 max       22793 min
Histogram: 2 0 1 0 0 3 1 0 0 1

Total # of neighbors = 217592
Ave neighs/atom = 621.69143
Ave special neighs/atom = 0
Neighbor list builds = 300
Dangerous builds not checked
*****Equilibration neg4 starts.*****
WARNING: New thermo_style command, previous thermo_modify settings will be lost (src/output.cpp:903)
Neighbor list info ...
  update: every = 10 steps, delay = 0 steps, check = no
  max neighbors/atom: 2000, page size: 100000
  master list distance cutoff = 12
  ghost atom cutoff = 12
  binsize = 6, bins = 4 3 3
  2 neighbor lists, perpetual/occasional/extra = 2 0 0
  (1) pair reaxff, perpetual
      attributes: half, newton off, ghost
      pair build: half/bin/newtoff/ghost
      stencil: full/ghost/bin/3d
      bin: standard
  (2) fix qeq/reaxff, perpetual, copy from (1)
      attributes: half, newton off
      pair build: copy
      stencil: none
      bin: none
Setting up Verlet run ...
[...]
  (1) pair reaxff, perpetual
      attributes: half, newton off, ghost
      pair build: half/bin/newtoff/ghost
      stencil: full/ghost/bin/3d
      bin: standard
  (2) fix qeq/reaxff, perpetual, copy from (1)
      attributes: half, newton off
      pair build: copy
      stencil: none
      bin: none
Setting up Verlet run ...
  Unit style    : real
  Current step  : 0
  Time step     : 0.5
Per MPI rank memory allocation (min/avg/max) = 120.1 | 121.1 | 122.4 Mbytes
   Step          Temp          PotEng         Press        f_avgp[1]        Volume    
         0   286.18816     -41072.539     -10581.26       0              3932.1873    
       100   299.17072     -41078.92      -5632.6259     -5183.6887      3932.1873    
       200   305.35076     -41097.178     -10299.91       3955.7909      3932.1873    
       300   284.77163     -41095.838      3359.9115     -1413.4641      3932.1873    
       400   286.88126     -41104.682     -15529.007     -6181.5151      3932.1873    
       500   294.59411     -41087.699     -3756.579      -5992.9531      3932.1873    
       600   304.50042     -41066.141     -8192.1249     -3296.5931      3932.1873    
       700   297.70649     -41051.417      695.11507     -85.544027      3932.1873    
       800   293.91999     -41067.335     -16054.059     -4354.574       3932.1873    
       900   297.41535     -41100.918     -7047.5216     -5851.7362      3932.1873    
      1000   300.08635     -41120.448      4123.8405      572.82146      3932.1873    
      1100   291.62776     -41109.255     -5005.3581     -2004.2681      3932.1873    
      1200   282.01028     -41086.219     -6557.9343     -7506.6044      3932.1873    
      1300   322.7142      -41106.318     -11935.944     -9209.0233      3932.1873    
      1400   292.43756     -41079.354     -15573.521     -1139.6473      3932.1873    
      1500   290.70025     -41098.557      2767.6722      1675.0039      3932.1873    
      1600   293.99957     -41116.194     -4820.957      -7801.5551      3932.1873    
      1700   283.45454     -41105.2       -10674.821     -1566.6884      3932.1873    
      1800   303.12364     -41098.161     -2660.9849     -4089.6497      3932.1873    
      1900   320.3194      -41091.018      3363.0825     -5564.4686      3932.1873    
      2000   296.19948     -41079.241     -8310.6314     -3217.232       3932.1873    
      2100   298.36311     -41110.465     -7714.6626     -4955.1587      3932.1873    
      2200   302.7397      -41125.176     -6388.7052     -5594.191       3932.1873    
      2300   295.28724     -41103.853     -8809.1812     -3846.1739      3932.1873    
      2400   313.15629     -41105.225      2437.2562     -6435.8391      3932.1873    
      2500   319.96118     -41104.188     -19655.879     -6530.4198      3932.1873    
      2600   295.72624     -41083.229      608.90298      2023.0613      3932.1873    
      2700   297.01764     -41099.533     -9668.5245     -3459.6532      3932.1873    
      2800   286.05488     -41093.893     -538.72219     -4834.9154      3932.1873    
      2900   303.90661     -41111.995     -11969.426     -6159.7945      3932.1873    
      3000   298.93409     -41100.47      -10224.047     -1713.6093      3932.1873    
Loop time of 131.012 on 8 procs for 3000 steps with 350 atoms

Performance: 0.989 ns/day, 24.261 hours/ns, 22.899 timesteps/s, 8.015 katom-step/s
98.7% CPU use with 8 MPI tasks x 1 OpenMP threads

MPI task timing breakdown:
Section |  min time  |  avg time  |  max time  |%varavg| %total
---------------------------------------------------------------
Pair    | 75.763     | 91.261     | 107.06     | 111.6 | 69.66
Bond    | 0.007742   | 0.0081485  | 0.0085775  |   0.3 |  0.01
Neigh   | 7.0872     | 8.4911     | 10.032     |  34.1 |  6.48
Comm    | 2.8581     | 18.73      | 34.163     | 246.3 | 14.30
Output  | 0.005941   | 0.007414   | 0.008418   |   1.0 |  0.01
Modify  | 10.971     | 12.448     | 13.92      |  28.2 |  9.50
Other   |            | 0.06706    |            |       |  0.05

Nlocal:          43.75 ave          48 max          39 min
Histogram: 1 0 2 0 0 2 0 1 1 1
Nghost:        3118.38 ave        3171 max        3079 min
Histogram: 2 0 1 0 3 0 0 0 1 1
Neighs:          27199 ave       29650 max       24500 min
Histogram: 1 0 2 0 0 2 0 1 1 1

Total # of neighbors = 217592
Ave neighs/atom = 621.69143
Ave special neighs/atom = 0
Neighbor list builds = 300
Dangerous builds not checked
*****Equilibration neg6 starts.*****
WARNING: New thermo_style command, previous thermo_modify settings will be lost (src/output.cpp:903)
Neighbor list info ...
  update: every = 10 steps, delay = 0 steps, check = no
  max neighbors/atom: 2000, page size: 100000
  master list distance cutoff = 12
  ghost atom cutoff = 12
  binsize = 6, bins = 4 3 3
  2 neighbor lists, perpetual/occasional/extra = 2 0 0
  (1) pair reaxff, perpetual
      attributes: half, newton off, ghost
      pair build: half/bin/newtoff/ghost
      stencil: full/ghost/bin/3d
      bin: standard
  (2) fix qeq/reaxff, perpetual, copy from (1)
      attributes: half, newton off
      pair build: copy
      stencil: none
      bin: none
Setting up Verlet run ...
  Unit style    : real
  Current step  : 0
  Time step     : 0.5
Per MPI rank memory allocation (min/avg/max) = 120.1 | 121.1 | 122.3 Mbytes
   Step          Temp          PotEng         Press        f_avgp[1]        Volume    
         0   298.93409     -41100.47      -10224.07       0              3932.1873    
       100   303.85641     -41105.296     -7011.7099     -4598.5668      3932.1873    
       200   285.79375     -41087.83      -4971.578      -5309.566       3932.1873    
       300   304.11031     -41084.404      1858.5171      1305.2676      3932.1873    
       400   319.78969     -41084.865     -1886.9991     -4213.9255      3932.1873    
       500   280.43671     -41058.992     -12138.819     -4434.5149      3932.1873    
       600   291.01208     -41099.903     -16012.064      3439.1813      3932.1873    
       700   281.60273     -41102.412     -137.43611      786.64886      3932.1873    
       800   273.7209      -41083.594     -825.38829     -6426.5112      3932.1873    
       900   275.66706     -41068.093     -6423.908      -6525.279       3932.1873    
      1000   305.76711     -41085.869     -9919.5661      844.69616      3932.1873    
      1100   287.9734      -41069.746     -14106.487     -2873.8528      3932.1873    
      1200   296.5032      -41080.68       2140.8754      1916.4602      3932.1873    
      1300   301.99727     -41088.968     -25886.919     -4893.6814      3932.1873    
      1400   316.4417      -41104.562     -3768.0278     -4666.9888      3932.1873    
      1500   293.64253     -41089.233      4268.595      -7575.0212      3932.1873    
      1600   287.78929     -41084.676     -18711.506     -8185.8585      3932.1873    
      1700   298.82629     -41100.911     -9145.5382      3674.2978      3932.1873    
      1800   289.54317     -41103.76      -7669.7032     -213.62617      3932.1873    
      1900   294.5605      -41109.984      2266.4901     -5356.6455      3932.1873    
      2000   294.21892     -41086.231      10052.43       840.73415      3932.1873    
      2100   305.78778     -41080.204     -16789.198     -3907.6618      3932.1873    
      2200   311.90684     -41105.906     -18343.838     -5748.5042      3932.1873    
      2300   302.70199     -41115.602     -640.66399     -983.248        3932.1873    
      2400   291.07456     -41102.997      6576.6435      1936.872       3932.1873    
      2500   297.59558     -41108.676      8480.2818      5474.6011      3932.1873    
      2600   294.32567     -41100.088     -5177.5366     -141.966        3932.1873    
      2700   312.54874     -41096.746     -5780.6361     -3707.2853      3932.1873    
      2800   314.17488     -41080.669     -2300.7112      2383.5882      3932.1873    
      2900   307.22322     -41090.6       -10963.332     -2460.5012      3932.1873    
      3000   295.66971     -41114.922     -12790.918     -4357.3095      3932.1873    
Loop time of 123.479 on 8 procs for 3000 steps with 350 atoms

Performance: 1.050 ns/day, 22.866 hours/ns, 24.296 timesteps/s, 8.503 katom-step/s
99.0% CPU use with 8 MPI tasks x 1 OpenMP threads

MPI task timing breakdown:
Section |  min time  |  avg time  |  max time  |%varavg| %total
---------------------------------------------------------------
Pair    | 70.685     | 76.503     | 102.63     | 113.8 | 61.96
Bond    | 0.0071999  | 0.0077898  | 0.0086608  |   0.6 |  0.01
Neigh   | 6.7512     | 7.2978     | 9.8817     |  36.6 |  5.91
Comm    | 0.77802    | 26.923     | 32.748     | 191.9 | 21.80
Output  | 0.0012143  | 0.0013529  | 0.0019544  |   0.6 |  0.00
Modify  | 10.106     | 12.684     | 13.224     |  27.7 | 10.27
Other   |            | 0.06149    |            |       |  0.05

Nlocal:          43.75 ave          48 max          40 min
Histogram: 2 0 1 0 0 1 2 1 0 1
Nghost:        3103.25 ave        3151 max        3060 min
Histogram: 1 1 1 1 1 0 1 0 0 2
Neighs:        27210.2 ave       29794 max       24948 min
Histogram: 2 0 1 0 0 1 2 1 0 1

Total # of neighbors = 217682
Ave neighs/atom = 621.94857
Ave special neighs/atom = 0
Neighbor list builds = 300
Dangerous builds not checked
OMP_NUM_THREADS environment is not set. Defaulting to 1 thread. (src/comm.cpp:98)
  using 1 OpenMP thread(s) per MPI task
Reading restart file ...
  restart file = 2 Aug 2023, LAMMPS = 2 Aug 2023
  restoring atom style full from restart
  triclinic box = (0 0 0) to (15.6782 14.2194 17.6383) with tilt (-7.0409 -1.0144 0.675)
  2 by 2 by 2 MPI processor grid
  pair style reaxff stores no restart info
  350 atoms
Finding 1-2 1-3 1-4 neighbors ...
  special bond factors lj:    0        0        0       
  special bond factors coul:  0        0        0       
     0 = max # of 1-2 neighbors
     0 = max # of 1-3 neighbors
     0 = max # of 1-4 neighbors
     1 = max # of special neighbors
  special bonds CPU = 0.000 seconds
  read_restart CPU = 0.002 seconds
*****Positive-change 6 starts.*****
Resetting global fix info from restart file:
  fix style: nvt, fix ID: 4
Changing box ...
  triclinic box = (0 0 0) to (15.6782 14.2194 17.6383) with tilt (-6.898706 -1.0144 0.675)
All restart file global fix info was re-assigned
Neighbor list info ...
  update: every = 10 steps, delay = 0 steps, check = no
  max neighbors/atom: 2000, page size: 100000
  master list distance cutoff = 12
  ghost atom cutoff = 12
  binsize = 6, bins = 4 3 3
  2 neighbor lists, perpetual/occasional/extra = 2 0 0
  (1) pair reaxff, perpetual
      attributes: half, newton off, ghost
      pair build: half/bin/newtoff/ghost
      stencil: full/ghost/bin/3d
      bin: standard
  (2) fix qeq/reaxff, perpetual, copy from (1)
      attributes: half, newton off
      pair build: copy
      stencil: none
      bin: none
Setting up Verlet run ...
  Unit style    : real
  Current step  : 0
  Time step     : 0.5
Per MPI rank memory allocation (min/avg/max) = 119.7 | 120.6 | 121.7 Mbytes
   Step          Temp          PotEng         Press        f_avgp[1]        Volume    
         0   286.18816     -41063.787     -11860.138      0              3932.1873    
       100   304.87613     -41078.061     -11133.533     -4526.8556      3932.1873    
       200   302.61675     -41088.98      -18356.061      3547.8785      3932.1873    
       300   304.73078     -41114.028      7021.561      -109.85171      3932.1873    
       400   293.59785     -41113.596     -6462.4604     -6918.0058      3932.1873    
       500   285.79853     -41083         -6232.9833     -6112.1166      3932.1873    
       600   319.876       -41085.273     -6439.9216     -8561.4313      3932.1873    
       700   319.14141     -41075.923     -10023.608     -2631.1634      3932.1873    
       800   300.88588     -41083.06      -8741.4359     -6197.3119      3932.1873    
       900   302.52871     -41119.775     -12077.392     -6176.9932      3932.1873    
      1000   279.04777     -41110.037     -8955.1247     -5093.9174      3932.1873    
      1100   306.67831     -41116.372     -5796.1564     -4054.1716      3932.1873    
      1200   298.28892     -41076.985      7060.1136     -1325.8261      3932.1873    
      1300   309.41004     -41074.854     -6501.5299     -6786.2119      3932.1873    
      1400   301.75712     -41083.686      1332.532      -4353.0993      3932.1873    
      1500   300.28922     -41113.332     -20389.986     -2497.3865      3932.1873    
      1600   290.06696     -41120.068     -13311.281     -8973.448       3932.1873    
      1700   311.81602     -41127.297     -9281.8083     -8833.418       3932.1873    
      1800   303.21335     -41093.668     -9249.1739     -3607.1414      3932.1873    
      1900   310.4767      -41087.3       -25424.955     -9689.9677      3932.1873    
      2000   305.85425     -41080.269     -14359.469     -9522.5789      3932.1873    
      2100   309.55012     -41090.686     -11168.342     -4099.2098      3932.1873    
      2200   295.87586     -41098.955     -8374.3101     -10822.376      3932.1873    
      2300   283.93796     -41093.7       -5480.3614     -3231.1174      3932.1873    
      2400   296.15663     -41100.148     -3506.3732     -4669.1747      3932.1873    
      2500   305.37934     -41093.165     -9780.3871     -1902.1276      3932.1873    
      2600   304.07656     -41083.038     -22078.971     -5179.5741      3932.1873    
      2700   295.73957     -41073.993     -4865.3421     -5617.0805      3932.1873    
      2800   320.67279     -41111.899      4410.8615     -7168.1009      3932.1873    
      2900   301.99386     -41116.19      -2245.5307     -7609.9276      3932.1873    
      3000   287.5403      -41103.243     -10429.939     -7322.2286      3932.1873    
Loop time of 123.772 on 8 procs for 3000 steps with 350 atoms

Performance: 1.047 ns/day, 22.921 hours/ns, 24.238 timesteps/s, 8.483 katom-step/s
99.1% CPU use with 8 MPI tasks x 1 OpenMP threads

MPI task timing breakdown:
Section |  min time  |  avg time  |  max time  |%varavg| %total
---------------------------------------------------------------
Pair    | 70.405     | 76.37      | 102.88     | 115.7 | 61.70
Bond    | 0.0069869  | 0.007858   | 0.0085408  |   0.6 |  0.01
Neigh   | 6.7054     | 7.2408     | 9.8304     |  36.7 |  5.85
Comm    | 0.78317    | 27.305     | 33.281     | 193.6 | 22.06
Output  | 0.0054724  | 0.0069897  | 0.0079084  |   1.1 |  0.01
Modify  | 10.193     | 12.779     | 13.305     |  27.6 | 10.33
Other   |            | 0.06157    |            |       |  0.05

Nlocal:          43.75 ave          48 max          38 min
Histogram: 1 1 1 0 0 0 0 1 1 3
Nghost:           3108 ave        3162 max        3072 min
Histogram: 2 2 0 0 1 0 1 0 1 1
Neighs:        27221.6 ave       29670 max       23756 min
Histogram: 1 1 1 0 0 0 0 2 0 3

Total # of neighbors = 217773
Ave neighs/atom = 622.20857
Ave special neighs/atom = 0
Neighbor list builds = 300
Dangerous builds not checked
*****Equilibration pos6 starts.*****
WARNING: New thermo_style command, previous thermo_modify settings will be lost (src/output.cpp:903)
Neighbor list info ...
  update: every = 10 steps, delay = 0 steps, check = no
  max neighbors/atom: 2000, page size: 100000
  master list distance cutoff = 12
  ghost atom cutoff = 12
  binsize = 6, bins = 4 3 3
  2 neighbor lists, perpetual/occasional/extra = 2 0 0
  (1) pair reaxff, perpetual
      attributes: half, newton off, ghost
      pair build: half/bin/newtoff/ghost
      stencil: full/ghost/bin/3d
      bin: standard
  (2) fix qeq/reaxff, perpetual, copy from (1)
      attributes: half, newton off
      pair build: copy
      stencil: none
      bin: none
Setting up Verlet run ...
  Unit style    : real
  Current step  : 0
  Time step     : 0.5
Per MPI rank memory allocation (min/avg/max) = 119.7 | 120.6 | 121.6 Mbytes
   Step          Temp          PotEng         Press        f_avgp[1]        Volume    
         0   287.5403      -41103.243     -10429.922      0              3932.1873    
       100   293.21479     -41099.835     -5019.2185     -3663.0885      3932.1873    
       200   322.44352     -41097.579     -3601.5289     -1715.8105      3932.1873    
       300   307.90715     -41075.28      -6070.681      -4722.9908      3932.1873    
       400   309.13757     -41083.877     -12700.378     -590.21765      3932.1873    
       500   264.62466     -41050.452     -13002.737     -2701.5443      3932.1873    
       600   291.35124     -41087.255     -9131.0502     -4448.2036      3932.1873    
       700   297.08868     -41084.301     -589.16908     -319.16461      3932.1873    
       800   348.2243      -41098.455     -10644.763     -2384.2854      3932.1873    
       900   319.99529     -41079.937     -1947.6773      2288.801       3932.1873    
      1000   312.35401     -41099.422     -11846.556     -2499.7161      3932.1873    
      1100   284.63957     -41082.306     -3836.0956     -4167.8518      3932.1873    
      1200   296.86667     -41095.483     -702.10018     -5503.3596      3932.1873    
      1300   298.01474     -41085.641     -13023.521     -4214.0783      3932.1873    
      1400   323.00884     -41075.169      5880.058      -3122.7209      3932.1873    
      1500   321.74704     -41077.599     -7543.9569      958.12265      3932.1873    
      1600   305.47706     -41087.414     -3151.5635     -6135.0848      3932.1873    
      1700   297.0312      -41087.027     -732.11421     -2623.2249      3932.1873    
      1800   295.17519     -41086.059     -10407.113     -3788.4821      3932.1873    
      1900   302.59766     -41096.683     -10355.848     -7673.4204      3932.1873    
      2000   306.79493     -41106.382     -4127.8256     -1744.7506      3932.1873    
      2100   297.67759     -41098.429     -11753.869     -3515.1735      3932.1873    
      2200   310.51475     -41088.705     -9879.363      -2716.13        3932.1873    
      2300   318.454       -41081.913     -2964.2353     -5623.2336      3932.1873    
      2400   313.11246     -41081.316     -444.34341     -4678.4499      3932.1873    
      2500   287.61645     -41091.519     -9776.9229     -4601.4725      3932.1873    
      2600   278.17245     -41098.33      -1910.6865     -962.73493      3932.1873    
      2700   291.05247     -41103.334     -6523.7611     -10186.599      3932.1873    
      2800   300.66221     -41090.479     -14441.382     -7441.6036      3932.1873    
      2900   317.43152     -41088.803     -16160.908     -664.56117      3932.1873    
      3000   316.25789     -41091.58      -8949.7911     -1557.4078      3932.1873    
Loop time of 122.964 on 8 procs for 3000 steps with 350 atoms

Performance: 1.054 ns/day, 22.771 hours/ns, 24.397 timesteps/s, 8.539 katom-step/s
99.0% CPU use with 8 MPI tasks x 1 OpenMP threads

MPI task timing breakdown:
Section |  min time  |  avg time  |  max time  |%varavg| %total
---------------------------------------------------------------
Pair    | 70.458     | 76.222     | 102.27     | 113.6 | 61.99
Bond    | 0.0069541  | 0.0079291  | 0.0087199  |   0.7 |  0.01
Neigh   | 6.6952     | 7.1881     | 9.761      |  36.4 |  5.85
Comm    | 0.78672    | 26.847     | 32.619     | 191.5 | 21.83
Output  | 0.0012384  | 0.0014204  | 0.0020214  |   0.6 |  0.00
Modify  | 10.066     | 12.636     | 13.121     |  27.4 | 10.28
Other   |            | 0.06146    |            |       |  0.05

Nlocal:          43.75 ave          49 max          36 min
Histogram: 1 0 1 0 0 1 1 2 1 1
Nghost:        3103.38 ave        3156 max        3060 min
Histogram: 1 1 0 3 0 1 0 0 0 2
Neighs:        27184.8 ave       30251 max       22521 min
Histogram: 1 0 1 0 0 1 1 2 1 1

Total # of neighbors = 217478
Ave neighs/atom = 621.36571
Ave special neighs/atom = 0
Neighbor list builds = 300
Dangerous builds not checked
Total wall time: 0:54:13
