LAMMPS (2 Aug 2023 - Update 2)
  using 1 OpenMP thread(s) per MPI task
Reading data file ...
  triclinic box = (0 0 0) to (15.0372 13.535 17.6074) with tilt (-7.4931 -0.1585 0.0807)
WARNING: Triclinic box skew is large. LAMMPS will run inefficiently. (src/domain.cpp:220)
  1 by 2 by 2 MPI processor grid
  reading atoms ...
  366 atoms
Finding 1-2 1-3 1-4 neighbors ...
  special bond factors lj:    0        0        0       
  special bond factors coul:  0        0        0       
     0 = max # of 1-2 neighbors
     0 = max # of 1-3 neighbors
     0 = max # of 1-4 neighbors
     1 = max # of special neighbors
  special bonds CPU = 0.000 seconds
  read_data CPU = 0.005 seconds
WARNING: Van der Waals parameters for element SI indicate inner wall+shielding, but earlier atoms indicate a different van der Waals method. This may cause division-by-zero errors. Keeping van der Waals setting for earlier atoms. (src/REAXFF/reaxff_ffield.cpp:251)
*****Minimization starts.*****

CITE-CITE-CITE-CITE-CITE-CITE-CITE-CITE-CITE-CITE-CITE-CITE-CITE

Your simulation uses code contributions which should be cited:
- pair reaxff command: doi:10.1016/j.parco.2011.08.005
- fix qeq/reaxff command: doi:10.1016/j.parco.2011.08.005
The log file lists these citations in BibTeX format.

CITE-CITE-CITE-CITE-CITE-CITE-CITE-CITE-CITE-CITE-CITE-CITE-CITE

Switching to 'neigh_modify every 1 delay 0 check yes' setting during minimization
WARNING: Fix qeq/reaxff group is not charge neutral, net charge = -29.52 (src/REAXFF/fix_qeq_reaxff.cpp:392)
Neighbor list info ...
  update: every = 1 steps, delay = 0 steps, check = yes
  max neighbors/atom: 2000, page size: 100000
  master list distance cutoff = 12
  ghost atom cutoff = 12
  binsize = 6, bins = 4 3 3
  2 neighbor lists, perpetual/occasional/extra = 2 0 0
  (1) pair reaxff, perpetual
      attributes: half, newton off, ghost
      pair build: half/bin/newtoff/ghost
      stencil: full/ghost/bin/3d
      bin: standard
  (2) fix qeq/reaxff, perpetual, copy from (1)
      attributes: half, newton off
      pair build: copy
      stencil: none
      bin: none
Setting up cg style minimization ...
  Unit style    : real
  Current step  : 0
Per MPI rank memory allocation (min/avg/max) = 167.4 | 171.3 | 175.5 Mbytes
   Step          Temp          Press         Density         Volume         PotEng         TotEng    
         0   0              20658.275      1.9939932      3583.6077     -40625.304     -40625.304    
        71   0              343.42994      1.9939932      3583.6077     -41442.302     -41442.302    
Loop time of 21.7365 on 4 procs for 71 steps with 366 atoms

96.9% CPU use with 4 MPI tasks x 1 OpenMP threads

Minimization stats:
  Stopping criterion = energy tolerance
  Energy initial, next-to-last, final = 
     -40625.3037376214  -41442.2935374118  -41442.3024451925
  Force two-norm initial, final = 1618.1726 170.20934
  Force max component initial, final = 407.82727 61.787347
  Final line search alpha, max atom move = 0.0011950105 0.07383653
  Iterations, force evaluations = 71 345

MPI task timing breakdown:
Section |  min time  |  avg time  |  max time  |%varavg| %total
---------------------------------------------------------------
Pair    | 15.729     | 16.425     | 17.059     |  12.2 | 75.56
Bond    | 0.0008809  | 0.00093956 | 0.00098798 |   0.0 |  0.00
Neigh   | 0          | 0          | 0          |   0.0 |  0.00
Comm    | 0.87311    | 1.5059     | 2.2026     |  40.3 |  6.93
Output  | 0.023476   | 0.027121   | 0.029516   |   1.4 |  0.12
Modify  | 3.7549     | 3.7552     | 3.7556     |   0.0 | 17.28
Other   |            | 0.02244    |            |       |  0.10

Nlocal:           91.5 ave         104 max          74 min
Histogram: 1 0 0 0 1 0 0 0 1 1
Nghost:        4342.25 ave        4462 max        4225 min
Histogram: 1 0 1 0 0 0 1 0 0 1
Neighs:          63745 ave       71948 max       52251 min
Histogram: 1 0 0 0 1 0 0 0 1 1

Total # of neighbors = 254980
Ave neighs/atom = 696.66667
Ave special neighs/atom = 0
Neighbor list builds = 0
Dangerous builds = 0
System init for write_data ...
##### Equilibration starts.##### 
WARNING: Compute rdf cutoff less than neighbor cutoff - forcing a needless neighbor list build (src/compute_rdf.cpp:179)
Neighbor list info ...
  update: every = 10 steps, delay = 0 steps, check = yes
  max neighbors/atom: 2000, page size: 100000
  master list distance cutoff = 12
  ghost atom cutoff = 12
  binsize = 6, bins = 4 3 3
  3 neighbor lists, perpetual/occasional/extra = 2 1 0
  (1) pair reaxff, perpetual
      attributes: half, newton off, ghost
      pair build: half/bin/newtoff/ghost
      stencil: full/ghost/bin/3d
      bin: standard
  (2) compute rdf, occasional
      attributes: half, newton on, cut 7
      pair build: half/bin/newton/tri
      stencil: half/bin/3d/tri
      bin: standard
  (3) fix qeq/reaxff, perpetual, copy from (1)
      attributes: half, newton off
      pair build: copy
      stencil: none
      bin: none
Setting up Verlet run ...
  Unit style    : real
  Current step  : 0
  Time step     : 0.5
Per MPI rank memory allocation (min/avg/max) = 172.3 | 176.1 | 180.3 Mbytes
   Step          Temp          Press          PotEng         TotEng    
         0   300            4504.9603     -41442.303     -41115.905    
       100   197.16952      12279.223     -41291.594     -41077.075    
Loop time of 3.55736 on 4 procs for 100 steps with 366 atoms

Performance: 1.214 ns/day, 19.763 hours/ns, 28.111 timesteps/s, 10.289 katom-step/s
98.8% CPU use with 4 MPI tasks x 1 OpenMP threads

MPI task timing breakdown:
Section |  min time  |  avg time  |  max time  |%varavg| %total
---------------------------------------------------------------
Pair    | 2.9359     | 3.0079     | 3.083      |   3.5 | 84.55
Bond    | 0.00016636 | 0.00017041 | 0.0001788  |   0.0 |  0.00
Neigh   | 0.033529   | 0.034396   | 0.035365   |   0.4 |  0.97
Comm    | 0.025392   | 0.10067    | 0.17284    |  19.2 |  2.83
Output  | 0.00041947 | 0.00081896 | 0.0014688  |   0.0 |  0.02
Modify  | 0.40944    | 0.41034    | 0.41114    |   0.1 | 11.53
Other   |            | 0.003117   |            |       |  0.09

Nlocal:           91.5 ave         104 max          77 min
Histogram: 1 0 1 0 0 0 0 0 1 1
Nghost:        4354.75 ave        4451 max        4261 min
Histogram: 1 0 0 1 0 0 1 0 0 1
Neighs:        63743.5 ave       72335 max       54260 min
Histogram: 1 0 1 0 0 0 0 0 1 1

Total # of neighbors = 254974
Ave neighs/atom = 696.65027
Ave special neighs/atom = 0
Neighbor list builds = 1
Dangerous builds = 0
System init for write_data ...
WARNING: Compute rdf cutoff less than neighbor cutoff - forcing a needless neighbor list build (src/compute_rdf.cpp:179)
Total wall time: 0:00:25
