ITEM: TIMESTEP
0
ITEM: NUMBER OF ATOMS
365
ITEM: BOX BOUNDS xy xz yz pp pp pp
-6.9345999999999997e+00 1.9702400000000001e+01 -6.9345999999999997e+00
0.0000000000000000e+00 1.5863300000000001e+01 2.0880000000000001e+00
0.0000000000000000e+00 1.7464200000000002e+01 8.7949999999999995e-01
ITEM: ATOMS id type x y z q
8 4 -0.523653 4.53907 1.32228 0.800499
11 4 -0.662514 7.82349 5.12886 1.23165
108 3 -1.59136 6.75714 3.99284 -0.779456
194 2 -2.65868 7.72449 1.71809 -0.0441049
206 2 -0.296435 5.88407 2.38481 0.019923
222 2 -0.564796 2.69662 2.75202 0.150496
223 2 -2.44365 5.57513 0.112781 0.159617
225 2 -1.17321 6.50969 7.19235 0.136933
342 2 -0.967508 4.64581 4.71433 0.0221702
343 2 -0.331728 3.5544 6.86002 -0.0297477
1 4 3.17751 0.876092 2.87348 1.26642
2 4 1.88309 2.65117 0.711592 1.2278
4 4 2.42706 3.72709 5.78876 1.00486
10 4 1.85723 4.85532 8.54612 1.29086
21 4 5.011 2.64065 4.65389 1.479
29 4 6.37534 4.4948 2.50633 1.37745
32 4 6.01365 5.69511 8.08245 1.54388
34 4 4.8733 7.43652 5.79888 1.57721
68 1 -0.224038 6.74231 6.62304 -0.66886
78 1 1.73351 6.64269 2.63423 -0.667909
79 1 4.72772 5.48583 2.24163 -0.681467
102 3 2.63986 2.1595 2.02065 -0.833907
105 3 0.918722 3.93803 0.936886 -0.806785
107 3 2.11802 4.66447 6.98529 -0.814711
119 3 4.30468 1.28505 3.9728 -0.806084
120 3 3.83826 3.67141 5.14927 -0.814166
123 3 6.04131 2.18024 6.01634 -0.800708
129 3 5.99835 3.39122 3.60901 -0.841844
135 3 3.48261 7.31181 4.81115 -0.809115
136 3 4.89825 6.37594 7.07497 -0.785525
165 3 6.21213 7.21295 4.89354 -0.837764
191 2 1.28696 4.02423 4.60156 -0.0487802
192 2 1.94421 2.17595 6.1845 -0.043153
193 2 0.823508 1.32111 0.346689 0.0242806
224 2 0.24617 5.82298 6.14979 0.175277
226 2 0.527085 7.34755 7.22762 0.199904
252 2 1.48773 5.72299 3.24063 0.163555
253 2 2.62945 6.49957 1.95252 0.196999
254 2 0.860443 7.12746 2.10967 0.155895
255 2 4.37486 5.80102 3.2712 0.23786
256 2 4.02141 4.7528 1.75119 0.197426
257 2 4.97056 6.37038 1.58453 0.196326
195 2 0.179463 4.9768 8.71075 -0.0361522
259 2 2.78562 5.24051 0.0402853 0.221772
22 4 6.78429 2.3072 0.324355 1.53398
25 4 7.11349 3.018 6.83067 1.08904
51 4 11.1799 4.28303 1.61237 1.2756
52 4 7.58229 6.97521 4.04077 1.52826
54 4 11.5173 5.30388 6.69118 1.01651
56 4 10.3951 7.58367 5.00182 1.23237
74 1 8.01293 0.862363 4.05439 -0.664279
76 1 8.67936 3.50694 5.76131 -0.683162
89 1 9.94317 3.77514 2.95283 -0.664141
90 1 10.8195 1.89937 7.53927 -0.677348
91 1 10.4857 5.12356 8.28137 -0.672172
121 3 7.23269 1.0095 1.35264 -0.799727
130 3 6.78973 3.76402 1.11102 -0.829138
133 3 6.59325 4.35375 7.42605 -0.855428
162 3 11.4091 2.88663 0.772921 -0.794445
163 3 12.491 4.75987 2.34827 -0.662926
164 3 7.40125 5.61955 3.08797 -0.824556
166 3 10.3345 5.49011 0.663672 -0.770135
167 3 13.0192 4.62304 6.79782 -0.753669
168 3 7.19038 6.82352 8.33475 -0.829668
170 3 11.2031 7.62346 3.67038 -0.630971
171 3 8.91103 6.74332 4.9963 -0.79541
172 3 11.4396 6.85322 6.33655 -0.733619
176 3 8.44465 7.40003 0.613613 -0.80817
204 2 7.7149 2.04709 8.08095 -0.00182245
214 2 10.4879 4.29937 5.66967 0.00863047
240 2 7.9458 1.96548 3.80474 0.213311
241 2 9.05057 0.533913 4.3747 0.164851
242 2 7.1958 0.518462 4.7612 0.235526
246 2 8.13261 3.95959 4.8647 0.228681
247 2 9.40311 2.67279 5.48408 0.1478
248 2 9.03734 4.30073 6.54151 0.161809
272 2 12.5782 2.4015 4.7259 0.155979
282 2 10.4971 2.99129 3.56009 0.150946
283 2 9.06114 3.3561 2.36931 0.204438
284 2 9.69046 4.7145 3.53393 0.22496
285 2 11.1414 0.974874 6.96629 0.16831
286 2 11.7057 2.535 7.84676 0.161157
287 2 10.0068 2.51471 6.93149 0.151767
290 2 9.43802 5.51897 8.09417 0.212203
339 3 12.2044 0.297737 0.563585 -0.792854
289 2 10.4902 4.05819 8.65961 0.191465
9 4 14.7306 6.90217 3.16642 0.685591
47 4 14.0451 3.71805 6.02001 0.690526
66 1 16.1431 3.16592 2.19375 -0.524846
85 1 13.5347 2.09373 5.35213 -0.653866
230 2 15.0124 7.71168 8.31164 0.157909
270 2 13.3178 1.52507 6.38003 0.139795
271 2 14.4014 1.65463 4.72977 0.154922
351 2 13.9886 2.7077 2.03209 0.0789412
352 2 13.5828 3.27883 2.41472 0.117667
362 2 14.2898 0.194015 2.90223 0.186332
112 3 -5.12985 14.836 3.61204 -0.752401
349 2 -2.16772 15.0147 1.21845 0.226852
356 2 -2.60051 15.1316 6.77543 0.194466
14 4 -5.18266 13.3297 4.10074 1.12522
15 4 -1.95067 9.87736 7.20007 1.10642
17 4 -2.72965 12.7649 6.02219 1.26614
37 4 -0.314042 12.3953 4.05972 1.28502
72 1 -3.09955 14.2132 7.20104 -0.670248
113 3 -1.58585 9.02698 5.74513 -0.760343
114 3 -4.03229 12.8212 5.05792 -0.801936
115 3 -2.65277 11.3109 7.04268 -0.767022
141 3 -1.28726 12.9586 5.20269 -0.796528
209 2 -0.989658 10.9872 3.45188 -0.0101337
235 2 -2.6598 13.876 8.19032 0.143966
236 2 -4.23599 14.2916 7.2247 0.152529
244 2 -0.627699 12.6734 8.16188 0.165375
245 2 -0.300507 14.2745 7.18815 0.204981
327 1 -3.08019 14.536 1.68632 -0.679315
328 2 -3.89178 14.2952 0.929612 0.164507
329 2 -2.81778 13.6404 2.33424 0.18689
357 2 -4.41379 11.7094 0.464629 0.140635
20 4 0.781485 14.8793 2.41138 1.1152
360 2 3.2323 14.9861 2.07032 0.205663
71 1 -0.184565 10.1467 8.08871 -0.674468
23 4 1.7202 13.5343 8.1346 1.07164
30 4 2.29962 7.98859 3.90731 1.37172
36 4 3.65964 9.69083 1.74121 1.25459
39 4 3.60175 9.71231 7.29555 1.53604
40 4 2.40223 12.0226 5.5215 1.57171
44 4 5.99997 13.8703 1.38789 1.32448
60 4 5.21659 12.4766 4.12526 1.34024
75 1 -0.16613 13.7068 8.1832 -0.692039
98 1 5.91768 10.6704 4.03902 -0.681504
131 3 0.81109 8.23705 4.5627 -0.783424
138 3 2.8364 9.27779 3.04276 -0.816468
139 3 3.742 8.34126 0.805815 -0.819389
140 3 -0.184712 13.4135 2.82747 -0.78135
142 3 3.09105 10.9268 0.918259 -0.835189
143 3 2.68843 8.5779 8.06007 -0.840633
144 3 4.87838 8.97057 6.37018 -0.814624
145 3 1.07818 11.9611 4.62219 -0.827304
146 3 2.64642 10.6327 6.34811 -0.843416
147 3 2.19746 13.2361 6.66072 -0.817391
177 3 5.25129 13.2148 2.65523 -0.793168
178 3 3.72369 12.3577 4.65052 -0.832505
181 3 4.27668 10.7628 8.3869 -0.832694
184 3 6.26584 13.1216 5.19273 -0.782932
217 2 5.25047 10.1428 2.249 0.0307439
218 2 4.90422 13.3317 8.14359 -0.0198353
232 2 0.490603 10.5251 7.27449 0.225236
233 2 0.103009 9.12716 8.46094 0.152154
310 2 5.01988 9.97304 4.0231 0.211078
336 1 2.49039 14.1744 1.80606 -0.655551
337 2 2.39878 14.0284 0.688886 0.212036
338 2 2.69864 13.2071 2.35759 0.244946
359 2 0.782299 8.90365 0.0614441 0.128746
361 2 8.23162 14.942 1.23663 0.189039
180 3 6.42206 12.7072 0.415697 -0.748387
59 4 8.43086 8.70684 1.64139 1.30754
63 4 7.60286 13.0576 6.14072 0.865108
84 1 7.66778 14.4534 2.08699 -0.639189
92 1 10.0761 9.38255 5.54749 -0.663037
96 1 10.3194 9.17659 1.55081 -0.650512
97 1 12.009 12.1594 3.02915 -0.611591
175 3 7.95158 8.32341 3.16484 -0.820152
179 3 7.64329 10.0046 1.1114 -0.80039
183 3 8.94096 13.392 5.40231 -0.602037
219 2 7.47151 14.0483 7.48532 -0.0486243
220 2 7.75705 11.5613 6.85579 -0.0477472
269 2 8.18955 13.5359 2.49433 0.213249
291 2 11.0832 9.89631 5.4659 0.181765
292 2 9.68242 9.34934 6.60782 0.157963
293 2 9.31644 9.77832 4.8062 0.181683
303 2 10.4066 10.0321 0.813244 0.181069
304 2 10.8177 8.222 1.19076 0.210536
305 2 10.6343 9.46894 2.59233 0.21444
306 2 12.5007 11.1269 3.23442 0.170556
307 2 11.6378 12.5407 2.01097 0.174528
308 2 6.46277 10.6088 5.03954 0.18988
309 2 6.6264 10.5314 3.16443 0.214948
355 2 11.5698 8.40146 7.70515 0.109447
363 2 8.85998 11.3875 3.23267 0.0807428
70 1 14.7129 8.79687 8.34188 -0.596008
345 2 -0.377663 4.63117 11.8975 0.0841618
3 4 1.67819 2.24221 10.0889 1.1974
5 4 4.59842 0.854402 14.4715 1.30967
7 4 3.48088 2.93145 12.3707 1.50066
12 4 1.64283 5.04603 13.8049 1.30304
24 4 5.7283 3.6373 10.3756 1.31186
27 4 6.20199 3.05133 16.1822 1.30546
33 4 2.6926 7.74433 9.39565 1.32644
67 1 0.574362 5.95633 17.1867 -0.653666
69 1 3.00089 5.57901 15.0565 -0.657438
80 1 5.54009 6.69026 16.7954 -0.678158
82 1 5.20303 6.82302 12.4807 -0.674037
103 3 2.69246 1.87258 11.278 -0.78233
104 3 3.76184 2.02832 13.7562 -0.796745
106 3 2.26106 3.47517 9.24238 -0.828074
109 3 0.604526 4.13243 14.57 -0.641936
110 3 2.52662 4.24531 12.6997 -0.796067
111 3 1.03213 6.4978 13.2419 -0.802966
122 3 4.86082 3.46938 11.7015 -0.82805
124 3 5.73573 1.49334 15.4021 -0.767001
126 3 4.91674 3.76904 16.9064 -0.810051
132 3 5.5374 5.06304 9.6879 -0.788267
134 3 2.38718 6.20631 9.18232 -0.832602
190 2 1.68308 0.877151 9.09644 -0.0407572
203 2 5.22192 2.47878 9.26706 -0.0150591
227 2 3.01092 6.7093 15.0701 0.155732
228 2 3.94651 5.12599 14.6256 0.191565
229 2 2.70515 5.1197 16.0433 0.22093
251 2 5.90401 4.46319 14.1459 0.180457
258 2 5.3441 6.40104 15.7173 0.162654
261 2 2.93497 7.90753 17.1832 0.130046
263 2 6.20768 6.3102 12.4764 0.17941
264 2 4.4076 6.21216 11.8905 0.235235
265 2 4.82985 7.15053 13.4967 0.139014
330 1 1.38934 2.19263 16.5986 -0.48811
331 2 2.01309 2.39001 15.6912 0.238681
332 2 1.34362 3.05795 17.3134 0.168951
353 2 0.355344 5.02752 16.59 0.231608
354 2 1.26386 6.6663 16.6525 0.17179
28 4 8.59822 2.78395 11.3122 1.28508
46 4 10.2482 1.19103 9.25175 1.12404
49 4 10.9732 2.59353 15.6257 1.30798
53 4 11.3313 7.16187 17.3559 0.969649
55 4 7.75803 7.65395 9.56598 1.27166
58 4 9.82045 7.08518 11.6825 1.0456
77 1 6.80194 4.23472 14.7907 -0.670682
86 1 11.6462 3.99333 14.5399 -0.670413
87 1 11.9659 0.826973 10.141 -0.675451
94 1 11.6205 6.46051 11.3599 -0.658762
95 1 9.20659 6.3307 13.3745 -0.674853
125 3 7.40087 2.8642 17.2209 -0.827689
127 3 7.17961 3.20369 10.799 -0.845725
128 3 8.56817 1.65967 12.4634 -0.807434
155 3 9.53631 2.34201 10.095 -0.825044
157 3 10.1807 1.29632 14.5461 -0.748692
158 3 12.2063 2.08344 16.5518 -0.796689
159 3 9.86559 3.3358 16.5077 -0.817614
174 3 8.80377 6.6977 10.4785 -0.776369
205 2 9.28747 4.17638 11.9454 -0.0158845
216 2 6.57715 7.33929 13.7995 -0.0193238
249 2 7.60052 3.65779 14.2332 0.193204
250 2 7.21126 5.15022 15.3134 0.159343
260 2 6.63557 6.59186 17.0657 0.162184
273 2 10.842 4.24999 13.7868 0.151202
274 2 12.5704 3.53867 14.0607 0.21328
275 2 11.8929 4.86308 15.2257 0.162341
276 2 12.3632 1.8452 10.4418 0.188491
279 2 12.2382 3.96524 10.1832 0.165576
288 2 11.1066 5.83542 8.93882 0.189868
295 2 8.3526 7.33404 15.9525 0.114055
297 2 11.9803 7.01253 10.4406 0.163824
298 2 11.5266 5.34659 11.1939 0.156574
299 2 12.2285 6.71026 12.2822 0.146145
300 2 9.45908 5.23833 13.3912 0.145425
301 2 8.09547 6.49881 13.3841 0.147287
302 2 9.73577 6.91277 14.1898 0.132454
346 2 10.2493 6.08491 16.6824 0.0142763
347 2 11.9815 7.77961 15.9515 -0.0518806
6 4 15.7947 2.11106 15.2109 1.04922
45 4 13.6629 2.45823 17.2483 1.48135
48 4 14.2122 0.751438 13.0521 1.20784
50 4 14.2681 3.21391 11.252 0.719817
88 1 13.3728 4.00765 9.93962 -0.65709
153 3 14.7276 2.93533 16.0066 -0.794309
156 3 15.4147 1.12067 14.058 -0.805065
160 3 17.7984 2.49785 10.5011 -0.666102
161 3 13.7186 2.16963 12.3242 -0.780568
280 2 13.7579 3.19959 9.04467 0.11788
281 2 13.7972 5.08739 9.82323 0.153069
350 2 17.3725 1.78762 16.0425 0.0615982
358 2 -0.820892 15.4158 12.6244 0.206874
16 4 -3.40762 12.085 10.4793 0.607946
19 4 -1.99471 9.99324 11.9636 0.896649
73 1 -0.851767 9.41239 16.127 -0.65596
117 3 -3.11866 11.0111 11.5573 -0.782285
118 3 -1.44998 10.0674 13.4294 -0.80224
198 2 -2.02833 12.636 9.71408 -0.0442339
199 2 -4.1423 13.4446 11.1119 -0.0240198
200 2 -0.716485 10.1031 10.8851 -0.0602633
234 2 -0.370197 10.8878 8.90862 0.126874
238 2 -0.908201 8.28601 15.9788 0.189924
239 2 -1.87117 9.87448 16.2958 0.160695
243 2 -0.453651 14.3172 9.09033 0.140759
320 4 -3.27442 13.0875 15.8505 0.924728
321 1 -1.78108 12.7014 16.8943 -0.673675
323 3 -3.3108 14.5795 15.3579 -0.72227
324 2 -1.35433 11.7341 16.4645 0.17379
325 2 -1.09732 13.615 16.8062 0.18055
333 1 -1.60168 14.7454 13.1116 -0.665856
334 2 -2.44495 14.4592 12.4077 0.166613
335 2 -1.14212 13.8514 13.635 0.217699
26 4 2.32271 15.4534 13.4672 1.4884
13 4 1.19195 8.00669 12.9025 0.940602
18 4 -0.233929 10.1359 14.4868 1.17824
31 4 5.1283 8.57335 16.9612 1.01611
35 4 5.20262 8.34838 11.2631 1.39237
38 4 4.48832 12.2314 17.059 0.984294
41 4 4.41449 10.772 13.2691 1.30292
42 4 1.30447 13.0985 14.9874 0.975977
43 4 2.81431 12.8375 11.7601 1.27054
62 4 4.72992 12.0203 9.2217 1.08619
65 4 5.98287 13.1229 14.5257 1.30889
81 1 3.20874 8.99575 16.7923 -0.685972
83 1 0.984653 12.6855 11.278 -0.699107
116 3 1.01406 9.08222 14.0355 -0.803939
137 3 3.92296 8.0534 10.3366 -0.844685
148 3 4.89164 9.6578 12.2184 -0.839844
149 3 0.341309 11.919 14.6751 -0.780392
150 3 1.19812 14.4765 14.2433 -0.807334
151 3 3.03906 11.4838 12.8803 -0.804405
152 3 3.11054 14.3944 12.51 -0.790911
154 3 2.46612 14.7897 8.85479 -0.789817
173 3 5.86249 9.32229 15.4254 -0.78476
182 3 3.771 12.4618 10.4485 -0.807223
187 3 5.4317 11.9669 13.5663 -0.823569
188 3 6.22142 14.7742 13.7677 -0.744466
189 3 5.25947 13.0358 15.9654 -0.830111
196 2 0.221814 8.35488 11.5946 -0.0733406
202 2 1.78974 12.1256 9.10987 0.00630717
207 2 1.35269 8.36543 10.1912 -0.0718001
208 2 2.66953 8.2418 12.1719 -0.00385119
210 2 4.10779 9.90687 14.6841 0.0266411
211 2 2.84471 12.4768 14.8513 -0.00784114
212 2 3.69658 10.8694 16.367 -0.0338654
213 2 1.2516 13.3603 16.6345 -0.0451826
237 2 -0.0927341 9.70519 16.9152 0.140471
262 2 2.80896 9.15891 15.7475 0.170418
266 2 0.472886 12.4673 12.2719 0.201256
267 2 0.793693 11.8691 10.5324 0.138787
268 2 0.743999 13.7279 10.8881 0.162393
277 2 5.70149 15.2903 9.40069 0.124308
278 2 4.77228 15.1739 11.0342 0.240389
341 2 3.10255 13.0785 17.4395 -0.0514199
312 2 6.3652 11.0351 10.571 0.228082
61 4 9.76463 12.2406 17.4376 1.12386
57 4 7.13187 8.77535 14.6249 1.02443
64 4 9.38147 10.0693 12.8053 0.990882
93 1 8.48014 8.52403 15.9383 -0.659935
99 1 6.53365 11.7942 9.71455 -0.687071
100 1 9.06089 11.5867 11.7628 -0.649416
101 1 7.81413 12.5688 14.7725 -0.666043
169 3 6.61386 8.32695 10.4631 -0.820827
185 3 7.99047 9.68243 13.6112 -0.763343
186 3 9.87803 8.87767 11.8633 -0.748535
215 2 8.65373 8.91386 8.88944 -0.0205765
221 2 10.5806 10.2967 13.9969 -0.0527503
294 2 9.4843 8.85418 15.5426 0.143627
296 2 8.20724 9.01279 16.9177 0.206152
311 2 7.11524 11.3611 8.84545 0.140973
313 2 6.91772 12.7982 10.0664 0.137946
314 2 7.99643 11.9538 11.9012 0.192016
315 2 9.31403 11.3284 10.6898 0.166672
316 2 9.87852 12.2459 12.304 0.119928
317 2 8.40032 12.6776 13.808 0.170128
318 2 7.61119 11.4797 15.0664 0.202542
319 2 8.20194 13.2247 15.6194 0.198085
340 3 11.0266 12.7379 17.2525 -0.684168
344 2 7.99531 14.8026 11.8517 -0.0267043
348 2 9.14629 11.6327 15.8859 -0.00683478
364 2 12.4479 11.3826 15.3497 0.152954
365 2 11.4248 11.8629 14.588 0.0471937
326 2 14.2263 11.469 14.1694 0.214615
197 2 13.211 11.5368 9.25497 -0.0182291
201 2 15.1601 8.42571 11.587 -0.0410699
231 2 14.3112 9.33434 9.24383 0.151203
322 1 13.4632 11.9101 14.9423 -0.584832
ITEM: TIMESTEP
100
ITEM: NUMBER OF ATOMS
365
ITEM: BOX BOUNDS xy xz yz pp pp pp
-6.9402516944080270e+00 1.9676966308103140e+01 -6.9471909970487387e+00
9.8560195901098879e-02 1.5830844874122628e+01 2.0695056107438736e+00
-1.6150797459690835e-03 1.7465815079745944e+01 9.4560507002373029e-01
ITEM: ATOMS id type x y z q
8 4 -0.531978 4.63235 1.18834 0.808872
11 4 -0.438085 7.87497 5.43852 1.17616
108 3 -1.65345 6.60836 3.86685 -0.674604
194 2 -2.55013 7.6918 1.35812 -0.0481008
206 2 -0.0430525 6.26138 1.68621 0.0191628
222 2 16.604 2.42325 1.88833 0.17243
223 2 -2.02939 6.39053 0.00916414 0.153222
225 2 -0.890293 6.72198 7.67724 0.144524
342 2 15.0685 5.63281 3.19279 0.11809
343 2 15.9468 3.82644 7.48972 -0.0400925
1 4 3.04801 1.06032 2.93253 1.24455
2 4 1.70034 2.58397 0.599289 1.26927
4 4 2.45015 3.6194 5.77393 0.974701
10 4 1.82063 4.91364 8.41431 1.32905
21 4 5.02404 2.69065 4.62269 1.45261
29 4 6.40178 4.47567 2.43457 1.39556
32 4 5.8625 5.65681 8.13792 1.58029
34 4 4.74683 7.38327 5.78486 1.55748
68 1 -0.255603 6.61709 6.72463 -0.677732
78 1 1.69876 6.66943 2.5145 -0.674107
79 1 4.76163 5.59272 2.24677 -0.689284
102 3 2.39724 2.18196 2.00495 -0.842163
105 3 0.81269 3.83794 0.743773 -0.809327
107 3 2.1949 4.67742 6.92048 -0.81747
119 3 4.32032 1.3839 3.99678 -0.806389
120 3 3.8474 3.75517 5.04885 -0.799949
123 3 6.06873 2.16769 6.09138 -0.788398
129 3 6.11792 3.41865 3.65541 -0.838259
135 3 3.35425 7.28372 4.85478 -0.818274
136 3 4.8005 6.40264 7.19517 -0.792308
165 3 6.02999 7.10343 4.84713 -0.837323
191 2 1.26106 3.61025 4.57601 -0.0322488
192 2 2.21677 2.09539 6.38186 -0.0527688
193 2 0.5545 1.30886 0.164846 0.032988
224 2 -0.573942 5.67965 5.98581 0.145724
226 2 0.956074 6.81592 6.89927 0.200466
252 2 0.994108 6.04766 3.13431 0.162557
253 2 2.63828 6.05188 2.2215 0.190782
254 2 1.3109 7.28118 1.65759 0.169891
255 2 4.51488 6.18516 3.1538 0.245733
256 2 4.03778 4.76624 2.05942 0.178546
257 2 4.94938 6.2432 1.33631 0.182447
195 2 0.11455 5.23859 8.0466 -0.00588004
259 2 4.26708 6.47578 17.1418 0.194619
22 4 6.85169 2.32729 0.304837 1.50681
25 4 7.06944 3.05224 6.89194 1.0893
51 4 11.1986 4.21687 1.68364 1.22743
52 4 7.46764 6.97987 4.0044 1.4645
54 4 11.5136 5.29769 6.77289 0.826647
56 4 10.229 7.62127 4.76197 1.21152
74 1 8.0009 0.843751 4.2168 -0.659263
76 1 8.61296 3.77926 5.91515 -0.676784
89 1 9.88717 3.65094 2.80487 -0.668008
90 1 10.7497 1.95998 7.43976 -0.680497
91 1 10.6131 4.82024 8.46085 -0.656903
121 3 7.31099 1.05635 1.33415 -0.800996
130 3 6.80523 3.73409 1.1075 -0.857609
133 3 6.46059 4.3267 7.50585 -0.858807
162 3 11.4944 2.88033 0.749866 -0.782958
163 3 12.3995 4.70612 2.5706 -0.664588
164 3 7.38264 5.60343 3.00652 -0.809931
166 3 10.3225 5.57089 0.539956 -0.751176
167 3 13.226 4.71256 6.68492 -0.709331
168 3 7.08505 6.72582 8.4763 -0.839587
170 3 10.963 7.60549 3.61041 -0.671546
171 3 8.86112 6.66042 5.07244 -0.778141
172 3 11.6096 7.22827 6.52701 -0.681769
176 3 8.39172 7.29546 0.549881 -0.801493
204 2 7.87994 2.04145 8.04859 -0.00426023
214 2 10.3226 4.66295 5.48621 0.0315467
240 2 7.8779 1.95541 4.05644 0.216116
241 2 9.07264 0.521581 4.44347 0.150884
242 2 7.2588 0.376373 4.90788 0.24911
246 2 7.86611 4.08859 4.95054 0.229539
247 2 9.47895 3.1882 5.5695 0.140504
248 2 8.92214 4.63589 6.62315 0.182346
272 2 12.3728 2.22703 5.66434 0.169543
282 2 10.4574 3.01839 3.56479 0.16053
283 2 9.13775 3.08407 2.19725 0.207828
284 2 9.45217 4.66656 3.24356 0.22825
285 2 10.9087 1.02633 6.83978 0.173797
286 2 11.7308 2.5472 7.5547 0.151075
287 2 9.95764 2.66883 6.88666 0.135515
290 2 10.0629 5.85936 8.64151 0.182361
339 3 12.3212 0.337495 0.693579 -0.825437
289 2 9.92107 3.94261 8.06967 0.166556
9 4 14.6446 7.12001 2.88874 0.587606
47 4 14.1293 3.64168 6.09292 0.744746
66 1 16.0672 3.39146 2.21663 -0.532364
85 1 13.4678 2.35567 5.33149 -0.606078
230 2 14.2018 7.89137 7.80485 0.208887
270 2 14.0738 1.29888 5.41581 0.147581
271 2 14.2501 3.87445 4.4519 0.0673241
351 2 14.3378 3.73185 1.3762 0.0763197
352 2 13.9141 4.07029 2.28116 0.145014
362 2 14.1199 0.605803 2.81125 0.199392
112 3 -5.21431 14.8578 3.86931 -0.755684
349 2 -1.98071 14.9104 1.51537 0.242749
356 2 -2.09442 14.8762 7.30834 0.200992
14 4 -5.23138 13.3189 4.06234 1.12141
15 4 -1.93103 9.86773 7.41347 1.07617
17 4 -2.72772 12.714 6.00707 1.23768
37 4 -0.331141 12.4658 4.13734 1.2643
72 1 -2.95949 14.1499 7.21373 -0.650554
113 3 -1.57056 8.96832 5.89961 -0.726441
114 3 -4.03831 12.6956 4.93418 -0.788038
115 3 -2.61901 11.288 7.12534 -0.749425
141 3 -1.25009 13.0254 5.32993 -0.800402
209 2 -1.19 11.1928 3.40551 -0.0151337
235 2 -3.21492 13.5939 8.19767 0.12906
236 2 -3.89995 14.6736 6.7353 0.152001
244 2 -0.489014 12.9613 7.58435 0.198098
245 2 -0.164127 14.7871 7.26514 0.196296
327 1 -3.07023 14.6126 1.72601 -0.657278
328 2 -3.74865 14.7758 0.813105 0.169492
329 2 -3.10346 13.5256 2.12288 0.160114
357 2 -4.27767 11.6443 0.292308 0.156435
20 4 0.913294 14.7818 2.47016 1.15372
360 2 3.50871 14.6876 2.44633 0.205886
71 1 -0.164412 10.1224 8.15028 -0.682766
23 4 1.74529 13.5642 8.13717 1.1091
30 4 2.20964 7.98172 3.90973 1.40189
36 4 3.53777 9.62883 1.73108 1.25619
39 4 3.65446 9.74208 7.25242 1.51926
40 4 2.43968 11.962 5.56921 1.57511
44 4 5.99063 13.8226 1.44752 1.355
60 4 5.24648 12.4368 4.21665 1.36998
75 1 -0.110596 13.9356 8.01366 -0.696444
98 1 5.99244 10.6563 3.99066 -0.658144
131 3 0.837312 8.30054 4.67524 -0.814937
138 3 2.70693 9.18432 2.99817 -0.831179
139 3 3.70597 8.38974 0.624942 -0.816149
140 3 0.0471958 13.5235 2.93123 -0.804514
142 3 2.93775 10.8963 0.946606 -0.846716
143 3 2.83702 8.64451 8.09541 -0.856077
144 3 4.87504 8.98919 6.31822 -0.805531
145 3 1.07892 11.9318 4.60792 -0.792604
146 3 2.5819 10.4305 6.24201 -0.805429
147 3 2.26907 13.0244 6.7984 -0.857774
177 3 5.31699 13.192 2.771 -0.816221
178 3 3.76362 12.1659 4.73184 -0.845348
181 3 4.35762 11.0378 8.2335 -0.833705
184 3 6.17037 13.0536 5.29763 -0.749591
217 2 5.12069 10.1638 2.30205 0.0277479
218 2 5.70583 13.2563 8.57126 -0.00971693
232 2 0.618913 9.80211 7.40481 0.237399
233 2 -0.322143 9.41269 9.02461 0.117392
310 2 5.01324 10.0435 4.19306 0.217812
336 1 2.68707 14.1391 1.85886 -0.668497
337 2 2.74877 14.3365 0.747275 0.238982
338 2 2.63924 13.0354 2.08106 0.234966
359 2 0.844105 8.77187 0.518463 0.15328
361 2 8.18132 14.8475 1.30506 0.182048
180 3 6.50558 12.6962 0.415721 -0.762063
59 4 8.29701 8.66219 1.50974 1.26201
63 4 7.8009 13.1227 6.26533 0.859314
84 1 7.61667 14.5268 2.23167 -0.632296
92 1 9.88174 9.41031 5.39278 -0.650959
96 1 10.0512 9.42418 1.57928 -0.654229
97 1 11.852 12.5056 2.76488 -0.618768
175 3 7.79042 8.30902 3.20311 -0.800011
179 3 7.5329 9.96697 1.09501 -0.802031
183 3 8.87772 13.2431 5.40497 -0.644736
219 2 7.78477 14.3451 7.32673 -0.0527741
220 2 7.92704 11.8278 7.22722 -0.043846
269 2 8.10685 13.7229 2.86934 0.218544
291 2 10.491 10.159 4.75929 0.186308
292 2 10.2764 9.23847 6.43207 0.184371
293 2 8.73205 9.52829 5.32971 0.174886
303 2 9.93541 10.3511 0.951282 0.21356
304 2 10.7336 8.61112 1.13549 0.185528
305 2 10.2398 9.63921 2.67926 0.209305
306 2 12.4033 11.5139 2.5282 0.160907
307 2 11.094 13.0365 2.06598 0.19019
308 2 6.75349 10.5194 4.84904 0.1944
309 2 6.44107 10.4908 2.94958 0.211937
355 2 11.3631 7.1799 7.63869 0.229467
363 2 7.87781 11.1882 2.07635 0.172623
70 1 14.4487 8.83759 8.39034 -0.600239
345 2 17.6149 3.40088 11.2571 0.315753
3 4 1.63572 2.35773 10.1748 1.18359
5 4 4.61015 1.18155 14.5542 1.28049
7 4 3.46898 3.05598 12.4279 1.51029
12 4 1.753 5.26702 13.8432 1.30581
24 4 5.71217 3.62919 10.4369 1.33535
27 4 6.16538 3.16044 16.2376 1.33797
33 4 2.70965 7.74708 9.37851 1.34395
67 1 0.579691 6.43531 17.1873 -0.665579
69 1 3.03909 5.75324 15.1791 -0.66661
80 1 5.34619 6.80139 16.9305 -0.663141
82 1 5.1791 6.84443 12.5674 -0.679925
103 3 2.66593 1.94068 11.3659 -0.78842
104 3 3.64519 2.31153 13.9344 -0.808077
106 3 2.03525 3.68353 9.31291 -0.85008
109 3 0.595366 4.46937 14.562 -0.656139
110 3 2.62777 4.40902 12.6234 -0.78907
111 3 1.24586 6.64213 13.2303 -0.79883
122 3 4.86837 3.3771 11.7401 -0.85774
124 3 5.86043 1.7505 15.4528 -0.791677
126 3 4.8166 3.6984 16.8833 -0.835382
132 3 5.31592 4.97553 9.64749 -0.788669
134 3 2.26036 6.27416 9.02843 -0.844422
190 2 1.56034 1.06678 9.07269 -0.056097
203 2 5.36572 2.35934 9.40625 -0.0266033
227 2 3.61823 6.62476 14.7459 0.152242
228 2 3.67148 4.81254 15.2476 0.233138
229 2 2.51859 6.00876 16.1766 0.183842
251 2 6.57146 3.90018 13.8869 0.190944
258 2 5.7314 6.41085 15.8384 0.136556
261 2 2.79047 8.04891 17.0691 0.12903
263 2 6.10407 6.16025 12.5299 0.177646
264 2 4.29024 6.26969 12.2086 0.230649
265 2 4.954 7.33229 13.6035 0.130587
330 1 18.8151 2.37939 16.4044 -0.538011
331 2 1.86512 1.67739 15.8208 0.229724
332 2 1.1402 3.41685 15.9349 0.257411
353 2 17.4856 5.48287 17.0338 0.180467
354 2 1.24964 6.61756 16.2776 0.182695
28 4 8.54777 2.96936 11.3555 1.31351
46 4 10.2255 1.34811 9.24037 1.15381
49 4 10.9382 2.47163 15.6396 1.30017
53 4 11.3703 7.2095 17.254 0.986696
55 4 7.70687 7.66863 9.52904 1.30024
58 4 9.82178 7.1774 11.717 1.06855
77 1 6.81457 4.42284 14.8601 -0.685084
86 1 11.9393 3.69327 14.5318 -0.666102
87 1 11.9188 0.832838 10.038 -0.663291
94 1 11.5678 6.47599 11.4048 -0.642181
95 1 9.00147 5.93358 13.1422 -0.676966
125 3 7.42625 2.87517 17.2662 -0.810898
127 3 7.19846 3.46614 10.8488 -0.880726
128 3 8.47682 1.74884 12.3791 -0.835123
155 3 9.54949 2.49969 10.2114 -0.809444
157 3 10.1353 1.35804 14.5297 -0.768508
158 3 12.1763 1.95671 16.7011 -0.800156
159 3 9.91227 3.38506 16.3925 -0.828159
174 3 8.89489 6.99524 10.363 -0.80144
205 2 9.48257 4.25089 12.1865 0.00625562
216 2 6.81655 7.38412 13.5419 -0.0113263
249 2 7.90859 4.4234 15.0427 0.194871
250 2 6.3402 5.44822 14.9509 0.147891
260 2 3.97581 5.49943 0.305154 0.184792
273 2 11.7905 3.14009 13.5451 0.229501
274 2 12.9844 3.76039 14.9162 0.254105
275 2 11.3293 4.63805 14.612 0.146616
276 2 12.5895 1.77587 9.86976 0.153714
279 2 12.2242 3.56526 9.76311 0.169882
288 2 11.3352 4.48471 9.35585 0.175182
295 2 8.30956 7.42623 15.8632 0.126628
297 2 11.6091 5.97134 10.4041 0.179097
298 2 11.5504 5.73079 12.3194 0.138207
299 2 12.3117 7.34915 11.5362 0.16964
300 2 9.86899 5.34497 13.5679 0.137225
301 2 8.10498 5.33286 12.7991 0.166042
302 2 8.70175 6.75872 13.8249 0.132395
346 2 10.3247 6.15537 16.4267 0.0039914
347 2 12.016 8.01225 15.9121 -0.050233
6 4 15.7606 2.14603 15.2932 1.01221
45 4 13.6535 2.48334 17.2914 1.44993
48 4 14.0877 0.87575 13.1009 1.16668
50 4 14.3092 3.24468 11.371 0.678355
88 1 13.345 3.80436 9.91808 -0.640276
153 3 14.6335 3.02141 15.9518 -0.795821
156 3 15.3839 1.08385 14.1742 -0.792994
160 3 17.7823 2.59116 10.7311 -0.821549
161 3 13.5414 2.38737 12.5455 -0.751902
280 2 14.1952 3.00745 9.15864 0.0727704
281 2 13.6397 4.91028 9.89001 0.150412
350 2 17.1831 1.62151 16.3971 0.0414541
358 2 6.43408 0.964233 13.0251 0.262774
16 4 -3.47361 12.1474 10.5857 0.628888
19 4 -2.05664 9.909 11.9608 0.912638
73 1 -0.675782 9.6058 16.2291 -0.65701
117 3 -3.12814 10.8901 11.3708 -0.789592
118 3 -1.44731 10.0529 13.407 -0.812115
198 2 -2.12138 12.9211 10.0384 -0.0490015
199 2 -4.22639 13.328 11.4527 -0.027854
200 2 -0.769885 9.94556 10.9469 -0.0527558
234 2 -0.126525 11.2241 8.41735 0.143454
238 2 0.141603 8.82959 16.4232 0.175272
239 2 -1.65619 9.10788 15.9403 0.163648
243 2 -0.57381 14.1983 8.97522 0.137546
320 4 -3.29498 13.1295 15.7234 0.883845
321 1 -1.87944 12.4716 16.7453 -0.695013
323 3 -3.31578 14.7512 15.4873 -0.732973
324 2 -1.58666 11.3334 16.4861 0.178181
325 2 -1.17813 13.1869 16.4237 0.192807
333 1 -1.41921 15.1005 13.1044 -0.662651
334 2 -2.09911 15.2133 12.1885 0.160315
335 2 -1.26613 14.0086 13.3796 0.198775
26 4 2.1753 15.3923 13.3386 1.46835
13 4 1.32121 8.2102 12.8853 0.941906
18 4 -0.186975 10.2358 14.447 1.20912
31 4 5.03328 8.62776 16.9065 1.00617
35 4 5.16395 8.31566 11.2611 1.38527
38 4 4.4426 12.3375 17.0962 0.990643
41 4 4.58106 10.8714 13.1546 1.28131
42 4 1.21867 13.1455 14.9201 0.990943
43 4 2.88983 12.8205 11.7063 1.37682
62 4 4.78153 12.0836 9.30178 1.1248
65 4 6.02794 13.1082 14.4996 1.32441
81 1 3.09962 9.17366 17.0206 -0.684792
83 1 1.03724 12.4997 11.1577 -0.706964
116 3 1.15844 9.2463 14.0069 -0.805972
137 3 3.88931 8.05286 10.3744 -0.872403
148 3 4.89796 9.73315 12.1075 -0.858539
149 3 0.37537 11.8352 14.7853 -0.799166
150 3 0.996784 14.4101 14.0699 -0.819175
151 3 3.11418 11.6596 12.814 -0.837623
152 3 2.98209 14.3431 12.3344 -0.798592
154 3 2.45413 14.8527 8.84361 -0.80163
173 3 5.7718 9.31308 15.1504 -0.798646
182 3 3.76345 12.6554 10.3675 -0.851473
187 3 5.57935 12.0667 13.4188 -0.853309
188 3 6.0836 14.7087 13.7576 -0.756379
189 3 5.28681 13.0057 15.9479 -0.838662
196 2 0.303647 8.59178 11.6384 -0.0764201
202 2 1.74648 12.3269 9.36098 0.0254283
207 2 1.34345 8.37695 10.1182 -0.0676068
208 2 2.71087 8.5441 12.1294 0.00440868
210 2 4.46687 10.0311 14.6686 0.0844407
211 2 2.84104 12.7519 14.6356 0.0140252
212 2 3.56578 11.0048 16.4599 -0.0336473
213 2 1.31397 13.5734 16.5043 -0.0434637
237 2 -0.783312 10.309 17.1097 0.145681
262 2 2.71682 9.68896 16.0729 0.163578
266 2 0.479085 12.4004 12.1387 0.186511
267 2 1.11461 11.5207 10.7094 0.141581
268 2 0.559481 13.2298 10.5665 0.160921
277 2 5.30767 14.694 9.53612 0.157765
278 2 4.62743 15.4682 11.1474 0.246303
341 2 3.18785 13.3789 17.3485 -0.0430597
312 2 6.42001 10.72 10.2162 0.190799
61 4 9.79609 12.4208 17.3013 1.06385
57 4 7.11713 8.82097 14.4683 1.03878
64 4 9.48079 10.2417 12.7297 0.929274
93 1 8.26211 8.54737 15.9449 -0.667524
99 1 6.59254 11.9186 9.84019 -0.685172
100 1 8.99657 11.5068 11.4411 -0.663446
101 1 7.90129 12.6307 14.8564 -0.663952
169 3 6.58579 8.27403 10.4977 -0.836696
185 3 8.09442 9.72924 13.6273 -0.7602
186 3 10.1405 8.78546 12.1271 -0.744636
215 2 8.36259 8.94525 8.63827 -0.0274354
221 2 10.5866 11.0325 13.7126 -0.0449504
294 2 9.24163 9.04756 15.7368 0.164284
296 2 7.80481 8.89956 16.8826 0.221189
311 2 7.57915 11.9345 9.24944 0.136247
313 2 6.6848 12.5833 10.7509 0.167985
314 2 7.88821 11.7209 11.7046 0.19601
315 2 9.17482 11.1186 10.4111 0.158589
316 2 9.70121 12.3879 11.7391 0.120154
317 2 8.41449 12.5967 13.8304 0.160417
318 2 7.81242 11.5774 15.3322 0.180852
319 2 8.2634 13.4385 15.5334 0.199276
340 3 11.1026 12.8669 17.3893 -0.712458
344 2 7.75632 14.7974 11.7658 -0.0385397
348 2 9.50595 11.7924 15.6716 -0.0144827
364 2 12.5826 12.41 15.9836 0.153476
365 2 12.25 12.5371 14.3046 0.172994
326 2 13.3703 11.2213 14.9086 0.166226
197 2 -4.22629 11.9211 9.09042 -0.0189615
201 2 14.9871 8.3635 11.6102 -0.0300987
231 2 13.5957 9.4565 8.74339 0.186211
322 1 13.1521 12.2583 14.8684 -0.676133
ITEM: TIMESTEP
200
ITEM: NUMBER OF ATOMS
365
ITEM: BOX BOUNDS xy xz yz pp pp pp
-7.1106865977643769e+00 1.9599602760288246e+01 -7.0842146847403873e+00
1.6169004112304375e-01 1.5923727662957912e+01 1.9587308472642813e+00
-5.6966736062614487e-02 1.7521166736062579e+01 1.1016177040809616e+00
ITEM: ATOMS id type x y z q
8 4 -0.78439 4.74194 1.05389 0.799118
11 4 -0.864175 7.86384 5.43031 1.22389
108 3 -2.07834 7.45376 4.13511 -0.688742
194 2 -2.39027 7.02011 1.38271 -0.0509072
206 2 -0.214512 6.20756 1.73909 0.00014972
222 2 14.8183 4.021 1.12139 0.118505
223 2 0.200795 8.00156 17.4621 0.121166
225 2 -0.879717 6.87778 7.75942 0.151509
342 2 13.684 5.53112 1.79001 0.180953
343 2 15.534 3.78381 6.97276 -0.0433551
1 4 2.98998 1.15269 2.7309 1.28322
2 4 1.59272 2.52211 0.43332 1.22997
4 4 2.41599 3.65036 5.71044 1.02632