ITEM: TIMESTEP
0
ITEM: NUMBER OF ATOMS
274
ITEM: BOX BOUNDS xy xz yz pp pp pp
-7.3914999999999997e+00 1.6478000000000002e+01 -7.3914999999999997e+00
0.0000000000000000e+00 1.5100700000000000e+01 9.9190000000000000e-01
0.0000000000000000e+00 1.6771000000000001e+01 1.0307999999999999e+00
ITEM: ATOMS id type q x y z
98 3 -0.811352 3.63625 1.16323 8.22399
13 4 1.56468 1.26244 1.98556 5.47085
15 4 1.24539 0.0116822 4.45019 1.58041
65 1 -0.6783 6.54472 0.565175 6.2686
17 4 1.24224 -0.349052 4.4468 7.37504
18 4 1.22981 -2.0554 6.66959 5.59309
27 4 1.24041 3.81895 2.93906 3.95348
101 3 -0.790658 4.36871 2.16917 0.0159964
30 4 1.34488 6.69008 2.34535 5.51736
33 4 1.45886 4.85564 5.15825 2.23881
177 2 0.24151 1.88674 4.58655 8.16295
56 1 -0.671069 1.47244 3.63173 0.679493
26 4 1.48123 7.52963 0.16356 1.97995
97 3 -0.799523 6.71807 1.42126 1.08609
28 4 1.34613 6.0041 2.6892 0.5801
176 2 0.160894 1.11412 6.25294 7.33342
200 2 0.225427 2.75706 6.67258 3.87793
80 3 -0.838306 1.64489 0.761136 6.43792
82 3 -0.734434 -0.620456 3.27449 2.85363
83 3 -0.805304 -1.14203 4.66418 0.369484
85 3 -0.740892 0.313167 3.09142 6.36857
86 3 -0.75303 -1.36607 5.47266 6.53156
96 3 -0.84664 2.56962 2.65023 4.86711
106 3 -0.753135 -0.824824 7.07741 4.33279
213 2 0.18327 7.76303 0.863027 7.87415
100 3 -0.802846 5.36748 2.66453 4.67487
103 3 -0.796494 3.83024 4.53021 3.38833
58 1 -0.668207 1.02373 5.39338 8.12322
105 3 -0.751592 0.410477 5.93471 2.34349
107 3 -0.831237 3.98679 5.82952 0.983668
148 2 -0.00411493 3.79809 1.83881 2.69423
195 2 0.183335 6.37182 0.598004 7.40612
171 2 0.147902 1.52577 2.57948 1.18352
172 2 0.257349 2.42187 4.19555 0.738042
79 3 -0.818564 0.288253 1.33885 4.32341
36 4 1.04802 5.95293 4.17941 7.86208
261 3 -0.773843 -1.94491 6.44689 15.197
14 4 1.31433 1.35112 2.34592 10.7246
19 4 1.23811 0.734132 4.72499 12.6594
20 4 0.99405 -0.720155 7.26343 10.9715
29 4 1.48971 3.86353 2.42525 9.20679
31 4 1.0671 4.45894 3.03889 15.5436
32 4 1.2061 5.89155 2.60798 11.6069
111 3 -0.794228 5.61434 4.15772 11.7046
37 4 1.21961 5.05566 4.86462 13.1333
38 4 1.2448 2.24635 6.89562 14.6403
60 1 -0.673691 -0.316234 3.82252 13.8841
35 4 1.24902 4.46855 7.53084 16.4511
66 1 -0.639896 4.74358 1.35821 14.6533
184 2 0.175598 -2.05036 7.15329 9.06442
61 1 -0.660867 -1.99451 6.38018 9.96192
87 3 -0.850105 1.20069 3.56087 11.7768
88 3 -0.754755 0.0254659 6.04142 11.8266
99 3 -0.817633 2.24576 2.86562 9.55542
124 3 -0.799522 7.44053 2.37256 10.9655
102 3 -0.818533 4.73513 1.85249 10.6866
16 4 1.31459 -0.600137 6.80829 16.1184
110 3 -0.847989 4.79767 3.80685 14.2241
267 2 0.154572 4.36576 1.12804 13.6449
112 3 -0.797398 2.15343 5.67657 13.6487
113 3 -0.865074 3.32264 6.68159 15.6967
114 3 -0.805727 0.766348 7.16615 15.2842
144 2 -0.00386806 2.23029 1.05861 11.4717
149 2 -0.0151309 2.84963 3.23628 16.1154
108 3 -0.839452 4.62331 3.58875 8.47499
150 2 0.00460401 5.89862 1.84234 13.1132
153 2 0.0728297 3.53908 5.63905 12.7803
170 2 0.1945 1.94514 4.76719 16.3647
182 2 0.178562 0.130438 3.98073 14.879
183 2 0.273709 -1.63838 5.33667 9.6161
178 2 0.183873 0.786395 5.76285 9.14951
197 2 0.157252 5.95666 1.2861 14.6679
21 4 1.2572 -2.95505 9.54885 7.18634
23 4 1.31427 -3.60017 12.0104 5.56269
238 4 0.979304 0.760857 11.5286 0.420886
39 4 1.23383 -1.02285 12.2142 3.85479
40 4 1.05858 2.85672 9.78771 7.48816
207 2 0.171208 3.14042 7.91306 5.67694
246 2 0.146523 -0.508056 8.96241 0.565743
89 3 -0.772019 -2.39907 7.90241 6.50062
91 3 -0.815494 -3.84731 10.5315 6.06388
92 3 -0.877293 -3.81785 13.1622 6.61742
175 2 0.167923 -3.43851 7.14843 0.237165
115 3 -0.816182 -0.946297 13.5738 3.01473
116 3 -0.874448 -2.2897 12.1559 4.75162
117 3 -0.796971 0.609533 13.0063 0.92254
11 4 1.57007 -4.71485 14.1483 7.45137
120 3 -0.793739 0.424946 12.1239 4.65205
121 3 -0.764971 2.33865 10.8348 6.32747
146 2 -0.0230851 -4.79029 12.2088 4.35448
151 2 -0.0208049 -0.0428473 8.71571 2.30986
155 2 -0.0166647 -1.02985 10.9171 2.65938
156 2 0.027299 -0.97962 12.8893 7.32376
208 2 0.15107 3.72604 7.60766 7.52409
199 2 0.101185 2.14635 8.53287 3.70115
240 1 -0.641956 -0.684374 10.0125 0.995902
118 3 -0.855191 -1.94218 10.432 7.9368
268 2 0.00994836 0.678418 10.4133 1.97961
193 2 0.192307 0.0621773 14.0014 5.97529
205 2 0.184048 0.377271 9.63893 8.02484
269 2 0.147308 -1.70273 10.0927 1.41296
194 2 0.240468 -1.74709 14.3347 5.65221
57 1 -0.676728 -2.27457 7.32567 0.310753
70 1 -0.661833 3.73225 8.27168 6.64274
67 1 -0.657811 1.93199 7.41507 4.10671
34 4 1.03241 0.282878 7.26913 3.25696
198 2 0.176623 1.57072 7.42912 5.18231
174 2 0.169986 -1.9931 7.16387 1.37333
262 2 -0.00325879 3.05873 8.16328 0.117068
24 4 0.993818 -2.12233 9.63397 12.8195
25 4 1.2313 -3.22437 11.9628 10.8277
266 2 0.150924 -3.4306 13.2311 12.7798
63 1 -0.650096 -2.92058 9.43991 14.4783
64 1 -0.683036 -3.95511 13.48 11.7251
204 2 0.114781 1.68708 8.24993 8.60851
245 2 0.0433471 0.15043 12.1324 16.3624
93 3 -0.765322 -1.40724 8.34186 11.923
94 3 -0.775974 -4.55084 11.3594 10.0258
95 3 -0.789568 -2.63368 10.91 11.9633
119 3 -0.773236 -1.82443 12.5557 9.64542
147 2 0.0162301 -1.14456 10.2231 14.197
154 2 -0.0125768 2.62862 8.30092 13.641
157 2 -0.00472564 0.343535 11.1133 8.90246
189 2 0.187157 -2.29873 8.94509 15.4008
188 2 0.152948 -3.66392 10.2832 14.8211
272 2 0.114792 1.06192 13.9992 9.57306
206 2 0.144864 1.30496 9.83996 9.75797
191 2 0.184851 -5.09635 13.4492 11.7275
196 2 0.115933 -3.21499 14.8511 15.543
249 2 0.143501 2.20056 10.2949 14.4247
187 2 0.205744 -3.55604 8.92844 9.56822
145 2 5.93941e-05 0.312844 8.03042 9.82848
192 2 0.238864 -3.51336 14.4402 11.3299
69 1 -0.654381 1.23357 9.38946 8.72049
241 1 -0.658276 3.30216 10.1371 14.0366
41 4 1.00091 -1.25856 11.7387 8.5352
90 3 -0.80637 -5.70063 13.3526 8.74091
247 2 0.137178 3.91102 9.18224 14.4923
173 2 0.147181 -0.847242 9.31422 16.5839
1 4 1.33113 14.5132 1.80199 3.42998
6 2 0.0718985 11.6761 1.12654 0.903554
3 1 -0.674503 12.837 2.07613 4.4967
263 2 0.13209 11.388 5.4797 5.74323
5 3 -0.829458 13.9701 0.865243 2.23619
255 2 0.0142159 13.6493 0.70864 5.71673
7 2 0.137989 12.376 1.05879 4.25196
8 2 0.166526 12.4419 2.89886 3.80273
9 2 0.143 12.682 2.33293 5.57194
50 4 0.8834 8.37797 7.25111 6.15882
256 2 -0.0279824 11.3817 0.700673 6.95861
43 4 1.15102 9.31813 2.09411 3.60044
47 4 0.97022 9.07569 4.72999 2.51688
48 4 0.913182 6.25511 7.25272 4.23695
59 1 -0.664096 11.5745 6.14714 4.80256
122 3 -0.746407 8.91685 0.725762 2.71637
123 3 -0.835676 8.08795 2.3028 4.58366
128 3 -0.794094 9.58916 3.25472 2.38319
129 3 -0.78216 5.73275 6.49455 2.93879
130 3 -0.772494 8.69734 5.42137 1.13628
158 2 -0.0268826 10.8773 1.93401 4.32558
161 2 -0.00101141 10.2106 5.74727 3.4348
162 2 0.0447645 7.96258 4.94817 3.6965
179 2 0.147502 12.2546 5.69508 3.91213
166 2 -0.0211697 8.04976 6.20407 7.49121
203 2 0.0616464 5.65278 5.71466 6.7411
235 2 0.203422 11.6976 3.75663 0.29339
165 2 -0.000261352 10.0594 6.91844 5.86166
131 3 -0.823395 7.63954 6.75015 4.81607
68 1 -0.645393 6.22347 6.20205 8.23503
201 2 0.150725 6.77069 7.20772 8.10781
109 3 -0.828977 6.832 3.27282 6.82966
104 3 -0.817019 5.81115 4.03608 1.52047
273 2 0.147118 9.5805 0.991565 8.10409
254 3 -0.827892 13.6113 1.29212 8.31564
163 2 -0.00706624 5.03867 7.27233 5.44399
180 2 0.159751 11.4292 7.27781 4.75516
44 4 1.06735 8.79494 1.98162 10.2804
12 4 1.54331 14.0954 2.20449 9.51349
46 4 1.30483 11.6659 1.71845 11.606
84 3 -0.769266 14.2404 3.7983 8.8247
51 4 1.29911 6.7401 7.38735 14.4742
257 1 -0.656357 7.92532 4.23482 15.8105
258 2 0.278849 7.92178 5.39277 15.6434
73 1 -0.659747 11.6816 3.15479 12.8837
270 2 0.166691 13.9328 2.29974 15.7506
125 3 -0.817646 12.9198 2.14004 10.6315
126 3 -0.835548 10.1959 1.80696 10.9186
259 2 0.185758 7.43904 3.65551 14.8959
132 3 -0.772742 6.20484 5.91783 13.5617
133 3 -0.782895 8.00195 7.11657 15.3499
152 2 0.0671096 7.10732 5.08708 9.10454
202 2 0.167518 5.3941 6.3938 8.95175
4 1 -0.650056 13.6817 1.34422 16.3038
72 1 -0.647127 8.59778 0.975188 8.63843
214 2 0.166191 10.6002 3.41067 13.1652
215 2 0.16272 12.2063 3.95836 12.2235
216 2 0.152797 12.3001 2.8005 13.7362
260 2 0.179224 8.97072 3.83177 16.1052
231 4 0.998763 11.9941 5.80948 15.0586
159 2 0.0236018 9.00409 2.80467 8.68842
233 3 -0.743467 10.7534 6.76834 15.4241
234 2 -0.00455175 11.6994 5.08269 13.4389
49 4 1.20873 9.462 7.28648 16.4945
236 2 0.143042 12.1803 3.53281 15.6053
185 2 0.167312 12.6129 6.35403 10.6984
264 2 0.167345 14.1633 4.446 13.6862
232 1 -0.65005 11.901 4.40986 16.2702
81 3 -0.817509 15.4706 1.71508 10.2384
181 2 0.157564 15.0304 2.72483 13.6154
237 2 0.223221 10.8734 4.21273 16.6739
253 4 0.988473 5.63512 14.4393 7.23358
52 4 1.02578 4.07713 11.5027 2.67735
53 4 1.06071 8.0646 10.2798 6.94976
223 2 0.164443 5.39208 10.3061 4.35754
212 2 0.156173 3.42838 13.976 5.29646
71 1 -0.673379 2.57303 13.6552 5.99129
140 3 -0.757067 5.61312 12.9116 7.60442
76 1 -0.660164 5.57519 10.5052 3.28693
77 1 -0.671936 7.73207 11.4396 5.44389
42 4 1.24667 2.09806 12.0048 5.13308
135 3 -0.788744 4.76493 12.8222 2.00937
136 3 -0.800289 3.20304 11.8359 3.94733
137 3 -0.849362 8.23672 8.76163 6.50537
252 2 0.138364 4.30255 9.03775 1.03566
225 2 0.189454 8.40987 12.3664 5.68191
164 2 0.00135075 6.40119 8.89852 4.04251
224 2 0.177698 6.50046 11.0846 3.03495
167 2 -0.00688077 3.36275 10.5897 1.4229
168 2 0.0752666 6.4346 10.9715 6.81542
274 2 0.173618 9.11766 8.06101 1.33495
209 2 0.157971 4.74009 8.81051 6.50716
210 2 0.183482 2.89612 13.1728 6.9646
227 2 0.147606 8.29803 10.6689 4.69372
2 4 1.04574 5.55499 14.0721 1.42342
226 2 0.187534 6.70221 11.7342 5.12365
222 2 0.109605 5.29223 9.56136 2.51234
138 3 -0.812251 8.83065 11.0019 8.14816
250 2 0.13571 4.69843 10.7335 0.122299
74 1 -0.662667 8.82997 7.9925 0.264558
211 2 0.164753 1.64385 14.3687 6.04693
139 3 -0.741035 4.00193 10.5831 8.24191
186 2 0.155233 11.3211 7.6799 8.24705
242 1 -0.663489 4.28908 9.56028 0.0225026
217 2 0.153251 7.77833 8.45503 0.0850975
22 4 1.54045 9.48648 11.9843 9.35071
54 4 1.23484 4.87219 12.0176 9.05939
55 4 1.29997 6.98369 11.8133 11.2676
75 1 -0.6512 7.28743 8.96988 13.4763
78 1 -0.686939 3.41433 13.0466 9.615
160 2 0.00249802 6.58952 14.4838 14.5709
10 2 0.0730232 7.51727 14.5315 16.3504
141 3 -0.800708 8.3913 12.0025 10.5609
142 3 -0.867652 5.85563 11.6821 10.1748
143 3 -0.838817 6.87214 12.8257 12.5082
169 2 0.0120203 6.95139 10.2296 12.0295
134 3 -0.855163 5.57802 7.9927 15.3262
220 2 0.176744 8.33138 9.27021 13.729
221 2 0.158141 6.47736 9.7521 13.7765
230 2 0.183883 3.09759 14.0183 9.15778
239 4 1.0967 4.10021 11.5011 15.2271
248 2 0.161529 3.552 10.4903 12.9395
62 1 -0.648703 11.431 8.80429 8.54646
243 3 -0.807017 4.90931 12.4471 14.2552
271 2 0.165579 5.37812 14.8598 15.8541
190 2 0.167598 11.8202 8.51425 13.9847
251 2 0.184757 5.9039 10.064 16.0048
228 2 0.204869 3.706 13.2014 10.7025
229 2 0.150026 2.55369 12.2539 9.46018
219 2 0.133808 7.04889 8.41733 12.4343
218 2 0.169896 10.5828 9.44183 16.3149
265 2 0.224481 10.4408 9.33381 8.41159
45 4 1.22362 5.72174 13.5134 13.3489
244 3 -0.794481 2.96699 12.0755 16.131
127 3 -0.787881 4.63501 14.4383 12.5847
ITEM: TIMESTEP
100
ITEM: NUMBER OF ATOMS
274
ITEM: BOX BOUNDS xy xz yz pp pp pp
-7.3914999999999997e+00 1.6478000000000002e+01 -7.3914999999999997e+00
0.0000000000000000e+00 1.5100700000000000e+01 9.9190000000000000e-01
0.0000000000000000e+00 1.6737458000000000e+01 1.0307999999999999e+00
ITEM: ATOMS id type q x y z
98 3 -0.818971 4.00854 1.13561 7.98209
13 4 1.56392 1.26206 2.12456 5.63045
15 4 1.36321 -0.0572715 4.45167 1.61391
65 1 -0.678609 6.5212 0.511867 6.25531
17 4 1.23484 -0.483025 4.32463 7.38632
18 4 1.24738 -2.03735 6.84238 5.42776
27 4 1.24173 3.94599 3.02975 4.06328
26 4 1.48504 7.60434 0.135361 1.95846
30 4 1.30144 6.76138 2.28405 5.53959
33 4 1.49208 4.9199 5.19202 2.27276
177 2 0.192997 1.59379 5.29985 7.51696
56 1 -0.655127 1.48717 3.56349 0.73383
104 3 -0.813098 5.82631 3.89161 1.7187
97 3 -0.803982 6.89647 1.4084 1.26893
28 4 1.34527 5.92721 2.60011 0.679135
176 2 0.165435 0.236427 6.44908 8.18713
200 2 0.243664 2.62419 6.52255 3.79654
80 3 -0.835745 1.57571 0.910474 6.64345
82 3 -0.809315 -0.467673 3.27854 2.72231
83 3 -0.789952 -1.20033 4.71211 0.573225
85 3 -0.802145 0.41199 3.25646 6.54543
86 3 -0.720017 -1.47961 5.36133 6.528
96 3 -0.830631 2.60176 2.73809 4.89888
106 3 -0.757381 -0.987489 7.01521 4.30672
213 2 0.172742 7.74924 0.793617 7.82722
100 3 -0.819767 5.41093 2.71409 4.78854
103 3 -0.778691 3.83872 4.62301 3.43795
58 1 -0.658864 0.733351 5.41803 8.27992
105 3 -0.797875 0.484118 5.88064 2.16358
107 3 -0.830749 4.11935 5.85554 0.975547
148 2 -0.00954365 3.74732 1.9926 2.78941
195 2 0.215556 6.13851 0.809557 7.33061
171 2 0.153325 1.50329 2.48608 1.12816
172 2 0.233161 2.47939 4.1627 0.885446
79 3 -0.840248 0.257133 1.57569 4.53736
36 4 1.04635 5.93655 4.36432 7.75411
34 4 0.973464 0.364027 7.17926 3.01732
178 2 0.228524 0.919804 5.10485 9.31263
14 4 1.30614 1.38785 2.29397 10.6886
19 4 1.19495 0.772991 4.79298 12.6784
20 4 1.04531 -0.774739 7.29105 11.0554
29 4 1.48481 3.86672 2.4699 8.97044
31 4 1.02699 4.52245 2.92535 15.5292
32 4 1.21238 5.73979 2.63631 11.5879
111 3 -0.809807 5.57378 4.20256 11.7804
37 4 1.20263 5.21351 4.98041 13.141
38 4 1.25143 2.14671 6.89109 14.621
60 1 -0.67152 -0.579459 4.33153 13.847
35 4 1.28053 4.44883 7.51648 16.4299
66 1 -0.679704 4.70333 1.22216 14.7254
184 2 0.167988 -2.17762 7.16606 9.10359
61 1 -0.66333 -2.06895 6.46528 10.0073
87 3 -0.827881 1.1898 3.49119 11.8227
88 3 -0.769494 0.0125718 6.12051 11.8192
99 3 -0.839627 2.38882 2.77088 9.57826
124 3 -0.760574 7.33048 2.27106 11.008
102 3 -0.799352 4.75716 1.93994 10.5448
16 4 1.29016 -0.582863 6.87623 15.9866
110 3 -0.821916 4.93757 3.95515 14.3115
267 2 0.134701 4.14334 1.2806 13.7351
112 3 -0.813511 2.19343 5.62227 13.7239
113 3 -0.873265 3.18664 6.88269 15.8319
114 3 -0.846502 0.64646 7.23656 15.0753
144 2 0.0117118 2.26972 1.0373 11.4282
149 2 -0.0166073 2.91686 3.2338 16.182
108 3 -0.820709 4.56521 3.78962 8.42683
150 2 0.00729026 5.62366 1.89062 13.0895
153 2 0.0788124 3.63364 5.64903 12.8625
170 2 0.182793 2.02357 4.71115 16.4946
182 2 0.192606 -0.287385 4.52921 14.8551
183 2 0.275934 -1.89735 5.38102 9.64608
101 3 -0.814071 5.53221 3.10247 16.7079
264 2 0.198737 -1.41465 5.06278 13.4365
21 4 1.28672 -3.15351 9.43491 7.15764
23 4 1.29877 -3.6661 11.847 5.49606
238 4 0.96467 0.469945 11.4558 0.375302
39 4 1.22901 -0.919583 12.2389 3.83528
40 4 1.05528 2.73986 9.93347 7.51739
207 2 0.186662 3.1478 8.23776 5.58543
246 2 0.157569 -0.516245 9.02277 0.399486
89 3 -0.791944 -2.44189 8.09933 6.34798
91 3 -0.797113 -3.97888 10.4257 6.02359
92 3 -0.810143 -4.00001 12.8566 6.66707
42 4 1.28166 1.90584 11.9714 5.24512
115 3 -0.791718 -1.00503 13.6294 3.10615
116 3 -0.848084 -2.273 12.0009 4.69832
117 3 -0.822277 0.489352 12.9337 0.971434
11 4 1.5124 -4.67179 14.2031 7.52709
120 3 -0.832253 0.536555 12.1506 4.61219
121 3 -0.816719 2.10371 10.7976 6.34455
146 2 -0.0238782 -4.86979 12.0805 4.35184
151 2 -0.0226231 0.192135 8.52053 1.9163
155 2 -0.010773 -0.952106 10.9822 2.60287
156 2 0.0211215 -0.803974 12.8623 7.30554
208 2 0.15157 3.73727 7.72315 7.32334
199 2 0.118882 2.25843 8.40701 3.39967
240 1 -0.643637 -0.831603 9.91318 0.998008
118 3 -0.805052 -1.97452 10.3812 7.90253
268 2 0.0146112 0.664365 10.4383 1.87947
193 2 0.173381 0.171036 14.0093 6.20802
205 2 0.184762 0.17591 9.59229 8.19021
269 2 0.146047 -1.64321 9.69351 1.76379
194 2 0.229975 -1.69312 14.2529 5.52498
262 2 -0.0157736 3.13519 8.12784 0.094649
70 1 -0.653256 3.68365 8.50641 6.54979
67 1 -0.671014 1.96487 7.42635 3.98627
174 2 0.157797 -1.81091 7.56023 1.09296
198 2 0.184215 1.57622 7.52574 5.02724
24 4 1.01767 -2.16571 9.768 12.5705
25 4 1.28038 -3.13196 12.0248 10.6235
266 2 0.160538 -3.47469 13.3566 12.6159
63 1 -0.665481 -3.06786 9.4012 14.1834
64 1 -0.692909 -3.83899 13.6018 11.5693
204 2 0.113538 1.72621 8.23299 8.42883
245 2 0.0455214 -0.309723 12.0598 16.6056
93 3 -0.803036 -1.37169 8.47901 11.8609
94 3 -0.760337 -4.60374 11.3278 9.69987
95 3 -0.834535 -2.6943 11.0054 11.7256
119 3 -0.793116 -1.89516 12.4157 9.55637
147 2 0.00891938 -1.33868 10.3083 14.0054
154 2 -0.00417561 2.52344 8.23304 13.6207
157 2 -0.0226924 0.410126 11.2427 8.8264
189 2 0.169626 -2.30823 9.14053 15.0804
188 2 0.158981 -3.82332 10.2059 14.4139
272 2 0.133029 0.939761 13.9639 9.35963
206 2 0.15299 1.2614 9.8853 9.73803
191 2 0.190748 -4.96052 13.3825 11.4954
196 2 0.120071 -3.3246 14.7159 15.5078
249 2 0.144194 2.13557 9.82213 14.3928
197 2 0.176175 -1.63437 14.9533 14.7577
145 2 0.0158284 0.10302 7.98211 9.7179
192 2 0.257607 -3.37385 14.5485 11.0478
69 1 -0.640154 1.14307 9.36348 8.73934
241 1 -0.670727 3.20194 10.0913 13.9685
41 4 0.993882 -1.18021 11.6321 8.4171
90 3 -0.794214 -5.41367 13.6017 8.87473
247 2 0.138844 4.02822 9.26048 14.1251
173 2 0.150665 -0.875002 9.37558 16.125
244 3 -0.768863 2.62781 11.9315 16.0078
248 2 0.18213 3.20976 10.5416 12.9601
175 2 0.174839 -2.38671 8.39219 16.6536
57 1 -0.658304 -1.22198 8.50338 16.7633
1 4 1.33287 14.6529 1.94789 3.44026
6 2 0.0415105 11.7445 1.27224 0.948232
3 1 -0.674959 12.9424 2.06547 4.48595
263 2 0.151222 11.4733 5.49024 5.49754
5 3 -0.791874 14.0314 0.824621 2.29361
255 2 0.0157382 13.5868 0.567608 5.63562
7 2 0.134738 12.3915 1.08334 4.53481
8 2 0.163228 12.4872 2.83417 3.8102
9 2 0.168416 13.4642 2.52289 5.46222
50 4 0.874779 8.49446 7.14203 6.20702
256 2 -0.0302595 11.3319 0.645775 6.73832
43 4 1.19313 9.42762 1.95799 3.59758
47 4 0.994718 9.09608 4.76063 2.71567
48 4 0.911123 6.29504 7.24681 4.24046
59 1 -0.668519 11.6903 6.27668 4.75109
122 3 -0.768643 9.02545 0.612049 2.7603
123 3 -0.810485 8.22901 2.2699 4.76206
128 3 -0.832313 9.56318 3.27415 2.70331
129 3 -0.815214 5.7445 6.27002 3.07679
130 3 -0.813509 8.85724 5.43185 1.29566
158 2 -0.0236834 10.9309 1.83053 4.39855
161 2 -0.00421149 10.3788 5.62491 3.42156
162 2 0.0767512 7.78345 5.0038 3.75249
179 2 0.163347 12.1924 5.93325 3.75987
166 2 -0.0104544 8.16691 6.20233 7.62748
203 2 0.0591723 5.5656 5.84281 6.61024
2 4 1.04181 12.8657 0.104121 1.50477
165 2 -0.014622 10.062 6.724 5.84504
131 3 -0.827089 7.58525 6.67204 4.97021
68 1 -0.648008 6.30531 6.3632 8.10613
201 2 0.16242 6.85689 7.31797 7.96086
109 3 -0.792836 6.85462 3.38379 6.91915
237 2 0.232842 10.5194 3.5038 0.524326
273 2 0.144326 9.61059 0.871631 8.28924
254 3 -0.840851 13.5067 1.23055 8.18441
211 2 0.178223 8.92239 0.387224 6.12677
44 4 1.05786 8.7279 1.93397 10.2808
12 4 1.5384 14.0227 2.13024 9.43839
46 4 1.29331 11.8308 1.73439 11.6998
84 3 -0.7562 14.0316 3.72314 8.9959
51 4 1.23804 6.85708 7.32507 14.4744
257 1 -0.644676 7.84291 4.13148 15.8437
258 2 0.272835 7.97942 5.3167 15.8529
73 1 -0.672285 11.9659 3.27322 12.8578
270 2 0.153043 14.3911 2.27104 16.0374
125 3 -0.81433 12.82 2.0402 10.4985
126 3 -0.767182 10.1025 1.94192 11.004
259 2 0.207485 7.25121 3.74996 14.9017
132 3 -0.779126 6.42515 6.16938 13.4489
133 3 -0.749719 8.25521 7.01352 15.7704
152 2 0.0780541 7.03694 5.27935 9.11468
271 2 0.158812 12.823 1.20774 15.8684
4 1 -0.678935 13.8116 1.35083 16.3493
72 1 -0.656152 8.52268 0.90416 8.72198
214 2 0.167148 10.8173 3.4459 12.8488
215 2 0.174736 12.6197 4.04155 12.3507
216 2 0.138266 12.3864 2.83387 13.8652
260 2 0.186656 8.81086 3.5823 16.0372
231 4 1.01862 12.0004 5.67764 15.1155
159 2 0.0355763 8.83359 2.8322 8.74976
233 3 -0.766188 10.8611 6.68294 15.5868
234 2 -0.00654156 11.7449 5.16303 13.4569
49 4 1.29082 9.67615 7.18523 16.6791
236 2 0.150633 11.4868 3.32275 15.7468
185 2 0.148077 12.4801 6.61466 10.725
235 2 0.178753 13.1032 3.98166 16.3372
232 1 -0.658628 11.9745 4.179 16.2861
81 3 -0.809232 15.4959 1.73555 10.1647
181 2 0.148183 14.7117 3.20322 13.647
261 3 -0.77526 13.5257 6.30322 15.293
134 3 -0.850084 5.54903 7.74322 15.3094
202 2 0.159623 5.30224 6.57116 8.64263
186 2 0.147997 11.4105 7.51836 8.40876
253 4 0.99168 5.56297 14.3175 7.1797
52 4 1.0416 4.07581 11.5163 2.65527
53 4 1.04407 8.17925 10.2897 7.02135
223 2 0.150468 5.33601 10.1315 4.46142
212 2 0.13314 3.17345 13.87 5.25354
71 1 -0.677115 2.32866 13.6279 6.12467
140 3 -0.793125 5.65582 12.8051 7.53474
76 1 -0.672585 5.40951 10.3439 3.34414
77 1 -0.657628 7.68988 11.4857 5.57788
180 2 0.154743 11.3293 7.47069 4.89157
135 3 -0.790291 4.73719 12.898 2.06599
136 3 -0.752149 3.04664 11.7138 3.77531
137 3 -0.82619 8.40073 8.70139 6.5472
252 2 0.125513 4.54139 9.44785 0.987187
225 2 0.205028 7.97841 12.5053 6.11644
164 2 -0.00447759 6.69766 8.80813 3.6621
224 2 0.160417 6.32535 10.9827 3.01774
167 2 0.00780682 3.23292 10.6709 1.39514
168 2 0.0471934 6.49688 10.7295 6.89778
274 2 0.162135 8.86916 8.25503 1.35454
209 2 0.141708 4.68679 9.08993 6.31703
210 2 0.150458 2.72865 13.3083 7.14573
227 2 0.149044 8.50885 10.9947 4.86915
163 2 -0.0115132 5.05445 7.81043 5.26282
226 2 0.175908 6.6291 11.4944 5.12152
222 2 0.11755 5.16601 9.447 2.65112
138 3 -0.832778 8.93271 11.1051 8.1191
265 2 0.215961 10.1599 8.90078 8.29126
74 1 -0.65825 8.92794 8.04016 0.26044
22 4 1.54006 9.54731 12.0076 9.31748
54 4 1.21345 4.82053 11.954 8.88344
55 4 1.29758 7.11299 11.836 11.328
75 1 -0.667739 7.4773 8.67605 13.271
78 1 -0.663517 3.59289 13.1998 9.6338
160 2 -0.0107146 6.33922 14.525 14.5545
10 2 0.114925 7.1393 14.4086 16.3019
141 3 -0.816802 8.58831 12.1051 10.662
142 3 -0.776412 5.98841 11.7152 10.2463
143 3 -0.834581 6.71984 12.7706 12.457
169 2 0.00883785 7.32712 10.2498 12.0439
127 3 -0.81093 4.71677 14.47 12.5205
220 2 0.148798 8.5272 8.94435 13.7414
221 2 0.14899 6.62643 9.41165 13.4273
230 2 0.20054 3.88676 14.344 9.55522
239 4 1.07637 3.88653 11.3782 15.2133
45 4 1.22052 5.61179 13.5063 13.3993
62 1 -0.676277 11.2092 8.65937 8.46651
243 3 -0.775449 4.70387 12.4657 14.2859
139 3 -0.796372 3.87362 10.7236 8.50607
190 2 0.179143 11.8708 8.43834 13.7938
251 2 0.162234 5.64173 9.92635 16.0436
228 2 0.207063 3.46116 12.8613 10.6818
229 2 0.145881 2.657 12.9693 9.02372
219 2 0.174429 7.59682 8.16484 12.2669
218 2 0.171884 10.9421 9.24352 16.6197
242 1 -0.670825 5.26877 10.7842 16.6563
217 2 0.152764 9.09047 9.60023 16.4186
250 2 0.148095 5.82972 11.8406 16.3844
187 2 0.214578 11.4592 9.04448 9.4877
ITEM: TIMESTEP
200
ITEM: NUMBER OF ATOMS
274
ITEM: BOX BOUNDS xy xz yz pp pp pp
-7.3914999999999997e+00 1.6478000000000002e+01 -7.3914999999999997e+00
0.0000000000000000e+00 1.5100700000000000e+01 9.9190000000000000e-01
0.0000000000000000e+00 1.6703916000000000e+01 1.0307999999999999e+00
ITEM: ATOMS id type q x y z
98 3 -0.818549 3.91949 1.20997 8.07118
13 4 1.56389 1.22671 2.2098 5.7899
15 4 1.3192 -0.0746218 4.35702 1.56414
65 1 -0.679641 6.62307 0.656539 6.52044
17 4 1.30026 -0.578772 4.45181 7.36197
18 4 1.32422 -1.94367 6.67205 5.5235
27 4 1.27449 3.92701 2.9535 4.16409
108 3 -0.77275 4.61233 3.96038 8.19445
30 4 1.30965 6.80834 2.38113 5.66411
33 4 1.46796 4.94902 5.06164 2.35461
177 2 0.219425 1.58297 5.39565 7.76031
56 1 -0.670077 1.23169 3.49609 0.446421
104 3 -0.823592 5.79935 3.88354 1.66095
97 3 -0.805595 6.97691 1.42945 1.35935
28 4 1.33287 6.11836 2.535 0.716717
198 2 0.187286 1.74267 7.21418 5.2575
200 2 0.23864 2.50628 6.54437 3.61391
80 3 -0.84908 1.67068 0.991699 6.68876
82 3 -0.802876 -0.767214 3.35209 2.66138
83 3 -0.798766 -1.06686 4.92749 0.447344
85 3 -0.809179 0.381525 3.35828 6.55139
86 3 -0.818946 -1.53695 5.48222 6.39996
96 3 -0.80434 2.61715 2.75646 5.15053
106 3 -0.768943 -0.879534 7.06497 4.23876
213 2 0.175977 7.88835 0.865659 8.09515
100 3 -0.822447 5.30733 2.69103 4.80179
103 3 -0.792064 3.86918 4.48981 3.43899
58 1 -0.67763 0.622817 5.63764 8.21522
105 3 -0.725993 0.578358 5.77697 2.37585
107 3 -0.768007 4.03601 5.91496 1.02929
148 2 0.00160039 3.93231 1.76301 3.01395
195 2 0.193545 6.25911 1.14036 7.51642
171 2 0.149853 1.15873 2.42558 0.805482
172 2 0.213032 2.24358 3.99486 0.75225
79 3 -0.788848 0.19863 1.50842 4.52508
36 4 1.04129 5.9461 4.46425 7.63816
34 4 1.00997 0.291869 7.21145 3.14474
101 3 -0.785959 4.55706 1.90079 0.0626367
176 2 0.165415 0.123182 6.6273 7.87627
178 2 0.2128 0.704156 5.52314 9.32421
14 4 1.27921 1.36154 2.35713 10.5594
19 4 1.20232 0.86157 4.91422 12.5329
20 4 1.01229 -0.643822 7.28242 10.8642
29 4 1.47714 3.84519 2.52042 9.06769
31 4 1.04593 4.70011 2.90689 15.5032
32 4 1.2685 5.75808 2.6662 11.4734
111 3 -0.815778 5.60977 4.21833 11.8053
37 4 1.22253 5.33707 5.01254 13.1829
38 4 1.23545 2.07661 6.89774 14.639
60 1 -0.656514 -0.457157 4.19518 13.6218
35 4 1.25871 4.36791 7.61 16.4035
66 1 -0.680758 4.53077 1.25842 14.5631
184 2 0.175518 -1.94651 7.036 8.88621
61 1 -0.657431 -1.96932 6.41432 9.84244
87 3 -0.806774 1.20191 3.5976 11.6899
88 3 -0.800271 0.136423 6.09209 11.6552
99 3 -0.783202 2.25103 2.95128 9.32355
124 3 -0.834094 7.22426 2.18507 11.1139
102 3 -0.886276 4.57907 2.31248 10.4492
16 4 1.34191 -0.636232 6.92963 15.9502
110 3 -0.81484 5.1242 3.97235 14.3799
267 2 0.143655 3.90573 1.40462 13.6276
112 3 -0.823635 2.35549 5.65132 13.7281
113 3 -0.871295 3.05794 7.04398 15.8832
114 3 -0.837471 0.534567 7.3428 14.9672
144 2 -0.00256226 2.21074 0.99069 11.2523
149 2 -0.00236798 3.06767 3.1285 16.0479
197 2 0.156108 5.61044 0.941504 14.3353
150 2 0.00857489 5.57012 1.70552 12.9447
153 2 0.0811998 3.79205 5.8367 12.9979
170 2 0.194624 1.9252 4.72209 16.0966
182 2 0.167982 -0.00429494 4.44365 14.6665
183 2 0.252642 -1.77116 5.3124 9.63819
81 3 -0.844417 -0.00297982 1.88172 10.0203
261 3 -0.799186 -1.85494 6.19144 15.2347
21 4 1.30409 -2.95075 9.36283 7.00807
23 4 1.27492 -3.88233 11.8669 5.40591
238 4 1.00744 0.37555 11.403 0.368219
39 4 1.26097 -1.09869 12.2625 3.99062
40 4 1.11296 2.81374 10.0166 7.51918
207 2 0.171377 3.0508 8.15043 5.64957
246 2 0.16229 -0.726163 9.06854 0.459276
89 3 -0.817937 -2.28736 7.96332 6.37001
91 3 -0.797859 -3.89313 10.3288 5.96614
92 3 -0.840932 -4.06259 13.0822 6.41937
42 4 1.28256 1.83834 11.8604 5.20655
115 3 -0.828697 -0.895991 13.6426 3.29546
116 3 -0.835551 -2.45527 12.0997 4.78682
117 3 -0.822648 0.443715 12.8259 1.05705
11 4 1.58312 -4.64546 14.2095 7.41654
120 3 -0.805901 0.211265 11.9066 4.86885
121 3 -0.812304 1.99576 10.8059 6.47717
146 2 -0.0420105 -5.02633 11.9707 4.21534
151 2 -0.0219904 0.131034 8.61306 2.0868
155 2 -0.00641908 -1.06933 11.0631 2.73766
156 2 0.0488546 -1.04123 12.8285 7.0398
208 2 0.165631 4.14087 7.79156 7.19237
199 2 0.119789 2.08078 8.48384 3.84174
240 1 -0.656063 -0.911297 9.96201 1.1098
118 3 -0.825001 -1.86915 10.381 7.70802
268 2 0.0378563 0.533119 10.3616 1.97358
193 2 0.157348 0.170421 14.0549 6.57429
174 2 0.159681 -2.03361 7.73304 1.04326
269 2 0.150267 -1.78575 9.76733 1.75545
26 4 1.41637 0.226542 14.0874 2.11726
262 2 -0.00111675 2.89556 8.23048 0.107612
70 1 -0.661325 3.74948 8.55974 6.55281
67 1 -0.652401 1.88269 7.34614 4.15037
41 4 1.03183 -1.1285 11.6093 8.22737
194 2 0.231876 -1.62105 14.3466 5.86502
205 2 0.196217 0.231203 9.68207 7.98954
24 4 1.01758 -2.08327 9.74533 12.5224
25 4 1.29763 -3.22667 11.903 10.5585
266 2 0.169203 -3.49077 13.2848 12.4763
63 1 -0.657293 -3.10496 9.52549 14.0895
64 1 -0.703488 -3.93544 13.5262 11.4634
187 2 0.203172 -3.58248 8.95724 9.30854
245 2 0.0319577 -0.44593 12.2121 16.6717
93 3 -0.786658 -1.31594 8.47203 11.6925
94 3 -0.763681 -4.51856 11.2624 9.89887
95 3 -0.806501 -2.65294 10.9667 11.7075
119 3 -0.7777 -1.7763 12.2146 9.46858
147 2 0.00951092 -1.24894 10.1046 13.9983
154 2 0.00422782 2.61326 8.21464 13.5315
157 2 0.00532702 0.557067 11.3835 8.52054
189 2 0.16255 -2.49641 9.23959 15.0861
188 2 0.161669 -3.82746 10.3828 14.3335
272 2 0.132967 0.824503 13.8626 9.81932
206 2 0.160118 1.25538 9.96034 9.63639
191 2 0.21131 -5.03726 13.4515 11.3023
196 2 0.133409 -3.40917 14.7516 15.4034
249 2 0.162072 2.06584 9.77541 14.171
57 1 -0.672025 -1.35228 8.60195 16.6932
145 2 0.00815133 0.27923 7.96983 9.59974
192 2 0.204176 -3.48062 14.371 10.9609
69 1 -0.620894 1.17962 9.48373 8.64332
241 1 -0.669452 3.11032 10.0524 13.9713
175 2 0.182756 -2.42382 8.34252 16.6673
90 3 -0.800541 -5.37837 13.4009 8.6931
248 2 0.16073 3.24214 10.4726 12.8593
173 2 0.144137 -1.13476 9.52347 16.0162
244 3 -0.781464 2.47906 11.9725 16.0474
247 2 0.146599 3.94225 9.23742 14.2206
204 2 0.110903 1.80492 8.2949 8.42475
1 4 1.29194 14.5327 1.97536 3.49136
6 2 0.055608 11.8275 1.18434 0.887921
3 1 -0.681445 12.8161 1.89545 4.52068
263 2 0.141923 11.5108 5.46294 5.27535
5 3 -0.768699 14.1819 0.784704 2.31233
255 2 0.0194376 13.6532 0.373727 5.51538
7 2 0.147947 12.3949 0.870401 4.16726
8 2 0.165472 12.3913 2.82624 3.97028
9 2 0.145191 12.8735 2.00702 5.65629
50 4 0.912212 8.51044 7.16594 6.19997
256 2 -0.020388 11.3027 0.595371 6.51089
43 4 1.22197 9.31515 1.94124 3.66874
47 4 0.977531 8.99376 4.77335 2.98994
48 4 0.934206 6.27479 7.22911 4.23131
59 1 -0.659917 11.711 6.38136 4.64986
122 3 -0.765589 9.20147 0.605576 2.81743
123 3 -0.842438 8.18444 2.1803 4.83398
128 3 -0.819383 9.59691 3.327 2.84805
129 3 -0.822139 5.80569 6.17324 3.18835
130 3 -0.728826 8.91083 5.57483 1.59056
158 2 -0.00138303 10.7958 1.84286 4.51726
161 2 -0.000196249 10.0099 5.58095 4.04456
162 2 0.0607161 7.54787 4.8575 3.87533
179 2 0.172197 12.3441 6.21422 3.64767
166 2 -0.0165972 8.1734 6.18249 7.53186
203 2 0.04697 5.72886 6.02666 6.63475
254 3 -0.79162 13.4914 1.13656 8.1107
165 2 -0.0206649 10.0845 6.64896 5.81359
131 3 -0.84589 7.6061 6.82463 4.99164
68 1 -0.658285 6.34466 6.32358 8.2429
201 2 0.16405 6.98733 7.21069 8.14441
109 3 -0.833739 7.0268 3.46733 6.82862
237 2 0.233025 10.6164 3.41837 0.515889
44 4 1.0538 8.63208 1.9234 10.4067
12 4 1.52874 14.0752 2.15165 9.36327
46 4 1.26274 11.7304 1.79717 11.757
84 3 -0.783914 13.9972 3.63791 8.64787
51 4 1.27641 6.8543 7.28338 14.585
257 1 -0.655855 8.06363 4.147 15.929
258 2 0.272917 8.0984 5.31849 15.8779
73 1 -0.663154 12.1138 3.27357 12.8817
270 2 0.159532 14.3645 2.23708 15.7156
125 3 -0.770676 12.8788 2.09768 10.5519
126 3 -0.77611 10.0197 1.90886 11.1455
259 2 0.200108 7.58866 3.67193 14.9731
132 3 -0.795097 6.57268 5.97615 13.6666
133 3 -0.756511 8.25248 7.10789 15.7417
152 2 0.0725196 7.16739 5.13495 9.08663
271 2 0.144835 12.8297 1.12276 15.9797
4 1 -0.655876 13.9608 1.34425 16.2775
72 1 -0.667128 8.59445 0.718858 8.95561