ITEM: TIMESTEP
0
ITEM: NUMBER OF ATOMS
274
ITEM: BOX BOUNDS xy xz yz pp pp pp
-7.3914999999999997e+00 1.6478000000000002e+01 -7.3914999999999997e+00
0.0000000000000000e+00 1.5100700000000000e+01 9.9190000000000000e-01
0.0000000000000000e+00 1.6771000000000001e+01 1.0307999999999999e+00
ITEM: ATOMS id type q x y z
152 2 -0.0171804 6.92348 2.07705 8.13607
13 4 1.54623 0.981615 1.91377 5.48796
15 4 1.41635 -0.422444 4.22608 1.62045
198 2 0.191837 1.47859 6.54873 5.22746
17 4 1.34403 -0.364765 4.30966 7.14866
18 4 1.29108 -2.06645 6.64675 5.40586
27 4 1.28611 3.60723 2.83176 3.80777
67 1 -0.662573 1.84943 6.61948 4.18336
30 4 1.28317 6.44414 2.4051 5.33656
33 4 1.44377 4.74686 5.02388 2.26147
34 4 1.04781 0.232764 6.90422 3.23503
56 1 -0.660136 1.03965 3.33811 0.641629
58 1 -0.663353 0.907156 5.74056 7.42892
28 4 1.22378 6.00785 2.36573 0.523487
65 1 -0.715575 6.56865 0.887592 6.57342
98 3 -0.847093 3.6432 1.3491 7.78401
174 2 0.158115 -2.67609 6.69965 1.30488
80 3 -0.846034 1.29725 0.7231 6.51938
195 2 0.223412 5.43392 0.963466 6.95344
83 3 -0.794268 -1.34067 4.47655 0.347377
85 3 -0.825885 0.329096 3.23713 6.2848
86 3 -0.769823 -1.66181 5.36062 6.28111
96 3 -0.83084 2.33842 2.40273 4.61932
97 3 -0.800112 6.39917 1.05446 1.41118
82 3 -0.817093 -0.911899 3.21276 2.66032
100 3 -0.797503 5.02822 2.57508 4.66301
103 3 -0.831091 3.58811 4.40466 3.2984
200 2 0.289294 2.50536 5.7294 3.789
105 3 -0.797375 0.0157691 5.55722 2.36095
107 3 -0.836168 4.06319 6.26138 1.44507
148 2 -0.00541316 3.77839 1.86036 2.52039
208 2 0.153918 4.3111 7.42184 7.126
171 2 0.148889 1.23463 2.27143 0.912527
172 2 0.221525 1.86395 4.04712 0.916781
176 2 0.177785 0.406147 6.70415 7.239
177 2 0.203082 1.80554 5.4786 6.7749
193 2 0.141953 7.39822 0.628006 7.37506
104 3 -0.795117 5.35972 3.82427 1.43427
108 3 -0.722788 4.85109 3.95257 8.22626
106 3 -0.787113 -0.930886 7.0572 4.30036
79 3 -0.833273 -0.238765 1.39625 4.4918
36 4 1.00369 6.47302 3.71009 7.92091
267 2 0.161386 4.02335 1.53139 12.9382
14 4 1.25409 1.67595 2.55654 10.7128
19 4 1.26958 1.21557 4.94821 12.8407
20 4 0.992441 -0.227092 7.44014 11.062
29 4 1.38046 3.87675 2.55413 8.87554
31 4 1.06755 4.52207 3.22407 15.0024
32 4 1.18994 6.04077 2.63447 11.3049
35 4 1.2374 4.54787 7.63795 16.7059
37 4 1.2169 5.39236 5.15607 12.6644
38 4 1.20526 2.1837 7.03196 15.0162
183 2 0.184837 -0.479705 6.39247 8.78827
61 1 -0.635397 -1.19552 6.72054 9.65439
66 1 -0.660026 4.29623 1.54682 14.0604
16 4 1.26863 -0.65464 6.88486 16.0614
261 3 -0.780732 -1.82312 6.39298 15.0155
87 3 -0.805524 1.77742 3.6842 11.9587
88 3 -0.771656 0.371989 6.09126 11.8252
99 3 -0.827477 2.44575 3.01945 9.3791
101 3 -0.763409 5.70027 3.11832 16.024
102 3 -0.833394 4.91595 1.99638 10.3703
178 2 0.188565 1.03508 5.46165 8.6099
110 3 -0.799623 4.83589 4.14093 13.7634
111 3 -0.793447 5.95793 4.27034 11.408
112 3 -0.823872 2.09671 5.69317 14.0221
113 3 -0.820783 3.23375 6.85853 16.26
184 2 0.176568 -2.04641 7.47952 9.27369
144 2 0.010405 2.60102 1.2165 11.3696
182 2 0.205947 -0.0146386 4.4517 15.0371
149 2 0.0163259 3.11403 3.89206 15.84
150 2 0.0135187 5.85724 1.94592 12.8598
153 2 -0.0125478 4.05642 6.01873 12.0094
81 3 -0.782301 0.171733 1.95618 10.4688
60 1 -0.659931 -0.0870474 4.17929 13.941
114 3 -0.825303 0.829275 7.53066 15.648
185 2 0.199347 -1.65747 5.79816 10.2424
170 2 0.188596 1.69139 4.49584 16.3014
84 3 -0.812576 -0.792922 3.74052 8.55196
181 2 0.16584 0.0251145 3.08423 13.8776
196 2 0.107761 3.31354 1.28953 14.712
264 2 0.189329 -1.06544 4.54411 13.4861
197 2 0.170118 5.10079 0.878361 14.2769
21 4 1.26446 -2.56125 9.47692 7.21112
23 4 1.25745 -3.59432 11.9369 5.71358
204 2 0.246239 0.544432 9.67509 8.19651
39 4 1.28938 -0.837863 12.0647 4.13031
199 2 0.112149 2.30266 7.7215 3.97969
238 4 1.00973 0.56436 11.277 0.609816
194 2 0.220689 -0.730017 14.1836 5.67888
89 3 -0.761519 -2.29652 8.09694 6.28378
91 3 -0.793068 -3.57992 10.4651 6.65608
92 3 -0.865588 -3.96502 13.1082 6.55593
11 4 1.56153 -4.8392 14.2089 7.38709
115 3 -0.801024 -0.628582 13.5331 3.56677
116 3 -0.856663 -2.1835 11.9793 4.85461
117 3 -0.840024 0.47559 12.6738 1.35365
118 3 -0.774764 -1.10095 10.4663 7.93053
120 3 -0.822134 0.475324 11.7769 4.98268
173 2 0.164319 -1.75458 8.20646 0.534529
146 2 -0.0287047 -4.85214 11.83 4.61035
151 2 -0.00979753 0.307482 8.42451 2.31127
155 2 -0.00192655 -0.971506 10.8918 2.84653
156 2 0.0262007 -1.38386 13.2105 7.41522
26 4 1.43796 0.161547 14.0578 2.15828
57 1 -0.667311 -2.49144 7.28572 0.284047
207 2 0.176131 3.10006 7.67769 5.61517
268 2 0.0267075 0.970808 10.1585 2.03405
240 1 -0.646654 -0.653045 9.74527 1.28049
269 2 0.143527 -1.50356 9.52651 2.04712
40 4 1.01236 3.1849 9.65198 7.44213
246 2 0.157617 -0.44387 8.87426 0.556871
70 1 -0.666113 3.81783 8.15007 6.33698
206 2 0.140737 1.75884 8.00137 8.1835
262 2 -0.0119041 3.1686 8.23704 0.228314
24 4 1.04106 -2.00066 9.56365 12.6538
25 4 1.24266 -3.23972 11.8696 10.7513
247 2 0.152559 2.19792 10.0319 14.1647
63 1 -0.654312 -1.11692 9.97659 14.2647
64 1 -0.669723 -3.78512 13.5498 11.4469
69 1 -0.642298 1.65076 9.18684 8.47634
241 1 -0.68206 3.28689 10.2386 13.9086
93 3 -0.811097 -1.17509 8.49322 11.7762
175 2 0.18232 -2.39258 8.68283 16.5852
95 3 -0.779088 -2.62648 10.8824 12.1161
119 3 -0.812542 -2.04904 12.2191 9.76546
147 2 0.160518 -0.0594582 9.80073 13.8333
190 2 0.0388964 -2.83986 9.00354 14.0489
272 2 0.154143 0.199792 14.2531 9.2472
244 3 -0.788642 2.649 11.9431 16.2638
188 2 0.172235 -1.3189 11.0906 14.3101
189 2 0.17496 -1.2707 9.38642 15.3349
90 3 -0.826351 -5.46946 13.2892 8.60126
191 2 0.209005 -4.93208 13.5366 11.5034
94 3 -0.758683 -4.7946 11.2331 10.0542
187 2 0.187356 -2.8085 9.14263 9.50759
154 2 -0.0212165 2.7052 8.33097 14.0011
266 2 0.154996 -3.31913 13.2783 12.5393
62 1 -0.652667 -3.50537 8.73567 8.71022
41 4 0.957134 -1.10224 11.972 8.48406
192 2 0.225667 -3.22252 14.5269 11.056
157 2 0.00116253 0.485943 12.5415 8.69106
145 2 0.00349352 0.710193 7.90879 9.69939
205 2 0.141587 1.9474 9.41876 9.54206
248 2 0.117695 4.03818 9.41439 14.2392
245 2 0.0410154 -0.13083 11.8277 16.7056
1 4 1.33806 14.108 1.922 3.53065
6 2 0.0491443 11.5056 1.32902 0.576539
3 1 -0.679834 12.4603 2.33555 4.61478
213 2 0.124909 9.02999 0.759457 7.91592
5 3 -0.788747 13.5788 0.947877 2.31331
59 1 -0.670201 11.7027 6.36842 4.50955
7 2 0.140891 11.8955 1.35678 4.80586
8 2 0.150078 12.056 3.05616 3.78079
9 2 0.173179 12.8557 2.9211 5.49719
263 2 0.13147 11.4159 5.44997 5.17183
109 3 -0.748142 6.69319 3.92079 6.39343
43 4 1.19356 9.06489 2.18566 3.37442
47 4 0.975924 8.93552 5.00484 2.47783
48 4 0.943084 6.05516 6.95623 4.24769
256 2 -0.0185867 12.7287 1.01919 6.0896
122 3 -0.789631 9.00484 0.758048 2.64468
123 3 -0.821172 7.83548 2.33645 4.44967
128 3 -0.831776 9.23142 3.51366 2.38665
129 3 -0.79448 6.13994 5.83852 3.18413
130 3 -0.806253 8.74809 5.63417 1.0169
158 2 -0.0098585 10.5438 2.16537 4.23242
161 2 -0.030303 10.2081 5.71658 3.43359
162 2 0.127182 7.66287 5.35146 3.56577
50 4 0.936067 8.24479 7.39438 6.25728
166 2 0.0146806 7.7421 6.18552 7.36551
163 2 0.0172041 4.79268 6.71882 5.39436
201 2 0.126935 8.75189 5.01283 8.2871
179 2 0.157747 11.9619 6.09992 3.4563
236 2 0.209417 10.6722 3.84025 0.267569
2 4 0.991875 12.7593 0.22757 1.20072
131 3 -0.827617 7.4572 7.1197 4.96078
165 2 -0.0284275 9.87533 7.08502 6.04463
180 2 0.156315 11.0457 7.29217 4.61673
44 4 0.964921 8.98927 1.95047 9.8597
49 4 1.26091 9.62482 7.33501 16.3325
46 4 1.28463 11.7285 2.03597 11.5603
237 2 0.17961 12.559 3.4923 16.022
51 4 1.26329 6.94306 7.41348 14.4981
254 3 -0.810345 14.095 1.10906 8.42716
271 2 0.142227 12.9081 1.62124 15.381
73 1 -0.663583 11.3702 3.50621 12.6995
159 2 -0.0269544 9.14404 3.41137 8.88146
125 3 -0.743861 12.9476 2.55526 10.4576
126 3 -0.793415 10.3348 1.82504 10.7349
270 2 0.180525 14.3757 2.7463 15.7063
132 3 -0.764034 6.46579 6.20069 13.331
133 3 -0.792898 8.34209 7.23694 15.37
68 1 -0.667036 7.78874 4.87887 8.90768
12 4 1.49688 14.3762 2.30837 9.43772
134 3 -0.817057 5.61002 7.58058 15.5451
202 2 0.216358 7.90617 4.50212 9.94288
214 2 0.179424 10.3115 3.84079 12.457
215 2 0.149189 12.3522 4.12405 12.2879
216 2 0.160803 11.5405 3.12448 13.7346
4 1 -0.657262 13.7834 1.86713 16.0592
231 4 1.03119 12.0804 5.86653 14.9412
232 1 -0.668399 11.778 4.34511 15.9805
233 3 -0.760549 11.1295 7.00975 15.3083
234 2 0.00662875 11.6993 5.34074 13.3464
235 2 0.154756 10.7735 3.94372 15.5193
258 2 0.18503 8.0398 3.7025 15.2496
259 2 0.179203 9.30866 3.24639 16.7412
257 1 -0.672003 8.47773 3.96031 16.3207
203 2 0.170334 7.02007 5.76006 8.95402
124 3 -0.783939 7.55734 2.24233 10.7013
127 3 -0.765143 12.3054 0.827983 12.5977
260 2 0.246243 8.58648 4.99993 16.6357
225 2 0.170462 8.27552 12.1981 6.05367
52 4 1.0602 3.86497 11.602 2.46068
53 4 1.01014 7.56873 10.3427 7.43995
212 2 0.180702 1.41509 14.122 6.00258
274 2 0.160728 9.21075 8.38346 0.949193
71 1 -0.675901 2.44575 13.6162 5.87538
211 2 0.210126 3.01733 13.4588 6.82084
76 1 -0.661966 5.09408 10.2458 2.79427
77 1 -0.647205 7.44836 11.3008 5.85471
250 2 0.134077 4.53423 9.36361 0.787628
135 3 -0.765696 4.57987 12.8868 1.85591
136 3 -0.788659 2.93866 11.5265 3.74777
137 3 -0.79025 8.00023 8.74622 6.92081
140 3 -0.792659 4.86513 13.3243 8.22755
226 2 0.109843 6.27055 11.6692 6.06343
164 2 -0.00105004 5.73582 8.5298 3.53677
209 2 0.128463 4.66729 8.70109 5.79709
167 2 0.0342059 3.29766 10.58 1.10301
168 2 0.099143 5.86542 10.2517 8.01363
227 2 0.164952 7.71994 10.7088 4.86229
42 4 1.27883 2.06621 11.8564 5.22041
210 2 0.165144 3.02257 14.0128 4.94887
255 2 0.00786802 7.12208 13.2129 6.64229
253 4 0.975537 5.99968 14.1971 7.43591
224 2 0.159565 6.07618 10.8832 2.5963
222 2 0.12247 4.90236 9.24329 2.09062
223 2 0.166455 4.87709 10.0548 3.91886
121 3 -0.75943 2.67025 10.8597 6.41365
217 2 0.166147 7.60941 8.52361 0.0219935
22 4 1.50617 9.41401 12.1061 9.48865
54 4 1.20448 4.71528 12.1187 9.38109
55 4 1.24387 7.1155 12.1487 11.4619
75 1 -0.682356 7.15898 9.09244 13.5998
251 2 0.161722 6.07487 11.6589 16.2168
265 2 0.243971 10.9722 9.27466 8.73499
186 2 0.162609 11.9305 7.58243 8.61639
141 3 -0.789019 8.63367 12.6379 10.8439
142 3 -0.821288 5.92023 12.1201 10.4109
143 3 -0.816755 6.70703 13.0341 12.7267
169 2 -0.00915825 7.22699 10.5904 12.1336
78 1 -0.658906 3.421 12.5726 10.6521
220 2 0.165918 8.15152 9.48472 14.0248
221 2 0.150442 6.29499 9.70648 13.8772
138 3 -0.815958 8.44889 11.1512 8.47311
239 4 1.05183 3.89813 11.5766 15.1496
230 2 0.1878 3.81533 12.121 11.6503
242 1 -0.649009 5.31442 10.8141 16.4352
243 3 -0.81797 4.69217 12.7584 14.3499
249 2 0.155575 3.52078 10.6052 12.8632
139 3 -0.742008 4.4639 10.3164 8.59616
219 2 0.156119 7.12887 8.74753 12.5279
229 2 0.236687 3.32878 13.6916 10.7372
252 2 0.126952 5.42197 9.9433 15.5597
10 2 0.0517445 7.36463 14.6881 16.376
45 4 1.25575 5.61698 13.7394 13.5629
273 2 0.185556 2.1191 13.6538 9.53906
218 2 0.156188 10.2186 9.53321 15.7584
72 1 -0.662871 1.30997 14.3303 8.93061
74 1 -0.639601 9.6731 9.18153 16.7311
228 2 0.135028 2.53783 11.9421 10.2552
160 2 0.0132679 6.5811 14.4818 14.7527
ITEM: TIMESTEP
100
ITEM: NUMBER OF ATOMS
274
ITEM: BOX BOUNDS xy xz yz pp pp pp
-7.3914999999999997e+00 1.6478000000000002e+01 -7.3914999999999997e+00
0.0000000000000000e+00 1.5070498600000001e+01 9.9190000000000000e-01
0.0000000000000000e+00 1.6771000000000001e+01 1.0287383999999999e+00
ITEM: ATOMS id type q x y z
106 3 -0.745188 -1.0287 6.95849 4.31584
13 4 1.51105 0.989831 1.92441 5.39684
15 4 1.29085 -0.235025 4.27004 1.64233
198 2 0.19143 1.58979 6.6364 5.20483
17 4 1.34675 -0.547414 4.35539 7.10849
18 4 1.22294 -2.15452 6.70605 5.56421
27 4 1.33279 3.76776 2.76597 3.91031
67 1 -0.662262 1.90083 6.80847 4.16906
30 4 1.37362 6.60827 2.44934 5.24554
33 4 1.46354 4.79132 5.01406 2.28797
34 4 0.962453 0.307257 7.02004 3.23789
56 1 -0.667603 1.14543 3.33465 0.660456
58 1 -0.658237 0.854777 5.61924 7.63859
28 4 1.369 5.81423 2.44623 0.446959
65 1 -0.687858 6.50009 0.925819 6.67072
98 3 -0.854 3.72645 1.31732 7.93457
174 2 0.171498 -3.15401 6.81123 1.11737
80 3 -0.844056 1.48822 0.857334 6.46587
195 2 0.254686 5.40889 1.04411 7.09619
83 3 -0.765931 -1.5446 4.68378 0.548524
85 3 -0.787596 0.288785 3.29638 6.19403
86 3 -0.756826 -1.75407 5.20191 6.33232
96 3 -0.819812 2.37723 2.38047 4.59233
97 3 -0.794039 6.42686 1.21756 1.25814
82 3 -0.781241 -0.89201 3.38277 2.89558
100 3 -0.850308 5.12343 2.46836 4.62536
103 3 -0.78298 3.6233 4.29563 3.45997
200 2 0.279275 2.5257 5.90785 3.73894
105 3 -0.73416 0.45834 5.6718 2.12278
107 3 -0.816875 3.93799 6.08881 1.34982
148 2 -0.00862988 3.64351 1.84653 2.55286
36 4 1.03093 6.39379 3.66281 7.97144
171 2 0.135815 1.35762 2.28182 1.14183
172 2 0.236412 2.04757 4.03254 0.745054
176 2 0.161921 0.429127 6.62954 7.35451
177 2 0.212428 1.76523 5.22926 7.08137
193 2 0.137183 7.28645 0.635963 7.49479
104 3 -0.834327 5.38226 3.81399 1.32817
108 3 -0.7533 4.84345 3.9712 8.33508
267 2 0.154002 3.91098 1.79042 13.1705
14 4 1.23447 1.67873 2.59979 10.893
19 4 1.27172 1.13396 4.96902 13.0351
20 4 1.00809 -0.215507 7.41537 10.9945
29 4 1.38175 3.77568 2.62698 8.99243
31 4 1.06668 4.5422 3.33651 15.0963
32 4 1.21584 5.91176 2.5365 11.3131
35 4 1.25251 4.51925 7.6961 16.6843
37 4 1.24557 5.50606 5.1755 12.6701
38 4 1.25005 2.06135 7.03794 14.9794
183 2 0.193572 -0.689003 6.35151 8.84765
61 1 -0.63803 -1.37361 6.68863 9.71038
66 1 -0.653204 4.27035 1.62918 14.23
16 4 1.25672 -0.814584 6.91064 16.2351
124 3 -0.813265 7.39485 2.02516 10.7874
87 3 -0.806682 1.68156 3.63592 12.2506
88 3 -0.749893 0.572649 6.31195 11.8798
99 3 -0.819912 2.44334 3.25624 9.63798
101 3 -0.825445 5.6686 3.13865 16.1965
102 3 -0.851757 4.79549 1.97388 10.3481
178 2 0.198845 0.935423 5.44449 8.81267
110 3 -0.803265 5.00223 4.25352 13.8756
111 3 -0.819572 6.0044 4.14181 11.5368
112 3 -0.846569 2.00173 5.7256 14.14
113 3 -0.820105 3.20787 6.93234 16.1633
184 2 0.180525 -2.25327 7.43711 9.35756
144 2 0.0108443 2.53622 1.10427 11.2412
182 2 0.189605 -0.39242 4.44621 14.8937
149 2 0.0224691 3.0682 3.97966 15.7402
150 2 0.0121587 5.6773 1.83002 12.8472
153 2 -0.0143972 4.17933 5.98825 12.0253
81 3 -0.800735 0.186597 2.24805 10.3262
60 1 -0.654066 -0.35446 4.10793 13.7676
114 3 -0.80396 0.581664 7.41504 15.4385
185 2 0.171851 -1.78396 5.79853 10.4382
170 2 0.159361 1.52486 4.35558 16.365
84 3 -0.784304 -1.12987 3.86708 8.54619
181 2 0.174017 -0.178563 3.00699 13.5861
196 2 0.119277 3.39493 1.35203 14.9276
152 2 0.0204213 6.53468 1.99639 8.4184
21 4 1.25655 -2.58876 9.51868 7.34641
23 4 1.26071 -3.59765 11.8904 5.69286
204 2 0.264166 0.436336 9.67876 8.12589
39 4 1.24083 -0.79675 12.0396 4.09449
199 2 0.118864 2.38884 7.85045 3.85168
238 4 0.972438 0.623831 11.2792 0.521449
194 2 0.187504 -0.816964 14.2909 5.73429
89 3 -0.772493 -2.28177 8.08587 6.60476
91 3 -0.791852 -3.61528 10.3948 6.44919
92 3 -0.824952 -3.86412 13.1372 6.6184
11 4 1.54649 -4.78446 14.3367 7.48809
115 3 -0.840048 -0.815998 13.3869 3.28552
116 3 -0.8181 -2.23394 11.9384 4.95157
117 3 -0.785713 0.469767 12.8093 1.04544
118 3 -0.791056 -1.099 10.4766 7.94436
120 3 -0.829749 0.477719 11.8434 4.99627
173 2 0.150057 -1.82256 8.30589 0.557823
146 2 -0.0264096 -4.69976 11.8361 4.47555
151 2 -0.0133707 0.478381 8.54867 2.39725
155 2 -0.00799878 -0.737848 10.7439 2.92752
156 2 0.04341 -1.35165 13.0615 7.1111
26 4 1.43439 0.0333254 14.1066 2.0621
57 1 -0.665888 -2.64586 7.3684 0.228732
207 2 0.175589 3.23258 7.76465 5.57796
268 2 0.0193939 0.804686 10.3698 2.15065
240 1 -0.650968 -0.597519 9.70609 1.2621
269 2 0.148509 -1.55539 9.62165 1.82153
40 4 0.999369 3.09928 9.71942 7.44652
246 2 0.151166 -0.406507 8.72958 0.672631
70 1 -0.645765 3.93132 8.2846 6.34627
206 2 0.124111 1.757 8.10489 8.35814
262 2 -0.0122814 3.07347 8.3318 0.103356
208 2 0.131153 4.12994 7.6487 7.35493
121 3 -0.748507 2.56642 10.7035 6.23843
41 4 0.973152 -1.10139 11.993 8.38106
24 4 1.01388 -1.88951 9.65106 12.6103
25 4 1.31435 -3.24998 11.948 10.6978
247 2 0.1536 2.21282 10.0615 14.2146
63 1 -0.64174 -0.922114 9.99115 14.1851
64 1 -0.680199 -3.70556 13.6126 11.5989
69 1 -0.644344 1.59873 9.32799 8.46418
241 1 -0.673392 3.30275 10.0747 13.9584
93 3 -0.790213 -1.02308 8.51394 11.8179
175 2 0.168655 -2.49029 8.74975 16.2986
95 3 -0.788984 -2.81938 10.7336 11.8988
119 3 -0.813584 -2.0585 12.2438 9.64919
147 2 0.170153 0.143992 9.70792 13.7352
190 2 0.0290896 -2.63411 8.9611 14.0269
272 2 0.150553 0.0383255 14.1826 9.19848
244 3 -0.777708 2.7791 11.914 16.2146
188 2 0.144626 -1.10335 11.1408 14.1869
189 2 0.17198 -1.18737 9.41246 15.2996
90 3 -0.836456 -5.5072 13.7013 8.81301
191 2 0.192123 -4.82026 13.5589 11.7162
94 3 -0.798442 -4.62376 11.5849 9.98601
187 2 0.199054 -2.98306 9.10795 9.80138
154 2 -0.00563672 2.59314 8.24892 13.9197
266 2 0.144547 -3.09581 13.3694 12.5874
62 1 -0.662418 -3.56884 8.88651 8.85534
197 2 0.155005 -2.26602 14.8696 14.2639
192 2 0.239019 -3.21462 14.4955 11.0749
157 2 -0.00234946 0.460034 12.5155 8.88452
145 2 0.00309543 0.978658 8.13597 9.92795
205 2 0.143955 1.98924 9.81321 9.46398
248 2 0.116055 4.02296 9.25635 14.4923
245 2 0.0419464 -0.0366086 11.8482 16.7065
249 2 0.157924 3.46392 10.2526 12.835
1 4 1.29454 14.147 1.9255 3.52027
6 2 0.0687059 11.4599 1.14209 0.611178
3 1 -0.660567 12.4695 2.11205 4.73809
213 2 0.120068 8.99007 0.821317 8.04378
5 3 -0.794687 13.5047 0.894491 2.35523
59 1 -0.652481 11.6184 6.50622 4.71077
7 2 0.163315 12.0291 1.14722 4.47556
8 2 0.168495 12.1394 3.00007 4.05589
9 2 0.166549 12.4992 2.3887 5.8263
263 2 0.133741 11.2862 5.60406 5.48574
109 3 -0.802665 6.84974 3.57179 6.42761
43 4 1.20471 9.05661 2.21077 3.36818
47 4 0.939752 9.06787 5.00343 2.45102
48 4 0.947943 6.21063 6.86375 4.36443
256 2 0.0148162 13.2285 0.759818 5.94895
122 3 -0.789264 8.83162 0.880669 2.52639
123 3 -0.892285 7.82907 2.43888 4.32006
128 3 -0.805121 9.5453 3.51334 2.35177
129 3 -0.842048 5.81125 5.7694 3.24041
130 3 -0.747324 8.95389 5.83723 1.06459
158 2 -0.0093712 10.5608 1.99928 4.24248
161 2 -0.00395564 10.111 5.8226 3.55224
162 2 0.079764 7.59692 4.99787 3.24499
50 4 0.909548 8.3053 7.36869 6.34528
166 2 0.00394286 7.93276 6.17094 7.45042
163 2 0.0136885 5.08023 6.82821 5.67182
165 2 -0.0197162 9.91723 7.13394 6.21149
179 2 0.176106 12.0549 6.22324 3.68148
236 2 0.237106 10.6131 3.77213 0.0878678
79 3 -0.819158 15.2141 1.22625 4.48062
131 3 -0.836556 7.62027 6.89338 4.97127
254 3 -0.818058 14.1523 1.20119 8.35033
259 2 0.212051 8.26482 2.26906 0.00881895
44 4 1.01033 8.81695 1.84905 10.0808
49 4 1.18679 9.61844 7.61679 16.2672
46 4 1.27699 11.8276 1.83246 11.6041
237 2 0.17714 12.6455 3.44139 15.933
51 4 1.28325 6.79703 7.38048 14.4647
261 3 -0.754809 13.5006 6.3288 14.9662
271 2 0.143867 12.8113 1.12983 15.7535
73 1 -0.653868 11.4545 3.46087 12.5102
159 2 -0.0222917 8.84852 3.25139 9.07774
125 3 -0.792653 13.0533 2.19815 10.4576
126 3 -0.762703 10.2054 1.67674 10.8747
270 2 0.167455 14.0093 2.61833 15.5377
132 3 -0.81304 6.47493 6.26455 13.247
133 3 -0.758063 8.16984 7.23815 15.4113
68 1 -0.665591 7.68244 4.83129 8.92325
12 4 1.53408 14.3182 2.38167 9.46924
134 3 -0.840229 5.65089 7.75338 15.6022
202 2 0.195957 7.66317 4.24242 9.89623
214 2 0.172903 10.2591 3.56166 12.5406
215 2 0.1511 12.0493 4.24312 11.9303
216 2 0.154774 11.9397 3.17089 13.53
4 1 -0.650847 13.7114 1.70823 16.152
231 4 1.04683 12.0118 5.91404 14.8004
232 1 -0.638133 11.829 4.31906 15.8186
233 3 -0.756656 10.9882 6.93688 15.3761
234 2 -0.00626812 11.5976 5.27975 13.1809
235 2 0.153819 10.8388 3.96442 15.3015
258 2 0.187422 8.21095 3.39155 15.1694
201 2 0.134435 8.74028 5.29517 8.77344
257 1 -0.651321 8.41919 3.83343 16.1881
203 2 0.163766 6.91995 5.71019 8.98621
260 2 0.227089 8.37366 4.93347 16.2265
264 2 0.174083 14.1627 4.4877 13.2503
225 2 0.186557 8.03987 12.2762 5.67045
52 4 1.00594 3.97068 11.4286 2.39813
53 4 1.0042 7.57808 10.2991 7.40891
212 2 0.153862 1.78876 13.8928 6.37789
274 2 0.171919 9.32786 8.6437 0.738788
71 1 -0.661644 2.77182 13.4347 5.92516
211 2 0.260671 3.58883 13.4174 6.76012
76 1 -0.669892 5.1654 10.0594 2.80416
77 1 -0.68403 7.46034 11.3862 5.879
250 2 0.137781 4.53695 9.19965 0.80281
135 3 -0.795074 4.74214 12.7245 1.65922
136 3 -0.785164 2.98693 11.7348 3.68328
137 3 -0.81608 7.94149 8.73356 6.92633
140 3 -0.789661 4.73893 13.4449 8.05883
226 2 0.126638 6.29557 11.5328 5.8912
164 2 -0.00588754 5.7464 8.40115 3.77768
209 2 0.138224 4.82556 8.67679 5.81585
167 2 0.0205017 3.15966 10.3129 1.28769
168 2 0.0806366 5.936 10.3059 8.00934
227 2 0.159272 7.64596 10.5721 5.08002
42 4 1.27339 2.11785 11.854 5.15034
210 2 0.159663 3.13021 13.9704 4.96213
255 2 0.00747101 7.19062 12.978 7.1549
253 4 0.985873 6.06622 14.1904 7.52094
224 2 0.165111 6.11133 10.7264 2.81653
222 2 0.135519 5.10101 9.10537 2.04898
223 2 0.14882 4.75365 9.9045 3.94469
180 2 0.158485 10.9864 7.50103 4.80766
2 4 1.04517 5.36175 14.0871 1.25732
138 3 -0.795807 8.60949 11.0896 8.35742
22 4 1.50142 9.4736 12.2391 9.37486
54 4 1.20556 4.76104 12.0913 9.39098
55 4 1.26906 7.17579 12.0038 11.4302
75 1 -0.670958 7.18277 8.87783 13.3016
251 2 0.164968 5.92822 11.8159 16.6053
265 2 0.22927 10.9254 9.50829 8.72022
186 2 0.164192 11.757 7.78327 8.61487
141 3 -0.813405 8.51338 12.4165 10.6022
142 3 -0.846513 5.96623 11.9433 10.4277
143 3 -0.82406 6.91416 12.9557 12.7212
169 2 0.00271946 7.40735 10.4465 12.0875
78 1 -0.67167 3.19971 12.2987 10.4375
220 2 0.163359 8.15791 9.23276 13.7301
221 2 0.148037 6.28413 9.50679 13.4517
228 2 0.158784 2.3638 11.9698 9.80367
239 4 1.02922 3.96515 11.4925 15.105
230 2 0.179856 3.36288 11.7231 11.398
242 1 -0.653158 5.3569 10.8156 16.5673
243 3 -0.781108 4.71934 12.5919 14.0573
160 2 0.00689325 6.5533 14.3768 14.7852
139 3 -0.751367 4.43391 10.6656 8.48817
219 2 0.168557 7.34452 8.34828 12.2739
229 2 0.214676 3.12329 13.4382 10.6005
252 2 0.139046 5.68657 10.1329 15.6065
10 2 0.0544739 7.62616 14.8414 16.5093
45 4 1.25987 5.72008 13.6708 13.4606
273 2 0.189413 1.92459 13.5169 9.45039
218 2 0.152597 10.438 9.73336 15.6917
72 1 -0.659775 1.20626 14.323 9.03536
74 1 -0.673831 9.76139 9.46196 16.5519
217 2 0.162706 8.73192 9.90747 16.4526
127 3 -0.80985 4.94045 14.8014 12.6538
ITEM: TIMESTEP
200
ITEM: NUMBER OF ATOMS
274
ITEM: BOX BOUNDS xy xz yz pp pp pp
-7.3914999999999997e+00 1.6478000000000002e+01 -7.3914999999999997e+00
0.0000000000000000e+00 1.5040297200000001e+01 9.9190000000000000e-01
0.0000000000000000e+00 1.6771000000000001e+01 1.0266768000000006e+00
ITEM: ATOMS id type q x y z
106 3 -0.795157 -0.90654 6.88788 4.4006
13 4 1.53384 1.07548 1.95102 5.49529
15 4 1.34496 -0.373997 4.44638 1.74174
198 2 0.180158 1.73956 7.19557 5.45666
17 4 1.32021 -0.740895 4.27444 7.14308
18 4 1.31988 -2.07011 6.77759 5.5351
27 4 1.24388 3.69907 2.79649 3.78765
67 1 -0.683767 1.92342 7.06193 4.37982
30 4 1.21503 6.54251 2.31651 5.36327
33 4 1.40817 4.73388 4.94126 2.29027
34 4 1.02666 0.319669 7.07222 3.37972
56 1 -0.666511 0.852508 3.33854 0.702452
58 1 -0.646413 0.663194 5.53993 7.56584
28 4 1.36122 5.92535 2.56053 0.607537
65 1 -0.706085 6.38978 0.949661 6.70643
98 3 -0.774322 3.67453 1.55566 8.02016
152 2 -0.0127759 6.55365 2.10781 8.29981
80 3 -0.85035 1.53947 0.792712 6.45217
195 2 0.233819 5.32537 1.17537 7.19327
83 3 -0.808193 -1.51193 4.97138 0.699478
85 3 -0.794062 0.121181 3.17416 6.29016
86 3 -0.75602 -1.84808 5.36447 6.3657
96 3 -0.81451 2.3789 2.44788 4.62304
97 3 -0.805905 6.35327 1.21605 1.24485
82 3 -0.769019 -0.930448 3.29092 2.80035
100 3 -0.793915 5.15249 2.53932 4.60549
103 3 -0.807867 3.54831 4.41819 3.23587
200 2 0.256954 2.3533 6.06574 4.0504
105 3 -0.760884 0.380313 5.73106 2.4441
107 3 -0.825336 4.11569 5.91374 1.09056
148 2 0.000709897 3.873 1.70162 2.49286
36 4 1.01486 6.42716 3.75851 7.97045
171 2 0.164563 1.07137 2.38964 1.27671
172 2 0.215997 1.65978 4.13331 0.644011
176 2 0.171033 0.243022 6.59636 7.25067
177 2 0.214499 1.53327 5.16363 6.88319
193 2 0.14542 7.21459 0.638459 7.46203
104 3 -0.847228 5.60282 3.76529 1.52463
208 2 0.182288 4.1544 7.3784 7.5584
79 3 -0.807428 -0.0492607 1.3033 4.40006
174 2 0.173401 -2.84149 7.04391 1.20415
267 2 0.170997 3.9206 1.68231 13.1652
14 4 1.30846 1.64236 2.67319 10.9697
19 4 1.2291 0.906047 4.87912 12.9693
20 4 0.980735 -0.182769 7.40199 11.0472
29 4 1.37163 3.95405 2.78148 9.17544
31 4 1.05358 4.41142 3.29098 15.2271
32 4 1.20759 5.99298 2.55471 11.5277
35 4 1.24897 4.50672 7.66202 16.6078
37 4 1.21145 5.52045 5.14867 12.8418
38 4 1.27872 1.92497 6.95083 14.9941
183 2 0.179894 -0.657582 6.39279 8.94592
61 1 -0.658929 -1.35783 6.77291 9.79616
66 1 -0.653324 4.0662 1.65924 14.2889
16 4 1.3292 -0.767832 6.93546 16.1889
124 3 -0.805862 7.41743 1.94731 11.0687
87 3 -0.825598 1.67412 3.57891 12.204
88 3 -0.783629 0.442413 6.19961 12.0287
99 3 -0.776568 2.46667 3.33154 9.7889
101 3 -0.768193 5.57358 3.10554 16.2591
102 3 -0.865967 4.72904 2.20268 10.5559
178 2 0.192711 0.739902 5.30032 8.70359
110 3 -0.791926 4.90011 4.24194 14.0351
111 3 -0.79768 6.08975 4.1666 11.6357
112 3 -0.81466 1.84491 5.51123 14.3464
113 3 -0.823227 3.01314 7.14451 16.1593
197 2 0.165553 4.92808 0.98701 14.6752
144 2 0.00946124 2.30702 1.17533 11.4614
182 2 0.178134 -0.718276 4.23449 14.8068
149 2 0.0265844 3.05713 4.04397 15.9398
150 2 0.017016 5.62683 1.91606 13.0831
153 2 -0.0237199 4.32681 6.08373 12.1981
81 3 -0.818165 0.106581 2.41687 10.4519
60 1 -0.666295 -0.711856 4.12354 13.6838
114 3 -0.843638 0.580997 7.47255 15.572
185 2 0.17157 -1.87784 5.95762 10.4566
170 2 0.167398 1.33245 4.15658 16.4075
196 2 0.107702 3.02528 1.51614 14.9248
184 2 0.181266 -2.13896 7.57561 9.43024
108 3 -0.741771 4.88972 4.1392 8.40301
21 4 1.25354 -2.59805 9.43437 7.33305
23 4 1.23641 -3.55963 11.8413 5.66572
204 2 0.250422 0.655321 9.72288 8.07568
39 4 1.24008 -0.87959 12.0833 3.9391
199 2 0.121942 2.49446 7.93311 3.91401
238 4 1.01935 0.618677 11.4149 0.364161
194 2 0.179678 -1.06011 14.1288 5.75891
89 3 -0.798511 -2.30727 8.05853 6.44913
91 3 -0.80029 -3.57721 10.3499 6.46018
92 3 -0.876169 -3.92436 13.0582 6.61614
11 4 1.52152 -4.81747 14.158 7.39246
115 3 -0.818129 -0.893931 13.4615 3.13754
116 3 -0.843515 -2.16618 11.9737 4.86919
117 3 -0.801066 0.35619 12.9139 0.743905
118 3 -0.784731 -1.08267 10.3714 7.86636
120 3 -0.825949 0.503048 12.0356 4.71117
173 2 0.171676 -1.79268 8.34227 0.461341
146 2 -0.025081 -4.81292 11.9553 4.59026
151 2 -0.0183429 0.300654 8.5533 2.41887
155 2 -0.0207694 -0.900454 10.8673 2.70962
156 2 0.0453784 -1.47948 13.0942 7.06379
26 4 1.45683 0.00112356 14.1176 1.90589
57 1 -0.659904 -2.53867 7.50472 0.205501
207 2 0.166554 3.21533 7.76884 5.89527
268 2 0.0256003 0.923221 10.4695 2.00029
240 1 -0.650773 -0.46101 9.79146 1.12688
269 2 0.134 -1.36123 9.53598 1.7877
40 4 1.00088 3.21305 9.84097 7.43865
246 2 0.168611 -0.121886 8.90657 0.505214
70 1 -0.658057 3.93745 8.10619 6.78181
206 2 0.147824 1.90147 8.13679 8.33572
262 2 -0.0130246 3.19558 8.23834 0.311652
41 4 0.966092 -1.24464 11.9288 8.36308
121 3 -0.77325 2.59092 10.7813 6.18596
24 4 1.021 -1.83925 9.67173 12.6162
25 4 1.2695 -3.21633 12.0886 10.6912
247 2 0.158048 2.17065 9.82706 14.3311
63 1 -0.640158 -1.20111 10.2782 14.221
64 1 -0.687267 -3.86507 13.6345 11.6274
69 1 -0.652157 1.72468 9.30259 8.48876
241 1 -0.672727 3.26569 10.023 14.0277
93 3 -0.78401 -0.892226 8.56656 11.9526
175 2 0.159529 -2.39902 8.89631 16.3114
95 3 -0.767699 -2.48821 10.8982 11.7625
119 3 -0.821559 -2.03671 12.4123 9.61536
147 2 0.158007 -0.0112755 10.3136 13.7687
190 2 0.0265473 -2.68776 9.00652 14.0169
272 2 0.163478 -0.0614902 14.1852 9.35621
244 3 -0.800094 2.7847 11.909 16.1553
188 2 0.158703 -1.71244 11.3256 14.3192
189 2 0.168866 -1.34474 9.60842 15.237
90 3 -0.825618 -5.70201 13.6937 8.65914
191 2 0.199682 -4.98374 13.5034 11.5321
94 3 -0.766848 -4.52712 11.4972 9.89324
187 2 0.211977 -3.06016 9.47642 9.84317
154 2 -0.00287761 2.50289 8.21371 13.8872
266 2 0.151584 -3.43277 13.3053 12.7075
62 1 -0.670605 -3.52438 8.95183 8.91853
249 2 0.161126 3.48726 10.2363 12.9549
192 2 0.216075 -3.35637 14.6362 11.2028
157 2 0.0074733 0.38396 12.4888 8.57139
145 2 0.00450872 0.918155 8.16232 9.90426
205 2 0.146461 2.03517 9.71938 9.53278
248 2 0.138526 3.99031 9.21551 14.461
245 2 0.0512147 -0.0309082 11.8593 16.5423
228 2 0.153607 2.10511 11.721 9.70435
1 4 1.30491 14.2389 1.79414 3.50227
6 2 0.0881892 11.3805 1.14123 0.704392
3 1 -0.664886 12.6614 2.1124 4.68799
213 2 0.11683 8.84302 0.877973 8.0874
5 3 -0.804051 13.6898 0.770444 2.29862
59 1 -0.64333 11.5542 6.5933 4.85625
7 2 0.14608 12.2126 1.08349 4.51505
8 2 0.173127 12.2585 2.96771 4.047
9 2 0.174605 12.9113 2.35604 5.78037
263 2 0.14679 11.0602 5.70558 5.42101
109 3 -0.746032 6.81071 3.77403 6.45531
43 4 1.19759 9.21326 2.12085 3.20121
47 4 0.992338 9.1401 5.0367 2.47445
48 4 0.914645 6.22205 6.90723 4.4354
256 2 -0.0163246 13.1493 0.737224 6.09674
122 3 -0.787954 8.85778 0.859469 2.28745
123 3 -0.784469 8.109 2.28375 4.36619
128 3 -0.811119 9.5146 3.50542 2.29142
129 3 -0.763827 6.16251 5.80786 3.29718
130 3 -0.771109 9.07532 5.81511 1.22382
158 2 -0.00820504 10.7469 1.88076 3.99138
161 2 -0.0114017 10.2225 5.72996 3.6524
162 2 0.155176 7.64801 5.20156 3.26499
50 4 0.953087 8.3828 7.2595 6.26596
166 2 0.0035635 8.13804 6.11245 7.54049
163 2 0.002228 4.89379 6.90157 5.50495
165 2 -0.00306761 10.0663 6.8782 6.17397
179 2 0.144353 11.9701 6.28934 3.75979
131 3 -0.819291 7.69992 6.76773 4.99206
236 2 0.225733 10.0683 3.71503 0.00653413
44 4 0.98998 8.76479 1.81244 10.1565
49 4 1.19319 9.73868 7.58132 16.2066
46 4 1.26379 11.8774 1.80456 11.5876
237 2 0.172259 12.2189 3.37119 15.9406
51 4 1.26956 6.7917 7.41331 14.4296
261 3 -0.780877 13.4224 6.33831 15.1587
271 2 0.160498 12.6695 1.2656 15.4583
73 1 -0.664176 11.9987 3.47692 12.5324
159 2 -0.0327908 8.85794 3.14016 9.1213
125 3 -0.800092 12.9199 2.32699 10.4079
126 3 -0.732464 10.1466 1.51321 10.9267
270 2 0.15994 13.8248 2.65959 15.683
132 3 -0.79673 6.64324 6.14431 13.423
133 3 -0.745451 8.22707 7.31148 15.5055
68 1 -0.665643 7.77406 4.80139 8.97642
12 4 1.56625 14.2585 2.32758 9.53051
134 3 -0.845284 5.46796 7.62171 15.3506
202 2 0.194632 7.85941 4.44129 10.0885
214 2 0.146503 10.8286 3.61202 12.5307