ITEM: TIMESTEP
0
ITEM: NUMBER OF ATOMS
274
ITEM: BOX BOUNDS xy xz yz pp pp pp
-7.3914999999999997e+00 1.6478000000000002e+01 -7.3914999999999997e+00
0.0000000000000000e+00 1.5100700000000000e+01 9.9190000000000000e-01
0.0000000000000000e+00 1.6771000000000001e+01 1.0307999999999999e+00
ITEM: ATOMS id type q x y z
98 3 -0.811352 3.63625 1.16323 8.22399
13 4 1.56468 1.26244 1.98556 5.47085
15 4 1.24539 0.0116822 4.45019 1.58041
65 1 -0.6783 6.54472 0.565175 6.2686
17 4 1.24224 -0.349052 4.4468 7.37504
18 4 1.22981 -2.0554 6.66959 5.59309
27 4 1.24041 3.81895 2.93906 3.95348
101 3 -0.790658 4.36871 2.16917 0.0159964
30 4 1.34488 6.69008 2.34535 5.51736
33 4 1.45886 4.85564 5.15825 2.23881
177 2 0.24151 1.88674 4.58655 8.16295
56 1 -0.671069 1.47244 3.63173 0.679493
26 4 1.48123 7.52963 0.16356 1.97995
97 3 -0.799523 6.71807 1.42126 1.08609
28 4 1.34613 6.0041 2.6892 0.5801
176 2 0.160894 1.11412 6.25294 7.33342
200 2 0.225427 2.75706 6.67258 3.87793
80 3 -0.838306 1.64489 0.761136 6.43792
82 3 -0.734434 -0.620456 3.27449 2.85363
83 3 -0.805304 -1.14203 4.66418 0.369484
85 3 -0.740892 0.313167 3.09142 6.36857
86 3 -0.75303 -1.36607 5.47266 6.53156
96 3 -0.84664 2.56962 2.65023 4.86711
106 3 -0.753135 -0.824824 7.07741 4.33279
213 2 0.18327 7.76303 0.863027 7.87415
100 3 -0.802846 5.36748 2.66453 4.67487
103 3 -0.796494 3.83024 4.53021 3.38833
58 1 -0.668207 1.02373 5.39338 8.12322
105 3 -0.751592 0.410477 5.93471 2.34349
107 3 -0.831237 3.98679 5.82952 0.983668
148 2 -0.00411493 3.79809 1.83881 2.69423
195 2 0.183335 6.37182 0.598004 7.40612
171 2 0.147902 1.52577 2.57948 1.18352
172 2 0.257349 2.42187 4.19555 0.738042
79 3 -0.818564 0.288253 1.33885 4.32341
36 4 1.04802 5.95293 4.17941 7.86208
261 3 -0.773843 -1.94491 6.44689 15.197
14 4 1.31433 1.35112 2.34592 10.7246
19 4 1.23811 0.734132 4.72499 12.6594
20 4 0.99405 -0.720155 7.26343 10.9715
29 4 1.48971 3.86353 2.42525 9.20679
31 4 1.0671 4.45894 3.03889 15.5436
32 4 1.2061 5.89155 2.60798 11.6069
111 3 -0.794228 5.61434 4.15772 11.7046
37 4 1.21961 5.05566 4.86462 13.1333
38 4 1.2448 2.24635 6.89562 14.6403
60 1 -0.673691 -0.316234 3.82252 13.8841
35 4 1.24902 4.46855 7.53084 16.4511
66 1 -0.639896 4.74358 1.35821 14.6533
184 2 0.175598 -2.05036 7.15329 9.06442
61 1 -0.660867 -1.99451 6.38018 9.96192
87 3 -0.850105 1.20069 3.56087 11.7768
88 3 -0.754755 0.0254659 6.04142 11.8266
99 3 -0.817633 2.24576 2.86562 9.55542
124 3 -0.799522 7.44053 2.37256 10.9655
102 3 -0.818533 4.73513 1.85249 10.6866
16 4 1.31459 -0.600137 6.80829 16.1184
110 3 -0.847989 4.79767 3.80685 14.2241
267 2 0.154572 4.36576 1.12804 13.6449
112 3 -0.797398 2.15343 5.67657 13.6487
113 3 -0.865074 3.32264 6.68159 15.6967
114 3 -0.805727 0.766348 7.16615 15.2842
144 2 -0.00386806 2.23029 1.05861 11.4717
149 2 -0.0151309 2.84963 3.23628 16.1154
108 3 -0.839452 4.62331 3.58875 8.47499
150 2 0.00460401 5.89862 1.84234 13.1132
153 2 0.0728297 3.53908 5.63905 12.7803
170 2 0.1945 1.94514 4.76719 16.3647
182 2 0.178562 0.130438 3.98073 14.879
183 2 0.273709 -1.63838 5.33667 9.6161
178 2 0.183873 0.786395 5.76285 9.14951
197 2 0.157252 5.95666 1.2861 14.6679
21 4 1.2572 -2.95505 9.54885 7.18634
23 4 1.31427 -3.60017 12.0104 5.56269
238 4 0.979304 0.760857 11.5286 0.420886
39 4 1.23383 -1.02285 12.2142 3.85479
40 4 1.05858 2.85672 9.78771 7.48816
207 2 0.171208 3.14042 7.91306 5.67694
246 2 0.146523 -0.508056 8.96241 0.565743
89 3 -0.772019 -2.39907 7.90241 6.50062
91 3 -0.815494 -3.84731 10.5315 6.06388
92 3 -0.877293 -3.81785 13.1622 6.61742
175 2 0.167923 -3.43851 7.14843 0.237165
115 3 -0.816182 -0.946297 13.5738 3.01473
116 3 -0.874448 -2.2897 12.1559 4.75162
117 3 -0.796971 0.609533 13.0063 0.92254
11 4 1.57007 -4.71485 14.1483 7.45137
120 3 -0.793739 0.424946 12.1239 4.65205
121 3 -0.764971 2.33865 10.8348 6.32747
146 2 -0.0230851 -4.79029 12.2088 4.35448
151 2 -0.0208049 -0.0428473 8.71571 2.30986
155 2 -0.0166647 -1.02985 10.9171 2.65938
156 2 0.027299 -0.97962 12.8893 7.32376
208 2 0.15107 3.72604 7.60766 7.52409
199 2 0.101185 2.14635 8.53287 3.70115
240 1 -0.641956 -0.684374 10.0125 0.995902
118 3 -0.855191 -1.94218 10.432 7.9368
268 2 0.00994836 0.678418 10.4133 1.97961
193 2 0.192307 0.0621773 14.0014 5.97529
205 2 0.184048 0.377271 9.63893 8.02484
269 2 0.147308 -1.70273 10.0927 1.41296
194 2 0.240468 -1.74709 14.3347 5.65221
57 1 -0.676728 -2.27457 7.32567 0.310753
70 1 -0.661833 3.73225 8.27168 6.64274
67 1 -0.657811 1.93199 7.41507 4.10671
34 4 1.03241 0.282878 7.26913 3.25696
198 2 0.176623 1.57072 7.42912 5.18231
174 2 0.169986 -1.9931 7.16387 1.37333
262 2 -0.00325879 3.05873 8.16328 0.117068
24 4 0.993818 -2.12233 9.63397 12.8195
25 4 1.2313 -3.22437 11.9628 10.8277
266 2 0.150924 -3.4306 13.2311 12.7798
63 1 -0.650096 -2.92058 9.43991 14.4783
64 1 -0.683036 -3.95511 13.48 11.7251
204 2 0.114781 1.68708 8.24993 8.60851
245 2 0.0433471 0.15043 12.1324 16.3624
93 3 -0.765322 -1.40724 8.34186 11.923
94 3 -0.775974 -4.55084 11.3594 10.0258
95 3 -0.789568 -2.63368 10.91 11.9633
119 3 -0.773236 -1.82443 12.5557 9.64542
147 2 0.0162301 -1.14456 10.2231 14.197
154 2 -0.0125768 2.62862 8.30092 13.641
157 2 -0.00472564 0.343535 11.1133 8.90246
189 2 0.187157 -2.29873 8.94509 15.4008
188 2 0.152948 -3.66392 10.2832 14.8211
272 2 0.114792 1.06192 13.9992 9.57306
206 2 0.144864 1.30496 9.83996 9.75797
191 2 0.184851 -5.09635 13.4492 11.7275
196 2 0.115933 -3.21499 14.8511 15.543
249 2 0.143501 2.20056 10.2949 14.4247
187 2 0.205744 -3.55604 8.92844 9.56822
145 2 5.93941e-05 0.312844 8.03042 9.82848
192 2 0.238864 -3.51336 14.4402 11.3299
69 1 -0.654381 1.23357 9.38946 8.72049
241 1 -0.658276 3.30216 10.1371 14.0366
41 4 1.00091 -1.25856 11.7387 8.5352
90 3 -0.80637 -5.70063 13.3526 8.74091
247 2 0.137178 3.91102 9.18224 14.4923
173 2 0.147181 -0.847242 9.31422 16.5839
1 4 1.33113 14.5132 1.80199 3.42998
6 2 0.0718985 11.6761 1.12654 0.903554
3 1 -0.674503 12.837 2.07613 4.4967
263 2 0.13209 11.388 5.4797 5.74323
5 3 -0.829458 13.9701 0.865243 2.23619
255 2 0.0142159 13.6493 0.70864 5.71673
7 2 0.137989 12.376 1.05879 4.25196
8 2 0.166526 12.4419 2.89886 3.80273
9 2 0.143 12.682 2.33293 5.57194
50 4 0.8834 8.37797 7.25111 6.15882
256 2 -0.0279824 11.3817 0.700673 6.95861
43 4 1.15102 9.31813 2.09411 3.60044
47 4 0.97022 9.07569 4.72999 2.51688
48 4 0.913182 6.25511 7.25272 4.23695
59 1 -0.664096 11.5745 6.14714 4.80256
122 3 -0.746407 8.91685 0.725762 2.71637
123 3 -0.835676 8.08795 2.3028 4.58366
128 3 -0.794094 9.58916 3.25472 2.38319
129 3 -0.78216 5.73275 6.49455 2.93879
130 3 -0.772494 8.69734 5.42137 1.13628
158 2 -0.0268826 10.8773 1.93401 4.32558
161 2 -0.00101141 10.2106 5.74727 3.4348
162 2 0.0447645 7.96258 4.94817 3.6965
179 2 0.147502 12.2546 5.69508 3.91213
166 2 -0.0211697 8.04976 6.20407 7.49121
203 2 0.0616464 5.65278 5.71466 6.7411
235 2 0.203422 11.6976 3.75663 0.29339
165 2 -0.000261352 10.0594 6.91844 5.86166
131 3 -0.823395 7.63954 6.75015 4.81607
68 1 -0.645393 6.22347 6.20205 8.23503
201 2 0.150725 6.77069 7.20772 8.10781
109 3 -0.828977 6.832 3.27282 6.82966
104 3 -0.817019 5.81115 4.03608 1.52047
273 2 0.147118 9.5805 0.991565 8.10409
254 3 -0.827892 13.6113 1.29212 8.31564
163 2 -0.00706624 5.03867 7.27233 5.44399
180 2 0.159751 11.4292 7.27781 4.75516
44 4 1.06735 8.79494 1.98162 10.2804
12 4 1.54331 14.0954 2.20449 9.51349
46 4 1.30483 11.6659 1.71845 11.606
84 3 -0.769266 14.2404 3.7983 8.8247
51 4 1.29911 6.7401 7.38735 14.4742
257 1 -0.656357 7.92532 4.23482 15.8105
258 2 0.278849 7.92178 5.39277 15.6434
73 1 -0.659747 11.6816 3.15479 12.8837
270 2 0.166691 13.9328 2.29974 15.7506
125 3 -0.817646 12.9198 2.14004 10.6315
126 3 -0.835548 10.1959 1.80696 10.9186
259 2 0.185758 7.43904 3.65551 14.8959
132 3 -0.772742 6.20484 5.91783 13.5617
133 3 -0.782895 8.00195 7.11657 15.3499
152 2 0.0671096 7.10732 5.08708 9.10454
202 2 0.167518 5.3941 6.3938 8.95175
4 1 -0.650056 13.6817 1.34422 16.3038
72 1 -0.647127 8.59778 0.975188 8.63843
214 2 0.166191 10.6002 3.41067 13.1652
215 2 0.16272 12.2063 3.95836 12.2235
216 2 0.152797 12.3001 2.8005 13.7362
260 2 0.179224 8.97072 3.83177 16.1052
231 4 0.998763 11.9941 5.80948 15.0586
159 2 0.0236018 9.00409 2.80467 8.68842
233 3 -0.743467 10.7534 6.76834 15.4241
234 2 -0.00455175 11.6994 5.08269 13.4389
49 4 1.20873 9.462 7.28648 16.4945
236 2 0.143042 12.1803 3.53281 15.6053
185 2 0.167312 12.6129 6.35403 10.6984
264 2 0.167345 14.1633 4.446 13.6862
232 1 -0.65005 11.901 4.40986 16.2702
81 3 -0.817509 15.4706 1.71508 10.2384
181 2 0.157564 15.0304 2.72483 13.6154
237 2 0.223221 10.8734 4.21273 16.6739
253 4 0.988473 5.63512 14.4393 7.23358
52 4 1.02578 4.07713 11.5027 2.67735
53 4 1.06071 8.0646 10.2798 6.94976
223 2 0.164443 5.39208 10.3061 4.35754
212 2 0.156173 3.42838 13.976 5.29646
71 1 -0.673379 2.57303 13.6552 5.99129
140 3 -0.757067 5.61312 12.9116 7.60442
76 1 -0.660164 5.57519 10.5052 3.28693
77 1 -0.671936 7.73207 11.4396 5.44389
42 4 1.24667 2.09806 12.0048 5.13308
135 3 -0.788744 4.76493 12.8222 2.00937
136 3 -0.800289 3.20304 11.8359 3.94733
137 3 -0.849362 8.23672 8.76163 6.50537
252 2 0.138364 4.30255 9.03775 1.03566
225 2 0.189454 8.40987 12.3664 5.68191
164 2 0.00135075 6.40119 8.89852 4.04251
224 2 0.177698 6.50046 11.0846 3.03495
167 2 -0.00688077 3.36275 10.5897 1.4229
168 2 0.0752666 6.4346 10.9715 6.81542
274 2 0.173618 9.11766 8.06101 1.33495
209 2 0.157971 4.74009 8.81051 6.50716
210 2 0.183482 2.89612 13.1728 6.9646
227 2 0.147606 8.29803 10.6689 4.69372
2 4 1.04574 5.55499 14.0721 1.42342
226 2 0.187534 6.70221 11.7342 5.12365
222 2 0.109605 5.29223 9.56136 2.51234
138 3 -0.812251 8.83065 11.0019 8.14816
250 2 0.13571 4.69843 10.7335 0.122299
74 1 -0.662667 8.82997 7.9925 0.264558
211 2 0.164753 1.64385 14.3687 6.04693
139 3 -0.741035 4.00193 10.5831 8.24191
186 2 0.155233 11.3211 7.6799 8.24705
242 1 -0.663489 4.28908 9.56028 0.0225026
217 2 0.153251 7.77833 8.45503 0.0850975
22 4 1.54045 9.48648 11.9843 9.35071
54 4 1.23484 4.87219 12.0176 9.05939
55 4 1.29997 6.98369 11.8133 11.2676
75 1 -0.6512 7.28743 8.96988 13.4763
78 1 -0.686939 3.41433 13.0466 9.615
160 2 0.00249802 6.58952 14.4838 14.5709
10 2 0.0730232 7.51727 14.5315 16.3504
141 3 -0.800708 8.3913 12.0025 10.5609
142 3 -0.867652 5.85563 11.6821 10.1748
143 3 -0.838817 6.87214 12.8257 12.5082
169 2 0.0120203 6.95139 10.2296 12.0295
134 3 -0.855163 5.57802 7.9927 15.3262
220 2 0.176744 8.33138 9.27021 13.729
221 2 0.158141 6.47736 9.7521 13.7765
230 2 0.183883 3.09759 14.0183 9.15778
239 4 1.0967 4.10021 11.5011 15.2271
248 2 0.161529 3.552 10.4903 12.9395
62 1 -0.648703 11.431 8.80429 8.54646
243 3 -0.807017 4.90931 12.4471 14.2552
271 2 0.165579 5.37812 14.8598 15.8541
190 2 0.167598 11.8202 8.51425 13.9847
251 2 0.184757 5.9039 10.064 16.0048
228 2 0.204869 3.706 13.2014 10.7025
229 2 0.150026 2.55369 12.2539 9.46018
219 2 0.133808 7.04889 8.41733 12.4343
218 2 0.169896 10.5828 9.44183 16.3149
265 2 0.224481 10.4408 9.33381 8.41159
45 4 1.22362 5.72174 13.5134 13.3489
244 3 -0.794481 2.96699 12.0755 16.131
127 3 -0.787881 4.63501 14.4383 12.5847
ITEM: TIMESTEP
100
ITEM: NUMBER OF ATOMS
274
ITEM: BOX BOUNDS xy xz yz pp pp pp
-7.3914999999999997e+00 1.6478000000000002e+01 -7.3914999999999997e+00
0.0000000000000000e+00 1.5070498600000001e+01 9.9190000000000000e-01
0.0000000000000000e+00 1.6771000000000001e+01 1.0287383999999999e+00
ITEM: ATOMS id type q x y z
98 3 -0.818956 4.00857 1.13563 7.98211
13 4 1.56395 1.2621 2.12456 5.63048
15 4 1.36323 -0.0572606 4.45169 1.61391
65 1 -0.678619 6.52128 0.511897 6.25523
17 4 1.23487 -0.483025 4.32463 7.38632
18 4 1.2474 -2.03735 6.84239 5.42777
27 4 1.2417 3.94601 3.02975 4.0633
26 4 1.48626 7.60416 0.137447 1.95721
30 4 1.30111 6.76155 2.28396 5.53941
33 4 1.49214 4.91999 5.19184 2.27271
177 2 0.193001 1.59378 5.29986 7.51696
56 1 -0.655103 1.4872 3.56344 0.733788
104 3 -0.813088 5.82666 3.89113 1.71871
97 3 -0.805448 6.89755 1.40234 1.2698
28 4 1.34456 5.92751 2.59937 0.679358
176 2 0.165424 0.236405 6.44907 8.18712
200 2 0.243648 2.62438 6.52268 3.79672
80 3 -0.835754 1.5757 0.910484 6.64345
82 3 -0.809354 -0.467674 3.27858 2.72231
83 3 -0.79002 -1.20031 4.71209 0.573248
85 3 -0.802143 0.411999 3.25646 6.54543
86 3 -0.720013 -1.47961 5.36131 6.528
96 3 -0.830638 2.60176 2.73811 4.89887
106 3 -0.757426 -0.98752 7.01522 4.30672
213 2 0.172728 7.74923 0.793623 7.82715
100 3 -0.819838 5.411 2.7141 4.78851
103 3 -0.778663 3.83871 4.62302 3.43794
58 1 -0.658855 0.733348 5.41803 8.27992
105 3 -0.797967 0.484168 5.88053 2.16362
107 3 -0.830689 4.11981 5.85453 0.975456
148 2 -0.00939387 3.7474 1.9926 2.78942
195 2 0.215589 6.13852 0.809489 7.33049
171 2 0.153419 1.50353 2.4861 1.12822
172 2 0.23327 2.47946 4.16271 0.885118
79 3 -0.840238 0.257122 1.57569 4.53741
36 4 1.04632 5.93658 4.3643 7.75409
34 4 0.973471 0.364073 7.17902 3.01743
178 2 0.228537 0.919811 5.10487 9.31263
14 4 1.30612 1.38786 2.29397 10.6886
19 4 1.19492 0.773017 4.79299 12.6784
20 4 1.04536 -0.774738 7.29105 11.0554
29 4 1.48482 3.86674 2.46991 8.97046
31 4 1.02616 4.52267 2.92505 15.5291
32 4 1.21233 5.73972 2.63624 11.5881
111 3 -0.80977 5.5738 4.20254 11.7804
37 4 1.20261 5.21356 4.98042 13.141
38 4 1.25141 2.14667 6.89119 14.6214
60 1 -0.671496 -0.579431 4.33156 13.847
35 4 1.28041 4.44851 7.51652 16.4306
66 1 -0.679832 4.70315 1.22206 14.7255
184 2 0.167975 -2.17766 7.16603 9.10355
61 1 -0.663342 -2.06896 6.46528 10.0073
87 3 -0.827899 1.18979 3.49119 11.8227
88 3 -0.76946 0.0125633 6.1205 11.8192
99 3 -0.839618 2.38883 2.77087 9.57826
124 3 -0.760533 7.33046 2.27104 11.008
102 3 -0.799328 4.7572 1.93996 10.5448
16 4 1.29022 -0.582878 6.8762 15.9865
110 3 -0.821984 4.93757 3.95506 14.3115
267 2 0.134694 4.14269 1.28234 13.7357
112 3 -0.813466 2.19347 5.62268 13.7238
113 3 -0.873282 3.1869 6.88257 15.8323
114 3 -0.846609 0.646527 7.2365 15.0754
144 2 0.0117026 2.26973 1.0373 11.4282
149 2 -0.0165048 2.91716 3.23373 16.1821
108 3 -0.820679 4.56522 3.78963 8.42682
150 2 0.00726893 5.62345 1.89081 13.0896
153 2 0.0788523 3.63373 5.64918 12.8624
170 2 0.18276 2.02356 4.7109 16.4947
182 2 0.192616 -0.287352 4.52923 14.8551
183 2 0.275932 -1.89736 5.38102 9.64607
101 3 -0.813707 5.53266 3.10218 16.7112
264 2 0.198756 -1.41464 5.06273 13.4365
21 4 1.2867 -3.15351 9.43487 7.15766
23 4 1.29902 -3.66644 11.847 5.49626
238 4 0.964894 0.46962 11.4546 0.374581
39 4 1.22936 -0.920116 12.237 3.83604
40 4 1.05527 2.73988 9.93336 7.51744
207 2 0.186652 3.1477 8.23778 5.58545
246 2 0.157588 -0.517578 9.02156 0.400656
89 3 -0.791965 -2.44187 8.09934 6.34797
91 3 -0.79714 -3.97907 10.4256 6.02369
92 3 -0.810223 -4.00016 12.8567 6.66726
42 4 1.28191 1.906 11.9714 5.24545
115 3 -0.791122 -1.00539 13.6259 3.10544
116 3 -0.84825 -2.27364 12.0003 4.699
117 3 -0.82125 0.489924 12.9319 0.971148
11 4 1.51244 -4.6718 14.2031 7.52709
120 3 -0.832114 0.536549 12.1499 4.61255
121 3 -0.816746 2.10374 10.7975 6.3447
146 2 -0.0238356 -4.87014 12.0805 4.35195
151 2 -0.0226335 0.192153 8.52012 1.91626
155 2 -0.0106529 -0.951694 10.9802 2.60469
156 2 0.0211041 -0.804016 12.8624 7.30557
208 2 0.151555 3.73726 7.72308 7.32335
199 2 0.118874 2.25834 8.40696 3.39956
240 1 -0.643593 -0.832403 9.91265 0.998454
118 3 -0.80507 -1.97451 10.3812 7.90251
268 2 0.0147577 0.664547 10.438 1.87888
193 2 0.17334 0.17106 14.0093 6.208
205 2 0.184745 0.175853 9.59219 8.19028
269 2 0.146051 -1.64413 9.6939 1.76432
194 2 0.229843 -1.69313 14.253 5.52461
174 2 0.157801 -1.81102 7.56038 1.09296
70 1 -0.653313 3.68365 8.50638 6.5498
67 1 -0.671051 1.96495 7.42631 3.98632
262 2 -0.0164199 3.13299 8.1253 0.0922151
198 2 0.18419 1.57633 7.52581 5.02726
24 4 1.01767 -2.16571 9.76801 12.5705
25 4 1.28039 -3.13196 12.0248 10.6235
266 2 0.160538 -3.47472 13.3567 12.616
63 1 -0.6655 -3.06785 9.40121 14.1834
64 1 -0.692916 -3.83897 13.6018 11.5694
204 2 0.113563 1.72639 8.23359 8.42867
245 2 0.0455472 -0.309304 12.0584 16.6051
93 3 -0.803028 -1.37169 8.47901 11.8609
94 3 -0.760324 -4.60374 11.3278 9.69987
95 3 -0.834533 -2.69431 11.0054 11.7256
119 3 -0.793112 -1.89518 12.4157 9.55638
147 2 0.00892333 -1.33868 10.3083 14.0054
154 2 -0.00408991 2.52936 8.23152 13.6195
157 2 -0.0226655 0.410154 11.2427 8.8264
189 2 0.169624 -2.30825 9.14053 15.0804
188 2 0.158961 -3.8233 10.2059 14.4139
272 2 0.133061 0.939722 13.9639 9.3596
206 2 0.153022 1.26117 9.88517 9.73816
191 2 0.190741 -4.9605 13.3825 11.4954
196 2 0.120155 -3.32541 14.7156 15.5072
249 2 0.144285 2.1333 9.82157 14.3896
197 2 0.176198 -1.6354 14.9515 14.7569
145 2 0.0158367 0.102977 7.98198 9.7178
192 2 0.2576 -3.37384 14.5485 11.0478
69 1 -0.64018 1.14307 9.3635 8.73937
241 1 -0.66952 3.19972 10.0893 13.9645
41 4 0.99387 -1.18021 11.6321 8.4171
90 3 -0.794199 -5.41368 13.6017 8.87475
247 2 0.137845 4.0276 9.25691 14.1252
173 2 0.150653 -0.875075 9.37556 16.1249
244 3 -0.767933 2.62852 11.9298 16.0089
248 2 0.182182 3.20785 10.5338 12.9543
175 2 0.174876 -2.38673 8.3922 16.6537
57 1 -0.658323 -1.22205 8.50343 16.7633
1 4 1.33298 14.653 1.94792 3.44026
6 2 0.0409888 11.7461 1.27978 0.947207
3 1 -0.675059 12.9419 2.06566 4.48586
263 2 0.151246 11.4734 5.49021 5.49764
5 3 -0.7922 14.0319 0.82543 2.29334
255 2 0.0157213 13.5862 0.567651 5.63525
7 2 0.134636 12.3898 1.08448 4.53656
8 2 0.163215 12.4869 2.83462 3.81095
9 2 0.168395 13.4637 2.52286 5.46205
50 4 0.874796 8.49445 7.14203 6.20701
256 2 -0.0302615 11.3318 0.645861 6.73861
43 4 1.19327 9.42704 1.95745 3.59736
47 4 0.994599 9.09597 4.7601 2.71567
48 4 0.911122 6.29504 7.24686 4.24038
59 1 -0.668499 11.6903 6.27666 4.75106
122 3 -0.768776 9.02589 0.610602 2.76064
123 3 -0.810783 8.2294 2.26964 4.76116
128 3 -0.832575 9.56296 3.2734 2.70312
129 3 -0.81522 5.74445 6.26999 3.0768
130 3 -0.813565 8.85749 5.43137 1.29573
158 2 -0.0236281 10.931 1.8311 4.39766
161 2 -0.00420213 10.3787 5.62408 3.42199
162 2 0.0766828 7.7833 5.00352 3.75242
179 2 0.163357 12.1924 5.93328 3.7599
166 2 -0.0104408 8.16691 6.20232 7.62747
203 2 0.0591688 5.56559 5.8428 6.61019
2 4 1.0415 12.8649 0.110288 1.50481
165 2 -0.0146028 10.062 6.72398 5.84504
131 3 -0.827064 7.58525 6.6721 4.9702
68 1 -0.647996 6.30531 6.36318 8.1061
201 2 0.162417 6.85688 7.31795 7.96084
109 3 -0.792778 6.85469 3.38376 6.91904
237 2 0.232815 10.5128 3.50262 0.521544
273 2 0.14433 9.61059 0.871632 8.28929
254 3 -0.840848 13.5067 1.23055 8.18439
211 2 0.178206 8.92229 0.387523 6.12696
44 4 1.05788 8.72789 1.93395 10.2808
12 4 1.53837 14.0227 2.13024 9.43839
46 4 1.29332 11.8308 1.73436 11.6998
84 3 -0.756209 14.0315 3.72313 8.9959
51 4 1.23806 6.85696 7.32518 14.4745
257 1 -0.644864 7.84261 4.1312 15.8443
258 2 0.272847 7.97934 5.31657 15.8532
73 1 -0.672381 11.9658 3.27332 12.8577
270 2 0.152907 14.3947 2.27095 16.0396
125 3 -0.814336 12.8199 2.04017 10.4985
126 3 -0.767134 10.1026 1.94192 11.004
259 2 0.207414 7.25062 3.74952 14.9023
132 3 -0.779116 6.42514 6.16943 13.4489
133 3 -0.749527 8.25516 7.01341 15.7704
152 2 0.0780748 7.03693 5.27931 9.11466
271 2 0.15885 12.8232 1.2116 15.8675
4 1 -0.679164 13.8119 1.35184 16.3495
72 1 -0.656141 8.52267 0.904182 8.722
214 2 0.167206 10.8178 3.44596 12.8491
215 2 0.174761 12.6197 4.04151 12.3505
216 2 0.138247 12.3868 2.83327 13.8645
260 2 0.186394 8.81096 3.58217 16.0369
231 4 1.01856 12.0004 5.67777 15.1151
159 2 0.0355809 8.83357 2.83223 8.74982
233 3 -0.766188 10.8611 6.683 15.5866
234 2 -0.00658743 11.7453 5.16377 13.4571
49 4 1.29063 9.6763 7.18521 16.6792
236 2 0.150455 11.49 3.32277 15.7432
185 2 0.148078 12.4801 6.61467 10.725
235 2 0.178858 13.1029 3.98267 16.3434
232 1 -0.658757 11.9741 4.17904 16.2857
81 3 -0.809242 15.4959 1.73555 10.1647
181 2 0.148186 14.7118 3.20325 13.647
261 3 -0.775238 13.526 6.30334 15.2932
134 3 -0.8498 5.54877 7.74343 15.3096
202 2 0.159642 5.30224 6.57112 8.64261
186 2 0.148001 11.4105 7.51836 8.40877
253 4 0.991666 5.56297 14.3175 7.1797
52 4 1.04181 4.07577 11.517 2.65688
53 4 1.04403 8.17925 10.2897 7.02135
223 2 0.150423 5.33622 10.1318 4.46142
212 2 0.13324 3.17316 13.8703 5.25371
71 1 -0.677165 2.32862 13.6282 6.12488
140 3 -0.793129 5.65582 12.8051 7.53473
76 1 -0.672561 5.40852 10.3444 3.34388
77 1 -0.657633 7.68987 11.4857 5.57787
180 2 0.15475 11.3293 7.47064 4.89161
135 3 -0.788989 4.73756 12.8997 2.06577
136 3 -0.75237 3.04748 11.7146 3.77707
137 3 -0.826194 8.40073 8.70138 6.54719
252 2 0.126451 4.54103 9.43635 0.990016
225 2 0.205023 7.97832 12.5053 6.11643
164 2 -0.0044693 6.69646 8.80829 3.66239
224 2 0.160448 6.32451 10.9842 3.01668
167 2 0.00816273 3.21957 10.6664 1.40645
168 2 0.04718 6.49688 10.7294 6.89779
274 2 0.16228 8.87193 8.25286 1.35574
209 2 0.14173 4.68655 9.08995 6.31704
210 2 0.150437 2.72865 13.3087 7.1459
227 2 0.149063 8.5089 10.9947 4.86917
163 2 -0.0115031 5.0543 7.81013 5.26285
226 2 0.175927 6.62913 11.4943 5.12148
222 2 0.117774 5.16426 9.44831 2.65109
138 3 -0.832771 8.93272 11.1052 8.11909
265 2 0.215972 10.1599 8.90076 8.29129
74 1 -0.658113 8.92802 8.03992 0.261384
22 4 1.54009 9.5473 12.0076 9.31749
54 4 1.21343 4.82057 11.954 8.88346
55 4 1.29753 7.11296 11.836 11.3281
75 1 -0.667712 7.47724 8.67597 13.2711
78 1 -0.663498 3.59288 13.1999 9.63382
160 2 -0.0106923 6.3379 14.5258 14.5545
10 2 0.115695 7.13493 14.4097 16.3022
141 3 -0.816805 8.58829 12.1051 10.662
142 3 -0.776408 5.98841 11.7152 10.2464
143 3 -0.834619 6.71978 12.7706 12.4571
169 2 0.00881996 7.32718 10.2499 12.0439
127 3 -0.810953 4.71664 14.4699 12.5205
220 2 0.148872 8.52715 8.94412 13.7416
221 2 0.148902 6.62648 9.41162 13.4273
230 2 0.200554 3.88673 14.3441 9.55526
239 4 1.07421 3.89085 11.3766 15.216
45 4 1.22055 5.61203 13.5066 13.3992
62 1 -0.67629 11.2092 8.65936 8.46652
243 3 -0.774889 4.70498 12.4658 14.287
139 3 -0.79636 3.87362 10.7236 8.5061
190 2 0.179152 11.8708 8.43837 13.7938
251 2 0.160382 5.60839 9.93611 16.025
228 2 0.207139 3.46115 12.8613 10.6818
229 2 0.145901 2.657 12.9693 9.02375
219 2 0.174423 7.59674 8.16457 12.267
218 2 0.171885 10.9414 9.24317 16.6172
242 1 -0.670469 5.26489 10.7872 16.6645
217 2 0.152916 9.08755 9.60052 16.4229
187 2 0.214578 11.4592 9.04448 9.48771
250 2 0.14787 5.83426 11.8429 16.4023
ITEM: TIMESTEP
200
ITEM: NUMBER OF ATOMS
274
ITEM: BOX BOUNDS xy xz yz pp pp pp
-7.3914999999999997e+00 1.6478000000000002e+01 -7.3914999999999997e+00
0.0000000000000000e+00 1.5040297200000001e+01 9.9190000000000000e-01
0.0000000000000000e+00 1.6771000000000001e+01 1.0266768000000006e+00
ITEM: ATOMS id type q x y z
98 3 -0.826147 3.9145 1.23608 8.07008
13 4 1.56177 1.22271 2.21445 5.78603
15 4 1.31733 -0.0738691 4.35948 1.54993
65 1 -0.672364 6.61963 0.665799 6.50598
17 4 1.29974 -0.578151 4.45726 7.36159
18 4 1.32488 -1.94509 6.67054 5.51962
27 4 1.27182 3.93044 2.95794 4.15716
198 2 0.188145 1.73511 7.21056 5.2512
30 4 1.31225 6.80712 2.39981 5.65567
33 4 1.4713 4.94397 5.06956 2.33308
177 2 0.219605 1.58691 5.39996 7.75759
56 1 -0.672565 1.23292 3.50202 0.411518
104 3 -0.824045 5.79125 3.88687 1.63739
97 3 -0.799917 6.98148 1.45816 1.34385
28 4 1.3361 6.11653 2.54975 0.697938
176 2 0.165315 0.124572 6.63337 7.87304
200 2 0.239673 2.49495 6.53996 3.60761
80 3 -0.850061 1.67652 1.00279 6.68948
82 3 -0.803156 -0.762542 3.35777 2.65176
83 3 -0.797085 -1.05792 4.9262 0.42509
85 3 -0.809824 0.37843 3.36879 6.54076
86 3 -0.818725 -1.53996 5.48375 6.40099
96 3 -0.801174 2.61085 2.7666 5.14052
106 3 -0.770005 -0.880286 7.0607 4.23768
213 2 0.17546 7.88835 0.859408 8.08588
100 3 -0.823067 5.31328 2.7064 4.79653
103 3 -0.788252 3.8661 4.49367 3.42474
58 1 -0.676674 0.62562 5.64269 8.21339
105 3 -0.726103 0.578391 5.7811 2.36673
107 3 -0.761337 4.04028 5.91061 1.03225
148 2 0.00231675 3.94175 1.76352 3.01299
195 2 0.186372 6.2505 1.17984 7.54085
171 2 0.150516 1.13218 2.45199 0.828712
172 2 0.212834 2.2477 4.01885 0.745997
79 3 -0.788402 0.198888 1.51236 4.51914
36 4 1.04317 5.94594 4.47811 7.64329
34 4 1.0112 0.291974 7.20694 3.14306
108 3 -0.771703 4.61336 3.98051 8.19544
101 3 -0.78407 4.54415 1.89418 0.0438896
178 2 0.212688 0.708132 5.52887 9.32396
14 4 1.27769 1.36588 2.36297 10.5603
19 4 1.20532 0.858269 4.91817 12.5371
20 4 1.01425 -0.643005 7.28162 10.8662
29 4 1.48066 3.84553 2.52368 9.06276
31 4 1.0456 4.69785 2.91769 15.5157
32 4 1.26662 5.75289 2.67286 11.4762
111 3 -0.815835 5.61519 4.22313 11.8124
37 4 1.22159 5.33944 5.01382 13.1924
38 4 1.23395 2.0826 6.88491 14.6583
60 1 -0.657017 -0.460529 4.19583 13.6235
35 4 1.25678 4.37078 7.60837 16.3845
66 1 -0.687328 4.52596 1.26321 14.5741
184 2 0.176462 -1.95562 7.04264 8.88913
61 1 -0.658238 -1.97534 6.42179 9.84373
87 3 -0.805408 1.19932 3.61153 11.6936
88 3 -0.801092 0.133677 6.09413 11.6609
99 3 -0.783174 2.25457 2.96599 9.33007
124 3 -0.830722 7.22605 2.18751 11.1286
102 3 -0.887147 4.58019 2.32237 10.4463
16 4 1.34006 -0.627397 6.93154 15.962
110 3 -0.817679 5.13021 3.98845 14.3958
267 2 0.143193 3.89138 1.42555 13.6528
112 3 -0.824926 2.35646 5.64411 13.7387
113 3 -0.872357 3.04927 7.02437 15.9129
114 3 -0.837839 0.539298 7.34127 14.9795
144 2 -0.00485001 2.19196 1.00518 11.2741
149 2 -0.00020702 3.05809 3.14532 16.0462
197 2 0.160279 5.58646 0.986675 14.3442
150 2 0.00710321 5.54663 1.71494 12.9353
153 2 0.0818134 3.78711 5.826 13.014
170 2 0.202761 1.96512 4.69571 16.1346
182 2 0.1681 0.00461178 4.43756 14.6609
183 2 0.253686 -1.77026 5.31957 9.63802
81 3 -0.844725 -0.00155882 1.89177 10.0296
261 3 -0.797927 -1.85512 6.19225 15.2494
21 4 1.3033 -2.95213 9.35525 7.01177
23 4 1.27395 -3.88315 11.8581 5.40425
238 4 1.00731 0.367848 11.388 0.36142
39 4 1.25537 -1.09691 12.2449 3.98454
40 4 1.11661 2.81693 10.0103 7.52061
207 2 0.170984 3.05291 8.15009 5.64803
246 2 0.161478 -0.732057 9.04583 0.450798
89 3 -0.817763 -2.28911 7.95777 6.36959
91 3 -0.796793 -3.89659 10.3192 5.96327
92 3 -0.843279 -4.06605 13.0638 6.42199
42 4 1.28499 1.83552 11.8561 5.21085
115 3 -0.828378 -0.8936 13.6365 3.2821
116 3 -0.836545 -2.45222 12.0824 4.78033
117 3 -0.821434 0.446303 12.8111 1.05672
11 4 1.58746 -4.64321 14.1942 7.42262
120 3 -0.80677 0.214008 11.8982 4.8691
121 3 -0.81223 1.99564 10.8024 6.48281
146 2 -0.0415817 -5.03224 11.9638 4.21874
151 2 -0.0208108 0.127139 8.62247 2.09263
155 2 -0.00760804 -1.05706 11.0555 2.72447
156 2 0.0450715 -1.01889 12.8145 7.03497
208 2 0.165839 4.15433 7.78677 7.18404
199 2 0.120851 2.08345 8.4756 3.84725
240 1 -0.655358 -0.911199 9.95013 1.09988
118 3 -0.826099 -1.86804 10.3657 7.72114
268 2 0.0368597 0.533624 10.3607 1.9951
193 2 0.160018 0.151135 14.0498 6.58279
194 2 0.231516 -1.64519 14.2719 5.89172
269 2 0.149865 -1.79189 9.78214 1.74227
41 4 1.03122 -1.13152 11.5975 8.22954
174 2 0.161508 -2.02836 7.73737 1.00592
70 1 -0.66119 3.75404 8.55699 6.55044
67 1 -0.654833 1.87927 7.34596 4.14876
26 4 1.41686 0.229455 14.0699 2.12039
205 2 0.196116 0.23281 9.66638 7.99465
24 4 1.0193 -2.07994 9.74042 12.5254
25 4 1.29917 -3.23239 11.8892 10.5675
266 2 0.170689 -3.49568 13.267 12.4892
63 1 -0.657657 -3.10063 9.52632 14.0941
64 1 -0.705771 -3.93532 13.4977 11.4825
248 2 0.162904 3.212 10.4001 12.8351
245 2 0.0313819 -0.436084 12.1919 16.6844
93 3 -0.786546 -1.31074 8.46892 11.6956
94 3 -0.763257 -4.51854 11.2448 9.90134
95 3 -0.80785 -2.64971 10.9556 11.7034
119 3 -0.774949 -1.77613 12.2068 9.47504
147 2 0.0102845 -1.24513 10.1059 14.0014
154 2 0.00354906 2.61598 8.22295 13.5784
157 2 0.0059505 0.548565 11.3702 8.55927
189 2 0.162034 -2.49165 9.24351 15.1
188 2 0.161695 -3.82403 10.3796 14.3383
272 2 0.131791 0.816291 13.8434 9.82318
206 2 0.160802 1.26526 9.9483 9.63735
191 2 0.209663 -5.04138 13.4289 11.3292
196 2 0.138765 -3.38508 14.6757 15.3739
249 2 0.162532 2.10493 9.77314 14.225
57 1 -0.675008 -1.35789 8.60505 16.7057
145 2 0.00826626 0.283648 7.95837 9.59921
192 2 0.201739 -3.48311 14.3438 10.9808
69 1 -0.620247 1.18715 9.47096 8.64364
241 1 -0.669774 3.12313 10.0726 13.9636
244 3 -0.773602 2.46608 11.9452 16.0787
90 3 -0.805114 -5.36946 13.3914 8.68836
175 2 0.185231 -2.42075 8.36138 16.6729
173 2 0.143468 -1.10907 9.52913 16.0368
247 2 0.142344 4.01733 9.30437 14.2668
187 2 0.203708 -3.58659 8.94094 9.31435
204 2 0.111659 1.81704 8.28881 8.42226
262 2 0.0048629 3.82868 9.31189 16.6445
1 4 1.28906 14.5337 1.98437 3.48224
6 2 0.0543287 11.8409 1.17603 0.881989
3 1 -0.683159 12.8231 1.91029 4.50917
263 2 0.142649 11.512 5.4596 5.26709
5 3 -0.768403 14.1868 0.795639 2.28434
255 2 0.0157388 13.6388 0.386479 5.52487
7 2 0.146181 12.4095 0.881854 4.14401
8 2 0.166099 12.382 2.83052 3.97016
9 2 0.145551 12.8695 2.04261 5.6454
50 4 0.913511 8.50762 7.16724 6.19607
256 2 -0.0236752 11.3329 0.632607 6.5253
43 4 1.22469 9.31261 1.95712 3.66362
47 4 0.979091 8.99547 4.78369 2.95777
48 4 0.936542 6.27156 7.22181 4.22501
59 1 -0.660805 11.7086 6.3787 4.64494
122 3 -0.766857 9.19538 0.619177 2.80733
123 3 -0.8429 8.18775 2.19511 4.83076
128 3 -0.822534 9.6031 3.33695 2.84919
129 3 -0.822947 5.80625 6.16845 3.18386
130 3 -0.735368 8.90446 5.56643 1.54358
158 2 -0.000823024 10.8114 1.85538 4.49844
161 2 2.75574e-05 10.0074 5.58705 4.02294
162 2 0.0610165 7.54917 4.85025 3.85354
179 2 0.171605 12.3493 6.21375 3.64357
166 2 -0.0147816 8.16382 6.18475 7.53176
203 2 0.0466807 5.70184 6.06823 6.60514
254 3 -0.784942 13.4809 1.14164 8.10562
165 2 -0.0201454 10.0813 6.64825 5.80554
131 3 -0.846643 7.6009 6.82368 4.9907
68 1 -0.658262 6.35164 6.3222 8.24009
201 2 0.164216 6.99491 7.20587 8.13102
109 3 -0.832527 7.03018 3.48292 6.82552
237 2 0.232907 10.6144 3.37115 0.505914
44 4 1.05019 8.63147 1.9229 10.4069
12 4 1.52641 14.0795 2.17774 9.37254
46 4 1.25971 11.725 1.81917 11.7607
84 3 -0.788456 14.0065 3.64857 8.66367
51 4 1.27898 6.84653 7.28059 14.6036
257 1 -0.654948 8.06548 4.15317 15.9684
258 2 0.27068 8.13156 5.33432 15.8775
73 1 -0.664356 12.1067 3.29709 12.877
270 2 0.158875 14.3746 2.24752 15.7849
125 3 -0.768532 12.8859 2.12034 10.5573
126 3 -0.775897 10.0269 1.92047 11.1438
202 2 0.174539 5.49224 6.60832 8.86756
132 3 -0.794156 6.57986 5.98171 13.6695
133 3 -0.756773 8.23934 7.11668 15.7595
152 2 0.07317 7.16773 5.13827 9.0955
271 2 0.144865 12.8597 1.12672 15.9821
4 1 -0.650573 13.9759 1.3387 16.3198
72 1 -0.66833 8.58813 0.727353 8.94852