ITEM: TIMESTEP
0
ITEM: NUMBER OF ATOMS
274
ITEM: BOX BOUNDS xy xz yz pp pp pp
-7.3914999999999997e+00 1.6478000000000002e+01 -7.3914999999999997e+00
0.0000000000000000e+00 1.5100700000000000e+01 9.9190000000000000e-01
0.0000000000000000e+00 1.6771000000000001e+01 1.0307999999999999e+00
ITEM: ATOMS id type q x y z
152 2 -0.0171804 6.92348 2.07705 8.13607
13 4 1.54623 0.981615 1.91377 5.48796
15 4 1.41635 -0.422444 4.22608 1.62045
198 2 0.191837 1.47859 6.54873 5.22746
17 4 1.34403 -0.364765 4.30966 7.14866
18 4 1.29108 -2.06645 6.64675 5.40586
27 4 1.28611 3.60723 2.83176 3.80777
67 1 -0.662573 1.84943 6.61948 4.18336
30 4 1.28317 6.44414 2.4051 5.33656
33 4 1.44377 4.74686 5.02388 2.26147
34 4 1.04781 0.232764 6.90422 3.23503
56 1 -0.660136 1.03965 3.33811 0.641629
58 1 -0.663353 0.907156 5.74056 7.42892
28 4 1.22378 6.00785 2.36573 0.523487
65 1 -0.715575 6.56865 0.887592 6.57342
98 3 -0.847093 3.6432 1.3491 7.78401
174 2 0.158115 -2.67609 6.69965 1.30488
80 3 -0.846034 1.29725 0.7231 6.51938
195 2 0.223412 5.43392 0.963466 6.95344
83 3 -0.794268 -1.34067 4.47655 0.347377
85 3 -0.825885 0.329096 3.23713 6.2848
86 3 -0.769823 -1.66181 5.36062 6.28111
96 3 -0.83084 2.33842 2.40273 4.61932
97 3 -0.800112 6.39917 1.05446 1.41118
82 3 -0.817093 -0.911899 3.21276 2.66032
100 3 -0.797503 5.02822 2.57508 4.66301
103 3 -0.831091 3.58811 4.40466 3.2984
200 2 0.289294 2.50536 5.7294 3.789
105 3 -0.797375 0.0157691 5.55722 2.36095
107 3 -0.836168 4.06319 6.26138 1.44507
148 2 -0.00541316 3.77839 1.86036 2.52039
208 2 0.153918 4.3111 7.42184 7.126
171 2 0.148889 1.23463 2.27143 0.912527
172 2 0.221525 1.86395 4.04712 0.916781
176 2 0.177785 0.406147 6.70415 7.239
177 2 0.203082 1.80554 5.4786 6.7749
193 2 0.141953 7.39822 0.628006 7.37506
104 3 -0.795117 5.35972 3.82427 1.43427
108 3 -0.722788 4.85109 3.95257 8.22626
106 3 -0.787113 -0.930886 7.0572 4.30036
79 3 -0.833273 -0.238765 1.39625 4.4918
36 4 1.00369 6.47302 3.71009 7.92091
267 2 0.161386 4.02335 1.53139 12.9382
14 4 1.25409 1.67595 2.55654 10.7128
19 4 1.26958 1.21557 4.94821 12.8407
20 4 0.992441 -0.227092 7.44014 11.062
29 4 1.38046 3.87675 2.55413 8.87554
31 4 1.06755 4.52207 3.22407 15.0024
32 4 1.18994 6.04077 2.63447 11.3049
35 4 1.2374 4.54787 7.63795 16.7059
37 4 1.2169 5.39236 5.15607 12.6644
38 4 1.20526 2.1837 7.03196 15.0162
183 2 0.184837 -0.479705 6.39247 8.78827
61 1 -0.635397 -1.19552 6.72054 9.65439
66 1 -0.660026 4.29623 1.54682 14.0604
16 4 1.26863 -0.65464 6.88486 16.0614
261 3 -0.780732 -1.82312 6.39298 15.0155
87 3 -0.805524 1.77742 3.6842 11.9587
88 3 -0.771656 0.371989 6.09126 11.8252
99 3 -0.827477 2.44575 3.01945 9.3791
101 3 -0.763409 5.70027 3.11832 16.024
102 3 -0.833394 4.91595 1.99638 10.3703
178 2 0.188565 1.03508 5.46165 8.6099
110 3 -0.799623 4.83589 4.14093 13.7634
111 3 -0.793447 5.95793 4.27034 11.408
112 3 -0.823872 2.09671 5.69317 14.0221
113 3 -0.820783 3.23375 6.85853 16.26
184 2 0.176568 -2.04641 7.47952 9.27369
144 2 0.010405 2.60102 1.2165 11.3696
182 2 0.205947 -0.0146386 4.4517 15.0371
149 2 0.0163259 3.11403 3.89206 15.84
150 2 0.0135187 5.85724 1.94592 12.8598
153 2 -0.0125478 4.05642 6.01873 12.0094
81 3 -0.782301 0.171733 1.95618 10.4688
60 1 -0.659931 -0.0870474 4.17929 13.941
114 3 -0.825303 0.829275 7.53066 15.648
185 2 0.199347 -1.65747 5.79816 10.2424
170 2 0.188596 1.69139 4.49584 16.3014
84 3 -0.812576 -0.792922 3.74052 8.55196
181 2 0.16584 0.0251145 3.08423 13.8776
196 2 0.107761 3.31354 1.28953 14.712
264 2 0.189329 -1.06544 4.54411 13.4861
197 2 0.170118 5.10079 0.878361 14.2769
21 4 1.26446 -2.56125 9.47692 7.21112
23 4 1.25745 -3.59432 11.9369 5.71358
204 2 0.246239 0.544432 9.67509 8.19651
39 4 1.28938 -0.837863 12.0647 4.13031
199 2 0.112149 2.30266 7.7215 3.97969
238 4 1.00973 0.56436 11.277 0.609816
194 2 0.220689 -0.730017 14.1836 5.67888
89 3 -0.761519 -2.29652 8.09694 6.28378
91 3 -0.793068 -3.57992 10.4651 6.65608
92 3 -0.865588 -3.96502 13.1082 6.55593
11 4 1.56153 -4.8392 14.2089 7.38709
115 3 -0.801024 -0.628582 13.5331 3.56677
116 3 -0.856663 -2.1835 11.9793 4.85461
117 3 -0.840024 0.47559 12.6738 1.35365
118 3 -0.774764 -1.10095 10.4663 7.93053
120 3 -0.822134 0.475324 11.7769 4.98268
173 2 0.164319 -1.75458 8.20646 0.534529
146 2 -0.0287047 -4.85214 11.83 4.61035
151 2 -0.00979753 0.307482 8.42451 2.31127
155 2 -0.00192655 -0.971506 10.8918 2.84653
156 2 0.0262007 -1.38386 13.2105 7.41522
26 4 1.43796 0.161547 14.0578 2.15828
57 1 -0.667311 -2.49144 7.28572 0.284047
207 2 0.176131 3.10006 7.67769 5.61517
268 2 0.0267075 0.970808 10.1585 2.03405
240 1 -0.646654 -0.653045 9.74527 1.28049
269 2 0.143527 -1.50356 9.52651 2.04712
40 4 1.01236 3.1849 9.65198 7.44213
246 2 0.157617 -0.44387 8.87426 0.556871
70 1 -0.666113 3.81783 8.15007 6.33698
206 2 0.140737 1.75884 8.00137 8.1835
262 2 -0.0119041 3.1686 8.23704 0.228314
24 4 1.04106 -2.00066 9.56365 12.6538
25 4 1.24266 -3.23972 11.8696 10.7513
247 2 0.152559 2.19792 10.0319 14.1647
63 1 -0.654312 -1.11692 9.97659 14.2647
64 1 -0.669723 -3.78512 13.5498 11.4469
69 1 -0.642298 1.65076 9.18684 8.47634
241 1 -0.68206 3.28689 10.2386 13.9086
93 3 -0.811097 -1.17509 8.49322 11.7762
175 2 0.18232 -2.39258 8.68283 16.5852
95 3 -0.779088 -2.62648 10.8824 12.1161
119 3 -0.812542 -2.04904 12.2191 9.76546
147 2 0.160518 -0.0594582 9.80073 13.8333
190 2 0.0388964 -2.83986 9.00354 14.0489
272 2 0.154143 0.199792 14.2531 9.2472
244 3 -0.788642 2.649 11.9431 16.2638
188 2 0.172235 -1.3189 11.0906 14.3101
189 2 0.17496 -1.2707 9.38642 15.3349
90 3 -0.826351 -5.46946 13.2892 8.60126
191 2 0.209005 -4.93208 13.5366 11.5034
94 3 -0.758683 -4.7946 11.2331 10.0542
187 2 0.187356 -2.8085 9.14263 9.50759
154 2 -0.0212165 2.7052 8.33097 14.0011
266 2 0.154996 -3.31913 13.2783 12.5393
62 1 -0.652667 -3.50537 8.73567 8.71022
41 4 0.957134 -1.10224 11.972 8.48406
192 2 0.225667 -3.22252 14.5269 11.056
157 2 0.00116253 0.485943 12.5415 8.69106
145 2 0.00349352 0.710193 7.90879 9.69939
205 2 0.141587 1.9474 9.41876 9.54206
248 2 0.117695 4.03818 9.41439 14.2392
245 2 0.0410154 -0.13083 11.8277 16.7056
1 4 1.33806 14.108 1.922 3.53065
6 2 0.0491443 11.5056 1.32902 0.576539
3 1 -0.679834 12.4603 2.33555 4.61478
213 2 0.124909 9.02999 0.759457 7.91592
5 3 -0.788747 13.5788 0.947877 2.31331
59 1 -0.670201 11.7027 6.36842 4.50955
7 2 0.140891 11.8955 1.35678 4.80586
8 2 0.150078 12.056 3.05616 3.78079
9 2 0.173179 12.8557 2.9211 5.49719
263 2 0.13147 11.4159 5.44997 5.17183
109 3 -0.748142 6.69319 3.92079 6.39343
43 4 1.19356 9.06489 2.18566 3.37442
47 4 0.975924 8.93552 5.00484 2.47783
48 4 0.943084 6.05516 6.95623 4.24769
256 2 -0.0185867 12.7287 1.01919 6.0896
122 3 -0.789631 9.00484 0.758048 2.64468
123 3 -0.821172 7.83548 2.33645 4.44967
128 3 -0.831776 9.23142 3.51366 2.38665
129 3 -0.79448 6.13994 5.83852 3.18413
130 3 -0.806253 8.74809 5.63417 1.0169
158 2 -0.0098585 10.5438 2.16537 4.23242
161 2 -0.030303 10.2081 5.71658 3.43359
162 2 0.127182 7.66287 5.35146 3.56577
50 4 0.936067 8.24479 7.39438 6.25728
166 2 0.0146806 7.7421 6.18552 7.36551
163 2 0.0172041 4.79268 6.71882 5.39436
201 2 0.126935 8.75189 5.01283 8.2871
179 2 0.157747 11.9619 6.09992 3.4563
236 2 0.209417 10.6722 3.84025 0.267569
2 4 0.991875 12.7593 0.22757 1.20072
131 3 -0.827617 7.4572 7.1197 4.96078
165 2 -0.0284275 9.87533 7.08502 6.04463
180 2 0.156315 11.0457 7.29217 4.61673
44 4 0.964921 8.98927 1.95047 9.8597
49 4 1.26091 9.62482 7.33501 16.3325
46 4 1.28463 11.7285 2.03597 11.5603
237 2 0.17961 12.559 3.4923 16.022
51 4 1.26329 6.94306 7.41348 14.4981
254 3 -0.810345 14.095 1.10906 8.42716
271 2 0.142227 12.9081 1.62124 15.381
73 1 -0.663583 11.3702 3.50621 12.6995
159 2 -0.0269544 9.14404 3.41137 8.88146
125 3 -0.743861 12.9476 2.55526 10.4576
126 3 -0.793415 10.3348 1.82504 10.7349
270 2 0.180525 14.3757 2.7463 15.7063
132 3 -0.764034 6.46579 6.20069 13.331
133 3 -0.792898 8.34209 7.23694 15.37
68 1 -0.667036 7.78874 4.87887 8.90768
12 4 1.49688 14.3762 2.30837 9.43772
134 3 -0.817057 5.61002 7.58058 15.5451
202 2 0.216358 7.90617 4.50212 9.94288
214 2 0.179424 10.3115 3.84079 12.457
215 2 0.149189 12.3522 4.12405 12.2879
216 2 0.160803 11.5405 3.12448 13.7346
4 1 -0.657262 13.7834 1.86713 16.0592
231 4 1.03119 12.0804 5.86653 14.9412
232 1 -0.668399 11.778 4.34511 15.9805
233 3 -0.760549 11.1295 7.00975 15.3083
234 2 0.00662875 11.6993 5.34074 13.3464
235 2 0.154756 10.7735 3.94372 15.5193
258 2 0.18503 8.0398 3.7025 15.2496
259 2 0.179203 9.30866 3.24639 16.7412
257 1 -0.672003 8.47773 3.96031 16.3207
203 2 0.170334 7.02007 5.76006 8.95402
124 3 -0.783939 7.55734 2.24233 10.7013
127 3 -0.765143 12.3054 0.827983 12.5977
260 2 0.246243 8.58648 4.99993 16.6357
225 2 0.170462 8.27552 12.1981 6.05367
52 4 1.0602 3.86497 11.602 2.46068
53 4 1.01014 7.56873 10.3427 7.43995
212 2 0.180702 1.41509 14.122 6.00258
274 2 0.160728 9.21075 8.38346 0.949193
71 1 -0.675901 2.44575 13.6162 5.87538
211 2 0.210126 3.01733 13.4588 6.82084
76 1 -0.661966 5.09408 10.2458 2.79427
77 1 -0.647205 7.44836 11.3008 5.85471
250 2 0.134077 4.53423 9.36361 0.787628
135 3 -0.765696 4.57987 12.8868 1.85591
136 3 -0.788659 2.93866 11.5265 3.74777
137 3 -0.79025 8.00023 8.74622 6.92081
140 3 -0.792659 4.86513 13.3243 8.22755
226 2 0.109843 6.27055 11.6692 6.06343
164 2 -0.00105004 5.73582 8.5298 3.53677
209 2 0.128463 4.66729 8.70109 5.79709
167 2 0.0342059 3.29766 10.58 1.10301
168 2 0.099143 5.86542 10.2517 8.01363
227 2 0.164952 7.71994 10.7088 4.86229
42 4 1.27883 2.06621 11.8564 5.22041
210 2 0.165144 3.02257 14.0128 4.94887
255 2 0.00786802 7.12208 13.2129 6.64229
253 4 0.975537 5.99968 14.1971 7.43591
224 2 0.159565 6.07618 10.8832 2.5963
222 2 0.12247 4.90236 9.24329 2.09062
223 2 0.166455 4.87709 10.0548 3.91886
121 3 -0.75943 2.67025 10.8597 6.41365
217 2 0.166147 7.60941 8.52361 0.0219935
22 4 1.50617 9.41401 12.1061 9.48865
54 4 1.20448 4.71528 12.1187 9.38109
55 4 1.24387 7.1155 12.1487 11.4619
75 1 -0.682356 7.15898 9.09244 13.5998
251 2 0.161722 6.07487 11.6589 16.2168
265 2 0.243971 10.9722 9.27466 8.73499
186 2 0.162609 11.9305 7.58243 8.61639
141 3 -0.789019 8.63367 12.6379 10.8439
142 3 -0.821288 5.92023 12.1201 10.4109
143 3 -0.816755 6.70703 13.0341 12.7267
169 2 -0.00915825 7.22699 10.5904 12.1336
78 1 -0.658906 3.421 12.5726 10.6521
220 2 0.165918 8.15152 9.48472 14.0248
221 2 0.150442 6.29499 9.70648 13.8772
138 3 -0.815958 8.44889 11.1512 8.47311
239 4 1.05183 3.89813 11.5766 15.1496
230 2 0.1878 3.81533 12.121 11.6503
242 1 -0.649009 5.31442 10.8141 16.4352
243 3 -0.81797 4.69217 12.7584 14.3499
249 2 0.155575 3.52078 10.6052 12.8632
139 3 -0.742008 4.4639 10.3164 8.59616
219 2 0.156119 7.12887 8.74753 12.5279
229 2 0.236687 3.32878 13.6916 10.7372
252 2 0.126952 5.42197 9.9433 15.5597
10 2 0.0517445 7.36463 14.6881 16.376
45 4 1.25575 5.61698 13.7394 13.5629
273 2 0.185556 2.1191 13.6538 9.53906
218 2 0.156188 10.2186 9.53321 15.7584
72 1 -0.662871 1.30997 14.3303 8.93061
74 1 -0.639601 9.6731 9.18153 16.7311
228 2 0.135028 2.53783 11.9421 10.2552
160 2 0.0132679 6.5811 14.4818 14.7527
ITEM: TIMESTEP
100
ITEM: NUMBER OF ATOMS
274
ITEM: BOX BOUNDS xy xz yz pp pp pp
-7.3914999999999997e+00 1.6449860200000000e+01 -7.3914999999999997e+00
0.0000000000000000e+00 1.5100700000000000e+01 9.6376019999999940e-01
0.0000000000000000e+00 1.6771000000000001e+01 1.0307999999999999e+00
ITEM: ATOMS id type q x y z
106 3 -0.745192 -1.02869 6.95847 4.31585
13 4 1.51107 0.989858 1.92441 5.39686
15 4 1.29084 -0.235061 4.27006 1.64235
198 2 0.191427 1.58984 6.63633 5.2049
17 4 1.34675 -0.547415 4.35539 7.10848
18 4 1.22295 -2.15452 6.70606 5.56421
27 4 1.3328 3.76777 2.76597 3.9103
67 1 -0.662253 1.90084 6.80844 4.16907
30 4 1.37363 6.60827 2.44935 5.24554
33 4 1.46353 4.79133 5.01402 2.28794
34 4 0.962424 0.307248 7.02011 3.23792
56 1 -0.667624 1.14537 3.33466 0.660592
58 1 -0.658237 0.854777 5.61924 7.63859
28 4 1.36913 5.81445 2.44625 0.446893
65 1 -0.687846 6.50009 0.925821 6.67072
98 3 -0.854005 3.72645 1.31732 7.93457
174 2 0.171474 -3.15378 6.81123 1.11753
80 3 -0.84406 1.48822 0.857332 6.46587
195 2 0.254685 5.40889 1.04411 7.09619
83 3 -0.765978 -1.54463 4.68378 0.548527
85 3 -0.787618 0.288783 3.29638 6.19403
86 3 -0.756829 -1.75406 5.20191 6.33231
96 3 -0.819822 2.37723 2.38047 4.59233
97 3 -0.794033 6.42685 1.21747 1.25816
82 3 -0.78128 -0.892011 3.38282 2.8956
100 3 -0.850307 5.12343 2.46836 4.62536
103 3 -0.782975 3.62331 4.29563 3.45996
200 2 0.279282 2.52568 5.90784 3.73892
105 3 -0.734134 0.458348 5.67182 2.12276
107 3 -0.816866 3.938 6.08879 1.34982
148 2 -0.00860755 3.64352 1.84653 2.55285
36 4 1.03094 6.3938 3.66282 7.97145
171 2 0.135817 1.35758 2.28178 1.1419
172 2 0.236406 2.0476 4.03241 0.745149
176 2 0.161919 0.429125 6.62954 7.35451
177 2 0.212429 1.76522 5.22926 7.08137
193 2 0.137186 7.28646 0.635963 7.4948
104 3 -0.834264 5.38231 3.81395 1.32811
108 3 -0.753305 4.84346 3.9712 8.33508
267 2 0.153969 3.91243 1.79313 13.1706
14 4 1.23448 1.67873 2.59979 10.893
19 4 1.27173 1.13396 4.96901 13.0351
20 4 1.0081 -0.215507 7.41537 10.9945
29 4 1.38173 3.77568 2.62699 8.99242
31 4 1.06673 4.54246 3.33624 15.0964
32 4 1.21579 5.91184 2.53656 11.3132
35 4 1.25252 4.51926 7.69609 16.6844
37 4 1.24553 5.50608 5.17552 12.6701
38 4 1.25005 2.06136 7.03794 14.9794
183 2 0.193567 -0.689007 6.35151 8.84765
61 1 -0.638035 -1.37361 6.68864 9.71038
66 1 -0.653526 4.27016 1.6293 14.2303
16 4 1.25669 -0.814604 6.91065 16.2351
124 3 -0.813285 7.39485 2.02521 10.7873
87 3 -0.806685 1.68154 3.63592 12.2506
88 3 -0.749884 0.57265 6.31195 11.8798
99 3 -0.819917 2.44334 3.25624 9.63798
101 3 -0.825474 5.66868 3.13887 16.1966
102 3 -0.851725 4.79547 1.97383 10.3482
178 2 0.198841 0.935422 5.44448 8.81267
110 3 -0.803249 5.00212 4.25333 13.8756
111 3 -0.819586 6.00441 4.14187 11.5367
112 3 -0.84657 2.00172 5.72559 14.14
113 3 -0.820099 3.20787 6.93234 16.1633
184 2 0.180519 -2.25327 7.43711 9.35756
144 2 0.0108615 2.53623 1.10427 11.2413
182 2 0.189589 -0.392416 4.44621 14.8937
149 2 0.022553 3.06768 3.98025 15.7402
150 2 0.012094 5.67704 1.83007 12.8473
153 2 -0.01439 4.17937 5.98832 12.0252
81 3 -0.800722 0.186596 2.24805 10.3262
60 1 -0.65406 -0.354465 4.10792 13.7676
114 3 -0.803947 0.581668 7.41504 15.4385
185 2 0.171859 -1.78396 5.79853 10.4382
170 2 0.159339 1.52492 4.3556 16.3651
84 3 -0.784308 -1.12987 3.86708 8.54619
181 2 0.174087 -0.178567 3.00698 13.5861
196 2 0.119607 3.39455 1.35257 14.9249
152 2 0.0204317 6.53469 1.99635 8.4184
21 4 1.25654 -2.58876 9.51867 7.34641
23 4 1.2607 -3.59765 11.8904 5.69286
204 2 0.26417 0.436333 9.67876 8.12589
39 4 1.24081 -0.796702 12.0396 4.09445
199 2 0.118861 2.38881 7.8504 3.85168
238 4 0.972418 0.623839 11.2792 0.521418
194 2 0.187507 -0.816965 14.2908 5.73429
89 3 -0.772499 -2.28177 8.08587 6.60476
91 3 -0.791862 -3.61528 10.3948 6.4492
92 3 -0.824955 -3.86412 13.1372 6.6184
11 4 1.54649 -4.78446 14.3367 7.4881
115 3 -0.840045 -0.815999 13.387 3.28552
116 3 -0.81808 -2.23395 11.9384 4.95156
117 3 -0.785692 0.469868 12.8092 1.04541
118 3 -0.79105 -1.099 10.4766 7.94436
120 3 -0.829743 0.477717 11.8434 4.99627
173 2 0.150131 -1.82278 8.30563 0.557612
146 2 -0.026384 -4.69976 11.8361 4.47555
151 2 -0.0134066 0.478663 8.54867 2.39689
155 2 -0.00801162 -0.737851 10.7442 2.92788
156 2 0.0434141 -1.35164 13.0615 7.1111
26 4 1.43439 0.0333405 14.1066 2.0621
57 1 -0.665922 -2.64576 7.36849 0.22878
207 2 0.175573 3.23257 7.76464 5.57796
268 2 0.0194222 0.804366 10.3688 2.15063
240 1 -0.650985 -0.597743 9.70616 1.26201
269 2 0.148532 -1.55497 9.6194 1.82254
40 4 0.999375 3.09928 9.71942 7.44652
246 2 0.151172 -0.406182 8.73031 0.672011
70 1 -0.645762 3.93134 8.2846 6.34628
206 2 0.124118 1.757 8.10489 8.35814
262 2 -0.0122833 3.07349 8.33178 0.103392
208 2 0.131159 4.12997 7.6487 7.35494
121 3 -0.748493 2.56642 10.7035 6.23843
41 4 0.973166 -1.10139 11.993 8.38106
24 4 1.01387 -1.88951 9.65106 12.6103
25 4 1.31435 -3.24998 11.948 10.6978
247 2 0.153599 2.21291 10.0619 14.2149
63 1 -0.641746 -0.922098 9.99116 14.1851
64 1 -0.680182 -3.70556 13.6126 11.5989
69 1 -0.644336 1.59873 9.32799 8.46418
241 1 -0.673414 3.30273 10.0747 13.9584
93 3 -0.790211 -1.02308 8.51394 11.8179
175 2 0.168655 -2.49046 8.74968 16.2987
95 3 -0.788982 -2.81938 10.7336 11.8988
119 3 -0.813581 -2.0585 12.2438 9.64919
147 2 0.170144 0.144015 9.7079 13.7351
190 2 0.0290965 -2.63408 8.96111 14.0269
272 2 0.150547 0.0383111 14.1825 9.19839
244 3 -0.777699 2.77929 11.914 16.2147
188 2 0.144616 -1.10334 11.1408 14.1868
189 2 0.172002 -1.18726 9.41256 15.2995
90 3 -0.836459 -5.50721 13.7013 8.81302
191 2 0.192135 -4.82026 13.559 11.7162
94 3 -0.798439 -4.62376 11.5849 9.98601
187 2 0.199051 -2.98306 9.10796 9.80138
154 2 -0.00563393 2.59315 8.24891 13.9197
266 2 0.14454 -3.09581 13.3694 12.5874
62 1 -0.662421 -3.56884 8.88651 8.85534
197 2 0.15504 -2.26695 14.8694 14.2631
192 2 0.239034 -3.21462 14.4955 11.0749
157 2 -0.00235066 0.460037 12.5155 8.88451
145 2 0.0030956 0.978657 8.13597 9.92795
205 2 0.143957 1.98924 9.81321 9.46397
248 2 0.116053 4.0228 9.25626 14.4923
245 2 0.0419952 -0.0356401 11.8484 16.7072
249 2 0.157899 3.4638 10.2525 12.835
1 4 1.29487 14.1471 1.92548 3.5204
6 2 0.0683425 11.4598 1.146 0.609583
3 1 -0.660582 12.4693 2.11205 4.73822
213 2 0.120065 8.99008 0.821298 8.04377
5 3 -0.795413 13.505 0.895858 2.35523
59 1 -0.652472 11.6184 6.50621 4.71077
7 2 0.163265 12.0288 1.14722 4.47592
8 2 0.168452 12.1391 3.00002 4.05597
9 2 0.166551 12.4993 2.38885 5.82638
263 2 0.133746 11.2862 5.60405 5.48575
109 3 -0.802653 6.84974 3.57179 6.42762
43 4 1.20466 9.05659 2.21077 3.36818
47 4 0.939741 9.06787 5.00342 2.45103
48 4 0.947913 6.21062 6.86378 4.36441
256 2 0.0148112 13.2284 0.759857 5.94896
122 3 -0.789307 8.83161 0.880672 2.52638
123 3 -0.892281 7.82907 2.43888 4.32006
128 3 -0.805175 9.54532 3.51333 2.35176
129 3 -0.842037 5.81124 5.76938 3.24039
130 3 -0.747316 8.95389 5.83723 1.06461
158 2 -0.00940378 10.5607 1.99931 4.24248
161 2 -0.00395197 10.111 5.8226 3.55225
162 2 0.0797745 7.59691 4.99786 3.24498
50 4 0.909537 8.3053 7.3687 6.34527
166 2 0.00394918 7.9327 6.17096 7.45039
163 2 0.0136807 5.08025 6.82821 5.6718
165 2 -0.0197113 9.91723 7.13394 6.2115
179 2 0.176095 12.0549 6.22324 3.68148
236 2 0.237053 10.6131 3.77202 0.0878783
79 3 -0.819234 15.2141 1.22622 4.48065
131 3 -0.836548 7.62027 6.89338 4.97126
254 3 -0.818083 14.1523 1.20119 8.35033
259 2 0.212138 8.26452 2.27024 0.00875051
44 4 1.01036 8.81695 1.84905 10.0808
49 4 1.18676 9.61843 7.61681 16.2672
46 4 1.27791 11.8276 1.83246 11.604
237 2 0.177174 12.6455 3.44215 15.9325
51 4 1.28323 6.79702 7.38047 14.4647
261 3 -0.75482 13.5006 6.3288 14.9662
271 2 0.143989 12.812 1.12951 15.7527
73 1 -0.653753 11.4544 3.46111 12.5102
159 2 -0.0222935 8.84858 3.2514 9.07771
125 3 -0.792692 13.0534 2.19817 10.4575
126 3 -0.762856 10.2054 1.67672 10.8747
270 2 0.167458 14.009 2.61895 15.5361
132 3 -0.813044 6.47492 6.26452 13.247
133 3 -0.758056 8.16983 7.23813 15.4113
68 1 -0.665598 7.68244 4.83128 8.92323
12 4 1.53413 14.3182 2.38167 9.46923
134 3 -0.840225 5.65089 7.75338 15.6022
202 2 0.195959 7.66316 4.24243 9.89621
214 2 0.172859 10.2591 3.56216 12.5409
215 2 0.151078 12.0491 4.2434 11.9305
216 2 0.155061 11.9395 3.17132 13.5299
4 1 -0.650927 13.7117 1.70917 16.1511
231 4 1.04684 12.0118 5.91406 14.8004
232 1 -0.638257 11.829 4.31907 15.8185
233 3 -0.756668 10.9882 6.93689 15.3761
234 2 -0.00629916 11.5976 5.28001 13.1808
235 2 0.15379 10.8389 3.96432 15.3014
258 2 0.18735 8.21198 3.3914 15.1694
201 2 0.13443 8.7403 5.29513 8.77335
257 1 -0.651579 8.41929 3.83347 16.1884
203 2 0.163774 6.92004 5.71021 8.98624
260 2 0.227151 8.37475 4.93291 16.2251
264 2 0.174107 14.1627 4.4877 13.2503
225 2 0.186576 8.03986 12.2762 5.67044
52 4 1.00528 3.9709 11.4287 2.3981
53 4 1.0042 7.57808 10.2991 7.40891
212 2 0.153864 1.78878 13.8929 6.37791
274 2 0.171942 9.32699 8.64462 0.738805
71 1 -0.661636 2.77182 13.4347 5.92516
211 2 0.260671 3.58883 13.4174 6.76011
76 1 -0.669909 5.1653 10.0596 2.80417
77 1 -0.684017 7.46035 11.3862 5.879
250 2 0.137786 4.537 9.19958 0.802797
135 3 -0.793955 4.74278 12.7264 1.65892
136 3 -0.785082 2.98698 11.7347 3.68324
137 3 -0.816082 7.94149 8.73356 6.92633
140 3 -0.789677 4.73893 13.4449 8.05883
226 2 0.126652 6.29558 11.5328 5.89119
164 2 -0.00589195 5.74625 8.40117 3.77763
209 2 0.13823 4.82557 8.67679 5.81585
167 2 0.0205299 3.15997 10.313 1.28781
168 2 0.0806387 5.93601 10.3059 8.00934
227 2 0.159289 7.64596 10.5721 5.08001
42 4 1.27336 2.11785 11.854 5.15032
210 2 0.159645 3.1302 13.9704 4.96212
255 2 0.0074724 7.19062 12.978 7.1549
253 4 0.985852 6.06622 14.1904 7.52093
224 2 0.165156 6.11133 10.7264 2.81654
222 2 0.135535 5.10083 9.10553 2.04904
223 2 0.148867 4.75354 9.90471 3.94461
180 2 0.158488 10.9865 7.50104 4.80769
2 4 1.04519 5.36081 14.0927 1.25798
138 3 -0.795803 8.60949 11.0896 8.35742
22 4 1.50141 9.4736 12.2391 9.37486
54 4 1.20548 4.76104 12.0913 9.39097
55 4 1.26898 7.17578 12.0038 11.4302
75 1 -0.670966 7.18277 8.87783 13.3016
251 2 0.165048 5.92839 11.8159 16.6055
265 2 0.229276 10.9254 9.50829 8.72023
186 2 0.164188 11.757 7.78327 8.61487
141 3 -0.81339 8.51338 12.4165 10.6022
142 3 -0.846571 5.96623 11.9433 10.4277
143 3 -0.824028 6.91409 12.9557 12.7212
169 2 0.00273462 7.40734 10.4465 12.0875
78 1 -0.671731 3.19971 12.2987 10.4375
220 2 0.16336 8.15791 9.23276 13.7301
221 2 0.148046 6.28412 9.50679 13.4517
228 2 0.158796 2.36382 11.9698 9.80366
239 4 1.0292 3.96524 11.4925 15.105
230 2 0.179782 3.36287 11.7231 11.398
242 1 -0.653114 5.35698 10.8156 16.5674
243 3 -0.781195 4.71935 12.592 14.0572
160 2 0.00705643 6.55306 14.3759 14.7852
139 3 -0.751353 4.43391 10.6656 8.48816
219 2 0.168552 7.34453 8.34827 12.2739
229 2 0.214534 3.12325 13.4382 10.6005
252 2 0.139057 5.68666 10.133 15.6064
10 2 0.0549699 7.62643 14.8454 16.5085
45 4 1.25915 5.71996 13.6711 13.4605
273 2 0.18941 1.92458 13.5169 9.45037
218 2 0.152623 10.4374 9.73367 15.6919
72 1 -0.659774 1.20625 14.323 9.03536
74 1 -0.673749 9.76095 9.46195 16.5519
217 2 0.162657 8.73053 9.90692 16.4523
127 3 -0.810119 4.94083 14.8061 12.6543
ITEM: TIMESTEP
200
ITEM: NUMBER OF ATOMS
274
ITEM: BOX BOUNDS xy xz yz pp pp pp
-7.3914999999999997e+00 1.6421720400000002e+01 -7.3914999999999997e+00
0.0000000000000000e+00 1.5100700000000000e+01 9.3562040000000124e-01
0.0000000000000000e+00 1.6771000000000001e+01 1.0307999999999999e+00
ITEM: ATOMS id type q x y z
106 3 -0.794326 -0.907267 6.88806 4.40113
13 4 1.53495 1.07328 1.94687 5.49553
15 4 1.34391 -0.364794 4.44124 1.73995
198 2 0.180019 1.73458 7.19513 5.45683
17 4 1.31952 -0.742218 4.26835 7.14454
18 4 1.31771 -2.07054 6.77815 5.53679
27 4 1.24386 3.6973 2.79618 3.78972
67 1 -0.68302 1.92064 7.06311 4.37935
30 4 1.21213 6.54173 2.30308 5.36675
33 4 1.40512 4.74208 4.93524 2.29433
34 4 1.02544 0.320298 7.07278 3.37833
56 1 -0.666744 0.866737 3.34484 0.69465
58 1 -0.647308 0.659225 5.53488 7.56914
28 4 1.35521 5.94783 2.54964 0.617446
65 1 -0.708217 6.40096 0.927681 6.7086
98 3 -0.777461 3.66713 1.53037 8.02728
174 2 0.175948 -2.80028 7.02869 1.17976
80 3 -0.848718 1.53581 0.791232 6.45608
195 2 0.233769 5.33756 1.12623 7.166
83 3 -0.809233 -1.4941 4.96024 0.697761
85 3 -0.792882 0.127076 3.16101 6.29344
86 3 -0.755369 -1.84806 5.36495 6.36741
96 3 -0.814505 2.38222 2.44399 4.62679
97 3 -0.808977 6.35813 1.20623 1.25691
82 3 -0.766462 -0.930001 3.27721 2.79629
100 3 -0.793173 5.1523 2.52468 4.61082
103 3 -0.809025 3.54915 4.41445 3.23659
200 2 0.256499 2.34679 6.06254 4.04641
105 3 -0.761477 0.382148 5.73245 2.44601
107 3 -0.825219 4.13258 5.92232 1.09813
148 2 0.00135478 3.87157 1.70307 2.49452
36 4 1.01386 6.42416 3.74212 7.96786
171 2 0.163644 1.08175 2.38622 1.25249
172 2 0.215619 1.68308 4.13028 0.656242
176 2 0.170939 0.237995 6.59069 7.2499
177 2 0.214484 1.53185 5.15849 6.88968
193 2 0.145481 7.21553 0.591689 7.47916
104 3 -0.845469 5.61513 3.7559 1.53243
208 2 0.181815 4.15071 7.38353 7.5618
79 3 -0.807406 -0.054605 1.29297 4.40064
152 2 -0.0118857 6.56271 2.09967 8.31687
267 2 0.172328 3.89992 1.73712 13.1588
14 4 1.30975 1.64197 2.66801 10.9684
19 4 1.22996 0.907836 4.87489 12.9675
20 4 0.979922 -0.182859 7.40377 11.0475
29 4 1.37739 3.94838 2.75882 9.17612
31 4 1.05485 4.39525 3.29264 15.2258
32 4 1.2071 5.99242 2.54856 11.5254
35 4 1.24806 4.49708 7.66311 16.6132
37 4 1.21115 5.51767 5.14669 12.8421
38 4 1.27726 1.91546 6.95157 14.9906
183 2 0.178829 -0.655076 6.39178 8.94338
61 1 -0.658491 -1.35782 6.77582 9.79578
66 1 -0.650827 4.05445 1.66214 14.2772
16 4 1.32466 -0.779277 6.93497 16.1883
124 3 -0.809102 7.4134 1.94878 11.0574
87 3 -0.827618 1.67622 3.57213 12.2041
88 3 -0.783236 0.443431 6.19871 12.0261
99 3 -0.778101 2.46707 3.31712 9.78279
101 3 -0.766292 5.54885 3.10646 16.2575
102 3 -0.866636 4.72565 2.18854 10.5541
178 2 0.192379 0.733941 5.29735 8.70305
110 3 -0.79182 4.88285 4.24377 14.0316
111 3 -0.796644 6.08138 4.16254 11.6333
112 3 -0.814917 1.83477 5.51036 14.3378
113 3 -0.823007 3.00785 7.14012 16.1513
197 2 0.164527 4.91006 0.960879 14.6236
144 2 0.0121068 2.31401 1.1482 11.4795
182 2 0.17914 -0.715664 4.23147 14.8006
149 2 0.0278469 3.04724 4.05466 15.9422
150 2 0.0153509 5.62462 1.90511 13.0746
153 2 -0.0236041 4.33752 6.08998 12.198
81 3 -0.816063 0.117741 2.39107 10.4407
60 1 -0.666766 -0.712281 4.1214 13.6785
114 3 -0.842023 0.571863 7.47074 15.5781
185 2 0.1703 -1.88402 5.9615 10.4555
170 2 0.169719 1.31813 4.18207 16.4002
196 2 0.106851 3.01207 1.51577 14.9266
184 2 0.181052 -2.13518 7.58106 9.42874
108 3 -0.741866 4.88323 4.11259 8.39756
21 4 1.25313 -2.58897 9.44845 7.33321
23 4 1.24017 -3.54881 11.8499 5.66408
204 2 0.250029 0.659861 9.73605 8.06704
39 4 1.23937 -0.881052 12.0951 3.93832
199 2 0.121662 2.49267 7.93552 3.91116
238 4 1.02021 0.636015 11.4256 0.368088
194 2 0.180908 -1.04645 14.1812 5.7331
89 3 -0.796848 -2.30569 8.06391 6.44827
91 3 -0.799914 -3.57382 10.3595 6.46514
92 3 -0.865915 -3.90866 13.0669 6.60351
11 4 1.51221 -4.82396 14.1888 7.40612
115 3 -0.819203 -0.887324 13.4782 3.14619
116 3 -0.845442 -2.16453 11.9861 4.87007
117 3 -0.797164 0.376872 12.921 0.737473
118 3 -0.787624 -1.08228 10.3963 7.85689
120 3 -0.823171 0.504351 12.0444 4.70957
173 2 0.17511 -1.78229 8.34152 0.451426
146 2 -0.0247341 -4.80246 11.9675 4.5921
151 2 -0.0181443 0.286329 8.55389 2.41722
155 2 -0.0188402 -0.887358 10.8751 2.6682
156 2 0.0465694 -1.46217 13.102 7.06127
26 4 1.45027 0.00135765 14.135 1.9162
57 1 -0.667936 -2.51665 7.51562 0.205208
207 2 0.166437 3.21249 7.76735 5.89449
268 2 0.0249035 0.929755 10.4933 2.00434
240 1 -0.648207 -0.45622 9.79348 1.13001
269 2 0.133739 -1.35596 9.51659 1.78522
40 4 0.999879 3.21199 9.84205 7.43906
246 2 0.167203 -0.101667 8.90012 0.517066
70 1 -0.658053 3.93555 8.10789 6.78302
206 2 0.147645 1.89131 8.14005 8.33143
262 2 -0.0139394 3.22133 8.22396 0.295213
41 4 0.971591 -1.24162 11.9427 8.36083
121 3 -0.774595 2.59168 10.7814 6.18226
24 4 1.02013 -1.84457 9.676 12.6118
25 4 1.26498 -3.22183 12.1069 10.6798
247 2 0.159129 2.16118 9.84145 14.321
63 1 -0.634647 -1.20554 10.2804 14.2182
64 1 -0.689368 -3.85757 13.6547 11.6163
69 1 -0.652532 1.71856 9.30711 8.48696
241 1 -0.680158 3.25114 10.0349 14.0217
93 3 -0.78388 -0.891538 8.57055 11.9494
175 2 0.16151 -2.40255 8.88537 16.3121
95 3 -0.764812 -2.48561 10.9092 11.7715
119 3 -0.823722 -2.03969 12.4214 9.60591
147 2 0.156983 -0.00974677 10.3088 13.7536
190 2 0.027247 -2.68941 9.01215 14.0216
272 2 0.163641 -0.0867342 14.19 9.35097
244 3 -0.795304 2.76769 11.923 16.1568
188 2 0.158528 -1.71218 11.3381 14.3138
189 2 0.167464 -1.34438 9.6004 15.2533
90 3 -0.825235 -5.70812 13.7064 8.6669
191 2 0.199292 -4.97029 13.5278 11.5388
94 3 -0.767177 -4.53218 11.509 9.89
187 2 0.211018 -3.05204 9.48936 9.84167
154 2 -0.00425962 2.47956 8.2172 13.8719
266 2 0.151637 -3.41216 13.293 12.6781
62 1 -0.67025 -3.51471 8.96311 8.91811
228 2 0.153658 2.12901 11.7109 9.68518
192 2 0.218407 -3.34054 14.6499 11.2051
157 2 0.00680959 0.387175 12.4906 8.56835
145 2 0.0045212 0.911409 8.16153 9.89926
205 2 0.146363 2.02644 9.71838 9.53317
248 2 0.141315 3.93646 9.2329 14.4228
245 2 0.0514181 -0.0965306 11.8711 16.5507
249 2 0.162926 3.46241 10.2671 12.9597
1 4 1.30794 14.2341 1.78122 3.50188
6 2 0.0848332 11.3686 1.09157 0.689447
3 1 -0.664296 12.6453 2.10273 4.68908
213 2 0.117774 8.80495 0.834941 8.07469
5 3 -0.804921 13.6907 0.780871 2.30266
59 1 -0.64293 11.553 6.59087 4.85899
7 2 0.145443 12.2207 1.06634 4.4907
8 2 0.171711 12.2525 2.96339 4.04193
9 2 0.174983 12.8703 2.33978 5.78462
263 2 0.147129 11.0603 5.70153 5.42121
109 3 -0.745528 6.81064 3.76262 6.45264
43 4 1.19686 9.22312 2.10729 3.20079
47 4 0.98586 9.14774 5.02466 2.48167
48 4 0.914311 6.22245 6.90759 4.43883
256 2 -0.0167975 13.1204 0.724457 6.11824
122 3 -0.786419 8.86603 0.84468 2.29568
123 3 -0.780881 8.11907 2.27042 4.37019
128 3 -0.810418 9.50167 3.48944 2.28206
129 3 -0.76224 6.16656 5.80534 3.30249
130 3 -0.765372 9.09358 5.81141 1.21977
158 2 -0.008142 10.7385 1.87754 4.00351
161 2 -0.012919 10.2223 5.70389 3.6573
162 2 0.154453 7.65604 5.19829 3.26471
50 4 0.952555 8.38059 7.25985 6.27039
166 2 0.00355395 8.12324 6.11371 7.54321
163 2 0.00192978 4.89478 6.90269 5.50953
165 2 -0.00231046 10.0644 6.86873 6.17186
179 2 0.144376 11.9714 6.29164 3.76295
131 3 -0.818152 7.70092 6.76987 4.99408
236 2 0.226237 10.0962 3.68076 0.0133089
44 4 0.99342 8.76127 1.80608 10.1601
49 4 1.1983 9.73093 7.58073 16.2
46 4 1.26623 11.8872 1.7958 11.586
237 2 0.16962 12.2252 3.35136 15.9364
51 4 1.26819 6.79253 7.41317 14.4266
254 3 -0.806579 14.239 1.03131 8.52157
271 2 0.16011 12.6001 1.25504 15.4947
73 1 -0.664382 12.0031 3.45499 12.5407
159 2 -0.0326244 8.87877 3.12643 9.11353
125 3 -0.805608 12.9226 2.31321 10.4046
126 3 -0.731306 10.1444 1.50844 10.9235
270 2 0.160485 13.7618 2.67876 15.7046
132 3 -0.796549 6.64135 6.13994 13.4223
133 3 -0.745935 8.22676 7.31741 15.4959
68 1 -0.668932 7.77721 4.78843 8.97314
12 4 1.56394 14.2491 2.31383 9.52695
134 3 -0.840749 5.47027 7.6201 15.3631
202 2 0.193505 7.86917 4.39562 10.0675