ITEM: TIMESTEP
0
ITEM: NUMBER OF ATOMS
274
ITEM: BOX BOUNDS xy xz yz pp pp pp
-7.3914999999999997e+00 1.6478000000000002e+01 -7.3914999999999997e+00
0.0000000000000000e+00 1.5100700000000000e+01 9.9190000000000000e-01
0.0000000000000000e+00 1.6771000000000001e+01 1.0307999999999999e+00
ITEM: ATOMS id type q x y z
152 2 -0.0171804 6.92348 2.07705 8.13607
13 4 1.54623 0.981615 1.91377 5.48796
15 4 1.41635 -0.422444 4.22608 1.62045
198 2 0.191837 1.47859 6.54873 5.22746
17 4 1.34403 -0.364765 4.30966 7.14866
18 4 1.29108 -2.06645 6.64675 5.40586
27 4 1.28611 3.60723 2.83176 3.80777
67 1 -0.662573 1.84943 6.61948 4.18336
30 4 1.28317 6.44414 2.4051 5.33656
33 4 1.44377 4.74686 5.02388 2.26147
34 4 1.04781 0.232764 6.90422 3.23503
56 1 -0.660136 1.03965 3.33811 0.641629
58 1 -0.663353 0.907156 5.74056 7.42892
28 4 1.22378 6.00785 2.36573 0.523487
65 1 -0.715575 6.56865 0.887592 6.57342
98 3 -0.847093 3.6432 1.3491 7.78401
174 2 0.158115 -2.67609 6.69965 1.30488
80 3 -0.846034 1.29725 0.7231 6.51938
195 2 0.223412 5.43392 0.963466 6.95344
83 3 -0.794268 -1.34067 4.47655 0.347377
85 3 -0.825885 0.329096 3.23713 6.2848
86 3 -0.769823 -1.66181 5.36062 6.28111
96 3 -0.83084 2.33842 2.40273 4.61932
97 3 -0.800112 6.39917 1.05446 1.41118
82 3 -0.817093 -0.911899 3.21276 2.66032
100 3 -0.797503 5.02822 2.57508 4.66301
103 3 -0.831091 3.58811 4.40466 3.2984
200 2 0.289294 2.50536 5.7294 3.789
105 3 -0.797375 0.0157691 5.55722 2.36095
107 3 -0.836168 4.06319 6.26138 1.44507
148 2 -0.00541316 3.77839 1.86036 2.52039
208 2 0.153918 4.3111 7.42184 7.126
171 2 0.148889 1.23463 2.27143 0.912527
172 2 0.221525 1.86395 4.04712 0.916781
176 2 0.177785 0.406147 6.70415 7.239
177 2 0.203082 1.80554 5.4786 6.7749
193 2 0.141953 7.39822 0.628006 7.37506
104 3 -0.795117 5.35972 3.82427 1.43427
108 3 -0.722788 4.85109 3.95257 8.22626
106 3 -0.787113 -0.930886 7.0572 4.30036
79 3 -0.833273 -0.238765 1.39625 4.4918
36 4 1.00369 6.47302 3.71009 7.92091
267 2 0.161386 4.02335 1.53139 12.9382
14 4 1.25409 1.67595 2.55654 10.7128
19 4 1.26958 1.21557 4.94821 12.8407
20 4 0.992441 -0.227092 7.44014 11.062
29 4 1.38046 3.87675 2.55413 8.87554
31 4 1.06755 4.52207 3.22407 15.0024
32 4 1.18994 6.04077 2.63447 11.3049
35 4 1.2374 4.54787 7.63795 16.7059
37 4 1.2169 5.39236 5.15607 12.6644
38 4 1.20526 2.1837 7.03196 15.0162
183 2 0.184837 -0.479705 6.39247 8.78827
61 1 -0.635397 -1.19552 6.72054 9.65439
66 1 -0.660026 4.29623 1.54682 14.0604
16 4 1.26863 -0.65464 6.88486 16.0614
261 3 -0.780732 -1.82312 6.39298 15.0155
87 3 -0.805524 1.77742 3.6842 11.9587
88 3 -0.771656 0.371989 6.09126 11.8252
99 3 -0.827477 2.44575 3.01945 9.3791
101 3 -0.763409 5.70027 3.11832 16.024
102 3 -0.833394 4.91595 1.99638 10.3703
178 2 0.188565 1.03508 5.46165 8.6099
110 3 -0.799623 4.83589 4.14093 13.7634
111 3 -0.793447 5.95793 4.27034 11.408
112 3 -0.823872 2.09671 5.69317 14.0221
113 3 -0.820783 3.23375 6.85853 16.26
184 2 0.176568 -2.04641 7.47952 9.27369
144 2 0.010405 2.60102 1.2165 11.3696
182 2 0.205947 -0.0146386 4.4517 15.0371
149 2 0.0163259 3.11403 3.89206 15.84
150 2 0.0135187 5.85724 1.94592 12.8598
153 2 -0.0125478 4.05642 6.01873 12.0094
81 3 -0.782301 0.171733 1.95618 10.4688
60 1 -0.659931 -0.0870474 4.17929 13.941
114 3 -0.825303 0.829275 7.53066 15.648
185 2 0.199347 -1.65747 5.79816 10.2424
170 2 0.188596 1.69139 4.49584 16.3014
84 3 -0.812576 -0.792922 3.74052 8.55196
181 2 0.16584 0.0251145 3.08423 13.8776
196 2 0.107761 3.31354 1.28953 14.712
264 2 0.189329 -1.06544 4.54411 13.4861
197 2 0.170118 5.10079 0.878361 14.2769
21 4 1.26446 -2.56125 9.47692 7.21112
23 4 1.25745 -3.59432 11.9369 5.71358
204 2 0.246239 0.544432 9.67509 8.19651
39 4 1.28938 -0.837863 12.0647 4.13031
199 2 0.112149 2.30266 7.7215 3.97969
238 4 1.00973 0.56436 11.277 0.609816
194 2 0.220689 -0.730017 14.1836 5.67888
89 3 -0.761519 -2.29652 8.09694 6.28378
91 3 -0.793068 -3.57992 10.4651 6.65608
92 3 -0.865588 -3.96502 13.1082 6.55593
11 4 1.56153 -4.8392 14.2089 7.38709
115 3 -0.801024 -0.628582 13.5331 3.56677
116 3 -0.856663 -2.1835 11.9793 4.85461
117 3 -0.840024 0.47559 12.6738 1.35365
118 3 -0.774764 -1.10095 10.4663 7.93053
120 3 -0.822134 0.475324 11.7769 4.98268
173 2 0.164319 -1.75458 8.20646 0.534529
146 2 -0.0287047 -4.85214 11.83 4.61035
151 2 -0.00979753 0.307482 8.42451 2.31127
155 2 -0.00192655 -0.971506 10.8918 2.84653
156 2 0.0262007 -1.38386 13.2105 7.41522
26 4 1.43796 0.161547 14.0578 2.15828
57 1 -0.667311 -2.49144 7.28572 0.284047
207 2 0.176131 3.10006 7.67769 5.61517
268 2 0.0267075 0.970808 10.1585 2.03405
240 1 -0.646654 -0.653045 9.74527 1.28049
269 2 0.143527 -1.50356 9.52651 2.04712
40 4 1.01236 3.1849 9.65198 7.44213
246 2 0.157617 -0.44387 8.87426 0.556871
70 1 -0.666113 3.81783 8.15007 6.33698
206 2 0.140737 1.75884 8.00137 8.1835
262 2 -0.0119041 3.1686 8.23704 0.228314
24 4 1.04106 -2.00066 9.56365 12.6538
25 4 1.24266 -3.23972 11.8696 10.7513
247 2 0.152559 2.19792 10.0319 14.1647
63 1 -0.654312 -1.11692 9.97659 14.2647
64 1 -0.669723 -3.78512 13.5498 11.4469
69 1 -0.642298 1.65076 9.18684 8.47634
241 1 -0.68206 3.28689 10.2386 13.9086
93 3 -0.811097 -1.17509 8.49322 11.7762
175 2 0.18232 -2.39258 8.68283 16.5852
95 3 -0.779088 -2.62648 10.8824 12.1161
119 3 -0.812542 -2.04904 12.2191 9.76546
147 2 0.160518 -0.0594582 9.80073 13.8333
190 2 0.0388964 -2.83986 9.00354 14.0489
272 2 0.154143 0.199792 14.2531 9.2472
244 3 -0.788642 2.649 11.9431 16.2638
188 2 0.172235 -1.3189 11.0906 14.3101
189 2 0.17496 -1.2707 9.38642 15.3349
90 3 -0.826351 -5.46946 13.2892 8.60126
191 2 0.209005 -4.93208 13.5366 11.5034
94 3 -0.758683 -4.7946 11.2331 10.0542
187 2 0.187356 -2.8085 9.14263 9.50759
154 2 -0.0212165 2.7052 8.33097 14.0011
266 2 0.154996 -3.31913 13.2783 12.5393
62 1 -0.652667 -3.50537 8.73567 8.71022
41 4 0.957134 -1.10224 11.972 8.48406
192 2 0.225667 -3.22252 14.5269 11.056
157 2 0.00116253 0.485943 12.5415 8.69106
145 2 0.00349352 0.710193 7.90879 9.69939
205 2 0.141587 1.9474 9.41876 9.54206
248 2 0.117695 4.03818 9.41439 14.2392
245 2 0.0410154 -0.13083 11.8277 16.7056
1 4 1.33806 14.108 1.922 3.53065
6 2 0.0491443 11.5056 1.32902 0.576539
3 1 -0.679834 12.4603 2.33555 4.61478
213 2 0.124909 9.02999 0.759457 7.91592
5 3 -0.788747 13.5788 0.947877 2.31331
59 1 -0.670201 11.7027 6.36842 4.50955
7 2 0.140891 11.8955 1.35678 4.80586
8 2 0.150078 12.056 3.05616 3.78079
9 2 0.173179 12.8557 2.9211 5.49719
263 2 0.13147 11.4159 5.44997 5.17183
109 3 -0.748142 6.69319 3.92079 6.39343
43 4 1.19356 9.06489 2.18566 3.37442
47 4 0.975924 8.93552 5.00484 2.47783
48 4 0.943084 6.05516 6.95623 4.24769
256 2 -0.0185867 12.7287 1.01919 6.0896
122 3 -0.789631 9.00484 0.758048 2.64468
123 3 -0.821172 7.83548 2.33645 4.44967
128 3 -0.831776 9.23142 3.51366 2.38665
129 3 -0.79448 6.13994 5.83852 3.18413
130 3 -0.806253 8.74809 5.63417 1.0169
158 2 -0.0098585 10.5438 2.16537 4.23242
161 2 -0.030303 10.2081 5.71658 3.43359
162 2 0.127182 7.66287 5.35146 3.56577
50 4 0.936067 8.24479 7.39438 6.25728
166 2 0.0146806 7.7421 6.18552 7.36551
163 2 0.0172041 4.79268 6.71882 5.39436
201 2 0.126935 8.75189 5.01283 8.2871
179 2 0.157747 11.9619 6.09992 3.4563
236 2 0.209417 10.6722 3.84025 0.267569
2 4 0.991875 12.7593 0.22757 1.20072
131 3 -0.827617 7.4572 7.1197 4.96078
165 2 -0.0284275 9.87533 7.08502 6.04463
180 2 0.156315 11.0457 7.29217 4.61673
44 4 0.964921 8.98927 1.95047 9.8597
49 4 1.26091 9.62482 7.33501 16.3325
46 4 1.28463 11.7285 2.03597 11.5603
237 2 0.17961 12.559 3.4923 16.022
51 4 1.26329 6.94306 7.41348 14.4981
254 3 -0.810345 14.095 1.10906 8.42716
271 2 0.142227 12.9081 1.62124 15.381
73 1 -0.663583 11.3702 3.50621 12.6995
159 2 -0.0269544 9.14404 3.41137 8.88146
125 3 -0.743861 12.9476 2.55526 10.4576
126 3 -0.793415 10.3348 1.82504 10.7349
270 2 0.180525 14.3757 2.7463 15.7063
132 3 -0.764034 6.46579 6.20069 13.331
133 3 -0.792898 8.34209 7.23694 15.37
68 1 -0.667036 7.78874 4.87887 8.90768
12 4 1.49688 14.3762 2.30837 9.43772
134 3 -0.817057 5.61002 7.58058 15.5451
202 2 0.216358 7.90617 4.50212 9.94288
214 2 0.179424 10.3115 3.84079 12.457
215 2 0.149189 12.3522 4.12405 12.2879
216 2 0.160803 11.5405 3.12448 13.7346
4 1 -0.657262 13.7834 1.86713 16.0592
231 4 1.03119 12.0804 5.86653 14.9412
232 1 -0.668399 11.778 4.34511 15.9805
233 3 -0.760549 11.1295 7.00975 15.3083
234 2 0.00662875 11.6993 5.34074 13.3464
235 2 0.154756 10.7735 3.94372 15.5193
258 2 0.18503 8.0398 3.7025 15.2496
259 2 0.179203 9.30866 3.24639 16.7412
257 1 -0.672003 8.47773 3.96031 16.3207
203 2 0.170334 7.02007 5.76006 8.95402
124 3 -0.783939 7.55734 2.24233 10.7013
127 3 -0.765143 12.3054 0.827983 12.5977
260 2 0.246243 8.58648 4.99993 16.6357
225 2 0.170462 8.27552 12.1981 6.05367
52 4 1.0602 3.86497 11.602 2.46068
53 4 1.01014 7.56873 10.3427 7.43995
212 2 0.180702 1.41509 14.122 6.00258
274 2 0.160728 9.21075 8.38346 0.949193
71 1 -0.675901 2.44575 13.6162 5.87538
211 2 0.210126 3.01733 13.4588 6.82084
76 1 -0.661966 5.09408 10.2458 2.79427
77 1 -0.647205 7.44836 11.3008 5.85471
250 2 0.134077 4.53423 9.36361 0.787628
135 3 -0.765696 4.57987 12.8868 1.85591
136 3 -0.788659 2.93866 11.5265 3.74777
137 3 -0.79025 8.00023 8.74622 6.92081
140 3 -0.792659 4.86513 13.3243 8.22755
226 2 0.109843 6.27055 11.6692 6.06343
164 2 -0.00105004 5.73582 8.5298 3.53677
209 2 0.128463 4.66729 8.70109 5.79709
167 2 0.0342059 3.29766 10.58 1.10301
168 2 0.099143 5.86542 10.2517 8.01363
227 2 0.164952 7.71994 10.7088 4.86229
42 4 1.27883 2.06621 11.8564 5.22041
210 2 0.165144 3.02257 14.0128 4.94887
255 2 0.00786802 7.12208 13.2129 6.64229
253 4 0.975537 5.99968 14.1971 7.43591
224 2 0.159565 6.07618 10.8832 2.5963
222 2 0.12247 4.90236 9.24329 2.09062
223 2 0.166455 4.87709 10.0548 3.91886
121 3 -0.75943 2.67025 10.8597 6.41365
217 2 0.166147 7.60941 8.52361 0.0219935
22 4 1.50617 9.41401 12.1061 9.48865
54 4 1.20448 4.71528 12.1187 9.38109
55 4 1.24387 7.1155 12.1487 11.4619
75 1 -0.682356 7.15898 9.09244 13.5998
251 2 0.161722 6.07487 11.6589 16.2168
265 2 0.243971 10.9722 9.27466 8.73499
186 2 0.162609 11.9305 7.58243 8.61639
141 3 -0.789019 8.63367 12.6379 10.8439
142 3 -0.821288 5.92023 12.1201 10.4109
143 3 -0.816755 6.70703 13.0341 12.7267
169 2 -0.00915825 7.22699 10.5904 12.1336
78 1 -0.658906 3.421 12.5726 10.6521
220 2 0.165918 8.15152 9.48472 14.0248
221 2 0.150442 6.29499 9.70648 13.8772
138 3 -0.815958 8.44889 11.1512 8.47311
239 4 1.05183 3.89813 11.5766 15.1496
230 2 0.1878 3.81533 12.121 11.6503
242 1 -0.649009 5.31442 10.8141 16.4352
243 3 -0.81797 4.69217 12.7584 14.3499
249 2 0.155575 3.52078 10.6052 12.8632
139 3 -0.742008 4.4639 10.3164 8.59616
219 2 0.156119 7.12887 8.74753 12.5279
229 2 0.236687 3.32878 13.6916 10.7372
252 2 0.126952 5.42197 9.9433 15.5597
10 2 0.0517445 7.36463 14.6881 16.376
45 4 1.25575 5.61698 13.7394 13.5629
273 2 0.185556 2.1191 13.6538 9.53906
218 2 0.156188 10.2186 9.53321 15.7584
72 1 -0.662871 1.30997 14.3303 8.93061
74 1 -0.639601 9.6731 9.18153 16.7311
228 2 0.135028 2.53783 11.9421 10.2552
160 2 0.0132679 6.5811 14.4818 14.7527
ITEM: TIMESTEP
100
ITEM: NUMBER OF ATOMS
274
ITEM: BOX BOUNDS xy xz yz pp pp pp
-7.3914999999999997e+00 1.6478000000000002e+01 -7.3914999999999997e+00
0.0000000000000000e+00 1.5130901400000001e+01 9.9190000000000000e-01
0.0000000000000000e+00 1.6771000000000001e+01 1.0328615999999999e+00
ITEM: ATOMS id type q x y z
106 3 -0.745173 -1.0287 6.95851 4.31584
13 4 1.51108 0.989888 1.92441 5.39688
15 4 1.29083 -0.235085 4.27009 1.64234
198 2 0.191432 1.58989 6.63637 5.20489
17 4 1.34676 -0.547418 4.35539 7.10848
18 4 1.22297 -2.15453 6.70606 5.56422
27 4 1.33282 3.76777 2.76597 3.9103
67 1 -0.662265 1.90086 6.80846 4.16909
30 4 1.37365 6.60827 2.44935 5.24554
33 4 1.46354 4.79131 5.01407 2.28799
34 4 0.962472 0.307271 7.02003 3.23791
56 1 -0.66766 1.1453 3.3347 0.660711
58 1 -0.658237 0.854779 5.61924 7.6386
28 4 1.36909 5.81441 2.44632 0.446854
65 1 -0.687835 6.50009 0.925821 6.67072
98 3 -0.854012 3.72645 1.31733 7.93457
174 2 0.171477 -3.15406 6.81122 1.11733
80 3 -0.844063 1.48822 0.857331 6.46588
195 2 0.254683 5.40889 1.04411 7.09618
83 3 -0.766042 -1.54464 4.68378 0.548549
85 3 -0.787644 0.28878 3.29638 6.19403
86 3 -0.756841 -1.75407 5.20191 6.33232
96 3 -0.819837 2.37724 2.38048 4.59233
97 3 -0.793968 6.42671 1.21753 1.25815
82 3 -0.781314 -0.892006 3.38289 2.89561
100 3 -0.850305 5.12343 2.46836 4.62536
103 3 -0.782972 3.6233 4.29563 3.45997
200 2 0.279271 2.52573 5.90787 3.73894
105 3 -0.734161 0.458332 5.67183 2.12278
107 3 -0.81688 3.93799 6.0888 1.34982
148 2 -0.00858375 3.64351 1.84653 2.55286
36 4 1.03095 6.39379 3.66282 7.97146
171 2 0.135834 1.35737 2.28183 1.14203
172 2 0.236416 2.04747 4.03242 0.745381
176 2 0.161918 0.429125 6.62954 7.35451
177 2 0.212429 1.76522 5.22925 7.08137
193 2 0.13719 7.28647 0.635957 7.49481
104 3 -0.834277 5.38233 3.81399 1.32818
108 3 -0.753313 4.84345 3.97119 8.33509
267 2 0.153919 3.9146 1.79632 13.1702
14 4 1.23449 1.67873 2.59979 10.893
19 4 1.27173 1.13396 4.96902 13.0351
20 4 1.00811 -0.215506 7.41537 10.9945
29 4 1.38172 3.77568 2.62699 8.99242
31 4 1.06681 4.5426 3.33591 15.0964
32 4 1.21574 5.91192 2.53659 11.3132
35 4 1.25252 4.51925 7.6961 16.6844
37 4 1.24549 5.5061 5.17555 12.67
38 4 1.25006 2.06134 7.03794 14.9794
183 2 0.193562 -0.689012 6.35151 8.84765
61 1 -0.638046 -1.37361 6.68864 9.71038
66 1 -0.653822 4.27002 1.62952 14.2306
16 4 1.25668 -0.81459 6.91065 16.2351
124 3 -0.813312 7.39484 2.02527 10.7872
87 3 -0.806687 1.68153 3.63593 12.2506
88 3 -0.749872 0.572652 6.31195 11.8798
99 3 -0.819921 2.44334 3.25624 9.63797
101 3 -0.825542 5.6685 3.13911 16.1966
102 3 -0.851696 4.79543 1.97378 10.3483
178 2 0.198837 0.935419 5.44448 8.81267
110 3 -0.803267 5.00196 4.25316 13.8755
111 3 -0.819598 6.00441 4.14191 11.5367
112 3 -0.846573 2.00171 5.7256 14.14
113 3 -0.820094 3.20787 6.93233 16.1633
184 2 0.180512 -2.25328 7.4371 9.35756
144 2 0.0108853 2.53624 1.10427 11.2413
182 2 0.189567 -0.392411 4.44622 14.8937
149 2 0.0226399 3.06713 3.98065 15.7402
150 2 0.012023 5.67694 1.83014 12.8474
153 2 -0.0143814 4.17943 5.98842 12.0251
81 3 -0.800709 0.186594 2.24806 10.3262
60 1 -0.654055 -0.354474 4.10792 13.7676
114 3 -0.803948 0.581661 7.41504 15.4385
185 2 0.171866 -1.78396 5.79853 10.4382
170 2 0.159307 1.5249 4.35572 16.3651
84 3 -0.784314 -1.12988 3.86709 8.54618
181 2 0.174157 -0.178571 3.00698 13.5861
196 2 0.119898 3.39369 1.35324 14.922
152 2 0.0204376 6.53467 1.99636 8.4184
21 4 1.25654 -2.58876 9.51868 7.34641
23 4 1.26069 -3.59765 11.8904 5.69285
204 2 0.264175 0.43633 9.67875 8.12588
39 4 1.24081 -0.79675 12.0396 4.09451
199 2 0.118862 2.38881 7.85045 3.85168
238 4 0.972436 0.623806 11.2792 0.521447
194 2 0.187504 -0.81696 14.2909 5.73428
89 3 -0.772496 -2.28177 8.08587 6.60476
91 3 -0.791872 -3.61528 10.3948 6.44919
92 3 -0.824956 -3.86411 13.1372 6.6184
11 4 1.54648 -4.78446 14.3367 7.4881
115 3 -0.840049 -0.815994 13.3869 3.28549
116 3 -0.818113 -2.23394 11.9384 4.95158
117 3 -0.785693 0.469751 12.8093 1.0454
118 3 -0.791045 -1.099 10.4766 7.94436
120 3 -0.829737 0.477729 11.8434 4.99627
173 2 0.150083 -1.82257 8.30589 0.557846
146 2 -0.0263682 -4.69975 11.8361 4.47554
151 2 -0.0133519 0.47849 8.54859 2.39705
155 2 -0.00800101 -0.737796 10.7439 2.9275
156 2 0.0434181 -1.35164 13.0615 7.11109
26 4 1.43437 0.03333 14.1066 2.06211
57 1 -0.665883 -2.64588 7.3684 0.228722
207 2 0.175569 3.23258 7.76463 5.57795
268 2 0.0194215 0.804689 10.3698 2.15057
240 1 -0.650969 -0.597516 9.70609 1.26209
269 2 0.148516 -1.55529 9.62161 1.82169
40 4 0.999376 3.09927 9.71942 7.44652
246 2 0.151181 -0.406394 8.72963 0.672521
70 1 -0.645759 3.93133 8.2846 6.34627
206 2 0.124124 1.757 8.10489 8.35815
262 2 -0.0122745 3.07348 8.33178 0.103345
208 2 0.131163 4.12995 7.64871 7.35495
121 3 -0.748475 2.56641 10.7035 6.23843
41 4 0.973178 -1.10139 11.993 8.38106
24 4 1.01387 -1.8895 9.65106 12.6103
25 4 1.31436 -3.24998 11.948 10.6978
247 2 0.153584 2.21283 10.0615 14.2146
63 1 -0.641734 -0.922112 9.99116 14.1851
64 1 -0.680161 -3.70557 13.6126 11.5989
69 1 -0.644328 1.59873 9.32799 8.46418
241 1 -0.673416 3.30275 10.0747 13.9584
93 3 -0.790208 -1.02308 8.51394 11.8179
175 2 0.168646 -2.49026 8.74975 16.2985
95 3 -0.788981 -2.81938 10.7336 11.8987
119 3 -0.813578 -2.0585 12.2438 9.64918
147 2 0.170143 0.143993 9.70791 13.7352
190 2 0.0290906 -2.63411 8.9611 14.0269
272 2 0.150544 0.0383114 14.1825 9.19836
244 3 -0.777669 2.77913 11.9139 16.2147
188 2 0.144608 -1.10334 11.1408 14.1869
189 2 0.171991 -1.18738 9.41244 15.2996
90 3 -0.836461 -5.50721 13.7013 8.81302
191 2 0.192151 -4.82026 13.559 11.7162
94 3 -0.798437 -4.62375 11.5849 9.98601
187 2 0.199047 -2.98306 9.10796 9.80138
154 2 -0.00563628 2.59315 8.24893 13.9197
266 2 0.144537 -3.0958 13.3694 12.5874
62 1 -0.662427 -3.56884 8.88651 8.85534
197 2 0.155074 -2.26796 14.8692 14.2628
192 2 0.239052 -3.21462 14.4955 11.0749
157 2 -0.00235182 0.460038 12.5155 8.88451
145 2 0.00309597 0.978657 8.13597 9.92795
205 2 0.143959 1.98923 9.81321 9.46398
248 2 0.116052 4.02296 9.25636 14.4923
245 2 0.0419448 -0.0366382 11.8481 16.7065
249 2 0.15789 3.46392 10.2527 12.835
1 4 1.29519 14.1473 1.92546 3.52051
6 2 0.0679784 11.4597 1.15018 0.607794
3 1 -0.660599 12.4691 2.11204 4.73835
213 2 0.120064 8.99007 0.82128 8.04376
5 3 -0.79614 13.5052 0.897241 2.35524
59 1 -0.652459 11.6184 6.50622 4.71077
7 2 0.163216 12.0285 1.14721 4.47631
8 2 0.168408 12.1389 2.99995 4.05606
9 2 0.166554 12.4995 2.38901 5.82645
263 2 0.13375 11.2862 5.60406 5.48574
109 3 -0.802637 6.84974 3.57178 6.42762
43 4 1.20462 9.05659 2.21077 3.36817
47 4 0.939716 9.06787 5.00342 2.45102
48 4 0.947878 6.21061 6.86382 4.3644
256 2 0.0148084 13.2284 0.759898 5.94898
122 3 -0.789337 8.83162 0.880665 2.52638
123 3 -0.89227 7.82907 2.43888 4.32006
128 3 -0.805214 9.54533 3.51333 2.35176
129 3 -0.842052 5.81123 5.7694 3.2404
130 3 -0.747346 8.95389 5.83724 1.06459
158 2 -0.00943625 10.5606 1.99936 4.2425
161 2 -0.00395762 10.111 5.8226 3.55224
162 2 0.0797804 7.59691 4.99786 3.24499
50 4 0.909525 8.30531 7.3687 6.34527
166 2 0.00395396 7.9327 6.17096 7.45039
163 2 0.0136703 5.08027 6.82822 5.67181
165 2 -0.0197048 9.91723 7.13394 6.21149
179 2 0.17609 12.0549 6.22324 3.68148
236 2 0.23701 10.6132 3.77199 0.0879998
79 3 -0.819305 15.2142 1.22619 4.48068
131 3 -0.836538 7.62027 6.89339 4.97126
254 3 -0.818107 14.1523 1.20119 8.35033
259 2 0.211984 8.26586 2.2693 0.00771859
44 4 1.01039 8.81696 1.84906 10.0808
49 4 1.18675 9.61844 7.61681 16.2672
46 4 1.27883 11.8276 1.83247 11.6039
237 2 0.177184 12.6455 3.44281 15.9321
51 4 1.28317 6.79702 7.38046 14.4647
261 3 -0.754834 13.5006 6.3288 14.9662
271 2 0.144113 12.8127 1.12909 15.7516
73 1 -0.653629 11.4543 3.46133 12.5103
159 2 -0.0222935 8.84861 3.25142 9.07769
125 3 -0.792732 13.0534 2.19819 10.4575
126 3 -0.763008 10.2053 1.67669 10.8746
270 2 0.167457 14.0087 2.61962 15.5346
132 3 -0.813046 6.47492 6.2645 13.247
133 3 -0.75805 8.16985 7.23809 15.4113
68 1 -0.665597 7.68244 4.83128 8.92323
12 4 1.53418 14.3182 2.38167 9.46923
134 3 -0.840233 5.65089 7.75339 15.6022
202 2 0.195964 7.66319 4.24245 9.89622
214 2 0.172836 10.2591 3.56267 12.5412
215 2 0.151057 12.0489 4.24367 11.9307
216 2 0.155353 11.9392 3.17176 13.5297
4 1 -0.651019 13.7119 1.71004 16.1501
231 4 1.04686 12.0118 5.91406 14.8004
232 1 -0.638364 11.829 4.31908 15.8185
233 3 -0.756647 10.9882 6.93688 15.3761
234 2 -0.00632022 11.5975 5.28027 13.1807
235 2 0.153829 10.8389 3.96425 15.3015
258 2 0.187384 8.21079 3.39183 15.1692
201 2 0.134428 8.7403 5.29513 8.77334
257 1 -0.651253 8.41903 3.83324 16.1882
203 2 0.163778 6.92004 5.71021 8.98622
260 2 0.227015 8.37231 4.93371 16.2271
264 2 0.17413 14.1627 4.48769 13.2503
225 2 0.186598 8.03985 12.2762 5.67042
52 4 1.00465 3.97113 11.4288 2.39803
53 4 1.00419 7.57808 10.2991 7.40891
212 2 0.153867 1.78875 13.8928 6.3779
274 2 0.171959 9.32792 8.64332 0.738854
71 1 -0.661628 2.77182 13.4347 5.92516
211 2 0.260672 3.58883 13.4174 6.76011
76 1 -0.669988 5.16516 10.0597 2.80416
77 1 -0.684001 7.46035 11.3862 5.87901
250 2 0.137781 4.53673 9.19968 0.802887
135 3 -0.792804 4.74337 12.7282 1.65867
136 3 -0.784988 2.98702 11.7347 3.68317
137 3 -0.816082 7.94149 8.73356 6.92633
140 3 -0.789691 4.73893 13.4449 8.05883
226 2 0.126666 6.29558 11.5328 5.89118
164 2 -0.0058945 5.7461 8.40121 3.77761
209 2 0.138234 4.82556 8.67679 5.81585
167 2 0.0205317 3.16008 10.3135 1.28798
168 2 0.0806406 5.936 10.3059 8.00934
227 2 0.15931 7.64595 10.5721 5.08001
42 4 1.27334 2.11786 11.854 5.15032
210 2 0.159628 3.13021 13.9704 4.96211
255 2 0.00747473 7.19062 12.978 7.15491
253 4 0.985833 6.06622 14.1904 7.52093
224 2 0.165238 6.11103 10.7265 2.81648
222 2 0.13556 5.1006 9.10575 2.04906
223 2 0.14895 4.75325 9.90516 3.9443
180 2 0.158491 10.9864 7.50102 4.80766
2 4 1.04513 5.35991 14.0984 1.25859
138 3 -0.795799 8.60949 11.0896 8.35742
22 4 1.5014 9.4736 12.2391 9.37486
54 4 1.2054 4.76104 12.0913 9.39097
55 4 1.2689 7.17577 12.0038 11.4302
75 1 -0.670969 7.18277 8.87782 13.3016
251 2 0.165138 5.92819 11.816 16.6055
265 2 0.229281 10.9254 9.50829 8.72023
186 2 0.164182 11.757 7.78328 8.61487
141 3 -0.813373 8.51338 12.4165 10.6022
142 3 -0.84663 5.96622 11.9433 10.4277
143 3 -0.823993 6.91401 12.9558 12.7212
169 2 0.00275086 7.40732 10.4465 12.0875
78 1 -0.67179 3.19971 12.2987 10.4375
220 2 0.163371 8.15791 9.23274 13.7301
221 2 0.148056 6.28413 9.50678 13.4518
228 2 0.158809 2.36383 11.9697 9.80365
239 4 1.02919 3.96517 11.4925 15.105
230 2 0.179708 3.36285 11.723 11.398
242 1 -0.653096 5.35687 10.8156 16.5674
243 3 -0.781253 4.71932 12.5921 14.0571
160 2 0.00721982 6.55299 14.375 14.7852
139 3 -0.751342 4.43391 10.6656 8.48816
219 2 0.168551 7.34452 8.34825 12.2739
229 2 0.214392 3.12321 13.4382 10.6004
252 2 0.139082 5.6866 10.133 15.6065
10 2 0.055454 7.62671 14.8493 16.5079
45 4 1.25837 5.71986 13.6714 13.4604
273 2 0.189406 1.92458 13.5169 9.45035
218 2 0.152608 10.4382 9.73327 15.6917
72 1 -0.659782 1.20625 14.323 9.03536
74 1 -0.673789 9.76138 9.46199 16.5519
217 2 0.16279 8.73208 9.90795 16.4526
127 3 -0.810376 4.94121 14.8107 12.6548
ITEM: TIMESTEP
200
ITEM: NUMBER OF ATOMS
274
ITEM: BOX BOUNDS xy xz yz pp pp pp
-7.3914999999999997e+00 1.6478000000000002e+01 -7.3914999999999997e+00
0.0000000000000000e+00 1.5161102800000000e+01 9.9190000000000000e-01
0.0000000000000000e+00 1.6771000000000001e+01 1.0349231999999999e+00
ITEM: ATOMS id type q x y z
106 3 -0.792792 -0.90868 6.88676 4.40251
13 4 1.5363 1.07268 1.94268 5.49549
15 4 1.3416 -0.375881 4.43936 1.74559
198 2 0.179997 1.73489 7.19848 5.45537
17 4 1.3184 -0.743104 4.26346 7.14609
18 4 1.31603 -2.07284 6.77885 5.53899
27 4 1.24456 3.69691 2.79584 3.79207
67 1 -0.683095 1.91968 7.06343 4.37828
30 4 1.20974 6.54134 2.29384 5.36705
33 4 1.40271 4.73518 4.93348 2.29429
34 4 1.02337 0.31941 7.07334 3.37794
56 1 -0.664258 0.849299 3.33921 0.704047
58 1 -0.647995 0.657561 5.52968 7.57027
28 4 1.36598 5.93108 2.53188 0.616643
65 1 -0.711389 6.40982 0.90143 6.70079
98 3 -0.782359 3.65343 1.4984 8.03132
174 2 0.17536 -2.81328 7.04222 1.19153
80 3 -0.846817 1.53319 0.78742 6.45678
195 2 0.232589 5.33086 1.0855 7.12029
83 3 -0.806725 -1.51209 4.96853 0.702086
85 3 -0.790685 0.133479 3.14766 6.29704
86 3 -0.75452 -1.84771 5.36532 6.36901
96 3 -0.814863 2.38682 2.44247 4.62929
97 3 -0.81081 6.33798 1.19692 1.24016
82 3 -0.764242 -0.938422 3.27771 2.80187
100 3 -0.793718 5.15313 2.51663 4.61316
103 3 -0.809745 3.54949 4.41381 3.24067
200 2 0.256621 2.34597 6.06445 4.048
105 3 -0.759953 0.378433 5.72667 2.44769
107 3 -0.82229 4.11493 5.90851 1.09161
148 2 0.000920608 3.86917 1.70411 2.49504
36 4 1.01336 6.42152 3.72613 7.96469
171 2 0.163877 1.06636 2.38329 1.27715
172 2 0.215447 1.66098 4.13932 0.655283
176 2 0.171265 0.235462 6.58409 7.24688
177 2 0.215026 1.53026 5.15189 6.89473
193 2 0.148836 7.18502 0.560121 7.47632
104 3 -0.843137 5.60744 3.74416 1.53222
208 2 0.181611 4.14719 7.38503 7.56361
79 3 -0.806993 -0.0573991 1.28477 4.40272
152 2 -0.0116141 6.58397 2.06652 8.34501
267 2 0.170604 3.91671 1.75318 13.165
14 4 1.3095 1.64079 2.66338 10.9682
19 4 1.2256 0.911405 4.8726 12.9687
20 4 0.978256 -0.183334 7.40493 11.048
29 4 1.38132 3.94276 2.73672 9.17999
31 4 1.05259 4.41337 3.29239 15.2273
32 4 1.21299 5.99356 2.54258 11.5194
35 4 1.24684 4.50646 7.66348 16.6065
37 4 1.21117 5.52034 5.14037 12.8411
38 4 1.27817 1.92322 6.95089 14.9933
183 2 0.179044 -0.659451 6.39484 8.95219
61 1 -0.659555 -1.35909 6.77809 9.79522
66 1 -0.651803 4.07449 1.66475 14.2877
16 4 1.32789 -0.766818 6.94084 16.1914
124 3 -0.812031 7.4022 1.94645 11.0579
87 3 -0.829423 1.67649 3.56807 12.2045
88 3 -0.782619 0.44498 6.19804 12.0261
99 3 -0.779954 2.47073 3.30247 9.77742
101 3 -0.766298 5.58144 3.10482 16.2628
102 3 -0.868875 4.73061 2.17794 10.5479
178 2 0.191973 0.725989 5.29362 8.70075
110 3 -0.7936 4.90177 4.23861 14.0361
111 3 -0.79639 6.07717 4.15696 11.6259
112 3 -0.81456 1.84393 5.50955 14.3431
113 3 -0.822398 3.01253 7.14454 16.1583
197 2 0.167257 4.92991 0.980934 14.6266
144 2 0.0135669 2.33223 1.13591 11.4801
182 2 0.179308 -0.710389 4.23907 14.8012
149 2 0.0274421 3.06351 4.06099 15.9451
150 2 0.0148472 5.63419 1.89705 13.0674
153 2 -0.0232198 4.33015 6.08008 12.2086
81 3 -0.814177 0.128826 2.37083 10.4308
60 1 -0.667161 -0.709908 4.1228 13.6794
114 3 -0.843263 0.580538 7.47146 15.572
185 2 0.169322 -1.88604 5.96689 10.4573
170 2 0.168007 1.33561 4.16752 16.398
196 2 0.105731 3.0252 1.51701 14.9408
184 2 0.181015 -2.13418 7.58733 9.42803
108 3 -0.740594 4.87745 4.09102 8.39271
21 4 1.25267 -2.5809 9.46107 7.33346
23 4 1.2435 -3.54027 11.8589 5.66476
204 2 0.249672 0.663383 9.74815 8.05998
39 4 1.24001 -0.883473 12.1087 3.93418
199 2 0.121636 2.49151 7.93548 3.90895
238 4 1.02048 0.621956 11.4293 0.368469
194 2 0.182501 -1.0123 14.1793 5.73017
89 3 -0.795749 -2.30408 8.0686 6.44791
91 3 -0.799839 -3.57068 10.3688 6.47005
92 3 -0.856848 -3.89481 13.0736 6.59154
11 4 1.50606 -4.82675 14.2228 7.41975
115 3 -0.819655 -0.883186 13.5014 3.15658
116 3 -0.846523 -2.16243 12.0015 4.87066
117 3 -0.794094 0.377819 12.9259 0.747712
118 3 -0.790471 -1.0823 10.4187 7.85007
120 3 -0.820708 0.503347 12.0488 4.70315
173 2 0.171348 -1.77962 8.35765 0.46628
146 2 -0.0242965 -4.79419 11.9771 4.59538
151 2 -0.0183049 0.280828 8.54743 2.41023
155 2 -0.0209432 -0.906151 10.9028 2.68877
156 2 0.0475479 -1.45201 13.1204 7.05465
26 4 1.44279 -0.00711544 14.155 1.92229
57 1 -0.66223 -2.5239 7.51107 0.208088
207 2 0.166807 3.21534 7.76972 5.89743
268 2 0.0261915 0.921824 10.4887 2.00068
240 1 -0.651161 -0.464867 9.80723 1.13081
269 2 0.133808 -1.36183 9.52978 1.78761
40 4 0.998928 3.21117 9.84241 7.44048
246 2 0.167692 -0.113968 8.93242 0.503122
70 1 -0.658547 3.93545 8.1085 6.7829
206 2 0.14751 1.88102 8.14404 8.32755
262 2 -0.0138792 3.20332 8.23446 0.298553
121 3 -0.775423 2.59122 10.7811 6.18233
41 4 0.976069 -1.23865 11.9549 8.35939
24 4 1.02087 -1.84593 9.68203 12.6122
25 4 1.25896 -3.22684 12.1225 10.6718
247 2 0.157847 2.17703 9.83993 14.3557
63 1 -0.638043 -1.20245 10.2776 14.2163
64 1 -0.691709 -3.8539 13.6765 11.6088
69 1 -0.652999 1.71222 9.31147 8.48537
241 1 -0.673726 3.26931 10.0327 14.0324
93 3 -0.783191 -0.89394 8.57364 11.9461
175 2 0.159523 -2.38428 8.90053 16.315
95 3 -0.762187 -2.48364 10.9174 11.7835
119 3 -0.82472 -2.0404 12.4304 9.599
147 2 0.157876 -0.0106529 10.3082 13.7542
190 2 0.0269929 -2.69194 9.01345 14.0203
272 2 0.167261 -0.08747 14.2107 9.38973
244 3 -0.797307 2.78012 11.9301 16.1602
188 2 0.159452 -1.70707 11.3305 14.3198
189 2 0.169003 -1.34015 9.60789 15.2343
90 3 -0.824378 -5.71387 13.7177 8.6727
191 2 0.199202 -4.95943 13.5492 11.544
94 3 -0.767122 -4.53712 11.52 9.88578
187 2 0.210616 -3.04489 9.50404 9.83844
154 2 -0.00271773 2.50614 8.21695 13.8891
266 2 0.151852 -3.40022 13.2922 12.6553
62 1 -0.669938 -3.50557 8.97361 8.91789
228 2 0.153569 2.14095 11.7082 9.66264
192 2 0.219222 -3.33495 14.665 11.2181
157 2 0.00813461 0.409535 12.501 8.57059
145 2 0.00472693 0.9086 8.16201 9.89498
205 2 0.146436 2.01995 9.71973 9.53288
248 2 0.138877 3.99774 9.2216 14.4529
245 2 0.0501098 -0.0461258 11.8926 16.5626
72 1 -0.644379 1.05909 14.2943 9.06743
249 2 0.161407 3.47522 10.2522 12.957
1 4 1.30723 14.2295 1.76621 3.5015
6 2 0.084722 11.3642 1.10228 0.698316
3 1 -0.6626 12.6343 2.08851 4.68876
213 2 0.120371 8.7612 0.801209 8.0825
5 3 -0.806387 13.6909 0.782498 2.30505
59 1 -0.643086 11.5526 6.58776 4.85894
7 2 0.144985 12.2274 1.04572 4.47452
8 2 0.170293 12.2483 2.95208 4.02403
9 2 0.175644 12.83 2.33115 5.78449
263 2 0.147343 11.062 5.69554 5.41683
109 3 -0.74647 6.81108 3.75462 6.45421
43 4 1.19565 9.22781 2.09547 3.20029
47 4 0.983119 9.14108 5.01911 2.4845
48 4 0.912275 6.21768 6.91257 4.43724
256 2 -0.0164499 13.0841 0.717137 6.13932
122 3 -0.783991 8.86624 0.834103 2.30171
123 3 -0.77903 8.12679 2.25812 4.37291
128 3 -0.806884 9.49163 3.47975 2.27334
129 3 -0.762072 6.16031 5.81354 3.29258
130 3 -0.763792 9.07742 5.80496 1.22109
158 2 -0.00801489 10.7286 1.85877 4.00518
161 2 -0.0132374 10.2254 5.69956 3.65352
162 2 0.154672 7.64969 5.20848 3.267
50 4 0.951497 8.37565 7.25786 6.27206
166 2 0.00407621 8.0986 6.11445 7.54306
163 2 0.00174326 4.89185 6.90225 5.50765
165 2 -0.00217701 10.0572 6.85803 6.16404
179 2 0.144684 11.9769 6.29477 3.7626
131 3 -0.817972 7.69594 6.77504 4.99211
236 2 0.227018 10.0794 3.67628 0.00870696
44 4 0.989318 8.75793 1.80239 10.162
49 4 1.19607 9.73899 7.5804 16.2051
46 4 1.26747 11.8927 1.78884 11.5794
237 2 0.169381 12.2525 3.34542 15.927
51 4 1.26846 6.79165 7.41318 14.4258
261 3 -0.77943 13.4217 6.33661 15.1585
271 2 0.161792 12.5945 1.19885 15.5493
73 1 -0.666009 12.0005 3.43072 12.5467
159 2 -0.0334725 8.88201 3.10585 9.09157
125 3 -0.811275 12.9242 2.29935 10.4014
126 3 -0.730987 10.1433 1.50903 10.9241
270 2 0.160792 13.7532 2.62527 15.6266
132 3 -0.795305 6.64186 6.13929 13.4201
133 3 -0.742895 8.22673 7.31393 15.5041
68 1 -0.67084 7.78111 4.7765 8.96704
12 4 1.56137 14.2416 2.30073 9.52293
134 3 -0.84373 5.46787 7.61913 15.3493