ITEM: TIMESTEP
0
ITEM: NUMBER OF ATOMS
274
ITEM: BOX BOUNDS xy xz yz pp pp pp
-7.3914999999999997e+00 1.6478000000000002e+01 -7.3914999999999997e+00
0.0000000000000000e+00 1.5100700000000000e+01 9.9190000000000000e-01
0.0000000000000000e+00 1.6771000000000001e+01 1.0307999999999999e+00
ITEM: ATOMS id type q x y z
152 2 -0.0232672 6.64798 2.3353 8.01688
13 4 1.53534 1.02853 1.76934 5.2826
15 4 1.2949 -0.107095 4.44422 1.84304
108 3 -0.796854 4.29347 3.7994 8.22151
17 4 1.31877 -0.311481 4.33468 7.24103
18 4 1.2557 -1.84026 6.88864 5.56521
27 4 1.27005 3.76348 2.48727 3.52222
28 4 1.36997 6.26142 2.76118 0.588908
30 4 1.28854 6.50889 2.52934 5.23031
33 4 1.48668 4.73842 4.96305 2.14741
34 4 1.034 0.466473 7.16619 3.47242
56 1 -0.675005 1.30213 3.44399 1.05706
58 1 -0.636593 1.04919 5.36271 8.00489
174 2 0.16021 -2.77147 6.88364 1.41359
65 1 -0.694608 6.29623 1.02411 6.59443
67 1 -0.675988 2.14713 7.21643 4.34969
163 2 0.0154179 4.65049 6.6269 5.84916
80 3 -0.832601 1.33696 0.579668 6.25197
195 2 0.212822 5.23624 1.22341 7.06837
83 3 -0.80166 -0.954658 5.0089 0.456999
85 3 -0.750153 0.452005 3.06782 6.14223
86 3 -0.75535 -1.08104 5.46416 6.51847
96 3 -0.804902 2.43788 2.15274 4.39437
97 3 -0.790917 6.80654 1.43232 1.3966
82 3 -0.761707 -1.08977 3.27307 2.65531
100 3 -0.798408 5.19884 2.38978 4.33906
103 3 -0.813613 3.51683 3.96383 2.89916
200 2 0.220762 2.51058 6.11283 4.28496
105 3 -0.764093 0.366216 5.66534 2.79734
107 3 -0.801454 4.05105 5.75178 0.829128
148 2 -0.0274786 3.85674 1.37158 2.20867
208 2 0.160627 3.64679 7.40434 7.94397
171 2 0.149017 0.870187 2.40148 1.30793
172 2 0.263665 2.29067 3.72673 1.67907
176 2 0.171974 1.02919 6.4042 7.63865
177 2 0.233695 1.93113 4.74101 7.56315
193 2 0.138185 7.06485 0.770865 7.46077
36 4 0.993945 5.88229 3.85878 7.72454
98 3 -0.868006 3.30318 1.19965 7.93943
26 4 1.46781 7.7383 0.201927 2.04132
267 2 0.14775 3.56538 1.71819 13.9312
14 4 1.23142 1.37009 2.51325 10.8044
19 4 1.21135 0.711404 5.1952 12.7478
20 4 1.02232 -0.590785 7.54536 10.8876
29 4 1.39896 3.57371 2.46793 8.8525
31 4 1.05989 4.65743 3.28871 15.4184
32 4 1.18341 5.75247 2.24074 11.4912
35 4 1.26351 4.5549 7.58788 16.3065
37 4 1.20693 5.68508 4.99457 12.8652
38 4 1.22098 2.02791 7.21374 14.7716
183 2 0.187535 -1.69958 6.11217 9.46165
61 1 -0.664667 -2.17659 6.8742 10.1769
66 1 -0.677795 4.29849 1.55529 14.7624
16 4 1.25208 -0.645438 7.04313 16.2174
114 3 -0.808465 0.584502 7.86924 15.2504
87 3 -0.777671 1.25154 3.76218 11.8748
88 3 -0.791429 0.153046 6.39946 11.7999
99 3 -0.767514 2.0249 2.98284 9.40182
101 3 -0.790396 5.89436 3.43309 16.3346
102 3 -0.82895 4.54941 2.0724 10.4739
178 2 0.201601 0.874122 5.21822 9.22911
110 3 -0.759886 4.96781 4.22051 14.1235
111 3 -0.784237 6.10193 3.88599 11.7172
112 3 -0.779473 2.00728 6.00684 13.7648
113 3 -0.828428 3.09661 7.11144 15.9891
124 3 -0.79574 7.19021 1.64156 11.0144
144 2 -0.00341297 2.1798 1.16289 11.4641
182 2 0.186671 -0.504177 4.79045 14.9214
149 2 -0.0036319 3.18205 3.78348 16.162
150 2 0.0033857 5.2151 1.61398 13.0054
153 2 -0.0130771 4.5616 5.99992 12.1219
196 2 0.101841 3.69897 1.21344 15.7463
60 1 -0.661229 -0.669292 4.52493 13.8076
170 2 0.196416 2.10439 4.89326 16.731
21 4 1.31483 -2.71646 9.63269 7.13157
23 4 1.25346 -3.45714 12.0673 5.43507
205 2 0.201653 0.864325 10.0449 8.29048
39 4 1.2336 -0.737062 12.1132 3.805
199 2 0.135328 2.84396 7.98849 3.94821
238 4 0.99429 1.08691 11.5424 0.570216
41 4 0.969308 -1.34762 12.0143 8.31906
89 3 -0.777916 -2.16299 8.20719 6.5116
91 3 -0.800829 -3.68802 10.5431 6.12855
92 3 -0.858302 -3.86825 13.2852 6.3851
11 4 1.5857 -4.92144 14.0374 7.30757
115 3 -0.815678 -0.532989 13.5711 3.27638
116 3 -0.844685 -2.07085 12.1068 4.73413
117 3 -0.827946 0.829263 13.0686 1.06944
118 3 -0.806958 -1.51472 10.5012 7.80214
120 3 -0.778633 0.585739 11.8152 4.65034
173 2 0.170074 -1.43339 8.21038 0.801125
146 2 -0.0328592 -4.50606 12.1576 4.16573
151 2 -0.00664079 0.417528 8.44533 2.22429
155 2 -0.0231765 -0.86686 11.0363 2.4034
156 2 0.0394785 -1.34735 13.2165 7.03818
70 1 -0.669513 3.90492 8.0038 7.01311
106 3 -0.786548 -0.764182 7.35083 4.47986
207 2 0.15907 3.28916 7.76463 6.01541
268 2 0.0312079 1.22393 10.4992 2.11162
240 1 -0.64565 -0.130259 9.88871 1.03756
269 2 0.135889 -1.14882 9.58042 1.49933
194 2 0.222075 -1.12489 14.3169 5.75384
246 2 0.164429 0.266877 9.08662 0.336743
57 1 -0.643896 -2.26463 7.43721 0.520293
198 2 0.164262 1.67359 7.51262 5.44401
40 4 1.12204 3.30626 9.75164 7.58257
204 2 0.144483 1.45919 8.25518 8.31759
24 4 1.01667 -1.32481 10.1903 12.4887
25 4 1.26883 -3.31435 12.1067 10.7394
247 2 0.162908 2.45527 9.86285 14.6794
63 1 -0.661353 -1.23597 10.0181 14.3436
64 1 -0.712806 -4.06609 13.6371 11.6107
69 1 -0.656454 1.67791 9.34608 8.64115
241 1 -0.690333 3.3434 10.2532 14.2188
93 3 -0.786401 -0.961661 8.84831 11.686
272 2 0.151995 -0.269299 14.2206 9.05503
95 3 -0.787954 -2.31879 11.2456 11.6753
119 3 -0.800871 -2.33589 12.48 9.4961
147 2 0.00733286 0.144256 10.9026 13.17
228 2 0.15387 2.26668 12.0966 9.77842
192 2 0.212557 -3.58756 14.5994 11.1945
72 1 -0.670227 0.910472 14.2651 8.97536
188 2 0.148285 -1.08774 11.0309 14.8624
189 2 0.260227 -0.452969 9.16413 14.6882
190 2 0.138257 -2.45221 9.59672 14.3382
191 2 0.183261 -5.21639 13.5898 11.5241
94 3 -0.778269 -4.72533 11.1839 10.0908
187 2 0.236989 -3.61659 9.41748 9.55867
154 2 0.00743701 2.64238 8.51818 13.7033
266 2 0.153548 -3.74882 13.421 12.6698
145 2 0.00951441 0.431509 8.06495 9.49534
206 2 0.144505 1.95045 9.4361 9.75779
157 2 -0.00798142 0.287408 12.3952 8.72797
245 2 0.0383598 0.436323 12.1362 16.5357
90 3 -0.846037 -5.69202 13.0364 8.39846
249 2 0.15126 3.03037 10.7271 13.2361
175 2 0.165449 -2.12366 8.92815 16.6311
62 1 -0.657707 -3.91661 9.01144 8.5378
197 2 0.157874 -2.20293 14.9543 14.5381
184 2 0.187137 -2.74217 7.68693 9.56873
262 2 -0.0177086 4.39853 9.23813 16.7639
1 4 1.29844 14.0692 1.81196 3.45645
6 2 0.109307 11.0069 0.431165 0.572504
3 1 -0.65563 12.6227 2.2363 4.76162
165 2 -0.0498036 9.59742 6.50868 6.17912
5 3 -0.7827 13.3438 0.79738 2.3667
59 1 -0.688687 12.0387 6.16498 4.79534
7 2 0.14518 12.0871 1.18791 4.57134
8 2 0.159118 12.2572 3.16794 4.10561
9 2 0.188383 13.1252 2.42181 5.7399
263 2 0.150555 11.9157 5.19811 5.40448
213 2 0.13928 8.76901 0.646669 8.04263
43 4 1.21952 9.22403 2.35433 3.53045
47 4 0.990096 9.13894 5.24466 2.73265
48 4 0.94389 5.66044 6.90451 4.4435
256 2 -0.00630497 12.9562 0.655489 5.9736
122 3 -0.771825 9.17069 1.06398 2.59908
123 3 -0.849702 8.02222 2.41531 4.56113
128 3 -0.82216 9.45281 3.75007 2.60022
129 3 -0.828343 5.27135 6.02359 3.16705
130 3 -0.771619 8.79208 5.93416 1.41302
158 2 -0.00494454 10.6863 2.17603 4.46015
161 2 -0.0296158 10.3654 6.08191 3.56748
162 2 0.0934274 7.85049 5.52577 3.71829
260 2 0.221455 8.66911 3.31203 0.0217789
166 2 -0.0140029 7.66899 5.93161 7.50755
50 4 0.882329 7.94979 7.04909 6.22923
131 3 -0.814722 7.22773 6.80736 4.81707
236 2 0.237971 10.8361 3.5698 0.924201
104 3 -0.816173 5.96152 3.93099 1.56302
180 2 0.148386 11.3735 7.0483 5.08704
179 2 0.17404 12.3302 6.00035 3.75144
254 3 -0.79012 14.0724 1.01832 8.29396
109 3 -0.785531 6.27316 4.01277 6.17732
79 3 -0.833385 15.2134 1.27119 4.35556
237 2 0.184519 12.4627 2.93483 0.119848
44 4 1.01894 8.46359 1.79404 10.0979
49 4 1.25945 9.62348 7.51644 16.5677
46 4 1.33645 11.4889 2.08592 11.4004
81 3 -0.792406 15.3767 1.99064 10.3291
51 4 1.20601 7.05327 7.35007 14.3202
259 2 0.180825 8.90916 3.24131 15.4729
257 1 -0.658644 8.72231 4.07909 16.1914
73 1 -0.662174 11.4492 3.70588 12.4929
159 2 -0.018979 8.25032 3.06506 8.93703
125 3 -0.758878 12.6423 2.23392 10.2353
126 3 -0.784119 9.96269 1.93892 10.7812
270 2 0.142986 13.4631 2.16552 15.6712
132 3 -0.747857 6.9747 5.83425 13.3457
133 3 -0.760959 8.34952 7.40424 15.4721
68 1 -0.683725 7.11868 4.66839 8.98154
12 4 1.54553 14.1247 2.26348 9.36512
134 3 -0.822515 5.5732 7.49059 15.102
202 2 0.245184 6.82372 4.33935 10.0394
214 2 0.187024 10.355 3.92139 12.3711
215 2 0.158436 12.1633 4.5049 12.1061
216 2 0.141132 11.8281 3.11838 13.4648
4 1 -0.645773 13.3334 1.14789 16.2594
231 4 1.0469 12.034 5.64381 15.5363
232 1 -0.664806 12.3179 4.28617 16.7018
233 3 -0.759468 10.8746 6.54122 16.0554
234 2 0.00537556 11.5704 4.90646 14.0438
235 2 0.13302 11.7254 3.44068 16.1325
258 2 0.225044 8.31006 5.03862 15.676
160 2 0.00515052 13.8429 1.02978 14.3655
181 2 0.156867 14.7156 3.4081 13.6331
185 2 0.172362 12.7926 6.4658 11.051
201 2 0.138442 8.23672 4.93962 8.84029
203 2 0.123001 6.4322 5.71835 8.88712
127 3 -0.81343 12.1407 1.00253 12.3113
261 3 -0.770525 13.4128 6.45833 15.3609
84 3 -0.805044 14.2619 3.61415 8.46235
264 2 0.166303 13.9189 5.2407 13.3038
225 2 0.193696 8.4651 12.2377 6.19722
52 4 0.992386 4.28408 10.8255 2.58907
53 4 1.03449 7.60321 9.97399 7.34462
212 2 0.193344 1.84344 14.0517 5.33033
217 2 0.155397 8.03705 8.88289 0.0735714
71 1 -0.664614 2.79129 13.4599 5.49229
211 2 0.194156 3.25417 13.5458 6.56484
76 1 -0.647415 5.85189 10.1868 3.42607
77 1 -0.668883 7.80415 11.2869 5.95245
250 2 0.121686 4.84415 9.21939 0.687778
135 3 -0.762633 4.74307 12.2667 1.91862
136 3 -0.796436 3.20073 11.1397 3.76031
137 3 -0.829509 7.76193 8.52275 6.79512
2 4 1.00204 5.22627 13.7092 1.36627
226 2 0.129209 6.71529 11.5361 5.7945
164 2 -0.0213196 5.07389 8.47973 4.14793
140 3 -0.769881 4.88635 13.2794 8.23156
167 2 -0.0065162 3.56777 9.84096 1.35366
168 2 0.0914151 6.00776 10.1986 7.97901
227 2 0.170195 8.27096 10.6141 5.1297
209 2 0.142196 5.0124 8.22364 6.81679
210 2 0.163969 3.56957 13.6489 4.59626
255 2 0.0132751 7.31917 12.974 6.85796
253 4 1.01074 6.08847 13.9804 7.44159
224 2 0.178107 6.75128 10.7884 3.20117
222 2 0.0986559 5.78911 9.13269 2.68603
223 2 0.164085 5.68004 10.051 4.53709
265 2 0.243375 10.656 9.53813 8.12844
42 4 1.21554 2.3258 11.6931 4.98141
274 2 0.147143 9.87843 8.42667 0.367174
121 3 -0.752887 2.88218 10.642 6.36324
22 4 1.45994 9.43507 11.8389 9.39477
54 4 1.20948 4.65612 12.0509 9.48659
55 4 1.28723 7.13601 12.1341 11.4664
75 1 -0.675877 7.23419 9.02226 13.4436
251 2 0.155108 6.42209 11.6602 16.2623
271 2 0.19379 5.55225 14.3681 15.6044
273 2 0.176397 1.61186 13.4891 9.50415
141 3 -0.807936 8.34041 12.3879 10.567
142 3 -0.82054 5.87868 11.9039 10.4588
143 3 -0.812086 6.88067 13.3243 12.4841
169 2 -0.00931772 7.38681 10.6958 12.392
78 1 -0.684669 3.11841 12.1822 10.5006
220 2 0.160077 8.17923 9.56599 13.7954
221 2 0.14127 6.28057 9.59939 13.5724
10 2 0.0439171 7.48326 14.6149 16.7099
239 4 1.04252 4.3512 11.6396 15.2363
139 3 -0.772114 4.45358 10.3972 8.4289
242 1 -0.658054 5.6559 10.7698 16.4454
243 3 -0.793061 5.05344 12.8983 14.2263
138 3 -0.771714 8.60166 10.5519 8.48078
218 2 0.152349 10.0818 9.47605 15.1922
244 3 -0.781097 3.22739 12.1352 16.2938
229 2 0.202529 3.21954 13.2316 10.9727
252 2 0.129303 5.84123 9.93439 15.6019
74 1 -0.63564 9.92616 9.33458 16.4041
45 4 1.22175 5.65248 14.0195 13.2195
219 2 0.140506 7.35015 8.60453 12.3591
248 2 0.133138 4.18562 9.53062 14.0961
230 2 0.145446 3.15661 11.3738 11.3357
186 2 0.162993 11.3406 7.91711 8.63561
ITEM: TIMESTEP
100
ITEM: NUMBER OF ATOMS
274
ITEM: BOX BOUNDS xy xz yz pp pp pp
-7.3859096666666666e+00 1.6478000000000002e+01 -7.3859096666666666e+00
0.0000000000000000e+00 1.5100700000000000e+01 9.9190000000000000e-01
0.0000000000000000e+00 1.6771000000000001e+01 1.0307999999999999e+00
ITEM: ATOMS id type q x y z
152 2 -0.0305596 6.49561 2.15116 8.15542
13 4 1.52321 0.985196 1.8185 5.38793
15 4 1.28351 -0.296963 4.38485 1.83716
108 3 -0.776748 4.34603 3.78132 8.22205
17 4 1.3243 -0.286673 4.12158 7.15836
18 4 1.25834 -1.88318 6.8018 5.52536
27 4 1.32108 3.839 2.55172 3.5999
79 3 -0.837986 -0.100092 1.48902 4.28826
30 4 1.316 6.45268 2.41846 5.21872
33 4 1.51792 4.81352 5.00322 2.09589
34 4 1.05219 0.443 7.22791 3.23171
56 1 -0.680397 1.21696 3.51232 1.09397
58 1 -0.647308 1.14768 5.05295 7.94352
109 3 -0.767748 6.2982 3.81512 6.32242
65 1 -0.718123 6.54793 0.966132 6.55992
170 2 0.215624 1.22497 4.0852 0.0832667
163 2 0.0275035 4.58158 6.5771 5.72269
80 3 -0.843033 1.20184 0.522988 6.30541
195 2 0.189921 5.49981 1.01364 6.86848
83 3 -0.763992 -1.2101 4.97794 0.568304
85 3 -0.847669 0.462317 3.14547 6.22907
86 3 -0.745603 -1.33754 5.45839 6.23866
96 3 -0.777876 2.5063 2.19167 4.46424
97 3 -0.830227 7.04419 1.33731 1.17796
82 3 -0.783503 -1.20346 3.27075 2.77101
100 3 -0.84635 5.25371 2.25231 4.26487
103 3 -0.80437 3.74096 4.00204 3.12445
200 2 0.208516 2.35114 6.27995 4.12901
105 3 -0.759775 0.400329 5.77601 2.57089
107 3 -0.850115 4.06544 5.61294 0.855334
148 2 -0.0249999 3.74259 1.52954 2.22897
208 2 0.151136 3.61928 7.34274 7.81829
171 2 0.149171 0.962506 2.39769 1.06782
172 2 0.233826 2.07622 3.83033 1.81825
176 2 0.155477 1.06305 6.08599 7.46355
177 2 0.255097 2.05619 4.41182 7.57155
193 2 0.138474 7.17805 0.692356 7.53741
36 4 0.996319 5.96642 3.72189 7.85795
98 3 -0.830575 3.38927 1.15521 8.07453
267 2 0.15817 3.99588 1.17938 13.7952
14 4 1.24011 1.38974 2.51703 10.8538
19 4 1.26586 0.887525 5.11851 12.787
20 4 0.988181 -0.463021 7.55895 10.8281
29 4 1.38527 3.6539 2.47877 8.99646
31 4 1.06637 4.70648 3.33927 15.482
32 4 1.19775 5.80255 2.40284 11.5365
35 4 1.2956 4.58098 7.44614 16.306
37 4 1.23082 5.60376 5.0293 13.0589
38 4 1.20582 2.01396 7.20313 14.6708
183 2 0.192302 -1.92356 6.1215 9.552
61 1 -0.665444 -2.14632 7.03733 10.1592
66 1 -0.646885 4.42716 1.5599 14.7539
16 4 1.30671 -0.630096 7.12445 16.1564
114 3 -0.822781 0.528765 7.70825 15.1705
87 3 -0.770903 1.45231 3.71705 11.9562
88 3 -0.773456 0.279249 6.36471 11.7556
99 3 -0.794983 2.22073 3.07184 9.6127
101 3 -0.80843 6.03005 3.37211 16.3165
102 3 -0.84226 4.63515 2.04008 10.5615
178 2 0.235886 1.05392 5.0497 9.00273
110 3 -0.804395 4.78221 4.22783 14.1903
111 3 -0.799502 5.84639 4.16665 11.7615
112 3 -0.790986 1.75328 5.69203 14.0119
113 3 -0.847048 3.10869 7.11508 15.8428
124 3 -0.835316 7.24322 1.88005 11.1878
144 2 0.000230918 2.13161 1.12676 11.5081
182 2 0.194883 -0.591296 4.43854 14.7607
149 2 0.00496733 3.4105 3.88736 16.5105
150 2 0.0144665 5.494 1.73251 13.076
153 2 -0.00753683 4.55339 6.22496 12.5721
196 2 0.0905665 3.67855 1.36852 15.7709
60 1 -0.645764 -0.692724 4.39532 13.5935
264 2 0.176506 -1.43399 5.11417 13.0911
197 2 0.165559 5.49364 1.16728 14.9205
21 4 1.25471 -2.66482 9.61752 7.0141
23 4 1.24922 -3.49501 11.9306 5.28336
90 3 -0.84201 -5.6875 13.1043 8.35141
39 4 1.28149 -0.654474 12.2038 3.913
199 2 0.127749 2.53719 8.23055 3.91969
238 4 1.02004 0.955987 11.5357 0.532703
41 4 0.983823 -1.35929 12.1323 8.22022
89 3 -0.782591 -2.31078 8.12758 6.41699
91 3 -0.805697 -3.60369 10.4178 5.969
92 3 -0.850746 -3.9629 13.0922 6.32729
11 4 1.53277 -4.94494 13.9933 7.24429
115 3 -0.839202 -0.54807 13.5872 3.20247
116 3 -0.851774 -2.10107 12.1541 4.6317
117 3 -0.805718 0.899605 12.977 1.11323
118 3 -0.769637 -1.27394 10.6598 7.78473
120 3 -0.841352 0.601042 11.7662 4.77614
173 2 0.176682 -1.52806 8.42239 0.664376
146 2 -0.026919 -4.63157 11.9166 4.08231
151 2 -0.0155516 0.699417 8.6506 2.18464
155 2 0.000234436 -0.933623 11.1369 2.62246
156 2 0.0402962 -1.61033 13.2695 6.94811
70 1 -0.663922 3.8334 7.96849 6.85488
106 3 -0.738502 -0.753188 7.39026 4.22537
207 2 0.168845 3.07844 7.69557 5.928
268 2 0.0401565 1.13435 10.3743 2.07225
240 1 -0.659946 -0.294856 9.96594 1.17765
269 2 0.151034 -1.20198 9.6244 1.72203
194 2 0.192787 -0.758114 14.221 5.75158
246 2 0.147529 0.0266546 9.15592 0.449489
57 1 -0.670389 -2.23608 7.62025 0.377543
198 2 0.177822 1.52417 7.50433 5.4615
40 4 1.09455 3.16305 9.57391 7.61886
204 2 0.193654 0.738465 8.76073 7.81163
121 3 -0.75006 2.68411 10.4735 6.42115
67 1 -0.667305 1.91586 7.34642 4.36776
174 2 0.169128 -2.71697 7.22507 1.33617
24 4 0.993084 -1.3176 10.2784 12.4595
25 4 1.34598 -3.32666 12.0462 10.5346
247 2 0.167762 2.47053 10.123 14.58
63 1 -0.666823 -1.30394 10.1283 14.3303
64 1 -0.681725 -3.98678 13.6518 11.3655
69 1 -0.639161 1.44943 9.20475 8.56543
241 1 -0.677051 3.46624 10.2658 14.171
93 3 -0.766832 -0.714218 8.94472 11.6163
272 2 0.141064 -0.160763 14.1209 9.18036
95 3 -0.766958 -2.50534 11.1974 11.8509
119 3 -0.846034 -2.37168 12.4859 9.40632
147 2 0.0188066 -0.0999276 11.2894 13.2567
228 2 0.142526 2.34728 11.972 9.97978
192 2 0.248138 -3.49678 14.6239 10.9988
72 1 -0.650672 0.948394 14.3977 9.12695
188 2 0.159274 -1.38637 11.0909 14.8969
189 2 0.225015 -0.56863 9.40802 14.7323
190 2 0.128978 -2.48422 9.52329 14.2088
191 2 0.201049 -5.13343 13.583 11.1084
94 3 -0.776789 -4.58084 11.2495 10.0474
187 2 0.230607 -3.60743 9.47879 9.4721
154 2 -0.013832 2.65749 8.35738 13.5894
266 2 0.15841 -3.81647 13.4667 12.5031
145 2 0.0044996 0.441762 7.72102 9.37666
206 2 0.128035 1.98202 8.50139 9.30209
157 2 -0.00632144 0.222991 12.6186 8.60978
245 2 0.0326871 0.275141 12.252 16.62
184 2 0.184957 -2.65115 7.84436 9.49043
205 2 0.18037 1.06885 10.1415 9.10323
175 2 0.167542 -1.99264 9.01108 16.3733
62 1 -0.656187 -3.82211 9.11074 8.41497
1 4 1.31482 14.0665 1.90437 3.61477
6 2 0.092908 11.3507 0.824617 0.808058
3 1 -0.669813 12.5796 2.07504 4.99654
165 2 -0.0311777 9.55754 7.33189 6.19663
5 3 -0.796093 13.4948 0.692252 2.47914
59 1 -0.661957 12.0311 6.38644 4.49406
7 2 0.152738 11.8672 1.25673 4.67258
8 2 0.144476 12.3788 3.16526 4.54295
9 2 0.154377 12.6882 2.15074 6.16278
263 2 0.160887 12.2013 5.28114 4.35686
213 2 0.108956 8.72852 0.972562 8.09002
43 4 1.18051 9.2366 2.44778 3.62745
47 4 0.974963 9.15035 5.26905 2.68657
48 4 0.989335 5.7237 6.89621 4.403
256 2 -0.0126243 12.8629 0.371304 5.95551
122 3 -0.786499 9.09075 0.880621 2.90607
123 3 -0.825321 8.0001 2.62951 4.5675
128 3 -0.835932 9.46084 3.72824 2.60452
129 3 -0.833419 5.25383 6.11579 3.11866
130 3 -0.764015 8.50098 6.01742 1.52711
158 2 -0.0186295 10.6642 2.35826 4.58881
161 2 -0.0273026 10.5422 6.09092 3.20005
162 2 0.0786046 8.21646 5.69626 3.97603
260 2 0.225306 8.33426 3.84161 0.21752
166 2 -0.01233 7.70237 6.02319 7.53182
50 4 0.87021 7.90943 7.23132 6.35098
131 3 -0.824104 7.17484 6.77621 4.93311
236 2 0.232193 10.579 3.39861 0.755736
104 3 -0.789324 5.97874 3.93446 1.43493
180 2 0.134834 11.2784 6.61696 5.33576
237 2 0.214961 12.4406 3.22943 0.312754
26 4 1.51072 7.82255 0.228511 2.10819
179 2 0.169502 11.8574 6.98666 3.59769
28 4 1.36045 6.40345 2.63995 0.509595
44 4 1.01742 8.43426 1.90194 10.2082
49 4 1.19854 9.60729 7.44942 16.5129
46 4 1.25102 11.6525 2.03465 11.3951
127 3 -0.767158 12.1752 0.858087 12.5729
51 4 1.30434 6.94506 7.29648 14.4932
259 2 0.175694 9.37321 3.56395 15.6207
257 1 -0.661002 8.74616 4.33929 16.1279
73 1 -0.62296 11.4062 3.60158 12.4671
159 2 -0.0195234 8.21946 3.48344 9.47377
125 3 -0.775713 12.662 2.5151 10.2502
126 3 -0.745923 9.99988 1.81621 10.7603
270 2 0.16062 13.4056 2.08503 15.6116
132 3 -0.773319 6.99589 5.83698 13.5516
133 3 -0.782901 8.13179 7.36952 15.5495
68 1 -0.68901 6.97102 4.93468 9.04112
12 4 1.49357 14.175 2.27706 9.38524
134 3 -0.902069 5.54891 7.52338 15.1214
202 2 0.241874 6.67271 4.66597 10.1239
214 2 0.181256 10.1917 3.56774 12.3076
215 2 0.163259 11.9559 4.51606 11.96
216 2 0.140151 11.8695 3.13132 13.5011
4 1 -0.647714 13.3714 1.31238 16.3461
231 4 1.02663 12.1225 5.6203 15.4288
232 1 -0.644319 12.3284 4.32557 16.7072
233 3 -0.777252 10.89 6.5021 15.9436
234 2 -0.0012248 11.8372 4.87817 13.8618
235 2 0.116937 12.038 3.37381 15.9582
258 2 0.248387 8.20356 5.02238 15.4087
81 3 -0.808751 15.2823 2.06993 10.504
181 2 0.172685 14.6626 3.34562 13.1809
185 2 0.159632 12.8109 6.87139 11.1638
201 2 0.133243 8.10484 5.00236 8.88656
203 2 0.159667 6.42439 5.85344 8.69901
160 2 -0.00947314 13.9517 0.936858 14.4428
84 3 -0.825569 14.357 3.60274 8.42026
261 3 -0.776368 13.56 6.33673 15.4863
254 3 -0.812787 14.1017 0.904689 8.39079
225 2 0.191281 8.27208 12.1652 5.83437
52 4 1.03361 4.23799 11.0529 2.39448
53 4 1.02657 7.38596 10.1053 7.44838
212 2 0.192018 1.89676 14.097 5.43236
274 2 0.160944 9.55098 8.31267 0.609927
71 1 -0.659683 2.73677 13.3275 5.38731
211 2 0.183966 3.27484 13.1915 6.39944
76 1 -0.639716 5.64227 10.1791 3.31979
77 1 -0.658094 7.66915 11.2053 5.87936
250 2 0.138483 5.00458 9.27962 0.615187
135 3 -0.799085 4.89759 12.3194 1.81267
136 3 -0.785287 3.14892 11.2341 3.55873
137 3 -0.837205 7.60815 8.66315 6.89854
2 4 1.03659 5.41478 13.8349 1.47264
226 2 0.123612 6.53825 11.3129 5.66674
164 2 -0.00897827 5.30437 8.52384 4.36055
140 3 -0.849757 4.94875 12.9807 8.15902
167 2 -0.00675123 3.6419 10.0562 1.08483
168 2 0.0906098 5.71821 10.1999 7.99903
227 2 0.174585 8.15949 10.2912 5.24488
209 2 0.142896 4.94346 8.05231 6.60949
210 2 0.194744 3.45974 13.3794 4.47303
255 2 0.0196442 7.31888 12.987 6.68746
253 4 1.00046 6.07332 13.9022 7.50113
224 2 0.178442 6.69394 10.6632 3.27667
222 2 0.112805 5.50744 9.14328 2.68252
223 2 0.166242 5.07882 10.2658 4.35839
265 2 0.227594 10.7444 9.68949 8.00664
42 4 1.20673 2.15172 11.5976 5.02695
262 2 -0.00946364 3.58701 8.09097 0.0527214
22 4 1.45138 9.33756 11.8817 9.29622
54 4 1.24989 4.74164 12.0224 9.38643
55 4 1.28594 7.15182 12.0859 11.4202
75 1 -0.675064 7.17625 8.80184 13.1678
251 2 0.130489 6.3994 11.6519 16.0194
271 2 0.175488 5.37075 14.4136 15.9384
217 2 0.172326 9.03921 9.79191 16.1798
141 3 -0.807913 8.49994 12.3784 10.6708
142 3 -0.843311 5.92591 11.8237 10.4071
143 3 -0.79976 6.87588 13.2804 12.3741
169 2 -0.00457472 7.21842 10.6374 12.4044
78 1 -0.664919 3.24371 12.5426 10.4556
220 2 0.151291 7.69106 9.59497 13.758
221 2 0.155609 6.123 8.97229 12.9379
248 2 0.141386 4.27043 9.48916 14.4988
239 4 1.05145 4.25931 11.6788 15.2097
139 3 -0.762329 4.27246 10.2288 8.61398
242 1 -0.666869 5.77 10.5837 16.3326
243 3 -0.797357 4.90875 12.8685 14.2726
138 3 -0.816784 8.48015 10.7618 8.49726
218 2 0.174018 10.7107 9.21665 15.5652
244 3 -0.795229 3.05401 12.1201 16.2187
229 2 0.220873 3.27134 13.68 10.3685
252 2 0.16393 6.04254 9.75059 15.6038
74 1 -0.668715 10.0024 9.23577 16.3619
45 4 1.19462 5.74532 13.9665 13.3954
219 2 0.170138 7.79364 8.31179 12.3449
273 2 0.188806 1.72167 13.6216 9.60398
230 2 0.184952 3.48583 12.1144 11.4643
249 2 0.152408 3.66609 10.7977 13.1036
186 2 0.166902 11.4753 7.98824 8.41543
10 2 0.0464137 7.60883 14.9504 16.7052
ITEM: TIMESTEP
200
ITEM: NUMBER OF ATOMS
274
ITEM: BOX BOUNDS xy xz yz pp pp pp
-7.3803193333333326e+00 1.6478000000000002e+01 -7.3803193333333326e+00
0.0000000000000000e+00 1.5100700000000000e+01 9.9190000000000000e-01
0.0000000000000000e+00 1.6771000000000001e+01 1.0307999999999999e+00
ITEM: ATOMS id type q x y z
152 2 -0.0206754 6.4722 2.05478 8.16362
13 4 1.55166 1.2087 1.89009 5.36516
15 4 1.28964 -0.310898 4.42881 1.81517
108 3 -0.746791 4.39317 3.66846 8.16309
17 4 1.29574 -0.242075 4.30738 7.08337
18 4 1.28795 -1.77218 6.82045 5.32742
27 4 1.3706 3.79347 2.6174 3.76494
79 3 -0.790676 -0.0435406 1.37046 4.29118
30 4 1.32176 6.49457 2.48872 5.2671
33 4 1.45157 4.87183 4.88935 2.09201
198 2 0.170593 1.63522 7.26175 5.17945
56 1 -0.675273 1.06725 3.4254 0.915095
58 1 -0.650439 1.14449 5.28111 7.90631
67 1 -0.697325 2.04818 7.21579 4.10891
65 1 -0.708328 6.52958 0.932751 6.51113
98 3 -0.892319 3.44069 1.09513 8.01478
163 2 0.0141258 4.66123 6.5224 5.71642
80 3 -0.835898 1.42385 0.663897 6.32201
195 2 0.198604 5.39875 0.870319 6.78313
83 3 -0.789176 -1.20407 4.99289 0.50033
85 3 -0.794775 0.471145 3.13854 6.25462
86 3 -0.764826 -1.16275 5.51171 6.08171
96 3 -0.86969 2.54542 2.34089 4.68962
97 3 -0.780414 7.09569 1.295 1.28333
82 3 -0.77051 -1.19323 3.44016 2.99959
100 3 -0.851904 5.15197 2.37951 4.42606
103 3 -0.822803 3.71108 3.96306 2.96717
200 2 0.217809 2.42707 6.1893 3.80364
105 3 -0.777865 0.334781 5.76241 2.50868
107 3 -0.818893 4.06489 5.6279 0.846197
148 2 -0.0163402 3.76845 1.42206 2.57874
208 2 0.163778 3.44498 7.18092 7.53033
171 2 0.148574 1.23277 2.39454 1.26513
172 2 0.240134 1.94778 4.12751 1.14737
176 2 0.157394 1.00545 6.32835 7.52416
177 2 0.225648 2.06814 4.72777 7.38592
193 2 0.144104 7.16368 0.76425 7.48716
36 4 1.02163 5.96133 3.59588 7.89927
34 4 1.0654 0.339384 7.19043 3.16966
174 2 0.165345 -2.78899 6.9258 1.37761
84 3 -0.763416 -1.07896 3.58929 8.37255
267 2 0.155945 3.56644 1.60809 14.0457
14 4 1.25515 1.42727 2.53147 11.0036
19 4 1.22515 0.80005 5.09671 12.708
20 4 1.00148 -0.40915 7.60525 10.8753
29 4 1.3827 3.56137 2.28849 9.00383
31 4 1.05658 4.82288 3.26192 15.5128
32 4 1.15188 5.87195 2.58962 11.5965
35 4 1.21443 4.4601 7.58083 16.4255
37 4 1.17554 5.41812 5.15049 13.0406
38 4 1.22367 2.05682 7.19446 14.7614
183 2 0.208137 -1.7432 5.96209 9.52968
61 1 -0.65748 -1.96562 6.86313 10.1045
66 1 -0.655177 4.36794 1.53564 14.8082
16 4 1.25609 -0.754812 7.14173 16.2336
114 3 -0.763497 0.646862 7.90476 15.3005
87 3 -0.802641 1.45355 3.67026 12.1441
88 3 -0.774865 0.325484 6.31717 11.5236
99 3 -0.811119 2.14844 2.89219 9.65604
101 3 -0.806152 6.12509 3.11134 16.4023
102 3 -0.825202 4.81854 2.03418 10.4229
178 2 0.233189 1.07306 5.15932 9.03432
110 3 -0.809273 4.87415 4.17628 14.2115
111 3 -0.790615 5.92403 4.28427 11.7349
112 3 -0.794437 1.85702 5.88935 13.9033
113 3 -0.816134 2.93801 7.09606 16.0704
124 3 -0.776087 7.38634 2.10693 11.3743
144 2 -0.00296111 2.17397 1.07962 11.7473
182 2 0.189675 -0.587967 4.54684 14.6015
149 2 0.000180557 3.44381 3.73516 16.4779
150 2 0.0210598 5.42867 2.01658 13.182
153 2 -0.0152133 4.18506 6.17917 12.5401
196 2 0.106825 3.89154 1.18815 15.9029
60 1 -0.67078 -0.770626 4.40819 13.4983
261 3 -0.775956 -1.8765 6.49618 15.223
81 3 -0.78861 -0.107178 2.16844 10.5386
170 2 0.188534 1.64186 4.46783 16.6139
185 2 0.150485 -2.42602 6.61238 11.1751
197 2 0.163377 5.27348 0.944928 14.4636
21 4 1.26986 -2.60003 9.52795 7.09184
23 4 1.24569 -3.61646 11.9244 5.22385
262 2 -0.0235856 3.30307 8.22897 0.0764697
39 4 1.2914 -0.74662 12.2016 3.89047
199 2 0.146312 2.65784 8.06254 3.82062
238 4 1.02518 1.00544 11.4676 0.577354
41 4 0.967368 -1.30056 12.1347 8.17541
89 3 -0.767162 -2.11827 8.15229 6.48224
91 3 -0.755706 -3.61781 10.4473 5.89414
92 3 -0.838848 -4.01025 12.9873 6.34264
11 4 1.5497 -4.8407 14.0169 7.33665
115 3 -0.836563 -0.498788 13.6668 3.31739
116 3 -0.842187 -2.15148 12.1576 4.5561
117 3 -0.802566 0.999109 12.9199 1.2195
118 3 -0.769776 -1.36549 10.5338 7.73245
120 3 -0.814146 0.456319 11.7356 4.74543
173 2 0.167529 -1.71134 8.43636 0.702822
146 2 -0.0378551 -4.75801 11.9821 3.99944
151 2 -0.00173661 0.226161 8.42701 1.92678
155 2 -0.00957845 -0.857668 10.9881 2.63373
156 2 0.0393861 -1.56617 13.1659 6.83461
70 1 -0.676882 3.744 7.90772 6.75214
106 3 -0.803546 -0.940405 7.35812 4.07264
207 2 0.166907 3.15548 7.62233 5.76438
268 2 0.0424323 0.96057 10.2248 2.02338
240 1 -0.656134 -0.440249 10.0161 0.988269
269 2 0.1406 -1.4071 10.0142 1.58657
194 2 0.200401 -0.628418 14.1641 5.78371
246 2 0.169853 -0.369313 9.10093 0.3462
57 1 -0.662226 -2.48455 7.53409 0.451393
121 3 -0.766505 2.49718 10.5242 6.26698
40 4 1.0309 3.06744 9.51894 7.6096
204 2 0.217407 0.576625 9.47905 8.26949
42 4 1.23459 2.11931 11.4997 5.05512
24 4 1.03333 -1.39021 10.2874 12.3126
25 4 1.2728 -3.37188 12.1118 10.524
247 2 0.14729 2.30356 10.0066 14.1938
63 1 -0.658589 -1.16467 10.1006 14.177
64 1 -0.694883 -3.94585 13.7349 11.3627
69 1 -0.668886 1.54966 9.02911 8.7043
241 1 -0.677041 3.42115 10.1185 13.8381
93 3 -0.80003 -0.759072 9.02801 11.6624
272 2 0.158176 -0.194253 14.4811 9.27792
95 3 -0.79571 -2.58605 11.206 11.6175
119 3 -0.818255 -2.27083 12.4322 9.33124
147 2 0.0153222 -0.149524 11.262 12.9691
62 1 -0.64865 -3.74951 9.011 8.46857
245 2 0.042966 0.315791 12.4068 16.5604
90 3 -0.827871 -5.67614 13.097 8.46906
188 2 0.148344 -1.00692 11.1412 14.6126
189 2 0.245372 -0.41609 9.30777 14.6173
190 2 0.146831 -2.31537 9.72786 14.3378
191 2 0.197072 -5.10913 13.6503 11.1432
94 3 -0.769995 -4.8355 11.2203 9.89126
187 2 0.22985 -3.53626 9.50057 9.50215
154 2 -0.00385191 2.63064 8.29774 13.5374
266 2 0.154585 -3.6228 13.459 12.4918
145 2 0.0299727 0.00420708 7.91137 9.2211
206 2 0.139603 1.67347 7.89106 8.48568
192 2 0.231311 -3.39338 14.6878 10.9736
157 2 -0.0111784 0.29186 12.7654 8.56442
184 2 0.177567 -2.59923 7.66975 9.51317
205 2 0.162441 1.75441 9.42672 9.73141
175 2 0.154442 -2.42842 8.87136 16.5986
1 4 1.28901 14.0786 1.97338 3.65459
6 2 0.125399 11.6034 1.22479 0.542652
3 1 -0.662293 12.6573 2.19495 4.96141
165 2 -0.0366857 9.47609 7.02808 5.85586
5 3 -0.792467 13.4871 0.869607 2.44281
59 1 -0.6627 12.0318 6.38597 4.42603
7 2 0.152553 12.0303 1.31058 4.50351
8 2 0.147727 12.2929 3.26087 4.51769
9 2 0.157584 12.746 2.17644 6.097
263 2 0.154391 12.114 5.26799 4.49365
213 2 0.0901067 8.77936 1.29322 8.17861
43 4 1.17861 9.27374 2.46644 3.64137
47 4 0.971532 8.97286 5.19774 2.66397
48 4 0.983501 5.75906 6.88426 4.45238
256 2 -0.0160233 13.1579 0.559163 6.06017
122 3 -0.729112 9.36746 0.960503 2.81034
123 3 -0.839126 7.9993 2.56632 4.59583
128 3 -0.823882 9.31423 3.66878 2.55601
129 3 -0.802544 5.56938 6.08534 3.18051
130 3 -0.764545 8.53938 5.93864 1.33662
158 2 -0.0274876 10.6829 2.46563 4.63773
161 2 -0.0301688 10.3268 5.97017 3.39524
162 2 0.0798259 7.85921 5.3868 3.851
26 4 1.46537 7.88732 0.163158 2.17488
166 2 -0.00635596 7.77878 5.9739 7.49359
50 4 0.901443 7.96487 7.2551 6.37371
131 3 -0.821284 7.22367 6.90929 4.9732
236 2 0.231104 10.3948 3.50321 0.683168
104 3 -0.786067 6.03811 3.84411 1.60901
180 2 0.143865 11.3205 6.8535 5.17966
237 2 0.188655 12.2746 3.41396 0.192609
179 2 0.178885 12.0596 6.78955 3.38897
109 3 -0.779192 6.40583 3.84607 6.40121
28 4 1.33635 6.45119 2.59905 0.504148
44 4 0.988561 8.59873 2.07982 10.2651
49 4 1.25082 9.64728 7.54586 16.4601
46 4 1.28188 11.6746 1.99492 11.467
260 2 0.222872 9.59839 4.53235 16.6345
51 4 1.31495 6.88796 7.34465 14.5308
259 2 0.192359 9.08759 3.11891 15.4699
257 1 -0.667772 8.80279 4.05443 16.0264
73 1 -0.64866 11.5609 3.54761 12.5377
159 2 -0.0271011 8.43021 3.5978 9.41883
125 3 -0.802438 12.7527 2.37484 10.3994
126 3 -0.763181 10.0874 1.97759 10.916
270 2 0.146264 13.7071 2.19754 15.4282
132 3 -0.766455 6.80774 6.02673 13.634
133 3 -0.770475 8.27635 7.48302 15.5164
68 1 -0.680404 7.00828 4.94919 9.00169
12 4 1.5174 14.1339 2.19382 9.46129
134 3 -0.881321 5.50559 7.62747 15.2122
202 2 0.242665 6.67264 4.59874 10.0813