ITEM: TIMESTEP
0
ITEM: NUMBER OF ATOMS
274
ITEM: BOX BOUNDS xy xz yz pp pp pp
-7.3914999999999997e+00 1.6478000000000002e+01 -7.3914999999999997e+00
0.0000000000000000e+00 1.5100700000000000e+01 9.9190000000000000e-01
0.0000000000000000e+00 1.6771000000000001e+01 1.0307999999999999e+00
ITEM: ATOMS id type q x y z
152 2 -0.0232672 6.64798 2.3353 8.01688
13 4 1.53534 1.02853 1.76934 5.2826
15 4 1.2949 -0.107095 4.44422 1.84304
108 3 -0.796854 4.29347 3.7994 8.22151
17 4 1.31877 -0.311481 4.33468 7.24103
18 4 1.2557 -1.84026 6.88864 5.56521
27 4 1.27005 3.76348 2.48727 3.52222
28 4 1.36997 6.26142 2.76118 0.588908
30 4 1.28854 6.50889 2.52934 5.23031
33 4 1.48668 4.73842 4.96305 2.14741
34 4 1.034 0.466473 7.16619 3.47242
56 1 -0.675005 1.30213 3.44399 1.05706
58 1 -0.636593 1.04919 5.36271 8.00489
174 2 0.16021 -2.77147 6.88364 1.41359
65 1 -0.694608 6.29623 1.02411 6.59443
67 1 -0.675988 2.14713 7.21643 4.34969
163 2 0.0154179 4.65049 6.6269 5.84916
80 3 -0.832601 1.33696 0.579668 6.25197
195 2 0.212822 5.23624 1.22341 7.06837
83 3 -0.80166 -0.954658 5.0089 0.456999
85 3 -0.750153 0.452005 3.06782 6.14223
86 3 -0.75535 -1.08104 5.46416 6.51847
96 3 -0.804902 2.43788 2.15274 4.39437
97 3 -0.790917 6.80654 1.43232 1.3966
82 3 -0.761707 -1.08977 3.27307 2.65531
100 3 -0.798408 5.19884 2.38978 4.33906
103 3 -0.813613 3.51683 3.96383 2.89916
200 2 0.220762 2.51058 6.11283 4.28496
105 3 -0.764093 0.366216 5.66534 2.79734
107 3 -0.801454 4.05105 5.75178 0.829128
148 2 -0.0274786 3.85674 1.37158 2.20867
208 2 0.160627 3.64679 7.40434 7.94397
171 2 0.149017 0.870187 2.40148 1.30793
172 2 0.263665 2.29067 3.72673 1.67907
176 2 0.171974 1.02919 6.4042 7.63865
177 2 0.233695 1.93113 4.74101 7.56315
193 2 0.138185 7.06485 0.770865 7.46077
36 4 0.993945 5.88229 3.85878 7.72454
98 3 -0.868006 3.30318 1.19965 7.93943
26 4 1.46781 7.7383 0.201927 2.04132
267 2 0.14775 3.56538 1.71819 13.9312
14 4 1.23142 1.37009 2.51325 10.8044
19 4 1.21135 0.711404 5.1952 12.7478
20 4 1.02232 -0.590785 7.54536 10.8876
29 4 1.39896 3.57371 2.46793 8.8525
31 4 1.05989 4.65743 3.28871 15.4184
32 4 1.18341 5.75247 2.24074 11.4912
35 4 1.26351 4.5549 7.58788 16.3065
37 4 1.20693 5.68508 4.99457 12.8652
38 4 1.22098 2.02791 7.21374 14.7716
183 2 0.187535 -1.69958 6.11217 9.46165
61 1 -0.664667 -2.17659 6.8742 10.1769
66 1 -0.677795 4.29849 1.55529 14.7624
16 4 1.25208 -0.645438 7.04313 16.2174
114 3 -0.808465 0.584502 7.86924 15.2504
87 3 -0.777671 1.25154 3.76218 11.8748
88 3 -0.791429 0.153046 6.39946 11.7999
99 3 -0.767514 2.0249 2.98284 9.40182
101 3 -0.790396 5.89436 3.43309 16.3346
102 3 -0.82895 4.54941 2.0724 10.4739
178 2 0.201601 0.874122 5.21822 9.22911
110 3 -0.759886 4.96781 4.22051 14.1235
111 3 -0.784237 6.10193 3.88599 11.7172
112 3 -0.779473 2.00728 6.00684 13.7648
113 3 -0.828428 3.09661 7.11144 15.9891
124 3 -0.79574 7.19021 1.64156 11.0144
144 2 -0.00341297 2.1798 1.16289 11.4641
182 2 0.186671 -0.504177 4.79045 14.9214
149 2 -0.0036319 3.18205 3.78348 16.162
150 2 0.0033857 5.2151 1.61398 13.0054
153 2 -0.0130771 4.5616 5.99992 12.1219
196 2 0.101841 3.69897 1.21344 15.7463
60 1 -0.661229 -0.669292 4.52493 13.8076
170 2 0.196416 2.10439 4.89326 16.731
21 4 1.31483 -2.71646 9.63269 7.13157
23 4 1.25346 -3.45714 12.0673 5.43507
205 2 0.201653 0.864325 10.0449 8.29048
39 4 1.2336 -0.737062 12.1132 3.805
199 2 0.135328 2.84396 7.98849 3.94821
238 4 0.99429 1.08691 11.5424 0.570216
41 4 0.969308 -1.34762 12.0143 8.31906
89 3 -0.777916 -2.16299 8.20719 6.5116
91 3 -0.800829 -3.68802 10.5431 6.12855
92 3 -0.858302 -3.86825 13.2852 6.3851
11 4 1.5857 -4.92144 14.0374 7.30757
115 3 -0.815678 -0.532989 13.5711 3.27638
116 3 -0.844685 -2.07085 12.1068 4.73413
117 3 -0.827946 0.829263 13.0686 1.06944
118 3 -0.806958 -1.51472 10.5012 7.80214
120 3 -0.778633 0.585739 11.8152 4.65034
173 2 0.170074 -1.43339 8.21038 0.801125
146 2 -0.0328592 -4.50606 12.1576 4.16573
151 2 -0.00664079 0.417528 8.44533 2.22429
155 2 -0.0231765 -0.86686 11.0363 2.4034
156 2 0.0394785 -1.34735 13.2165 7.03818
70 1 -0.669513 3.90492 8.0038 7.01311
106 3 -0.786548 -0.764182 7.35083 4.47986
207 2 0.15907 3.28916 7.76463 6.01541
268 2 0.0312079 1.22393 10.4992 2.11162
240 1 -0.64565 -0.130259 9.88871 1.03756
269 2 0.135889 -1.14882 9.58042 1.49933
194 2 0.222075 -1.12489 14.3169 5.75384
246 2 0.164429 0.266877 9.08662 0.336743
57 1 -0.643896 -2.26463 7.43721 0.520293
198 2 0.164262 1.67359 7.51262 5.44401
40 4 1.12204 3.30626 9.75164 7.58257
204 2 0.144483 1.45919 8.25518 8.31759
24 4 1.01667 -1.32481 10.1903 12.4887
25 4 1.26883 -3.31435 12.1067 10.7394
247 2 0.162908 2.45527 9.86285 14.6794
63 1 -0.661353 -1.23597 10.0181 14.3436
64 1 -0.712806 -4.06609 13.6371 11.6107
69 1 -0.656454 1.67791 9.34608 8.64115
241 1 -0.690333 3.3434 10.2532 14.2188
93 3 -0.786401 -0.961661 8.84831 11.686
272 2 0.151995 -0.269299 14.2206 9.05503
95 3 -0.787954 -2.31879 11.2456 11.6753
119 3 -0.800871 -2.33589 12.48 9.4961
147 2 0.00733286 0.144256 10.9026 13.17
228 2 0.15387 2.26668 12.0966 9.77842
192 2 0.212557 -3.58756 14.5994 11.1945
72 1 -0.670227 0.910472 14.2651 8.97536
188 2 0.148285 -1.08774 11.0309 14.8624
189 2 0.260227 -0.452969 9.16413 14.6882
190 2 0.138257 -2.45221 9.59672 14.3382
191 2 0.183261 -5.21639 13.5898 11.5241
94 3 -0.778269 -4.72533 11.1839 10.0908
187 2 0.236989 -3.61659 9.41748 9.55867
154 2 0.00743701 2.64238 8.51818 13.7033
266 2 0.153548 -3.74882 13.421 12.6698
145 2 0.00951441 0.431509 8.06495 9.49534
206 2 0.144505 1.95045 9.4361 9.75779
157 2 -0.00798142 0.287408 12.3952 8.72797
245 2 0.0383598 0.436323 12.1362 16.5357
90 3 -0.846037 -5.69202 13.0364 8.39846
249 2 0.15126 3.03037 10.7271 13.2361
175 2 0.165449 -2.12366 8.92815 16.6311
62 1 -0.657707 -3.91661 9.01144 8.5378
197 2 0.157874 -2.20293 14.9543 14.5381
184 2 0.187137 -2.74217 7.68693 9.56873
262 2 -0.0177086 4.39853 9.23813 16.7639
1 4 1.29844 14.0692 1.81196 3.45645
6 2 0.109307 11.0069 0.431165 0.572504
3 1 -0.65563 12.6227 2.2363 4.76162
165 2 -0.0498036 9.59742 6.50868 6.17912
5 3 -0.7827 13.3438 0.79738 2.3667
59 1 -0.688687 12.0387 6.16498 4.79534
7 2 0.14518 12.0871 1.18791 4.57134
8 2 0.159118 12.2572 3.16794 4.10561
9 2 0.188383 13.1252 2.42181 5.7399
263 2 0.150555 11.9157 5.19811 5.40448
213 2 0.13928 8.76901 0.646669 8.04263
43 4 1.21952 9.22403 2.35433 3.53045
47 4 0.990096 9.13894 5.24466 2.73265
48 4 0.94389 5.66044 6.90451 4.4435
256 2 -0.00630497 12.9562 0.655489 5.9736
122 3 -0.771825 9.17069 1.06398 2.59908
123 3 -0.849702 8.02222 2.41531 4.56113
128 3 -0.82216 9.45281 3.75007 2.60022
129 3 -0.828343 5.27135 6.02359 3.16705
130 3 -0.771619 8.79208 5.93416 1.41302
158 2 -0.00494454 10.6863 2.17603 4.46015
161 2 -0.0296158 10.3654 6.08191 3.56748
162 2 0.0934274 7.85049 5.52577 3.71829
260 2 0.221455 8.66911 3.31203 0.0217789
166 2 -0.0140029 7.66899 5.93161 7.50755
50 4 0.882329 7.94979 7.04909 6.22923
131 3 -0.814722 7.22773 6.80736 4.81707
236 2 0.237971 10.8361 3.5698 0.924201
104 3 -0.816173 5.96152 3.93099 1.56302
180 2 0.148386 11.3735 7.0483 5.08704
179 2 0.17404 12.3302 6.00035 3.75144
254 3 -0.79012 14.0724 1.01832 8.29396
109 3 -0.785531 6.27316 4.01277 6.17732
79 3 -0.833385 15.2134 1.27119 4.35556
237 2 0.184519 12.4627 2.93483 0.119848
44 4 1.01894 8.46359 1.79404 10.0979
49 4 1.25945 9.62348 7.51644 16.5677
46 4 1.33645 11.4889 2.08592 11.4004
81 3 -0.792406 15.3767 1.99064 10.3291
51 4 1.20601 7.05327 7.35007 14.3202
259 2 0.180825 8.90916 3.24131 15.4729
257 1 -0.658644 8.72231 4.07909 16.1914
73 1 -0.662174 11.4492 3.70588 12.4929
159 2 -0.018979 8.25032 3.06506 8.93703
125 3 -0.758878 12.6423 2.23392 10.2353
126 3 -0.784119 9.96269 1.93892 10.7812
270 2 0.142986 13.4631 2.16552 15.6712
132 3 -0.747857 6.9747 5.83425 13.3457
133 3 -0.760959 8.34952 7.40424 15.4721
68 1 -0.683725 7.11868 4.66839 8.98154
12 4 1.54553 14.1247 2.26348 9.36512
134 3 -0.822515 5.5732 7.49059 15.102
202 2 0.245184 6.82372 4.33935 10.0394
214 2 0.187024 10.355 3.92139 12.3711
215 2 0.158436 12.1633 4.5049 12.1061
216 2 0.141132 11.8281 3.11838 13.4648
4 1 -0.645773 13.3334 1.14789 16.2594
231 4 1.0469 12.034 5.64381 15.5363
232 1 -0.664806 12.3179 4.28617 16.7018
233 3 -0.759468 10.8746 6.54122 16.0554
234 2 0.00537556 11.5704 4.90646 14.0438
235 2 0.13302 11.7254 3.44068 16.1325
258 2 0.225044 8.31006 5.03862 15.676
160 2 0.00515052 13.8429 1.02978 14.3655
181 2 0.156867 14.7156 3.4081 13.6331
185 2 0.172362 12.7926 6.4658 11.051
201 2 0.138442 8.23672 4.93962 8.84029
203 2 0.123001 6.4322 5.71835 8.88712
127 3 -0.81343 12.1407 1.00253 12.3113
261 3 -0.770525 13.4128 6.45833 15.3609
84 3 -0.805044 14.2619 3.61415 8.46235
264 2 0.166303 13.9189 5.2407 13.3038
225 2 0.193696 8.4651 12.2377 6.19722
52 4 0.992386 4.28408 10.8255 2.58907
53 4 1.03449 7.60321 9.97399 7.34462
212 2 0.193344 1.84344 14.0517 5.33033
217 2 0.155397 8.03705 8.88289 0.0735714
71 1 -0.664614 2.79129 13.4599 5.49229
211 2 0.194156 3.25417 13.5458 6.56484
76 1 -0.647415 5.85189 10.1868 3.42607
77 1 -0.668883 7.80415 11.2869 5.95245
250 2 0.121686 4.84415 9.21939 0.687778
135 3 -0.762633 4.74307 12.2667 1.91862
136 3 -0.796436 3.20073 11.1397 3.76031
137 3 -0.829509 7.76193 8.52275 6.79512
2 4 1.00204 5.22627 13.7092 1.36627
226 2 0.129209 6.71529 11.5361 5.7945
164 2 -0.0213196 5.07389 8.47973 4.14793
140 3 -0.769881 4.88635 13.2794 8.23156
167 2 -0.0065162 3.56777 9.84096 1.35366
168 2 0.0914151 6.00776 10.1986 7.97901
227 2 0.170195 8.27096 10.6141 5.1297
209 2 0.142196 5.0124 8.22364 6.81679
210 2 0.163969 3.56957 13.6489 4.59626
255 2 0.0132751 7.31917 12.974 6.85796
253 4 1.01074 6.08847 13.9804 7.44159
224 2 0.178107 6.75128 10.7884 3.20117
222 2 0.0986559 5.78911 9.13269 2.68603
223 2 0.164085 5.68004 10.051 4.53709
265 2 0.243375 10.656 9.53813 8.12844
42 4 1.21554 2.3258 11.6931 4.98141
274 2 0.147143 9.87843 8.42667 0.367174
121 3 -0.752887 2.88218 10.642 6.36324
22 4 1.45994 9.43507 11.8389 9.39477
54 4 1.20948 4.65612 12.0509 9.48659
55 4 1.28723 7.13601 12.1341 11.4664
75 1 -0.675877 7.23419 9.02226 13.4436
251 2 0.155108 6.42209 11.6602 16.2623
271 2 0.19379 5.55225 14.3681 15.6044
273 2 0.176397 1.61186 13.4891 9.50415
141 3 -0.807936 8.34041 12.3879 10.567
142 3 -0.82054 5.87868 11.9039 10.4588
143 3 -0.812086 6.88067 13.3243 12.4841
169 2 -0.00931772 7.38681 10.6958 12.392
78 1 -0.684669 3.11841 12.1822 10.5006
220 2 0.160077 8.17923 9.56599 13.7954
221 2 0.14127 6.28057 9.59939 13.5724
10 2 0.0439171 7.48326 14.6149 16.7099
239 4 1.04252 4.3512 11.6396 15.2363
139 3 -0.772114 4.45358 10.3972 8.4289
242 1 -0.658054 5.6559 10.7698 16.4454
243 3 -0.793061 5.05344 12.8983 14.2263
138 3 -0.771714 8.60166 10.5519 8.48078
218 2 0.152349 10.0818 9.47605 15.1922
244 3 -0.781097 3.22739 12.1352 16.2938
229 2 0.202529 3.21954 13.2316 10.9727
252 2 0.129303 5.84123 9.93439 15.6019
74 1 -0.63564 9.92616 9.33458 16.4041
45 4 1.22175 5.65248 14.0195 13.2195
219 2 0.140506 7.35015 8.60453 12.3591
248 2 0.133138 4.18562 9.53062 14.0961
230 2 0.145446 3.15661 11.3738 11.3357
186 2 0.162993 11.3406 7.91711 8.63561
ITEM: TIMESTEP
100
ITEM: NUMBER OF ATOMS
274
ITEM: BOX BOUNDS xy xz yz pp pp pp
-7.3914999999999997e+00 1.6482689966666669e+01 -7.3914999999999997e+00
0.0000000000000000e+00 1.5100700000000000e+01 9.9658996666666688e-01
0.0000000000000000e+00 1.6771000000000001e+01 1.0307999999999999e+00
ITEM: ATOMS id type q x y z
152 2 -0.0305607 6.49562 2.15114 8.15544
13 4 1.52321 0.985197 1.8185 5.38793
15 4 1.28348 -0.296928 4.38482 1.83713
108 3 -0.776749 4.34602 3.7813 8.22207
17 4 1.32431 -0.286672 4.12158 7.15836
18 4 1.25833 -1.88318 6.8018 5.52536
27 4 1.32109 3.83898 2.55173 3.59988
79 3 -0.837985 -0.100094 1.48902 4.28826
30 4 1.316 6.45267 2.41845 5.21872
33 4 1.51792 4.81352 5.00323 2.09589
34 4 1.05218 0.443017 7.22793 3.23172
56 1 -0.680424 1.21693 3.51218 1.09395
58 1 -0.647307 1.14768 5.05295 7.94352
109 3 -0.767747 6.29819 3.81511 6.32242
65 1 -0.718131 6.54795 0.966141 6.55993
170 2 0.215591 1.22437 4.08479 0.0830767
163 2 0.0275033 4.58158 6.5771 5.7227
80 3 -0.843031 1.20184 0.522988 6.30541
195 2 0.18992 5.49984 1.01361 6.86851
83 3 -0.76399 -1.21012 4.97795 0.568321
85 3 -0.847668 0.462317 3.14547 6.22907
86 3 -0.745602 -1.33754 5.45839 6.23866
96 3 -0.777868 2.5063 2.19167 4.46424
97 3 -0.830223 7.04418 1.3373 1.17796
82 3 -0.783489 -1.20348 3.27073 2.77102
100 3 -0.846349 5.2537 2.25233 4.26486
103 3 -0.804365 3.7409 4.00204 3.12438
200 2 0.208517 2.3511 6.27993 4.12896
105 3 -0.759763 0.40035 5.77603 2.5709
107 3 -0.850119 4.06544 5.61298 0.855321
148 2 -0.0250004 3.74259 1.52952 2.22898
208 2 0.151136 3.61928 7.34274 7.8183
171 2 0.149184 0.962755 2.39749 1.06832
172 2 0.233852 2.07626 3.83077 1.81771
176 2 0.155478 1.06306 6.08599 7.46355
177 2 0.255099 2.05619 4.41182 7.57155
193 2 0.138485 7.17806 0.692411 7.53737
36 4 0.99632 5.96641 3.72187 7.85796
98 3 -0.830571 3.38927 1.15522 8.07454
267 2 0.158156 3.99538 1.182 13.7947
14 4 1.24009 1.38975 2.51702 10.8538
19 4 1.26586 0.887526 5.11851 12.787
20 4 0.988181 -0.46302 7.55895 10.8281
29 4 1.38528 3.65392 2.47877 8.99649
31 4 1.06642 4.70651 3.33919 15.4819
32 4 1.1977 5.80252 2.4028 11.5365
35 4 1.29561 4.58097 7.44614 16.3061
37 4 1.23079 5.60375 5.02932 13.0589
38 4 1.20582 2.01396 7.20312 14.6708
183 2 0.192303 -1.92356 6.1215 9.552
61 1 -0.665445 -2.14632 7.03733 10.1592
66 1 -0.64722 4.4272 1.55996 14.7543
16 4 1.30671 -0.630109 7.12445 16.1564
114 3 -0.822777 0.528764 7.70824 15.1705
87 3 -0.770916 1.45231 3.71705 11.9562
88 3 -0.773454 0.27925 6.36471 11.7556
99 3 -0.794984 2.22074 3.07184 9.61269
101 3 -0.808438 6.03 3.37216 16.3164
102 3 -0.842283 4.63517 2.04012 10.5616
178 2 0.235887 1.05392 5.0497 9.00273
110 3 -0.804418 4.7822 4.22783 14.1903
111 3 -0.799485 5.84641 4.16671 11.7615
112 3 -0.79099 1.75327 5.69202 14.0119
113 3 -0.847035 3.10868 7.11504 15.8428
124 3 -0.835288 7.24324 1.88004 11.1879
144 2 0.00021322 2.13161 1.12674 11.5081
182 2 0.194876 -0.591306 4.43853 14.7607
149 2 0.00497523 3.41056 3.88718 16.5106
150 2 0.0144187 5.49373 1.73236 13.0765
153 2 -0.00753734 4.55328 6.22503 12.5721
196 2 0.0909361 3.68026 1.36714 15.7697
60 1 -0.645765 -0.692728 4.39532 13.5935
264 2 0.176507 -1.434 5.11415 13.0911
197 2 0.165614 5.49386 1.16781 14.9196
21 4 1.25471 -2.66482 9.61752 7.0141
23 4 1.24922 -3.49501 11.9306 5.28336
90 3 -0.842009 -5.6875 13.1043 8.35141
39 4 1.28149 -0.654473 12.2038 3.913
199 2 0.127748 2.53712 8.23055 3.91965
238 4 1.02004 0.955984 11.5357 0.532704
41 4 0.983825 -1.35929 12.1323 8.22022
89 3 -0.78259 -2.31078 8.12758 6.417
91 3 -0.805696 -3.60369 10.4178 5.969
92 3 -0.850745 -3.9629 13.0922 6.32729
11 4 1.53277 -4.94494 13.9933 7.2443
115 3 -0.839203 -0.54807 13.5872 3.20248
116 3 -0.851774 -2.10107 12.1541 4.6317
117 3 -0.805716 0.899604 12.977 1.11323
118 3 -0.769638 -1.27394 10.6598 7.78472
120 3 -0.841352 0.601041 11.7662 4.77615
173 2 0.176683 -1.52806 8.42239 0.664372
146 2 -0.02692 -4.63157 11.9166 4.08231
151 2 -0.0155555 0.699413 8.65059 2.18466
155 2 0.000234881 -0.93363 11.1369 2.62246
156 2 0.0402938 -1.61031 13.2695 6.94812
70 1 -0.66392 3.83341 7.96849 6.85489
106 3 -0.738499 -0.753188 7.39027 4.22537
207 2 0.168845 3.07844 7.69558 5.92799
268 2 0.0401546 1.13435 10.3743 2.07225
240 1 -0.659947 -0.294859 9.96594 1.17765
269 2 0.151035 -1.20198 9.62441 1.72203
194 2 0.192784 -0.758087 14.221 5.75158
246 2 0.147528 0.026654 9.15592 0.449493
57 1 -0.670387 -2.23608 7.62025 0.377535
198 2 0.177826 1.52414 7.50432 5.46148
40 4 1.09455 3.16305 9.57391 7.61886
204 2 0.193654 0.738464 8.76074 7.81163
121 3 -0.75006 2.68411 10.4735 6.42115
67 1 -0.667313 1.91585 7.34642 4.36776
174 2 0.169128 -2.71697 7.22507 1.33617
24 4 0.993087 -1.3176 10.2784 12.4595
25 4 1.34598 -3.32666 12.0462 10.5346
247 2 0.167761 2.47052 10.123 14.58
63 1 -0.666821 -1.30394 10.1283 14.3303
64 1 -0.681726 -3.98681 13.6518 11.3656
69 1 -0.639162 1.44943 9.20475 8.56543
241 1 -0.677048 3.46624 10.2658 14.171
93 3 -0.766832 -0.714216 8.94472 11.6163
272 2 0.141061 -0.160786 14.121 9.18053
95 3 -0.766955 -2.50534 11.1974 11.8509
119 3 -0.846037 -2.37168 12.4859 9.40632
147 2 0.0188091 -0.0999282 11.2894 13.2567
228 2 0.142526 2.34726 11.972 9.97978
192 2 0.248113 -3.49678 14.6239 10.9988
72 1 -0.650669 0.948444 14.3977 9.12694
188 2 0.159279 -1.38638 11.0909 14.8969
189 2 0.225015 -0.568629 9.40803 14.7323
190 2 0.128981 -2.48422 9.52329 14.2088
191 2 0.201051 -5.13345 13.5829 11.1084
94 3 -0.776788 -4.58084 11.2495 10.0474
187 2 0.230607 -3.60743 9.47879 9.4721
154 2 -0.013834 2.6575 8.35737 13.5894
266 2 0.158434 -3.81653 13.4667 12.5031
145 2 0.00450011 0.441762 7.72102 9.37666
206 2 0.128035 1.98202 8.50138 9.30209
157 2 -0.00632313 0.222923 12.6187 8.60981
245 2 0.0326906 0.275137 12.252 16.62
184 2 0.184956 -2.65115 7.84436 9.49043
205 2 0.180369 1.06885 10.1415 9.10323
175 2 0.167544 -1.99264 9.01108 16.3732
62 1 -0.656188 -3.82211 9.11074 8.41497
1 4 1.31483 14.0665 1.90437 3.61478
6 2 0.0929302 11.351 0.824476 0.807815
3 1 -0.669816 12.5796 2.07504 4.99654
165 2 -0.0311772 9.55754 7.33191 6.19663
5 3 -0.796093 13.4948 0.69225 2.47915
59 1 -0.661956 12.0311 6.38645 4.49406
7 2 0.152738 11.8672 1.25673 4.67258
8 2 0.14448 12.3788 3.16524 4.54295
9 2 0.154376 12.6882 2.15074 6.16278
263 2 0.16089 12.2013 5.28115 4.35686
213 2 0.108957 8.72856 0.972564 8.08996
43 4 1.18051 9.23659 2.44778 3.62745
47 4 0.974964 9.15035 5.26905 2.68656
48 4 0.989332 5.7237 6.89621 4.403
256 2 -0.012625 12.8629 0.371304 5.95551
122 3 -0.786497 9.09075 0.88062 2.90607
123 3 -0.825318 8.00009 2.62951 4.56749
128 3 -0.835931 9.46084 3.72824 2.60452
129 3 -0.83342 5.25383 6.11578 3.11866
130 3 -0.764012 8.50096 6.01742 1.52709
158 2 -0.0186298 10.6642 2.35826 4.58879
161 2 -0.0273024 10.5422 6.09091 3.20004
162 2 0.078604 8.21646 5.69628 3.976
260 2 0.225308 8.33432 3.84158 0.217483
166 2 -0.0123265 7.70237 6.02316 7.53181
50 4 0.87021 7.90943 7.23132 6.35098
131 3 -0.824104 7.17484 6.77621 4.93311
236 2 0.232194 10.579 3.39859 0.755759
104 3 -0.789321 5.97873 3.93446 1.43494
180 2 0.134832 11.2784 6.61696 5.33577
237 2 0.214962 12.4406 3.22945 0.312724
26 4 1.51072 7.82254 0.228513 2.10819
179 2 0.169504 11.8574 6.98666 3.59769
28 4 1.36043 6.4034 2.63994 0.509581
44 4 1.01742 8.43428 1.90193 10.2082
49 4 1.19856 9.60729 7.44942 16.5129
46 4 1.25102 11.6525 2.03465 11.3951
127 3 -0.767162 12.1752 0.858076 12.5728
51 4 1.30433 6.94507 7.29652 14.4933
259 2 0.17569 9.3732 3.56394 15.6207
257 1 -0.660987 8.74617 4.3393 16.1279
73 1 -0.622958 11.4063 3.60157 12.4671
159 2 -0.0195275 8.21947 3.48335 9.47374
125 3 -0.775714 12.662 2.5151 10.2502
126 3 -0.745919 9.99988 1.81621 10.7603
270 2 0.160625 13.4056 2.08505 15.6117
132 3 -0.773301 6.99591 5.83701 13.5516
133 3 -0.782914 8.13182 7.36954 15.5495
68 1 -0.689003 6.97102 4.93469 9.0411
12 4 1.49357 14.175 2.27706 9.38524
134 3 -0.902061 5.54891 7.5234 15.1215
202 2 0.24188 6.6727 4.66599 10.1239
214 2 0.181258 10.1917 3.56773 12.3076
215 2 0.163261 11.9559 4.51603 11.96
216 2 0.14015 11.8695 3.13131 13.5011
4 1 -0.647734 13.3713 1.31241 16.3461
231 4 1.02662 12.1224 5.62028 15.4288
232 1 -0.644321 12.3284 4.32557 16.7072
233 3 -0.777249 10.89 6.50211 15.9436
234 2 -0.00122532 11.8372 4.87816 13.8618
235 2 0.116935 12.038 3.37386 15.9582
258 2 0.248388 8.20364 5.02246 15.4087
81 3 -0.808748 15.2823 2.06993 10.504
181 2 0.172682 14.6626 3.34562 13.1809
185 2 0.159632 12.8109 6.87139 11.1638
201 2 0.13324 8.10487 5.00232 8.88652
203 2 0.15967 6.42444 5.85347 8.699
160 2 -0.00947282 13.9519 0.936858 14.443
84 3 -0.825568 14.357 3.60274 8.42026
261 3 -0.776363 13.56 6.33673 15.4863
254 3 -0.812786 14.1017 0.904689 8.39079
225 2 0.191281 8.27208 12.1652 5.83436
52 4 1.03361 4.23799 11.0529 2.39448
53 4 1.02657 7.38596 10.1053 7.44838
212 2 0.192017 1.89676 14.097 5.43236
274 2 0.160936 9.55189 8.31261 0.609595
71 1 -0.659682 2.73677 13.3275 5.38731
211 2 0.183965 3.27484 13.1915 6.39944
76 1 -0.639716 5.64227 10.1791 3.31979
77 1 -0.658094 7.66915 11.2053 5.87936
250 2 0.138479 5.0045 9.27955 0.615179
135 3 -0.799087 4.89759 12.3194 1.81267
136 3 -0.785287 3.14892 11.2341 3.55874
137 3 -0.837205 7.60815 8.66316 6.89854
2 4 1.03657 5.41476 13.8349 1.47266
226 2 0.123612 6.53825 11.3129 5.66673
164 2 -0.0089773 5.30438 8.52384 4.36054
140 3 -0.849758 4.94875 12.9807 8.15903
167 2 -0.00675831 3.64193 10.0562 1.08487
168 2 0.0906099 5.71821 10.1999 7.99902
227 2 0.174585 8.15949 10.2912 5.24488
209 2 0.142897 4.94346 8.0523 6.60949
210 2 0.194744 3.45974 13.3794 4.47303
255 2 0.0196449 7.31888 12.987 6.68746
253 4 1.00046 6.07332 13.9022 7.50113
224 2 0.178443 6.69394 10.6632 3.27666
222 2 0.1128 5.50739 9.14331 2.68249
223 2 0.166242 5.07882 10.2658 4.35839
265 2 0.227594 10.7444 9.68949 8.00664
42 4 1.20673 2.15172 11.5976 5.02695
262 2 -0.00946554 3.58714 8.09085 0.0527305
22 4 1.45138 9.33755 11.8817 9.29622
54 4 1.24989 4.74164 12.0224 9.38643
55 4 1.28594 7.15181 12.0859 11.4203
75 1 -0.675068 7.17624 8.80184 13.1678
251 2 0.130496 6.39939 11.6519 16.0195
271 2 0.175492 5.37079 14.4136 15.9384
217 2 0.172344 9.03953 9.79186 16.1805
141 3 -0.807912 8.49993 12.3784 10.6708
142 3 -0.843312 5.92591 11.8237 10.4071
143 3 -0.799769 6.87588 13.2805 12.3741
169 2 -0.00457516 7.21841 10.6374 12.4044
78 1 -0.664921 3.2437 12.5426 10.4556
220 2 0.151293 7.69107 9.59496 13.758
221 2 0.155611 6.12301 8.9723 12.9379
248 2 0.141384 4.27042 9.48914 14.4988
239 4 1.05144 4.2593 11.6788 15.2097
139 3 -0.762329 4.27246 10.2288 8.61398
242 1 -0.666872 5.77 10.5837 16.3326
243 3 -0.797353 4.90874 12.8685 14.2726
138 3 -0.816783 8.48015 10.7618 8.49726
218 2 0.174026 10.7105 9.21672 15.5648
244 3 -0.795227 3.054 12.1201 16.2187
229 2 0.220872 3.27136 13.68 10.3684
252 2 0.163928 6.04259 9.75063 15.6037
74 1 -0.668736 10.0026 9.23575 16.3619
45 4 1.19463 5.7453 13.9665 13.3954
219 2 0.170141 7.79363 8.31177 12.3449
273 2 0.188803 1.72171 13.6216 9.60395
230 2 0.184953 3.48582 12.1144 11.4643
249 2 0.152406 3.66609 10.7977 13.1036
186 2 0.166901 11.4753 7.98824 8.41543
10 2 0.0464088 7.60882 14.9505 16.705
ITEM: TIMESTEP
200
ITEM: NUMBER OF ATOMS
274
ITEM: BOX BOUNDS xy xz yz pp pp pp
-7.3914999999999997e+00 1.6487379933333333e+01 -7.3914999999999997e+00
0.0000000000000000e+00 1.5100700000000000e+01 1.0012799333333327e+00
0.0000000000000000e+00 1.6771000000000001e+01 1.0307999999999999e+00
ITEM: ATOMS id type q x y z
152 2 -0.0202168 6.47365 2.05359 8.16009
13 4 1.55168 1.20974 1.89014 5.36497
15 4 1.2899 -0.31257 4.42954 1.81516
108 3 -0.746708 4.39378 3.66974 8.16192
17 4 1.29578 -0.242194 4.3071 7.08336
18 4 1.28792 -1.77237 6.82013 5.3271
27 4 1.3709 3.79429 2.61734 3.76529
79 3 -0.791134 -0.0431487 1.37055 4.29289
30 4 1.32208 6.49459 2.4887 5.26845
33 4 1.45159 4.87082 4.88984 2.09154
198 2 0.170551 1.63455 7.26145 5.1793
56 1 -0.675218 1.06659 3.42536 0.915503
58 1 -0.650375 1.1446 5.28082 7.90585
67 1 -0.697423 2.04881 7.21569 4.10916
65 1 -0.70808 6.53401 0.933137 6.51025
98 3 -0.892197 3.44311 1.09637 8.01419
163 2 0.014192 4.66122 6.52252 5.71633
80 3 -0.835131 1.42539 0.663506 6.32085
195 2 0.198625 5.40273 0.876144 6.77474
83 3 -0.789224 -1.20575 4.99251 0.500714
85 3 -0.794702 0.471819 3.13837 6.25552
86 3 -0.764807 -1.16251 5.51136 6.08139
96 3 -0.869734 2.54604 2.34177 4.68909
97 3 -0.77962 7.09641 1.29369 1.28323
82 3 -0.770087 -1.19344 3.44201 3.00085
100 3 -0.852022 5.1523 2.37851 4.42687
103 3 -0.822591 3.71072 3.9632 2.96797
200 2 0.217799 2.42703 6.18914 3.80387
105 3 -0.778093 0.333499 5.76303 2.50807
107 3 -0.818798 4.06241 5.6278 0.84673
148 2 -0.0163701 3.76894 1.42205 2.57865
208 2 0.163752 3.44512 7.18121 7.53096
171 2 0.148493 1.2342 2.39288 1.2621
172 2 0.240392 1.94482 4.12698 1.14859
176 2 0.157399 1.00531 6.32805 7.52386
177 2 0.225709 2.06802 4.72735 7.38515
193 2 0.143576 7.17207 0.76349 7.48949
36 4 1.02145 5.96221 3.59659 7.89874
34 4 1.06538 0.339536 7.19019 3.1701
174 2 0.164913 -2.79426 6.92172 1.37961
84 3 -0.76338 -1.07874 3.58969 8.37334
267 2 0.156493 3.57172 1.60436 14.046
14 4 1.2553 1.4274 2.5318 11.0041
19 4 1.22486 0.800686 5.09516 12.7074
20 4 1.00136 -0.409045 7.60503 10.8755
29 4 1.38263 3.56184 2.28939 9.00316
31 4 1.05658 4.82484 3.26089 15.5125
32 4 1.15168 5.87155 2.58983 11.5961
35 4 1.21408 4.46097 7.58064 16.4251
37 4 1.17531 5.41853 5.15047 13.0406
38 4 1.2239 2.05816 7.19353 14.7624
183 2 0.208187 -1.74288 5.96226 9.52981
61 1 -0.657453 -1.96546 6.86312 10.1045
66 1 -0.654635 4.3719 1.53583 14.8059
16 4 1.25559 -0.752244 7.14124 16.2342
114 3 -0.763679 0.648779 7.90517 15.2992
87 3 -0.803151 1.45473 3.66892 12.1455
88 3 -0.774768 0.325618 6.31659 11.5234
99 3 -0.811087 2.14819 2.89213 9.65531
101 3 -0.806368 6.12811 3.11064 16.4016
102 3 -0.825267 4.818 2.0347 10.4228
178 2 0.233097 1.07295 5.15865 9.034
110 3 -0.809146 4.87556 4.17687 14.2124
111 3 -0.790748 5.92571 4.28401 11.7352
112 3 -0.794263 1.85749 5.88908 13.9036
113 3 -0.816317 2.9393 7.09509 16.0717
124 3 -0.775828 7.38696 2.1055 11.3729
144 2 -0.00233822 2.17616 1.07567 11.749
182 2 0.189941 -0.585791 4.54694 14.5999
149 2 -0.000217876 3.44659 3.72744 16.4781
150 2 0.0206465 5.42855 2.01607 13.1763
153 2 -0.0152482 4.18494 6.17842 12.5393
196 2 0.105174 3.89046 1.19045 15.9113
60 1 -0.67105 -0.770429 4.40795 13.4977
197 2 0.163942 5.27933 0.950553 14.4638
81 3 -0.788959 -0.106548 2.16896 10.54
170 2 0.188709 1.64459 4.46978 16.6148
261 3 -0.775506 -1.87602 6.49482 15.225
185 2 0.150439 -2.42565 6.61229 11.1754
21 4 1.26989 -2.60068 9.52753 7.092
23 4 1.24544 -3.61803 11.9243 5.22374
262 2 -0.0234809 3.30038 8.23018 0.0757378
39 4 1.2917 -0.747859 12.2014 3.89124
199 2 0.146368 2.65963 8.062 3.82211
238 4 1.0253 1.00292 11.4692 0.577791
41 4 0.966729 -1.30136 12.1342 8.17596
89 3 -0.767083 -2.11882 8.15171 6.48188
91 3 -0.755611 -3.61927 10.4477 5.89506
92 3 -0.838709 -4.01254 12.9885 6.34172
11 4 1.54896 -4.8429 14.0162 7.33711
115 3 -0.836309 -0.501674 13.6659 3.31663
116 3 -0.84212 -2.15192 12.1562 4.55774
117 3 -0.802712 0.995686 12.9218 1.21863
118 3 -0.769707 -1.36664 10.5321 7.73278
120 3 -0.814035 0.45554 11.7363 4.74564
173 2 0.168087 -1.71251 8.42976 0.705239
146 2 -0.0379224 -4.75814 11.9814 3.99807
151 2 -0.0016399 0.226247 8.42903 1.92556
155 2 -0.00938045 -0.856958 10.9857 2.63449
156 2 0.0392473 -1.57176 13.167 6.83836
70 1 -0.676799 3.74443 7.90765 6.7523
106 3 -0.803523 -0.940693 7.35865 4.07259
207 2 0.166886 3.15561 7.62165 5.76429
268 2 0.0422898 0.959024 10.2292 2.01955
240 1 -0.655668 -0.443439 10.0153 0.989922
269 2 0.140624 -1.40997 10.0131 1.58982
194 2 0.199946 -0.631191 14.1563 5.79439
246 2 0.169723 -0.371672 9.09773 0.350623
57 1 -0.66235 -2.48624 7.53448 0.453009
121 3 -0.766572 2.49743 10.5241 6.2674
40 4 1.03104 3.06756 9.51867 7.60976
204 2 0.217419 0.576575 9.47898 8.26967
42 4 1.2342 2.11952 11.4997 5.05554
24 4 1.0334 -1.39039 10.2876 12.3125
25 4 1.27244 -3.37336 12.1121 10.5251
247 2 0.147424 2.30413 10.0066 14.1941
63 1 -0.65872 -1.16535 10.1006 14.1768
64 1 -0.695495 -3.94655 13.7345 11.3646
69 1 -0.668886 1.54953 9.02912 8.70431
241 1 -0.676428 3.4211 10.1183 13.8367
93 3 -0.79994 -0.759293 9.02799 11.6624
272 2 0.158627 -0.198035 14.4769 9.27653
95 3 -0.795593 -2.58632 11.2062 11.6177
119 3 -0.817841 -2.27161 12.4333 9.33181
147 2 0.0154316 -0.150063 11.2617 12.9695
62 1 -0.648675 -3.75024 9.01051 8.46856
245 2 0.0431434 0.317194 12.4023 16.5591
90 3 -0.82802 -5.67842 13.0961 8.46864
188 2 0.148455 -1.00654 11.1412 14.6125
189 2 0.245361 -0.416334 9.30777 14.6155
190 2 0.146984 -2.31572 9.72874 14.3377
191 2 0.197309 -5.10795 13.643 11.1419
94 3 -0.770202 -4.83523 11.2206 9.89152
187 2 0.229894 -3.5366 9.50044 9.50184
154 2 -0.00356609 2.63427 8.29657 13.5382
266 2 0.154985 -3.62076 13.459 12.4917
145 2 0.0300174 0.00413216 7.91124 9.22114
206 2 0.139548 1.67357 7.89087 8.48534
192 2 0.23168 -3.39566 14.6873 10.9737
157 2 -0.012211 0.287849 12.7658 8.56134
184 2 0.177599 -2.59925 7.66951 9.51325
205 2 0.162427 1.75434 9.42645 9.73137
175 2 0.154685 -2.41955 8.8775 16.597
1 4 1.28781 14.0802 1.97409 3.65716
6 2 0.125804 11.6018 1.22466 0.543182
3 1 -0.661862 12.6575 2.19622 4.96245
165 2 -0.0367732 9.47602 7.02768 5.85581
5 3 -0.791991 13.4892 0.870692 2.43899
59 1 -0.662672 12.0315 6.38582 4.42562
7 2 0.152041 12.0317 1.31001 4.49854
8 2 0.147675 12.2924 3.26275 4.51806
9 2 0.157416 12.7394 2.17627 6.09813
263 2 0.154386 12.1133 5.2678 4.49269
213 2 0.0900089 8.78044 1.29028 8.172
43 4 1.17773 9.2746 2.46819 3.64127
47 4 0.970671 8.973 5.19818 2.66501
48 4 0.983597 5.75901 6.88399 4.45194
256 2 -0.0159301 13.1618 0.559118 6.05809
122 3 -0.728779 9.36902 0.960984 2.80833
123 3 -0.838651 7.99912 2.56789 4.59521
128 3 -0.823558 9.31678 3.66922 2.55487
129 3 -0.80253 5.56882 6.08516 3.18001
130 3 -0.764087 8.53611 5.93923 1.33755
158 2 -0.0274682 10.6829 2.46513 4.63882
161 2 -0.0301715 10.3267 5.97253 3.39502
162 2 0.0796429 7.85997 5.38357 3.8532
26 4 1.46612 7.89007 0.163624 2.17438
166 2 -0.00612559 7.77701 5.97247 7.49609
50 4 0.901398 7.96468 7.25551 6.37323
131 3 -0.821369 7.22349 6.90926 4.97292
236 2 0.23132 10.3794 3.50742 0.676946
104 3 -0.786053 6.03637 3.84406 1.60833
180 2 0.143806 11.3202 6.85326 5.1795
237 2 0.188387 12.2703 3.40216 0.210748
179 2 0.178848 12.0594 6.79003 3.38858
109 3 -0.779605 6.40609 3.84572 6.40066
28 4 1.33594 6.4481 2.59884 0.503085
44 4 0.989394 8.59983 2.08079 10.266
49 4 1.25021 9.64798 7.54686 16.46
46 4 1.28232 11.6767 1.99435 11.468
260 2 0.222293 9.60426 4.52764 16.63
51 4 1.31469 6.8878 7.34514 14.5306
259 2 0.192348 9.08388 3.11678 15.4656
257 1 -0.667625 8.80422 4.0524 16.0263
73 1 -0.649053 11.5627 3.54745 12.5397
159 2 -0.0270388 8.43155 3.59944 9.41941
125 3 -0.802474 12.7533 2.37424 10.3983
126 3 -0.762806 10.0892 1.97908 10.9181
270 2 0.146242 13.71 2.19803 15.4251
132 3 -0.766244 6.80823 6.02734 13.6342
133 3 -0.770279 8.27748 7.48397 15.5179
68 1 -0.680771 7.00888 4.95063 9.00229
12 4 1.51792 14.1352 2.194 9.46209
134 3 -0.881473 5.50527 7.62757 15.2103
202 2 0.242677 6.67277 4.59969 10.0812