ITEM: TIMESTEP
0
ITEM: NUMBER OF ATOMS
274
ITEM: BOX BOUNDS xy xz yz pp pp pp
-7.3914999999999997e+00 1.6478000000000002e+01 -7.3914999999999997e+00
0.0000000000000000e+00 1.5100700000000000e+01 9.9190000000000000e-01
0.0000000000000000e+00 1.6771000000000001e+01 1.0307999999999999e+00
ITEM: ATOMS id type q x y z
98 3 -0.811352 3.63625 1.16323 8.22399
13 4 1.56468 1.26244 1.98556 5.47085
15 4 1.24539 0.0116822 4.45019 1.58041
65 1 -0.6783 6.54472 0.565175 6.2686
17 4 1.24224 -0.349052 4.4468 7.37504
18 4 1.22981 -2.0554 6.66959 5.59309
27 4 1.24041 3.81895 2.93906 3.95348
101 3 -0.790658 4.36871 2.16917 0.0159964
30 4 1.34488 6.69008 2.34535 5.51736
33 4 1.45886 4.85564 5.15825 2.23881
177 2 0.24151 1.88674 4.58655 8.16295
56 1 -0.671069 1.47244 3.63173 0.679493
26 4 1.48123 7.52963 0.16356 1.97995
97 3 -0.799523 6.71807 1.42126 1.08609
28 4 1.34613 6.0041 2.6892 0.5801
176 2 0.160894 1.11412 6.25294 7.33342
200 2 0.225427 2.75706 6.67258 3.87793
80 3 -0.838306 1.64489 0.761136 6.43792
82 3 -0.734434 -0.620456 3.27449 2.85363
83 3 -0.805304 -1.14203 4.66418 0.369484
85 3 -0.740892 0.313167 3.09142 6.36857
86 3 -0.75303 -1.36607 5.47266 6.53156
96 3 -0.84664 2.56962 2.65023 4.86711
106 3 -0.753135 -0.824824 7.07741 4.33279
213 2 0.18327 7.76303 0.863027 7.87415
100 3 -0.802846 5.36748 2.66453 4.67487
103 3 -0.796494 3.83024 4.53021 3.38833
58 1 -0.668207 1.02373 5.39338 8.12322
105 3 -0.751592 0.410477 5.93471 2.34349
107 3 -0.831237 3.98679 5.82952 0.983668
148 2 -0.00411493 3.79809 1.83881 2.69423
195 2 0.183335 6.37182 0.598004 7.40612
171 2 0.147902 1.52577 2.57948 1.18352
172 2 0.257349 2.42187 4.19555 0.738042
79 3 -0.818564 0.288253 1.33885 4.32341
36 4 1.04802 5.95293 4.17941 7.86208
261 3 -0.773843 -1.94491 6.44689 15.197
14 4 1.31433 1.35112 2.34592 10.7246
19 4 1.23811 0.734132 4.72499 12.6594
20 4 0.99405 -0.720155 7.26343 10.9715
29 4 1.48971 3.86353 2.42525 9.20679
31 4 1.0671 4.45894 3.03889 15.5436
32 4 1.2061 5.89155 2.60798 11.6069
111 3 -0.794228 5.61434 4.15772 11.7046
37 4 1.21961 5.05566 4.86462 13.1333
38 4 1.2448 2.24635 6.89562 14.6403
60 1 -0.673691 -0.316234 3.82252 13.8841
35 4 1.24902 4.46855 7.53084 16.4511
66 1 -0.639896 4.74358 1.35821 14.6533
184 2 0.175598 -2.05036 7.15329 9.06442
61 1 -0.660867 -1.99451 6.38018 9.96192
87 3 -0.850105 1.20069 3.56087 11.7768
88 3 -0.754755 0.0254659 6.04142 11.8266
99 3 -0.817633 2.24576 2.86562 9.55542
124 3 -0.799522 7.44053 2.37256 10.9655
102 3 -0.818533 4.73513 1.85249 10.6866
16 4 1.31459 -0.600137 6.80829 16.1184
110 3 -0.847989 4.79767 3.80685 14.2241
267 2 0.154572 4.36576 1.12804 13.6449
112 3 -0.797398 2.15343 5.67657 13.6487
113 3 -0.865074 3.32264 6.68159 15.6967
114 3 -0.805727 0.766348 7.16615 15.2842
144 2 -0.00386806 2.23029 1.05861 11.4717
149 2 -0.0151309 2.84963 3.23628 16.1154
108 3 -0.839452 4.62331 3.58875 8.47499
150 2 0.00460401 5.89862 1.84234 13.1132
153 2 0.0728297 3.53908 5.63905 12.7803
170 2 0.1945 1.94514 4.76719 16.3647
182 2 0.178562 0.130438 3.98073 14.879
183 2 0.273709 -1.63838 5.33667 9.6161
178 2 0.183873 0.786395 5.76285 9.14951
197 2 0.157252 5.95666 1.2861 14.6679
21 4 1.2572 -2.95505 9.54885 7.18634
23 4 1.31427 -3.60017 12.0104 5.56269
238 4 0.979304 0.760857 11.5286 0.420886
39 4 1.23383 -1.02285 12.2142 3.85479
40 4 1.05858 2.85672 9.78771 7.48816
207 2 0.171208 3.14042 7.91306 5.67694
246 2 0.146523 -0.508056 8.96241 0.565743
89 3 -0.772019 -2.39907 7.90241 6.50062
91 3 -0.815494 -3.84731 10.5315 6.06388
92 3 -0.877293 -3.81785 13.1622 6.61742
175 2 0.167923 -3.43851 7.14843 0.237165
115 3 -0.816182 -0.946297 13.5738 3.01473
116 3 -0.874448 -2.2897 12.1559 4.75162
117 3 -0.796971 0.609533 13.0063 0.92254
11 4 1.57007 -4.71485 14.1483 7.45137
120 3 -0.793739 0.424946 12.1239 4.65205
121 3 -0.764971 2.33865 10.8348 6.32747
146 2 -0.0230851 -4.79029 12.2088 4.35448
151 2 -0.0208049 -0.0428473 8.71571 2.30986
155 2 -0.0166647 -1.02985 10.9171 2.65938
156 2 0.027299 -0.97962 12.8893 7.32376
208 2 0.15107 3.72604 7.60766 7.52409
199 2 0.101185 2.14635 8.53287 3.70115
240 1 -0.641956 -0.684374 10.0125 0.995902
118 3 -0.855191 -1.94218 10.432 7.9368
268 2 0.00994836 0.678418 10.4133 1.97961
193 2 0.192307 0.0621773 14.0014 5.97529
205 2 0.184048 0.377271 9.63893 8.02484
269 2 0.147308 -1.70273 10.0927 1.41296
194 2 0.240468 -1.74709 14.3347 5.65221
57 1 -0.676728 -2.27457 7.32567 0.310753
70 1 -0.661833 3.73225 8.27168 6.64274
67 1 -0.657811 1.93199 7.41507 4.10671
34 4 1.03241 0.282878 7.26913 3.25696
198 2 0.176623 1.57072 7.42912 5.18231
174 2 0.169986 -1.9931 7.16387 1.37333
262 2 -0.00325879 3.05873 8.16328 0.117068
24 4 0.993818 -2.12233 9.63397 12.8195
25 4 1.2313 -3.22437 11.9628 10.8277
266 2 0.150924 -3.4306 13.2311 12.7798
63 1 -0.650096 -2.92058 9.43991 14.4783
64 1 -0.683036 -3.95511 13.48 11.7251
204 2 0.114781 1.68708 8.24993 8.60851
245 2 0.0433471 0.15043 12.1324 16.3624
93 3 -0.765322 -1.40724 8.34186 11.923
94 3 -0.775974 -4.55084 11.3594 10.0258
95 3 -0.789568 -2.63368 10.91 11.9633
119 3 -0.773236 -1.82443 12.5557 9.64542
147 2 0.0162301 -1.14456 10.2231 14.197
154 2 -0.0125768 2.62862 8.30092 13.641
157 2 -0.00472564 0.343535 11.1133 8.90246
189 2 0.187157 -2.29873 8.94509 15.4008
188 2 0.152948 -3.66392 10.2832 14.8211
272 2 0.114792 1.06192 13.9992 9.57306
206 2 0.144864 1.30496 9.83996 9.75797
191 2 0.184851 -5.09635 13.4492 11.7275
196 2 0.115933 -3.21499 14.8511 15.543
249 2 0.143501 2.20056 10.2949 14.4247
187 2 0.205744 -3.55604 8.92844 9.56822
145 2 5.93941e-05 0.312844 8.03042 9.82848
192 2 0.238864 -3.51336 14.4402 11.3299
69 1 -0.654381 1.23357 9.38946 8.72049
241 1 -0.658276 3.30216 10.1371 14.0366
41 4 1.00091 -1.25856 11.7387 8.5352
90 3 -0.80637 -5.70063 13.3526 8.74091
247 2 0.137178 3.91102 9.18224 14.4923
173 2 0.147181 -0.847242 9.31422 16.5839
1 4 1.33113 14.5132 1.80199 3.42998
6 2 0.0718985 11.6761 1.12654 0.903554
3 1 -0.674503 12.837 2.07613 4.4967
263 2 0.13209 11.388 5.4797 5.74323
5 3 -0.829458 13.9701 0.865243 2.23619
255 2 0.0142159 13.6493 0.70864 5.71673
7 2 0.137989 12.376 1.05879 4.25196
8 2 0.166526 12.4419 2.89886 3.80273
9 2 0.143 12.682 2.33293 5.57194
50 4 0.8834 8.37797 7.25111 6.15882
256 2 -0.0279824 11.3817 0.700673 6.95861
43 4 1.15102 9.31813 2.09411 3.60044
47 4 0.97022 9.07569 4.72999 2.51688
48 4 0.913182 6.25511 7.25272 4.23695
59 1 -0.664096 11.5745 6.14714 4.80256
122 3 -0.746407 8.91685 0.725762 2.71637
123 3 -0.835676 8.08795 2.3028 4.58366
128 3 -0.794094 9.58916 3.25472 2.38319
129 3 -0.78216 5.73275 6.49455 2.93879
130 3 -0.772494 8.69734 5.42137 1.13628
158 2 -0.0268826 10.8773 1.93401 4.32558
161 2 -0.00101141 10.2106 5.74727 3.4348
162 2 0.0447645 7.96258 4.94817 3.6965
179 2 0.147502 12.2546 5.69508 3.91213
166 2 -0.0211697 8.04976 6.20407 7.49121
203 2 0.0616464 5.65278 5.71466 6.7411
235 2 0.203422 11.6976 3.75663 0.29339
165 2 -0.000261352 10.0594 6.91844 5.86166
131 3 -0.823395 7.63954 6.75015 4.81607
68 1 -0.645393 6.22347 6.20205 8.23503
201 2 0.150725 6.77069 7.20772 8.10781
109 3 -0.828977 6.832 3.27282 6.82966
104 3 -0.817019 5.81115 4.03608 1.52047
273 2 0.147118 9.5805 0.991565 8.10409
254 3 -0.827892 13.6113 1.29212 8.31564
163 2 -0.00706624 5.03867 7.27233 5.44399
180 2 0.159751 11.4292 7.27781 4.75516
44 4 1.06735 8.79494 1.98162 10.2804
12 4 1.54331 14.0954 2.20449 9.51349
46 4 1.30483 11.6659 1.71845 11.606
84 3 -0.769266 14.2404 3.7983 8.8247
51 4 1.29911 6.7401 7.38735 14.4742
257 1 -0.656357 7.92532 4.23482 15.8105
258 2 0.278849 7.92178 5.39277 15.6434
73 1 -0.659747 11.6816 3.15479 12.8837
270 2 0.166691 13.9328 2.29974 15.7506
125 3 -0.817646 12.9198 2.14004 10.6315
126 3 -0.835548 10.1959 1.80696 10.9186
259 2 0.185758 7.43904 3.65551 14.8959
132 3 -0.772742 6.20484 5.91783 13.5617
133 3 -0.782895 8.00195 7.11657 15.3499
152 2 0.0671096 7.10732 5.08708 9.10454
202 2 0.167518 5.3941 6.3938 8.95175
4 1 -0.650056 13.6817 1.34422 16.3038
72 1 -0.647127 8.59778 0.975188 8.63843
214 2 0.166191 10.6002 3.41067 13.1652
215 2 0.16272 12.2063 3.95836 12.2235
216 2 0.152797 12.3001 2.8005 13.7362
260 2 0.179224 8.97072 3.83177 16.1052
231 4 0.998763 11.9941 5.80948 15.0586
159 2 0.0236018 9.00409 2.80467 8.68842
233 3 -0.743467 10.7534 6.76834 15.4241
234 2 -0.00455175 11.6994 5.08269 13.4389
49 4 1.20873 9.462 7.28648 16.4945
236 2 0.143042 12.1803 3.53281 15.6053
185 2 0.167312 12.6129 6.35403 10.6984
264 2 0.167345 14.1633 4.446 13.6862
232 1 -0.65005 11.901 4.40986 16.2702
81 3 -0.817509 15.4706 1.71508 10.2384
181 2 0.157564 15.0304 2.72483 13.6154
237 2 0.223221 10.8734 4.21273 16.6739
253 4 0.988473 5.63512 14.4393 7.23358
52 4 1.02578 4.07713 11.5027 2.67735
53 4 1.06071 8.0646 10.2798 6.94976
223 2 0.164443 5.39208 10.3061 4.35754
212 2 0.156173 3.42838 13.976 5.29646
71 1 -0.673379 2.57303 13.6552 5.99129
140 3 -0.757067 5.61312 12.9116 7.60442
76 1 -0.660164 5.57519 10.5052 3.28693
77 1 -0.671936 7.73207 11.4396 5.44389
42 4 1.24667 2.09806 12.0048 5.13308
135 3 -0.788744 4.76493 12.8222 2.00937
136 3 -0.800289 3.20304 11.8359 3.94733
137 3 -0.849362 8.23672 8.76163 6.50537
252 2 0.138364 4.30255 9.03775 1.03566
225 2 0.189454 8.40987 12.3664 5.68191
164 2 0.00135075 6.40119 8.89852 4.04251
224 2 0.177698 6.50046 11.0846 3.03495
167 2 -0.00688077 3.36275 10.5897 1.4229
168 2 0.0752666 6.4346 10.9715 6.81542
274 2 0.173618 9.11766 8.06101 1.33495
209 2 0.157971 4.74009 8.81051 6.50716
210 2 0.183482 2.89612 13.1728 6.9646
227 2 0.147606 8.29803 10.6689 4.69372
2 4 1.04574 5.55499 14.0721 1.42342
226 2 0.187534 6.70221 11.7342 5.12365
222 2 0.109605 5.29223 9.56136 2.51234
138 3 -0.812251 8.83065 11.0019 8.14816
250 2 0.13571 4.69843 10.7335 0.122299
74 1 -0.662667 8.82997 7.9925 0.264558
211 2 0.164753 1.64385 14.3687 6.04693
139 3 -0.741035 4.00193 10.5831 8.24191
186 2 0.155233 11.3211 7.6799 8.24705
242 1 -0.663489 4.28908 9.56028 0.0225026
217 2 0.153251 7.77833 8.45503 0.0850975
22 4 1.54045 9.48648 11.9843 9.35071
54 4 1.23484 4.87219 12.0176 9.05939
55 4 1.29997 6.98369 11.8133 11.2676
75 1 -0.6512 7.28743 8.96988 13.4763
78 1 -0.686939 3.41433 13.0466 9.615
160 2 0.00249802 6.58952 14.4838 14.5709
10 2 0.0730232 7.51727 14.5315 16.3504
141 3 -0.800708 8.3913 12.0025 10.5609
142 3 -0.867652 5.85563 11.6821 10.1748
143 3 -0.838817 6.87214 12.8257 12.5082
169 2 0.0120203 6.95139 10.2296 12.0295
134 3 -0.855163 5.57802 7.9927 15.3262
220 2 0.176744 8.33138 9.27021 13.729
221 2 0.158141 6.47736 9.7521 13.7765
230 2 0.183883 3.09759 14.0183 9.15778
239 4 1.0967 4.10021 11.5011 15.2271
248 2 0.161529 3.552 10.4903 12.9395
62 1 -0.648703 11.431 8.80429 8.54646
243 3 -0.807017 4.90931 12.4471 14.2552
271 2 0.165579 5.37812 14.8598 15.8541
190 2 0.167598 11.8202 8.51425 13.9847
251 2 0.184757 5.9039 10.064 16.0048
228 2 0.204869 3.706 13.2014 10.7025
229 2 0.150026 2.55369 12.2539 9.46018
219 2 0.133808 7.04889 8.41733 12.4343
218 2 0.169896 10.5828 9.44183 16.3149
265 2 0.224481 10.4408 9.33381 8.41159
45 4 1.22362 5.72174 13.5134 13.3489
244 3 -0.794481 2.96699 12.0755 16.131
127 3 -0.787881 4.63501 14.4383 12.5847
ITEM: TIMESTEP
100
ITEM: NUMBER OF ATOMS
274
ITEM: BOX BOUNDS xy xz yz pp pp pp
-7.3579580000000000e+00 1.6478000000000002e+01 -7.3579580000000000e+00
0.0000000000000000e+00 1.5100700000000000e+01 9.9190000000000000e-01
0.0000000000000000e+00 1.6771000000000001e+01 1.0307999999999999e+00
ITEM: ATOMS id type q x y z
98 3 -0.818995 4.00852 1.13559 7.98208
13 4 1.56394 1.26203 2.12454 5.6304
15 4 1.3632 -0.0572604 4.45162 1.61392
65 1 -0.678581 6.52114 0.511826 6.25534
17 4 1.23486 -0.483026 4.32462 7.38631
18 4 1.24741 -2.03737 6.84238 5.42775
27 4 1.2417 3.94599 3.02974 4.06326
26 4 1.48517 7.60412 0.135487 1.95736
30 4 1.30158 6.76121 2.28412 5.53977
33 4 1.49219 4.91999 5.19186 2.27268
177 2 0.19299 1.59378 5.29985 7.51696
56 1 -0.655066 1.48716 3.56339 0.733855
104 3 -0.812887 5.82645 3.89129 1.7186
97 3 -0.804584 6.90206 1.40648 1.27029
28 4 1.3443 5.92761 2.59975 0.679279
176 2 0.165434 0.236401 6.44907 8.18713
200 2 0.24365 2.62435 6.52263 3.79664
80 3 -0.835718 1.57571 0.910468 6.64347
82 3 -0.809285 -0.467693 3.27849 2.72234
83 3 -0.789964 -1.2003 4.71211 0.57327
85 3 -0.802113 0.412013 3.25647 6.54543
86 3 -0.720005 -1.47959 5.36134 6.528
96 3 -0.830615 2.60175 2.73811 4.89887
106 3 -0.757376 -0.987485 7.01521 4.30672
213 2 0.17275 7.74922 0.793597 7.82724
100 3 -0.819822 5.41088 2.71413 4.78858
103 3 -0.778665 3.8387 4.62302 3.43794
58 1 -0.658852 0.733341 5.41803 8.27992
105 3 -0.797862 0.484153 5.8806 2.1636
107 3 -0.830645 4.11976 5.85468 0.97547
148 2 -0.00954116 3.74735 1.99258 2.78939
195 2 0.215555 6.13835 0.809614 7.33061
171 2 0.153404 1.50343 2.4861 1.12848
172 2 0.233274 2.47938 4.16276 0.885033
79 3 -0.840198 0.25713 1.57571 4.53732
36 4 1.04638 5.93654 4.36434 7.75413
34 4 0.973458 0.364024 7.17926 3.0173
178 2 0.228537 0.9198 5.10486 9.31263
14 4 1.30613 1.38785 2.29397 10.6886
19 4 1.19494 0.773018 4.79299 12.6784
20 4 1.04533 -0.774739 7.29105 11.0554
29 4 1.48481 3.86671 2.46989 8.97043
31 4 1.02605 4.52262 2.92532 15.5293
32 4 1.21241 5.73991 2.63636 11.5878
111 3 -0.809786 5.57378 4.20258 11.7804
37 4 1.20264 5.21353 4.98042 13.141
38 4 1.25139 2.14669 6.89119 14.6214
60 1 -0.671516 -0.579444 4.33158 13.847
35 4 1.2804 4.44851 7.51673 16.4306
66 1 -0.679859 4.70438 1.22222 14.7256
184 2 0.167984 -2.17762 7.16606 9.10359
61 1 -0.663343 -2.06895 6.46529 10.0073
87 3 -0.827869 1.1898 3.4912 11.8227
88 3 -0.769469 0.0125603 6.1205 11.8192
99 3 -0.839622 2.38882 2.77087 9.57825
124 3 -0.760631 7.33048 2.27112 11.0079
102 3 -0.799347 4.75715 1.9399 10.5448
16 4 1.29023 -0.582895 6.87619 15.9865
110 3 -0.82196 4.93757 3.9551 14.3115
267 2 0.134789 4.14467 1.27903 13.7351
112 3 -0.813457 2.19346 5.62268 13.7238
113 3 -0.873258 3.18693 6.88267 15.8323
114 3 -0.846568 0.646534 7.2365 15.0754
144 2 0.0117285 2.26972 1.0373 11.4282
149 2 -0.0165034 2.91723 3.23361 16.182
108 3 -0.820714 4.5652 3.78962 8.42682
150 2 0.00730121 5.62419 1.89081 13.0896
153 2 0.0788363 3.63373 5.64926 12.8625
170 2 0.182756 2.02326 4.71063 16.4947
182 2 0.192634 -0.287374 4.52919 14.8551
183 2 0.275937 -1.89736 5.38102 9.64608
101 3 -0.814087 5.53264 3.1022 16.7113
264 2 0.198736 -1.41466 5.06273 13.4366
21 4 1.28672 -3.15351 9.43493 7.15762
23 4 1.29859 -3.66587 11.847 5.49594
238 4 0.964604 0.469958 11.4556 0.3749
39 4 1.22971 -0.918868 12.2399 3.83468
40 4 1.05529 2.73986 9.93346 7.5174
207 2 0.186648 3.1478 8.23777 5.58542
246 2 0.157653 -0.516784 9.02256 0.398975
89 3 -0.791923 -2.44189 8.09932 6.34797
91 3 -0.797102 -3.97878 10.4258 6.02352
92 3 -0.810091 -3.99993 12.8566 6.66698
42 4 1.28204 1.90558 11.9714 5.24528
115 3 -0.792677 -1.00266 13.6291 3.10751
116 3 -0.848011 -2.27262 12.0012 4.698
117 3 -0.82207 0.49429 12.9331 0.971726
11 4 1.51237 -4.67178 14.2031 7.52708
120 3 -0.832302 0.536629 12.1508 4.61187
121 3 -0.816778 2.10362 10.7976 6.34459
146 2 -0.0238845 -4.8695 12.0805 4.35172
151 2 -0.0226138 0.191698 8.52014 1.91594
155 2 -0.0109861 -0.952941 10.9839 2.6019
156 2 0.0211009 -0.803923 12.8623 7.30552
208 2 0.151559 3.73726 7.72317 7.32335
199 2 0.118838 2.25832 8.40707 3.39952
240 1 -0.643625 -0.831635 9.91332 0.997562
118 3 -0.805067 -1.97452 10.3812 7.90254
268 2 0.0147491 0.663842 10.4383 1.87965
193 2 0.173383 0.171079 14.0095 6.20813
205 2 0.18475 0.175907 9.59228 8.19023
269 2 0.145972 -1.64213 9.6939 1.76465
194 2 0.230012 -1.69294 14.2526 5.52511
262 2 -0.0164605 3.13307 8.12557 0.0924417
70 1 -0.653275 3.68366 8.50642 6.54979
67 1 -0.671014 1.96488 7.42632 3.98626
174 2 0.157798 -1.81094 7.56046 1.09294
198 2 0.184218 1.57619 7.52578 5.02717
24 4 1.01773 -2.16571 9.76801 12.5705
25 4 1.28038 -3.13197 12.0248 10.6235
266 2 0.160521 -3.47468 13.3566 12.6159
63 1 -0.66549 -3.06785 9.40121 14.1834
64 1 -0.692908 -3.839 13.6018 11.5694
204 2 0.11353 1.72622 8.23293 8.42884
245 2 0.0452064 -0.30939 12.0619 16.6062
93 3 -0.803032 -1.37168 8.479 11.8609
94 3 -0.760328 -4.60375 11.3278 9.69986
95 3 -0.834526 -2.69432 11.0054 11.7256
119 3 -0.793098 -1.89517 12.4157 9.55636
147 2 0.00895418 -1.33868 10.3083 14.0054
154 2 -0.00409106 2.5292 8.23153 13.6192
157 2 -0.0226749 0.410125 11.2427 8.82643
189 2 0.169614 -2.30823 9.14054 15.0805
188 2 0.158983 -3.82331 10.2059 14.4139
272 2 0.133053 0.93978 13.9639 9.35967
206 2 0.153009 1.2614 9.88529 9.73803
191 2 0.190754 -4.96054 13.3825 11.4955
196 2 0.119994 -3.32396 14.7159 15.5082
249 2 0.144307 2.13315 9.82145 14.3894
197 2 0.176173 -1.63362 14.9552 14.7593
145 2 0.0158353 0.103026 7.98213 9.71791
192 2 0.257611 -3.37387 14.5485 11.0478
69 1 -0.640146 1.14308 9.36348 8.73934
241 1 -0.669498 3.19967 10.0891 13.9643
41 4 0.993871 -1.18021 11.6321 8.41711
90 3 -0.794208 -5.41365 13.6017 8.87471
247 2 0.137851 4.02695 9.2563 14.1241
173 2 0.15068 -0.874977 9.37548 16.1248
244 3 -0.76772 2.6283 11.93 16.0091
248 2 0.182168 3.20753 10.5336 12.954
175 2 0.174844 -2.38669 8.39231 16.6537
57 1 -0.658313 -1.22201 8.50346 16.7633
1 4 1.33247 14.6529 1.94778 3.44019
6 2 0.041205 11.736 1.2704 0.946174
3 1 -0.674988 12.9432 2.06545 4.48593
263 2 0.151233 11.4732 5.49026 5.49746
5 3 -0.790546 14.0299 0.824249 2.29322
255 2 0.015722 13.5871 0.567162 5.63568
7 2 0.134751 12.3923 1.08331 4.5343
8 2 0.16316 12.489 2.83562 3.81012
9 2 0.16845 13.4636 2.52189 5.46273
50 4 0.874731 8.49446 7.14203 6.20702
256 2 -0.0302757 11.332 0.645985 6.73824
43 4 1.19231 9.42886 1.95822 3.59804
47 4 0.994737 9.09619 4.76131 2.7154
48 4 0.91108 6.295 7.24683 4.24041
59 1 -0.668532 11.6903 6.27669 4.75107
122 3 -0.767234 9.02948 0.611437 2.76015
123 3 -0.810207 8.22884 2.27009 4.76278
128 3 -0.832113 9.56347 3.27479 2.7036
129 3 -0.815199 5.74447 6.26998 3.07679
130 3 -0.813657 8.85725 5.43187 1.29521
158 2 -0.0237123 10.9312 1.83154 4.40124
161 2 -0.00420926 10.3787 5.62618 3.42096
162 2 0.0768111 7.7835 5.0045 3.75203
179 2 0.163329 12.1925 5.93324 3.75984
166 2 -0.0104495 8.16692 6.20233 7.62747
203 2 0.0591691 5.56564 5.84281 6.61031
2 4 1.04142 12.8582 0.105029 1.50479
165 2 -0.0146274 10.062 6.72401 5.84503
131 3 -0.827082 7.58526 6.67207 4.97018
68 1 -0.648016 6.30531 6.36322 8.10611
201 2 0.162421 6.8569 7.31799 7.96087
109 3 -0.792831 6.85454 3.38382 6.91926
237 2 0.232956 10.5127 3.50178 0.521534
273 2 0.144328 9.61059 0.871642 8.28922
254 3 -0.840867 13.5067 1.23055 8.18445
211 2 0.178246 8.92239 0.387465 6.12685
44 4 1.05788 8.72791 1.93396 10.2808
12 4 1.53839 14.0227 2.13024 9.43839
46 4 1.29332 11.8309 1.73437 11.6998
84 3 -0.756207 14.0316 3.72314 8.9959
51 4 1.23805 6.85693 7.32515 14.4746
257 1 -0.644749 7.84235 4.1313 15.844
258 2 0.272909 7.97922 5.31666 15.8532
73 1 -0.672387 11.9658 3.27334 12.8577
270 2 0.153141 14.3905 2.27049 16.0376
125 3 -0.814353 12.8199 2.04017 10.4985
126 3 -0.767139 10.1026 1.94192 11.004
259 2 0.207369 7.25026 3.74981 14.9021
132 3 -0.779122 6.42512 6.1694 13.4489
133 3 -0.749504 8.2551 7.01339 15.7703
152 2 0.0780636 7.03693 5.27939 9.1147
271 2 0.158652 12.8205 1.20843 15.8686
4 1 -0.678968 13.8101 1.35052 16.3498
72 1 -0.656147 8.52267 0.904142 8.72195
214 2 0.167219 10.8178 3.44592 12.8491
215 2 0.174753 12.6197 4.04148 12.3505
216 2 0.138251 12.3868 2.83324 13.8645
260 2 0.18666 8.81073 3.58216 16.0364
231 4 1.01854 12.0004 5.67781 15.1151
159 2 0.0355841 8.83364 2.83217 8.74974
233 3 -0.766244 10.8611 6.68298 15.5866
234 2 -0.00661938 11.7454 5.16396 13.4574
49 4 1.29086 9.67638 7.18527 16.6791
236 2 0.150534 11.4905 3.32264 15.7432
185 2 0.148069 12.4801 6.61466 10.725
235 2 0.178952 13.1027 3.98313 16.3434
232 1 -0.658782 11.9741 4.1789 16.2858
81 3 -0.809256 15.4959 1.73555 10.1647
181 2 0.148162 14.7119 3.20325 13.6469
261 3 -0.775292 13.526 6.30336 15.2932
134 3 -0.849839 5.54877 7.7434 15.3097
202 2 0.15963 5.30224 6.57119 8.6426
186 2 0.148006 11.4105 7.51836 8.40876
253 4 0.991629 5.56301 14.3176 7.17973
52 4 1.04297 4.07526 11.5171 2.65689
53 4 1.04406 8.17924 10.2897 7.02136
223 2 0.150388 5.33679 10.1309 4.46131
212 2 0.133297 3.17327 13.8701 5.25386
71 1 -0.677155 2.32868 13.6282 6.12487
140 3 -0.793142 5.65581 12.8051 7.53475
76 1 -0.672728 5.40925 10.3441 3.34415
77 1 -0.657615 7.68987 11.4857 5.57787
180 2 0.15473 11.3293 7.47076 4.89156
135 3 -0.790707 4.73547 12.8975 2.06627
136 3 -0.752509 3.04727 11.7146 3.7773
137 3 -0.826195 8.40073 8.70139 6.54719
252 2 0.12647 4.54173 9.43646 0.989972
225 2 0.205042 7.97831 12.5053 6.11642
164 2 -0.00451943 6.69736 8.80815 3.66224
224 2 0.160626 6.32542 10.9815 3.01783
167 2 0.00805777 3.21847 10.6643 1.40872
168 2 0.0471777 6.49687 10.7295 6.8978
274 2 0.162275 8.87176 8.25274 1.3558
209 2 0.141698 4.68681 9.08994 6.31703
210 2 0.150448 2.7286 13.3087 7.1459
227 2 0.149092 8.50893 10.9947 4.86919
163 2 -0.0115392 5.05443 7.81042 5.26281
226 2 0.175917 6.62912 11.4943 5.12145
222 2 0.11774 5.16518 9.4479 2.65151
138 3 -0.832748 8.93273 11.1052 8.11908
265 2 0.215975 10.1599 8.9008 8.29124
74 1 -0.658082 8.92805 8.04014 0.26147
22 4 1.54007 9.5473 12.0076 9.31748
54 4 1.21345 4.82052 11.954 8.88344
55 4 1.29753 7.11296 11.8361 11.328
75 1 -0.667639 7.47732 8.67605 13.271
78 1 -0.66351 3.59291 13.1998 9.6338
160 2 -0.0106413 6.33827 14.5259 14.5546
10 2 0.115592 7.13481 14.4085 16.3025
141 3 -0.816818 8.5883 12.1051 10.662
142 3 -0.776404 5.9884 11.7152 10.2463
143 3 -0.834687 6.71977 12.7706 12.457
169 2 0.00889285 7.32811 10.2493 12.0435
127 3 -0.810971 4.71661 14.47 12.5204
220 2 0.148871 8.52716 8.94442 13.7414
221 2 0.148809 6.62546 9.41112 13.4285
230 2 0.200552 3.88677 14.344 9.55522
239 4 1.07404 3.89091 11.3768 15.216
45 4 1.22057 5.61201 13.5066 13.3991
62 1 -0.676271 11.2092 8.65938 8.4665
243 3 -0.774899 4.70483 12.466 14.287
139 3 -0.796378 3.87361 10.7236 8.50608
190 2 0.179133 11.8708 8.43836 13.7938
251 2 0.1602 5.60465 9.93654 16.0231
228 2 0.207149 3.46117 12.8613 10.6818
229 2 0.145891 2.65701 12.9693 9.02372
219 2 0.174423 7.59658 8.16489 12.2668
218 2 0.17183 10.9418 9.24276 16.6171
242 1 -0.670348 5.26472 10.7877 16.6646
217 2 0.152915 9.08756 9.60069 16.4228
187 2 0.214571 11.4592 9.04448 9.48769
250 2 0.147833 5.83486 11.8432 16.4021
ITEM: TIMESTEP
200
ITEM: NUMBER OF ATOMS
274
ITEM: BOX BOUNDS xy xz yz pp pp pp
-7.3244159999999994e+00 1.6478000000000002e+01 -7.3244159999999994e+00
0.0000000000000000e+00 1.5100700000000000e+01 9.9190000000000000e-01
0.0000000000000000e+00 1.6771000000000001e+01 1.0307999999999999e+00
ITEM: ATOMS id type q x y z
98 3 -0.815586 3.90346 1.19622 8.07833
13 4 1.55982 1.21807 2.21397 5.78645
15 4 1.31399 -0.0743623 4.35693 1.55073
65 1 -0.686445 6.52175 0.679004 6.54601
17 4 1.30093 -0.580886 4.4531 7.36241
18 4 1.32453 -1.94478 6.67188 5.52291
27 4 1.27075 3.93131 2.95554 4.15795
198 2 0.187864 1.73434 7.21359 5.24995
30 4 1.30994 6.8166 2.36785 5.67173
33 4 1.46945 4.94509 5.06581 2.33398
177 2 0.219725 1.58157 5.3949 7.76253
56 1 -0.674305 1.22794 3.50587 0.420789
104 3 -0.825227 5.79462 3.8759 1.64232
97 3 -0.807673 6.9634 1.42764 1.34932
28 4 1.33551 6.12167 2.54363 0.70381
176 2 0.164978 0.122171 6.62861 7.87538
200 2 0.239338 2.49644 6.545 3.60959
80 3 -0.848416 1.66074 0.996138 6.69518
82 3 -0.799795 -0.773794 3.33902 2.64294
83 3 -0.795063 -1.05781 4.92611 0.425566
85 3 -0.808499 0.377165 3.36444 6.54435
86 3 -0.818664 -1.53994 5.48344 6.4019
96 3 -0.800222 2.6133 2.75884 5.1466
106 3 -0.768103 -0.879453 7.06156 4.23779
213 2 0.175071 7.83965 0.844837 8.09328
100 3 -0.814536 5.30743 2.69621 4.79553
103 3 -0.788597 3.86757 4.4937 3.42619
58 1 -0.677642 0.621369 5.63784 8.21613
105 3 -0.725405 0.574846 5.77847 2.36957
107 3 -0.760863 4.03956 5.90833 1.03246
148 2 0.0027828 3.94017 1.76399 3.01041
195 2 0.201352 6.23191 0.992715 7.59169
171 2 0.150016 1.13924 2.45917 0.834637
172 2 0.212114 2.22823 4.04091 0.778113
79 3 -0.787407 0.190983 1.50776 4.51525
36 4 1.04029 5.94555 4.45988 7.63691
34 4 1.00938 0.290449 7.21172 3.14073
101 3 -0.781374 4.54804 1.88135 0.0370149
108 3 -0.769685 4.61375 3.94767 8.19782
178 2 0.213153 0.701731 5.52418 9.3253
14 4 1.27797 1.35408 2.36172 10.5549
19 4 1.20297 0.857887 4.91777 12.5349
20 4 1.01327 -0.64398 7.28286 10.8632
29 4 1.4751 3.83836 2.51398 9.07705
31 4 1.04504 4.69814 2.91714 15.5183
32 4 1.26633 5.75342 2.66098 11.48
111 3 -0.815103 5.60295 4.217 11.8064
37 4 1.22155 5.34228 5.00777 13.1892
38 4 1.23351 2.08275 6.88579 14.6581
60 1 -0.65711 -0.460058 4.19606 13.6218
35 4 1.25654 4.37114 7.60834 16.3836
66 1 -0.689949 4.54062 1.26475 14.5719
184 2 0.175479 -1.94608 7.03088 8.88518
61 1 -0.657615 -1.96934 6.41128 9.84245
87 3 -0.80642 1.19303 3.61224 11.6834
88 3 -0.799631 0.136352 6.09681 11.6588
99 3 -0.782437 2.24497 2.95658 9.32518
124 3 -0.832052 7.22065 2.18784 11.1138
102 3 -0.886491 4.57372 2.3012 10.4567
16 4 1.33927 -0.627806 6.93401 15.9613
110 3 -0.816791 5.13694 3.98646 14.3964
267 2 0.138583 3.86893 1.50389 13.681
112 3 -0.824949 2.35662 5.64234 13.7398
113 3 -0.872333 3.04937 7.02576 15.9132
114 3 -0.837249 0.539316 7.34176 14.979
144 2 -0.00459213 2.18107 1.00607 11.2743
149 2 -0.00224125 3.04166 3.15825 16.054
197 2 0.16742 5.53506 0.93184 14.2991
150 2 0.00739276 5.56952 1.70183 12.9487
153 2 0.08277 3.78333 5.82331 13.0163
170 2 0.203323 1.98805 4.68993 16.1392
182 2 0.168912 0.00252827 4.44264 14.6587
183 2 0.252378 -1.77378 5.30916 9.63994
81 3 -0.842105 -0.00852464 1.88568 10.0128
21 4 1.30387 -2.94916 9.36256 7.00519
23 4 1.27357 -3.87543 11.87 5.40465
238 4 1.00715 0.377591 11.394 0.365364
39 4 1.26425 -1.08825 12.2714 3.98885
40 4 1.11085 2.81318 10.017 7.51594
207 2 0.170724 3.05035 8.15069 5.64436
246 2 0.160767 -0.745957 9.07072 0.44849
89 3 -0.818518 -2.28864 7.96339 6.36774
91 3 -0.797859 -3.88772 10.3295 5.96141
92 3 -0.8438 -4.04403 13.0796 6.42658
42 4 1.28227 1.84343 11.8714 5.21935
115 3 -0.826552 -0.878685 13.6498 3.30183
116 3 -0.836132 -2.45105 12.1074 4.77378
117 3 -0.815822 0.464073 12.8184 1.06167
11 4 1.58502 -4.62829 14.2059 7.41788
120 3 -0.806837 0.214834 11.9298 4.87565
121 3 -0.814725 1.99014 10.8116 6.4787
146 2 -0.0416387 -5.02568 11.9828 4.221
151 2 -0.0204472 0.118794 8.63162 2.09794
155 2 -0.0065147 -1.04503 11.0748 2.73934
156 2 0.0455162 -1.03213 12.8308 7.05579
208 2 0.165772 4.14699 7.78967 7.18628
199 2 0.120312 2.08217 8.48182 3.84393
240 1 -0.655277 -0.911818 9.96798 1.11243
118 3 -0.82601 -1.86577 10.3789 7.70739
268 2 0.0376337 0.543227 10.3665 1.9958
193 2 0.158627 0.18356 14.184 6.44478
194 2 0.238956 -1.68317 14.2972 5.9639
269 2 0.150365 -1.79176 9.80429 1.75555
41 4 1.03188 -1.12463 11.6049 8.22426
26 4 1.41756 0.243338 14.1028 2.1177
70 1 -0.661485 3.7518 8.55942 6.54827
67 1 -0.653918 1.87616 7.34705 4.14635
174 2 0.16153 -2.02242 7.74366 1.00448
205 2 0.196014 0.232916 9.67798 7.99064
24 4 1.01782 -2.08109 9.74219 12.5249
25 4 1.30047 -3.21944 11.8998 10.5542
266 2 0.16952 -3.46828 13.3009 12.4603
63 1 -0.657547 -3.10022 9.52527 14.0943
64 1 -0.701732 -3.92071 13.5246 11.4533
175 2 0.18479 -2.41686 8.36645 16.6762
245 2 0.0315275 -0.424862 12.2285 16.7002
93 3 -0.786378 -1.31441 8.46994 11.6938
94 3 -0.764161 -4.51694 11.2676 9.90039
95 3 -0.806444 -2.65149 10.9619 11.7074
119 3 -0.779382 -1.77509 12.2108 9.46695
147 2 0.0102054 -1.24291 10.1029 13.9993
154 2 0.00380322 2.61837 8.2214 13.575
157 2 0.00577401 0.562302 11.3813 8.52433
189 2 0.162117 -2.4916 9.24461 15.1005
188 2 0.161973 -3.82248 10.3808 14.3353
272 2 0.131522 0.84933 13.864 9.8237
206 2 0.1603 1.25761 9.95752 9.63797
191 2 0.209936 -5.03031 13.4571 11.3118
196 2 0.137839 -3.36345 14.7663 15.3877
249 2 0.162695 2.10339 9.77102 14.2289
57 1 -0.675215 -1.3542 8.60809 16.7057
145 2 0.00810897 0.277769 7.96687 9.59644
192 2 0.205379 -3.46382 14.3674 10.9374
69 1 -0.621049 1.18064 9.48062 8.64352
241 1 -0.671025 3.12079 10.0726 13.9661
248 2 0.162509 3.20688 10.4145 12.8417
90 3 -0.799201 -5.36387 13.3989 8.69846
247 2 0.142524 4.01827 9.3086 14.2643
173 2 0.142853 -1.1054 9.52771 16.0303
244 3 -0.771933 2.46827 11.9571 16.0791
187 2 0.20283 -3.58033 8.95801 9.30644
204 2 0.111535 1.80482 8.29753 8.42071
262 2 0.00491428 3.82926 9.3125 16.6396
1 4 1.29039 14.5194 1.96234 3.47709
6 2 0.0534158 11.8301 1.18711 0.891969
3 1 -0.681595 12.8106 1.89947 4.51488
263 2 0.142343 11.508 5.45959 5.26683
5 3 -0.774212 14.1595 0.782136 2.2961
255 2 0.0172519 13.6337 0.378603 5.5156
7 2 0.14524 12.3845 0.8769 4.1582
8 2 0.16475 12.3845 2.82742 3.95167
9 2 0.144851 12.8405 2.01578 5.64441
50 4 0.914134 8.50531 7.16558 6.19384
256 2 -0.0207181 11.2838 0.619284 6.58624
43 4 1.22606 9.30765 1.9392 3.66355
47 4 0.976596 8.99495 4.77746 2.95993
48 4 0.937977 6.26898 7.22071 4.22508
59 1 -0.660885 11.7093 6.37969 4.64812
122 3 -0.767401 9.17579 0.606554 2.81814
123 3 -0.851785 8.18764 2.16765 4.83342
128 3 -0.821758 9.58942 3.32337 2.84354
129 3 -0.822522 5.80661 6.16619 3.18305
130 3 -0.73381 8.90666 5.56124 1.54793
158 2 -0.000638496 10.7939 1.84451 4.50921
161 2 -0.000839777 10.0176 5.57308 4.02178
162 2 0.060705 7.55221 4.85356 3.86126
179 2 0.172159 12.3403 6.21443 3.64542
166 2 -0.0173444 8.17802 6.17638 7.52593
203 2 0.046737 5.72692 6.00892 6.65639
254 3 -0.794836 13.4961 1.13179 8.11259
165 2 -0.0206606 10.0747 6.64145 5.80403
131 3 -0.846865 7.60133 6.82979 4.98718
68 1 -0.657516 6.34086 6.32771 8.24658
201 2 0.164736 6.98498 7.21243 8.14538
109 3 -0.830634 7.02903 3.46319 6.82858
237 2 0.232373 10.6149 3.3714 0.507742
44 4 1.05133 8.62376 1.92615 10.396
12 4 1.53044 14.0621 2.14795 9.36003
46 4 1.26585 11.7219 1.79973 11.7545
84 3 -0.783791 13.9914 3.63511 8.64607
51 4 1.27743 6.84485 7.27813 14.5993
257 1 -0.653649 8.07485 4.14984 15.9761
258 2 0.270464 8.13335 5.33309 15.8806
73 1 -0.663661 12.1079 3.27691 12.8785
270 2 0.15804 14.3475 2.22905 15.8171
125 3 -0.773279 12.8719 2.0897 10.5554
126 3 -0.775414 10.017 1.91542 11.1365
202 2 0.175976 5.48666 6.61229 8.85883
132 3 -0.794744 6.57761 5.97493 13.6677
133 3 -0.755586 8.2375 7.11476 15.7576
152 2 0.0724687 7.17044 5.13215 9.09551
271 2 0.145749 12.8337 1.09722 16.0076
4 1 -0.655664 13.9583 1.29971 16.3307
72 1 -0.667743 8.55689 0.723464 8.94072
214 2 0.140732 10.9351 3.69274 12.78