ITEM: TIMESTEP
0
ITEM: NUMBER OF ATOMS
274
ITEM: BOX BOUNDS xy xz yz pp pp pp
-7.3914999999999997e+00 1.6478000000000002e+01 -7.3914999999999997e+00
0.0000000000000000e+00 1.5100700000000000e+01 9.9190000000000000e-01
0.0000000000000000e+00 1.6771000000000001e+01 1.0307999999999999e+00
ITEM: ATOMS id type q x y z
152 2 -0.0232672 6.64798 2.3353 8.01688
13 4 1.53534 1.02853 1.76934 5.2826
15 4 1.2949 -0.107095 4.44422 1.84304
108 3 -0.796854 4.29347 3.7994 8.22151
17 4 1.31877 -0.311481 4.33468 7.24103
18 4 1.2557 -1.84026 6.88864 5.56521
27 4 1.27005 3.76348 2.48727 3.52222
28 4 1.36997 6.26142 2.76118 0.588908
30 4 1.28854 6.50889 2.52934 5.23031
33 4 1.48668 4.73842 4.96305 2.14741
34 4 1.034 0.466473 7.16619 3.47242
56 1 -0.675005 1.30213 3.44399 1.05706
58 1 -0.636593 1.04919 5.36271 8.00489
174 2 0.16021 -2.77147 6.88364 1.41359
65 1 -0.694608 6.29623 1.02411 6.59443
67 1 -0.675988 2.14713 7.21643 4.34969
163 2 0.0154179 4.65049 6.6269 5.84916
80 3 -0.832601 1.33696 0.579668 6.25197
195 2 0.212822 5.23624 1.22341 7.06837
83 3 -0.80166 -0.954658 5.0089 0.456999
85 3 -0.750153 0.452005 3.06782 6.14223
86 3 -0.75535 -1.08104 5.46416 6.51847
96 3 -0.804902 2.43788 2.15274 4.39437
97 3 -0.790917 6.80654 1.43232 1.3966
82 3 -0.761707 -1.08977 3.27307 2.65531
100 3 -0.798408 5.19884 2.38978 4.33906
103 3 -0.813613 3.51683 3.96383 2.89916
200 2 0.220762 2.51058 6.11283 4.28496
105 3 -0.764093 0.366216 5.66534 2.79734
107 3 -0.801454 4.05105 5.75178 0.829128
148 2 -0.0274786 3.85674 1.37158 2.20867
208 2 0.160627 3.64679 7.40434 7.94397
171 2 0.149017 0.870187 2.40148 1.30793
172 2 0.263665 2.29067 3.72673 1.67907
176 2 0.171974 1.02919 6.4042 7.63865
177 2 0.233695 1.93113 4.74101 7.56315
193 2 0.138185 7.06485 0.770865 7.46077
36 4 0.993945 5.88229 3.85878 7.72454
98 3 -0.868006 3.30318 1.19965 7.93943
26 4 1.46781 7.7383 0.201927 2.04132
267 2 0.14775 3.56538 1.71819 13.9312
14 4 1.23142 1.37009 2.51325 10.8044
19 4 1.21135 0.711404 5.1952 12.7478
20 4 1.02232 -0.590785 7.54536 10.8876
29 4 1.39896 3.57371 2.46793 8.8525
31 4 1.05989 4.65743 3.28871 15.4184
32 4 1.18341 5.75247 2.24074 11.4912
35 4 1.26351 4.5549 7.58788 16.3065
37 4 1.20693 5.68508 4.99457 12.8652
38 4 1.22098 2.02791 7.21374 14.7716
183 2 0.187535 -1.69958 6.11217 9.46165
61 1 -0.664667 -2.17659 6.8742 10.1769
66 1 -0.677795 4.29849 1.55529 14.7624
16 4 1.25208 -0.645438 7.04313 16.2174
114 3 -0.808465 0.584502 7.86924 15.2504
87 3 -0.777671 1.25154 3.76218 11.8748
88 3 -0.791429 0.153046 6.39946 11.7999
99 3 -0.767514 2.0249 2.98284 9.40182
101 3 -0.790396 5.89436 3.43309 16.3346
102 3 -0.82895 4.54941 2.0724 10.4739
178 2 0.201601 0.874122 5.21822 9.22911
110 3 -0.759886 4.96781 4.22051 14.1235
111 3 -0.784237 6.10193 3.88599 11.7172
112 3 -0.779473 2.00728 6.00684 13.7648
113 3 -0.828428 3.09661 7.11144 15.9891
124 3 -0.79574 7.19021 1.64156 11.0144
144 2 -0.00341297 2.1798 1.16289 11.4641
182 2 0.186671 -0.504177 4.79045 14.9214
149 2 -0.0036319 3.18205 3.78348 16.162
150 2 0.0033857 5.2151 1.61398 13.0054
153 2 -0.0130771 4.5616 5.99992 12.1219
196 2 0.101841 3.69897 1.21344 15.7463
60 1 -0.661229 -0.669292 4.52493 13.8076
170 2 0.196416 2.10439 4.89326 16.731
21 4 1.31483 -2.71646 9.63269 7.13157
23 4 1.25346 -3.45714 12.0673 5.43507
205 2 0.201653 0.864325 10.0449 8.29048
39 4 1.2336 -0.737062 12.1132 3.805
199 2 0.135328 2.84396 7.98849 3.94821
238 4 0.99429 1.08691 11.5424 0.570216
41 4 0.969308 -1.34762 12.0143 8.31906
89 3 -0.777916 -2.16299 8.20719 6.5116
91 3 -0.800829 -3.68802 10.5431 6.12855
92 3 -0.858302 -3.86825 13.2852 6.3851
11 4 1.5857 -4.92144 14.0374 7.30757
115 3 -0.815678 -0.532989 13.5711 3.27638
116 3 -0.844685 -2.07085 12.1068 4.73413
117 3 -0.827946 0.829263 13.0686 1.06944
118 3 -0.806958 -1.51472 10.5012 7.80214
120 3 -0.778633 0.585739 11.8152 4.65034
173 2 0.170074 -1.43339 8.21038 0.801125
146 2 -0.0328592 -4.50606 12.1576 4.16573
151 2 -0.00664079 0.417528 8.44533 2.22429
155 2 -0.0231765 -0.86686 11.0363 2.4034
156 2 0.0394785 -1.34735 13.2165 7.03818
70 1 -0.669513 3.90492 8.0038 7.01311
106 3 -0.786548 -0.764182 7.35083 4.47986
207 2 0.15907 3.28916 7.76463 6.01541
268 2 0.0312079 1.22393 10.4992 2.11162
240 1 -0.64565 -0.130259 9.88871 1.03756
269 2 0.135889 -1.14882 9.58042 1.49933
194 2 0.222075 -1.12489 14.3169 5.75384
246 2 0.164429 0.266877 9.08662 0.336743
57 1 -0.643896 -2.26463 7.43721 0.520293
198 2 0.164262 1.67359 7.51262 5.44401
40 4 1.12204 3.30626 9.75164 7.58257
204 2 0.144483 1.45919 8.25518 8.31759
24 4 1.01667 -1.32481 10.1903 12.4887
25 4 1.26883 -3.31435 12.1067 10.7394
247 2 0.162908 2.45527 9.86285 14.6794
63 1 -0.661353 -1.23597 10.0181 14.3436
64 1 -0.712806 -4.06609 13.6371 11.6107
69 1 -0.656454 1.67791 9.34608 8.64115
241 1 -0.690333 3.3434 10.2532 14.2188
93 3 -0.786401 -0.961661 8.84831 11.686
272 2 0.151995 -0.269299 14.2206 9.05503
95 3 -0.787954 -2.31879 11.2456 11.6753
119 3 -0.800871 -2.33589 12.48 9.4961
147 2 0.00733286 0.144256 10.9026 13.17
228 2 0.15387 2.26668 12.0966 9.77842
192 2 0.212557 -3.58756 14.5994 11.1945
72 1 -0.670227 0.910472 14.2651 8.97536
188 2 0.148285 -1.08774 11.0309 14.8624
189 2 0.260227 -0.452969 9.16413 14.6882
190 2 0.138257 -2.45221 9.59672 14.3382
191 2 0.183261 -5.21639 13.5898 11.5241
94 3 -0.778269 -4.72533 11.1839 10.0908
187 2 0.236989 -3.61659 9.41748 9.55867
154 2 0.00743701 2.64238 8.51818 13.7033
266 2 0.153548 -3.74882 13.421 12.6698
145 2 0.00951441 0.431509 8.06495 9.49534
206 2 0.144505 1.95045 9.4361 9.75779
157 2 -0.00798142 0.287408 12.3952 8.72797
245 2 0.0383598 0.436323 12.1362 16.5357
90 3 -0.846037 -5.69202 13.0364 8.39846
249 2 0.15126 3.03037 10.7271 13.2361
175 2 0.165449 -2.12366 8.92815 16.6311
62 1 -0.657707 -3.91661 9.01144 8.5378
197 2 0.157874 -2.20293 14.9543 14.5381
184 2 0.187137 -2.74217 7.68693 9.56873
262 2 -0.0177086 4.39853 9.23813 16.7639
1 4 1.29844 14.0692 1.81196 3.45645
6 2 0.109307 11.0069 0.431165 0.572504
3 1 -0.65563 12.6227 2.2363 4.76162
165 2 -0.0498036 9.59742 6.50868 6.17912
5 3 -0.7827 13.3438 0.79738 2.3667
59 1 -0.688687 12.0387 6.16498 4.79534
7 2 0.14518 12.0871 1.18791 4.57134
8 2 0.159118 12.2572 3.16794 4.10561
9 2 0.188383 13.1252 2.42181 5.7399
263 2 0.150555 11.9157 5.19811 5.40448
213 2 0.13928 8.76901 0.646669 8.04263
43 4 1.21952 9.22403 2.35433 3.53045
47 4 0.990096 9.13894 5.24466 2.73265
48 4 0.94389 5.66044 6.90451 4.4435
256 2 -0.00630497 12.9562 0.655489 5.9736
122 3 -0.771825 9.17069 1.06398 2.59908
123 3 -0.849702 8.02222 2.41531 4.56113
128 3 -0.82216 9.45281 3.75007 2.60022
129 3 -0.828343 5.27135 6.02359 3.16705
130 3 -0.771619 8.79208 5.93416 1.41302
158 2 -0.00494454 10.6863 2.17603 4.46015
161 2 -0.0296158 10.3654 6.08191 3.56748
162 2 0.0934274 7.85049 5.52577 3.71829
260 2 0.221455 8.66911 3.31203 0.0217789
166 2 -0.0140029 7.66899 5.93161 7.50755
50 4 0.882329 7.94979 7.04909 6.22923
131 3 -0.814722 7.22773 6.80736 4.81707
236 2 0.237971 10.8361 3.5698 0.924201
104 3 -0.816173 5.96152 3.93099 1.56302
180 2 0.148386 11.3735 7.0483 5.08704
179 2 0.17404 12.3302 6.00035 3.75144
254 3 -0.79012 14.0724 1.01832 8.29396
109 3 -0.785531 6.27316 4.01277 6.17732
79 3 -0.833385 15.2134 1.27119 4.35556
237 2 0.184519 12.4627 2.93483 0.119848
44 4 1.01894 8.46359 1.79404 10.0979
49 4 1.25945 9.62348 7.51644 16.5677
46 4 1.33645 11.4889 2.08592 11.4004
81 3 -0.792406 15.3767 1.99064 10.3291
51 4 1.20601 7.05327 7.35007 14.3202
259 2 0.180825 8.90916 3.24131 15.4729
257 1 -0.658644 8.72231 4.07909 16.1914
73 1 -0.662174 11.4492 3.70588 12.4929
159 2 -0.018979 8.25032 3.06506 8.93703
125 3 -0.758878 12.6423 2.23392 10.2353
126 3 -0.784119 9.96269 1.93892 10.7812
270 2 0.142986 13.4631 2.16552 15.6712
132 3 -0.747857 6.9747 5.83425 13.3457
133 3 -0.760959 8.34952 7.40424 15.4721
68 1 -0.683725 7.11868 4.66839 8.98154
12 4 1.54553 14.1247 2.26348 9.36512
134 3 -0.822515 5.5732 7.49059 15.102
202 2 0.245184 6.82372 4.33935 10.0394
214 2 0.187024 10.355 3.92139 12.3711
215 2 0.158436 12.1633 4.5049 12.1061
216 2 0.141132 11.8281 3.11838 13.4648
4 1 -0.645773 13.3334 1.14789 16.2594
231 4 1.0469 12.034 5.64381 15.5363
232 1 -0.664806 12.3179 4.28617 16.7018
233 3 -0.759468 10.8746 6.54122 16.0554
234 2 0.00537556 11.5704 4.90646 14.0438
235 2 0.13302 11.7254 3.44068 16.1325
258 2 0.225044 8.31006 5.03862 15.676
160 2 0.00515052 13.8429 1.02978 14.3655
181 2 0.156867 14.7156 3.4081 13.6331
185 2 0.172362 12.7926 6.4658 11.051
201 2 0.138442 8.23672 4.93962 8.84029
203 2 0.123001 6.4322 5.71835 8.88712
127 3 -0.81343 12.1407 1.00253 12.3113
261 3 -0.770525 13.4128 6.45833 15.3609
84 3 -0.805044 14.2619 3.61415 8.46235
264 2 0.166303 13.9189 5.2407 13.3038
225 2 0.193696 8.4651 12.2377 6.19722
52 4 0.992386 4.28408 10.8255 2.58907
53 4 1.03449 7.60321 9.97399 7.34462
212 2 0.193344 1.84344 14.0517 5.33033
217 2 0.155397 8.03705 8.88289 0.0735714
71 1 -0.664614 2.79129 13.4599 5.49229
211 2 0.194156 3.25417 13.5458 6.56484
76 1 -0.647415 5.85189 10.1868 3.42607
77 1 -0.668883 7.80415 11.2869 5.95245
250 2 0.121686 4.84415 9.21939 0.687778
135 3 -0.762633 4.74307 12.2667 1.91862
136 3 -0.796436 3.20073 11.1397 3.76031
137 3 -0.829509 7.76193 8.52275 6.79512
2 4 1.00204 5.22627 13.7092 1.36627
226 2 0.129209 6.71529 11.5361 5.7945
164 2 -0.0213196 5.07389 8.47973 4.14793
140 3 -0.769881 4.88635 13.2794 8.23156
167 2 -0.0065162 3.56777 9.84096 1.35366
168 2 0.0914151 6.00776 10.1986 7.97901
227 2 0.170195 8.27096 10.6141 5.1297
209 2 0.142196 5.0124 8.22364 6.81679
210 2 0.163969 3.56957 13.6489 4.59626
255 2 0.0132751 7.31917 12.974 6.85796
253 4 1.01074 6.08847 13.9804 7.44159
224 2 0.178107 6.75128 10.7884 3.20117
222 2 0.0986559 5.78911 9.13269 2.68603
223 2 0.164085 5.68004 10.051 4.53709
265 2 0.243375 10.656 9.53813 8.12844
42 4 1.21554 2.3258 11.6931 4.98141
274 2 0.147143 9.87843 8.42667 0.367174
121 3 -0.752887 2.88218 10.642 6.36324
22 4 1.45994 9.43507 11.8389 9.39477
54 4 1.20948 4.65612 12.0509 9.48659
55 4 1.28723 7.13601 12.1341 11.4664
75 1 -0.675877 7.23419 9.02226 13.4436
251 2 0.155108 6.42209 11.6602 16.2623
271 2 0.19379 5.55225 14.3681 15.6044
273 2 0.176397 1.61186 13.4891 9.50415
141 3 -0.807936 8.34041 12.3879 10.567
142 3 -0.82054 5.87868 11.9039 10.4588
143 3 -0.812086 6.88067 13.3243 12.4841
169 2 -0.00931772 7.38681 10.6958 12.392
78 1 -0.684669 3.11841 12.1822 10.5006
220 2 0.160077 8.17923 9.56599 13.7954
221 2 0.14127 6.28057 9.59939 13.5724
10 2 0.0439171 7.48326 14.6149 16.7099
239 4 1.04252 4.3512 11.6396 15.2363
139 3 -0.772114 4.45358 10.3972 8.4289
242 1 -0.658054 5.6559 10.7698 16.4454
243 3 -0.793061 5.05344 12.8983 14.2263
138 3 -0.771714 8.60166 10.5519 8.48078
218 2 0.152349 10.0818 9.47605 15.1922
244 3 -0.781097 3.22739 12.1352 16.2938
229 2 0.202529 3.21954 13.2316 10.9727
252 2 0.129303 5.84123 9.93439 15.6019
74 1 -0.63564 9.92616 9.33458 16.4041
45 4 1.22175 5.65248 14.0195 13.2195
219 2 0.140506 7.35015 8.60453 12.3591
248 2 0.133138 4.18562 9.53062 14.0961
230 2 0.145446 3.15661 11.3738 11.3357
186 2 0.162993 11.3406 7.91711 8.63561
ITEM: TIMESTEP
100
ITEM: NUMBER OF ATOMS
274
ITEM: BOX BOUNDS xy xz yz pp pp pp
-7.3914999999999997e+00 1.6478000000000002e+01 -7.3914999999999997e+00
0.0000000000000000e+00 1.5100700000000000e+01 9.9190000000000000e-01
0.0000000000000000e+00 1.6776590333333335e+01 1.0307999999999999e+00
ITEM: ATOMS id type q x y z
152 2 -0.0305606 6.49562 2.15114 8.15544
13 4 1.52321 0.985196 1.8185 5.38793
15 4 1.2835 -0.296948 4.38482 1.83713
108 3 -0.776749 4.34602 3.7813 8.22207
17 4 1.32431 -0.286673 4.12158 7.15836
18 4 1.25833 -1.88318 6.8018 5.52536
27 4 1.32108 3.83899 2.55172 3.59989
79 3 -0.837986 -0.100091 1.48902 4.28826
30 4 1.316 6.45268 2.41845 5.21873
33 4 1.51792 4.81352 5.00323 2.09589
34 4 1.05218 0.442998 7.22792 3.23171
56 1 -0.680388 1.21697 3.51226 1.09385
58 1 -0.647307 1.14768 5.05295 7.94352
109 3 -0.767747 6.29819 3.81511 6.32242
65 1 -0.718131 6.54795 0.966139 6.55993
170 2 0.215619 1.22479 4.08498 0.0830181
163 2 0.0275017 4.58158 6.5771 5.7227
80 3 -0.843032 1.20184 0.522987 6.30541
195 2 0.18992 5.49984 1.01361 6.86851
83 3 -0.763991 -1.2101 4.97795 0.568287
85 3 -0.847669 0.462316 3.14547 6.22907
86 3 -0.745603 -1.33754 5.45839 6.23866
96 3 -0.777872 2.5063 2.19167 4.46424
97 3 -0.830224 7.04419 1.3373 1.17796
82 3 -0.783507 -1.20344 3.27076 2.77098
100 3 -0.846348 5.25371 2.25232 4.26487
103 3 -0.804371 3.74095 4.00204 3.12441
200 2 0.208516 2.35115 6.27996 4.12902
105 3 -0.759763 0.400348 5.77602 2.57088
107 3 -0.850119 4.06544 5.61295 0.855298
148 2 -0.0250017 3.74259 1.52953 2.22897
208 2 0.151137 3.61928 7.34274 7.8183
171 2 0.149177 0.962373 2.39767 1.06799
172 2 0.233826 2.07635 3.83042 1.81798
176 2 0.155478 1.06306 6.08599 7.46355
177 2 0.255099 2.05619 4.41182 7.57155
193 2 0.138485 7.17806 0.692411 7.53737
36 4 0.99632 5.96641 3.72187 7.85796
98 3 -0.830571 3.38927 1.15522 8.07454
267 2 0.158157 3.99542 1.18194 13.7947
14 4 1.24009 1.38975 2.51702 10.8538
19 4 1.26586 0.887525 5.1185 12.787
20 4 0.98818 -0.46302 7.55895 10.8281
29 4 1.38528 3.65392 2.47877 8.99649
31 4 1.06643 4.70655 3.33917 15.4819
32 4 1.1977 5.80252 2.4028 11.5365
35 4 1.29559 4.58099 7.44615 16.3061
37 4 1.2308 5.60375 5.02932 13.0589
38 4 1.20583 2.01395 7.20313 14.6708
183 2 0.192303 -1.92356 6.1215 9.552
61 1 -0.665446 -2.14632 7.03733 10.1592
66 1 -0.647232 4.4272 1.55993 14.7543
16 4 1.30671 -0.630098 7.12445 16.1564
114 3 -0.82278 0.528761 7.70825 15.1705
87 3 -0.770916 1.45231 3.71705 11.9562
88 3 -0.773454 0.27925 6.36471 11.7556
99 3 -0.794983 2.22074 3.07184 9.61269
101 3 -0.808442 6.03001 3.37216 16.3164
102 3 -0.842284 4.63517 2.04012 10.5616
178 2 0.235887 1.05392 5.0497 9.00273
110 3 -0.804427 4.7822 4.22784 14.1903
111 3 -0.799487 5.84641 4.16671 11.7615
112 3 -0.790988 1.75327 5.69202 14.0119
113 3 -0.847024 3.10868 7.11506 15.8427
124 3 -0.835289 7.24324 1.88005 11.1879
144 2 0.000213589 2.13161 1.12674 11.5081
182 2 0.194879 -0.591302 4.43854 14.7607
149 2 0.0049683 3.41052 3.88691 16.5107
150 2 0.0144168 5.49373 1.73235 13.0765
153 2 -0.00753282 4.55328 6.22501 12.5721
196 2 0.0909464 3.68028 1.36711 15.7696
60 1 -0.645765 -0.692728 4.39532 13.5935
264 2 0.176507 -1.434 5.11416 13.0911
197 2 0.165609 5.49389 1.16781 14.9196
21 4 1.25471 -2.66482 9.61752 7.0141
23 4 1.24922 -3.49501 11.9306 5.28336
90 3 -0.842009 -5.6875 13.1043 8.35141
39 4 1.28149 -0.654473 12.2038 3.913
199 2 0.127747 2.5372 8.23056 3.9197
238 4 1.02004 0.955986 11.5357 0.532704
41 4 0.983826 -1.35929 12.1323 8.22022
89 3 -0.782589 -2.31078 8.12758 6.41699
91 3 -0.805696 -3.60369 10.4178 5.969
92 3 -0.850746 -3.9629 13.0922 6.32729
11 4 1.53277 -4.94494 13.9933 7.24429
115 3 -0.839203 -0.54807 13.5872 3.20248
116 3 -0.851775 -2.10107 12.1541 4.6317
117 3 -0.805715 0.899605 12.977 1.11323
118 3 -0.769638 -1.27394 10.6598 7.78472
120 3 -0.841352 0.601041 11.7662 4.77615
173 2 0.176683 -1.52806 8.42238 0.664376
146 2 -0.0269193 -4.63157 11.9166 4.08231
151 2 -0.0155522 0.699421 8.65062 2.18465
155 2 0.000235648 -0.933628 11.1369 2.62246
156 2 0.0402933 -1.61031 13.2695 6.94812
70 1 -0.663921 3.83341 7.96849 6.85488
106 3 -0.738502 -0.753188 7.39026 4.22537
207 2 0.168843 3.07843 7.69558 5.928
268 2 0.0401557 1.13435 10.3743 2.07225
240 1 -0.659946 -0.294856 9.96594 1.17765
269 2 0.151033 -1.20199 9.6244 1.72203
194 2 0.192784 -0.758087 14.221 5.75158
246 2 0.147528 0.0266547 9.15592 0.449488
57 1 -0.67039 -2.23608 7.62026 0.377544
198 2 0.177822 1.52416 7.50433 5.4615
40 4 1.09455 3.16305 9.5739 7.61886
204 2 0.193655 0.738462 8.76074 7.81162
121 3 -0.75006 2.68411 10.4735 6.42115
67 1 -0.667305 1.91586 7.34642 4.36777
174 2 0.169124 -2.71698 7.22509 1.33617
24 4 0.993085 -1.3176 10.2784 12.4595
25 4 1.34598 -3.32666 12.0462 10.5346
247 2 0.167766 2.47057 10.123 14.58
63 1 -0.666821 -1.30394 10.1283 14.3303
64 1 -0.681725 -3.98681 13.6518 11.3656
69 1 -0.639162 1.44943 9.20475 8.56543
241 1 -0.677044 3.46626 10.2658 14.171
93 3 -0.766833 -0.714215 8.94472 11.6163
272 2 0.141061 -0.160786 14.121 9.18053
95 3 -0.766955 -2.50534 11.1974 11.8509
119 3 -0.846036 -2.37168 12.4859 9.40632
147 2 0.0188083 -0.0999292 11.2894 13.2567
228 2 0.142526 2.34726 11.972 9.97978
192 2 0.248114 -3.49678 14.6239 10.9988
72 1 -0.650668 0.948444 14.3977 9.12694
188 2 0.159279 -1.38637 11.0909 14.8969
189 2 0.225015 -0.568631 9.40802 14.7323
190 2 0.128981 -2.48422 9.5233 14.2088
191 2 0.201052 -5.13345 13.5829 11.1084
94 3 -0.776789 -4.58084 11.2495 10.0474
187 2 0.230605 -3.60743 9.47879 9.4721
154 2 -0.0138231 2.6575 8.35741 13.5894
266 2 0.158433 -3.81653 13.4667 12.5031
145 2 0.00450013 0.441761 7.72101 9.37666
206 2 0.128035 1.98202 8.50138 9.30208
157 2 -0.00632272 0.222923 12.6187 8.60981
245 2 0.0326893 0.275147 12.252 16.62
184 2 0.184956 -2.65115 7.84436 9.49043
205 2 0.180369 1.06885 10.1415 9.10324
175 2 0.167544 -1.99263 9.01109 16.3732
62 1 -0.656189 -3.82211 9.11074 8.41497
1 4 1.31481 14.0665 1.90438 3.61477
6 2 0.092929 11.3512 0.824385 0.80787
3 1 -0.669813 12.5796 2.07504 4.99654
165 2 -0.0311771 9.55754 7.33191 6.19663
5 3 -0.796092 13.4948 0.692251 2.47914
59 1 -0.661956 12.0311 6.38645 4.49405
7 2 0.152739 11.8672 1.25673 4.67259
8 2 0.144474 12.3788 3.16526 4.54295
9 2 0.154377 12.6882 2.15074 6.16278
263 2 0.160887 12.2013 5.28115 4.35685
213 2 0.108957 8.72856 0.972564 8.08996
43 4 1.18051 9.2366 2.44778 3.62745
47 4 0.974961 9.15035 5.26905 2.68656
48 4 0.989331 5.7237 6.89621 4.403
256 2 -0.0126242 12.8629 0.371303 5.95551
122 3 -0.786496 9.09075 0.880618 2.90607
123 3 -0.825319 8.00009 2.62951 4.5675
128 3 -0.835928 9.46084 3.72823 2.60452
129 3 -0.833424 5.25383 6.11579 3.11866
130 3 -0.764015 8.50095 6.01735 1.52706
158 2 -0.0186292 10.6642 2.35827 4.58882
161 2 -0.027306 10.5422 6.09094 3.20002
162 2 0.0786051 8.21645 5.69628 3.97601
260 2 0.225315 8.3343 3.84164 0.217469
166 2 -0.0123264 7.70237 6.02316 7.53181
50 4 0.87021 7.90943 7.23132 6.35098
131 3 -0.824105 7.17484 6.77621 4.93311
236 2 0.232195 10.579 3.39863 0.755732
104 3 -0.789316 5.97874 3.93446 1.43493
180 2 0.134833 11.2784 6.61695 5.33575
237 2 0.214959 12.4406 3.22943 0.312754
26 4 1.51073 7.82254 0.228512 2.10818
179 2 0.169502 11.8573 6.98666 3.59768
28 4 1.36044 6.4034 2.63995 0.509584
44 4 1.01742 8.43428 1.90193 10.2082
49 4 1.19857 9.60727 7.44943 16.513
46 4 1.25102 11.6525 2.03465 11.3951
127 3 -0.767161 12.1752 0.858075 12.5728
51 4 1.30432 6.94508 7.29651 14.4933
259 2 0.175689 9.37322 3.56395 15.6207
257 1 -0.660987 8.74617 4.33931 16.1279
73 1 -0.622959 11.4063 3.60157 12.4671
159 2 -0.0195277 8.21947 3.48335 9.47374
125 3 -0.775714 12.662 2.5151 10.2502
126 3 -0.745919 9.99988 1.8162 10.7603
270 2 0.160623 13.4055 2.08505 15.6117
132 3 -0.773302 6.99592 5.837 13.5516
133 3 -0.782903 8.13183 7.36953 15.5495
68 1 -0.689003 6.97102 4.93469 9.04111
12 4 1.49357 14.175 2.27706 9.38524
134 3 -0.902048 5.54888 7.52341 15.1214
202 2 0.241879 6.6727 4.66599 10.1239
214 2 0.181256 10.1917 3.56774 12.3076
215 2 0.163261 11.9559 4.51603 11.96
216 2 0.140152 11.8695 3.13131 13.5011
4 1 -0.64775 13.3714 1.3124 16.3461
231 4 1.02662 12.1225 5.62031 15.4288
232 1 -0.644315 12.3284 4.32557 16.7072
233 3 -0.77725 10.89 6.50211 15.9436
234 2 -0.00122402 11.8372 4.87815 13.8618
235 2 0.116939 12.038 3.37382 15.9582
258 2 0.248387 8.20361 5.02243 15.4086
81 3 -0.808748 15.2823 2.06993 10.504
181 2 0.172682 14.6626 3.34561 13.1809
185 2 0.15963 12.8109 6.87139 11.1638
201 2 0.13324 8.10487 5.00232 8.88652
203 2 0.15967 6.42445 5.85347 8.699
160 2 -0.00947463 13.9519 0.936845 14.443
84 3 -0.825568 14.357 3.60274 8.42026
261 3 -0.776368 13.56 6.33672 15.4863
254 3 -0.812786 14.1017 0.904688 8.3908
225 2 0.19128 8.27208 12.1652 5.83436
52 4 1.03361 4.23799 11.0529 2.39447
53 4 1.02657 7.38596 10.1053 7.44838
212 2 0.192017 1.89676 14.097 5.43236
274 2 0.160924 9.55254 8.31239 0.609436
71 1 -0.659682 2.73677 13.3275 5.38731
211 2 0.183965 3.27484 13.1915 6.39944
76 1 -0.639714 5.64228 10.1791 3.31979
77 1 -0.658093 7.66915 11.2053 5.87936
250 2 0.138476 5.00448 9.27952 0.61514
135 3 -0.799085 4.89759 12.3194 1.81267
136 3 -0.785285 3.14892 11.2341 3.55873
137 3 -0.837205 7.60815 8.66316 6.89854
2 4 1.03657 5.41477 13.8349 1.47264
226 2 0.123614 6.53824 11.3129 5.66673
164 2 -0.00897839 5.30438 8.52384 4.36055
140 3 -0.849758 4.94875 12.9807 8.15902
167 2 -0.00675859 3.64195 10.0562 1.08486
168 2 0.0906089 5.71821 10.1999 7.99902
227 2 0.174586 8.15949 10.2912 5.24488
209 2 0.142896 4.94346 8.0523 6.60949
210 2 0.194746 3.45974 13.3794 4.47303
255 2 0.0196454 7.31888 12.987 6.68746
253 4 1.00046 6.07332 13.9022 7.50113
224 2 0.178442 6.69395 10.6632 3.27667
222 2 0.112799 5.5074 9.14331 2.68249
223 2 0.166243 5.07883 10.2658 4.35839
265 2 0.227593 10.7444 9.68949 8.00664
42 4 1.20673 2.15172 11.5976 5.02695
262 2 -0.00946583 3.58726 8.0909 0.0529496
22 4 1.45138 9.33755 11.8817 9.29622
54 4 1.24989 4.74164 12.0224 9.38643
55 4 1.28595 7.15181 12.0859 11.4203
75 1 -0.675063 7.17624 8.80184 13.1678
251 2 0.130492 6.39924 11.652 16.0195
271 2 0.175489 5.37079 14.4136 15.9384
217 2 0.17231 9.03907 9.79238 16.1818
141 3 -0.807913 8.49993 12.3784 10.6708
142 3 -0.843312 5.92591 11.8237 10.4071
143 3 -0.79977 6.87587 13.2805 12.3741
169 2 -0.00457339 7.21842 10.6374 12.4044
78 1 -0.664921 3.2437 12.5426 10.4556
220 2 0.151298 7.69104 9.59496 13.758
221 2 0.155614 6.12299 8.97226 12.9379
248 2 0.141372 4.2706 9.48909 14.499
239 4 1.05144 4.25931 11.6788 15.2096
139 3 -0.762328 4.27246 10.2288 8.61398
242 1 -0.666876 5.77001 10.5837 16.3325
243 3 -0.79736 4.90873 12.8685 14.2726
138 3 -0.816784 8.48015 10.7618 8.49726
218 2 0.173991 10.7096 9.21679 15.5643
244 3 -0.795226 3.05401 12.1201 16.2187
229 2 0.220871 3.27136 13.68 10.3684
252 2 0.163926 6.04279 9.7507 15.6037
74 1 -0.668677 10.0024 9.23578 16.3622
45 4 1.19463 5.7453 13.9665 13.3954
219 2 0.170138 7.79365 8.31178 12.3449
273 2 0.188803 1.72171 13.6216 9.60395
230 2 0.184955 3.48582 12.1144 11.4643
249 2 0.152419 3.66615 10.7976 13.1037
186 2 0.166901 11.4753 7.98824 8.41543
10 2 0.0464266 7.60861 14.9505 16.7049
ITEM: TIMESTEP
200
ITEM: NUMBER OF ATOMS
274
ITEM: BOX BOUNDS xy xz yz pp pp pp
-7.3914999999999997e+00 1.6478000000000002e+01 -7.3914999999999997e+00
0.0000000000000000e+00 1.5100700000000000e+01 9.9190000000000000e-01
0.0000000000000000e+00 1.6782180666666669e+01 1.0307999999999999e+00
ITEM: ATOMS id type q x y z
152 2 -0.0202566 6.47363 2.05353 8.15988
13 4 1.55158 1.2099 1.89027 5.36487
15 4 1.29042 -0.311526 4.43051 1.81232
108 3 -0.746702 4.39379 3.66969 8.16198
17 4 1.29564 -0.242209 4.3071 7.08338
18 4 1.28793 -1.77263 6.82017 5.32707
27 4 1.37082 3.7945 2.61825 3.76458
79 3 -0.791716 -0.0428099 1.37108 4.29268
30 4 1.32218 6.4944 2.48866 5.26846
33 4 1.45187 4.8717 4.88951 2.08876
34 4 1.06577 0.339548 7.18958 3.16914
56 1 -0.675234 1.06618 3.42611 0.912329
58 1 -0.650376 1.14459 5.28085 7.90582
67 1 -0.697161 2.04769 7.21539 4.10905
65 1 -0.708041 6.5339 0.932923 6.51017
98 3 -0.892147 3.44308 1.09634 8.01418
163 2 0.0141964 4.65982 6.52263 5.71488
80 3 -0.835193 1.42551 0.663527 6.32071
195 2 0.198587 5.40266 0.876078 6.77477
83 3 -0.789043 -1.20252 4.99352 0.498331
85 3 -0.794769 0.471958 3.13829 6.25552
86 3 -0.764739 -1.16275 5.51133 6.08148
96 3 -0.869557 2.54633 2.34239 4.68862
97 3 -0.779801 7.09733 1.29339 1.28209
82 3 -0.769801 -1.19206 3.44094 2.99826
100 3 -0.852033 5.1523 2.37924 4.42641
103 3 -0.822367 3.70978 3.96313 2.96577
200 2 0.217781 2.42823 6.18959 3.80493
105 3 -0.778124 0.335731 5.76265 2.5063
107 3 -0.818952 4.06596 5.62694 0.844274
148 2 -0.0162098 3.7695 1.42197 2.57902
208 2 0.163689 3.44358 7.18088 7.52992
171 2 0.14881 1.23052 2.39735 1.26754
172 2 0.239991 1.94729 4.13111 1.146
176 2 0.157415 1.00524 6.32808 7.52383
177 2 0.225684 2.068 4.72737 7.38505
193 2 0.143577 7.17192 0.763365 7.48938
36 4 1.02137 5.96218 3.59659 7.89879
198 2 0.170616 1.63869 7.2623 5.18068
174 2 0.165865 -2.79422 6.94432 1.37359
84 3 -0.763392 -1.07872 3.5897 8.37337
267 2 0.155728 3.57224 1.61673 14.0341
14 4 1.25541 1.42741 2.53198 11.0042
19 4 1.22489 0.800894 5.09539 12.7073
20 4 1.00128 -0.409023 7.60499 10.8755
29 4 1.38258 3.56186 2.28934 9.00326
31 4 1.05575 4.82407 3.264 15.5161
32 4 1.15193 5.87351 2.59098 11.5952
35 4 1.21349 4.4602 7.58067 16.4276
37 4 1.17552 5.41804 5.14984 13.0421
38 4 1.22378 2.05696 7.19393 14.7639
183 2 0.208151 -1.74281 5.9623 9.52984
61 1 -0.657486 -1.96544 6.86318 10.1046
66 1 -0.657691 4.36533 1.53576 14.8119
16 4 1.25665 -0.752922 7.14211 16.2357
114 3 -0.763881 0.647217 7.9027 15.3048
87 3 -0.803142 1.45496 3.66919 12.1457
88 3 -0.774804 0.325708 6.31655 11.5235
99 3 -0.811044 2.14813 2.89216 9.65537
101 3 -0.807505 6.12568 3.11375 16.4095
102 3 -0.825164 4.81754 2.03487 10.423
178 2 0.233106 1.07301 5.15868 9.03401
110 3 -0.809497 4.87427 4.17323 14.2111
111 3 -0.79066 5.92566 4.28477 11.7358
112 3 -0.794235 1.85722 5.89037 13.9036
113 3 -0.816071 2.9385 7.09355 16.0724
124 3 -0.776614 7.38712 2.10634 11.3719
144 2 -0.00225626 2.17616 1.07558 11.7489
182 2 0.189848 -0.586618 4.54837 14.5994
149 2 0.000633512 3.44719 3.74716 16.4808
150 2 0.0214119 5.4288 2.01497 13.1834
153 2 -0.0151815 4.18391 6.17786 12.5418
196 2 0.11108 3.88963 1.19586 15.8763
60 1 -0.671203 -0.770494 4.40836 13.4976
261 3 -0.776394 -1.87694 6.4934 15.2261
81 3 -0.788892 -0.10646 2.16904 10.54
170 2 0.188807 1.64807 4.4658 16.617
185 2 0.150454 -2.42568 6.61234 11.1754
197 2 0.163374 5.26619 0.93716 14.473
21 4 1.26985 -2.60066 9.52737 7.09176
23 4 1.24519 -3.6177 11.9242 5.22349
262 2 -0.0234576 3.2978 8.22808 0.0703754
39 4 1.29117 -0.74693 12.2008 3.89005
199 2 0.14605 2.65886 8.06217 3.82008
238 4 1.02503 1.00487 11.4689 0.576257
41 4 0.966699 -1.30134 12.1342 8.17589
89 3 -0.767246 -2.11883 8.15159 6.48156
91 3 -0.755627 -3.61911 10.4477 5.89499
92 3 -0.838597 -4.01213 12.9885 6.3416
11 4 1.54884 -4.84291 14.0162 7.33698
115 3 -0.835979 -0.501621 13.6663 3.31615
116 3 -0.841821 -2.15156 12.1556 4.55601
117 3 -0.802863 0.996774 12.9211 1.2169
118 3 -0.769623 -1.36663 10.5321 7.73277
120 3 -0.814087 0.456212 11.7364 4.74532
173 2 0.166955 -1.70584 8.44368 0.700184
146 2 -0.0380077 -4.75833 11.9812 3.99839
151 2 -0.0019245 0.23176 8.43048 1.92927
155 2 -0.00954465 -0.854376 10.9847 2.63051
156 2 0.0392158 -1.57192 13.1668 6.83821
70 1 -0.676666 3.74341 7.90787 6.7512
106 3 -0.803567 -0.940453 7.35746 4.07228
207 2 0.166626 3.15447 7.62225 5.762
268 2 0.042607 0.957745 10.2325 2.02164
240 1 -0.655643 -0.438838 10.0151 0.98698
269 2 0.140285 -1.40529 10.0111 1.58827
194 2 0.200035 -0.631456 14.156 5.79453
246 2 0.169484 -0.363071 9.09605 0.346129
57 1 -0.662307 -2.48098 7.53383 0.44708
42 4 1.23402 2.11972 11.4993 5.05424
40 4 1.03084 3.06756 9.51843 7.6095
204 2 0.217456 0.57688 9.47921 8.26991
121 3 -0.76644 2.49762 10.5242 6.26611
24 4 1.03328 -1.39037 10.2871 12.3132
25 4 1.27231 -3.37335 12.1121 10.5253
247 2 0.147468 2.3045 10.0126 14.1917
63 1 -0.658856 -1.16513 10.0988 14.1771
64 1 -0.695443 -3.9466 13.7343 11.3646
69 1 -0.668926 1.54964 9.02925 8.70408
241 1 -0.677839 3.42287 10.1184 13.841
93 3 -0.799915 -0.759182 9.02791 11.6626
272 2 0.158615 -0.197986 14.4765 9.27581
95 3 -0.795515 -2.58614 11.2064 11.6181
119 3 -0.817715 -2.27163 12.4333 9.33177
147 2 0.0152927 -0.150032 11.2614 12.9705
62 1 -0.648632 -3.75015 9.01048 8.46841
245 2 0.0428596 0.316422 12.4058 16.5605
90 3 -0.827951 -5.67842 13.0961 8.46869
188 2 0.14829 -1.00711 11.1396 14.6128
189 2 0.245134 -0.418021 9.3071 14.6177
190 2 0.146986 -2.31526 9.72707 14.3381
191 2 0.19736 -5.1081 13.6425 11.1419
94 3 -0.770196 -4.83523 11.2206 9.89161
187 2 0.229914 -3.53651 9.5005 9.50166
154 2 -0.00393547 2.63178 8.29557 13.5408
266 2 0.154906 -3.62067 13.4584 12.4916
145 2 0.0300414 0.00416977 7.91141 9.22128
206 2 0.139553 1.67383 7.89095 8.4848
192 2 0.231675 -3.39594 14.6873 10.974
157 2 -0.012209 0.288029 12.7655 8.5612
184 2 0.177617 -2.5992 7.66955 9.51322
205 2 0.16249 1.75498 9.42648 9.73084
175 2 0.154299 -2.42398 8.86093 16.5936
1 4 1.29016 14.0813 1.97432 3.65705
6 2 0.130998 11.6765 1.22321 0.45206
3 1 -0.661637 12.6578 2.19602 4.96148
165 2 -0.0368396 9.47548 7.02724 5.85527
5 3 -0.793408 13.4904 0.87589 2.44322
59 1 -0.662755 12.0319 6.38599 4.42547
7 2 0.152332 12.0312 1.3108 4.4984
8 2 0.147104 12.2903 3.26515 4.51698
9 2 0.157444 12.7398 2.17794 6.09661
263 2 0.15442 12.1143 5.26798 4.49339
213 2 0.090063 8.78011 1.28964 8.17168
43 4 1.17872 9.27412 2.46753 3.64171
47 4 0.971343 8.97275 5.19847 2.66336
48 4 0.983303 5.75872 6.88372 4.45101
256 2 -0.0159947 13.1616 0.560033 6.05837
122 3 -0.728271 9.36862 0.960393 2.80717
123 3 -0.838353 7.99924 2.56672 4.5959
128 3 -0.823844 9.31201 3.67012 2.55949
129 3 -0.8027 5.56929 6.08455 3.17882
130 3 -0.764717 8.54181 5.93671 1.33167
158 2 -0.0274579 10.6843 2.46574 4.63584
161 2 -0.0302013 10.3272 5.97025 3.39474
162 2 0.0800132 7.85835 5.39245 3.84823
26 4 1.46597 7.89059 0.162719 2.17301
166 2 -0.00609174 7.77659 5.97246 7.49594
50 4 0.901388 7.96417 7.25548 6.37309
131 3 -0.82169 7.22244 6.90917 4.97299
236 2 0.231417 10.4077 3.4973 0.683806
104 3 -0.786202 6.03617 3.84421 1.60608
180 2 0.14379 11.3207 6.8543 5.17923
237 2 0.187582 12.2875 3.4078 0.17391
179 2 0.17877 12.0609 6.78963 3.38841
28 4 1.33646 6.44925 2.59814 0.501629
109 3 -0.779586 6.40611 3.84572 6.4007
44 4 0.989588 8.59984 2.08101 10.266
49 4 1.24933 9.6466 7.54613 16.4622
46 4 1.28227 11.6766 1.99444 11.468
260 2 0.22329 9.59725 4.52959 16.6452
51 4 1.31468 6.88672 7.34497 14.5315
259 2 0.192406 9.08635 3.11772 15.4746
257 1 -0.667374 8.8043 4.05471 16.0301
73 1 -0.648596 11.5627 3.54732 12.5393
159 2 -0.0270422 8.43156 3.59951 9.41921
125 3 -0.802473 12.7533 2.37411 10.3983
126 3 -0.762915 10.0895 1.97901 10.918
270 2 0.143966 13.6962 2.21043 15.3993
132 3 -0.766565 6.80622 6.0268 13.6351
133 3 -0.77026 8.27616 7.48341 15.5178
68 1 -0.680768 7.00883 4.95064 9.00233
12 4 1.51782 14.1353 2.19397 9.46209
134 3 -0.881775 5.5063 7.62731 15.2149
202 2 0.242624 6.67285 4.60005 10.0814