ITEM: TIMESTEP
0
ITEM: NUMBER OF ATOMS
274
ITEM: BOX BOUNDS xy xz yz pp pp pp
-7.3914999999999997e+00 1.6478000000000002e+01 -7.3914999999999997e+00
0.0000000000000000e+00 1.5100700000000000e+01 9.9190000000000000e-01
0.0000000000000000e+00 1.6771000000000001e+01 1.0307999999999999e+00
ITEM: ATOMS id type q x y z
98 3 -0.811352 3.63625 1.16323 8.22399
13 4 1.56468 1.26244 1.98556 5.47085
15 4 1.24539 0.0116822 4.45019 1.58041
65 1 -0.6783 6.54472 0.565175 6.2686
17 4 1.24224 -0.349052 4.4468 7.37504
18 4 1.22981 -2.0554 6.66959 5.59309
27 4 1.24041 3.81895 2.93906 3.95348
101 3 -0.790658 4.36871 2.16917 0.0159964
30 4 1.34488 6.69008 2.34535 5.51736
33 4 1.45886 4.85564 5.15825 2.23881
177 2 0.24151 1.88674 4.58655 8.16295
56 1 -0.671069 1.47244 3.63173 0.679493
26 4 1.48123 7.52963 0.16356 1.97995
97 3 -0.799523 6.71807 1.42126 1.08609
28 4 1.34613 6.0041 2.6892 0.5801
176 2 0.160894 1.11412 6.25294 7.33342
200 2 0.225427 2.75706 6.67258 3.87793
80 3 -0.838306 1.64489 0.761136 6.43792
82 3 -0.734434 -0.620456 3.27449 2.85363
83 3 -0.805304 -1.14203 4.66418 0.369484
85 3 -0.740892 0.313167 3.09142 6.36857
86 3 -0.75303 -1.36607 5.47266 6.53156
96 3 -0.84664 2.56962 2.65023 4.86711
106 3 -0.753135 -0.824824 7.07741 4.33279
213 2 0.18327 7.76303 0.863027 7.87415
100 3 -0.802846 5.36748 2.66453 4.67487
103 3 -0.796494 3.83024 4.53021 3.38833
58 1 -0.668207 1.02373 5.39338 8.12322
105 3 -0.751592 0.410477 5.93471 2.34349
107 3 -0.831237 3.98679 5.82952 0.983668
148 2 -0.00411493 3.79809 1.83881 2.69423
195 2 0.183335 6.37182 0.598004 7.40612
171 2 0.147902 1.52577 2.57948 1.18352
172 2 0.257349 2.42187 4.19555 0.738042
79 3 -0.818564 0.288253 1.33885 4.32341
36 4 1.04802 5.95293 4.17941 7.86208
261 3 -0.773843 -1.94491 6.44689 15.197
14 4 1.31433 1.35112 2.34592 10.7246
19 4 1.23811 0.734132 4.72499 12.6594
20 4 0.99405 -0.720155 7.26343 10.9715
29 4 1.48971 3.86353 2.42525 9.20679
31 4 1.0671 4.45894 3.03889 15.5436
32 4 1.2061 5.89155 2.60798 11.6069
111 3 -0.794228 5.61434 4.15772 11.7046
37 4 1.21961 5.05566 4.86462 13.1333
38 4 1.2448 2.24635 6.89562 14.6403
60 1 -0.673691 -0.316234 3.82252 13.8841
35 4 1.24902 4.46855 7.53084 16.4511
66 1 -0.639896 4.74358 1.35821 14.6533
184 2 0.175598 -2.05036 7.15329 9.06442
61 1 -0.660867 -1.99451 6.38018 9.96192
87 3 -0.850105 1.20069 3.56087 11.7768
88 3 -0.754755 0.0254659 6.04142 11.8266
99 3 -0.817633 2.24576 2.86562 9.55542
124 3 -0.799522 7.44053 2.37256 10.9655
102 3 -0.818533 4.73513 1.85249 10.6866
16 4 1.31459 -0.600137 6.80829 16.1184
110 3 -0.847989 4.79767 3.80685 14.2241
267 2 0.154572 4.36576 1.12804 13.6449
112 3 -0.797398 2.15343 5.67657 13.6487
113 3 -0.865074 3.32264 6.68159 15.6967
114 3 -0.805727 0.766348 7.16615 15.2842
144 2 -0.00386806 2.23029 1.05861 11.4717
149 2 -0.0151309 2.84963 3.23628 16.1154
108 3 -0.839452 4.62331 3.58875 8.47499
150 2 0.00460401 5.89862 1.84234 13.1132
153 2 0.0728297 3.53908 5.63905 12.7803
170 2 0.1945 1.94514 4.76719 16.3647
182 2 0.178562 0.130438 3.98073 14.879
183 2 0.273709 -1.63838 5.33667 9.6161
178 2 0.183873 0.786395 5.76285 9.14951
197 2 0.157252 5.95666 1.2861 14.6679
21 4 1.2572 -2.95505 9.54885 7.18634
23 4 1.31427 -3.60017 12.0104 5.56269
238 4 0.979304 0.760857 11.5286 0.420886
39 4 1.23383 -1.02285 12.2142 3.85479
40 4 1.05858 2.85672 9.78771 7.48816
207 2 0.171208 3.14042 7.91306 5.67694
246 2 0.146523 -0.508056 8.96241 0.565743
89 3 -0.772019 -2.39907 7.90241 6.50062
91 3 -0.815494 -3.84731 10.5315 6.06388
92 3 -0.877293 -3.81785 13.1622 6.61742
175 2 0.167923 -3.43851 7.14843 0.237165
115 3 -0.816182 -0.946297 13.5738 3.01473
116 3 -0.874448 -2.2897 12.1559 4.75162
117 3 -0.796971 0.609533 13.0063 0.92254
11 4 1.57007 -4.71485 14.1483 7.45137
120 3 -0.793739 0.424946 12.1239 4.65205
121 3 -0.764971 2.33865 10.8348 6.32747
146 2 -0.0230851 -4.79029 12.2088 4.35448
151 2 -0.0208049 -0.0428473 8.71571 2.30986
155 2 -0.0166647 -1.02985 10.9171 2.65938
156 2 0.027299 -0.97962 12.8893 7.32376
208 2 0.15107 3.72604 7.60766 7.52409
199 2 0.101185 2.14635 8.53287 3.70115
240 1 -0.641956 -0.684374 10.0125 0.995902
118 3 -0.855191 -1.94218 10.432 7.9368
268 2 0.00994836 0.678418 10.4133 1.97961
193 2 0.192307 0.0621773 14.0014 5.97529
205 2 0.184048 0.377271 9.63893 8.02484
269 2 0.147308 -1.70273 10.0927 1.41296
194 2 0.240468 -1.74709 14.3347 5.65221
57 1 -0.676728 -2.27457 7.32567 0.310753
70 1 -0.661833 3.73225 8.27168 6.64274
67 1 -0.657811 1.93199 7.41507 4.10671
34 4 1.03241 0.282878 7.26913 3.25696
198 2 0.176623 1.57072 7.42912 5.18231
174 2 0.169986 -1.9931 7.16387 1.37333
262 2 -0.00325879 3.05873 8.16328 0.117068
24 4 0.993818 -2.12233 9.63397 12.8195
25 4 1.2313 -3.22437 11.9628 10.8277
266 2 0.150924 -3.4306 13.2311 12.7798
63 1 -0.650096 -2.92058 9.43991 14.4783
64 1 -0.683036 -3.95511 13.48 11.7251
204 2 0.114781 1.68708 8.24993 8.60851
245 2 0.0433471 0.15043 12.1324 16.3624
93 3 -0.765322 -1.40724 8.34186 11.923
94 3 -0.775974 -4.55084 11.3594 10.0258
95 3 -0.789568 -2.63368 10.91 11.9633
119 3 -0.773236 -1.82443 12.5557 9.64542
147 2 0.0162301 -1.14456 10.2231 14.197
154 2 -0.0125768 2.62862 8.30092 13.641
157 2 -0.00472564 0.343535 11.1133 8.90246
189 2 0.187157 -2.29873 8.94509 15.4008
188 2 0.152948 -3.66392 10.2832 14.8211
272 2 0.114792 1.06192 13.9992 9.57306
206 2 0.144864 1.30496 9.83996 9.75797
191 2 0.184851 -5.09635 13.4492 11.7275
196 2 0.115933 -3.21499 14.8511 15.543
249 2 0.143501 2.20056 10.2949 14.4247
187 2 0.205744 -3.55604 8.92844 9.56822
145 2 5.93941e-05 0.312844 8.03042 9.82848
192 2 0.238864 -3.51336 14.4402 11.3299
69 1 -0.654381 1.23357 9.38946 8.72049
241 1 -0.658276 3.30216 10.1371 14.0366
41 4 1.00091 -1.25856 11.7387 8.5352
90 3 -0.80637 -5.70063 13.3526 8.74091
247 2 0.137178 3.91102 9.18224 14.4923
173 2 0.147181 -0.847242 9.31422 16.5839
1 4 1.33113 14.5132 1.80199 3.42998
6 2 0.0718985 11.6761 1.12654 0.903554
3 1 -0.674503 12.837 2.07613 4.4967
263 2 0.13209 11.388 5.4797 5.74323
5 3 -0.829458 13.9701 0.865243 2.23619
255 2 0.0142159 13.6493 0.70864 5.71673
7 2 0.137989 12.376 1.05879 4.25196
8 2 0.166526 12.4419 2.89886 3.80273
9 2 0.143 12.682 2.33293 5.57194
50 4 0.8834 8.37797 7.25111 6.15882
256 2 -0.0279824 11.3817 0.700673 6.95861
43 4 1.15102 9.31813 2.09411 3.60044
47 4 0.97022 9.07569 4.72999 2.51688
48 4 0.913182 6.25511 7.25272 4.23695
59 1 -0.664096 11.5745 6.14714 4.80256
122 3 -0.746407 8.91685 0.725762 2.71637
123 3 -0.835676 8.08795 2.3028 4.58366
128 3 -0.794094 9.58916 3.25472 2.38319
129 3 -0.78216 5.73275 6.49455 2.93879
130 3 -0.772494 8.69734 5.42137 1.13628
158 2 -0.0268826 10.8773 1.93401 4.32558
161 2 -0.00101141 10.2106 5.74727 3.4348
162 2 0.0447645 7.96258 4.94817 3.6965
179 2 0.147502 12.2546 5.69508 3.91213
166 2 -0.0211697 8.04976 6.20407 7.49121
203 2 0.0616464 5.65278 5.71466 6.7411
235 2 0.203422 11.6976 3.75663 0.29339
165 2 -0.000261352 10.0594 6.91844 5.86166
131 3 -0.823395 7.63954 6.75015 4.81607
68 1 -0.645393 6.22347 6.20205 8.23503
201 2 0.150725 6.77069 7.20772 8.10781
109 3 -0.828977 6.832 3.27282 6.82966
104 3 -0.817019 5.81115 4.03608 1.52047
273 2 0.147118 9.5805 0.991565 8.10409
254 3 -0.827892 13.6113 1.29212 8.31564
163 2 -0.00706624 5.03867 7.27233 5.44399
180 2 0.159751 11.4292 7.27781 4.75516
44 4 1.06735 8.79494 1.98162 10.2804
12 4 1.54331 14.0954 2.20449 9.51349
46 4 1.30483 11.6659 1.71845 11.606
84 3 -0.769266 14.2404 3.7983 8.8247
51 4 1.29911 6.7401 7.38735 14.4742
257 1 -0.656357 7.92532 4.23482 15.8105
258 2 0.278849 7.92178 5.39277 15.6434
73 1 -0.659747 11.6816 3.15479 12.8837
270 2 0.166691 13.9328 2.29974 15.7506
125 3 -0.817646 12.9198 2.14004 10.6315
126 3 -0.835548 10.1959 1.80696 10.9186
259 2 0.185758 7.43904 3.65551 14.8959
132 3 -0.772742 6.20484 5.91783 13.5617
133 3 -0.782895 8.00195 7.11657 15.3499
152 2 0.0671096 7.10732 5.08708 9.10454
202 2 0.167518 5.3941 6.3938 8.95175
4 1 -0.650056 13.6817 1.34422 16.3038
72 1 -0.647127 8.59778 0.975188 8.63843
214 2 0.166191 10.6002 3.41067 13.1652
215 2 0.16272 12.2063 3.95836 12.2235
216 2 0.152797 12.3001 2.8005 13.7362
260 2 0.179224 8.97072 3.83177 16.1052
231 4 0.998763 11.9941 5.80948 15.0586
159 2 0.0236018 9.00409 2.80467 8.68842
233 3 -0.743467 10.7534 6.76834 15.4241
234 2 -0.00455175 11.6994 5.08269 13.4389
49 4 1.20873 9.462 7.28648 16.4945
236 2 0.143042 12.1803 3.53281 15.6053
185 2 0.167312 12.6129 6.35403 10.6984
264 2 0.167345 14.1633 4.446 13.6862
232 1 -0.65005 11.901 4.40986 16.2702
81 3 -0.817509 15.4706 1.71508 10.2384
181 2 0.157564 15.0304 2.72483 13.6154
237 2 0.223221 10.8734 4.21273 16.6739
253 4 0.988473 5.63512 14.4393 7.23358
52 4 1.02578 4.07713 11.5027 2.67735
53 4 1.06071 8.0646 10.2798 6.94976
223 2 0.164443 5.39208 10.3061 4.35754
212 2 0.156173 3.42838 13.976 5.29646
71 1 -0.673379 2.57303 13.6552 5.99129
140 3 -0.757067 5.61312 12.9116 7.60442
76 1 -0.660164 5.57519 10.5052 3.28693
77 1 -0.671936 7.73207 11.4396 5.44389
42 4 1.24667 2.09806 12.0048 5.13308
135 3 -0.788744 4.76493 12.8222 2.00937
136 3 -0.800289 3.20304 11.8359 3.94733
137 3 -0.849362 8.23672 8.76163 6.50537
252 2 0.138364 4.30255 9.03775 1.03566
225 2 0.189454 8.40987 12.3664 5.68191
164 2 0.00135075 6.40119 8.89852 4.04251
224 2 0.177698 6.50046 11.0846 3.03495
167 2 -0.00688077 3.36275 10.5897 1.4229
168 2 0.0752666 6.4346 10.9715 6.81542
274 2 0.173618 9.11766 8.06101 1.33495
209 2 0.157971 4.74009 8.81051 6.50716
210 2 0.183482 2.89612 13.1728 6.9646
227 2 0.147606 8.29803 10.6689 4.69372
2 4 1.04574 5.55499 14.0721 1.42342
226 2 0.187534 6.70221 11.7342 5.12365
222 2 0.109605 5.29223 9.56136 2.51234
138 3 -0.812251 8.83065 11.0019 8.14816
250 2 0.13571 4.69843 10.7335 0.122299
74 1 -0.662667 8.82997 7.9925 0.264558
211 2 0.164753 1.64385 14.3687 6.04693
139 3 -0.741035 4.00193 10.5831 8.24191
186 2 0.155233 11.3211 7.6799 8.24705
242 1 -0.663489 4.28908 9.56028 0.0225026
217 2 0.153251 7.77833 8.45503 0.0850975
22 4 1.54045 9.48648 11.9843 9.35071
54 4 1.23484 4.87219 12.0176 9.05939
55 4 1.29997 6.98369 11.8133 11.2676
75 1 -0.6512 7.28743 8.96988 13.4763
78 1 -0.686939 3.41433 13.0466 9.615
160 2 0.00249802 6.58952 14.4838 14.5709
10 2 0.0730232 7.51727 14.5315 16.3504
141 3 -0.800708 8.3913 12.0025 10.5609
142 3 -0.867652 5.85563 11.6821 10.1748
143 3 -0.838817 6.87214 12.8257 12.5082
169 2 0.0120203 6.95139 10.2296 12.0295
134 3 -0.855163 5.57802 7.9927 15.3262
220 2 0.176744 8.33138 9.27021 13.729
221 2 0.158141 6.47736 9.7521 13.7765
230 2 0.183883 3.09759 14.0183 9.15778
239 4 1.0967 4.10021 11.5011 15.2271
248 2 0.161529 3.552 10.4903 12.9395
62 1 -0.648703 11.431 8.80429 8.54646
243 3 -0.807017 4.90931 12.4471 14.2552
271 2 0.165579 5.37812 14.8598 15.8541
190 2 0.167598 11.8202 8.51425 13.9847
251 2 0.184757 5.9039 10.064 16.0048
228 2 0.204869 3.706 13.2014 10.7025
229 2 0.150026 2.55369 12.2539 9.46018
219 2 0.133808 7.04889 8.41733 12.4343
218 2 0.169896 10.5828 9.44183 16.3149
265 2 0.224481 10.4408 9.33381 8.41159
45 4 1.22362 5.72174 13.5134 13.3489
244 3 -0.794481 2.96699 12.0755 16.131
127 3 -0.787881 4.63501 14.4383 12.5847
ITEM: TIMESTEP
100
ITEM: NUMBER OF ATOMS
274
ITEM: BOX BOUNDS xy xz yz pp pp pp
-7.3914999999999997e+00 1.6478000000000002e+01 -7.3914999999999997e+00
0.0000000000000000e+00 1.5100700000000000e+01 9.9190000000000000e-01
0.0000000000000000e+00 1.6804542000000001e+01 1.0307999999999999e+00
ITEM: ATOMS id type q x y z
98 3 -0.818965 4.00855 1.13561 7.98209
13 4 1.56397 1.26207 2.12456 5.63045
15 4 1.3632 -0.0572497 4.45166 1.61391
65 1 -0.678615 6.52121 0.51186 6.25529
17 4 1.23487 -0.483027 4.32463 7.38632
18 4 1.2474 -2.03734 6.84239 5.42775
27 4 1.24187 3.94596 3.02969 4.06333
26 4 1.48506 7.60438 0.135249 1.95847
30 4 1.30146 6.76138 2.28406 5.5396
33 4 1.4924 4.92002 5.19189 2.27264
177 2 0.192975 1.59377 5.29987 7.51694
56 1 -0.655038 1.48715 3.5635 0.733843
104 3 -0.812938 5.82653 3.89143 1.71882
97 3 -0.803953 6.89653 1.40832 1.26897
28 4 1.34617 5.92718 2.60004 0.679184
176 2 0.165433 0.236389 6.44907 8.18714
200 2 0.243634 2.62439 6.52261 3.79668
80 3 -0.835743 1.57571 0.910477 6.64346
82 3 -0.809311 -0.46767 3.27853 2.72232
83 3 -0.789953 -1.2003 4.7121 0.573317
85 3 -0.802146 0.412 3.25647 6.54543
86 3 -0.719996 -1.4796 5.36133 6.52799
96 3 -0.830673 2.60176 2.73809 4.89889
106 3 -0.75737 -0.987471 7.01523 4.30671
213 2 0.172732 7.74923 0.793607 7.82721
100 3 -0.819783 5.41093 2.7141 4.78855
103 3 -0.778658 3.83861 4.62296 3.43806
58 1 -0.658854 0.733343 5.41803 8.27992
105 3 -0.797859 0.484135 5.88067 2.16358
107 3 -0.830646 4.12014 5.85377 0.97531
148 2 -0.00918385 3.74731 1.99258 2.78944
195 2 0.215564 6.13853 0.809581 7.33059
171 2 0.153446 1.50334 2.48604 1.12823
172 2 0.233332 2.47948 4.16278 0.885173
79 3 -0.840261 0.257131 1.57571 4.53737
36 4 1.04634 5.93656 4.36432 7.75412
34 4 0.97337 0.363983 7.17944 3.01721
178 2 0.228546 0.919824 5.10486 9.31263
14 4 1.30613 1.38786 2.29397 10.6886
19 4 1.19492 0.773036 4.79299 12.6784
20 4 1.04536 -0.774738 7.29105 11.0554
29 4 1.48481 3.86672 2.46991 8.97043
31 4 1.02548 4.52249 2.92532 15.5292
32 4 1.21236 5.73978 2.63632 11.5879
111 3 -0.809762 5.5738 4.20257 11.7804
37 4 1.20257 5.21355 4.98044 13.141
38 4 1.25136 2.14678 6.89121 14.6215
60 1 -0.671491 -0.579432 4.33161 13.847
35 4 1.28047 4.44822 7.51683 16.4312
66 1 -0.679816 4.70333 1.22227 14.7255
184 2 0.167982 -2.17766 7.16604 9.10356
61 1 -0.66335 -2.06896 6.46529 10.0073
87 3 -0.827883 1.18979 3.4912 11.8227
88 3 -0.769437 0.0125576 6.1205 11.8192
99 3 -0.83962 2.38883 2.77087 9.57826
124 3 -0.76059 7.33047 2.27108 11.0079
102 3 -0.799347 4.75717 1.93993 10.5448
16 4 1.29023 -0.582955 6.87619 15.9864
110 3 -0.822097 4.93757 3.95514 14.3115
267 2 0.134761 4.14334 1.28079 13.7352
112 3 -0.813495 2.19348 5.62293 13.7238
113 3 -0.873357 3.18713 6.8828 15.8325
114 3 -0.846572 0.646609 7.23653 15.0754
144 2 0.0117127 2.26972 1.03731 11.4283
149 2 -0.0164507 2.91709 3.2339 16.1817
108 3 -0.820696 4.56521 3.78962 8.42682
150 2 0.0072756 5.62367 1.89064 13.0895
153 2 0.0788272 3.63375 5.64932 12.8625
170 2 0.182698 2.0233 4.71104 16.4945
182 2 0.192652 -0.287356 4.52921 14.8551
183 2 0.27593 -1.89736 5.38102 9.64608
101 3 -0.813756 5.53206 3.10239 16.7144
264 2 0.198789 -1.41464 5.06263 13.4367
21 4 1.28672 -3.15352 9.43491 7.15763
23 4 1.29878 -3.6661 11.847 5.49607
238 4 0.964791 0.469155 11.4558 0.375431
39 4 1.22902 -0.91956 12.2389 3.83523
40 4 1.05532 2.73987 9.9334 7.51744
207 2 0.186637 3.14761 8.2379 5.58551
246 2 0.157617 -0.515317 9.02283 0.39926
89 3 -0.791941 -2.44188 8.09934 6.34797
91 3 -0.797128 -3.97889 10.4257 6.02358
92 3 -0.81013 -4.00002 12.8566 6.66709
42 4 1.28217 1.90573 11.9715 5.24548
115 3 -0.791702 -1.00499 13.6294 3.10607
116 3 -0.848079 -2.273 12.0009 4.69829
117 3 -0.822297 0.489446 12.9334 0.971403
11 4 1.51239 -4.67179 14.2031 7.52709
120 3 -0.832444 0.536587 12.1506 4.61203
121 3 -0.816786 2.10362 10.7975 6.3447
146 2 -0.0238525 -4.8698 12.0805 4.35186
151 2 -0.0226622 0.192145 8.52035 1.91628
155 2 -0.0109052 -0.952581 10.9826 2.60348
156 2 0.0210734 -0.803964 12.8624 7.30555
208 2 0.151556 3.73727 7.72308 7.32332
199 2 0.118802 2.25844 8.40711 3.39943
240 1 -0.643585 -0.831097 9.91366 0.997524
118 3 -0.805076 -1.97451 10.3812 7.90253
268 2 0.0147243 0.663823 10.4396 1.88033
193 2 0.173344 0.171054 14.0093 6.20799
205 2 0.184744 0.175879 9.59222 8.19026
269 2 0.14597 -1.64178 9.69395 1.76454
194 2 0.229974 -1.69309 14.2528 5.52498
262 2 -0.0169621 3.12981 8.12212 0.091142
70 1 -0.653299 3.68365 8.50639 6.54981
67 1 -0.670992 1.96488 7.42632 3.98624
174 2 0.157814 -1.81093 7.56051 1.09285
198 2 0.184201 1.57636 7.52588 5.02715
24 4 1.01772 -2.16571 9.76802 12.5705
25 4 1.28036 -3.13196 12.0248 10.6235
266 2 0.160536 -3.47467 13.3566 12.6159
63 1 -0.665496 -3.06785 9.40122 14.1834
64 1 -0.692913 -3.83899 13.6018 11.5693
204 2 0.113559 1.72634 8.23337 8.42873
245 2 0.0455075 -0.309284 12.0611 16.6055
93 3 -0.803032 -1.37168 8.479 11.8609
94 3 -0.760318 -4.60376 11.3278 9.69986
95 3 -0.834523 -2.69432 11.0054 11.7256
119 3 -0.793098 -1.89518 12.4157 9.55636
147 2 0.00897747 -1.33868 10.3083 14.0054
154 2 -0.0039275 2.52927 8.23177 13.6172
157 2 -0.0226552 0.410144 11.2427 8.82641
189 2 0.169603 -2.30823 9.14055 15.0805
188 2 0.158974 -3.8233 10.2059 14.4139
272 2 0.133077 0.939724 13.9639 9.35965
206 2 0.15303 1.26125 9.88522 9.73811
191 2 0.190744 -4.96052 13.3825 11.4955
196 2 0.12014 -3.3247 14.716 15.5079
249 2 0.144399 2.13239 9.82058 14.389
197 2 0.17612 -1.63441 14.9534 14.7577
145 2 0.015851 0.102989 7.98203 9.71784
192 2 0.257604 -3.37386 14.5485 11.0478
69 1 -0.640156 1.14307 9.36348 8.73936
241 1 -0.668957 3.19865 10.0867 13.9623
41 4 0.993849 -1.18021 11.6321 8.4171
90 3 -0.794206 -5.41366 13.6017 8.87473
247 2 0.137485 4.02492 9.2533 14.1208
173 2 0.1507 -0.874859 9.37527 16.1247
244 3 -0.766712 2.62911 11.9292 16.0108
248 2 0.182172 3.20551 10.5308 12.9518
175 2 0.174873 -2.38658 8.39247 16.6538
57 1 -0.658342 -1.22201 8.5035 16.7634
1 4 1.33286 14.653 1.94789 3.44027
6 2 0.0414338 11.7444 1.27191 0.948458
3 1 -0.674963 12.9424 2.06551 4.48595
263 2 0.151266 11.4734 5.49025 5.49759
5 3 -0.791868 14.0314 0.824657 2.29355
255 2 0.0157126 13.5867 0.567575 5.63558
7 2 0.134734 12.3915 1.08341 4.53476
8 2 0.163256 12.4873 2.83428 3.81019
9 2 0.168439 13.4641 2.52286 5.46226
50 4 0.874743 8.49445 7.14203 6.207
256 2 -0.0302362 11.3318 0.646055 6.73865
43 4 1.19308 9.42768 1.95794 3.59738
47 4 0.994787 9.09609 4.76066 2.7152
48 4 0.911173 6.29503 7.24692 4.24039
59 1 -0.66851 11.6903 6.27667 4.75106
122 3 -0.768742 9.02538 0.611953 2.76027
123 3 -0.810449 8.22898 2.27002 4.76199
128 3 -0.832378 9.56311 3.274 2.70304
129 3 -0.815211 5.74445 6.27009 3.07683
130 3 -0.813792 8.85732 5.43165 1.29543
158 2 -0.023679 10.9309 1.83041 4.39839
161 2 -0.00420672 10.3788 5.62478 3.42142
162 2 0.0767533 7.78348 5.00411 3.75196
179 2 0.163367 12.1925 5.93327 3.75987
166 2 -0.0104471 8.16691 6.20231 7.62746
203 2 0.059147 5.56561 5.84281 6.61024
2 4 1.04166 12.8658 0.103995 1.50465
165 2 -0.0146281 10.062 6.72398 5.84503
131 3 -0.82708 7.58526 6.67213 4.9702
68 1 -0.648013 6.30531 6.36321 8.1061
201 2 0.162419 6.85689 7.31798 7.96084
109 3 -0.792825 6.85462 3.3838 6.91914
237 2 0.233014 10.5068 3.50219 0.518987
273 2 0.144337 9.61059 0.871638 8.28927
254 3 -0.840841 13.5067 1.23055 8.18439
211 2 0.178212 8.92229 0.38771 6.12708
44 4 1.05788 8.72789 1.93394 10.2808
12 4 1.53836 14.0227 2.13023 9.43839
46 4 1.29339 11.8308 1.73434 11.6999
84 3 -0.756219 14.0315 3.72314 8.99591
51 4 1.23806 6.85679 7.32527 14.4747
257 1 -0.644928 7.84266 4.13138 15.8434
258 2 0.272841 7.97938 5.31692 15.8527
73 1 -0.672468 11.9657 3.27345 12.8575
270 2 0.153077 14.3911 2.27111 16.0373
125 3 -0.814359 12.8199 2.04009 10.4985
126 3 -0.767105 10.1026 1.94189 11.004
259 2 0.207243 7.2509 3.74959 14.9015
132 3 -0.779175 6.42511 6.16946 13.449
133 3 -0.749364 8.25507 7.0134 15.7703
152 2 0.0780921 7.03692 5.27935 9.11468
271 2 0.158983 12.8231 1.20761 15.8682
4 1 -0.678932 13.8116 1.35086 16.349
72 1 -0.656151 8.52266 0.904163 8.72198
214 2 0.167273 10.8183 3.4464 12.8491
215 2 0.174779 12.6199 4.04144 12.3505
216 2 0.138239 12.3867 2.83261 13.864
260 2 0.186586 8.8107 3.58223 16.0367
231 4 1.01849 12.0003 5.67764 15.1152
159 2 0.035586 8.83359 2.8322 8.74978
233 3 -0.766327 10.8611 6.68305 15.5865
234 2 -0.0066708 11.7455 5.16436 13.4583
49 4 1.29069 9.67656 7.18526 16.6793
236 2 0.15034 11.4924 3.32431 15.7395
185 2 0.148073 12.4801 6.61467 10.725
235 2 0.179214 13.1023 3.983 16.3499
232 1 -0.658855 11.9743 4.17936 16.2859
81 3 -0.809259 15.4959 1.73555 10.1647
181 2 0.148171 14.7119 3.20329 13.6469
261 3 -0.775188 13.5261 6.3034 15.2932
134 3 -0.849513 5.54857 7.74373 15.3099
202 2 0.159636 5.30224 6.57117 8.6426
186 2 0.148008 11.4105 7.51836 8.40877
253 4 0.991665 5.56299 14.3175 7.17971
52 4 1.04318 4.07491 11.518 2.65861
53 4 1.04405 8.17925 10.2897 7.02135
223 2 0.150333 5.3368 10.1309 4.46132
212 2 0.133325 3.17298 13.8704 5.25409
71 1 -0.677191 2.32863 13.6285 6.12506
140 3 -0.793125 5.65581 12.8051 7.53473
76 1 -0.672622 5.40836 10.3448 3.34392
77 1 -0.657653 7.68985 11.4857 5.57785
180 2 0.154726 11.3293 7.4707 4.8916
135 3 -0.790419 4.73695 12.8978 2.06659
136 3 -0.753085 3.04805 11.7155 3.77923
137 3 -0.826192 8.40073 8.70139 6.5472
252 2 0.127362 4.54029 9.43064 0.993658
225 2 0.205012 7.97816 12.5053 6.11643
164 2 -0.00451393 6.69613 8.80829 3.66251
224 2 0.160564 6.32476 10.9819 3.01713
167 2 0.00832924 3.20703 10.6623 1.41664
168 2 0.0471921 6.49688 10.7294 6.89781
274 2 0.162412 8.87438 8.25043 1.35691
209 2 0.141731 4.68664 9.08997 6.31703
210 2 0.150433 2.72854 13.3089 7.1461
227 2 0.14905 8.50901 10.9947 4.86922
163 2 -0.0115223 5.05437 7.81025 5.26285
226 2 0.175904 6.62913 11.4942 5.12138
222 2 0.117807 5.16244 9.44916 2.65084
138 3 -0.832749 8.93272 11.1052 8.11909
265 2 0.215983 10.1599 8.90077 8.29125
74 1 -0.658007 8.92817 8.04004 0.262424
22 4 1.54009 9.5473 12.0076 9.31748
54 4 1.21346 4.82055 11.954 8.88345
55 4 1.2975 7.11294 11.8361 11.3281
75 1 -0.667554 7.47728 8.676 13.271
78 1 -0.663496 3.5929 13.1999 9.63383
160 2 -0.0105948 6.33962 14.5262 14.5537
10 2 0.11496 7.13952 14.4086 16.3017
141 3 -0.816812 8.58829 12.1051 10.6621
142 3 -0.776421 5.98841 11.7152 10.2464
143 3 -0.834794 6.71968 12.7706 12.4571
169 2 0.00889643 7.32831 10.2492 12.0434
127 3 -0.811011 4.71653 14.47 12.5204
220 2 0.148967 8.52713 8.94427 13.7415
221 2 0.148739 6.62536 9.41106 13.4286
230 2 0.200568 3.88675 14.344 9.55524
239 4 1.07189 3.89485 11.3754 15.2187
45 4 1.22053 5.61229 13.5068 13.3988
62 1 -0.676276 11.2092 8.65937 8.4665
243 3 -0.774455 4.7055 12.466 14.288
139 3 -0.796365 3.87362 10.7236 8.50611
190 2 0.179143 11.8708 8.43837 13.7938
251 2 0.158188 5.5705 9.94741 16.0035
228 2 0.207177 3.46115 12.8613 10.6818
229 2 0.145906 2.65701 12.9693 9.02375
219 2 0.17441 7.5965 8.16473 12.2669
218 2 0.171818 10.9412 9.24242 16.6147
242 1 -0.670103 5.26044 10.7908 16.6722
217 2 0.153073 9.08472 9.60088 16.4271
187 2 0.214576 11.4592 9.04448 9.4877
250 2 0.147852 5.83586 11.8436 16.4168
ITEM: TIMESTEP
200
ITEM: NUMBER OF ATOMS
274
ITEM: BOX BOUNDS xy xz yz pp pp pp
-7.3914999999999997e+00 1.6478000000000002e+01 -7.3914999999999997e+00
0.0000000000000000e+00 1.5100700000000000e+01 9.9190000000000000e-01
0.0000000000000000e+00 1.6838084000000002e+01 1.0307999999999999e+00
ITEM: ATOMS id type q x y z
98 3 -0.818784 3.91872 1.20998 8.0715
13 4 1.55847 1.22512 2.20952 5.78744
15 4 1.30842 -0.0727212 4.35917 1.53499
65 1 -0.679442 6.62281 0.657175 6.51934
17 4 1.2996 -0.57922 4.45209 7.36179
18 4 1.32348 -1.94602 6.67092 5.52152
27 4 1.26815 3.9356 2.95801 4.15269
101 3 -0.779847 4.55141 1.89384 0.0144756
30 4 1.30933 6.81082 2.38167 5.66215
33 4 1.47678 4.93236 5.08342 2.31892
177 2 0.219336 1.58288 5.39457 7.75925
56 1 -0.674009 1.22358 3.49282 0.401843
104 3 -0.821836 5.78099 3.88295 1.62122
97 3 -0.805814 6.96708 1.40752 1.34321
28 4 1.32913 6.11704 2.54085 0.701909
176 2 0.165223 0.123299 6.6275 7.87574
200 2 0.238284 2.49387 6.54429 3.6087
80 3 -0.849935 1.67134 0.992769 6.68579
82 3 -0.79775 -0.772569 3.34381 2.64089
83 3 -0.795764 -1.05071 4.93035 0.401513
85 3 -0.807493 0.380805 3.35601 6.55044
86 3 -0.818072 -1.53895 5.48224 6.39952
96 3 -0.799751 2.61577 2.7669 5.13802
106 3 -0.767284 -0.879441 7.05921 4.23491
213 2 0.176081 7.88662 0.865205 8.09569
100 3 -0.8225 5.31344 2.69834 4.79496
103 3 -0.787269 3.86628 4.49891 3.41519
58 1 -0.677502 0.622634 5.63711 8.2146
105 3 -0.72541 0.576051 5.78249 2.35704
107 3 -0.763642 4.04748 5.8986 1.02888
148 2 0.00117252 3.94453 1.76344 3.01056
195 2 0.193602 6.25565 1.14291 7.51406
171 2 0.153142 1.13311 2.46712 0.83289
172 2 0.214005 2.20203 4.06834 0.756611
79 3 -0.784893 0.192322 1.50734 4.51656
36 4 1.04092 5.9458 4.4635 7.63778
34 4 1.00975 0.290286 7.2107 3.13717
108 3 -0.772384 4.61217 3.95945 8.195
198 2 0.187989 1.73157 7.21334 5.24824
178 2 0.212951 0.70414 5.52254 9.32373
14 4 1.27808 1.36206 2.35772 10.5598
19 4 1.20076 0.861624 4.91584 12.5398
20 4 1.01168 -0.643616 7.28264 10.8637
29 4 1.47594 3.84542 2.51972 9.06911
31 4 1.04518 4.69051 2.9214 15.5373
32 4 1.26456 5.75791 2.66618 11.4833
111 3 -0.81546 5.61005 4.2182 11.8093
37 4 1.22391 5.34446 5.00543 13.1971
38 4 1.23613 2.0883 6.88251 14.6739
60 1 -0.656678 -0.460652 4.20037 13.6243
35 4 1.2521 4.36658 7.60313 16.399
66 1 -0.678066 4.51982 1.28257 14.5699
184 2 0.175414 -1.94618 7.03532 8.88633
61 1 -0.657579 -1.96897 6.41378 9.84284
87 3 -0.80569 1.20238 3.59948 11.6921
88 3 -0.798489 0.138366 6.09441 11.6579
99 3 -0.782746 2.25215 2.95095 9.32412
124 3 -0.833873 7.22593 2.1864 11.1182
102 3 -0.884521 4.57826 2.31353 10.4543
16 4 1.3388 -0.616414 6.9298 15.9751
110 3 -0.810478 5.13293 4.00615 14.4082
267 2 0.143114 3.91612 1.38518 13.6132
112 3 -0.823696 2.3529 5.6447 13.7449
113 3 -0.874791 3.04932 7.01614 15.9299
114 3 -0.838756 0.54537 7.33749 14.9927
144 2 -0.0029089 2.20909 0.990659 11.2532
149 2 -0.00033278 3.00693 3.14407 16.0643
197 2 0.158172 5.59032 0.943771 14.3666
150 2 0.00830608 5.5756 1.71062 12.9672
153 2 0.0821783 3.79524 5.81042 13.0275
170 2 0.200556 1.96288 4.66574 16.1427
182 2 0.169273 0.00507655 4.44161 14.6613
183 2 0.25268 -1.7698 5.31229 9.64052
81 3 -0.844206 -0.00265972 1.88236 10.0202
261 3 -0.794006 -1.85505 6.18404 15.2602
21 4 1.30364 -2.95025 9.36205 7.00601
23 4 1.27468 -3.87769 11.8676 5.40344
238 4 1.0127 0.378097 11.3909 0.352405
39 4 1.26013 -1.09205 12.2613 3.98206
40 4 1.11036 2.81599 10.0132 7.51779
207 2 0.170471 3.05455 8.15252 5.64287
246 2 0.158865 -0.734291 9.03967 0.459019
89 3 -0.818414 -2.28963 7.96225 6.36659
91 3 -0.797481 -3.89057 10.3302 5.9644
92 3 -0.839926 -4.06078 13.081 6.41823
42 4 1.2803 1.83995 11.8642 5.2116
115 3 -0.831226 -0.885375 13.6424 3.28927
116 3 -0.835247 -2.45363 12.1005 4.77511
117 3 -0.814563 0.448876 12.8149 1.0468
11 4 1.58159 -4.64661 14.2113 7.41611
120 3 -0.804631 0.2112 11.9131 4.87376
121 3 -0.812422 1.99499 10.8066 6.48006
146 2 -0.0416708 -5.02401 11.9703 4.21518
151 2 -0.0207039 0.119634 8.63922 2.11709
155 2 -0.00756527 -1.04156 11.0754 2.72797
156 2 0.0489706 -1.04068 12.8291 7.04158
208 2 0.165963 4.14776 7.78891 7.18105
199 2 0.119599 2.08268 8.48267 3.84289
240 1 -0.653928 -0.902603 9.96329 1.10576
118 3 -0.824871 -1.86867 10.3805 7.70756
268 2 0.0380707 0.534282 10.3846 1.99624
193 2 0.157656 0.169204 14.0556 6.57813
194 2 0.231619 -1.62019 14.3464 5.86283
269 2 0.149131 -1.79033 9.82501 1.74416
41 4 1.03147 -1.12842 11.6086 8.22759
26 4 1.42078 0.219751 14.0959 2.11404
70 1 -0.662804 3.75414 8.55965 6.54635
67 1 -0.653923 1.87305 7.34629 4.14436
174 2 0.167019 -2.03358 7.77969 0.946087
205 2 0.196143 0.231507 9.67999 7.99118
24 4 1.01781 -2.08108 9.74396 12.5258
25 4 1.29602 -3.22793 11.9024 10.5592
266 2 0.167527 -3.48974 13.2825 12.4757
63 1 -0.656377 -3.09341 9.52595 14.0971
64 1 -0.703483 -3.93526 13.5261 11.4608
248 2 0.167411 3.20981 10.4064 12.8917
245 2 0.0310098 -0.422895 12.2068 16.697
93 3 -0.786024 -1.31485 8.47149 11.6946
94 3 -0.763312 -4.51964 11.2631 9.8985
95 3 -0.805872 -2.65476 10.9648 11.7125
119 3 -0.777462 -1.77636 12.2138 9.46943
147 2 0.0107069 -1.23821 10.1036 14.0027
154 2 0.00382058 2.62537 8.21595 13.5884
157 2 0.0058349 0.556991 11.3819 8.52062
189 2 0.160827 -2.47895 9.24486 15.1153
188 2 0.162211 -3.81327 10.3774 14.3372
272 2 0.132566 0.820682 13.8636 9.82443
206 2 0.160578 1.2575 9.96162 9.63615
191 2 0.210332 -5.03816 13.4519 11.2987
196 2 0.129817 -3.4541 14.7564 15.3997
249 2 0.164604 2.11091 9.76518 14.2438
57 1 -0.680743 -1.35487 8.61364 16.7205
145 2 0.00816988 0.276233 7.96639 9.59615
192 2 0.204121 -3.47884 14.3703 10.9587
69 1 -0.620849 1.18052 9.48215 8.64428
241 1 -0.677253 3.11338 10.0721 13.9815
244 3 -0.773193 2.46179 11.9631 16.1064
90 3 -0.799735 -5.37934 13.401 8.69301
175 2 0.187747 -2.40183 8.36005 16.684
173 2 0.142251 -1.09027 9.51916 16.026
247 2 0.141544 4.01536 9.31744 14.2869
187 2 0.203175 -3.58208 8.95755 9.3078
204 2 0.111637 1.80596 8.30193 8.42598
262 2 0.000994393 3.79187 9.24737 16.6281
1 4 1.28745 14.5209 1.96739 3.47369
6 2 0.0539695 11.8547 1.15485 0.846276
3 1 -0.681506 12.8191 1.89441 4.5099
263 2 0.143353 11.5138 5.45964 5.26472
5 3 -0.772623 14.1724 0.783669 2.28425
255 2 0.0179742 13.6542 0.376413 5.52176
7 2 0.146129 12.3898 0.877874 4.13634
8 2 0.164485 12.3981 2.83617 3.96419
9 2 0.145103 12.8474 1.99757 5.64235
50 4 0.915553 8.50096 7.16537 6.1888
256 2 -0.0206519 11.3056 0.595453 6.50952
43 4 1.23071 9.3084 1.95066 3.65692
47 4 0.981227 8.99822 4.77957 2.93482
48 4 0.939234 6.26314 7.21164 4.2191
59 1 -0.661854 11.7096 6.37907 4.64568
122 3 -0.769487 9.18858 0.620328 2.80933
123 3 -0.841608 8.18531 2.18555 4.8314
128 3 -0.828524 9.58743 3.3251 2.85187
129 3 -0.826042 5.80538 6.15673 3.17832
130 3 -0.738803 8.90008 5.54816 1.52223
158 2 -0.000416962 10.8008 1.86186 4.48665
161 2 -0.000228214 10.0189 5.58274 4.00027
162 2 0.0609724 7.55946 4.8555 3.85097
179 2 0.172233 12.344 6.21377 3.64484
166 2 -0.0158058 8.17008 6.17663 7.51968
203 2 0.0469708 5.72771 6.02404 6.6382
254 3 -0.790754 13.4915 1.13531 8.11119
165 2 -0.0201119 10.0706 6.63989 5.79227
131 3 -0.847919 7.59531 6.83083 4.98569
68 1 -0.657904 6.34635 6.32348 8.24093
201 2 0.164802 6.99111 7.20844 8.14121
109 3 -0.832832 7.02743 3.46687 6.82918
237 2 0.229648 10.6229 3.28447 0.521745
44 4 1.05432 8.62748 1.92359 10.4092
12 4 1.52891 14.0752 2.15152 9.36368
46 4 1.26037 11.7335 1.79993 11.7608
84 3 -0.782873 13.9972 3.63767 8.64898
51 4 1.27574 6.84602 7.27399 14.6099
257 1 -0.650869 8.09537 4.15751 15.9888
258 2 0.268415 8.13542 5.33161 15.8922
73 1 -0.663574 12.1129 3.28191 12.8798
270 2 0.158437 14.3408 2.19318 15.7899
125 3 -0.770751 12.8789 2.09743 10.5533
126 3 -0.773845 10.0191 1.90856 11.1468
202 2 0.175585 5.48765 6.60571 8.85687
132 3 -0.793947 6.58055 5.97741 13.6678
133 3 -0.753963 8.23553 7.1232 15.774
152 2 0.0729097 7.1657 5.13174 9.08782
271 2 0.145723 12.854 1.05139 16.0572
4 1 -0.656208 13.9789 1.29505 16.3626