ITEM: TIMESTEP
0
ITEM: NUMBER OF ATOMS
295
ITEM: BOX BOUNDS xy xz yz pp pp pp
-7.9400194813171350e+00 1.5055693276645961e+01 -7.9285373884105619e+00
6.5927825343657442e-01 1.2981847742707462e+01 -1.0048881626058097e-01
-3.7713602853938610e-01 1.6702613307968644e+01 3.2325996144037861e-02
ITEM: ATOMS id type x y z
81 3 -1.00692 3.0455 2.32289
54 1 -2.52421 5.06617 4.70236
183 2 -2.1118 5.00079 3.63833
52 1 -2.38936 5.04235 0.653384
10 4 -1.16249 6.14526 5.51624
85 3 -0.683152 5.21711 6.7725
7 4 -0.648692 4.02144 1.12572
172 2 3.88417 1.00392 1.35641
82 3 -0.208535 3.31617 -0.285099
177 2 -1.73912 6.03627 0.625025
189 2 -2.72227 6.61761 1.97063
157 2 2.71297 6.37923 6.7054
78 3 0.551006 0.728948 0.264087
79 3 0.348243 2.68931 4.36839
103 3 -0.080896 6.2178 4.24615
102 3 0.389232 5.09784 1.73779
8 4 0.48232 4.50565 7.57637
6 4 1.46855 2.62655 5.4796
51 1 3.23065 2.57013 4.68534
84 3 1.55663 3.98803 6.50847
106 3 2.45709 6.24636 3.10978
173 2 3.11879 3.31055 3.87094
175 2 4.03278 2.93004 5.3802
274 1 5.60538 3.10136 1.27964
277 2 4.61432 2.58549 1.46237
174 2 3.49197 1.53774 4.32299
27 4 3.54175 6.47507 4.39673
25 4 0.862428 6.251 2.74299
104 3 5.14454 3.57141 7.02387
50 1 2.88499 1.52304 1.67401
171 2 2.5103 2.349 0.930124
212 2 6.28698 1.60491 3.91802
80 3 1.42407 1.15376 6.37396
170 2 2.93969 1.95161 2.77018
96 3 3.61211 1.35914 7.72274
66 1 6.35671 0.703794 3.29346
2 4 -0.797654 2.10806 3.52216
107 3 4.55186 5.23112 4.77935
86 3 -2.47163 6.22085 9.92068
20 4 4.60763 2.66375 8.2101
290 2 -1.55136 5.90801 16.0757
5 4 -0.641984 2.06875 9.59913
58 1 -0.997368 6.38308 15.1633
232 2 -1.77916 3.60936 13.3723
185 2 -0.302347 5.05672 12.2113
100 3 5.79708 0.877539 11.7169
3 4 0.325062 2.06259 16.1357
148 2 -0.148214 4.85552 10.2181
55 1 0.159651 5.6293 10.9871
83 3 0.0589002 3.35719 8.62998
23 4 3.31022 2.42679 14.9909
61 1 3.3239 3.79183 9.10649
98 3 1.835 2.24995 15.5342
108 3 2.51084 2.89469 12.2268
197 2 3.36641 4.66357 8.34848
198 2 1.79086 3.52197 12.2006
199 2 2.29918 3.29103 9.13132
11 4 -1.55396 6.47525 11.1297
24 4 6.09016 2.41163 10.8398
28 4 3.61205 4.09459 10.9604
97 3 4.50368 2.97725 15.9362
99 3 5.63989 2.18913 9.30249
179 2 1.3094 5.66401 8.41723
110 3 3.13028 5.77029 11.1471
152 2 3.23188 3.24973 13.3779
261 2 1.65086 5.34777 15.4099
269 2 1.67357 1.92468 10.3516
267 1 0.727969 1.38993 10.671
184 2 1.30722 5.65201 11.0467
258 2 2.07878 5.94782 13.6276
256 1 2.51111 5.77438 14.671
259 2 3.44468 5.16126 14.657
190 2 -0.540439 5.61144 14.5258
109 3 5.10219 3.7725 11.3604
285 2 0.314003 1.71611 11.669
284 2 0.220626 1.45928 13.8561
64 1 3.76842 0.6977 14.5557
214 2 -0.552963 12.8524 2.74575
89 3 -3.86229 7.18769 7.69705
289 2 -1.63222 7.71777 3.10701
288 2 -3.42271 7.19749 3.66564
1 4 -6.18633 12.4433 1.17835
4 4 -5.54247 12.788 7.58358
12 4 -3.48114 9.0866 2.36011
15 4 -2.77331 8.2866 7.01842
16 4 -4.3948 10.6727 5.88471
88 3 -3.80618 9.01826 0.888174
92 3 -3.72876 9.30754 6.27364
93 3 -5.31359 11.2862 7.22001
114 3 -2.99235 11.6831 5.29644
280 3 -5.23922 11.3165 0.539756
31 4 -1.94747 11.2872 4.217
90 3 -1.76839 7.62237 5.9293
113 3 -2.56605 10.2028 3.06847
57 1 -2.72905 7.45124 2.77318
116 3 -0.525001 10.9143 4.73868
91 3 -5.52787 10.5507 4.76059
14 4 -4.06529 10.3432 -0.259209
151 2 1.6693 7.50013 5.62235
87 3 -6.96109 11.863 2.82885
65 1 2.712 7.17848 5.91376
155 2 -0.0315443 9.4454 0.220653
181 2 1.12143 7.50915 7.77811
30 4 1.24137 8.49466 0.917018
33 4 1.02375 10.6189 5.24569
111 3 0.453347 7.68014 1.9528
217 2 1.25774 9.80522 7.03754
112 3 1.9881 7.79037 -0.285603
115 3 -1.83873 9.102 8.09451
188 2 -5.09735 8.73202 3.31008
213 2 -2.4655 12.8622 2.5885
94 3 -1.94823 6.89192 12.5938
208 2 -5.00865 12.375 14.9849
22 4 -1.13243 12.5195 12.8819
292 2 -3.35969 9.91352 10.4261
67 1 -2.97462 11.0031 9.89241
215 2 -2.66356 11.8582 10.597
216 2 -1.52123 11.7625 8.8389
150 2 -3.84702 9.86769 13.0964
32 4 -1.43211 10.05 9.2898
156 2 -3.74648 11.4601 9.16328
17 4 -2.2848 7.35709 14.1712
95 3 -5.11955 10.0202 15.4133
119 3 -2.72263 10.958 16.4844
117 3 -2.05997 8.90927 14.6182
118 3 -2.01082 11.3876 13.8223
60 1 -5.43756 10.9619 12.6924
18 4 -5.35016 9.55373 13.9266
34 4 -1.76898 10.4054 14.9863
147 2 -6.49132 12.8487 9.02941
211 2 2.71529 7.399 8.74697
120 3 -0.264098 9.81309 10.3046
268 2 -7.11893 12.5224 10.5851
69 1 0.0395544 10.5207 15.6631
195 2 -4.66614 11.8577 12.5944
260 2 2.27608 8.47004 14.0821
225 2 0.984478 9.49567 13.404
186 2 -0.19816 7.47467 10.5368
209 2 1.42245 8.68623 9.193
53 1 1.59126 7.60665 8.82188
196 2 -6.47161 11.3589 13.2037
220 2 0.626699 9.52758 15.7889
255 4 2.72506 7.40683 15.4101
70 1 1.55136 9.26613 12.4786
224 2 1.22406 8.30596 11.9037
35 4 0.763902 10.6415 11.2396
121 3 0.120541 11.7032 12.1528
291 2 -5.63447 10.4667 11.64
222 2 0.442154 11.0614 14.7221
207 2 -4.02966 12.8431 13.3969
191 2 -0.283667 7.18305 15.4518
206 2 -3.12683 12.9154 15.1259
221 2 -0.0749355 11.1903 16.5205
180 2 1.04349 6.83872 9.61889
26 4 5.50915 5.09815 6.24986
105 3 7.13308 5.27256 5.93147
71 1 9.00233 2.397 8.10993
275 2 5.69321 4.11394 1.81754
228 2 8.09699 2.15948 7.53928
135 3 5.08823 6.32017 7.2504
158 2 7.94735 1.1956 4.38409
286 2 11.3245 5.49227 4.74551
182 2 12.5249 4.04753 5.19761
21 4 8.63115 4.95931 5.66726
63 1 9.41207 6.32406 4.64136
62 1 11.4253 4.43336 7.67667
162 2 11.9297 2.84422 6.67111
74 1 9.37683 4.23906 0.820841
122 3 8.89465 3.5534 4.90825
234 2 8.89443 4.85713 1.65318
235 2 8.58467 3.73267 0.174825
36 4 9.32087 2.18996 4.2565
40 4 11.9072 1.50165 5.56352
43 4 10.5491 2.98747 1.6338
125 3 12.8501 1.8946 4.36031
126 3 10.3568 1.29047 5.20509
133 3 9.64175 2.36298 2.69313
134 3 11.0441 2.12205 0.436243
164 2 11.872 4.01982 2.1499
236 2 10.1227 4.88238 0.249875
200 2 9.65674 5.09225 7.10222
204 2 9.88799 5.733 3.78795
202 2 11.7293 4.6655 6.59201
281 2 10.5293 3.64739 7.75254
227 2 9.9317 2.22963 7.45286
276 2 6.53492 2.40142 1.35352
178 2 11.5904 5.36595 1.06886
249 2 5.32499 6.51749 1.70092
176 2 12.4291 4.48127 -0.330802
19 4 5.8038 3.62679 16.6049
161 2 8.91486 3.84858 8.50578
242 2 6.14196 5.82799 11.7953
76 1 6.79228 6.19041 12.6742
130 3 7.2829 3.02063 15.8904
201 2 12.3701 4.08604 8.36975
101 3 5.82299 5.2178 16.6872
230 2 8.54713 4.74153 14.2872
265 2 13.4789 2.24994 14.0963
138 3 7.24678 6.29993 9.0461
59 1 10.8877 6.80991 14.7078
128 3 7.43623 1.38319 13.7907
123 3 13.7886 0.823921 8.59159
124 3 7.71068 2.60957 10.8875
9 4 11.246 6.01469 8.84995
241 2 7.51356 5.31146 13.0178
231 2 8.34939 3.88913 12.5753
131 3 13.1643 2.54119 10.6406
37 4 10.9307 1.38804 16.0937
39 4 9.09225 2.40804 10.044
41 4 8.23125 2.4744 14.6511
165 2 7.71883 5.17469 11.2438
229 2 10.0545 3.77388 13.4123
295 2 11.4862 4.60095 12.1185
42 4 11.841 2.77885 11.467
72 1 8.86725 3.87591 13.5785
73 1 12.0564 3.43928 13.2734
129 3 9.64758 1.90428 15.2488
132 3 10.4694 2.64181 10.6781
233 2 11.4438 3.53677 14.2638
45 4 8.35141 6.21073 10.0717
137 3 9.85702 5.63946 9.59154
294 2 12.5122 1.55462 15.3857
163 2 11.7195 1.72149 13.0546
192 2 11.2878 5.93271 15.3475
240 2 6.15886 6.57436 13.5865
193 2 10.2755 6.4626 13.7356
226 2 9.02717 0.853685 9.13487
264 1 14.3245 1.53719 14.6075
251 2 6.30814 8.22347 1.66656
13 4 8.19569 10.5851 3.82879
282 2 6.76338 12.9198 2.89626
187 2 8.22337 9.57925 1.80859
250 2 4.46672 8.21608 1.25356
127 3 4.65043 12.6385 6.34203
247 1 5.4379 7.61649 1.22393
262 1 3.57455 11.9706 2.29226
252 2 8.23418 7.56003 -0.192988
160 2 6.26601 10.713 7.42347
283 2 3.3975 11.9873 1.11029
38 4 5.10841 11.9996 7.78604
149 2 6.01697 8.52365 5.05367
263 2 4.76962 9.59448 3.40363
56 1 8.32622 9.12279 2.85734
139 3 2.40887 9.52681 1.63258
140 3 2.12247 10.3602 4.10797
219 2 2.8319 11.5429 6.51134
46 4 3.09333 10.283 2.83348
166 2 3.02242 12.8138 2.79468
167 2 4.67488 11.8508 2.64214
273 2 4.6817 9.67156 5.59956
270 1 5.45485 9.48124 4.88037
271 2 4.56816 7.87372 4.27007
272 2 6.37834 10.5601 4.92454
75 1 6.37305 8.82551 7.90458
237 2 6.0663 9.0546 6.76641
287 2 7.35659 8.5016 3.29021
210 2 3.39443 8.12867 6.06661
159 2 2.20311 11.5376 -0.150305
68 1 1.62677 11.3986 6.66817
218 2 1.01042 12.2738 7.0227
203 2 8.47938 6.90075 4.3266
205 2 10.1345 6.96462 5.31428
194 2 10.3409 7.58218 15.2819
48 4 7.61148 7.92636 12.3959
44 4 5.83616 7.0023 8.48793
153 2 5.031 7.04501 12.311
141 3 3.86113 11.3462 8.37994
293 2 2.58059 11.6442 15.0997
246 4 5.73167 6.90228 16.6307
29 4 4.01449 7.03718 10.9904
254 2 7.78159 6.99505 15.2078
143 3 8.39894 7.54346 10.9049
257 3 4.60326 7.53114 15.6669
278 1 2.93134 11.8117 16.2516
223 2 2.70188 9.5372 12.5148
154 2 2.91484 8.23316 11.4138
168 2 3.03434 8.95402 9.04049
142 3 1.96304 11.1834 10.2758
47 4 3.32647 10.5852 9.61231
49 4 5.54421 10.3646 11.9521
77 1 4.71844 11.1244 13.4607
136 3 4.69441 7.17824 9.60167
145 3 4.42064 10.3918 10.7807
146 3 6.53514 9.20435 12.2128
169 2 5.21049 11.6849 14.3302
243 2 3.80603 11.685 13.0785
244 2 4.367 10.0056 13.8239
245 2 6.07054 12.0141 12.3759
253 2 7.26217 8.71917 15.6835
248 1 7.39229 7.64417 16.0217
144 3 8.85713 8.21399 13.4658
239 2 5.65732 9.36175 8.64078
266 2 5.94116 12.7673 14.7852
279 2 4.02256 11.5476 16.5091
238 2 7.48072 8.89087 8.19224
ITEM: TIMESTEP
100
ITEM: NUMBER OF ATOMS
295
ITEM: BOX BOUNDS xy xz yz pp pp pp
-7.9400194813171350e+00 1.5055693276645961e+01 -7.9285373884105619e+00
6.5927825343657442e-01 1.2981847742707462e+01 -1.0048881626058097e-01
-3.7713602853938610e-01 1.6702613307968644e+01 3.2325996144037861e-02
ITEM: ATOMS id type x y z
81 3 -1.06941 3.13326 2.19299
54 1 -2.50056 4.99148 4.69357
183 2 -2.12522 4.8691 3.6474
52 1 -2.34799 5.28777 0.787688
10 4 -1.06328 6.04951 5.46037
85 3 -0.663506 5.28081 6.84933
7 4 -0.600822 4.10883 1.08981
172 2 3.90835 1.17621 1.2278
2 4 -0.767854 2.17174 3.39201
177 2 -1.60056 6.18762 0.809585
189 2 -2.52388 6.71151 2.2133
157 2 2.44478 6.09968 6.53602
107 3 4.55051 5.26347 4.72994
79 3 0.483027 2.58951 4.30534
103 3 -0.0216318 6.26954 4.17057
102 3 0.609277 5.07764 1.54973
8 4 0.414477 4.47592 7.61344
6 4 1.5555 2.67064 5.43498
51 1 3.35838 2.42329 4.726
84 3 1.45804 3.8867 6.49456
106 3 2.37013 6.30337 3.22964
173 2 3.21356 3.16083 3.8993
175 2 4.08966 2.84148 5.60492
274 1 5.73536 3.02982 1.3973
277 2 4.69284 2.59898 1.5836
174 2 3.59819 1.36473 4.3956
27 4 3.53081 6.47306 4.37709
25 4 0.854651 6.35956 2.75447
104 3 5.15643 3.7165 6.81777
50 1 2.87419 1.56463 1.72396
171 2 2.3419 2.42111 1.06108
212 2 5.90785 1.4402 3.76991
80 3 1.33337 1.23568 6.53679
170 2 2.96735 1.84128 2.84106
96 3 3.61256 1.41034 7.6965
176 2 -2.41411 4.86316 -0.244657
66 1 6.43101 0.668672 3.14475
86 3 -2.59989 6.13969 10.0975
284 2 0.229029 1.21633 13.9907
290 2 -1.31098 5.98823 16.24
5 4 -0.626972 2.11689 9.4959
58 1 -0.827905 6.32201 15.2132
232 2 -1.69402 3.73509 13.3005
185 2 -0.471037 4.8748 11.9335
100 3 5.56627 1.02658 11.7355
3 4 0.283804 2.0014 16.2181
148 2 -0.014503 5.23546 9.991
55 1 0.136018 5.70644 11.047
83 3 -0.144365 3.41323 8.6401
23 4 3.31768 2.19677 15.0284
61 1 3.37997 3.74842 9.14421
98 3 1.90315 2.27261 15.721
108 3 2.43331 2.92987 12.0882
197 2 3.47342 4.67857 8.41536
198 2 1.87441 3.7225 12.3628
199 2 2.3675 3.2033 9.00877
11 4 -1.60119 6.6394 11.1965
24 4 6.07544 2.39093 10.893
28 4 3.6502 4.14225 10.9743
97 3 4.48968 2.95226 15.8676
99 3 5.76381 2.17648 9.10771
179 2 1.2586 5.73975 8.41641
110 3 3.33618 5.72245 11.1611
152 2 3.14239 2.67282 13.333
261 2 1.63147 5.32814 15.6015
269 2 1.83245 1.78289 10.4405
267 1 0.772436 1.3377 10.5496
184 2 1.22674 5.79742 11.2741
258 2 2.01095 5.91197 13.8131
256 1 2.43197 5.63694 14.8579
259 2 3.28462 4.88291 14.8602
190 2 -0.563889 5.47623 14.5155
109 3 5.16437 3.65941 11.3929
285 2 0.332734 1.67282 11.5761
82 3 -0.441246 3.36774 16.6655
20 4 4.61023 2.62139 8.18314
188 2 -5.16186 8.85841 3.12403
89 3 -3.69235 7.14672 7.79869
289 2 -1.46577 7.93047 3.29493
288 2 -3.12564 7.32773 4.01679
1 4 -6.10201 12.4488 1.19311
4 4 -5.55671 12.7923 7.56628
12 4 -3.466 9.04429 2.43035
15 4 -2.77761 8.13305 6.96781
16 4 -4.41182 10.6891 5.83922
88 3 -3.62326 9.08097 0.777426
92 3 -3.78338 9.20408 6.14727
93 3 -5.12189 11.351 7.30004
114 3 -3.20595 11.8264 5.2689
280 3 -5.17357 11.3143 0.484254
31 4 -2.08501 11.4454 4.21667
90 3 -1.87241 7.3607 5.86295
113 3 -2.80487 10.3927 3.09869
57 1 -2.51273 7.61269 3.07142
116 3 -0.491948 10.8556 4.92705
91 3 -5.69253 10.6068 4.83756
14 4 -4.14186 10.2325 -0.244093
151 2 1.50194 7.48279 5.61816
78 3 -7.41789 12.9257 0.0907438
65 1 2.50767 7.00781 5.88779
155 2 0.444846 9.71107 0.119682
181 2 1.13753 7.42239 7.73159
30 4 1.42576 8.50102 0.852479
33 4 0.993144 10.4662 5.30833
111 3 0.447025 7.84321 1.9287
217 2 1.20732 9.79767 7.22837
112 3 2.08056 7.71663 -0.362154
115 3 -1.82555 9.06758 8.01513
213 2 -2.16508 12.6295 2.24528
94 3 -2.09332 6.96826 12.648
208 2 -4.89083 12.1776 15.1487
22 4 -1.05738 12.5335 12.8134
292 2 -3.31219 10.1454 10.4892
67 1 -2.8722 11.1021 9.89602
215 2 -2.80295 12.0305 10.6214
216 2 -1.57182 11.7914 8.69456
150 2 -4.21234 9.9001 12.6925
32 4 -1.43368 10.0479 9.18399
156 2 -3.49934 11.3666 9.00424
17 4 -2.22269 7.26756 14.2409
95 3 -4.94157 9.79595 15.5154
119 3 -2.6435 11.0537 16.3049
117 3 -2.04108 8.83081 14.6577
118 3 -1.8158 11.3679 13.6707
60 1 -5.73714 11.0725 12.7306
18 4 -5.39624 9.61587 13.9714
34 4 -1.74936 10.4835 15.047
147 2 -6.35157 12.5973 9.06544
211 2 2.71686 7.534 8.73106
120 3 -0.357469 9.90732 10.292
268 2 -7.09958 12.493 10.4845
69 1 0.112422 10.6629 15.4758
195 2 -4.84229 11.787 12.5503
64 1 -4.10777 12.7505 14.5489
225 2 1.27029 9.78521 13.7084
186 2 -0.235991 7.5514 10.6142
209 2 1.34139 8.75915 8.95144
53 1 1.57755 7.69074 8.73968
196 2 -6.53486 11.546 13.626
220 2 0.506634 9.63344 15.5413
255 4 2.87628 7.39823 15.4129
70 1 1.6765 9.46389 12.6294
224 2 1.10079 8.52502 12.1666
35 4 0.834274 10.6224 11.2098
121 3 0.116488 11.8916 11.9836
291 2 -6.24854 10.811 11.7874
222 2 0.61121 11.2861 14.674
207 2 -4.06866 12.5987 13.3978
191 2 -0.0240245 7.23248 15.3226
206 2 -2.98899 12.8726 15.064
221 2 0.105595 11.2392 16.4664
180 2 0.986901 6.90883 9.66671
26 4 5.49164 5.14374 6.19362
105 3 7.12993 5.25754 5.7681
71 1 8.85915 2.37587 8.03682
275 2 5.959 4.00324 1.9722
228 2 7.82796 1.98669 7.67364
135 3 5.13978 6.50218 7.12646
158 2 7.72771 1.21539 4.59592
286 2 11.3343 5.52108 4.69628
182 2 12.5529 4.02111 5.31591
21 4 8.66646 5.01572 5.57356
63 1 9.49558 6.45687 4.61151
62 1 11.3618 4.40797 7.65172
162 2 12.2441 2.8105 6.77137
74 1 9.4706 4.35917 0.798025
122 3 8.92865 3.5933 5.021
234 2 8.65311 4.74004 1.49362
235 2 9.0152 3.8765 -0.15537
36 4 9.17125 2.16336 4.42075
40 4 11.9923 1.56777 5.55303
43 4 10.3686 2.95265 1.58738
125 3 12.9492 1.90787 4.2902
126 3 10.4043 1.55781 5.22626
133 3 9.55642 2.36505 2.86347
134 3 10.87 1.85226 0.495383
164 2 11.655 4.17459 1.97675
236 2 10.2629 5.22965 0.507459
200 2 9.51134 4.96386 7.05622
204 2 9.88836 6.01431 3.66089
202 2 11.6631 4.65843 6.54346
281 2 10.4015 3.67051 7.73586
227 2 9.67946 2.16672 7.32684
276 2 6.58866 2.28555 1.49355
178 2 11.5328 5.67142 1.0049
249 2 4.8405 6.38796 1.64315
214 2 7.447 0.896165 2.7816
19 4 5.80641 3.53815 16.6614
101 3 5.83012 5.34546 16.5728
242 2 6.06536 5.69324 12.1834
76 1 6.79212 6.19159 12.8729
130 3 7.15318 2.91471 15.9592
201 2 12.2656 3.991 8.37225
264 1 14.2333 1.44088 14.6706
230 2 8.63248 4.80447 14.5728
265 2 13.5167 2.23435 14.1983
138 3 7.22 6.43426 8.84843
59 1 10.9455 6.58205 14.7456
128 3 7.46967 1.36576 13.7545
123 3 13.7474 0.917493 8.5453
124 3 7.71282 2.88453 10.8
9 4 11.1498 5.91847 8.90981
241 2 7.61868 5.39872 13.2422
231 2 8.1977 3.69637 12.9722
131 3 13.2422 2.60445 10.6143
37 4 10.9408 1.23006 16.053
39 4 8.99641 2.43115 9.98412
41 4 8.18108 2.35516 14.7958
165 2 7.61019 5.30296 11.297
229 2 10.0667 3.85547 13.5728
295 2 11.5726 4.64601 12.0761
42 4 11.8117 2.752 11.4466
72 1 8.91806 3.94762 13.9097
73 1 12.1089 3.51576 13.221
129 3 9.68531 1.73876 15.261
132 3 10.4131 2.51079 10.6813
233 2 11.5205 3.83415 14.1142
45 4 8.21854 6.23222 9.9778
137 3 9.71012 5.61796 9.55474
294 2 12.3816 1.79137 15.2921
163 2 11.6661 1.79299 13.0738
192 2 11.2959 5.63543 15.3064
240 2 6.28632 6.68476 13.7638
193 2 10.4327 6.40925 13.8137
226 2 8.87355 0.809565 9.15664
161 2 8.76367 3.73523 8.24576
251 2 6.27164 7.51393 2.04604
13 4 7.97194 10.5377 3.85933
205 2 10.3572 6.88092 5.28096
187 2 7.6862 9.55519 1.81
250 2 4.57338 8.26354 1.55067
127 3 4.61623 12.4995 6.16485
247 1 5.34593 7.37718 1.42878
262 1 3.6996 11.8136 2.27958
252 2 7.81033 8.53793 -0.129696
160 2 6.45999 10.993 7.4274
283 2 3.33573 11.787 1.03508
38 4 5.13567 12.0762 7.70949
149 2 5.7761 8.41519 5.02812
263 2 4.90108 9.53789 3.19779
56 1 8.12344 9.10646 2.92474
139 3 2.46144 9.3752 1.78714
140 3 2.2351 10.3657 4.24294
219 2 2.51808 11.8152 6.45749
46 4 3.14158 10.2084 2.9101
166 2 3.28102 12.6539 2.85484
167 2 4.85408 11.7248 2.43977
273 2 4.64799 9.78454 5.60829
270 1 5.39769 9.46592 4.8237
271 2 4.54497 7.85695 4.06401
272 2 6.33869 10.244 4.89563
75 1 6.40101 9.04719 7.91691
237 2 5.91765 9.25366 6.7452
287 2 7.38112 8.37621 3.46061
210 2 3.35172 7.72222 6.29652
159 2 2.18652 11.3604 -0.0747204
68 1 1.43668 11.3047 6.742
218 2 0.537508 12.1 6.88074
203 2 8.6155 7.17545 4.49473
238 2 7.5059 9.28814 7.96295
282 2 6.6467 12.906 2.70882
87 3 7.84158 11.8017 2.74699
194 2 10.5433 7.37295 15.473
48 4 7.70812 7.91152 12.3274
44 4 5.81675 7.24548 8.38602
153 2 5.05735 7.13377 12.5027
141 3 4.0458 11.2794 8.44841
293 2 2.67328 11.1797 15.1051
246 4 5.70306 6.92581 16.6637
29 4 4.0454 7.05448 11.1321
254 2 8.08723 6.93624 15.9409
143 3 8.56099 7.57799 10.8812
257 3 4.46916 7.40538 15.678
278 1 2.87164 11.6465 16.1492
223 2 2.80555 9.60326 12.5532
154 2 2.86121 8.2684 11.4854
168 2 3.02834 9.00135 9.04281
142 3 2.10365 11.1516 10.2673
47 4 3.43027 10.5405 9.63686
49 4 5.55946 10.3492 12.0019
77 1 4.67454 11.0329 13.5249
136 3 4.75625 7.35139 9.78815
145 3 4.58985 10.403 10.8219
146 3 6.58159 9.14429 12.1265
169 2 5.1985 11.604 14.3297
243 2 3.79949 11.6237 13.1081
244 2 4.3937 9.97646 13.9077
245 2 6.15513 11.9026 12.6617
253 2 7.09307 8.36203 15.1696
248 1 7.34247 7.82777 16.1084
144 3 8.72431 8.35145 13.5724
239 2 5.80961 9.56808 8.68919
266 2 5.75888 12.7267 14.9504
279 2 3.93791 11.4241 16.5077
260 2 2.51616 8.58621 14.2118
ITEM: TIMESTEP
200
ITEM: NUMBER OF ATOMS
295
ITEM: BOX BOUNDS xy xz yz pp pp pp
-7.9400194813171350e+00 1.5055693276645961e+01 -7.9285373884105619e+00
6.5927825343657442e-01 1.2981847742707462e+01 -1.0048881626058097e-01
-3.7713602853938610e-01 1.6702613307968644e+01 3.2325996144037861e-02
ITEM: ATOMS id type x y z
81 3 -1.21821 3.11962 2.2769
54 1 -2.73172 5.00165 4.77916
183 2 -2.23577 4.78534 3.7067
52 1 -2.34356 5.19406 0.775235
10 4 -1.23031 6.05571 5.35233
85 3 -0.661348 5.13786 6.59196
7 4 -0.652342 4.03899 1.17837
172 2 4.01807 0.871413 1.42942
2 4 -0.716562 2.14733 3.45185
177 2 -1.82089 6.19322 0.652346
82 3 -0.291242 3.32722 -0.18912
157 2 2.76391 6.05771 6.54971
66 1 6.37037 0.766357 3.23945
79 3 0.611274 2.58379 4.26249
103 3 -0.235414 6.26847 3.96418
102 3 0.488866 5.05277 1.67055
8 4 0.532361 4.50272 7.43963
6 4 1.53063 2.45986 5.51023
51 1 3.34166 2.75321 4.72181
84 3 1.58698 3.73324 6.50271
106 3 2.53535 6.26426 3.09237
173 2 3.07853 3.58017 4.06091
175 2 4.08916 3.07667 5.6107
274 1 5.67258 3.1138 1.2279
277 2 4.68512 2.47443 1.3259
174 2 3.64062 1.79636 4.24084
27 4 3.51664 6.62091 4.35145
25 4 0.789357 6.27585 2.70908
104 3 5.20494 3.8407 6.82322
50 1 3.03058 1.29977 1.75461
171 2 2.63724 2.22473 1.08127
212 2 5.77717 1.52041 3.78008
80 3 1.46017 0.874635 6.18622
170 2 3.03398 1.59796 2.87997
96 3 3.40678 1.50062 7.984
78 3 0.563093 0.75197 0.249766
179 2 1.41779 5.75846 8.12612
86 3 -2.74428 5.99265 10.2172
284 2 0.109283 1.45174 13.9202
290 2 -1.33919 5.76385 16.1656
5 4 -0.819427 2.24486 9.3842
58 1 -0.835086 6.15424 15.1908
232 2 -1.80169 3.65725 13.4309
185 2 -0.252018 5.23252 12.1827
100 3 5.81528 0.9326 11.6948
3 4 0.27464 1.98889 16.1966
148 2 0.0706165 5.06545 10.2412
55 1 0.0787044 5.87341 11.0483
83 3 0.0177182 3.53749 8.59207
23 4 3.2052 2.43743 14.9688
61 1 3.4989 3.97585 9.16738
98 3 1.74758 2.25474 15.5318
108 3 2.29861 3.157 12.0628
197 2 3.6747 4.931 8.45065
198 2 1.69762 3.95775 12.1795
199 2 2.40836 3.52988 9.03964
11 4 -1.65165 6.65397 11.2307
24 4 6.12347 2.51188 10.7831
28 4 3.64517 4.3205 11.0429
97 3 4.44262 3.08776 15.6995
99 3 5.74192 2.17774 9.21129
206 2 4.88288 0.85735 15.0099
110 3 3.26744 5.86099 11.3746
152 2 3.02852 3.23127 13.3784
261 2 1.61986 5.48906 16.1301
269 2 1.48575 1.87938 10.2842
267 1 0.482221 1.2987 10.3742
184 2 1.05504 6.36398 11.1576
258 2 1.74221 5.78839 14.1268
256 1 2.34138 5.61204 15.2088
259 2 3.26795 5.05129 15.1767
190 2 -0.497978 5.36881 14.4594
109 3 5.13793 3.80069 11.4449
285 2 -0.0429727 1.46707 11.4304
20 4 4.5865 2.78424 8.2658
64 1 3.83275 0.731916 14.4682
59 1 -3.90501 6.76363 14.9666
213 2 -2.0575 12.6855 2.23525
89 3 -3.68724 7.17989 7.80425
289 2 -1.5244 8.23663 3.08872
288 2 -3.10172 7.30729 3.82306
1 4 -6.18831 12.3845 1.08296
4 4 -5.64592 12.6851 7.53582
12 4 -3.56885 9.11231 2.47867
15 4 -2.82685 8.28134 6.99474
16 4 -4.40552 10.6048 5.82531
88 3 -3.7558 8.99401 0.84173
92 3 -3.90595 9.13843 6.04806
93 3 -4.95986 11.1607 7.34366
114 3 -3.16178 11.6854 5.24032
280 3 -5.10867 11.4269 0.449385
31 4 -2.0073 11.4417 4.19865
90 3 -1.86693 7.47019 5.85872
113 3 -2.65816 10.4366 3.15116
57 1 -2.53592 7.66162 2.82778
116 3 -0.558122 10.9526 4.85104
91 3 -5.75767 10.5414 4.71928
14 4 -3.99738 10.2504 -0.17941
151 2 1.32852 6.94086 5.73961
115 3 -1.93443 9.02103 8.09434
65 1 2.44563 6.9302 5.8946
155 2 0.360511 9.86787 0.184906
181 2 1.10424 7.47136 7.77197
30 4 1.39917 8.65742 0.867676
33 4 0.83845 10.4999 5.31517
111 3 0.546008 7.59793 1.70072
217 2 0.770992 9.50025 7.07047
189 2 -2.42911 6.81546 2.00367
210 2 2.80167 7.97868 6.17136
94 3 -1.9413 6.94537 12.7534
208 2 -4.82987 12.3586 15.0743
22 4 -1.08053 12.5587 12.7564
292 2 -3.28742 10.2571 10.5452
67 1 -3.00468 11.1458 9.7116
215 2 -2.72701 12.0966 10.2267
216 2 -1.69534 11.6975 8.46972
150 2 -4.19693 10.255 12.803
32 4 -1.51957 10.0381 9.14403
156 2 -3.79831 11.1674 8.85527
17 4 -2.15581 7.3292 14.3311
95 3 -4.78878 9.66625 15.4979
119 3 -2.64175 10.9857 16.3
117 3 -1.85986 8.84096 14.6418
118 3 -1.93671 11.3601 13.5647
60 1 -5.82723 11.2091 13.1782
18 4 -5.29929 9.54911 14.0165
34 4 -1.64158 10.4263 14.9064
147 2 -6.6703 12.5352 8.95365
211 2 2.68987 7.43815 8.65878
120 3 -0.287683 9.83301 10.1335
268 2 -7.34926 12.4429 10.2097
69 1 0.196028 10.5832 15.3935
195 2 -4.92907 11.8652 12.7658
194 2 -4.31732 7.44916 15.8254
225 2 0.993898 9.75445 13.6022
186 2 -0.460969 7.71717 10.5451
209 2 1.47057 8.74467 9.01374
53 1 1.60664 7.67967 8.75254
196 2 -6.37038 11.5746 14.2208
220 2 0.74122 9.56435 15.6247
255 4 2.69758 7.42282 15.3491
70 1 1.5338 9.54718 12.6285
224 2 1.17029 8.54935 12.0579
35 4 0.865256 10.6325 11.0535
121 3 0.171538 11.9714 11.8817
180 2 1.00173 6.95817 9.60628
112 3 1.8812 7.95996 16.6371
207 2 -3.95781 12.7728 13.3736
191 2 -0.00520269 6.87111 15.3812
221 2 -0.0179237 11.2256 16.3718
26 4 5.56959 5.33645 6.11728
105 3 7.1797 5.45922 5.83527
246 4 5.77592 6.80341 -0.343869
275 2 5.59434 4.04223 1.83491
228 2 7.84916 1.93216 7.85509
135 3 5.03124 6.6102 7.13281
158 2 7.81685 1.22132 4.52578
286 2 11.2011 5.5494 4.62655
182 2 12.1542 4.08078 5.39305
21 4 8.62726 4.94618 5.63828
63 1 9.34006 6.34989 4.52712
62 1 11.3303 4.37043 7.78597
162 2 12.0063 2.846 6.69511
74 1 9.80324 4.6071 1.00249
122 3 8.99752 3.5754 5.01337
234 2 8.68536 4.41565 1.13516
235 2 10.1274 4.68293 0.00631209
36 4 9.21702 2.12772 4.38021
40 4 12.0304 1.5397 5.55196
43 4 10.4079 2.89204 1.60351
125 3 12.976 1.91162 4.36818
126 3 10.5109 1.36874 4.93165
133 3 9.56104 2.38108 2.80245
134 3 10.6874 1.71339 0.560354
164 2 11.7585 3.94437 2.00438
236 2 10.1534 5.45846 1.66951
200 2 9.46111 4.90415 7.19086
204 2 9.89338 6.05287 3.57319
202 2 11.6488 4.70167 6.65073
281 2 10.3933 3.60955 7.892
227 2 9.59233 2.16096 7.36859
276 2 6.54421 2.47836 1.49734
178 2 11.629 5.38921 1.36129
249 2 5.41339 6.12894 1.91778
214 2 7.44456 1.20397 2.96302
107 3 4.5521 5.45623 4.72328
205 2 10.0468 6.69327 5.45465
176 2 12.405 4.65119 -0.188466
71 1 8.81642 2.40109 8.1614
19 4 6.0192 3.62798 16.5465
101 3 6.03366 5.25135 16.6209
242 2 6.02612 5.97021 11.9456
76 1 6.84675 6.19943 12.7201
130 3 7.43088 2.9484 16.0945
201 2 12.3533 4.04161 8.44874
264 1 14.1374 1.39758 14.6678
230 2 8.69452 4.78779 14.3023
265 2 13.3304 2.17765 14.214
138 3 7.24701 6.4866 8.82763
161 2 8.57282 3.58529 8.26285
128 3 7.41343 1.3787 13.8257
123 3 13.6786 0.949085 8.48415
124 3 7.75417 2.78866 10.9407
9 4 11.1671 5.95781 8.9249
241 2 7.57391 5.33639 12.9279
231 2 8.21706 3.72758 12.8076
131 3 13.0597 2.73542 10.4543
37 4 10.7963 1.10426 16.1778
39 4 9.01281 2.28898 10.118
41 4 8.3427 2.35391 14.7759
165 2 7.5527 5.23114 11.1433
229 2 10.0793 3.62697 13.4919
295 2 11.5712 4.62458 12.1031
42 4 11.7558 2.92429 11.4182
72 1 8.89288 3.83769 13.6794
73 1 12.0817 3.54124 13.3151
129 3 9.75326 1.62985 15.1475
132 3 10.3883 2.62375 10.7993
233 2 11.5688 3.75561 14.3117
45 4 8.3152 6.32422 9.99663
137 3 9.75957 5.64905 9.38332
294 2 12.4375 1.3613 15.623
163 2 11.7486 1.89241 13.1191
192 2 11.3874 5.72942 15.3255
240 2 6.42466 6.50897 13.7234
193 2 10.3244 6.71307 14.1317
226 2 8.85806 0.775544 9.22452
251 2 5.93021 7.87091 2.10082
13 4 7.96092 10.4956 3.77037
87 3 7.83004 11.6858 2.66012
187 2 7.93705 9.16342 1.82827
250 2 4.22866 7.48758 1.41932
127 3 4.7617 12.5113 6.24792
247 1 5.32039 7.16553 1.51206
262 1 3.78086 11.6309 2.25073
252 2 7.64392 8.63792 -0.0327262
160 2 6.5478 10.9134 7.57264
283 2 3.60405 11.6383 1.0735
38 4 5.23149 11.9801 7.70671
149 2 5.85932 8.65127 5.12885
263 2 4.9607 9.63365 3.52319
56 1 8.13733 8.94277 2.90417
139 3 2.57397 9.30127 1.70159
140 3 2.08117 10.1483 4.38093
219 2 2.32254 11.3265 7.02194
46 4 3.12038 10.0973 2.97614
166 2 2.99951 12.391 2.85529
167 2 4.88476 11.65 2.56867
273 2 4.5514 9.89888 5.58754
270 1 5.4413 9.6312 4.89819
271 2 4.42875 8.09151 4.27275
272 2 6.30881 10.4463 4.86642
75 1 6.49159 8.95345 7.88986
237 2 6.1669 9.24159 6.75295
287 2 7.1018 8.43692 3.47349
282 2 6.82469 12.9519 2.84298
159 2 2.38234 11.2752 -0.17212
68 1 1.21884 11.099 6.84077
218 2 0.462574 11.9241 7.1226
203 2 8.59379 7.12941 4.30631
238 2 7.62925 8.63998 8.00739
188 2 9.72771 8.61254 3.41643
279 2 4.11467 10.9393 16.3477
48 4 7.71565 7.93616 12.3807
44 4 5.7945 7.20647 8.44876
153 2 5.1375 7.26963 12.6227
141 3 4.14463 11.1771 8.42279
293 2 2.74652 11.2633 15.0686
266 2 5.78929 12.6229 14.7279
29 4 4.03327 7.2323 11.2748
254 2 8.19443 7.1194 16.2639
143 3 8.52331 7.7817 10.7566
257 3 4.5219 7.37497 15.7492
278 1 3.13676 11.4952 16.1133
223 2 2.62917 9.94049 12.5607
154 2 2.9323 8.47089 11.5667
168 2 3.15944 8.85814 9.06362
142 3 2.141 11.0728 10.118
47 4 3.52602 10.4642 9.62179
49 4 5.47492 10.2176 12.0825
77 1 4.84963 10.6492 13.8244
136 3 4.84203 7.42799 9.94244
145 3 4.48735 10.3489 10.8103
146 3 6.54084 9.01201 12.1762
169 2 5.57614 11.2473 14.6371
243 2 3.80745 11.1226 13.6556
244 2 4.75622 9.52201 14.1057
245 2 6.18096 11.6709 12.8233
253 2 6.9516 8.20688 15.3296
248 1 7.35883 7.87144 16.3508
144 3 8.80689 8.27503 13.5706
239 2 6.15185 9.64665 8.71836
222 2 0.742037 11.2041 14.6414
260 2 2.53277 8.55045 14.0185
291 2 8.35828 10.8991 12.4116
ITEM: TIMESTEP
300
ITEM: NUMBER OF ATOMS
295
ITEM: BOX BOUNDS xy xz yz pp pp pp
-7.9400194813171350e+00 1.5055693276645961e+01 -7.9285373884105619e+00
6.5927825343657442e-01 1.2981847742707462e+01 -1.0048881626058097e-01
-3.7713602853938610e-01 1.6702613307968644e+01 3.2325996144037861e-02
ITEM: ATOMS id type x y z
81 3 -1.07623 2.76239 2.30023
54 1 -2.72683 5.04059 4.59036
183 2 -2.28304 5.06435 3.5009
52 1 -2.36438 5.04249 0.828963
10 4 -1.17281 6.04775 5.27488
85 3 -0.467896 5.1001 6.32314
7 4 -0.640609 3.86027 1.17845
172 2 3.9274 1.12108 1.14944
2 4 -0.659589 2.01978 3.59494
177 2 -1.57633 5.96906 0.926339
82 3 -0.521902 3.26171 -0.314135
157 2 2.92709 6.54305 6.78126
66 1 6.22073 0.901474 3.41072
79 3 0.637037 2.69911 4.30612
103 3 -0.202785 6.25411 3.98464
102 3 0.573686 4.97128 1.65635
8 4 0.467798 4.43372 7.40032
6 4 1.73265 2.54588 5.4327
51 1 3.48321 2.67682 4.62251
84 3 1.57678 3.60206 6.60939
106 3 2.44351 6.41973 3.23006
173 2 3.41456 3.40146 3.74919
175 2 4.10474 3.14452 5.53327
274 1 5.69197 3.11772 1.11015
277 2 4.65333 2.55823 1.29409
174 2 3.81208 1.70338 4.31584
27 4 3.48214 6.51361 4.35385
25 4 0.833738 6.35803 2.56709
104 3 4.98004 3.87217 6.82073
50 1 2.94459 1.46056 1.57118
171 2 2.48948 2.25296 0.858721
212 2 6.24866 1.75621 4.24495
80 3 1.65185 0.901611 6.20213
170 2 3.07731 1.89919 2.76284
96 3 3.41723 1.63442 7.87601
78 3 0.763753 0.737359 0.161793
213 2 5.21882 0.994871 2.80348
189 2 -2.50423 6.58379 2.16968
151 2 1.46174 6.42389 5.48762
214 2 7.14526 0.818821 2.77598
176 2 -2.35652 4.54121 -0.254461
86 3 -2.54836 6.31677 9.84668
284 2 0.295715 1.10503 14.0251
290 2 -1.242 5.75483 16.1714
5 4 -0.751288 2.34511 9.39751
58 1 -0.76286 6.13112 15.2412
232 2 -1.78736 3.66464 13.7876
185 2 -0.599333 4.58429 11.368
100 3 5.50312 1.03537 11.5729
3 4 0.449912 2.00599 16.158
148 2 0.818498 5.3318 10.0938
55 1 0.126525 5.67071 10.9335
83 3 -0.126779 3.43684 8.48027
23 4 3.36959 2.59372 14.8325
61 1 3.24829 4.18936 9.12895
98 3 2.02362 2.50701 15.6133
108 3 2.23744 3.27493 11.7989
197 2 3.37197 5.14385 8.56215
198 2 1.67209 4.09047 12.0208
199 2 2.2379 3.65479 9.0799
11 4 -1.64635 6.53112 11.119
24 4 5.93362 2.51072 10.945
28 4 3.68254 4.46611 11.0404
97 3 4.68326 3.2776 15.5261
99 3 5.3973 2.56146 9.33368
206 2 5.01929 0.947259 14.9539
110 3 3.1916 5.8951 11.5121
152 2 2.88672 3.10266 13.0858
261 2 1.25122 5.69767 16.0415
269 2 1.64678 1.49608 10.3432
267 1 0.557483 1.42655 10.5265
184 2 0.749117 6.11564 11.8163
258 2 2.11927 5.68445 14.1135
256 1 2.2093 5.68552 15.419
259 2 3.04485 5.09284 15.8604
190 2 -0.478483 5.25983 14.5896
109 3 5.12043 3.84847 11.6964
285 2 0.24517 1.99806 11.4623
20 4 4.28812 2.88628 8.27118
64 1 3.96657 0.889704 14.4762