ITEM: TIMESTEP
0
ITEM: NUMBER OF ATOMS
295
ITEM: BOX BOUNDS xy xz yz pp pp pp
-8.0629219162484027e+00 1.5055693276645961e+01 -8.0514398233418305e+00
6.5927825343657442e-01 1.2981847742707462e+01 -1.0048881626058097e-01
-3.7713602853938610e-01 1.6875136028539433e+01 3.2325996144037861e-02
ITEM: ATOMS id type x y z
81 3 -1.03073 3.0455 2.35017
54 1 -2.56818 5.06617 4.75366
183 2 -2.15514 5.00079 3.67889
52 1 -2.43317 5.04235 0.663793
10 4 -1.21724 6.14526 5.57577
85 3 -0.728595 5.21711 6.84472
7 4 -0.682285 4.02144 1.1409
172 2 3.88076 1.00392 1.37392
82 3 -0.235102 3.31617 -0.284169
177 2 -1.79287 6.03627 0.635148
189 2 -2.78181 6.61761 1.99434
157 2 2.6559 6.37923 6.77695
78 3 0.550322 0.728948 0.270564
79 3 0.328032 2.68931 4.41633
103 3 -0.136394 6.2178 4.29285
102 3 0.344886 5.09784 1.75915
8 4 0.444007 4.50565 7.65671
6 4 1.44898 2.62655 5.53876
51 1 3.21164 2.57013 4.73647
84 3 1.52347 3.98803 6.57802
106 3 2.40129 6.24636 3.145
173 2 3.09236 3.31055 3.91385
175 2 4.01019 2.93004 5.43835
274 1 5.58099 3.10136 1.29637
277 2 4.59509 2.58549 1.48095
174 2 3.48327 1.53774 4.37047
27 4 3.48368 6.47507 4.44495
25 4 0.80657 6.251 2.77451
104 3 5.11556 3.57141 7.09863
50 1 2.87639 1.52304 1.69473
171 2 2.49343 2.349 0.943329
212 2 6.27761 1.60491 3.96141
80 3 1.41926 1.15376 6.44216
170 2 2.92683 1.95161 2.80197
96 3 3.60526 1.35914 7.80456
66 1 6.35634 0.703794 3.33054
2 4 -0.812068 2.10806 3.56154
107 3 4.50624 5.23112 4.83144
86 3 -2.52705 6.22085 10.0247
20 4 4.58775 2.66375 8.29684
290 2 -1.60354 5.90801 16.2419
5 4 -0.65589 2.06875 9.6999
58 1 -1.05431 6.38308 15.3202
232 2 -1.8084 3.60936 13.5112
185 2 -0.346083 5.05672 12.3384
100 3 5.79513 0.877539 11.8391
3 4 0.311342 2.06259 16.3025
148 2 -0.189976 4.85552 10.3251
55 1 0.110166 5.6293 11.1019
83 3 0.0320915 3.35719 8.72096
23 4 3.29283 2.42679 15.1461
61 1 3.29275 3.79183 9.20229
98 3 1.81939 2.24995 15.6949
108 3 2.48872 2.89469 12.3542
197 2 3.32653 4.66357 8.43662
198 2 1.76247 3.52197 12.3276
199 2 2.27305 3.29103 9.22737
11 4 -1.6119 6.47525 11.2459
24 4 6.07285 2.41163 10.9531
28 4 3.57792 4.09459 11.075
97 3 4.48081 2.97725 16.101
99 3 5.62478 2.18913 9.40027
179 2 1.25952 5.66401 8.50607
110 3 3.07939 5.77029 11.2635
152 2 3.20623 3.24973 13.5168
261 2 1.60427 5.34777 15.5694
269 2 1.66112 1.92468 10.4599
267 1 0.720871 1.38993 10.7826
184 2 1.25751 5.65201 11.1621
258 2 2.02616 5.94782 13.769
256 1 2.46025 5.77438 14.823
259 2 3.39994 5.16126 14.8088
190 2 -0.589678 5.61144 14.6764
109 3 5.07128 3.7725 11.479
285 2 0.303663 1.71611 11.7907
284 2 0.212895 1.45928 13.9999
64 1 3.76832 0.6977 14.7065
214 2 -0.674836 12.8524 2.77729
89 3 -3.92742 7.18769 7.7786
289 2 -1.70274 7.71777 3.1422
288 2 -3.48801 7.19749 3.70648
1 4 -6.30414 12.4433 1.19406
4 4 -5.6636 12.788 7.66399
12 4 -3.56537 9.0866 2.38776
15 4 -2.84944 8.2866 7.09313
16 4 -4.49481 10.6727 5.94796
88 3 -3.88975 9.01826 0.900955
92 3 -3.81511 9.30754 6.34082
93 3 -5.41972 11.2862 7.29675
114 3 -3.10248 11.6831 5.35375
280 3 -5.34578 11.3165 0.549017
31 4 -2.05366 11.2872 4.2634
90 3 -1.8379 7.62237 5.993
113 3 -2.66142 10.2028 3.10328
57 1 -2.79691 7.45124 2.805
116 3 -0.627455 10.9143 4.79036
91 3 -5.62669 10.5507 4.81249
14 4 -4.16213 10.3432 -0.258017
151 2 1.601 7.50013 5.68296
87 3 -7.07307 11.863 2.86123
65 1 2.64693 7.17848 5.97731
155 2 -0.119394 9.4454 0.226691
181 2 1.05309 7.50915 7.86048
30 4 1.16304 8.49466 0.93009
33 4 0.924257 10.6189 5.30248
111 3 0.383182 7.68014 1.97634
217 2 1.16643 9.80522 7.11244
112 3 1.91679 7.79037 -0.284678
115 3 -1.923 9.102 8.18009
188 2 -5.17801 8.73202 3.34733
213 2 -2.58747 12.8622 2.61845
94 3 -2.01031 6.89192 12.7248
208 2 -5.12551 12.375 15.1401
22 4 -1.25078 12.5195 13.0158
292 2 -3.45202 9.91352 10.5352
67 1 -3.07787 11.0031 9.99615
215 2 -2.77534 11.8582 10.7079
216 2 -1.63209 11.7625 8.93199
150 2 -3.93885 9.86769 13.2325
32 4 -1.52584 10.05 9.38744
156 2 -3.85431 11.4601 9.25965
17 4 -2.3515 7.35709 14.3182
95 3 -5.21286 10.0202 15.5728
119 3 -2.8253 10.958 16.6547
117 3 -2.14219 8.90927 14.7696
118 3 -2.11783 11.3876 13.9657
60 1 -5.54034 10.9619 12.8244
18 4 -5.43883 9.55373 14.0711
34 4 -1.86615 10.4054 15.1415
147 2 -6.61304 12.8487 9.12442
211 2 2.64807 7.399 8.83914
120 3 -0.355434 9.81309 10.4125
268 2 -7.23735 12.5224 10.6959
69 1 -0.058756 10.5207 15.8251
195 2 -4.77787 11.8577 12.7255
260 2 2.19824 8.47004 14.2282
225 2 0.896375 9.49567 13.5432
186 2 -0.266108 7.47467 10.647
209 2 1.34236 8.68623 9.28967
53 1 1.52196 7.60665 8.9148
196 2 -6.57835 11.3589 13.3409
220 2 0.538322 9.52758 15.9522
255 4 2.65789 7.40683 15.5695
70 1 1.46553 9.26613 12.6085
224 2 1.14782 8.30596 12.0278
35 4 0.664299 10.6415 11.357
121 3 0.0103393 11.7032 12.2794
291 2 -5.73231 10.4667 11.7614
222 2 0.338418 11.0614 14.8746
207 2 -4.15124 12.8431 13.536
191 2 -0.348605 7.18305 15.6117
206 2 -3.2491 12.9154 15.2825
221 2 -0.179926 11.1903 16.6912
180 2 0.981886 6.83872 9.71986
26 4 5.46488 5.09815 6.3168
105 3 7.08707 5.27256 5.99519
71 1 8.98512 2.397 8.19566
275 2 5.6587 4.11394 1.83971
228 2 8.08214 2.15948 7.61925
135 3 5.03176 6.32017 7.32745
158 2 7.94207 1.1956 4.43218
286 2 11.2763 5.49227 4.79726
182 2 12.4912 4.04753 5.25392
21 4 8.58827 4.95931 5.72831
63 1 9.35552 6.32406 4.69205
62 1 11.3877 4.43336 7.75802
162 2 11.908 2.84422 6.7423
74 1 9.34106 4.23906 0.832942
122 3 8.86581 3.5534 4.96164
234 2 8.85249 4.85713 1.67369
235 2 8.55394 3.73267 0.180401
36 4 9.30565 2.18996 4.3033
40 4 11.8989 1.50165 5.62353
43 4 10.5259 2.98747 1.65412
125 3 12.8379 1.8946 4.40816
126 3 10.3506 1.29047 5.26147
133 3 9.62477 2.36298 2.72414
134 3 11.0295 2.12205 0.444459
164 2 11.8385 4.01982 2.17542
236 2 10.0805 4.88238 0.256208
200 2 9.61255 5.09225 7.17777
204 2 9.83733 5.733 3.83002
202 2 11.6893 4.6655 6.6624
281 2 10.4996 3.64739 7.83466
227 2 9.91615 2.22963 7.53196
276 2 6.51753 2.40142 1.371
178 2 11.5433 5.36595 1.08347
249 2 5.26644 6.51749 1.72192
176 2 12.3909 4.48127 -0.330334
19 4 5.77445 3.62679 16.7765
161 2 8.88314 3.84858 8.59551
242 2 6.09051 5.82799 11.9182
76 1 6.73722 6.19041 12.806
130 3 7.25959 3.02063 16.0547
201 2 12.336 4.08604 8.4581
101 3 5.77773 5.2178 16.8595
230 2 8.50658 4.74153 14.4353
265 2 13.4633 2.24994 14.2425
138 3 7.19055 6.29993 9.14128
59 1 10.8265 6.80991 14.8601
128 3 7.42926 1.38319 13.9339
123 3 13.7871 0.823921 8.68218
124 3 7.69139 2.60957 11.0013
9 4 11.1927 6.01469 8.94316
241 2 7.46729 5.31146 13.1531
231 2 8.31733 3.88913 12.7061
131 3 13.1457 2.54119 10.7519
37 4 10.9237 1.38804 16.2601
39 4 9.07496 2.40804 10.1492
41 4 8.21338 2.4744 14.8029
165 2 7.67389 5.17469 11.3612
229 2 10.0236 3.77388 13.5515
295 2 11.447 4.60095 12.2447
42 4 11.82 2.77885 11.5867
72 1 8.83535 3.87591 13.7195
73 1 12.0289 3.43928 13.4113
129 3 9.63543 1.90428 15.4066
132 3 10.4498 2.64181 10.7898
233 2 11.4153 3.53677 14.4117
45 4 8.2961 6.21073 10.1773
137 3 9.8074 5.63946 9.69223
294 2 12.5035 1.55462 15.5449
163 2 11.7091 1.72149 13.1903
192 2 11.2354 5.93271 15.5064
240 2 6.09997 6.57436 13.7276
193 2 10.2178 6.4626 13.8782
226 2 9.02541 0.853685 9.23095
264 1 14.316 1.53719 14.7588
251 2 6.23254 8.22347 1.68721
13 4 8.09651 10.5851 3.87127
282 2 6.64083 12.9198 2.92933
187 2 8.13421 9.57925 1.83066
250 2 4.39118 8.21608 1.27003
127 3 4.53076 12.6385 6.4099
247 1 5.36836 7.61649 1.2401
262 1 3.46149 11.9706 2.31922
252 2 8.16517 7.56003 -0.191128
160 2 6.16562 10.713 7.50227
283 2 3.28424 11.9873 1.12532
38 4 4.99517 11.9996 7.8685
149 2 5.93843 8.52365 5.10852
263 2 4.68034 9.59448 3.44182
56 1 8.24165 9.12279 2.89001
139 3 2.32023 9.52681 1.65288
140 3 2.02555 10.3602 4.15328
219 2 2.72319 11.5429 6.58092
46 4 2.99715 10.283 2.86591
166 2 2.90093 12.8138 2.82672
167 2 4.56302 11.8508 2.67263
273 2 4.59169 9.67156 5.65993
270 1 5.36673 9.48124 4.93348
271 2 4.4961 7.87372 4.31701
272 2 6.27943 10.5601 4.97809
75 1 6.29155 8.82551 7.98824
237 2 5.98249 9.0546 6.83856
287 2 7.27824 8.5016 3.32725
210 2 3.31986 8.12867 6.1317
159 2 2.09434 11.5376 -0.148014
68 1 1.51951 11.3986 6.73933
218 2 0.894417 12.2738 7.09744
203 2 8.41705 6.90075 4.37411
205 2 10.0716 6.96462 5.37177
194 2 10.272 7.58218 15.4401
48 4 7.53905 7.92636 12.5249
44 4 5.7729 7.0023 8.57747
153 2 4.96738 7.04501 12.4391
141 3 3.75442 11.3462 8.46839
293 2 2.47103 11.6442 15.256
246 4 5.66956 6.90228 16.8025
29 4 3.95092 7.03718 11.1052
254 2 7.71852 6.99505 15.3653
143 3 8.33031 7.54346 11.0189
257 3 4.53485 7.53114 15.829
278 1 2.82013 11.8117 16.4195
223 2 2.61334 9.5372 12.645
154 2 2.83933 8.23316 11.5329
168 2 2.95157 8.95402 9.13562
142 3 1.858 11.1834 10.3834
47 4 3.2274 10.5852 9.71321
49 4 5.44739 10.3646 12.0767
77 1 4.61405 11.1244 13.6004
136 3 4.62941 7.17824 9.70247
145 3 4.32353 10.3918 10.8934
146 3 6.44993 9.20435 12.34
169 2 5.10051 11.6849 14.4788
243 2 3.69603 11.685 13.2144
244 2 4.2738 10.0056 13.9674
245 2 5.95723 12.0141 12.5047
253 2 7.18188 8.71917 15.8458
248 1 7.32275 7.64417 16.1873
144 3 8.78185 8.21399 13.6056
239 2 5.57046 9.36175 8.73187
266 2 5.82037 12.7673 14.9384
279 2 3.91399 11.5476 16.6797
238 2 7.39856 8.89087 8.2788
ITEM: TIMESTEP
100
ITEM: NUMBER OF ATOMS
295
ITEM: BOX BOUNDS xy xz yz pp pp pp
-8.0629219162484027e+00 1.5055693276645961e+01 -8.0514398233418305e+00
6.5927825343657442e-01 1.2981847742707462e+01 -1.0048881626058097e-01
-3.7713602853938610e-01 1.6875136028539433e+01 3.2325996144037861e-02
ITEM: ATOMS id type x y z
81 3 -1.08698 3.09732 2.25256
54 1 -2.55279 5.00563 4.76383
183 2 -2.17437 4.91736 3.716
52 1 -2.35412 5.28621 0.806479
10 4 -1.11386 6.06916 5.52133
85 3 -0.696775 5.273 6.89695
7 4 -0.608078 4.09287 1.12038
172 2 3.90071 1.16923 1.30309
82 3 -0.345853 3.31132 -0.362174
177 2 -1.58487 6.17737 0.827183
189 2 -2.58067 6.71221 2.22565
157 2 2.42323 6.0867 6.59585
176 2 -2.39777 4.77949 -0.200633
79 3 0.450864 2.61208 4.38058
103 3 -0.0933321 6.29826 4.2103
102 3 0.579976 5.07241 1.60176
8 4 0.378966 4.47952 7.68698
6 4 1.52216 2.67066 5.51191
51 1 3.32566 2.42432 4.79276
84 3 1.42883 3.87604 6.5661
106 3 2.31012 6.30003 3.29236
173 2 3.16561 3.17798 3.96859
175 2 4.04295 2.86262 5.68074
274 1 5.70372 3.01971 1.37928
277 2 4.67478 2.58742 1.58481
174 2 3.6111 1.37669 4.4561
27 4 3.47704 6.4643 4.4293
25 4 0.806653 6.36405 2.79748
104 3 5.1145 3.74531 6.91887
50 1 2.85157 1.57384 1.78097
171 2 2.32718 2.40763 1.09987
212 2 5.88725 1.40131 3.88744
80 3 1.32383 1.24165 6.57493
170 2 2.93077 1.85342 2.89428
96 3 3.6129 1.42347 7.77363
107 3 4.48351 5.25555 4.82829
2 4 -0.774592 2.15953 3.45532
86 3 -2.66244 6.15949 10.2045
284 2 0.108697 1.16093 14.2
290 2 -1.39601 6.02396 16.3635
5 4 -0.643911 2.11577 9.57205
58 1 -0.886277 6.33317 15.3633
232 2 -1.72595 3.77704 13.3668
185 2 -0.607978 4.80291 11.9624
100 3 5.56038 1.00092 11.8621
3 4 0.283467 1.99528 16.4182
148 2 -0.036175 5.2889 10.0506
55 1 0.0501253 5.69946 11.1293
83 3 -0.18162 3.41168 8.72025
23 4 3.29286 2.1891 15.1817
61 1 3.34659 3.74728 9.24894
98 3 1.87523 2.2727 15.8681
108 3 2.41701 2.91309 12.1987
197 2 3.40269 4.64122 8.51512
198 2 1.85588 3.697 12.4498
199 2 2.34139 3.18896 9.17914
11 4 -1.67702 6.62873 11.301
24 4 6.06829 2.37604 11.0011
28 4 3.62591 4.11021 11.0834
97 3 4.46877 2.94701 16.0181
99 3 5.73167 2.16953 9.22443
179 2 1.21157 5.73863 8.51293
110 3 3.29313 5.69673 11.269
152 2 3.15925 2.67488 13.474
261 2 1.56408 5.331 15.7625
269 2 1.83737 1.79694 10.557
267 1 0.79024 1.32671 10.586
184 2 1.10988 5.7969 11.4536
258 2 1.95784 5.91895 13.982
256 1 2.36004 5.66659 15.0293
259 2 3.2661 4.93909 15.0348
190 2 -0.609336 5.50818 14.6445
109 3 5.14214 3.64707 11.5009
285 2 0.294401 1.61269 11.65
20 4 4.59078 2.62929 8.27718
78 3 -7.51323 12.9054 0.116871
89 3 -3.74579 7.14068 7.88606
289 2 -1.58271 7.9223 3.28827
288 2 -3.18158 7.33011 4.0316
1 4 -6.23427 12.4345 1.20798
4 4 -5.66711 12.7967 7.6142
12 4 -3.54883 9.0521 2.45059
15 4 -2.84824 8.13976 7.05881
16 4 -4.52402 10.6876 5.88836
88 3 -3.70513 9.09074 0.787031
92 3 -3.88858 9.20721 6.2309
93 3 -5.23843 11.3599 7.34333
114 3 -3.31045 11.8271 5.32711
280 3 -5.29045 11.3195 0.500239
31 4 -2.1993 11.4414 4.27223
90 3 -1.9393 7.3545 5.95211
113 3 -2.90211 10.3891 3.12658
57 1 -2.58945 7.62231 3.08408
116 3 -0.584742 10.8611 4.95761
91 3 -5.7403 10.6161 4.87318
14 4 -4.24401 10.2532 -0.256596
151 2 1.42637 7.433 5.69327
87 3 -7.22013 11.7998 2.79395
65 1 2.44576 6.98953 5.94149
155 2 0.404827 9.74562 0.143754
181 2 1.07749 7.42475 7.82652
30 4 1.35338 8.48904 0.869369
33 4 0.886442 10.471 5.32608
111 3 0.379823 7.83632 1.93175
217 2 1.09691 9.80321 7.26293
112 3 2.01123 7.72428 -0.351678
115 3 -1.91427 9.08564 8.09527
213 2 -2.26432 12.651 2.26979
66 1 -1.60275 12.9462 3.19141
188 2 -5.27116 8.82314 3.1101
94 3 -2.13649 6.95929 12.7737
208 2 -5.00296 12.1396 15.2642
22 4 -1.16504 12.5396 12.9517
292 2 -3.4088 10.1211 10.5715
67 1 -2.95352 11.09 9.99384
215 2 -2.90789 12.0207 10.7342
216 2 -1.61706 11.8001 8.85982
150 2 -4.29331 9.92696 12.8848
32 4 -1.50457 10.0421 9.29432
156 2 -3.57088 11.3558 9.09823
17 4 -2.2964 7.26149 14.3708
95 3 -5.03774 9.76539 15.6937
119 3 -2.75206 11.0669 16.4582
117 3 -2.12713 8.82433 14.7892
118 3 -1.93069 11.3919 13.8109
60 1 -5.83956 11.0737 12.9125
18 4 -5.486 9.60388 14.1282
34 4 -1.85613 10.4882 15.2038
147 2 -6.45307 12.5532 9.14165
211 2 2.64407 7.5492 8.83067
120 3 -0.446908 9.87464 10.4063
268 2 -7.20383 12.4904 10.5001
69 1 -0.0159737 10.6835 15.6698
195 2 -4.91913 11.7761 12.7327
64 1 -4.21855 12.7505 14.6991
225 2 1.2494 9.87009 13.728
186 2 -0.312172 7.54233 10.7128
209 2 1.25143 8.77134 9.04315
53 1 1.50592 7.69659 8.83628
196 2 -6.60792 11.5571 13.8092
220 2 0.401779 9.66723 15.6876
255 4 2.79028 7.41325 15.5457
70 1 1.65021 9.43762 12.7167
224 2 1.10183 8.47788 12.4071
35 4 0.749246 10.6189 11.3353
121 3 0.00882498 11.8718 12.0972
291 2 -6.35761 10.8201 11.9847
222 2 0.47827 11.3394 14.877
207 2 -4.16933 12.6188 13.5471
191 2 -0.114897 7.27806 15.4624
206 2 -3.08648 12.8589 15.212
221 2 -0.00305521 11.2223 16.6546
180 2 0.902269 6.914 9.78025
26 4 5.44584 5.13708 6.27879
105 3 7.09216 5.24019 5.84558
71 1 8.82915 2.36745 8.1441
275 2 5.93768 4.02756 1.90477
228 2 7.79818 1.93636 7.82704
135 3 5.09876 6.50365 7.23031
158 2 7.76277 1.17161 4.634
286 2 11.2897 5.50654 4.77666
182 2 12.5035 4.01309 5.36395
21 4 8.63064 5.00475 5.64138
63 1 9.43332 6.4601 4.68085
62 1 11.3398 4.415 7.73278
162 2 12.2268 2.8562 6.83738
74 1 9.40422 4.32769 0.811129
122 3 8.92389 3.58089 5.07392
234 2 8.56034 4.65851 1.49157
235 2 8.99278 3.86499 -0.169147
36 4 9.17269 2.16257 4.47582
40 4 11.9961 1.592 5.61704
43 4 10.3531 2.94758 1.61724
125 3 12.9497 1.90566 4.35444
126 3 10.4182 1.57139 5.27629
133 3 9.56649 2.36424 2.90141
134 3 10.8103 1.83983 0.523471
164 2 11.666 4.11997 1.99919
236 2 10.104 5.18423 0.552656
200 2 9.48669 4.96494 7.122
204 2 9.83179 6.01943 3.73985
202 2 11.6274 4.6715 6.61295
281 2 10.3598 3.66402 7.81953
227 2 9.65556 2.14569 7.45656
276 2 6.57669 2.3035 1.42067
178 2 11.5962 5.6808 1.02457
249 2 4.69013 6.38996 1.64309
214 2 7.4425 0.948085 2.85168
19 4 5.78289 3.5276 16.816
101 3 5.78363 5.35711 16.7316
242 2 6.02817 5.66866 12.281
76 1 6.75219 6.17517 12.9649
130 3 7.12325 2.90846 16.0951
201 2 12.2411 4.01018 8.4291
264 1 14.1724 1.45588 14.8948
230 2 8.61057 4.75963 14.7443
265 2 13.4076 2.29483 14.3621
138 3 7.14457 6.46152 8.9639
59 1 10.8876 6.57969 14.8632
128 3 7.48393 1.37842 13.8759
123 3 13.7278 0.924772 8.63104
124 3 7.68037 2.88467 10.9158
9 4 11.1044 5.91872 8.98334
241 2 7.65233 5.3487 13.3882
231 2 8.14988 3.67074 13.084
131 3 13.2286 2.59996 10.731
37 4 10.9083 1.25542 16.2497
39 4 8.97651 2.43927 10.0923
41 4 8.16724 2.35495 14.9363
165 2 7.58612 5.29319 11.3888
229 2 10.0771 3.8101 13.6627
295 2 11.582 4.63918 12.1596
42 4 11.7956 2.73887 11.5563
72 1 8.89278 3.91637 14.0278
73 1 12.0835 3.47589 13.3175
129 3 9.65955 1.73271 15.4417
132 3 10.3896 2.5195 10.7868
233 2 11.5287 3.79124 14.2197
45 4 8.16332 6.24204 10.0805
137 3 9.626 5.63696 9.63793
294 2 12.3495 1.86402 15.547
163 2 11.6732 1.75651 13.1297
192 2 11.2664 5.62771 15.3965
240 2 6.2613 6.67802 13.8598
193 2 10.3717 6.39988 13.9222
226 2 8.85923 0.814438 9.28603
161 2 8.72876 3.73714 8.32113
251 2 6.19494 7.45385 2.07235
13 4 7.89563 10.6094 3.90438
282 2 6.61785 12.9002 2.79082
187 2 7.548 9.49592 1.85814
250 2 4.53211 8.28865 1.56713
127 3 4.46655 12.5439 6.2715
247 1 5.27746 7.37467 1.41827
262 1 3.5807 11.8209 2.30126
252 2 7.73421 8.55509 -0.139475
160 2 6.30692 10.9995 7.49474
283 2 3.1927 11.7902 1.06341
38 4 4.98784 12.0883 7.79807
149 2 5.64224 8.42082 5.13752
263 2 4.7352 9.46638 3.4263
56 1 8.02508 9.06696 2.92779
139 3 2.37728 9.35737 1.82839
140 3 2.12395 10.3824 4.27378
219 2 2.43268 11.8121 6.49875
46 4 3.02808 10.2223 2.94227
166 2 3.12412 12.6588 2.93323
167 2 4.67992 11.7256 2.46001
273 2 4.47174 9.7509 5.63304
270 1 5.24673 9.46142 4.87859
271 2 4.54981 7.80259 4.03669
272 2 6.27945 10.2847 4.89174
75 1 6.29984 9.05322 7.97467
237 2 5.80108 9.2335 6.81306
287 2 7.2942 8.4269 3.5388
210 2 3.32061 7.77028 6.32432
159 2 2.07938 11.2797 -0.0756026
68 1 1.33863 11.2837 6.7741
218 2 0.442898 12.0743 6.903
203 2 8.58216 7.18783 4.55999
238 2 7.4287 9.32515 8.00493
205 2 10.297 6.86771 5.34624
194 2 10.4498 7.33198 15.61
48 4 7.65799 7.89695 12.4503
44 4 5.76109 7.24446 8.47136
153 2 5.05991 7.13441 12.5993
141 3 3.89245 11.294 8.55578
293 2 2.5532 11.2598 15.2683
246 4 5.64829 6.93534 16.8209
29 4 3.98811 7.03675 11.2354
254 2 7.97293 6.94013 16.1299
143 3 8.5136 7.60288 11.0119
257 3 4.37482 7.41441 15.8309
278 1 2.74677 11.6557 16.343
223 2 2.79259 9.51347 12.6778
154 2 2.8503 8.26051 11.5956
168 2 2.94026 9.00586 9.16721
142 3 2.00147 11.1646 10.4103
47 4 3.332 10.5557 9.76307
49 4 5.47545 10.3446 12.0904
77 1 4.60061 11.0552 13.6352
136 3 4.66531 7.34038 9.88359
145 3 4.49923 10.4196 10.9362
146 3 6.48284 9.14129 12.2383
169 2 5.22423 11.6183 14.4319
243 2 3.71678 11.6544 13.2916
244 2 4.2625 9.95558 14.0306
245 2 6.06594 11.8813 12.7666
253 2 7.02746 8.38294 15.3407
248 1 7.2429 7.8421 16.2858
144 3 8.64398 8.34774 13.6955
239 2 5.71513 9.58084 8.76202
266 2 5.56528 12.7614 15.2372
279 2 3.82618 11.4536 16.673
260 2 2.42658 8.62817 14.3963
ITEM: TIMESTEP
200
ITEM: NUMBER OF ATOMS
295
ITEM: BOX BOUNDS xy xz yz pp pp pp
-8.0629219162484027e+00 1.5055693276645961e+01 -8.0514398233418305e+00
6.5927825343657442e-01 1.2981847742707462e+01 -1.0048881626058097e-01
-3.7713602853938610e-01 1.6875136028539433e+01 3.2325996144037861e-02
ITEM: ATOMS id type x y z
81 3 -1.25282 3.1249 2.33811
54 1 -2.77664 5.02124 4.84393
183 2 -2.31603 4.78729 3.77717
52 1 -2.33929 5.21773 0.810617
10 4 -1.29422 6.09742 5.4057
85 3 -0.673156 5.16689 6.61612
7 4 -0.642869 4.03477 1.24811
172 2 4.01452 0.814121 1.57337
82 3 -0.259042 3.32633 -0.139241
177 2 -1.80622 6.22275 0.74591
78 3 0.573335 0.774257 0.297125
157 2 2.72785 6.10209 6.70524
176 2 -2.42451 4.63896 -0.181431
79 3 0.607393 2.60382 4.32899
103 3 -0.286196 6.28951 3.99974
102 3 0.52768 5.00722 1.76995
8 4 0.498019 4.50391 7.48896
6 4 1.52089 2.47513 5.57195
51 1 3.31863 2.73725 4.77212
84 3 1.59783 3.73602 6.59499
106 3 2.45398 6.28854 3.1918
173 2 3.10523 3.58703 4.11489
175 2 4.06037 3.02584 5.66818
274 1 5.70689 3.08003 1.18058
277 2 4.72645 2.49627 1.36243
174 2 3.62212 1.7658 4.2152
27 4 3.49829 6.60294 4.45058
25 4 0.745982 6.29806 2.76069
104 3 5.17433 3.81787 6.92544
50 1 3.02457 1.30648 1.85446
171 2 2.66367 2.24412 1.13472
212 2 5.69586 1.52123 3.81448
80 3 1.43918 0.889454 6.227
170 2 2.9637 1.57059 3.00251
96 3 3.41438 1.49984 8.02865
66 1 6.3658 0.801572 3.28231
2 4 -0.72465 2.17086 3.53077
189 2 -2.54259 6.80692 2.06902
179 2 1.37379 5.73654 8.23976
86 3 -2.84574 6.05368 10.3401
284 2 0.0544673 1.33442 14.1555
290 2 -1.45295 5.90683 16.4312
5 4 -0.856802 2.26904 9.47404
58 1 -0.943617 6.18223 15.3781
232 2 -1.73372 3.65363 13.4891
185 2 -0.450573 5.08027 12.1903
100 3 5.79801 0.905814 11.7665
3 4 0.279542 1.94702 16.402
148 2 0.212833 5.1311 10.2407
55 1 -0.0026461 5.86274 11.0441
83 3 -0.0575481 3.54615 8.63483
23 4 3.16578 2.41851 15.1268
61 1 3.46731 3.92772 9.26795
98 3 1.71488 2.19753 15.7107
108 3 2.28379 3.08189 12.1716
197 2 3.63008 4.91992 8.69133
198 2 1.68501 3.88109 12.3056
199 2 2.41955 3.42511 9.07838
11 4 -1.72224 6.61325 11.3634
24 4 6.10919 2.49059 10.8768
28 4 3.61521 4.23578 11.1554
97 3 4.40612 3.09244 15.8086
99 3 5.73082 2.16164 9.33035
206 2 4.911 0.874103 15.1388
110 3 3.22971 5.83507 11.4911
152 2 2.95115 3.14427 13.5008
261 2 1.48607 5.42571 16.2477
269 2 1.52305 1.76193 10.3738
267 1 0.498233 1.29808 10.4031
184 2 0.890273 6.4441 11.3148
258 2 1.59316 5.82289 14.2765
256 1 2.20004 5.64287 15.369
259 2 3.19823 5.02331 15.3001
190 2 -0.765486 5.34266 14.6306
109 3 5.13325 3.70695 11.5398
285 2 -0.0113206 1.46989 11.4408
20 4 4.55189 2.75741 8.35384
64 1 3.84897 0.73872 14.6345
115 3 -1.99606 9.0151 8.15749
89 3 -3.74637 7.18883 7.88995
289 2 -1.56054 8.27315 2.93984
288 2 -3.0325 7.34789 3.89887
1 4 -6.27313 12.3978 1.13979
4 4 -5.77657 12.6699 7.57468
12 4 -3.66474 9.12948 2.51312
15 4 -2.89964 8.29756 7.05325
16 4 -4.45748 10.6134 5.89178
88 3 -3.8207 9.02663 0.848093
92 3 -3.95063 9.17404 6.12108
93 3 -5.05436 11.1862 7.39063
114 3 -3.2536 11.6971 5.29111
280 3 -5.21134 11.4558 0.500356
31 4 -2.11566 11.4499 4.20565
90 3 -1.90936 7.48503 5.92523
113 3 -2.80078 10.4251 3.1882
57 1 -2.60299 7.693 2.84985
116 3 -0.69263 10.9811 4.8878
91 3 -5.80482 10.5249 4.73333
14 4 -4.14604 10.2536 -0.163475
151 2 1.31398 6.94797 5.73434
213 2 -2.13208 12.6674 2.30828
65 1 2.40812 6.94519 5.95777
155 2 0.228656 9.85805 0.380814
181 2 1.06777 7.46103 7.82654
30 4 1.35659 8.62752 0.900189
33 4 0.693072 10.5021 5.3172
111 3 0.480823 7.55738 1.6904
217 2 0.744692 9.54513 7.07012
94 3 -2.0075 6.91647 12.8815
208 2 -4.82938 12.3222 15.2393
22 4 -1.19862 12.5543 12.9055
292 2 -3.46899 10.2267 10.5154
67 1 -3.08013 11.1623 9.793
215 2 -2.71729 12.0096 10.4771
216 2 -1.76818 11.6879 8.55586
150 2 -4.28876 10.2626 12.9788
32 4 -1.61829 10.0241 9.23601
156 2 -3.82111 11.3061 8.91873
17 4 -2.21248 7.31568 14.4534
95 3 -4.93777 9.63916 15.7319
119 3 -2.82139 11.0087 16.4358
117 3 -1.95328 8.85056 14.7662
118 3 -2.02231 11.4059 13.7285
60 1 -5.95059 11.1891 13.3851
18 4 -5.38761 9.53409 14.1852
34 4 -1.78082 10.4388 15.0996
147 2 -6.81728 12.5328 8.96574
211 2 2.65054 7.49715 8.7672
120 3 -0.344087 9.81718 10.2638
268 2 -7.52407 12.4481 10.2074
69 1 -0.0652656 10.7176 15.8183
195 2 -5.06087 11.9029 12.9704
221 2 -0.356302 11.2326 16.8102
225 2 0.798852 9.85137 13.459
186 2 -0.541627 7.72742 10.6923
209 2 1.35328 8.73949 9.08418
53 1 1.52664 7.69485 8.82659
196 2 -6.45264 11.5202 14.4475
220 2 0.44594 9.66788 15.9702
255 4 2.62013 7.43952 15.5323
70 1 1.52206 9.46067 12.6519
224 2 1.20796 8.46331 12.2648
35 4 0.767637 10.6286 11.1801
121 3 0.0538614 11.8794 12.0385
180 2 0.946983 6.96271 9.63447
260 2 2.32063 8.49317 14.1749
207 2 -4.13424 12.7339 13.5192
191 2 -0.0817648 6.92177 15.422
112 3 1.80442 7.98389 16.8465
26 4 5.52436 5.28122 6.22015
105 3 7.12177 5.42197 5.93908
107 3 4.47842 5.41583 4.79655
275 2 5.67395 4.13867 1.64884
228 2 7.84055 1.91314 7.95231
135 3 5.00121 6.57577 7.1806
158 2 7.78447 1.22311 4.56985
286 2 11.1572 5.56417 4.72476
182 2 12.115 4.0832 5.46591
21 4 8.57647 4.9437 5.70919
63 1 9.27786 6.37351 4.63699
62 1 11.2972 4.39393 7.88287
162 2 12.0086 2.8895 6.77598
74 1 9.65759 4.5614 0.997513
122 3 8.9359 3.57551 5.09696
234 2 8.57781 4.45543 1.3843
235 2 9.71054 4.40869 -0.0795577
36 4 9.21829 2.14455 4.45525
40 4 12.0076 1.5669 5.63698
43 4 10.34 2.89337 1.62723
125 3 12.9945 1.90989 4.45818
126 3 10.4916 1.3993 5.04737
133 3 9.60211 2.41052 2.91677
134 3 10.6438 1.68306 0.637988
164 2 11.757 3.91986 2.00073
236 2 10.1545 5.53937 1.39941
200 2 9.47571 4.90145 7.27817
204 2 9.75211 6.10002 3.61929
202 2 11.6262 4.71101 6.736
281 2 10.3601 3.63177 7.9673
227 2 9.58937 2.14614 7.47927
276 2 6.56375 2.45045 1.46888
178 2 11.5994 5.40056 1.21453
249 2 4.85132 6.16729 1.99887
214 2 7.38554 1.31415 3.0321
205 2 10.0314 6.7454 5.53015
71 1 8.79277 2.41091 8.24863
19 4 5.96896 3.64786 16.6606
101 3 5.96718 5.26459 16.7459
242 2 5.9916 5.89928 12.0173
76 1 6.81413 6.17875 12.8147
130 3 7.34223 2.98316 16.1697
201 2 12.3279 4.10637 8.56673
264 1 14.1156 1.38402 14.9109
230 2 8.71503 4.73615 14.3986
265 2 13.3045 2.165 14.4609
138 3 7.18409 6.6046 8.9209
59 1 10.9921 6.68318 15.0562
128 3 7.42475 1.38715 13.9137
123 3 13.6434 0.981275 8.57483
124 3 7.73901 2.78846 11.0188
9 4 11.1012 5.98561 8.99016
241 2 7.60392 5.32699 13.0433
231 2 8.26246 3.78315 12.8931
131 3 13.0312 2.72255 10.5544
37 4 10.7508 1.11696 16.3936
39 4 9.00418 2.27886 10.2099
41 4 8.31674 2.36374 14.8687
165 2 7.48229 5.24188 11.1799
229 2 10.099 3.57109 13.5805
295 2 11.4757 4.63649 12.3046
42 4 11.7559 2.90998 11.5126
72 1 8.90034 3.8278 13.7879
73 1 12.1031 3.44933 13.4168
129 3 9.70919 1.64998 15.3759
132 3 10.3791 2.60482 10.8929
233 2 11.6377 3.64203 14.4467
45 4 8.25694 6.34653 10.0765
137 3 9.66939 5.63749 9.41709
294 2 12.3562 1.38944 15.8158
163 2 11.8904 1.85035 13.1973
192 2 11.3542 5.61223 15.342
240 2 6.41586 6.50676 13.8142
193 2 10.2776 6.7035 14.1821
226 2 8.83757 0.789513 9.30536
161 2 8.5625 3.60262 8.38764
251 2 6.07602 7.50805 1.91173
13 4 7.86832 10.4886 3.81155
188 2 9.70351 8.70985 3.48599
187 2 7.93515 9.33085 1.86015
250 2 4.3348 7.84431 1.43883
127 3 4.57875 12.5169 6.34584
247 1 5.16827 7.09087 1.45223
262 1 3.63226 11.675 2.29087
252 2 7.48818 8.694 -0.0104519
160 2 6.40731 10.9567 7.62454
283 2 3.45112 11.579 1.04928
38 4 5.07429 12.005 7.79025
149 2 5.8968 8.71565 5.074
263 2 4.71568 9.53623 3.71482
56 1 8.01966 8.96879 2.95798
139 3 2.58795 9.26049 1.8307
140 3 1.91395 10.2046 4.3032
219 2 2.27475 11.249 7.02574
46 4 3.06584 10.0798 3.05759
166 2 3.00503 12.5044 2.71541
167 2 4.71705 11.597 2.53543
273 2 4.4685 9.73674 5.73477
270 1 5.30491 9.63361 4.9135
271 2 4.51923 7.96545 4.18531
272 2 6.06492 10.6811 4.98895
75 1 6.34361 9.00168 7.8805
237 2 6.0034 9.23845 6.77089
287 2 7.11879 8.36685 3.40067
210 2 2.75801 7.98135 6.20607
159 2 2.22217 11.2379 -0.224677
68 1 1.13413 11.0826 6.8432
218 2 0.409078 11.8866 7.24283
203 2 8.4453 7.10935 4.50119
238 2 7.48202 8.7502 7.97084
87 3 7.70047 11.6657 2.67235
282 2 6.75169 12.9237 2.89453
279 2 4.00884 10.9909 16.601
48 4 7.67157 7.93274 12.4923
44 4 5.72399 7.2344 8.50904
153 2 5.15078 7.26134 12.6954
141 3 4.01124 11.1974 8.52559
293 2 2.72128 11.3225 15.2195
246 4 5.6277 6.85255 16.8676
29 4 4.07648 7.15554 11.3484
254 2 8.02232 7.09545 16.499
143 3 8.52615 7.77089 10.8965
257 3 4.4479 7.39149 15.9122
278 1 3.00759 11.5138 16.3162
223 2 2.59412 9.72397 12.8226
154 2 2.95742 8.47019 11.5408
168 2 3.05035 8.85338 9.22922
142 3 2.03004 11.1212 10.2477
47 4 3.43044 10.4885 9.76402
49 4 5.44633 10.211 12.1616
77 1 4.84211 10.6851 13.9124
136 3 4.78102 7.44262 10.0039
145 3 4.434 10.3679 10.9206
146 3 6.49495 9.02119 12.2694
169 2 5.60635 11.2537 14.5835
243 2 3.8586 11.2484 13.7723
244 2 4.61947 9.50696 14.2191
245 2 6.16368 11.6784 12.9075
253 2 6.85636 8.25149 15.4194
248 1 7.22635 7.92073 16.5117
144 3 8.72684 8.26406 13.6948
239 2 5.94665 9.68737 8.73206
266 2 5.64852 12.6658 15.1731
222 2 0.564767 11.3703 15.1619
194 2 10.6051 7.31761 15.9312
291 2 8.20858 10.9139 12.6303
ITEM: TIMESTEP
300
ITEM: NUMBER OF ATOMS
295
ITEM: BOX BOUNDS xy xz yz pp pp pp
-8.0629219162484027e+00 1.5055693276645961e+01 -8.0514398233418305e+00
6.5927825343657442e-01 1.2981847742707462e+01 -1.0048881626058097e-01
-3.7713602853938610e-01 1.6875136028539433e+01 3.2325996144037861e-02
ITEM: ATOMS id type x y z
81 3 -1.1332 2.79819 2.34356
54 1 -2.75609 5.05209 4.63452
183 2 -2.35278 5.08319 3.51981
52 1 -2.34021 5.06369 0.815082
10 4 -1.23371 6.08091 5.32241
85 3 -0.457692 5.16119 6.35963
7 4 -0.696593 3.86049 1.23346
172 2 3.91327 0.949563 1.28441
82 3 -0.569278 3.26089 -0.249251
177 2 -1.77885 6.03745 0.757894
78 3 0.773534 0.793283 0.233256
157 2 2.83044 6.48887 6.88302
176 2 -2.42153 4.55916 -0.232742
79 3 0.613835 2.7048 4.34496
103 3 -0.225987 6.2577 4.06367
102 3 0.508877 4.94934 1.7255
8 4 0.445779 4.45508 7.45663
6 4 1.71268 2.56654 5.4726
51 1 3.47379 2.68999 4.71014
84 3 1.56263 3.6097 6.68069
106 3 2.39937 6.35107 3.32027
173 2 3.36729 3.47731 3.8555
175 2 4.11937 3.10553 5.53675
274 1 5.69456 3.09419 1.02813
277 2 4.6762 2.48058 1.27207
174 2 3.79896 1.68026 4.37957
27 4 3.51223 6.57798 4.4183
25 4 0.79764 6.2962 2.6503
104 3 4.97948 3.80103 6.9057
50 1 2.94827 1.49365 1.67504
171 2 2.57507 2.24179 0.915461
212 2 6.2149 1.69448 4.22452
80 3 1.65967 0.894315 6.27783
170 2 3.026 1.91736 2.83869
96 3 3.36253 1.61101 7.98914
66 1 6.21858 0.93582 3.39563
2 4 -0.698809 2.04333 3.68942
189 2 -2.61489 6.61154 2.10203
213 2 5.50802 1.26938 2.66385
151 2 1.43546 6.66912 5.64824
214 2 7.26675 0.724913 2.94924
86 3 -2.65118 6.32948 9.96695
284 2 0.258614 1.06989 14.217
290 2 -1.26789 5.86295 16.4572
5 4 -0.781006 2.35769 9.40959
58 1 -0.847859 6.22765 15.4114
232 2 -1.7109 3.53434 13.865
185 2 -0.787713 4.62418 11.7376
100 3 5.54346 0.946446 11.7151
3 4 0.421109 1.98667 16.4011
148 2 0.16704 5.31025 9.92227
55 1 0.0681088 5.64813 10.9885
83 3 -0.147922 3.43865 8.50539
23 4 3.28579 2.57803 14.9493
61 1 3.25633 4.12303 9.23954
98 3 1.9807 2.47122 15.7963
108 3 2.23083 3.197 11.922
197 2 3.49176 5.09674 8.58414
198 2 1.61991 3.99414 12.1287
199 2 2.14793 3.67689 9.21152
11 4 -1.68795 6.50915 11.2279
24 4 5.92738 2.45266 11.0436
28 4 3.64004 4.35466 11.1004
97 3 4.5822 3.31095 15.6407
99 3 5.40338 2.47466 9.41836
206 2 5.01597 0.974672 15.1373
110 3 3.16921 5.89793 11.5479
152 2 2.81127 3.00336 13.2774
261 2 1.20234 5.6602 16.2972
269 2 1.584 1.80269 10.2775
267 1 0.531422 1.48168 10.5404
184 2 1.08322 5.71919 11.515
258 2 1.83937 5.72445 14.3637
256 1 2.0584 5.77031 15.6017
259 2 3.00875 5.15645 15.9551
190 2 -0.514779 5.29751 14.8061
109 3 5.08379 3.831 11.7893
285 2 0.0828396 1.90444 11.566
20 4 4.27286 2.84666 8.3432
64 1 3.97388 0.883001 14.6555