ITEM: TIMESTEP
0
ITEM: NUMBER OF ATOMS
295
ITEM: BOX BOUNDS xy xz yz pp pp pp
-7.8597292192704238e+00 1.4906026411113041e+01 -7.8492520145264564e+00
6.5927825343657442e-01 1.2981847742707462e+01 -9.9483928097975155e-02
-3.7713602853938610e-01 1.6875136028539433e+01 3.2325996144037861e-02
ITEM: ATOMS id type x y z
81 3 -0.995958 3.0455 2.35017
54 1 -2.49807 5.06617 4.75366
183 2 -2.08979 5.00079 3.67889
52 1 -2.36458 5.04235 0.663793
10 4 -1.14997 6.14526 5.57577
85 3 -0.675431 5.21711 6.84472
7 4 -0.641315 4.02144 1.1409
172 2 3.84622 1.00392 1.37392
82 3 -0.20556 3.31617 -0.284169
177 2 -1.72084 6.03627 0.635148
189 2 -2.69415 6.61761 1.99434
157 2 2.68673 6.37923 6.77695
78 3 0.546386 0.728948 0.270564
79 3 0.34565 2.68931 4.41633
103 3 -0.079197 6.2178 4.29285
102 3 0.38623 5.09784 1.75915
8 4 0.478387 4.50565 7.65671
6 4 1.45475 2.62655 5.53876
51 1 3.19923 2.57013 4.73647
84 3 1.54195 3.98803 6.57802
106 3 2.43341 6.24636 3.145
173 2 3.08849 3.31055 3.91385
175 2 3.99335 2.93004 5.43835
274 1 5.55022 3.10136 1.29637
277 2 4.56906 2.58549 1.48095
174 2 3.45794 1.53774 4.37047
27 4 3.50722 6.47507 4.44495
25 4 0.854694 6.251 2.77451
104 3 5.09398 3.57141 7.09863
50 1 2.85703 1.52304 1.69473
171 2 2.48609 2.349 0.943329
212 2 6.225 1.60491 3.96141
80 3 1.41072 1.15376 6.44216
170 2 2.91119 1.95161 2.80197
96 3 3.57688 1.35914 7.80456
66 1 6.29403 0.703794 3.33054
2 4 -0.788788 2.10806 3.56154
107 3 4.50723 5.23112 4.83144
86 3 -2.44602 6.22085 10.0247
20 4 4.56244 2.66375 8.29684
290 2 -1.53496 5.90801 16.2419
5 4 -0.634674 2.06875 9.6999
58 1 -0.986504 6.38308 15.3202
232 2 -1.76048 3.60936 13.5112
185 2 -0.298434 5.05672 12.3384
100 3 5.74 0.877539 11.8391
3 4 0.322702 2.06259 16.3025
148 2 -0.145841 4.85552 10.3251
55 1 0.158945 5.6293 11.1019
83 3 0.0592013 3.35719 8.72096
23 4 3.278 2.42679 15.1461
61 1 3.29155 3.79183 9.20229
98 3 1.81754 2.24995 15.6949
108 3 2.48662 2.89469 12.3542
197 2 3.33363 4.66357 8.43662
198 2 1.77384 3.52197 12.3276
199 2 2.27708 3.29103 9.22737
11 4 -1.53753 6.47525 11.2459
24 4 6.03015 2.41163 10.9531
28 4 3.57682 4.09459 11.075
97 3 4.45954 2.97725 16.101
99 3 5.58439 2.18913 9.40027
179 2 1.2972 5.66401 8.50607
110 3 3.09987 5.77029 11.2635
152 2 3.20045 3.24973 13.5168
261 2 1.63524 5.34777 15.5694
269 2 1.65772 1.92468 10.4599
267 1 0.721579 1.38993 10.7826
184 2 1.29504 5.65201 11.1621
258 2 2.05888 5.94782 13.769
256 1 2.48689 5.77438 14.823
259 2 3.41112 5.16126 14.8088
190 2 -0.534144 5.61144 14.6764
109 3 5.05206 3.7725 11.479
285 2 0.311753 1.71611 11.7907
284 2 0.219309 1.45928 13.9999
64 1 3.73163 0.6977 14.7065
214 2 -0.546544 12.8524 2.77729
89 3 -3.82278 7.18769 7.7786
289 2 -1.61501 7.71777 3.1422
288 2 -3.38759 7.19749 3.70648
1 4 -6.12357 12.4433 1.19406
4 4 -5.48615 12.788 7.66399
12 4 -3.44544 9.0866 2.38776
15 4 -2.74468 8.2866 7.09313
16 4 -4.34996 10.6727 5.94796
88 3 -3.76723 9.01826 0.900955
92 3 -3.69058 9.30754 6.34082
93 3 -5.25957 11.2862 7.29675
114 3 -2.96154 11.6831 5.35375
280 3 -5.18594 11.3165 0.549017
31 4 -1.9271 11.2872 4.2634
90 3 -1.74982 7.62237 5.993
113 3 -2.5395 10.2028 3.10328
57 1 -2.70087 7.45124 2.805
116 3 -0.518861 10.9143 4.79036
91 3 -5.4717 10.5507 4.81249
14 4 -4.02375 10.3432 -0.258017
151 2 1.65349 7.50013 5.68296
87 3 -6.89059 11.863 2.86123
65 1 2.68577 7.17848 5.97731
155 2 -0.0303387 9.4454 0.226691
181 2 1.11111 7.50915 7.86048
30 4 1.22984 8.49466 0.93009
33 4 1.0144 10.6189 5.30248
111 3 0.449703 7.68014 1.97634
217 2 1.24606 9.80522 7.11244
112 3 1.96911 7.79037 -0.284678
115 3 -1.81946 9.102 8.18009
188 2 -5.04549 8.73202 3.34733
213 2 -2.43996 12.8622 2.61845
94 3 -1.92785 6.89192 12.7248
208 2 -4.95767 12.375 15.1401
22 4 -1.12022 12.5195 13.0158
292 2 -3.3252 9.91352 10.5352
67 1 -2.94398 11.0031 9.99615
215 2 -2.63603 11.8582 10.7079
216 2 -1.50513 11.7625 8.93199
150 2 -3.80766 9.86769 13.2325
32 4 -1.4169 10.05 9.38744
156 2 -3.70812 11.4601 9.25965
17 4 -2.26106 7.35709 14.3182
95 3 -5.06746 10.0202 15.5728
119 3 -2.69452 10.958 16.6547
117 3 -2.03848 8.90927 14.7696
118 3 -1.98982 11.3876 13.9657
60 1 -5.3823 10.9619 12.8244
18 4 -5.29577 9.55373 14.0711
34 4 -1.7504 10.4054 15.1415
147 2 -6.42552 12.8487 9.12442
211 2 2.68903 7.399 8.83914
120 3 -0.260567 9.81309 10.4125
268 2 -7.04685 12.5224 10.6959
69 1 0.0400489 10.5207 15.8251
195 2 -4.61858 11.8577 12.7255
260 2 2.25421 8.47004 14.2282
225 2 0.975524 9.49567 13.5432
186 2 -0.195289 7.47467 10.647
209 2 1.40912 8.68623 9.28967
53 1 1.57624 7.60665 8.9148
196 2 -6.406 11.3589 13.3409
220 2 0.621322 9.52758 15.9522
255 4 2.6987 7.40683 15.5695
70 1 1.53673 9.26613 12.6085
224 2 1.21271 8.30596 12.0278
35 4 0.757153 10.6415 11.357
121 3 0.120226 11.7032 12.2794
291 2 -5.57723 10.4667 11.7614
222 2 0.438622 11.0614 14.8746
207 2 -3.98848 12.8431 13.536
191 2 -0.27994 7.18305 15.6117
206 2 -3.09467 12.9154 15.2825
221 2 -0.0732961 11.1903 16.6912
180 2 1.03395 6.83872 9.71986
26 4 5.45495 5.09815 6.3168
105 3 7.06264 5.27256 5.99519
71 1 8.9132 2.397 8.19566
275 2 5.63716 4.11394 1.83971
228 2 8.01691 2.15948 7.61925
135 3 5.03824 6.32017 7.32745
158 2 7.86876 1.1956 4.43218
286 2 11.2122 5.49227 4.79726
182 2 12.4006 4.04753 5.25392
21 4 8.54573 4.95931 5.72831
63 1 9.31884 6.32406 4.69205
62 1 11.3119 4.43336 7.75802
162 2 11.8113 2.84422 6.7423
74 1 9.28395 4.23906 0.832942
122 3 8.8066 3.5534 4.96164
234 2 8.80638 4.85713 1.67369
235 2 8.49971 3.73267 0.180401
36 4 9.22855 2.18996 4.3033
40 4 11.789 1.50165 5.62353
43 4 10.4445 2.98747 1.65412
125 3 12.7225 1.8946 4.40816
126 3 10.2541 1.29047 5.26147
133 3 9.54622 2.36298 2.72414
134 3 10.9345 2.12205 0.444459
164 2 11.7542 4.01982 2.17542
236 2 10.0224 4.88238 0.256208
200 2 9.56106 5.09225 7.17777
204 2 9.79 5.733 3.83002
202 2 11.6129 4.6655 6.6624
281 2 10.4249 3.64739 7.83466
227 2 9.83328 2.22963 7.53196
276 2 6.47046 2.40142 1.371
178 2 11.4754 5.36595 1.08347
249 2 5.27263 6.51749 1.72192
176 2 12.3057 4.48127 -0.330334
19 4 5.74665 3.62679 16.7765
161 2 8.8266 3.84858 8.59551
242 2 6.08143 5.82799 11.9182
76 1 6.72525 6.19041 12.806
130 3 7.21096 3.02063 16.0547
201 2 12.2473 4.08604 8.4581
101 3 5.76565 5.2178 16.8595
230 2 8.46255 4.74153 14.4353
265 2 13.345 2.24994 14.2425
138 3 7.1752 6.29993 9.14128
59 1 10.7797 6.80991 14.8601
128 3 7.36276 1.38319 13.9339
123 3 13.6516 0.823921 8.68218
124 3 7.63447 2.60957 11.0013
9 4 11.1345 6.01469 8.94316
241 2 7.43931 5.31146 13.1531
231 2 8.26678 3.88913 12.7061
131 3 13.0335 2.54119 10.7519
37 4 10.8223 1.38804 16.2601
39 4 9.00221 2.40804 10.1492
41 4 8.14982 2.4744 14.8029
165 2 7.64253 5.17469 11.3612
229 2 9.95486 3.77388 13.5515
295 2 11.3722 4.60095 12.2447
42 4 11.7235 2.77885 11.5867
72 1 8.77947 3.87591 13.7195
73 1 11.9368 3.43928 13.4113
129 3 9.552 1.90428 15.4066
132 3 10.3656 2.64181 10.7898
233 2 11.3302 3.53677 14.4117
45 4 8.26879 6.21073 10.1773
137 3 9.75934 5.63946 9.69223
294 2 12.3879 1.55462 15.5449
163 2 11.6032 1.72149 13.1903
192 2 11.1758 5.93271 15.5064
240 2 6.09816 6.57436 13.7276
193 2 10.1737 6.4626 13.8782
226 2 8.93779 0.853685 9.23095
264 1 14.1822 1.53719 14.7588
251 2 6.24595 8.22347 1.68721
13 4 8.11462 10.5851 3.87127
282 2 6.69663 12.9198 2.92933
187 2 8.14203 9.57925 1.83066
250 2 4.42294 8.21608 1.27003
127 3 4.60481 12.6385 6.4099
247 1 5.38441 7.61649 1.2401
262 1 3.5397 11.9706 2.31922
252 2 8.15273 7.56003 -0.191128
160 2 6.20424 10.713 7.50227
283 2 3.36441 11.9873 1.12532
38 4 5.05822 11.9996 7.8685
149 2 5.95769 8.52365 5.10852
263 2 4.72281 9.59448 3.44182
56 1 8.24385 9.12279 2.89001
139 3 2.38567 9.52681 1.65288
140 3 2.10214 10.3602 4.15328
219 2 2.80447 11.5429 6.58092
46 4 3.06329 10.283 2.86591
166 2 2.99309 12.8138 2.82672
167 2 4.62902 11.8508 2.67263
273 2 4.63578 9.67156 5.65993
270 1 5.40119 9.48124 4.93348
271 2 4.52337 7.87372 4.31701
272 2 6.31544 10.5601 4.97809
75 1 6.31021 8.82551 7.98824
237 2 6.00653 9.0546 6.83856
287 2 7.28392 8.5016 3.32725
210 2 3.36137 8.12867 6.1317
159 2 2.18197 11.5376 -0.148014
68 1 1.61139 11.3986 6.73933
218 2 1.00121 12.2738 7.09744
203 2 8.39547 6.90075 4.37411
205 2 10.0341 6.96462 5.37177
194 2 10.2384 7.58218 15.4401
48 4 7.53625 7.92636 12.5249
44 4 5.77869 7.0023 8.57747
153 2 4.98158 7.04501 12.4391
141 3 3.8234 11.3462 8.46839
293 2 2.55567 11.6442 15.256
246 4 5.67524 6.90228 16.8025
29 4 3.97523 7.03718 11.1052
254 2 7.70466 6.99505 15.3653
143 3 8.31584 7.54346 11.0189
257 3 4.55812 7.53114 15.829
278 1 2.90292 11.8117 16.4195
223 2 2.67575 9.5372 12.645
154 2 2.88658 8.23316 11.5329
168 2 3.00489 8.95402 9.13562
142 3 1.9443 11.1834 10.3834
47 4 3.29409 10.5852 9.71321
49 4 5.48966 10.3646 12.0767
77 1 4.67215 11.1244 13.6004
136 3 4.64835 7.17824 9.70247
145 3 4.37733 10.3918 10.8934
146 3 6.47068 9.20435 12.34
169 2 5.15927 11.6849 14.4788
243 2 3.76886 11.685 13.2144
244 2 4.32422 10.0056 13.9674
245 2 6.01072 12.0141 12.5047
253 2 7.19044 8.71917 15.8458
248 1 7.31926 7.64417 16.1873
144 3 8.76945 8.21399 13.6056
239 2 5.60163 9.36175 8.73187
266 2 5.88264 12.7673 14.9384
279 2 3.98322 11.5476 16.6797
238 2 7.4068 8.89087 8.2788
ITEM: TIMESTEP
100
ITEM: NUMBER OF ATOMS
295
ITEM: BOX BOUNDS xy xz yz pp pp pp
-7.8597292192704238e+00 1.4906026411113041e+01 -7.8492520145264564e+00
6.5927825343657442e-01 1.2981847742707462e+01 -9.9483928097975155e-02
-3.7713602853938610e-01 1.6875136028539433e+01 3.2325996144037861e-02
ITEM: ATOMS id type x y z
81 3 -1.06963 3.12694 2.23419
54 1 -2.48455 5.00266 4.76915
183 2 -2.0887 4.90681 3.71744
52 1 -2.31403 5.30507 0.793125
10 4 -1.04362 6.05438 5.51449
85 3 -0.648954 5.29015 6.91961
7 4 -0.592272 4.11496 1.10675
172 2 3.89132 1.19692 1.29744
107 3 4.48023 5.24328 4.83133
177 2 -1.49895 6.21721 0.804141
189 2 -2.5035 6.70466 2.22183
157 2 2.29924 6.11408 6.52582
2 4 -0.758869 2.18085 3.44001
79 3 0.485122 2.6166 4.35662
103 3 -0.0143851 6.27888 4.20683
102 3 0.625858 5.0679 1.58244
8 4 0.414435 4.47203 7.68571
6 4 1.5444 2.67014 5.49654
51 1 3.33805 2.39712 4.78953
84 3 1.45317 3.8754 6.5638
106 3 2.3694 6.3179 3.25188
173 2 3.19832 3.17453 3.95828
175 2 4.05291 2.80328 5.67743
274 1 5.71264 3.03961 1.40385
277 2 4.68539 2.62811 1.57782
174 2 3.58918 1.33927 4.42981
27 4 3.49759 6.47495 4.43328
25 4 0.857684 6.36437 2.78331
104 3 5.11896 3.73068 6.92859
50 1 2.84632 1.56504 1.77318
171 2 2.31672 2.42391 1.10857
212 2 5.79346 1.41483 3.75877
80 3 1.2955 1.24626 6.5998
170 2 2.93365 1.82956 2.90621
96 3 3.58221 1.41024 7.78782
176 2 -2.43032 4.85697 -0.221639
66 1 6.35097 0.667607 3.15874
86 3 -2.60698 6.18636 10.2021
284 2 0.17117 1.25364 14.1451
290 2 -1.31075 5.9769 16.4013
5 4 -0.606769 2.11959 9.57708
58 1 -0.81558 6.32027 15.3707
232 2 -1.63554 3.64423 13.4373
185 2 -0.526233 4.81237 11.9767
100 3 5.49034 0.996985 11.8618
3 4 0.280791 1.99082 16.4069
148 2 -0.0188936 5.24946 10.0645
55 1 0.0973012 5.68452 11.1357
83 3 -0.154102 3.41611 8.71601
23 4 3.28578 2.20763 15.1705
61 1 3.33963 3.74308 9.2472
98 3 1.87882 2.27285 15.8773
108 3 2.39602 2.92772 12.215
197 2 3.41141 4.68301 8.53597
198 2 1.81469 3.71041 12.4572
199 2 2.31423 3.2294 9.16353
11 4 -1.60984 6.65096 11.321
24 4 6.0056 2.36681 11.0082
28 4 3.61473 4.1387 11.0974
97 3 4.4494 2.95586 16.0262
99 3 5.71135 2.16444 9.22385
179 2 1.27292 5.72037 8.49903
110 3 3.32053 5.71814 11.2636
152 2 3.17525 2.76281 13.4692
261 2 1.59983 5.2929 15.7556
269 2 1.86081 1.74305 10.587
267 1 0.804189 1.31724 10.6188
184 2 1.15743 5.78276 11.4013
258 2 1.97123 5.92109 13.9754
256 1 2.3933 5.64972 15.0276
259 2 3.30189 4.95081 15.0345
190 2 -0.579547 5.49033 14.6377
109 3 5.10626 3.63419 11.4997
285 2 0.331363 1.60918 11.6637
20 4 4.56773 2.63299 8.29234
82 3 -0.441978 3.35508 16.8627
78 3 -7.35651 12.9174 0.109374
89 3 -3.66749 7.14935 7.87927
289 2 -1.47654 7.88596 3.28606
288 2 -3.10626 7.31666 4.02548
1 4 -6.04527 12.4419 1.1986
4 4 -5.50027 12.7978 7.6275
12 4 -3.42271 9.04746 2.45044
15 4 -2.7492 8.13563 7.05391
16 4 -4.38281 10.6815 5.89484
88 3 -3.57206 9.08925 0.794507
92 3 -3.75621 9.20622 6.23499
93 3 -5.09698 11.3542 7.34323
114 3 -3.18933 11.8318 5.30741
280 3 -5.11865 11.3222 0.494547
31 4 -2.07632 11.45 4.25528
90 3 -1.8434 7.35925 5.94426
113 3 -2.77259 10.3944 3.1278
57 1 -2.50555 7.59548 3.08282
116 3 -0.494799 10.8551 4.96419
91 3 -5.62104 10.5958 4.88934
14 4 -4.10282 10.2468 -0.246174
151 2 1.47139 7.5633 5.62229
213 2 -2.17153 12.5971 2.261
65 1 2.4326 7.02712 5.90614
155 2 0.43645 9.71965 0.130268
181 2 1.10714 7.42888 7.83177
30 4 1.4011 8.49834 0.868772
33 4 1.0029 10.4615 5.34636
111 3 0.423797 7.83892 1.93752
217 2 1.24287 9.77076 7.22239
112 3 2.04599 7.72009 -0.353501
115 3 -1.79771 9.0663 8.09561
94 3 -2.08318 6.96793 12.7818
208 2 -4.85154 12.1546 15.2962
22 4 -1.0462 12.5236 12.9594
292 2 -3.30541 10.1388 10.5255
67 1 -2.86092 11.0987 9.97321
215 2 -2.79343 12.0188 10.7074
216 2 -1.52691 11.8087 8.81073
150 2 -4.10209 9.9269 12.8818
32 4 -1.41781 10.0492 9.28954
156 2 -3.46871 11.3764 9.06104
17 4 -2.204 7.26275 14.3819
95 3 -4.90865 9.78013 15.7088
119 3 -2.60916 11.0552 16.4704
117 3 -2.01703 8.82284 14.8046
118 3 -1.79994 11.3615 13.8255
60 1 -5.68147 11.0754 12.9001
18 4 -5.33413 9.61672 14.1266
34 4 -1.72563 10.4672 15.201
147 2 -6.2991 12.538 9.13795
211 2 2.69401 7.52482 8.81899
120 3 -0.37453 9.89124 10.4236
268 2 -6.99952 12.4774 10.5355
69 1 0.118586 10.667 15.6521
195 2 -4.77536 11.7837 12.7052
64 1 -4.05963 12.7504 14.7151
225 2 1.27572 9.82732 13.8191
186 2 -0.237233 7.56023 10.7309
209 2 1.29178 8.74781 9.04637
53 1 1.55069 7.68472 8.83566
196 2 -6.44603 11.5442 13.7837
220 2 0.521793 9.61666 15.7265
255 4 2.83044 7.40267 15.5731
70 1 1.6749 9.43991 12.7344
224 2 1.10438 8.49838 12.3675
35 4 0.824627 10.6188 11.3338
121 3 0.121584 11.8856 12.1224
291 2 -6.1988 10.7973 11.9701
222 2 0.628799 11.2912 14.8244
207 2 -3.99618 12.5719 13.5754
191 2 -0.00633066 7.22671 15.4786
206 2 -2.93757 12.8749 15.2348
221 2 0.133005 11.2696 16.6617
180 2 0.946513 6.89793 9.76912
26 4 5.42302 5.13448 6.28888
105 3 7.05619 5.2651 5.85533
71 1 8.78209 2.36932 8.13577
275 2 5.96401 4 1.97386
228 2 7.73591 2.00116 7.78301
135 3 5.05815 6.49252 7.22181
158 2 7.62601 1.23861 4.60184
286 2 11.1948 5.5183 4.76219
182 2 12.4053 4.00024 5.35974
21 4 8.60031 5.02585 5.63214
63 1 9.38195 6.48151 4.65098
62 1 11.2986 4.40783 7.7463
162 2 12.1331 2.81946 6.83913
74 1 9.36422 4.37755 0.8144
122 3 8.85283 3.61453 5.05061
234 2 8.43655 4.5375 1.45491
235 2 9.08893 3.89121 -0.194097
36 4 9.06676 2.1716 4.46885
40 4 11.8797 1.56347 5.61042
43 4 10.2541 2.94262 1.61696
125 3 12.8198 1.90714 4.34524
126 3 10.2968 1.55476 5.28492
133 3 9.4493 2.3663 2.90152
134 3 10.7381 1.83826 0.519547
164 2 11.5296 4.16576 1.97229
236 2 10.0099 5.30928 0.675489
200 2 9.46481 4.96965 7.10161
204 2 9.76723 6.05321 3.68852
202 2 11.5793 4.66787 6.63053
281 2 10.316 3.65213 7.84554
227 2 9.59154 2.18138 7.41543
276 2 6.56915 2.2896 1.46518
178 2 11.4694 5.7146 0.999004
249 2 4.70439 6.41152 1.67686
214 2 7.36908 0.944 2.79456
19 4 5.75376 3.53768 16.8248
101 3 5.78479 5.35669 16.7466
242 2 5.95708 5.67618 12.3192
76 1 6.71306 6.19903 12.9782
130 3 7.07306 2.90363 16.1047
201 2 12.2219 4.02513 8.4501
264 1 14.095 1.45084 14.8551
230 2 8.52968 4.77682 14.6835
265 2 13.3354 2.27635 14.3464
138 3 7.15507 6.44359 8.94155
59 1 10.8211 6.5801 14.8894
128 3 7.38048 1.36916 13.8979
123 3 13.6023 0.928405 8.63817
124 3 7.64044 2.85179 10.9025
9 4 11.0532 5.91901 8.99976
241 2 7.55167 5.39847 13.3551
231 2 8.05813 3.67553 13.0874
131 3 13.1592 2.60001 10.7335
37 4 10.8414 1.23965 16.2509
39 4 8.91861 2.43616 10.0818
41 4 8.09179 2.35387 14.942
165 2 7.5234 5.29739 11.3926
229 2 9.99969 3.82377 13.6723
295 2 11.4368 4.57142 12.09
42 4 11.7206 2.75945 11.5639
72 1 8.82053 3.9225 14.0291
73 1 12.0127 3.48577 13.3668
129 3 9.59054 1.73249 15.4313
132 3 10.3333 2.51936 10.7973
233 2 11.4052 3.82308 14.2184
45 4 8.13672 6.22906 10.0837
137 3 9.60098 5.58438 9.65237
294 2 12.2783 1.8092 15.5684
163 2 11.5901 1.8326 13.1992
192 2 11.1779 5.6095 15.4327
240 2 6.23474 6.73312 13.8746
193 2 10.298 6.41411 13.9576
226 2 8.83181 0.80729 9.23463
161 2 8.69505 3.77118 8.37261
251 2 6.20394 7.47521 2.07802
13 4 7.86916 10.5639 3.9061
238 2 7.4555 9.26816 7.99173
187 2 7.53076 9.53411 1.89341
250 2 4.54503 8.29275 1.54373
127 3 4.58637 12.5085 6.24415
247 1 5.28481 7.38539 1.43871
262 1 3.67284 11.8266 2.30064
252 2 7.80728 8.5212 -0.147123
160 2 6.42697 11.0174 7.56489
283 2 3.31082 11.7726 1.06018
38 4 5.08744 12.0799 7.80213
149 2 5.6355 8.41659 5.21683
263 2 4.81384 9.42063 3.3675
56 1 8.02548 9.05444 2.93529
139 3 2.44472 9.35514 1.81959
140 3 2.23428 10.37 4.27073
219 2 2.51889 11.8229 6.52179
46 4 3.11943 10.2055 2.93774
166 2 3.26182 12.7025 2.84442
167 2 4.80382 11.7406 2.45569
273 2 4.57003 9.89083 5.59775
270 1 5.32804 9.47368 4.87385
271 2 4.60431 7.77992 4.12255
272 2 6.30047 10.1713 4.84051
75 1 6.32874 9.04902 7.97
237 2 5.84295 9.24157 6.80894
287 2 7.3025 8.3937 3.55761
210 2 3.31848 7.7059 6.37421
159 2 2.1529 11.348 -0.0837279
68 1 1.45293 11.2933 6.78607
218 2 0.530517 12.0795 6.92655
203 2 8.49206 7.18599 4.56252
87 3 7.76024 11.7973 2.78057
205 2 10.2429 6.8893 5.31005
188 2 9.61368 8.84336 3.08639
282 2 6.63867 12.9072 2.77323
194 2 10.4023 7.35061 15.6351
48 4 7.65242 7.90922 12.4497
44 4 5.75642 7.25248 8.47326
153 2 5.00976 7.15895 12.6014
141 3 3.99498 11.2664 8.538
293 2 2.65303 11.2277 15.2984
246 4 5.67603 6.93282 16.8224
29 4 4.00347 7.06988 11.221
254 2 7.96203 6.87597 16.1557
143 3 8.50702 7.57631 11.0046
257 3 4.42163 7.41612 15.8364
278 1 2.86254 11.6469 16.3418
223 2 2.81455 9.54469 12.6455
154 2 2.79045 8.25355 11.5741
168 2 2.98702 9.01683 9.13517
142 3 2.08519 11.162 10.3841
47 4 3.39768 10.5467 9.73784
49 4 5.5119 10.3527 12.1146
77 1 4.6077 11.0436 13.637
136 3 4.71301 7.35991 9.87025
145 3 4.57434 10.4204 10.9172
146 3 6.52588 9.14911 12.2474
169 2 5.14972 11.5627 14.4718
243 2 3.74054 11.6464 13.1986
244 2 4.27316 9.95793 14.0267
245 2 6.09339 11.8988 12.8085
253 2 7.07884 8.3602 15.3442
248 1 7.29512 7.82997 16.2903
144 3 8.66499 8.35027 13.6985
239 2 5.7647 9.58587 8.74937
266 2 5.70383 12.7264 15.0632
279 2 3.89835 11.3768 16.6937
260 2 2.43147 8.58994 14.4096
ITEM: TIMESTEP
200
ITEM: NUMBER OF ATOMS
295
ITEM: BOX BOUNDS xy xz yz pp pp pp
-7.8597292192704238e+00 1.4906026411113041e+01 -7.8492520145264564e+00
6.5927825343657442e-01 1.2981847742707462e+01 -9.9483928097975155e-02
-3.7713602853938610e-01 1.6875136028539433e+01 3.2325996144037861e-02
ITEM: ATOMS id type x y z
81 3 -1.23443 3.14818 2.32298
54 1 -2.6969 5.0261 4.84498
183 2 -2.21465 4.77853 3.78267
52 1 -2.34921 5.21757 0.765221
10 4 -1.21765 6.06874 5.42794
85 3 -0.646721 5.1444 6.64096
7 4 -0.644548 4.04874 1.22583
172 2 3.95882 0.825723 1.54703
189 2 -2.42924 6.77492 2.02337
177 2 -1.68566 6.11522 0.736449
82 3 -0.291771 3.3084 -0.138828
157 2 2.47085 6.14921 6.53791
2 4 -0.711921 2.18223 3.51006
79 3 0.619471 2.61106 4.29485
103 3 -0.197945 6.27484 3.97241
102 3 0.535261 5.03612 1.70682
8 4 0.548116 4.49998 7.50515
6 4 1.50525 2.46347 5.5612
51 1 3.35502 2.71305 4.78431
84 3 1.60841 3.76037 6.56799
106 3 2.58244 6.28604 3.10188
173 2 3.17205 3.535 4.10208
175 2 4.06589 2.98053 5.70693
274 1 5.66501 3.12297 1.22103
277 2 4.69901 2.49648 1.37462
174 2 3.62086 1.71844 4.30875
27 4 3.49749 6.61137 4.4113
25 4 0.805542 6.2789 2.72856
104 3 5.16275 3.80896 6.94855
50 1 3.00064 1.2975 1.85245
171 2 2.60349 2.22547 1.13992
212 2 5.72967 1.54605 3.79631
80 3 1.41473 0.919203 6.19281
170 2 2.99236 1.64506 2.94573
96 3 3.34044 1.47329 8.05247
78 3 0.570936 0.771339 0.284885
66 1 6.30437 0.774196 3.26264
179 2 1.43804 5.74858 8.24141
86 3 -2.71442 6.08856 10.3091
284 2 0.126145 1.36098 14.1351
290 2 -1.44721 5.874 16.4523
5 4 -0.782574 2.25165 9.48592
58 1 -0.874462 6.13411 15.3943
232 2 -1.71744 3.6195 13.5459
185 2 -0.369979 5.20169 12.3626
100 3 5.73788 0.890852 11.8391
3 4 0.272694 1.96553 16.3937
148 2 -0.171144 5.11785 10.3116
55 1 0.0984722 5.88301 11.1034
83 3 0.0367072 3.52316 8.64792
23 4 3.17635 2.44138 15.1282
61 1 3.44566 3.9402 9.29705
98 3 1.728 2.24046 15.7154
108 3 2.25429 3.19659 12.2198
197 2 3.60226 4.88209 8.66923
198 2 1.70123 4.04102 12.3564
199 2 2.3984 3.42673 9.11156
11 4 -1.61804 6.66882 11.3916
24 4 6.05461 2.45666 10.9
28 4 3.60344 4.28294 11.1584
97 3 4.41674 3.1083 15.8437
99 3 5.67009 2.1337 9.34629
206 2 4.87189 0.91524 15.2114
110 3 3.20658 5.89064 11.4615
152 2 2.9758 3.19552 13.5405
261 2 1.58159 5.38892 16.3028
269 2 1.58618 1.7472 10.2991
267 1 0.54499 1.27562 10.4355
184 2 1.22085 5.96817 11.212
258 2 1.65235 5.80119 14.3594
256 1 2.28193 5.62336 15.4104
259 2 3.23342 5.07016 15.3131
190 2 -0.675043 5.28499 14.6948
109 3 5.0847 3.77688 11.5826
285 2 0.0777012 1.50498 11.4707
20 4 4.54258 2.76624 8.35941
64 1 3.84047 0.759758 14.6373
191 2 0.0144981 6.7956 15.4794
115 3 -1.89434 8.9938 8.18198
89 3 -3.67905 7.19254 7.86523
289 2 -1.4479 8.26204 3.01688
288 2 -2.97726 7.33993 3.86871
1 4 -6.12443 12.3888 1.13168
4 4 -5.62958 12.6628 7.56347
12 4 -3.54138 9.12877 2.51531
15 4 -2.79734 8.27676 7.06929
16 4 -4.35665 10.6018 5.86122
88 3 -3.69905 9.0201 0.857776
92 3 -3.85683 9.14956 6.12278
93 3 -4.93328 11.1901 7.38211
114 3 -3.13113 11.6775 5.28182
280 3 -5.03549 11.45 0.504368
31 4 -1.98424 11.4383 4.22432
90 3 -1.84374 7.47811 5.92432
113 3 -2.65799 10.416 3.19022
57 1 -2.50052 7.66849 2.86287
116 3 -0.56405 10.9534 4.86267
91 3 -5.70323 10.4938 4.71864
14 4 -3.9813 10.2526 -0.156395
151 2 1.27791 7.25955 5.58149
213 2 -2.08866 12.6844 2.24781
65 1 2.35741 7.0487 5.87355
155 2 0.333705 9.89857 0.357657
181 2 1.08605 7.45449 7.83895
30 4 1.39396 8.66051 0.905318
33 4 0.835087 10.5145 5.31482
111 3 0.538729 7.57535 1.70519
217 2 0.779845 9.58568 7.05564
94 3 -1.93155 6.93033 12.9176
208 2 -4.71684 12.3364 15.2447
22 4 -1.0863 12.5401 12.8951
292 2 -3.36226 10.264 10.5203
67 1 -2.99113 11.199 9.77737
215 2 -2.6765 12.0552 10.4208
216 2 -1.6831 11.6937 8.5507
150 2 -4.12426 10.3004 13.0151
32 4 -1.51606 10.029 9.24743
156 2 -3.7317 11.3084 8.9189
17 4 -2.14495 7.30145 14.4749
95 3 -4.79694 9.64923 15.7326
119 3 -2.63215 11.0005 16.4455
117 3 -1.84203 8.81622 14.801
118 3 -1.9308 11.3591 13.7115
60 1 -5.77879 11.1962 13.3775
18 4 -5.21921 9.54534 14.1799
34 4 -1.6292 10.4304 15.0972
147 2 -6.62199 12.4974 8.9666
211 2 2.68245 7.4745 8.71555
120 3 -0.307782 9.85386 10.2776
268 2 -7.32047 12.4241 10.2058
69 1 0.105052 10.6521 15.7763
195 2 -4.9024 11.9402 12.9591
222 2 0.586457 11.2277 14.8829
225 2 0.8717 9.75785 13.5368
186 2 -0.303976 7.74864 10.7932
209 2 1.42781 8.75838 9.08507
53 1 1.57993 7.68186 8.81792
196 2 -6.32339 11.5444 14.4523
220 2 0.604158 9.57033 15.9264
255 4 2.67563 7.43854 15.5169
70 1 1.54643 9.46515 12.6415
224 2 1.23231 8.49415 12.2284
35 4 0.851688 10.6142 11.1661
121 3 0.178594 11.9488 12.0455
180 2 1.01139 7.00084 9.64739
112 3 1.86488 7.97703 16.8307
207 2 -3.87473 12.7474 13.5409
221 2 0.0881518 11.2886 16.7032
26 4 5.48325 5.29465 6.24232
105 3 7.07711 5.4579 5.94222
176 2 12.29 4.74754 -0.216414
275 2 5.68141 4.05883 1.84655
228 2 7.84973 1.87268 7.9097
135 3 4.94486 6.58829 7.22397
158 2 7.65273 1.27117 4.57561
286 2 11.0864 5.58583 4.68117
182 2 12.005 4.07821 5.46156
21 4 8.54439 4.97627 5.70862
63 1 9.21503 6.37849 4.59035
62 1 11.2507 4.39324 7.88473
162 2 11.7629 2.88038 6.74826
74 1 9.59597 4.56668 0.92426
122 3 8.90365 3.61557 5.07828
234 2 8.49333 4.36229 1.21632
235 2 9.83855 4.46363 -0.102542
36 4 9.11694 2.15684 4.44223
40 4 11.893 1.55905 5.61184
43 4 10.24 2.88342 1.62308
125 3 12.8438 1.93048 4.43012
126 3 10.3875 1.35561 4.98973
133 3 9.44523 2.38987 2.88032
134 3 10.5732 1.68203 0.60843
164 2 11.5364 3.99594 1.98316
236 2 10.0493 5.50602 1.47021
200 2 9.41863 4.83546 7.26325
204 2 9.73517 6.0307 3.65376
202 2 11.5572 4.68538 6.73435
281 2 10.3403 3.62653 7.99382
227 2 9.56425 2.21133 7.47117
276 2 6.53733 2.44025 1.41817
178 2 11.4918 5.45708 1.35561
249 2 4.98744 6.03285 1.71534
214 2 7.3437 1.22647 2.96604
205 2 9.94519 6.7394 5.53016
107 3 4.44614 5.40445 4.87647
19 4 5.97607 3.65519 16.6998
101 3 5.98868 5.27235 16.7943
242 2 5.94741 5.95448 12.0672
76 1 6.78779 6.197 12.8111
130 3 7.38799 2.97181 16.2257
201 2 12.2598 4.08131 8.53082
264 1 14.004 1.37099 14.8658
230 2 8.59537 4.76353 14.3994
265 2 13.2404 2.14282 14.3839
138 3 7.16622 6.54075 8.9177
59 1 10.9004 6.71433 15.1185
128 3 7.32094 1.36427 13.9809
123 3 13.5402 0.959445 8.56252
124 3 7.70541 2.70768 11.0509
9 4 11.0676 5.98084 9.00549
241 2 7.50438 5.3209 13.0378
231 2 8.182 3.67262 12.9256
131 3 13.005 2.77023 10.5873
37 4 10.6864 1.11126 16.3906
39 4 8.95814 2.28145 10.2189
41 4 8.26277 2.34285 14.924
165 2 7.39165 5.20615 11.1826
229 2 10.0131 3.57307 13.657
295 2 11.4645 4.67946 12.2406
42 4 11.6757 2.93627 11.5396
72 1 8.80281 3.81945 13.8273
73 1 12.0007 3.4948 13.4285
129 3 9.66789 1.61578 15.3182
132 3 10.3213 2.61063 10.9118
233 2 11.5417 3.79852 14.428
45 4 8.21583 6.31162 10.0887
137 3 9.63677 5.61506 9.45087
294 2 12.3002 1.45292 15.8727
163 2 11.523 1.82976 13.1171
192 2 11.2423 5.69237 15.5132
240 2 6.39002 6.57782 13.8225
193 2 10.2004 6.60895 14.3133
226 2 8.84235 0.771499 9.32627
161 2 8.46531 3.54339 8.38492
71 1 8.77072 2.39073 8.25504
251 2 6.04661 7.55147 2.10867
13 4 7.81218 10.4878 3.80151
238 2 7.48705 8.6759 7.94773
187 2 7.74715 9.26931 1.87348
250 2 4.3196 7.79553 1.4655
127 3 4.69599 12.5199 6.31492
247 1 5.20249 7.1631 1.51283
262 1 3.7745 11.6269 2.28177
252 2 7.54389 8.53848 0.118351
160 2 6.4941 10.931 7.58737
283 2 3.63053 11.5959 1.08771
38 4 5.17068 11.9896 7.78054
149 2 5.90636 8.75876 5.30824
263 2 4.9125 9.47784 3.29044
56 1 7.98648 8.93585 2.9328
139 3 2.6116 9.28887 1.75453
140 3 2.02084 10.1499 4.33718
219 2 2.35099 11.2328 7.00412
46 4 3.10189 10.0797 3.01235
166 2 3.01728 12.3853 2.87324
167 2 4.92874 11.553 2.68952
273 2 4.49705 9.90421 5.5919
270 1 5.39859 9.66454 4.95114
271 2 4.48823 8.01644 4.32413
272 2 6.15774 10.5526 4.97725
75 1 6.3966 8.9662 7.87804
237 2 6.03916 9.21928 6.7947
287 2 7.10781 8.33057 3.52138
210 2 2.85874 8.01601 6.20298
159 2 2.40001 11.2943 -0.123827
68 1 1.24092 11.0785 6.86604
218 2 0.532176 11.8803 7.22939
203 2 8.49732 7.17676 4.34871
87 3 7.74328 11.6432 2.68132
246 4 5.76101 6.82482 -0.368986
188 2 9.63344 8.75188 3.41223
282 2 6.63805 12.9248 2.84752
279 2 4.17634 10.9897 16.5717
48 4 7.68158 7.943 12.4936
44 4 5.72652 7.23685 8.5258
153 2 5.12569 7.2763 12.6933
141 3 4.08157 11.2094 8.51421
293 2 2.7989 11.2644 15.2528
266 2 5.69598 12.5782 14.9817
29 4 4.04809 7.2218 11.3185
254 2 8.19249 7.1111 16.4215
143 3 8.48003 7.76056 10.8829
257 3 4.49203 7.39833 15.9029
278 1 3.154 11.5114 16.312
223 2 2.64585 9.70004 12.745
154 2 2.84999 8.40719 11.6009
168 2 3.13026 8.87131 9.13884
142 3 2.11082 11.0694 10.239
47 4 3.48285 10.4706 9.7247
49 4 5.46265 10.2235 12.1604
77 1 4.76059 10.6533 13.8572
136 3 4.82618 7.42921 9.98991
145 3 4.46752 10.3618 10.8915
146 3 6.52145 9.04078 12.2762
169 2 5.55617 11.2688 14.6332
243 2 3.73233 11.1299 13.7759
244 2 4.68111 9.46367 14.2044
245 2 6.11755 11.7048 12.9676
253 2 6.9517 8.28064 15.5323
248 1 7.30694 7.84506 16.5437
144 3 8.7806 8.26021 13.6779
239 2 6.09833 9.69974 8.69085
291 2 8.24937 10.9021 12.6323
194 2 10.449 7.35431 15.9654
260 2 2.46474 8.51772 14.0994
ITEM: TIMESTEP
300
ITEM: NUMBER OF ATOMS
295
ITEM: BOX BOUNDS xy xz yz pp pp pp
-7.8597292192704238e+00 1.4906026411113041e+01 -7.8492520145264564e+00
6.5927825343657442e-01 1.2981847742707462e+01 -9.9483928097975155e-02
-3.7713602853938610e-01 1.6875136028539433e+01 3.2325996144037861e-02
ITEM: ATOMS id type x y z
81 3 -1.12759 2.81724 2.30028
54 1 -2.69291 5.07705 4.64325
183 2 -2.27938 5.0916 3.53917
52 1 -2.31104 5.06646 0.835267
10 4 -1.15398 6.04747 5.32388
85 3 -0.467373 5.09564 6.38628
7 4 -0.685521 3.87248 1.21971
172 2 3.90883 1.26605 1.05339
189 2 -2.52167 6.58961 2.15275
177 2 -1.76586 6.10906 0.762014
82 3 -0.565932 3.24253 -0.300603
214 2 7.11383 0.925464 2.79727
2 4 -0.678013 2.07159 3.65088
79 3 0.647565 2.7619 4.30628
103 3 -0.118164 6.22485 4.06516
102 3 0.540974 4.95156 1.68739
8 4 0.486132 4.4262 7.46499
6 4 1.74525 2.54469 5.44516
51 1 3.50777 2.55111 4.67432
84 3 1.58723 3.61538 6.64447
106 3 2.47072 6.40836 3.25564
173 2 3.33267 3.21079 3.7157
175 2 4.17955 3.09357 5.50579
274 1 5.72072 3.12098 1.11621
277 2 4.6899 2.58238 1.35952
174 2 3.83999 1.48158 4.46285
27 4 3.60276 6.64859 4.40602
25 4 0.862445 6.27008 2.6542
104 3 4.91722 3.80608 6.97296
50 1 2.94962 1.4648 1.66898
171 2 2.26562 2.26349 1.16352
212 2 6.06925 1.7069 4.27862
80 3 1.53526 0.903607 6.30123
170 2 3.10854 1.73773 2.74623
96 3 3.37594 1.57791 7.96732
78 3 0.760317 0.754356 0.220118
66 1 6.17963 0.904409 3.40385
213 2 5.185 0.936305 2.76526
86 3 -2.4543 6.37396 9.96542
284 2 0.352294 0.931043 14.3238
290 2 -1.29051 5.76705 16.39
5 4 -0.734162 2.33988 9.43671
58 1 -0.838632 6.12653 15.4341
232 2 -1.71437 3.66356 13.8774
185 2 -0.310395 4.74523 11.8101
100 3 5.46857 1.03806 11.7945
3 4 0.458112 1.99232 16.4016
148 2 -0.0111411 5.38674 9.93094
55 1 0.20239 5.66627 11.0087
83 3 -0.0749547 3.43695 8.54036
23 4 3.32525 2.61287 14.9934
61 1 3.1925 4.10767 9.26052
98 3 2.02218 2.52949 15.8408
108 3 2.2213 3.3154 11.9963
197 2 3.38387 5.02819 8.52025
198 2 1.67992 4.20755 12.2284
199 2 2.11509 3.74047 9.30182
11 4 -1.54844 6.54608 11.2611
24 4 5.85557 2.45529 11.0978
28 4 3.63769 4.42184 11.1253
97 3 4.63712 3.29884 15.6813
99 3 5.32696 2.45824 9.47712
206 2 5.00319 0.987255 15.0278
110 3 3.12292 6.05218 11.5643
152 2 2.85326 3.09817 13.3142
261 2 1.30437 5.64308 16.3718
269 2 1.70483 1.61343 10.3758
267 1 0.61565 1.42022 10.5485
184 2 1.28525 5.89021 11.2158
258 2 1.99757 5.56563 14.4769
256 1 2.16193 5.74267 15.6759
259 2 3.14155 5.29633 16.1721
190 2 -0.498726 5.2432 14.7501
109 3 5.10066 3.88595 11.7867
285 2 0.236155 1.97882 11.5123
20 4 4.22057 2.81832 8.3854
64 1 3.93765 0.906869 14.6467
59 1 -3.67842 6.66029 15.2934
179 2 1.25956 5.65372 8.39447
192 2 -3.17291 5.76882 15.8016