ITEM: TIMESTEP
0
ITEM: NUMBER OF ATOMS
295
ITEM: BOX BOUNDS xy xz yz pp pp pp
-7.9400194813171350e+00 1.5055693276645961e+01 -7.9285373884105619e+00
5.1908152900982429e-01 1.2949521746563423e+01 -1.0048881626058097e-01
-3.7713602853938610e-01 1.6875136028539433e+01 -1.4019672442675013e-01
ITEM: ATOMS id type x y z
81 3 -1.00692 3.01823 2.35017
54 1 -2.52421 5.01487 4.75366
183 2 -2.1118 4.96022 3.67889
52 1 -2.38936 5.03194 0.663793
10 4 -1.16249 6.08573 5.57577
85 3 -0.683152 5.14489 6.84472
7 4 -0.648692 4.00626 1.1409
172 2 3.88417 0.986408 1.37392
82 3 -0.208535 3.31524 -0.284169
177 2 -1.73912 6.02615 0.635148
189 2 -2.72227 6.59389 1.99434
157 2 2.71297 6.30769 6.77695
78 3 0.551006 0.722471 0.270564
79 3 0.348243 2.64138 4.41633
103 3 -0.080896 6.1711 4.29285
102 3 0.389232 5.07648 1.75915
8 4 0.48232 4.42531 7.65671
6 4 1.46855 2.56739 5.53876
51 1 3.23065 2.51899 4.73647
84 3 1.55663 3.91848 6.57802
106 3 2.45709 6.21114 3.145
173 2 3.11879 3.26764 3.91385
175 2 4.03278 2.87188 5.43835
274 1 5.60538 3.08462 1.29637
277 2 4.61432 2.56691 1.48095
174 2 3.49197 1.49027 4.37047
27 4 3.54175 6.42685 4.44495
25 4 0.862428 6.21948 2.77451
104 3 5.14454 3.49665 7.09863
50 1 2.88499 1.50232 1.69473
171 2 2.5103 2.33579 0.943329
212 2 6.28698 1.56153 3.96141
80 3 1.42407 1.08556 6.44216
170 2 2.93969 1.91981 2.80197
96 3 3.61211 1.27733 7.80456
66 1 6.35671 0.666717 3.33054
2 4 -0.797654 2.06867 3.56154
107 3 4.55186 5.17904 4.83144
86 3 -2.47163 6.11684 10.0247
20 4 4.60763 2.57701 8.29684
290 2 -1.55136 5.74182 16.2419
5 4 -0.641984 1.96798 9.6999
58 1 -0.997368 6.2261 15.3202
232 2 -1.77916 3.47047 13.5112
185 2 -0.302347 4.92957 12.3384
100 3 5.79708 0.755377 11.8391
3 4 0.325062 1.89579 16.3025
148 2 -0.148214 4.7485 10.3251
55 1 0.159651 5.51451 11.1019
83 3 0.0589002 3.26621 8.72096
23 4 3.31022 2.27155 15.1461
61 1 3.3239 3.69604 9.20229
98 3 1.835 2.08923 15.6949
108 3 2.51084 2.76737 12.3542
197 2 3.36641 4.57543 8.43662
198 2 1.79086 3.39493 12.3276
199 2 2.29918 3.19498 9.22737
11 4 -1.55396 6.35902 11.2459
24 4 6.09016 2.29832 10.9531
28 4 3.61205 3.98007 11.075
97 3 4.50368 2.81247 16.101
99 3 5.63989 2.09136 9.40027
179 2 1.3094 5.57518 8.50607
110 3 3.13028 5.65389 11.2635
152 2 3.23188 3.11079 13.5168
261 2 1.65086 5.1883 15.5694
269 2 1.67357 1.81631 10.4599
267 1 0.727969 1.27833 10.7826
184 2 1.30722 5.53662 11.1621
258 2 2.07878 5.80636 13.769
256 1 2.51111 5.62238 14.823
259 2 3.44468 5.0094 14.8088
190 2 -0.540439 5.46091 14.6764
109 3 5.10219 3.65394 11.479
285 2 0.314003 1.59443 11.7907
284 2 0.220626 1.31551 13.9999
64 1 3.76842 0.546864 14.7065
214 2 -0.552963 12.8209 2.77729
89 3 -3.86229 7.10614 7.7786
289 2 -1.63222 7.68257 3.1422
288 2 -3.42271 7.15665 3.70648
1 4 -6.18633 12.4275 1.19406
4 4 -5.54247 12.7075 7.66399
12 4 -3.48114 9.05895 2.38776
15 4 -2.77331 8.2119 7.09313
16 4 -4.3948 10.6094 5.94796
88 3 -3.80618 9.00548 0.900955
92 3 -3.72876 9.24036 6.34082
93 3 -5.31359 11.2094 7.29675
114 3 -2.99235 11.6258 5.35375
280 3 -5.23922 11.3072 0.549017
31 4 -1.94747 11.2408 4.2634
90 3 -1.76839 7.55867 5.993
113 3 -2.56605 10.168 3.10328
57 1 -2.72905 7.41942 2.805
116 3 -0.525001 10.8626 4.79036
91 3 -5.52787 10.4988 4.81249
14 4 -4.06529 10.342 -0.258017
151 2 1.6693 7.43953 5.68296
87 3 -6.96109 11.8306 2.86123
65 1 2.712 7.11493 5.97731
155 2 -0.0315443 9.43936 0.226691
181 2 1.12143 7.42677 7.86048
30 4 1.24137 8.48159 0.93009
33 4 1.02375 10.5621 5.30248
111 3 0.453347 7.6566 1.97634
217 2 1.25774 9.73033 7.11244
112 3 1.9881 7.78944 -0.284678
115 3 -1.83873 9.01642 8.18009
188 2 -5.09735 8.69477 3.34733
213 2 -2.4655 12.8322 2.61845
94 3 -1.94823 6.7609 12.7248
208 2 -5.00865 12.2198 15.1401
22 4 -1.13243 12.3855 13.0158
292 2 -3.35969 9.8044 10.5352
67 1 -2.97462 10.8994 9.99615
215 2 -2.66356 11.7473 10.7079
216 2 -1.52123 11.6694 8.93199
150 2 -3.84702 9.73159 13.2325
32 4 -1.43211 9.95236 9.38744
156 2 -3.74648 11.3637 9.25965
17 4 -2.2848 7.21013 14.3182
95 3 -5.11955 9.86066 15.5728
119 3 -2.72263 10.7877 16.6547
117 3 -2.05997 8.7578 14.7696
118 3 -2.01082 11.2441 13.9657
60 1 -5.43756 10.8299 12.8244
18 4 -5.35016 9.40925 14.0711
34 4 -1.76898 10.2502 15.1415
147 2 -6.49132 12.7537 9.12442
211 2 2.71529 7.30683 8.83914
120 3 -0.264098 9.70519 10.4125
268 2 -7.11893 12.4116 10.6959
69 1 0.0395544 10.3587 15.8251
195 2 -4.66614 11.7267 12.7255
260 2 2.27608 8.32399 14.2282
225 2 0.984478 9.35647 13.5432
186 2 -0.19816 7.36443 10.647
209 2 1.42245 8.58956 9.28967
53 1 1.59126 7.51373 8.9148
196 2 -6.47161 11.2218 13.3409
220 2 0.626699 9.36428 15.9522
255 4 2.72506 7.24736 15.5695
70 1 1.55136 9.13627 12.6085
224 2 1.22406 8.18191 12.0278
35 4 0.763902 10.5242 11.357
121 3 0.120541 11.5766 12.2794
291 2 -5.63447 10.3453 11.7614
222 2 0.442154 10.9089 14.8746
207 2 -4.02966 12.7039 13.536
191 2 -0.283667 7.02316 15.6117
206 2 -3.12683 12.7588 15.2825
221 2 -0.0749355 11.0196 16.6912
180 2 1.04349 6.73775 9.71986
26 4 5.50915 5.03121 6.3168
105 3 7.13308 5.20884 5.99519
71 1 9.00233 2.31127 8.19566
275 2 5.69321 4.09177 1.83971
228 2 8.09699 2.07952 7.61925
135 3 5.08823 6.24313 7.32745
158 2 7.94735 1.14751 4.43218
286 2 11.3245 5.44053 4.79726
182 2 12.5249 3.99122 5.25392
21 4 8.63115 4.89826 5.72831
63 1 9.41207 6.27337 4.69205
62 1 11.4253 4.35201 7.75802
162 2 11.9297 2.77302 6.7423
74 1 9.37683 4.22696 0.832942
122 3 8.89465 3.50001 4.96164
234 2 8.89443 4.83663 1.67369
235 2 8.58467 3.72709 0.180401
36 4 9.32087 2.14316 4.3033
40 4 11.9072 1.44164 5.62353
43 4 10.5491 2.96715 1.65412
125 3 12.8501 1.84675 4.40816
126 3 10.3568 1.23409 5.26147
133 3 9.64175 2.33197 2.72414
134 3 11.0441 2.11384 0.444459
164 2 11.872 3.9943 2.17542
236 2 10.1227 4.87605 0.256208
200 2 9.65674 5.0167 7.17777
204 2 9.88799 5.69093 3.83002
202 2 11.7293 4.5951 6.6624
281 2 10.5293 3.56527 7.83466
227 2 9.9317 2.15054 7.53196
276 2 6.53492 2.38394 1.371
178 2 11.5904 5.35135 1.08347
249 2 5.32499 6.49649 1.72192
176 2 12.4291 4.4808 -0.330334
19 4 5.8038 3.45525 16.7765
161 2 8.91486 3.75885 8.59551
242 2 6.14196 5.70504 11.9182
76 1 6.79228 6.05858 12.806
130 3 7.2829 2.85631 16.0547
201 2 12.3701 3.99769 8.4581
101 3 5.82299 5.04543 16.8595
230 2 8.54713 4.59341 14.4353
265 2 13.4789 2.10374 14.2425
138 3 7.24678 6.20475 9.14128
59 1 10.8877 6.65754 14.8601
128 3 7.43623 1.24008 13.9339
123 3 13.7886 0.733328 8.68218
124 3 7.71068 2.49578 11.0013
9 4 11.246 5.92149 8.94316
241 2 7.51356 5.17616 13.1531
231 2 8.34939 3.75829 12.7061
131 3 13.1643 2.4299 10.7519
37 4 10.9307 1.22166 16.2601
39 4 9.09225 2.30278 10.1492
41 4 8.23125 2.32259 14.8029
165 2 7.71883 5.05731 11.3612
229 2 10.0545 3.63459 13.5515
295 2 11.4862 4.47473 12.2447
42 4 11.841 2.65922 11.5867
72 1 8.86725 3.73495 13.7195
73 1 12.0564 3.30139 13.4113
129 3 9.64758 1.74644 15.4066
132 3 10.4694 2.53015 10.7898
233 2 11.4438 3.38888 14.4117
45 4 8.35141 6.10519 10.1773
137 3 9.85702 5.53876 9.69223
294 2 12.5122 1.3954 15.5449
163 2 11.7195 1.58581 13.1903
192 2 11.2878 5.77387 15.5064
240 2 6.15886 6.43331 13.7276
193 2 10.2755 6.32004 13.8782
226 2 9.02717 0.757604 9.23095
264 1 14.3245 1.38583 14.7588
251 2 6.30814 8.20283 1.68721
13 4 8.19569 10.5427 3.87127
282 2 6.76338 12.8868 2.92933
187 2 8.22337 9.55717 1.83066
250 2 4.46672 8.19961 1.27003
127 3 4.65043 12.5707 6.4099
247 1 5.4379 7.60032 1.2401
262 1 3.57455 11.9437 2.31922
252 2 8.23418 7.55817 -0.191128
160 2 6.26601 10.6342 7.50227
283 2 3.3975 11.9723 1.12532
38 4 5.10841 11.9172 7.8685
149 2 6.01697 8.46879 5.10852
263 2 4.76962 9.55629 3.44182
56 1 8.32622 9.09012 2.89001
139 3 2.40887 9.50651 1.65288
140 3 2.12247 10.3149 4.15328
219 2 2.8319 11.4733 6.58092
46 4 3.09333 10.2506 2.86591
166 2 3.02242 12.7817 2.82672
167 2 4.67488 11.8203 2.67263
273 2 4.6817 9.61118 5.65993
270 1 5.45485 9.42813 4.93348
271 2 4.56816 7.82678 4.31701
272 2 6.37834 10.5066 4.97809
75 1 6.37305 8.74185 7.98824
237 2 6.0663 8.98244 6.83856
287 2 7.35659 8.46455 3.32725
210 2 3.39443 8.06358 6.1317
159 2 2.20311 11.5353 -0.148014
68 1 1.62677 11.3275 6.73933
218 2 1.01042 12.1991 7.09744
203 2 8.47938 6.85324 4.37411
205 2 10.1345 6.90713 5.37177
194 2 10.3409 7.42401 15.4401
48 4 7.61148 7.79734 12.5249
44 4 5.83616 6.91276 8.57747
153 2 5.031 6.91685 12.4391
141 3 3.86113 11.2577 8.46839
293 2 2.58059 11.4879 15.256
246 4 5.73167 6.73048 16.8025
29 4 4.01449 6.92235 11.1052
254 2 7.78159 6.83762 15.3653
143 3 8.39894 7.4295 11.0189
257 3 4.60326 7.36908 15.829
278 1 2.93134 11.6438 16.4195
223 2 2.70188 9.40698 12.645
154 2 2.91484 8.11406 11.5329
168 2 3.03434 8.8589 9.13562
142 3 1.96304 11.0757 10.3834
47 4 3.32647 10.4843 9.71321
49 4 5.54421 10.2401 12.0767
77 1 4.71844 10.9846 13.6004
136 3 4.69441 7.07744 9.70247
145 3 4.42064 10.2791 10.8934
146 3 6.53514 9.07718 12.34
169 2 5.21049 11.5364 14.4788
243 2 3.80603 11.5491 13.2144
244 2 4.367 9.86219 13.9674
245 2 6.07054 11.8853 12.5047
253 2 7.26217 8.55695 15.8458
248 1 7.39229 7.47853 16.1873
144 3 8.85713 8.07416 13.6056
239 2 5.65732 9.27066 8.73187
266 2 5.94116 12.6142 14.9384
279 2 4.02256 11.377 16.6797
238 2 7.48072 8.80431 8.2788
ITEM: TIMESTEP
100
ITEM: NUMBER OF ATOMS
295
ITEM: BOX BOUNDS xy xz yz pp pp pp
-7.9400194813171350e+00 1.5055693276645961e+01 -7.9285373884105619e+00
5.1908152900982429e-01 1.2949521746563423e+01 -1.0048881626058097e-01
-3.7713602853938610e-01 1.6875136028539433e+01 -1.4019672442675013e-01
ITEM: ATOMS id type x y z
81 3 -1.07827 3.09851 2.26917
54 1 -2.50745 4.9487 4.76295
183 2 -2.14719 4.8534 3.70612
52 1 -2.34449 5.25687 0.791469
10 4 -1.06078 5.99438 5.51461
85 3 -0.651356 5.21075 6.89857
7 4 -0.588907 4.08624 1.13106
172 2 3.90273 1.17976 1.31719
82 3 -0.323281 3.30004 -0.338847
177 2 -1.56431 6.16613 0.829423
189 2 -2.55289 6.65504 2.23679
157 2 2.44751 6.02879 6.58194
176 2 -2.39782 4.76361 -0.215625
79 3 0.467428 2.54991 4.37867
103 3 -0.0381039 6.24705 4.19364
102 3 0.61744 5.06086 1.61122
8 4 0.41451 4.40663 7.68794
6 4 1.54517 2.60385 5.50488
51 1 3.35329 2.35979 4.7982
84 3 1.45351 3.80179 6.5729
106 3 2.3853 6.27363 3.29005
173 2 3.20525 3.13187 3.9828
175 2 4.08228 2.77664 5.69488
274 1 5.70651 2.99386 1.37964
277 2 4.6437 2.55029 1.61081
174 2 3.62643 1.31984 4.43995
27 4 3.533 6.41026 4.44276
25 4 0.862701 6.33016 2.78569
104 3 5.14494 3.65836 6.91314
50 1 2.85236 1.5495 1.77318
171 2 2.3647 2.41356 1.10803
212 2 5.90621 1.3596 3.89945
80 3 1.33254 1.17837 6.56936
170 2 2.91954 1.81264 2.90612
96 3 3.62372 1.34871 7.76401
107 3 4.53293 5.18898 4.82192
2 4 -0.763222 2.12831 3.44561
86 3 -2.6126 6.06384 10.2038
284 2 0.130844 0.990787 14.1862
290 2 -1.38834 5.8131 16.3941
5 4 -0.637819 2.02272 9.57553
58 1 -0.849292 6.15559 15.3796
232 2 -1.7023 3.58381 13.4168
185 2 -0.611224 4.70357 11.8573
100 3 5.57033 0.894469 11.8681
3 4 0.305681 1.82551 16.4191
148 2 0.153039 5.196 10.037
55 1 0.120415 5.59738 11.1194
83 3 -0.17182 3.31854 8.7206
23 4 3.30834 2.03859 15.1768
61 1 3.37188 3.65966 9.2651
98 3 1.90018 2.10844 15.8755
108 3 2.43094 2.80285 12.1967
197 2 3.42053 4.57673 8.56334
198 2 1.88542 3.58013 12.4582
199 2 2.38851 3.08772 9.17031
11 4 -1.6181 6.51355 11.3052
24 4 6.08915 2.26482 11.0027
28 4 3.65897 4.00501 11.0903
97 3 4.48418 2.78956 16.0107
99 3 5.75582 2.05338 9.22615
179 2 1.24116 5.66933 8.49223
110 3 3.36781 5.59908 11.2649
152 2 3.14471 2.529 13.4656
261 2 1.62857 5.17236 15.7444
269 2 1.81073 1.72918 10.539
267 1 0.786039 1.23838 10.5954
184 2 1.12245 5.73582 11.5474
258 2 2.01635 5.77598 13.9561
256 1 2.43415 5.50137 15.0078
259 2 3.32503 4.77483 15.0051
190 2 -0.573784 5.3623 14.6303
109 3 5.17568 3.51286 11.5124
285 2 0.30569 1.51526 11.6544
20 4 4.61202 2.53355 8.28276
78 3 -7.37018 12.9012 0.115166
89 3 -3.68815 7.08096 7.89174
289 2 -1.52548 7.8648 3.28738
288 2 -3.14154 7.31301 4.04311
1 4 -6.10405 12.4251 1.20409
4 4 -5.54038 12.7316 7.6153
12 4 -3.45717 9.02874 2.44323
15 4 -2.77373 8.06115 7.05988
16 4 -4.41617 10.6235 5.89072
88 3 -3.59157 9.07467 0.775385
92 3 -3.79414 9.13657 6.22189
93 3 -5.11888 11.2957 7.33755
114 3 -3.20589 11.7681 5.32996
280 3 -5.17552 11.3098 0.504791
31 4 -2.09112 11.3935 4.27543
90 3 -1.87866 7.27972 5.95227
113 3 -2.80829 10.3562 3.12889
57 1 -2.53557 7.57588 3.09066
116 3 -0.486124 10.7977 4.96595
91 3 -5.68329 10.5597 4.87112
14 4 -4.13836 10.2498 -0.256381
151 2 1.48342 7.40844 5.65803
188 2 -5.20732 8.84548 3.08671
65 1 2.49347 6.94827 5.93298
155 2 0.466106 9.72807 0.156718
181 2 1.15282 7.35976 7.83281
30 4 1.42105 8.47327 0.871662
33 4 0.991569 10.4225 5.32841
111 3 0.449335 7.82534 1.93964
217 2 1.21163 9.73114 7.24845
112 3 2.07736 7.70688 -0.350278
115 3 -1.82538 8.99662 8.10685
213 2 -2.20038 12.6075 2.28554
66 1 -1.50051 12.9078 3.1966
94 3 -2.07666 6.82174 12.7784
208 2 -4.89013 11.9898 15.2768
22 4 -1.04624 12.407 12.9546
292 2 -3.31166 10.0052 10.587
67 1 -2.85808 10.9839 9.99836
215 2 -2.79846 11.908 10.7405
216 2 -1.51686 11.7089 8.85901
150 2 -4.21812 9.7633 12.8571
32 4 -1.41528 9.94487 9.29799
156 2 -3.48328 11.252 9.10116
17 4 -2.22682 7.11106 14.3797
95 3 -4.93364 9.61459 15.6871
119 3 -2.64649 10.9102 16.4574
117 3 -2.04389 8.68187 14.7915
118 3 -1.80384 11.2527 13.817
60 1 -5.73662 10.9344 12.9217
18 4 -5.39372 9.45629 14.1318
34 4 -1.75848 10.3251 15.2068
147 2 -6.33532 12.4866 9.13293
211 2 2.73496 7.44314 8.83054
120 3 -0.349206 9.77451 10.4023
268 2 -7.05835 12.4008 10.4769
69 1 0.0792616 10.5015 15.6814
195 2 -4.80495 11.6128 12.7303
180 2 0.980089 6.82439 9.77703
225 2 1.3505 9.77582 13.7323
186 2 -0.254275 7.45092 10.7087
209 2 1.3604 8.67835 9.08381
53 1 1.5935 7.6043 8.84921
196 2 -6.48932 11.4318 13.8123
220 2 0.520854 9.4799 15.6955
255 4 2.85679 7.2487 15.551
70 1 1.73477 9.32305 12.7321
224 2 1.17253 8.35733 12.4506
35 4 0.859057 10.4945 11.3309
121 3 0.121547 11.7597 12.1022
291 2 -6.26633 10.6743 11.995
222 2 0.560926 11.1707 14.8768
207 2 -4.05985 12.4577 13.5429
191 2 -0.0661066 7.07492 15.5052
206 2 -2.98336 12.7223 15.2171
221 2 0.081272 11.0491 16.6866
64 1 -4.10206 12.5944 14.6982
26 4 5.47907 5.06534 6.27099
105 3 7.12745 5.17544 5.8416
71 1 8.86945 2.30281 8.14498
275 2 5.92522 4.01271 1.90035
228 2 7.84253 1.9044 7.78371
135 3 5.14068 6.42706 7.22191
158 2 7.77345 1.12177 4.61609
286 2 11.3182 5.45569 4.7809
182 2 12.5422 3.94329 5.34695
21 4 8.6694 4.95259 5.6488
63 1 9.48609 6.39877 4.68661
62 1 11.3809 4.34082 7.72599
162 2 12.2615 2.77371 6.82555
74 1 9.47796 4.35054 0.834782
122 3 8.95269 3.53719 5.08538
234 2 8.583 4.59756 1.50072
235 2 9.12606 3.88806 -0.170385
36 4 9.21096 2.11997 4.46774
40 4 12.0099 1.51278 5.60905
43 4 10.3761 2.9334 1.62363
125 3 12.9669 1.83148 4.34257
126 3 10.4437 1.50093 5.25285
133 3 9.60526 2.35123 2.90109
134 3 10.8367 1.82379 0.517595
164 2 11.702 4.07466 1.99511
236 2 10.1821 5.29002 0.647977
200 2 9.50287 4.88253 7.13211
204 2 9.8761 5.93095 3.74884
202 2 11.6683 4.60405 6.60672
281 2 10.3988 3.59699 7.82155
227 2 9.70398 2.09643 7.45341
276 2 6.56633 2.28548 1.45547
178 2 11.5506 5.6548 0.94988
249 2 4.79076 6.40629 1.64637
214 2 7.41487 0.877655 2.80692
19 4 5.79745 3.35162 16.8172
101 3 5.82316 5.19132 16.7406
242 2 6.07347 5.55177 12.2739
76 1 6.80875 6.04995 12.9532
130 3 7.13623 2.73896 16.1169
201 2 12.2971 3.92688 8.42282
264 1 14.2088 1.30116 14.8794
230 2 8.62066 4.61867 14.7343
265 2 13.4717 2.11204 14.3891
138 3 7.21103 6.35753 8.9521
59 1 10.9514 6.44296 14.87
128 3 7.4846 1.24161 13.8812
123 3 13.7284 0.827405 8.63303
124 3 7.70375 2.75526 10.9089
9 4 11.1578 5.83678 8.9941
241 2 7.68596 5.21801 13.3832
231 2 8.16873 3.52076 13.0874
131 3 13.2473 2.50857 10.7254
37 4 10.9284 1.07133 16.2415
39 4 9.00071 2.33263 10.0864
41 4 8.18717 2.20239 14.9415
165 2 7.63954 5.17279 11.3805
229 2 10.1022 3.66751 13.6752
295 2 11.5666 4.4798 12.2057
42 4 11.81 2.62896 11.5627
72 1 8.90596 3.76196 14.0383
73 1 12.0993 3.34309 13.3388
129 3 9.6837 1.56811 15.4321
132 3 10.4089 2.40892 10.7929
233 2 11.5201 3.66458 14.2319
45 4 8.22137 6.13671 10.0749
137 3 9.69537 5.5359 9.62436
294 2 12.3728 1.64771 15.5205
163 2 11.6718 1.58779 13.1211
192 2 11.2981 5.46119 15.3856
240 2 6.3235 6.55829 13.8577
193 2 10.4347 6.29217 13.9293
226 2 8.90511 0.7219 9.24694
161 2 8.77927 3.69196 8.35843
251 2 6.26545 7.49991 2.05865
13 4 7.99543 10.5243 3.88211
282 2 6.69214 12.9165 2.73
187 2 7.66105 9.50154 1.86216
250 2 4.5814 8.2909 1.54404
127 3 4.58339 12.4489 6.25834
247 1 5.33945 7.38602 1.41847
262 1 3.68953 11.7512 2.29069
252 2 7.82371 8.49503 -0.108732
160 2 6.41657 10.905 7.50475
283 2 3.29099 11.7638 1.03749
38 4 5.10012 12.002 7.79101
149 2 5.75307 8.38873 5.20325
263 2 4.8692 9.40703 3.27216
56 1 8.11045 9.08199 2.95037
139 3 2.43957 9.34642 1.82307
140 3 2.23246 10.348 4.27084
219 2 2.52212 11.7655 6.52049
46 4 3.12656 10.1694 2.93243
166 2 3.20334 12.528 2.98838
167 2 4.80598 11.6849 2.43907
273 2 4.65949 9.81338 5.60771
270 1 5.41292 9.42184 4.87177
271 2 4.54709 7.8409 4.11352
272 2 6.44463 10.2009 4.89245
75 1 6.36808 8.96248 7.98924
237 2 5.90895 9.16128 6.82341
287 2 7.39849 8.37079 3.51903
210 2 3.3628 7.69454 6.33813
159 2 2.18799 11.2857 -0.0891299
68 1 1.4292 11.2257 6.7788
218 2 0.527177 12.0157 6.92716
203 2 8.62796 7.11713 4.56897
238 2 7.50014 9.23084 8.05553
87 3 7.84561 11.772 2.77897
205 2 10.3491 6.80668 5.35994
194 2 10.5322 7.19077 15.6302
48 4 7.71912 7.77508 12.455
44 4 5.81298 7.15553 8.47235
153 2 5.11063 7.00866 12.6054
141 3 3.98369 11.2095 8.55017
293 2 2.65203 11.0532 15.2668
246 4 5.70141 6.76511 16.8205
29 4 4.05097 6.93726 11.2419
254 2 7.99056 6.72953 16.0975
143 3 8.57008 7.46715 11.0122
257 3 4.43602 7.25232 15.8273
278 1 2.84603 11.475 16.3242
223 2 2.88509 9.37104 12.7089
154 2 2.89158 8.15806 11.5872
168 2 3.05437 8.89319 9.15532
142 3 2.10454 11.0438 10.4046
47 4 3.43953 10.4553 9.75182
49 4 5.55913 10.227 12.0941
77 1 4.66161 10.9066 13.6257
136 3 4.74259 7.24809 9.88122
145 3 4.60659 10.3134 10.9203
146 3 6.55908 9.014 12.2438
169 2 5.29782 11.3951 14.4337
243 2 3.8076 11.5634 13.2919
244 2 4.27248 9.80476 13.985
245 2 6.14807 11.7514 12.7997
253 2 7.1124 8.25321 15.3677
248 1 7.30677 7.66195 16.285
144 3 8.71451 8.21618 13.709
239 2 5.77151 9.49167 8.75531
266 2 5.71851 12.6323 15.2287
279 2 3.9491 11.2688 16.6655
260 2 2.47064 8.469 14.4194
ITEM: TIMESTEP
200
ITEM: NUMBER OF ATOMS
295
ITEM: BOX BOUNDS xy xz yz pp pp pp
-7.9400194813171350e+00 1.5055693276645961e+01 -7.9285373884105619e+00
5.1908152900982429e-01 1.2949521746563423e+01 -1.0048881626058097e-01
-3.7713602853938610e-01 1.6875136028539433e+01 -1.4019672442675013e-01
ITEM: ATOMS id type x y z
81 3 -1.24875 3.10114 2.3551
54 1 -2.7338 4.95731 4.8262
183 2 -2.28133 4.72617 3.75948
52 1 -2.2884 5.17629 0.772389
10 4 -1.24299 6.01947 5.3904
85 3 -0.644744 5.08641 6.60168
7 4 -0.646013 4.03238 1.25805
172 2 4.03251 0.784064 1.63802
82 3 -0.272032 3.28821 -0.109989
177 2 -1.69248 6.13678 0.7483
66 1 6.36377 0.757727 3.29246
157 2 2.58322 5.96424 6.63032
2 4 -0.696452 2.10966 3.52479
79 3 0.632193 2.56148 4.3153
103 3 -0.221648 6.24506 4.02844
102 3 0.533588 5.01538 1.75245
8 4 0.512659 4.43547 7.50047
6 4 1.53763 2.41207 5.57222
51 1 3.35263 2.68112 4.7752
84 3 1.61744 3.66708 6.61397
106 3 2.54693 6.27295 3.16316
173 2 3.11849 3.51633 4.09532
175 2 4.07274 3.01558 5.69276
274 1 5.65579 3.07246 1.1878
277 2 4.69682 2.43385 1.39988
174 2 3.7291 1.73185 4.33212
27 4 3.53704 6.55985 4.44478
25 4 0.801875 6.27917 2.76039
104 3 5.20864 3.72952 6.92609
50 1 3.02979 1.2804 1.86623
171 2 2.70669 2.19076 1.09159
212 2 5.72531 1.45563 3.91323
80 3 1.45215 0.832717 6.22915
170 2 2.99209 1.71427 2.9903
96 3 3.43596 1.43012 8.03115
78 3 0.586834 0.732023 0.27355
176 2 -2.46888 4.67386 -0.243726
189 2 -2.46241 6.72249 2.08193
179 2 1.38169 5.72867 8.1904
86 3 -2.78264 5.96536 10.3141
284 2 0.114841 1.31565 14.1776
290 2 -1.40996 5.70048 16.4137
5 4 -0.8649 2.19721 9.46398
58 1 -0.898752 6.00333 15.3616
232 2 -1.80452 3.47626 13.5658
185 2 -0.584368 4.67729 11.8695
100 3 5.81589 0.794373 11.8182
3 4 0.296758 1.77773 16.4096
148 2 0.5809 5.26826 10.2095
55 1 0.132655 5.78998 11.0495
83 3 -0.0537237 3.47731 8.64449
23 4 3.18858 2.27459 15.1198
61 1 3.51233 3.85187 9.28127
98 3 1.73845 2.0662 15.7067
108 3 2.28357 3.02529 12.1819
197 2 3.71081 4.79573 8.60659
198 2 1.75042 3.85139 12.3703
199 2 2.45473 3.42259 9.14067
11 4 -1.65701 6.43754 11.3922
24 4 6.12694 2.3528 10.8745
28 4 3.66591 4.1492 11.1677
97 3 4.42018 2.92347 15.8247
99 3 5.7485 2.03767 9.34809
206 2 4.89365 0.701314 15.1633
110 3 3.27088 5.73556 11.4916
152 2 2.97914 3.00579 13.4806
261 2 1.61809 5.19703 16.232
269 2 1.53321 1.66075 10.3845
267 1 0.508226 1.24448 10.4015
184 2 0.952016 6.24445 11.7011
258 2 1.66527 5.66836 14.2675
256 1 2.29631 5.46347 15.3244
259 2 3.28836 4.88538 15.2057
190 2 -0.728168 5.18488 14.5712
109 3 5.15835 3.60438 11.5669
285 2 0.0257283 1.39704 11.4269
20 4 4.57825 2.66128 8.34509
64 1 3.84996 0.575794 14.6241
115 3 -1.89547 8.93419 8.15463
89 3 -3.69856 7.1401 7.88955
289 2 -1.45874 8.11335 3.00385
288 2 -2.98516 7.33706 3.90188
1 4 -6.1335 12.357 1.14245
4 4 -5.64438 12.603 7.56918
12 4 -3.56354 9.10073 2.50186
15 4 -2.83423 8.22509 7.06362
16 4 -4.36389 10.5444 5.86362
88 3 -3.68587 9.0137 0.834149
92 3 -3.88136 9.10051 6.11448
93 3 -4.95791 11.1088 7.37766
114 3 -3.15993 11.6255 5.28946
280 3 -5.07954 11.4285 0.486683
31 4 -2.01287 11.3995 4.20952
90 3 -1.88308 7.40432 5.92245
113 3 -2.69172 10.3591 3.18851
57 1 -2.51999 7.63635 2.86057
116 3 -0.570873 10.9309 4.88091
91 3 -5.73738 10.4619 4.72265
14 4 -4.01516 10.2584 -0.177972
151 2 1.34074 7.08157 5.76069
213 2 -2.05887 12.5862 2.29866
65 1 2.4252 6.88069 5.94853
155 2 0.276955 9.8348 0.354167
181 2 1.13445 7.43709 7.87669
30 4 1.38778 8.58466 0.900869
33 4 0.798853 10.443 5.34159
111 3 0.512363 7.5301 1.71005
217 2 0.824612 9.47915 7.11308
94 3 -1.95345 6.76324 12.8916
208 2 -4.77254 12.1759 15.2302
22 4 -1.0604 12.4278 12.9152
292 2 -3.37225 10.1206 10.5669
67 1 -3.00026 11.031 9.79731
215 2 -2.68978 11.9321 10.4052
216 2 -1.6698 11.5974 8.58789
150 2 -4.2069 10.0986 12.9621
32 4 -1.52191 9.92318 9.25023
156 2 -3.74584 11.1028 8.88389
17 4 -2.15266 7.17701 14.449
95 3 -4.81672 9.47594 15.714
119 3 -2.71251 10.8513 16.4342
117 3 -1.84311 8.69922 14.7744
118 3 -1.88532 11.2515 13.7284
60 1 -5.84245 11.0483 13.3864
18 4 -5.30932 9.38081 14.1856
34 4 -1.64988 10.2953 15.0905
147 2 -6.68795 12.4763 8.94378
211 2 2.72393 7.36192 8.76535
120 3 -0.254851 9.70658 10.2778
268 2 -7.42317 12.3796 10.1973
69 1 0.056124 10.5585 15.8233
195 2 -4.95453 11.7237 12.9837
180 2 1.05895 6.88463 9.67279
225 2 0.894908 9.73202 13.5082
186 2 -0.419962 7.60007 10.7777
209 2 1.49105 8.64824 9.15759
53 1 1.62668 7.61249 8.85682
196 2 -6.34368 11.4021 14.4533
220 2 0.554976 9.51765 15.9574
255 4 2.67689 7.26818 15.5078
70 1 1.60112 9.3436 12.6621
224 2 1.27206 8.33116 12.2892
35 4 0.879751 10.5093 11.1712
121 3 0.179165 11.8049 12.0481
260 2 2.3793 8.36436 14.1421
112 3 1.81734 7.77928 16.8316
207 2 -3.96843 12.5572 13.5348
221 2 -0.209098 11.0785 16.817
191 2 -0.0289579 6.74371 15.4585
26 4 5.55402 5.21978 6.21658
105 3 7.15971 5.3434 5.94831
71 1 8.8679 2.33498 8.22688
275 2 5.55132 4.13913 1.66941
228 2 7.90849 1.86287 7.91325
135 3 5.02541 6.487 7.19704
158 2 7.8143 1.1714 4.60292
286 2 11.2113 5.49778 4.7213
182 2 12.1638 4.00773 5.43826
21 4 8.61985 4.87444 5.73149
63 1 9.31739 6.31941 4.65989
62 1 11.3555 4.33001 7.86574
162 2 12.0011 2.80985 6.74728
74 1 9.76945 4.56364 1.0172
122 3 8.98896 3.52071 5.06675
234 2 8.65621 4.38452 1.24404
235 2 10.0355 4.52654 -0.0318332
36 4 9.23714 2.08109 4.44312
40 4 12.0239 1.49183 5.61368
43 4 10.3969 2.87061 1.65164
125 3 13.0207 1.84361 4.45327
126 3 10.5212 1.32904 4.99848
133 3 9.55531 2.3721 2.88916
134 3 10.6891 1.6892 0.613059
164 2 11.7435 3.92568 1.97132
236 2 10.2756 5.47344 1.58984
200 2 9.53037 4.84347 7.28239
204 2 9.79236 6.10319 3.63704
202 2 11.6783 4.65021 6.72751
281 2 10.4149 3.57407 7.93905
227 2 9.66308 2.10816 7.45741
276 2 6.56637 2.505 1.43059
178 2 11.593 5.38564 1.30522
249 2 5.15469 6.10277 1.82259
214 2 7.36597 1.2832 3.01138
205 2 10.0769 6.66773 5.55739
107 3 4.49133 5.35468 4.81481
19 4 5.99453 3.48422 16.6933
101 3 5.979 5.09738 16.773
242 2 6.05336 5.79144 12.0098
76 1 6.87113 6.05183 12.8181
130 3 7.41137 2.81216 16.2062
201 2 12.3714 4.01011 8.53487
264 1 14.1372 1.21739 14.9217
230 2 8.71578 4.6326 14.3595
265 2 13.3072 1.94691 14.4946
138 3 7.2573 6.46869 8.90877
59 1 11.0593 6.55514 15.0673
128 3 7.42341 1.25742 13.9583
123 3 13.6195 0.909299 8.56396
124 3 7.76024 2.64828 11.0196
9 4 11.152 5.91373 8.98569
241 2 7.63021 5.17459 13.0769
231 2 8.24578 3.60987 12.9292
131 3 13.0472 2.66733 10.569
37 4 10.7682 0.9025 16.3682
39 4 9.02808 2.1909 10.1969
41 4 8.34309 2.21293 14.9085
165 2 7.5269 5.13047 11.1833
229 2 10.117 3.4302 13.6456
295 2 11.4703 4.52416 12.259
42 4 11.7643 2.80923 11.5451
72 1 8.89359 3.69127 13.8122
73 1 12.093 3.29416 13.4567
129 3 9.74682 1.47848 15.3551
132 3 10.3995 2.50632 10.9038
233 2 11.5649 3.45274 14.4501
45 4 8.30344 6.24567 10.084
137 3 9.73705 5.54431 9.42295
294 2 12.3929 1.21409 15.7957
163 2 11.8925 1.6716 13.1536
192 2 11.3984 5.50601 15.3306
240 2 6.45961 6.4252 13.8305
193 2 10.2963 6.57566 14.2333
226 2 8.8999 0.716249 9.26821
161 2 8.61779 3.54339 8.4057
251 2 5.97141 7.75467 2.09398
13 4 7.96557 10.4674 3.80197
282 2 6.89985 12.9051 2.89099
187 2 7.93724 9.1819 1.83787
250 2 4.24335 7.67435 1.36485
127 3 4.72798 12.4408 6.32201
247 1 5.2499 7.19307 1.47244
262 1 3.78289 11.5996 2.25356
252 2 7.5048 8.54629 0.0608932
160 2 6.51714 10.8721 7.66363
283 2 3.46631 11.5965 1.02433
38 4 5.185 11.9266 7.78854
149 2 5.97839 8.66942 5.16256
263 2 4.94893 9.54703 3.43925
56 1 8.13683 8.90185 2.86807
139 3 2.62021 9.21859 1.82846
140 3 2.02814 10.1663 4.35842
219 2 2.33791 11.2154 7.06552
46 4 3.16885 10.0376 3.01317
166 2 3.23561 12.407 2.86943
167 2 4.93943 11.5008 2.39319
273 2 4.57708 9.74303 5.65374
270 1 5.45793 9.59714 4.92065
271 2 4.46152 8.00481 4.28369
272 2 6.4043 10.515 4.97751
75 1 6.44099 8.90636 7.90621
237 2 6.13308 9.17939 6.77352
287 2 7.27744 8.30367 3.40464
210 2 2.9453 7.89341 6.28568
159 2 2.37181 11.1938 -0.265332
68 1 1.22999 11.0525 6.86511
218 2 0.493291 11.8479 7.19692
203 2 8.46515 7.04444 4.56177
238 2 7.56377 8.64806 8.02473
87 3 7.83935 11.6376 2.67219
188 2 9.7622 8.63069 3.36617
279 2 4.10158 10.7615 16.4894
48 4 7.72649 7.80767 12.501
44 4 5.78249 7.13654 8.51602
153 2 5.20384 7.13464 12.7075
141 3 4.11135 11.1235 8.50593
293 2 2.80434 11.1212 15.1533
246 4 5.66132 6.69906 16.863
29 4 4.15304 7.05908 11.3506
254 2 8.10967 6.86449 16.4392
143 3 8.56433 7.66892 10.8957
257 3 4.50906 7.24292 15.9075
278 1 3.12872 11.3129 16.2562
223 2 2.69622 9.59252 12.8358
154 2 3.05022 8.39084 11.5677
168 2 3.21315 8.79366 9.14914
142 3 2.13173 10.9945 10.2558
47 4 3.52724 10.377 9.74493
49 4 5.51022 10.1084 12.1618
77 1 4.84734 10.5553 13.8856
136 3 4.88834 7.33331 9.98662
145 3 4.51885 10.2671 10.9147
146 3 6.55916 8.90783 12.2828
169 2 5.68104 11.1493 14.6372
243 2 3.8709 11.096 13.7257
244 2 4.6668 9.38515 14.2009
245 2 6.21514 11.56 12.9528
253 2 6.95872 8.09208 15.4137
248 1 7.29325 7.67804 16.4911
144 3 8.78157 8.12984 13.7114
239 2 6.06409 9.59677 8.72652
266 2 5.77429 12.4279 15.0967
222 2 0.682803 11.2242 15.1344
194 2 10.676 7.14829 15.973
291 2 8.31781 10.7922 12.6291
ITEM: TIMESTEP
300
ITEM: NUMBER OF ATOMS
295
ITEM: BOX BOUNDS xy xz yz pp pp pp
-7.9400194813171350e+00 1.5055693276645961e+01 -7.9285373884105619e+00
5.1908152900982429e-01 1.2949521746563423e+01 -1.0048881626058097e-01
-3.7713602853938610e-01 1.6875136028539433e+01 -1.4019672442675013e-01
ITEM: ATOMS id type x y z
81 3 -1.1133 2.77305 2.32589
214 2 7.28195 0.6656 2.87197
183 2 -2.37411 5.04211 3.53813
52 1 -2.3075 5.02566 0.89035
10 4 -1.1898 6.00622 5.33108
85 3 -0.450816 5.08261 6.36382
7 4 -0.653759 3.83269 1.23279
189 2 -2.54177 6.58377 2.20368
82 3 -0.546405 3.23623 -0.252293
177 2 -1.68763 5.99401 0.745834
66 1 6.24253 0.849086 3.39177
157 2 2.93239 6.50629 6.91448
2 4 -0.666315 2.01292 3.68289
79 3 0.62963 2.6955 4.36307
103 3 -0.16411 6.20801 4.05566
102 3 0.559582 4.88517 1.74394
8 4 0.456051 4.38516 7.46074
6 4 1.7383 2.48796 5.47695
51 1 3.53536 2.45087 4.67387
84 3 1.58633 3.55305 6.67967
106 3 2.43693 6.36086 3.3193
173 2 3.21346 3.1435 3.76676
175 2 4.23939 2.98895 5.48415
274 1 5.7795 3.13118 1.09838
277 2 4.86001 2.5715 1.36422
174 2 3.80039 1.39662 4.41201
27 4 3.56151 6.53777 4.43079
25 4 0.838945 6.27877 2.64992
104 3 4.98542 3.74064 6.96041
50 1 2.94382 1.48679 1.6297
171 2 2.39385 2.30569 1.07153
212 2 6.23319 1.62306 4.21078
80 3 1.61774 0.834799 6.29425
170 2 3.10906 1.75268 2.7588
96 3 3.36838 1.52585 8.00298
78 3 0.781504 0.744972 0.211379
172 2 3.92757 1.17689 1.10211
151 2 1.48607 6.46985 5.67961
54 1 -2.72523 5.0094 4.61812
213 2 5.3901 1.10677 2.71494
86 3 -2.51159 6.22391 9.96477
284 2 0.346914 0.833105 14.299
290 2 -1.27402 5.60455 16.4605
5 4 -0.769373 2.29521 9.41608
58 1 -0.807674 6.02494 15.46
232 2 -1.69248 3.39279 13.9141
185 2 -0.435149 4.44164 11.6203
100 3 5.55992 0.84337 11.7278
3 4 0.443256 1.78397 16.3799
148 2 0.756799 5.09777 10.1348
55 1 0.191825 5.51443 11.0239
83 3 -0.148374 3.40443 8.53306
23 4 3.32319 2.43119 14.9612
61 1 3.25689 4.05197 9.2495
98 3 2.0257 2.29957 15.8275
108 3 2.22406 3.14625 11.9858
197 2 3.40382 4.97402 8.60683
198 2 1.68811 4.02533 12.1435
199 2 2.22225 3.53718 9.10383
11 4 -1.56829 6.26812 11.2341
24 4 5.94612 2.33876 11.0456
28 4 3.68113 4.26009 11.1293
97 3 4.61652 3.10943 15.6659
99 3 5.45838 2.35021 9.4299
206 2 5.03971 0.807955 15.0782
110 3 3.22664 5.83414 11.5363
152 2 2.75771 2.83788 13.2894
261 2 1.21136 5.40376 16.1335
269 2 1.59746 1.792 10.219
267 1 0.546477 1.42831 10.5226
184 2 0.843781 6.05764 11.7155
258 2 2.0172 5.52395 14.2961
256 1 2.13778 5.58385 15.5129
259 2 3.08235 5.07664 15.9727
190 2 -0.651945 5.15372 14.7327
109 3 5.11119 3.69851 11.762
285 2 0.105324 1.94735 11.551
20 4 4.30201 2.75324 8.34658
64 1 3.98153 0.720226 14.6248