ITEM: TIMESTEP
0
ITEM: NUMBER OF ATOMS
295
ITEM: BOX BOUNDS xy xz yz pp pp pp
-7.9400194813171350e+00 1.5055693276645961e+01 -7.9285373884105619e+00
6.5927825343657442e-01 1.2981847742707462e+01 -1.0048881626058097e-01
-3.7713602853938610e-01 1.7047658749110223e+01 3.2325996144037861e-02
ITEM: ATOMS id type x y z
81 3 -1.00692 3.0455 2.37744
54 1 -2.52421 5.06617 4.80497
183 2 -2.1118 5.00079 3.71945
52 1 -2.38936 5.04235 0.674203
10 4 -1.16249 6.14526 5.6353
85 3 -0.683152 5.21711 6.91694
7 4 -0.648692 4.02144 1.15608
172 2 3.88417 1.00392 1.39143
82 3 -0.208535 3.31617 -0.28324
177 2 -1.73912 6.03627 0.645271
189 2 -2.72227 6.61761 2.01806
157 2 2.71297 6.37923 6.84849
78 3 0.551006 0.728948 0.277041
79 3 0.348243 2.68931 4.46426
103 3 -0.080896 6.2178 4.33955
102 3 0.389232 5.09784 1.78051
8 4 0.48232 4.50565 7.73705
6 4 1.46855 2.62655 5.59792
51 1 3.23065 2.57013 4.78761
84 3 1.55663 3.98803 6.64757
106 3 2.45709 6.24636 3.18022
173 2 3.11879 3.31055 3.95676
175 2 4.03278 2.93004 5.49651
274 1 5.60538 3.10136 1.31311
277 2 4.61432 2.58549 1.49953
174 2 3.49197 1.53774 4.41794
27 4 3.54175 6.47507 4.49317
25 4 0.862428 6.251 2.80602
104 3 5.14454 3.57141 7.17338
50 1 2.88499 1.52304 1.71545
171 2 2.5103 2.349 0.956533
212 2 6.28698 1.60491 4.00479
80 3 1.42407 1.15376 6.51035
170 2 2.93969 1.95161 2.83376
96 3 3.61211 1.35914 7.88637
66 1 6.35671 0.703794 3.36762
2 4 -0.797654 2.10806 3.60093
107 3 4.55186 5.23112 4.88352
86 3 -2.47163 6.22085 10.1287
20 4 4.60763 2.66375 8.38358
290 2 -1.55136 5.90801 16.4081
5 4 -0.641984 2.06875 9.80068
58 1 -0.997368 6.38308 15.4772
232 2 -1.77916 3.60936 13.6501
185 2 -0.302347 5.05672 12.4656
100 3 5.79708 0.877539 11.9612
3 4 0.325062 2.06259 16.4693
148 2 -0.148214 4.85552 10.4321
55 1 0.159651 5.6293 11.2167
83 3 0.0589002 3.35719 8.81195
23 4 3.31022 2.42679 15.3014
61 1 3.3239 3.79183 9.29808
98 3 1.835 2.24995 15.8556
108 3 2.51084 2.89469 12.4815
197 2 3.36641 4.66357 8.52475
198 2 1.79086 3.52197 12.4546
199 2 2.29918 3.29103 9.32341
11 4 -1.55396 6.47525 11.3621
24 4 6.09016 2.41163 11.0664
28 4 3.61205 4.09459 11.1895
97 3 4.50368 2.97725 16.2657
99 3 5.63989 2.18913 9.49804
179 2 1.3094 5.66401 8.5949
110 3 3.13028 5.77029 11.3799
152 2 3.23188 3.24973 13.6558
261 2 1.65086 5.34777 15.7288
269 2 1.67357 1.92468 10.5683
267 1 0.727969 1.38993 10.8942
184 2 1.30722 5.65201 11.2775
258 2 2.07878 5.94782 13.9105
256 1 2.51111 5.77438 14.975
259 2 3.44468 5.16126 14.9607
190 2 -0.540439 5.61144 14.8269
109 3 5.10219 3.7725 11.5975
285 2 0.314003 1.71611 11.9123
284 2 0.220626 1.45928 14.1436
64 1 3.76842 0.6977 14.8574
214 2 -0.552963 12.8524 2.80884
89 3 -3.86229 7.18769 7.86016
289 2 -1.63222 7.71777 3.17739
288 2 -3.42271 7.19749 3.74732
1 4 -6.18633 12.4433 1.20978
4 4 -5.54247 12.788 7.7444
12 4 -3.48114 9.0866 2.41541
15 4 -2.77331 8.2866 7.16783
16 4 -4.3948 10.6727 6.01121
88 3 -3.80618 9.01826 0.913735
92 3 -3.72876 9.30754 6.408
93 3 -5.31359 11.2862 7.37349
114 3 -2.99235 11.6831 5.41106
280 3 -5.23922 11.3165 0.558279
31 4 -1.94747 11.2872 4.30981
90 3 -1.76839 7.62237 6.0567
113 3 -2.56605 10.2028 3.13808
57 1 -2.72905 7.45124 2.83683
116 3 -0.525001 10.9143 4.84203
91 3 -5.52787 10.5507 4.86439
14 4 -4.06529 10.3432 -0.256826
151 2 1.6693 7.50013 5.74356
87 3 -6.96109 11.863 2.89362
65 1 2.712 7.17848 6.04085
155 2 -0.0315443 9.4454 0.232729
181 2 1.12143 7.50915 7.94286
30 4 1.24137 8.49466 0.943162
33 4 1.02375 10.6189 5.35928
111 3 0.453347 7.68014 1.99987
217 2 1.25774 9.80522 7.18734
112 3 1.9881 7.79037 -0.283753
115 3 -1.83873 9.102 8.26566
188 2 -5.09735 8.73202 3.38457
213 2 -2.4655 12.8622 2.64841
94 3 -1.94823 6.89192 12.8558
208 2 -5.00865 12.375 15.2952
22 4 -1.13243 12.5195 13.1497
292 2 -3.35969 9.91352 10.6444
67 1 -2.97462 11.0031 10.0999
215 2 -2.66356 11.8582 10.8187
216 2 -1.52123 11.7625 9.02508
150 2 -3.84702 9.86769 13.3686
32 4 -1.43211 10.05 9.48509
156 2 -3.74648 11.4601 9.35602
17 4 -2.2848 7.35709 14.4651
95 3 -5.11955 10.0202 15.7323
119 3 -2.72263 10.958 16.825
117 3 -2.05997 8.90927 14.9211
118 3 -2.01082 11.3876 14.1091
60 1 -5.43756 10.9619 12.9564
18 4 -5.35016 9.55373 14.2156
34 4 -1.76898 10.4054 15.2967
147 2 -6.49132 12.8487 9.21944
211 2 2.71529 7.399 8.9313
120 3 -0.264098 9.81309 10.5204
268 2 -7.11893 12.5224 10.8066
69 1 0.0395544 10.5207 15.9872
195 2 -4.66614 11.8577 12.8565
260 2 2.27608 8.47004 14.3742
225 2 0.984478 9.49567 13.6824
186 2 -0.19816 7.47467 10.7573
209 2 1.42245 8.68623 9.38634
53 1 1.59126 7.60665 9.00772
196 2 -6.47161 11.3589 13.4781
220 2 0.626699 9.52758 16.1155
255 4 2.72506 7.40683 15.729
70 1 1.55136 9.26613 12.7384
224 2 1.22406 8.30596 12.1518
35 4 0.763902 10.6415 11.4743
121 3 0.120541 11.7032 12.406
291 2 -5.63447 10.4667 11.8828
222 2 0.442154 11.0614 15.0272
207 2 -4.02966 12.8431 13.6751
191 2 -0.283667 7.18305 15.7716
206 2 -3.12683 12.9154 15.4391
221 2 -0.0749355 11.1903 16.8618
180 2 1.04349 6.83872 9.82083
26 4 5.50915 5.09815 6.38373
105 3 7.13308 5.27256 6.05891
71 1 9.00233 2.397 8.28138
275 2 5.69321 4.11394 1.86188
228 2 8.09699 2.15948 7.69921
135 3 5.08823 6.32017 7.4045
158 2 7.94735 1.1956 4.48028
286 2 11.3245 5.49227 4.849
182 2 12.5249 4.04753 5.31023
21 4 8.63115 4.95931 5.78937
63 1 9.41207 6.32406 4.74274
62 1 11.4253 4.43336 7.83937
162 2 11.9297 2.84422 6.8135
74 1 9.37683 4.23906 0.845042
122 3 8.89465 3.5534 5.01503
234 2 8.89443 4.85713 1.6942
235 2 8.58467 3.73267 0.185976
36 4 9.32087 2.18996 4.35011
40 4 11.9072 1.50165 5.68354
43 4 10.5491 2.98747 1.67443
125 3 12.8501 1.8946 4.45601
126 3 10.3568 1.29047 5.31786
133 3 9.64175 2.36298 2.75515
134 3 11.0441 2.12205 0.452675
164 2 11.872 4.01982 2.20095
236 2 10.1227 4.88238 0.262542
200 2 9.65674 5.09225 7.25332
204 2 9.88799 5.733 3.87209
202 2 11.7293 4.6655 6.7328
281 2 10.5293 3.64739 7.91678
227 2 9.9317 2.22963 7.61105
276 2 6.53492 2.40142 1.38849
178 2 11.5904 5.36595 1.09808
249 2 5.32499 6.51749 1.74291
176 2 12.4291 4.48127 -0.329866
19 4 5.8038 3.62679 16.948
161 2 8.91486 3.84858 8.68524
242 2 6.14196 5.82799 12.0412
76 1 6.79228 6.19041 12.9378
130 3 7.2829 3.02063 16.2191
201 2 12.3701 4.08604 8.54645
101 3 5.82299 5.2178 17.0319
230 2 8.54713 4.74153 14.5834
265 2 13.4789 2.24994 14.3887
138 3 7.24678 6.29993 9.23647
59 1 10.8877 6.80991 15.0125
128 3 7.43623 1.38319 14.077
123 3 13.7886 0.823921 8.77277
124 3 7.71068 2.60957 11.1151
9 4 11.246 6.01469 9.03636
241 2 7.51356 5.31146 13.2884
231 2 8.34939 3.88913 12.8369
131 3 13.1643 2.54119 10.8632
37 4 10.9307 1.38804 16.4265
39 4 9.09225 2.40804 10.2545
41 4 8.23125 2.4744 14.9547
165 2 7.71883 5.17469 11.4785
229 2 10.0545 3.77388 13.6908
295 2 11.4862 4.60095 12.3709
42 4 11.841 2.77885 11.7063
72 1 8.86725 3.87591 13.8604
73 1 12.0564 3.43928 13.5492
129 3 9.64758 1.90428 15.5644
132 3 10.4694 2.64181 10.9014
233 2 11.4438 3.53677 14.5596
45 4 8.35141 6.21073 10.2828
137 3 9.85702 5.63946 9.79292
294 2 12.5122 1.55462 15.7041
163 2 11.7195 1.72149 13.326
192 2 11.2878 5.93271 15.6652
240 2 6.15886 6.57436 13.8686
193 2 10.2755 6.4626 14.0208
226 2 9.02717 0.853685 9.32703
264 1 14.3245 1.53719 14.9102
251 2 6.30814 8.22347 1.70785
13 4 8.19569 10.5851 3.91376
282 2 6.76338 12.9198 2.96239
187 2 8.22337 9.57925 1.85274
250 2 4.46672 8.21608 1.28651
127 3 4.65043 12.6385 6.47777
247 1 5.4379 7.61649 1.25627
262 1 3.57455 11.9706 2.34618
252 2 8.23418 7.56003 -0.189268
160 2 6.26601 10.713 7.58106
283 2 3.3975 11.9873 1.14034
38 4 5.10841 11.9996 7.95095
149 2 6.01697 8.52365 5.16338
263 2 4.76962 9.59448 3.48001
56 1 8.32622 9.12279 2.92268
139 3 2.40887 9.52681 1.67318
140 3 2.12247 10.3602 4.19858
219 2 2.8319 11.5429 6.6505
46 4 3.09333 10.283 2.89834
166 2 3.02242 12.8138 2.85876
167 2 4.67488 11.8508 2.70313
273 2 4.6817 9.67156 5.72031
270 1 5.45485 9.48124 4.98659
271 2 4.56816 7.87372 4.36395
272 2 6.37834 10.5601 5.03164
75 1 6.37305 8.82551 8.07189
237 2 6.0663 9.0546 6.91072
287 2 7.35659 8.5016 3.3643
210 2 3.39443 8.12867 6.19679
159 2 2.20311 11.5376 -0.145722
68 1 1.62677 11.3986 6.8105
218 2 1.01042 12.2738 7.17219
203 2 8.47938 6.90075 4.42163
205 2 10.1345 6.96462 5.42926
194 2 10.3409 7.58218 15.5983
48 4 7.61148 7.92636 12.6539
44 4 5.83616 7.0023 8.66702
153 2 5.031 7.04501 12.5673
141 3 3.86113 11.3462 8.55685
293 2 2.58059 11.6442 15.4124
246 4 5.73167 6.90228 16.9743
29 4 4.01449 7.03718 11.22
254 2 7.78159 6.99505 15.5227
143 3 8.39894 7.54346 11.1328
257 3 4.60326 7.53114 15.991
278 1 2.93134 11.8117 16.5875
223 2 2.70188 9.5372 12.7753
154 2 2.91484 8.23316 11.652
168 2 3.03434 8.95402 9.23075
142 3 1.96304 11.1834 10.491
47 4 3.32647 10.5852 9.81411
49 4 5.54421 10.3646 12.2012
77 1 4.71844 11.1244 13.7402
136 3 4.69441 7.17824 9.80326
145 3 4.42064 10.3918 11.0061
146 3 6.53514 9.20435 12.4672
169 2 5.21049 11.6849 14.6274
243 2 3.80603 11.685 13.3504
244 2 4.367 10.0056 14.1108
245 2 6.07054 12.0141 12.6335
253 2 7.26217 8.71917 16.008
248 1 7.39229 7.64417 16.3529
144 3 8.85713 8.21399 13.7454
239 2 5.65732 9.36175 8.82296
266 2 5.94116 12.7673 15.0915
279 2 4.02256 11.5476 16.8503
238 2 7.48072 8.89087 8.36535
ITEM: TIMESTEP
100
ITEM: NUMBER OF ATOMS
295
ITEM: BOX BOUNDS xy xz yz pp pp pp
-7.9400194813171350e+00 1.5055693276645961e+01 -7.9285373884105619e+00
6.5927825343657442e-01 1.2981847742707462e+01 -1.0048881626058097e-01
-3.7713602853938610e-01 1.7047658749110223e+01 3.2325996144037861e-02
ITEM: ATOMS id type x y z
81 3 -1.06485 3.10693 2.31141
54 1 -2.51336 5.02279 4.84362
183 2 -2.12712 4.95756 3.79388
52 1 -2.30168 5.28231 0.813486
10 4 -1.06308 6.06625 5.59613
85 3 -0.652447 5.27228 6.94818
7 4 -0.563449 4.08414 1.15
172 2 3.90298 1.15516 1.37584
82 3 -0.309471 3.296 -0.308263
177 2 -1.55914 6.1793 0.844271
189 2 -2.53239 6.70775 2.26507
157 2 2.45046 6.10893 6.64684
107 3 4.52324 5.25678 4.93127
79 3 0.441575 2.63802 4.4558
103 3 -0.0401742 6.31138 4.21423
102 3 0.632746 5.06811 1.65186
8 4 0.417982 4.48863 7.76016
6 4 1.53369 2.67486 5.58105
51 1 3.32842 2.42639 4.85098
84 3 1.4594 3.8704 6.63327
106 3 2.37846 6.29736 3.35788
173 2 3.16861 3.22772 4.04613
175 2 4.02022 2.83759 5.74056
274 1 5.69488 2.98795 1.36743
277 2 4.6174 2.5147 1.62017
174 2 3.61327 1.38822 4.47105
27 4 3.53307 6.4608 4.48405
25 4 0.868227 6.36145 2.82794
104 3 5.13629 3.76069 7.02428
50 1 2.83748 1.55698 1.80917
171 2 2.3743 2.39366 1.11428
212 2 5.92052 1.40039 4.01425
80 3 1.34351 1.2642 6.63261
170 2 2.89619 1.86187 2.96421
96 3 3.6252 1.44204 7.86417
176 2 -2.33632 4.74072 -0.187575
2 4 -0.762159 2.17976 3.51592
86 3 -2.62693 6.17165 10.3139
284 2 0.12653 1.16309 14.4048
290 2 -1.36318 5.9782 16.5898
5 4 -0.631466 2.11016 9.65535
58 1 -0.836149 6.31602 15.5262
232 2 -1.68456 3.66697 13.5513
185 2 -0.67677 4.73951 11.9009
100 3 5.57513 1.00252 11.9935
3 4 0.297007 1.99466 16.6111
148 2 0.165036 5.33102 10.1126
55 1 0.0738306 5.69928 11.1954
83 3 -0.166153 3.41056 8.80904
23 4 3.29157 2.19981 15.3336
61 1 3.37277 3.7687 9.35447
98 3 1.87722 2.27078 16.0394
108 3 2.44725 2.91536 12.3064
197 2 3.46842 4.67982 8.62334
198 2 1.89766 3.72123 12.5088
199 2 2.33301 3.25862 9.29883
11 4 -1.6455 6.61496 11.3955
24 4 6.10301 2.35995 11.1004
28 4 3.67658 4.09438 11.1931
97 3 4.47532 2.95764 16.1558
99 3 5.74027 2.14873 9.33655
179 2 1.20821 5.75765 8.58252
110 3 3.36119 5.69592 11.3789
152 2 3.13903 2.67195 13.6268
261 2 1.62288 5.3014 15.8936
269 2 1.84284 1.75585 10.6076
267 1 0.807633 1.30627 10.6537
184 2 1.05218 5.85483 11.6968
258 2 2.05014 5.91852 14.1327
256 1 2.4241 5.68729 15.1927
259 2 3.35944 5.01308 15.224
190 2 -0.563768 5.53039 14.7768
109 3 5.17373 3.63886 11.6078
285 2 0.335558 1.60292 11.7263
20 4 4.60401 2.63541 8.37693
66 1 -1.49588 12.9367 3.24301
89 3 -3.67421 7.14604 7.97931
289 2 -1.54108 7.93725 3.32087
288 2 -3.13508 7.33662 4.05364
1 4 -6.10609 12.4265 1.21255
4 4 -5.51852 12.8256 7.67621
12 4 -3.44365 9.0761 2.47315
15 4 -2.76458 8.14726 7.15711
16 4 -4.42369 10.6865 5.94806
88 3 -3.5838 9.10575 0.793289
92 3 -3.80044 9.21618 6.31474
93 3 -5.1072 11.3907 7.39246
114 3 -3.21499 11.8216 5.36647
280 3 -5.16963 11.3256 0.502301
31 4 -2.10036 11.4197 4.31869
90 3 -1.86642 7.34756 6.04593
113 3 -2.79735 10.3947 3.16681
57 1 -2.54108 7.61711 3.11147
116 3 -0.483338 10.8381 5.00805
91 3 -5.63701 10.6251 4.929
14 4 -4.14402 10.2616 -0.267375
151 2 1.45106 7.43694 5.71576
87 3 -7.08684 11.7941 2.81625
65 1 2.47267 7.00751 5.97901
155 2 0.520476 9.76975 0.189318
181 2 1.20037 7.4397 7.92473
30 4 1.43054 8.4868 0.899204
33 4 0.989445 10.4863 5.3464
111 3 0.446089 7.83651 1.9428
217 2 1.24613 9.79738 7.27545
112 3 2.07438 7.71929 -0.314126
115 3 -1.84038 9.0731 8.19864
213 2 -2.18782 12.6894 2.36089
78 3 -7.36083 12.92 0.133955
188 2 -5.19977 8.84609 3.12607
94 3 -2.05859 6.95575 12.8931
208 2 -4.85133 12.1315 15.4397
22 4 -1.03854 12.5373 13.0819
292 2 -3.29736 10.112 10.6745
67 1 -2.82862 11.0998 10.0963
215 2 -2.7779 12.0256 10.8496
216 2 -1.47601 11.8069 8.96233
150 2 -4.18641 9.9121 13.0334
32 4 -1.39938 10.0456 9.40325
156 2 -3.44202 11.3783 9.19718
17 4 -2.2268 7.25768 14.5083
95 3 -4.95522 9.74073 15.8533
119 3 -2.66383 11.069 16.6024
117 3 -2.05321 8.8217 14.9228
118 3 -1.81093 11.4198 13.9607
60 1 -5.74026 11.0753 13.0857
18 4 -5.40966 9.59546 14.2777
34 4 -1.77189 10.4716 15.362
147 2 -6.22826 12.5733 9.21505
211 2 2.75347 7.52921 8.96449
120 3 -0.334979 9.86941 10.4978
268 2 -7.12204 12.4805 10.5527
69 1 0.0628893 10.6507 15.8606
195 2 -4.81472 11.7633 12.9435
64 1 -4.0768 12.7586 14.8644
225 2 1.35842 9.90263 13.7569
186 2 -0.278439 7.54534 10.7619
209 2 1.37342 8.77146 9.17204
53 1 1.61618 7.69014 8.954
196 2 -6.48818 11.5227 13.9586
220 2 0.484853 9.62228 15.8718
255 4 2.84382 7.42698 15.6926
70 1 1.77239 9.4319 12.8135
224 2 1.23222 8.44563 12.5911
35 4 0.861754 10.6088 11.4465
121 3 0.117206 11.8573 12.2184
291 2 -6.23997 10.8387 12.1429
222 2 0.518541 11.3153 15.0439
207 2 -4.02063 12.5995 13.7221
191 2 -0.0538558 7.23194 15.635
206 2 -2.95031 12.8903 15.3651
221 2 0.0779865 11.1872 16.8351
180 2 0.972486 6.92366 9.89036
26 4 5.47959 5.11927 6.36309
105 3 7.14025 5.22125 5.93047
71 1 8.85909 2.41197 8.2149
275 2 5.91883 4.01371 1.86537
228 2 7.84043 2.03988 7.85688
135 3 5.15924 6.49818 7.32802
158 2 7.78787 1.17635 4.6688
286 2 11.3083 5.49258 4.84203
182 2 12.5192 3.99878 5.39552
21 4 8.67929 5.00038 5.71365
63 1 9.48543 6.45055 4.75094
62 1 11.4099 4.42308 7.82993
162 2 12.2115 2.86737 6.89139
74 1 9.4375 4.31689 0.826569
122 3 8.96124 3.58259 5.1265
234 2 8.48795 4.51123 1.45708
235 2 9.19812 3.88308 -0.203436
36 4 9.22024 2.17388 4.52138
40 4 12.0099 1.58998 5.67474
43 4 10.3782 2.95823 1.63328
125 3 12.9669 1.90509 4.41358
126 3 10.4447 1.56083 5.30169
133 3 9.62207 2.39296 2.9351
134 3 10.7993 1.82508 0.542067
164 2 11.7508 4.06048 1.99651
236 2 10.1095 5.25088 0.74134
200 2 9.54629 4.93393 7.16423
204 2 9.88799 5.98228 3.82265
202 2 11.7024 4.68329 6.69291
281 2 10.4055 3.67044 7.91303
227 2 9.69208 2.15346 7.55641
276 2 6.59165 2.26664 1.37955
178 2 11.6217 5.65373 1.01127
249 2 4.68811 6.44487 1.6093
214 2 7.43764 0.889291 2.89095
19 4 5.79436 3.50752 16.9608
101 3 5.84156 5.35363 16.9043
242 2 6.08978 5.65731 12.3993
76 1 6.83263 6.17224 13.0526
130 3 7.10512 2.88372 16.2566
201 2 12.307 4.00742 8.50377
264 1 14.1759 1.45951 15.1003
230 2 8.63168 4.76513 14.8233
265 2 13.381 2.28036 14.5
138 3 7.19922 6.47433 9.07114
59 1 10.9687 6.58965 15.0077
128 3 7.50481 1.37507 14.0033
123 3 13.7084 0.933894 8.72837
124 3 7.68662 2.85254 11.0167
9 4 11.1619 5.92498 9.06921
241 2 7.69845 5.37017 13.4821
231 2 8.1995 3.655 13.2176
131 3 13.2665 2.59172 10.832
37 4 10.9247 1.24711 16.4387
39 4 9.00434 2.4536 10.2112
41 4 8.17678 2.33654 15.0876
165 2 7.67423 5.26751 11.4755
229 2 10.0404 3.77038 13.8315
295 2 11.5897 4.52732 12.2688
42 4 11.8202 2.74558 11.6494
72 1 8.91964 3.89734 14.1452
73 1 12.1192 3.4385 13.4801
129 3 9.68625 1.71594 15.6084
132 3 10.4046 2.53115 10.9116
233 2 11.4718 3.81113 14.2976
45 4 8.22814 6.25266 10.1859
137 3 9.66621 5.64687 9.71685
294 2 12.3886 1.88638 15.7732
163 2 11.7534 1.76463 13.2835
192 2 11.328 5.61005 15.513
240 2 6.3429 6.67022 13.9992
193 2 10.4504 6.44 14.0736
226 2 8.94084 0.869719 9.43173
161 2 8.79092 3.67382 8.45584
251 2 6.21352 7.41504 2.12715
13 4 8.00924 10.6137 3.93268
238 2 7.45895 9.3401 8.08544
187 2 7.64586 9.50947 1.922
250 2 4.62664 8.34206 1.54838
127 3 4.56633 12.5604 6.36678
247 1 5.32817 7.39465 1.44739
262 1 3.68395 11.7791 2.32253
252 2 7.54474 8.37699 -0.042169
160 2 6.39986 10.9893 7.63487
283 2 3.28928 11.7775 1.06487
38 4 5.07048 12.0962 7.88806
149 2 5.692 8.4099 5.23987
263 2 4.89768 9.44898 3.39503
56 1 8.12133 9.08479 2.99207
139 3 2.4481 9.33527 1.87314
140 3 2.22 10.4065 4.30052
219 2 2.55538 11.8276 6.57005
46 4 3.10521 10.2074 2.97678
166 2 3.12358 12.514 3.03683
167 2 4.80972 11.7543 2.48109
273 2 4.50148 9.76386 5.60793
270 1 5.31152 9.43244 4.92253
271 2 4.59568 7.81424 4.04546
272 2 6.4036 10.3708 4.95398
75 1 6.35617 9.03616 8.03543
237 2 5.87148 9.21187 6.89237
287 2 7.38857 8.43005 3.63524
210 2 3.34627 7.80692 6.35074
159 2 2.24892 11.1868 -0.0373266
68 1 1.4532 11.2731 6.81393
218 2 0.556928 12.0514 6.96861
203 2 8.63678 7.17714 4.6229
282 2 6.69598 12.9151 2.82875
205 2 10.3522 6.85561 5.4247
194 2 10.5372 7.32812 15.7592
48 4 7.72969 7.89803 12.5746
44 4 5.82404 7.23445 8.55951
153 2 5.1531 7.13059 12.6853
141 3 3.95163 11.3053 8.66011
293 2 2.57114 11.3808 15.4495
246 4 5.70524 6.92087 16.9728
29 4 4.05528 7.03726 11.3321
254 2 8.0782 6.97929 16.2372
143 3 8.58911 7.60887 11.1399
257 3 4.42806 7.45643 15.973
278 1 2.8397 11.6689 16.5263
223 2 2.9346 9.41998 12.8564
260 2 2.43796 8.65316 14.5808
168 2 3.05134 9.00668 9.27962
142 3 2.08956 11.172 10.5209
47 4 3.43355 10.5606 9.87536
49 4 5.56414 10.3461 12.1929
77 1 4.73652 11.129 13.7417
136 3 4.71746 7.33275 9.96342
145 3 4.58308 10.4168 11.0596
146 3 6.56254 9.13625 12.3573
169 2 5.30126 11.7886 14.5103
243 2 3.8188 11.6591 13.3501
244 2 4.43434 10.0407 14.207
245 2 6.20163 11.8916 12.8217
253 2 7.06618 8.45826 15.5174
248 1 7.28497 7.82356 16.4258
144 3 8.7176 8.3474 13.841
239 2 5.73215 9.57567 8.81878
266 2 5.70237 12.7446 15.3782
279 2 4.01459 11.5138 16.7915
154 2 2.89123 8.23209 11.6454
ITEM: TIMESTEP
200
ITEM: NUMBER OF ATOMS
295
ITEM: BOX BOUNDS xy xz yz pp pp pp
-7.9400194813171350e+00 1.5055693276645961e+01 -7.9285373884105619e+00
6.5927825343657442e-01 1.2981847742707462e+01 -1.0048881626058097e-01
-3.7713602853938610e-01 1.7047658749110223e+01 3.2325996144037861e-02
ITEM: ATOMS id type x y z
81 3 -1.26629 3.13741 2.42483
54 1 -2.73727 5.04162 4.90868
183 2 -2.31833 4.79122 3.85261
52 1 -2.17738 5.26202 0.848907
10 4 -1.25194 6.11296 5.47566
85 3 -0.637322 5.18625 6.67648
7 4 -0.602477 4.0524 1.306
172 2 4.03313 0.720259 1.82984
82 3 -0.217378 3.32414 -0.0799197
177 2 -1.57667 6.21336 0.667957
178 2 -3.00521 5.51519 1.62987
157 2 2.67906 6.06269 6.66254
66 1 6.36136 0.805029 3.29914
79 3 0.601585 2.68185 4.41594
103 3 -0.210977 6.27164 4.06947
102 3 0.609467 4.97634 1.84986
8 4 0.518493 4.51738 7.58759
6 4 1.53953 2.50804 5.62669
51 1 3.35707 2.72939 4.77706
84 3 1.66342 3.7778 6.71913
106 3 2.56395 6.31715 3.25975
173 2 3.14625 3.55527 4.02708
175 2 4.02163 3.07302 5.67001
274 1 5.67244 3.03546 1.13175
277 2 4.7531 2.37205 1.4203
174 2 3.69187 1.66922 4.32264
27 4 3.56083 6.60342 4.5376
25 4 0.814259 6.2735 2.82744
104 3 5.1924 3.74185 7.08266
50 1 3.02355 1.27417 1.9542
171 2 2.86561 2.13624 1.10204
212 2 5.73514 1.59392 3.92737
80 3 1.4567 0.947842 6.25667
170 2 3.01238 1.8411 3.02187
96 3 3.42036 1.50717 8.07633
78 3 0.600805 0.804141 0.359396
2 4 -0.695465 2.18756 3.61451
189 2 -2.34748 6.77797 2.15494
86 3 -2.80805 6.08472 10.4391
284 2 0.0485977 1.35533 14.4112
290 2 -1.3592 5.82964 16.5376
5 4 -0.824238 2.27777 9.54933
58 1 -0.89545 6.15425 15.493
232 2 -1.77779 3.55191 13.8041
185 2 -0.535415 4.79594 11.9884
100 3 5.79883 0.907889 11.9012
3 4 0.312907 1.94904 16.6341
148 2 0.437985 5.33454 10.2233
55 1 0.107422 5.85922 11.1214
83 3 -0.0279861 3.53847 8.71725
23 4 3.16116 2.45325 15.2524
61 1 3.49183 3.96346 9.37295
98 3 1.73033 2.21242 15.8878
108 3 2.3373 3.07525 12.2378
197 2 3.65147 4.947 8.79201
198 2 1.73638 3.90292 12.3748
199 2 2.40379 3.55293 9.28915
11 4 -1.67397 6.5355 11.4935
24 4 6.13983 2.45433 10.9716
28 4 3.66175 4.24046 11.2666
97 3 4.42065 3.08763 15.9373
99 3 5.7594 2.13272 9.4754
179 2 1.37491 5.77866 8.35988
110 3 3.28235 5.82292 11.6011
152 2 2.908 3.08663 13.6434
261 2 1.60965 5.26262 16.3388
269 2 1.51659 1.8424 10.3996
267 1 0.527679 1.28792 10.4822
184 2 0.996392 6.25783 11.6774
258 2 1.68861 5.76909 14.488
256 1 2.26214 5.67476 15.5201
259 2 3.30249 5.14692 15.4026
190 2 -0.696543 5.31501 14.7483
109 3 5.17298 3.66401 11.6336
285 2 -0.0035163 1.45872 11.5292
20 4 4.60016 2.7921 8.41732
64 1 3.83448 0.770144 14.7705
206 2 4.90608 0.919396 15.2598
115 3 -1.90114 9.00286 8.25832
89 3 -3.69901 7.20838 7.97361
289 2 -1.45965 8.19092 3.04676
288 2 -2.99341 7.40229 3.91101
1 4 -6.10739 12.3967 1.21151
4 4 -5.63164 12.6932 7.63503
12 4 -3.56295 9.14832 2.51669
15 4 -2.82489 8.30349 7.14431
16 4 -4.32434 10.6407 5.94758
88 3 -3.68402 9.06805 0.860654
92 3 -3.84925 9.19972 6.19917
93 3 -4.92558 11.2338 7.44118
114 3 -3.15305 11.6637 5.34018
280 3 -5.07748 11.4588 0.524709
31 4 -1.99732 11.4483 4.23266
90 3 -1.84302 7.49916 5.99614
113 3 -2.70782 10.3992 3.20904
57 1 -2.49153 7.70934 2.89329
116 3 -0.563469 10.9931 4.90446
91 3 -5.73444 10.5403 4.80965
14 4 -4.05647 10.2495 -0.186698
151 2 1.30414 7.02893 5.63604
213 2 -2.08369 12.7483 2.28862
65 1 2.37666 6.99063 5.98646
155 2 0.236098 9.81862 0.436873
181 2 1.17923 7.52264 7.92797
30 4 1.38676 8.61239 0.944282
33 4 0.807608 10.4725 5.37157
111 3 0.53423 7.51687 1.74895
217 2 0.802146 9.58729 7.15984
210 2 2.74878 8.0376 6.29489
94 3 -1.93422 6.86602 12.99
208 2 -4.7144 12.4112 15.4328
22 4 -1.06587 12.5412 13.0414
292 2 -3.37142 10.2016 10.5674
67 1 -2.93261 11.1861 9.87473
215 2 -2.55383 12.0126 10.6115
216 2 -1.60246 11.6855 8.62603
150 2 -4.25066 10.2183 13.1635
32 4 -1.52531 10.0254 9.34582
156 2 -3.62844 11.3828 8.97794
17 4 -2.13115 7.3041 14.5448
95 3 -4.87223 9.59036 15.9571
119 3 -2.77732 10.9862 16.5326
117 3 -1.86524 8.84353 14.8801
118 3 -1.88659 11.4154 13.8669
60 1 -5.8602 11.1814 13.6118
18 4 -5.33776 9.50671 14.3496
34 4 -1.70631 10.4322 15.2508
147 2 -6.61786 12.5304 9.04926
211 2 2.73762 7.49525 8.87674
120 3 -0.21765 9.79215 10.4176
268 2 -7.29961 12.4483 10.2722
69 1 -0.00441173 10.7264 16.0492
195 2 -5.01868 11.8945 13.1544
260 2 2.35003 8.50713 14.3156
225 2 0.947328 9.89198 13.556
186 2 -0.447832 7.69106 10.8598
209 2 1.42326 8.72475 9.23131
53 1 1.61116 7.70468 8.92791
196 2 -6.29914 11.5257 14.6391
220 2 0.535929 9.73261 16.2369
255 4 2.67313 7.45208 15.6941
70 1 1.60683 9.41229 12.7755
224 2 1.33266 8.41437 12.3893
35 4 0.851969 10.6145 11.3056
121 3 0.151208 11.8449 12.1921
180 2 1.01128 6.97769 9.73378
221 2 -0.395582 11.2531 17.0123
207 2 -4.03127 12.762 13.6854
191 2 -0.0137616 6.88063 15.5931
112 3 1.83185 8.02311 17.0377
26 4 5.55113 5.24412 6.32622
105 3 7.14291 5.36655 6.06425
176 2 12.3763 4.75743 -0.0609247
275 2 5.60812 4.10742 1.61454
228 2 7.91508 1.93008 8.02627
135 3 5.05415 6.53681 7.25701
158 2 7.82021 1.2277 4.63107
286 2 11.2049 5.56264 4.83051
182 2 12.1748 4.06714 5.53527
21 4 8.61336 4.9265 5.81224
63 1 9.31677 6.38134 4.77207
62 1 11.3619 4.39686 7.97825
162 2 11.9741 2.88267 6.8493
74 1 9.48955 4.43163 0.915306
122 3 8.98793 3.60712 5.13899
234 2 8.38722 4.34727 1.17136
235 2 9.66176 4.34509 -0.179794
36 4 9.25863 2.15681 4.51682
40 4 11.9991 1.56945 5.70149
43 4 10.3555 2.91579 1.61569
125 3 13.0251 1.90298 4.52369
126 3 10.4925 1.39103 5.09605
133 3 9.62827 2.4574 2.96421
134 3 10.6857 1.65895 0.71336
164 2 11.8007 3.89938 1.85906
236 2 9.99048 5.35587 1.38097
200 2 9.57441 4.94505 7.32247
204 2 9.71106 6.16251 3.70866
202 2 11.6554 4.6997 6.82914
281 2 10.4189 3.66423 8.06307
227 2 9.66636 2.23865 7.54677
276 2 6.65774 2.49231 1.26868
214 2 7.42147 1.21747 3.05125
249 2 4.63048 6.25813 1.70772
107 3 4.50151 5.4021 4.91301
282 2 14.7915 0.696212 2.99138
205 2 10.0272 6.81085 5.52833
19 4 5.95428 3.66284 16.7981
101 3 5.96404 5.26657 16.8969
242 2 6.05056 5.84513 12.2262
76 1 6.89541 6.18916 12.9597
130 3 7.39163 2.93429 16.2608
201 2 12.3726 4.13999 8.65979
264 1 14.1284 1.43429 15.1499
230 2 8.531 4.78753 14.4949
265 2 13.3319 2.17835 14.641
138 3 7.24219 6.6438 9.01918
59 1 11.0695 6.62833 15.1658
128 3 7.44883 1.35704 14.0627
123 3 13.6371 1.00595 8.64308
124 3 7.77009 2.72009 11.0914
9 4 11.1445 6.01908 9.0596
241 2 7.68296 5.32008 13.2065
231 2 8.33118 3.57984 13.0277
131 3 13.0976 2.77246 10.6603
37 4 10.7607 1.10142 16.5804
39 4 9.05991 2.32459 10.3022
41 4 8.33035 2.35045 15.0322
165 2 7.52523 5.27725 11.2897
229 2 10.0894 3.74139 13.887
295 2 11.8074 4.59932 12.5673
42 4 11.7528 2.89447 11.6179
72 1 8.9442 3.82178 13.9891
73 1 12.1605 3.42352 13.5577
129 3 9.73265 1.6299 15.557
132 3 10.3971 2.60681 10.9755
233 2 11.4627 3.50059 14.4252
45 4 8.30579 6.36828 10.1907
137 3 9.71386 5.64306 9.49057
294 2 12.3178 1.51167 15.9167
163 2 11.9834 1.7643 13.2262
192 2 11.3729 5.57329 15.3792
240 2 6.49316 6.52338 13.9651
193 2 10.3087 6.7193 14.3213
226 2 8.93059 0.824779 9.44305
161 2 8.65291 3.59206 8.479
71 1 8.86216 2.42921 8.34
251 2 6.02067 7.21912 2.24381
13 4 7.95969 10.4543 3.84858
238 2 7.53451 8.82854 8.24044
187 2 8.01134 9.33129 1.91653
250 2 4.61192 8.01257 1.47239
127 3 4.67784 12.5192 6.41735
247 1 5.22944 7.15288 1.49519
262 1 3.75156 11.6042 2.24903
252 2 7.48087 8.31041 0.203294
160 2 6.49707 10.9429 7.69616
283 2 3.4647 11.6155 1.00214
38 4 5.16476 12.0175 7.87988
149 2 6.03405 8.73634 5.29353
263 2 4.92868 9.62836 3.37295
56 1 8.11709 8.93789 2.98589
139 3 2.57899 9.23035 1.76715
140 3 2.03416 10.1381 4.38314
219 2 2.33537 11.1889 7.02927
46 4 3.13378 10.0747 2.99431
166 2 3.18333 12.4061 2.87426
167 2 4.91813 11.4754 2.49911
273 2 4.62379 9.88502 5.70432
270 1 5.50137 9.64438 5.00759
271 2 4.54052 8.06113 4.36852
272 2 6.30611 10.4957 4.99953
75 1 6.40373 9.00794 8.02976
237 2 6.10849 9.23028 6.85379
287 2 7.22615 8.38093 3.43799
87 3 7.77939 11.6562 2.71906
159 2 2.46035 10.8686 -0.33528
68 1 1.2624 11.1 6.88757
218 2 0.547522 11.9806 7.29153
203 2 8.36831 7.01136 4.71525
188 2 9.78371 8.69261 3.5075
279 2 4.17684 11.3835 16.5723
48 4 7.74731 7.93113 12.6275
44 4 5.78474 7.22624 8.60599
153 2 5.22873 7.25411 12.7346
141 3 4.09074 11.2422 8.62258
293 2 2.74376 11.3013 15.3369
246 4 5.66586 6.86742 16.9684
29 4 4.15786 7.14452 11.4107
254 2 7.94758 6.86522 16.4333
143 3 8.62122 7.77065 11.0314
257 3 4.48472 7.42819 16.0497
278 1 3.01565 11.5112 16.4273
223 2 2.6832 9.81154 12.7734
154 2 3.05915 8.43667 11.6486
168 2 3.16137 8.8966 9.27843
142 3 2.11067 11.1188 10.4025
47 4 3.51559 10.494 9.86289
49 4 5.56414 10.2417 12.2128
77 1 4.89673 10.8011 13.9144
136 3 4.86188 7.43171 10.0504
145 3 4.53615 10.3829 11.0032
146 3 6.59101 9.06418 12.3844
169 2 5.62293 11.4477 14.629
243 2 3.85695 11.257 13.704
244 2 4.8782 9.63954 14.2999
245 2 6.2625 11.7257 12.9448
253 2 7.09595 8.46185 15.6874
248 1 7.26738 7.79406 16.6136
144 3 8.79692 8.25968 13.8385
239 2 5.91767 9.71449 8.78863
266 2 5.73371 12.6812 15.3132
291 2 8.25992 10.9544 12.8749
194 2 10.7172 7.20031 16.0757
222 2 0.619786 11.3893 15.3926
ITEM: TIMESTEP
300
ITEM: NUMBER OF ATOMS
295
ITEM: BOX BOUNDS xy xz yz pp pp pp
-7.9400194813171350e+00 1.5055693276645961e+01 -7.9285373884105619e+00
6.5927825343657442e-01 1.2981847742707462e+01 -1.0048881626058097e-01
-3.7713602853938610e-01 1.7047658749110223e+01 3.2325996144037861e-02
ITEM: ATOMS id type x y z
81 3 -1.13668 2.82426 2.3999
54 1 -2.72619 5.0899 4.7012
183 2 -2.35341 5.14011 3.59226
52 1 -2.24193 5.14956 0.868255
10 4 -1.18934 6.09013 5.39289
85 3 -0.446063 5.18292 6.46521
7 4 -0.600806 3.91865 1.33049
151 2 1.49671 6.70715 5.85895
82 3 -0.526855 3.31691 -0.156294
177 2 -1.46635 6.06485 0.873509
189 2 -2.49029 6.69742 2.19358
157 2 2.91664 6.53056 7.03139
66 1 6.24434 0.944614 3.38164
79 3 0.629405 2.75955 4.40956
103 3 -0.124715 6.25802 4.1478
102 3 0.692484 4.88436 1.84234
8 4 0.503388 4.47825 7.54398
6 4 1.73737 2.59092 5.52106
51 1 3.54075 2.53241 4.74502
84 3 1.59466 3.68175 6.70966
106 3 2.47614 6.42387 3.37269
173 2 3.3823 3.24438 3.82008
175 2 4.17002 3.05961 5.5946
274 1 5.8322 3.07943 1.01592
277 2 4.77647 2.57389 1.29531
174 2 3.80746 1.47255 4.48676
27 4 3.61829 6.63462 4.56294
25 4 0.912065 6.27778 2.70268
104 3 4.93588 3.75939 7.06924
50 1 2.84879 1.54213 1.78122
171 2 2.43199 2.40921 1.16099
212 2 6.29234 1.73529 4.13215
80 3 1.63111 0.939005 6.36138
170 2 3.00706 1.80038 2.91943
96 3 3.40085 1.64214 8.0679
78 3 0.794828 0.822735 0.271984
2 4 -0.685363 2.08615 3.7648
172 2 3.84411 1.16332 1.29564
176 2 -2.34248 4.61839 -0.137202
214 2 7.17884 0.743044 2.76817
213 2 5.30225 1.10186 2.68016
86 3 -2.50542 6.29783 10.0832
284 2 0.230782 1.00141 14.5243
290 2 -1.26927 5.79891 16.5982
5 4 -0.754796 2.3862 9.45876
58 1 -0.781661 6.16262 15.5634
232 2 -1.57024 3.47977 14.0107
185 2 -0.535538 4.66646 12.0338
100 3 5.5691 0.972972 11.8859
3 4 0.432335 2.00543 16.644
148 2 -0.00467255 5.21185 9.97172
55 1 0.199107 5.63752 11.0287
83 3 -0.0812794 3.4652 8.57585
23 4 3.264 2.5904 15.0815
61 1 3.34023 4.12615 9.32296
98 3 1.98023 2.51883 16.0011
108 3 2.26949 3.20929 12.0368
197 2 3.59296 5.09425 8.79226
198 2 1.75184 4.00149 12.2906
199 2 2.29453 3.64842 9.0248
11 4 -1.57792 6.36724 11.3618
24 4 5.98189 2.44333 11.1598
28 4 3.71472 4.34763 11.23
97 3 4.58184 3.26926 15.7527
99 3 5.49385 2.42052 9.51919
206 2 4.99899 1.04387 15.071
110 3 3.26676 5.8848 11.6373
152 2 2.78935 2.94428 13.3389
261 2 1.22368 5.57644 16.4373
269 2 1.59898 1.80004 10.3036
267 1 0.547157 1.49888 10.5594
184 2 1.31614 5.69564 11.2549
258 2 1.92333 5.61707 14.6214
256 1 2.13266 5.74755 15.7419
259 2 3.06007 5.15454 16.1364
190 2 -0.615476 5.21877 14.966
109 3 5.18454 3.78508 11.8086
285 2 0.145219 2.06371 11.5588