ITEM: TIMESTEP
0
ITEM: NUMBER OF ATOMS
295
ITEM: BOX BOUNDS xy xz yz pp pp pp
-7.9400194813171350e+00 1.5055693276645961e+01 -7.9285373884105619e+00
6.5927825343657442e-01 1.3154370463278250e+01 -1.0048881626058097e-01
-3.7713602853938610e-01 1.6875136028539433e+01 2.0484871671482585e-01
ITEM: ATOMS id type x y z
81 3 -1.00692 3.07278 2.35017
54 1 -2.52421 5.11748 4.75366
183 2 -2.1118 5.04135 3.67889
52 1 -2.38936 5.05276 0.663793
10 4 -1.16249 6.20479 5.57577
85 3 -0.683152 5.28933 6.84472
7 4 -0.648692 4.03662 1.1409
172 2 3.88417 1.02143 1.37392
82 3 -0.208535 3.3171 -0.284169
177 2 -1.73912 6.04639 0.635148
189 2 -2.72227 6.64132 1.99434
157 2 2.71297 6.45078 6.77695
78 3 0.551006 0.735425 0.270564
79 3 0.348243 2.73725 4.41633
103 3 -0.080896 6.2645 4.29285
102 3 0.389232 5.11921 1.75915
8 4 0.48232 4.58599 7.65671
6 4 1.46855 2.68571 5.53876
51 1 3.23065 2.62126 4.73647
84 3 1.55663 4.05758 6.57802
106 3 2.45709 6.28158 3.145
173 2 3.11879 3.35346 3.91385
175 2 4.03278 2.98819 5.43835
274 1 5.60538 3.11809 1.29637
277 2 4.61432 2.60407 1.48095
174 2 3.49197 1.58522 4.37047
27 4 3.54175 6.5233 4.44495
25 4 0.862428 6.28252 2.77451
104 3 5.14454 3.64617 7.09863
50 1 2.88499 1.54376 1.69473
171 2 2.5103 2.3622 0.943329
212 2 6.28698 1.6483 3.96141
80 3 1.42407 1.22195 6.44216
170 2 2.93969 1.9834 2.80197
96 3 3.61211 1.44096 7.80456
66 1 6.35671 0.740871 3.33054
2 4 -0.797654 2.14745 3.56154
107 3 4.55186 5.28321 4.83144
86 3 -2.47163 6.32487 10.0247
20 4 4.60763 2.75049 8.29684
290 2 -1.55136 6.0742 16.2419
5 4 -0.641984 2.16952 9.6999
58 1 -0.997368 6.54005 15.3202
232 2 -1.77916 3.74824 13.5112
185 2 -0.302347 5.18388 12.3384
100 3 5.79708 0.999702 11.8391
3 4 0.325062 2.22938 16.3025
148 2 -0.148214 4.96254 10.3251
55 1 0.159651 5.74409 11.1019
83 3 0.0589002 3.44817 8.72096
23 4 3.31022 2.58202 15.1461
61 1 3.3239 3.88763 9.20229
98 3 1.835 2.41067 15.6949
108 3 2.51084 3.022 12.3542
197 2 3.36641 4.7517 8.43662
198 2 1.79086 3.64902 12.3276
199 2 2.29918 3.38707 9.22737
11 4 -1.55396 6.59148 11.2459
24 4 6.09016 2.52493 10.9531
28 4 3.61205 4.20911 11.075
97 3 4.50368 3.14203 16.101
99 3 5.63989 2.28691 9.40027
179 2 1.3094 5.75284 8.50607
110 3 3.13028 5.8867 11.2635
152 2 3.23188 3.38867 13.5168
261 2 1.65086 5.50723 15.5694
269 2 1.67357 2.03305 10.4599
267 1 0.727969 1.50152 10.7826
184 2 1.30722 5.76741 11.1621
258 2 2.07878 6.08928 13.769
256 1 2.51111 5.92638 14.823
259 2 3.44468 5.31312 14.8088
190 2 -0.540439 5.76198 14.6764
109 3 5.10219 3.89106 11.479
285 2 0.314003 1.83779 11.7907
284 2 0.220626 1.60305 13.9999
64 1 3.76842 0.848537 14.7065
214 2 -0.552963 12.884 2.77729
89 3 -3.86229 7.26925 7.7786
289 2 -1.63222 7.75296 3.1422
288 2 -3.42271 7.23833 3.70648
1 4 -6.18633 12.459 1.19406
4 4 -5.54247 12.8684 7.66399
12 4 -3.48114 9.11425 2.38776
15 4 -2.77331 8.3613 7.09313
16 4 -4.3948 10.7359 5.94796
88 3 -3.80618 9.03105 0.900955
92 3 -3.72876 9.37472 6.34082
93 3 -5.31359 11.3629 7.29675
114 3 -2.99235 11.7405 5.35375
280 3 -5.23922 11.3257 0.549017
31 4 -1.94747 11.3336 4.2634
90 3 -1.76839 7.68607 5.993
113 3 -2.56605 10.2376 3.10328
57 1 -2.72905 7.48306 2.805
116 3 -0.525001 10.966 4.79036
91 3 -5.52787 10.6026 4.81249
14 4 -4.06529 10.3444 -0.258017
151 2 1.6693 7.56073 5.68296
87 3 -6.96109 11.8954 2.86123
65 1 2.712 7.24202 5.97731
155 2 -0.0315443 9.45144 0.226691
181 2 1.12143 7.59153 7.86048
30 4 1.24137 8.50773 0.93009
33 4 1.02375 10.6757 5.30248
111 3 0.453347 7.70367 1.97634
217 2 1.25774 9.88012 7.11244
112 3 1.9881 7.79129 -0.284678
115 3 -1.83873 9.18757 8.18009
188 2 -5.09735 8.76926 3.34733
213 2 -2.4655 12.8922 2.61845
94 3 -1.94823 7.02294 12.7248
208 2 -5.00865 12.5302 15.1401
22 4 -1.13243 12.6534 13.0158
292 2 -3.35969 10.0226 10.5352
67 1 -2.97462 11.1068 9.99615
215 2 -2.66356 11.969 10.7079
216 2 -1.52123 11.8556 8.93199
150 2 -3.84702 10.0038 13.2325
32 4 -1.43211 10.1477 9.38744
156 2 -3.74648 11.5565 9.25965
17 4 -2.2848 7.50404 14.3182
95 3 -5.11955 10.1797 15.5728
119 3 -2.72263 11.1283 16.6547
117 3 -2.05997 9.06074 14.7696
118 3 -2.01082 11.531 13.9657
60 1 -5.43756 11.0939 12.8244
18 4 -5.35016 9.69821 14.0711
34 4 -1.76898 10.5606 15.1415
147 2 -6.49132 12.9437 9.12442
211 2 2.71529 7.49116 8.83914
120 3 -0.264098 9.92099 10.4125
268 2 -7.11893 12.6331 10.6959
69 1 0.0395544 10.6827 15.8251
195 2 -4.66614 11.9887 12.7255
260 2 2.27608 8.61609 14.2282
225 2 0.984478 9.63487 13.5432
186 2 -0.19816 7.58491 10.647
209 2 1.42245 8.78289 9.28967
53 1 1.59126 7.69957 8.9148
196 2 -6.47161 11.4961 13.3409
220 2 0.626699 9.69087 15.9522
255 4 2.72506 7.56629 15.5695
70 1 1.55136 9.39598 12.6085
224 2 1.22406 8.43001 12.0278
35 4 0.763902 10.7589 11.357
121 3 0.120541 11.8297 12.2794
291 2 -5.63447 10.5881 11.7614
222 2 0.442154 11.2139 14.8746
207 2 -4.02966 12.9822 13.536
191 2 -0.283667 7.34294 15.6117
206 2 -3.12683 13.072 15.2825
221 2 -0.0749355 11.361 16.6912
180 2 1.04349 6.93969 9.71986
26 4 5.50915 5.16509 6.3168
105 3 7.13308 5.33629 5.99519
71 1 9.00233 2.48273 8.19566
275 2 5.69321 4.13611 1.83971
228 2 8.09699 2.23945 7.61925
135 3 5.08823 6.39722 7.32745
158 2 7.94735 1.2437 4.43218
286 2 11.3245 5.54401 4.79726
182 2 12.5249 4.10384 5.25392
21 4 8.63115 5.02037 5.72831
63 1 9.41207 6.37476 4.69205
62 1 11.4253 4.51472 7.75802
162 2 11.9297 2.91541 6.7423
74 1 9.37683 4.25116 0.832942
122 3 8.89465 3.60678 4.96164
234 2 8.89443 4.87764 1.67369
235 2 8.58467 3.73825 0.180401
36 4 9.32087 2.23676 4.3033
40 4 11.9072 1.56165 5.62353
43 4 10.5491 3.00778 1.65412
125 3 12.8501 1.94245 4.40816
126 3 10.3568 1.34686 5.26147
133 3 9.64175 2.39399 2.72414
134 3 11.0441 2.13027 0.444459
164 2 11.872 4.04535 2.17542
236 2 10.1227 4.88872 0.256208
200 2 9.65674 5.1678 7.17777
204 2 9.88799 5.77507 3.83002
202 2 11.7293 4.73589 6.6624
281 2 10.5293 3.72951 7.83466
227 2 9.9317 2.30872 7.53196
276 2 6.53492 2.4189 1.371
178 2 11.5904 5.38056 1.08347
249 2 5.32499 6.53848 1.72192
176 2 12.4291 4.48174 -0.330334
19 4 5.8038 3.79832 16.7765
161 2 8.91486 3.93831 8.59551
242 2 6.14196 5.95095 11.9182
76 1 6.79228 6.32224 12.806
130 3 7.2829 3.18495 16.0547
201 2 12.3701 4.17439 8.4581
101 3 5.82299 5.39017 16.8595
230 2 8.54713 4.88965 14.4353
265 2 13.4789 2.39613 14.2425
138 3 7.24678 6.39512 9.14128
59 1 10.8877 6.96228 14.8601
128 3 7.43623 1.5263 13.9339
123 3 13.7886 0.914515 8.68218
124 3 7.71068 2.72335 11.0013
9 4 11.246 6.10789 8.94316
241 2 7.51356 5.44677 13.1531
231 2 8.34939 4.01996 12.7061
131 3 13.1643 2.65248 10.7519
37 4 10.9307 1.55441 16.2601
39 4 9.09225 2.5133 10.1492
41 4 8.23125 2.6262 14.8029
165 2 7.71883 5.29207 11.3612
229 2 10.0545 3.91317 13.5515
295 2 11.4862 4.72717 12.2447
42 4 11.841 2.89849 11.5867
72 1 8.86725 4.01688 13.7195
73 1 12.0564 3.57716 13.4113
129 3 9.64758 2.06212 15.4066
132 3 10.4694 2.75348 10.7898
233 2 11.4438 3.68466 14.4117
45 4 8.35141 6.31627 10.1773
137 3 9.85702 5.74015 9.69223
294 2 12.5122 1.71384 15.5449
163 2 11.7195 1.85716 13.1903
192 2 11.2878 6.09154 15.5064
240 2 6.15886 6.7154 13.7276
193 2 10.2755 6.60515 13.8782
226 2 9.02717 0.949766 9.23095
264 1 14.3245 1.68854 14.7588
251 2 6.30814 8.24412 1.68721
13 4 8.19569 10.6276 3.87127
282 2 6.76338 12.9529 2.92933
187 2 8.22337 9.60133 1.83066
250 2 4.46672 8.23255 1.27003
127 3 4.65043 12.7064 6.4099
247 1 5.4379 7.63267 1.2401
262 1 3.57455 11.9976 2.31922
252 2 8.23418 7.56189 -0.191128
160 2 6.26601 10.7918 7.50227
283 2 3.3975 12.0023 1.12532
38 4 5.10841 12.0821 7.8685
149 2 6.01697 8.5785 5.10852
263 2 4.76962 9.63267 3.44182
56 1 8.32622 9.15546 2.89001
139 3 2.40887 9.54711 1.65288
140 3 2.12247 10.4055 4.15328
219 2 2.8319 11.6124 6.58092
46 4 3.09333 10.3154 2.86591
166 2 3.02242 12.8458 2.82672
167 2 4.67488 11.8813 2.67263
273 2 4.6817 9.73193 5.65993
270 1 5.45485 9.53434 4.93348
271 2 4.56816 7.92066 4.31701
272 2 6.37834 10.6137 4.97809
75 1 6.37305 8.90916 7.98824
237 2 6.0663 9.12676 6.83856
287 2 7.35659 8.53864 3.32725
210 2 3.39443 8.19376 6.1317
159 2 2.20311 11.5399 -0.148014
68 1 1.62677 11.4698 6.73933
218 2 1.01042 12.3486 7.09744
203 2 8.47938 6.94826 4.37411
205 2 10.1345 7.02211 5.37177
194 2 10.3409 7.74035 15.4401
48 4 7.61148 8.05538 12.5249
44 4 5.83616 7.09185 8.57747
153 2 5.031 7.17317 12.4391
141 3 3.86113 11.4346 8.46839
293 2 2.58059 11.8006 15.256
246 4 5.73167 7.07407 16.8025
29 4 4.01449 7.152 11.1052
254 2 7.78159 7.15247 15.3653
143 3 8.39894 7.65742 11.0189
257 3 4.60326 7.6932 15.829
278 1 2.93134 11.9797 16.4195
223 2 2.70188 9.66742 12.645
154 2 2.91484 8.35226 11.5329
168 2 3.03434 9.04915 9.13562
142 3 1.96304 11.291 10.3834
47 4 3.32647 10.6861 9.71321
49 4 5.54421 10.4892 12.0767
77 1 4.71844 11.2642 13.6004
136 3 4.69441 7.27903 9.70247
145 3 4.42064 10.5045 10.8934
146 3 6.53514 9.33152 12.34
169 2 5.21049 11.8335 14.4788
243 2 3.80603 11.821 13.2144
244 2 4.367 10.1491 13.9674
245 2 6.07054 12.1429 12.5047
253 2 7.26217 8.8814 15.8458
248 1 7.39229 7.80981 16.1873
144 3 8.85713 8.35382 13.6056
239 2 5.65732 9.45284 8.73187
266 2 5.94116 12.9205 14.9384
279 2 4.02256 11.7182 16.6797
238 2 7.48072 8.97743 8.2788
ITEM: TIMESTEP
100
ITEM: NUMBER OF ATOMS
295
ITEM: BOX BOUNDS xy xz yz pp pp pp
-7.9400194813171350e+00 1.5055693276645961e+01 -7.9285373884105619e+00
6.5927825343657442e-01 1.3154370463278250e+01 -1.0048881626058097e-01
-3.7713602853938610e-01 1.6875136028539433e+01 2.0484871671482585e-01
ITEM: ATOMS id type x y z
81 3 -1.05705 3.14319 2.24016
54 1 -2.50487 5.06743 4.77025
183 2 -2.12244 4.96773 3.73581
52 1 -2.31732 5.3219 0.81511
10 4 -1.06086 6.12839 5.5256
85 3 -0.663701 5.33917 6.89886
7 4 -0.578527 4.11516 1.11407
172 2 3.93368 1.17289 1.33174
2 4 -0.765748 2.21682 3.46007
177 2 -1.55492 6.19957 0.807655
189 2 -2.51173 6.75033 2.24717
157 2 2.4513 6.17933 6.59947
176 2 -2.37137 4.81417 -0.202261
79 3 0.462894 2.66887 4.38249
103 3 -0.0343543 6.33567 4.20531
102 3 0.625239 5.09106 1.59222
8 4 0.416172 4.55643 7.68632
6 4 1.54507 2.74114 5.51122
51 1 3.34034 2.48321 4.78518
84 3 1.46154 3.9524 6.55678
106 3 2.36108 6.33177 3.28929
173 2 3.17196 3.24684 3.96323
175 2 4.04003 2.91733 5.66963
274 1 5.71433 3.01289 1.37935
277 2 4.64251 2.55979 1.60848
174 2 3.6081 1.43111 4.44658
27 4 3.53198 6.51939 4.4251
25 4 0.86263 6.39394 2.79895
104 3 5.14438 3.82146 6.91703
50 1 2.87032 1.57108 1.77303
171 2 2.38596 2.40826 1.07296
212 2 5.89907 1.45071 3.87646
80 3 1.34279 1.32465 6.60138
170 2 2.93256 1.88133 2.90795
96 3 3.6174 1.50426 7.78873
107 3 4.54157 5.33772 4.83962
86 3 -2.61573 6.25024 10.2155
284 2 0.0535761 1.28153 14.1842
290 2 -1.3133 6.1987 16.3667
5 4 -0.620025 2.20601 9.57406
58 1 -0.820471 6.48291 15.3619
232 2 -1.6864 3.78888 13.4216
185 2 -0.559091 4.93182 11.9731
100 3 5.57164 1.13361 11.8605
3 4 0.288955 2.17852 16.414
148 2 9.67964e-05 5.3792 10.0497
55 1 0.094348 5.80713 11.1241
83 3 -0.140628 3.50644 8.72852
23 4 3.30847 2.3595 15.1832
61 1 3.37252 3.85757 9.24163
98 3 1.89584 2.43634 15.8764
108 3 2.43926 3.0388 12.189
197 2 3.45792 4.76516 8.52438
198 2 1.89737 3.83588 12.4063
199 2 2.35587 3.32832 9.1591
11 4 -1.6295 6.74093 11.2919
24 4 6.08914 2.48602 10.9875
28 4 3.65874 4.23145 11.075
97 3 4.48272 3.12308 16.0125
99 3 5.74794 2.27069 9.21825
179 2 1.21209 5.84695 8.50812
110 3 3.33618 5.82582 11.2695
152 2 3.16983 2.84002 13.4607
261 2 1.62029 5.44385 15.7569
269 2 1.84849 1.86123 10.5498
267 1 0.797167 1.40786 10.6102
184 2 1.15816 5.90528 11.4296
258 2 2.04445 6.08884 14.0011
256 1 2.41958 5.8282 15.0527
259 2 3.3311 5.1172 15.0733
190 2 -0.571052 5.63233 14.6637
109 3 5.16656 3.77765 11.4884
285 2 0.317118 1.72387 11.6651
82 3 -0.42562 3.54339 16.8719
20 4 4.60242 2.72048 8.27742
78 3 -7.39627 12.9332 0.120485
89 3 -3.67481 7.2154 7.88741
289 2 -1.51984 7.9628 3.30372
288 2 -3.11158 7.35989 4.03576
1 4 -6.10054 12.4527 1.21024
4 4 -5.53442 12.8843 7.62572
12 4 -3.45114 9.08267 2.4614
15 4 -2.7704 8.21639 7.06711
16 4 -4.42461 10.7506 5.89416
88 3 -3.61991 9.11091 0.804405
92 3 -3.79211 9.28262 6.24039
93 3 -5.11101 11.4466 7.35032
114 3 -3.21527 11.8869 5.3018
280 3 -5.1742 11.332 0.485285
31 4 -2.09789 11.4759 4.26511
90 3 -1.86134 7.42738 5.9541
113 3 -2.79306 10.426 3.13642
57 1 -2.5135 7.65263 3.09722
116 3 -0.488995 10.8957 4.96862
91 3 -5.6623 10.6693 4.91025
14 4 -4.1521 10.2452 -0.255043
151 2 1.47053 7.51173 5.68668
87 3 -7.11104 11.8415 2.79668
65 1 2.48088 7.06455 5.93308
155 2 0.494557 9.74867 0.152941
181 2 1.17865 7.51449 7.81981
30 4 1.43568 8.51089 0.880085
33 4 0.990541 10.527 5.3326
111 3 0.444734 7.85464 1.93307
217 2 1.21647 9.83553 7.27265
112 3 2.08293 7.7364 -0.347317
115 3 -1.84052 9.14251 8.10497
213 2 -2.16576 12.6842 2.26098
66 1 -1.48471 12.9875 3.1951
94 3 -2.0747 7.10116 12.7635
208 2 -4.86689 12.29 15.2744
22 4 -1.0486 12.6652 12.95
292 2 -3.30786 10.2495 10.5812
67 1 -2.8447 11.2177 9.99452
215 2 -2.784 12.1473 10.7315
216 2 -1.54005 11.8904 8.80406
150 2 -4.1951 10.0496 12.885
32 4 -1.41779 10.1482 9.28678
156 2 -3.46001 11.494 9.10128
17 4 -2.22085 7.41078 14.3644
95 3 -4.9591 9.92463 15.6922
119 3 -2.65673 11.2135 16.4468
117 3 -2.04678 8.96688 14.7833
118 3 -1.81988 11.5327 13.8172
60 1 -5.73759 11.2141 12.897
18 4 -5.4089 9.75558 14.122
34 4 -1.76106 10.6291 15.2028
147 2 -6.30222 12.6543 9.15686
211 2 2.73517 7.62822 8.84672
120 3 -0.346047 10.0009 10.391
268 2 -7.08452 12.567 10.5413
69 1 0.0884244 10.825 15.6602
195 2 -4.83528 11.9466 12.7863
64 1 -4.08212 12.9195 14.7019
225 2 1.29264 9.93788 13.7483
186 2 -0.264227 7.65022 10.6663
209 2 1.35474 8.85178 9.04079
53 1 1.60015 7.781 8.83689
196 2 -6.52738 11.6372 13.7824
220 2 0.472237 9.7887 15.7199
255 4 2.85792 7.56248 15.5738
70 1 1.71283 9.56175 12.701
224 2 1.15859 8.61575 12.333
35 4 0.831594 10.7441 11.3166
121 3 0.110662 11.9927 12.0968
291 2 -6.22706 10.9906 11.935
222 2 0.58565 11.4299 14.8586
207 2 -4.03057 12.7532 13.5452
191 2 -0.0196701 7.40419 15.4401
206 2 -2.96296 13.041 15.2267
221 2 0.111342 11.3961 16.6153
180 2 0.971242 7.00768 9.78163
26 4 5.48957 5.20214 6.28489
105 3 7.14322 5.3028 5.86352
71 1 8.8602 2.48076 8.14936
275 2 5.94738 4.01425 1.91114
228 2 7.81762 2.06838 7.84777
135 3 5.15586 6.56955 7.23398
158 2 7.74302 1.24492 4.65362
286 2 11.326 5.55855 4.76673
182 2 12.5346 4.08285 5.36471
21 4 8.67702 5.06528 5.64118
63 1 9.49041 6.51385 4.67866
62 1 11.3966 4.49181 7.75383
162 2 12.1981 2.91676 6.85259
74 1 9.44522 4.3502 0.787019
122 3 8.93856 3.64048 5.06422
234 2 8.51487 4.64063 1.40213
235 2 9.14931 3.9077 -0.234856
36 4 9.18164 2.21842 4.47401
40 4 11.9942 1.64624 5.61855
43 4 10.3751 2.96977 1.6044
125 3 12.9514 1.98098 4.36054
126 3 10.4084 1.62246 5.27406
133 3 9.57087 2.40698 2.89741
134 3 10.8309 1.84569 0.523456
164 2 11.688 4.15321 1.98125
236 2 10.1384 5.23832 0.633904
200 2 9.54805 5.02522 7.10363
204 2 9.88498 6.07179 3.73567
202 2 11.6922 4.74306 6.62352
281 2 10.4113 3.74193 7.83791
227 2 9.67365 2.23347 7.45195
214 2 7.44803 0.958235 2.83478
178 2 11.6369 5.71363 1.04279
249 2 4.73183 6.39154 1.62449
276 2 6.58524 2.28812 1.41951
19 4 5.80027 3.68999 16.803
101 3 5.83077 5.5154 16.7322
242 2 6.07166 5.79316 12.3109
76 1 6.81036 6.31657 12.9661
130 3 7.12153 3.05394 16.0937
201 2 12.2932 4.08871 8.45038
264 1 14.1862 1.62297 14.903
230 2 8.6448 4.92227 14.6704
265 2 13.3871 2.44582 14.3179
138 3 7.20982 6.54703 8.96907
59 1 10.9642 6.72596 14.8734
128 3 7.49064 1.50079 13.8791
123 3 13.7269 1.02646 8.64136
124 3 7.70503 2.98851 10.9034
9 4 11.1536 6.0092 8.98703
241 2 7.63535 5.54038 13.3468
231 2 8.21446 3.81896 13.0834
131 3 13.268 2.69255 10.7182
37 4 10.9318 1.421 16.2504
39 4 9.00008 2.54686 10.0981
41 4 8.17093 2.48908 14.9429
165 2 7.65159 5.40898 11.3902
229 2 10.09 3.94308 13.6918
295 2 11.6057 4.65105 12.1065
42 4 11.8189 2.86243 11.5283
72 1 8.92768 4.0688 14.011
73 1 12.1157 3.62375 13.3515
129 3 9.68138 1.89051 15.4414
132 3 10.4002 2.63442 10.7961
233 2 11.4915 3.94123 14.1972
45 4 8.22703 6.34588 10.0879
137 3 9.68366 5.73096 9.64645
294 2 12.3727 2.01313 15.5193
163 2 11.7322 1.94999 13.1556
192 2 11.351 5.79885 15.429
240 2 6.32179 6.82785 13.8803
193 2 10.4424 6.53352 13.9507
226 2 8.91132 0.917855 9.28766
161 2 8.77672 3.82132 8.31009
251 2 6.23618 7.4218 2.09439
13 4 7.98443 10.6343 3.91664
238 2 7.51344 9.38168 8.01407
187 2 7.6641 9.52666 1.88557
250 2 4.60839 8.30211 1.5521
127 3 4.60368 12.6127 6.27454
247 1 5.34379 7.37102 1.40974
262 1 3.70391 11.8378 2.30545
252 2 7.81889 8.54808 -0.150426
160 2 6.44473 11.0966 7.5586
283 2 3.33027 11.7977 1.05594
38 4 5.10666 12.1735 7.80637
149 2 5.59943 8.41687 5.19394
263 2 4.85073 9.51119 3.37339
56 1 8.13795 9.0821 2.9446
139 3 2.45838 9.36542 1.83623
140 3 2.22817 10.4206 4.27953
219 2 2.55179 11.8617 6.49575
46 4 3.11464 10.2427 2.94117
166 2 3.22479 12.6671 2.90729
167 2 4.7896 11.7397 2.49917
273 2 4.64722 9.9452 5.58545
270 1 5.36722 9.49397 4.85985
271 2 4.58858 7.86905 4.00936
272 2 6.41157 10.1639 4.81927
75 1 6.37412 9.12788 7.96406
237 2 5.89934 9.28953 6.80157
287 2 7.39727 8.40056 3.5513
210 2 3.34039 7.84744 6.31709
159 2 2.20995 11.2694 -0.057743
68 1 1.45321 11.3441 6.77634
218 2 0.5604 12.1368 6.91042
203 2 8.6153 7.23612 4.56056
282 2 6.73374 12.9446 2.84252
188 2 9.77113 8.84153 3.16783
205 2 10.3574 6.94071 5.33169
194 2 10.5412 7.50673 15.5991
48 4 7.72179 8.03524 12.4459
44 4 5.82094 7.3237 8.47754
153 2 5.11944 7.2558 12.5799
141 3 4.01658 11.3766 8.55714
293 2 2.63611 11.4296 15.2809
246 4 5.72092 7.09472 16.8302
29 4 4.05119 7.15911 11.2192
254 2 8.02911 7.08514 16.149
143 3 8.58028 7.72072 11.0088
257 3 4.45644 7.58391 15.8307
278 1 2.86033 11.8236 16.3395
223 2 2.85296 9.67794 12.6434
154 2 2.87848 8.3664 11.5655
168 2 3.02872 9.1127 9.15558
142 3 2.09169 11.2789 10.3838
47 4 3.42445 10.6472 9.75846
49 4 5.57094 10.4638 12.0866
77 1 4.70935 11.2162 13.6179
136 3 4.74101 7.43309 9.86638
145 3 4.56508 10.5054 10.9526
146 3 6.58359 9.26679 12.2376
169 2 5.32457 11.808 14.3428
243 2 3.8126 11.7924 13.2637
244 2 4.40049 10.1411 14.0617
245 2 6.15792 12.0351 12.7117
253 2 7.10249 8.52538 15.3226
248 1 7.31298 8.0004 16.281
144 3 8.72834 8.4837 13.7053
239 2 5.77798 9.67143 8.72302
266 2 5.71426 12.9746 15.2829
279 2 3.97251 11.6112 16.6501
260 2 2.47933 8.73478 14.396
ITEM: TIMESTEP
200
ITEM: NUMBER OF ATOMS
295
ITEM: BOX BOUNDS xy xz yz pp pp pp
-7.9400194813171350e+00 1.5055693276645961e+01 -7.9285373884105619e+00
6.5927825343657442e-01 1.3154370463278250e+01 -1.0048881626058097e-01
-3.7713602853938610e-01 1.6875136028539433e+01 2.0484871671482585e-01
ITEM: ATOMS id type x y z
81 3 -1.21795 3.17853 2.32321
54 1 -2.73089 5.08782 4.87075
183 2 -2.2572 4.86022 3.80499
52 1 -2.23217 5.3155 0.842245
10 4 -1.23239 6.15327 5.43366
85 3 -0.647262 5.22997 6.65673
7 4 -0.621488 4.07162 1.23052
172 2 4.02723 0.744023 1.85407
2 4 -0.709054 2.21982 3.54345
177 2 -1.65733 6.29789 0.698318
66 1 6.38145 0.834917 3.27072
157 2 2.73686 6.13776 6.58996
176 2 -2.49843 4.75728 -0.12604
79 3 0.584618 2.68165 4.36066
103 3 -0.231109 6.31551 4.01221
102 3 0.555588 5.02482 1.76159
8 4 0.54103 4.57633 7.51313
6 4 1.53034 2.54242 5.57056
51 1 3.33551 2.78205 4.7108
84 3 1.63779 3.82732 6.58851
106 3 2.55006 6.28846 3.16427
173 2 3.08691 3.5669 3.94708
175 2 4.01812 3.18574 5.60201
274 1 5.67953 3.03731 1.15648
277 2 4.65677 2.42489 1.39338
174 2 3.7489 1.79058 4.25011
27 4 3.53349 6.65538 4.44604
25 4 0.797137 6.28596 2.77129
104 3 5.17612 3.87351 6.89996
50 1 3.02238 1.32039 1.92257
171 2 2.89183 2.14839 1.04568
212 2 5.65282 1.50399 3.80093
80 3 1.47098 0.992496 6.23386
170 2 2.96978 1.8436 2.94959
96 3 3.41134 1.59346 8.04194
82 3 -0.244364 3.37064 -0.144059
78 3 0.604021 0.842039 0.336969
179 2 1.41073 5.82133 8.23337
86 3 -2.78072 6.1343 10.3447
284 2 0.0864095 1.54425 14.1805
290 2 -1.40375 5.9983 16.4273
5 4 -0.802934 2.33789 9.48734
58 1 -0.877454 6.29572 15.3791
232 2 -1.75308 3.76001 13.4943
185 2 -0.374982 5.21831 12.2271
100 3 5.78829 1.04656 11.7805
3 4 0.296254 2.16033 16.4069
148 2 0.238234 5.21362 10.2702
55 1 0.060138 5.96103 11.0569
83 3 0.0253901 3.60391 8.6595
23 4 3.17654 2.59755 15.1013
61 1 3.48791 4.06144 9.24609
98 3 1.72745 2.38918 15.6984
108 3 2.33299 3.21958 12.1386
197 2 3.64448 5.02734 8.64142
198 2 1.72407 4.01697 12.2173
199 2 2.44689 3.55192 9.05843
11 4 -1.6671 6.73616 11.3549
24 4 6.13532 2.6215 10.8723
28 4 3.64472 4.38341 11.1291
97 3 4.44314 3.22546 15.7953
99 3 5.74712 2.27333 9.3268
206 2 4.91967 1.04434 15.0808
110 3 3.26827 6 11.4767
152 2 2.9587 3.3412 13.4704
261 2 1.56386 5.50844 16.286
269 2 1.47248 1.94281 10.3027
267 1 0.504666 1.34856 10.4279
184 2 0.962828 6.54773 11.2857
258 2 1.70384 5.88359 14.3905
256 1 2.27837 5.81117 15.4788
259 2 3.28805 5.24981 15.4178
190 2 -0.641579 5.48092 14.6329
109 3 5.16608 3.84513 11.5098
285 2 -0.0493523 1.54371 11.4944
20 4 4.57853 2.87085 8.34364
64 1 3.83353 0.911331 14.6091
213 2 -1.9665 12.57 2.24403
89 3 -3.69285 7.25484 7.88823
289 2 -1.45907 8.26394 3.08647
288 2 -3.03429 7.35141 3.86765
1 4 -6.13791 12.4257 1.17543
4 4 -5.6319 12.7704 7.59347
12 4 -3.57306 9.1741 2.51419
15 4 -2.81992 8.35718 7.06915
16 4 -4.35842 10.695 5.89963
88 3 -3.73742 9.03059 0.854562
92 3 -3.86918 9.24373 6.12796
93 3 -4.93148 11.2913 7.40902
114 3 -3.16299 11.7382 5.29434
280 3 -5.11237 11.4818 0.519354
31 4 -2.00684 11.492 4.22112
90 3 -1.82672 7.5582 5.92354
113 3 -2.68315 10.4766 3.17268
57 1 -2.51291 7.73313 2.85115
116 3 -0.573007 11.0234 4.89027
91 3 -5.70693 10.5731 4.73519
14 4 -4.06179 10.2342 -0.159435
151 2 1.33981 7.15156 5.75498
115 3 -1.93839 9.08982 8.18658
65 1 2.42705 7.04757 5.9586
155 2 0.297677 9.94331 0.395543
181 2 1.13667 7.57803 7.81565
30 4 1.40131 8.67123 0.917878
33 4 0.816847 10.5288 5.34733
111 3 0.554348 7.5875 1.71426
217 2 0.826211 9.55728 7.13886
189 2 -2.41948 6.91471 2.05758
94 3 -1.94478 7.04237 12.8724
208 2 -4.72849 12.5027 15.2727
22 4 -1.08674 12.682 12.884
292 2 -3.36947 10.3845 10.4824
67 1 -2.95327 11.3366 9.80292
215 2 -2.57878 12.136 10.5293
216 2 -1.6563 11.7783 8.51016
150 2 -4.19736 10.3837 12.969
32 4 -1.51246 10.1336 9.23406
156 2 -3.6857 11.5596 8.98209
17 4 -2.13204 7.45653 14.4235
95 3 -4.87251 9.79255 15.7584
119 3 -2.73603 11.1333 16.4262
117 3 -1.87651 8.98265 14.7527
118 3 -1.93783 11.5361 13.7003
60 1 -5.84289 11.3519 13.4072
18 4 -5.31117 9.6828 14.1764
34 4 -1.68999 10.5647 15.099
147 2 -6.64962 12.5929 9.01442
211 2 2.70383 7.56182 8.74517
120 3 -0.284681 9.9506 10.239
268 2 -7.37811 12.4941 10.1811
69 1 0.0328212 10.8549 15.8007
195 2 -4.94459 11.9893 12.9769
194 2 -4.28656 7.49629 15.9095
225 2 0.887245 10.0403 13.4153
186 2 -0.487699 7.83058 10.6658
209 2 1.42041 8.82171 9.10294
53 1 1.58462 7.78428 8.8149
196 2 -6.3279 11.6855 14.4296
220 2 0.632538 9.85964 16.0405
255 4 2.70133 7.59101 15.5196
70 1 1.58767 9.55222 12.631
224 2 1.20995 8.60264 12.2037
35 4 0.854953 10.7286 11.136
121 3 0.132226 12.0307 12.0123
191 2 -0.0254069 7.03477 15.4398
222 2 0.552532 11.4796 15.0355
207 2 -4.08824 12.8964 13.5216
112 3 1.89853 8.1856 16.8399
180 2 0.964445 7.06647 9.61738
221 2 -0.211079 11.455 16.7379
26 4 5.5583 5.35413 6.22889
105 3 7.16832 5.47995 5.96696
205 2 10.0784 6.77449 5.58011
275 2 5.6544 4.08534 1.65128
228 2 7.85096 2.04088 7.92706
135 3 5.04573 6.63685 7.19803
158 2 7.80359 1.2714 4.54902
286 2 11.1844 5.6269 4.73622
182 2 12.1577 4.13477 5.48626
21 4 8.6252 4.99368 5.72292
63 1 9.31498 6.43296 4.65042
62 1 11.354 4.45449 7.90219
162 2 11.9612 2.93148 6.80767
74 1 9.59895 4.498 0.864215
122 3 8.98123 3.64575 5.09624
234 2 8.46619 4.38249 1.12199
235 2 9.7642 4.41507 -0.196446
36 4 9.22239 2.19033 4.45401
40 4 12.0057 1.62115 5.63795
43 4 10.368 2.92967 1.58109
125 3 12.9824 1.97927 4.44196
126 3 10.4873 1.43387 5.02493
133 3 9.60075 2.479 2.88726
134 3 10.6606 1.67725 0.669976
164 2 11.781 3.96022 1.8924
236 2 10.0565 5.4435 1.33372
200 2 9.54105 4.98556 7.27693
204 2 9.80737 6.18848 3.63123
202 2 11.674 4.75042 6.76109
281 2 10.4019 3.69418 7.98351
227 2 9.6047 2.26329 7.48728
214 2 7.33136 1.45418 2.98481
107 3 4.54727 5.505 4.81633
249 2 4.97493 6.1601 1.97461
276 2 6.54719 2.39943 1.45595
282 2 14.8427 0.713502 2.98066
178 2 11.8267 5.50557 1.48535
19 4 5.98851 3.80758 16.6564
101 3 6.02156 5.41879 16.7491
242 2 6.04988 6.01954 12.074
76 1 6.8871 6.32007 12.8298
130 3 7.38592 3.11759 16.1393
201 2 12.3474 4.15141 8.58777
264 1 14.1444 1.57197 14.9233
230 2 8.71586 4.85346 14.5244
265 2 13.3505 2.3604 14.4631
138 3 7.23348 6.66824 8.94056
59 1 11.0708 6.83708 15.0504
128 3 7.44278 1.48268 13.9321
123 3 13.6795 1.05986 8.56686
124 3 7.76635 2.87925 11.0143
9 4 11.155 6.06615 8.99761
241 2 7.60346 5.45784 13.0731
231 2 8.25167 3.93628 12.9267
131 3 13.1 2.82561 10.5641
37 4 10.7648 1.28098 16.3984
39 4 9.0331 2.4037 10.2179
41 4 8.3182 2.49159 14.9007
165 2 7.53968 5.34075 11.193
229 2 10.103 3.70515 13.6315
295 2 11.5507 4.73262 12.226
42 4 11.7612 3.03068 11.4947
72 1 8.92502 3.97842 13.8191
73 1 12.1426 3.59949 13.4163
129 3 9.71415 1.8144 15.3722
132 3 10.3989 2.69019 10.9014
233 2 11.6439 3.87283 14.4214
45 4 8.31718 6.43973 10.0939
137 3 9.73174 5.72549 9.42639
294 2 12.3496 1.53132 15.7778
163 2 11.7151 1.98476 13.1754
192 2 11.4353 5.76635 15.3619
240 2 6.4724 6.69341 13.8309
193 2 10.3756 6.8374 14.1748
226 2 8.8772 0.870116 9.3218
161 2 8.60569 3.73654 8.41593
71 1 8.81051 2.5184 8.25543
251 2 6.12746 7.54 2.00596
13 4 7.95453 10.5321 3.8272
238 2 7.58531 8.80921 8.04721
187 2 8.09158 9.3241 1.84922
250 2 4.40648 7.79623 1.43737
127 3 4.7183 12.5989 6.34104
247 1 5.28349 7.08522 1.4581
262 1 3.76489 11.6462 2.2548
252 2 7.52946 8.61432 0.0348636
160 2 6.51876 11.009 7.57253
283 2 3.59564 11.5698 1.00346
38 4 5.2129 12.0808 7.79209
149 2 5.96318 8.79656 5.10984
263 2 4.92656 9.702 3.55814
56 1 8.15107 8.97789 2.93767
139 3 2.60781 9.2943 1.75653
140 3 2.03287 10.1985 4.36761
219 2 2.38675 11.3087 7.04971
46 4 3.12321 10.1214 3.0124
166 2 3.01576 12.3901 2.70583
167 2 4.87934 11.6815 2.56699
273 2 4.49411 9.77875 5.67552
270 1 5.39954 9.7019 4.94886
271 2 4.48261 8.10757 4.2738
272 2 6.34312 10.821 5.01131
75 1 6.44585 9.06475 7.92904
237 2 6.11761 9.29944 6.80727
287 2 7.23625 8.37634 3.35169
188 2 9.83502 8.73654 3.51531
159 2 2.34308 11.1758 -0.303251
68 1 1.24117 11.1429 6.86804
218 2 0.521138 11.9604 7.20391
203 2 8.5164 7.18694 4.53206
87 3 7.81473 11.6735 2.68813
210 2 2.90676 8.06388 6.23081
246 4 5.80043 6.80759 -0.364493
279 2 4.14509 11.2233 16.576
48 4 7.74818 8.06962 12.4919
44 4 5.78496 7.30484 8.535
153 2 5.19927 7.35926 12.6503
141 3 4.12627 11.3048 8.52762
293 2 2.86708 11.4727 15.1717
291 2 8.31385 11.0841 12.6584
29 4 4.12714 7.29363 11.311
254 2 8.14442 7.25315 16.4987
143 3 8.59251 7.8755 10.8856
257 3 4.51703 7.54588 15.922
278 1 3.133 11.6889 16.2794
223 2 2.69074 9.76158 12.7423
154 2 2.95909 8.5118 11.5581
168 2 3.1446 8.9565 9.17526
142 3 2.11855 11.2108 10.249
47 4 3.5073 10.5822 9.73922
49 4 5.51943 10.3316 12.1339
77 1 4.90353 10.8693 13.8662
136 3 4.87208 7.51822 9.9876
145 3 4.4983 10.4684 10.9079
146 3 6.5645 9.13901 12.2717
169 2 5.68355 11.4885 14.587
243 2 3.93279 11.4267 13.7158
244 2 4.722 9.67908 14.2107
245 2 6.2291 11.821 12.8734
253 2 6.96196 8.3837 15.4609
248 1 7.31998 8.03651 16.5308
144 3 8.82034 8.41213 13.6901
239 2 6.10046 9.7876 8.74533
266 2 5.79725 12.7657 15.1365
260 2 2.4808 8.61649 14.1199
ITEM: TIMESTEP
300
ITEM: NUMBER OF ATOMS
295
ITEM: BOX BOUNDS xy xz yz pp pp pp
-7.9400194813171350e+00 1.5055693276645961e+01 -7.9285373884105619e+00
6.5927825343657442e-01 1.3154370463278250e+01 -1.0048881626058097e-01
-3.7713602853938610e-01 1.6875136028539433e+01 2.0484871671482585e-01
ITEM: ATOMS id type x y z
81 3 -1.13353 2.84838 2.31202
54 1 -2.69925 5.11557 4.65569
183 2 -2.31302 5.14858 3.55581
52 1 -2.31811 5.13766 0.830718
10 4 -1.15412 6.12573 5.33722
85 3 -0.450486 5.20314 6.43772
7 4 -0.67942 3.94083 1.24988
172 2 3.91142 1.13781 1.19331
2 4 -0.696784 2.12897 3.67082
177 2 -1.57392 6.04681 0.893526
66 1 6.22167 0.984398 3.36591
157 2 2.91172 6.695 6.89777
176 2 -2.33876 4.62564 -0.283455
79 3 0.610127 2.77271 4.32863
103 3 -0.157268 6.29047 4.11347
102 3 0.618796 4.94382 1.74899
8 4 0.501372 4.55988 7.50091
6 4 1.72444 2.63894 5.46361
51 1 3.50484 2.61361 4.68691
84 3 1.58657 3.71719 6.67955
106 3 2.46862 6.44202 3.32851
173 2 3.30792 3.37999 3.78154
175 2 4.18439 3.1102 5.53467
274 1 5.83295 3.09675 1.04607
277 2 4.79897 2.69127 1.13802
174 2 3.78156 1.5392 4.38623
27 4 3.58819 6.63987 4.41116
25 4 0.893279 6.30906 2.66834
104 3 4.98613 3.86666 6.92924
50 1 2.93056 1.5468 1.67277
171 2 2.49994 2.38475 1.00864
212 2 6.16209 1.84684 4.16459
80 3 1.59794 1.01453 6.31343
170 2 3.1045 1.89748 2.81716
96 3 3.41935 1.65045 7.97009
82 3 -0.510799 3.31027 -0.259088
78 3 0.781935 0.838658 0.254249
189 2 -2.4812 6.73066 2.09027
151 2 1.47586 6.72027 5.78911
214 2 7.27631 0.864825 2.9063
213 2 5.33638 1.05843 2.6653
86 3 -2.58328 6.42417 9.96381
284 2 0.312851 1.2765 14.3096
290 2 -1.3089 6.02535 16.4578
5 4 -0.745685 2.42589 9.43234
58 1 -0.816235 6.31147 15.4112
232 2 -1.73089 3.70166 13.8563
185 2 -0.783607 4.7125 11.5753
100 3 5.53708 1.18197 11.7887
3 4 0.426819 2.21956 16.4179
148 2 0.628313 5.32715 10.0376
55 1 0.152477 5.76441 10.9794
83 3 -0.0735353 3.54154 8.57146
23 4 3.31174 2.75929 14.9429
61 1 3.31038 4.21191 9.24208
98 3 2.01978 2.71191 15.7923
108 3 2.27108 3.35104 11.8626
197 2 3.40567 5.24862 8.71368
198 2 1.71664 4.10228 12.155
199 2 2.26187 3.68102 9.22077
11 4 -1.6105 6.61377 11.2146
24 4 5.93623 2.60567 11.0718
28 4 3.69837 4.51905 11.0771
97 3 4.63451 3.43035 15.6378
99 3 5.42913 2.59442 9.42559
206 2 4.95572 1.11225 15.0935
110 3 3.22974 6.0616 11.5117
152 2 2.82067 3.10043 13.2771
261 2 1.2927 5.88449 16.4702
269 2 1.66756 1.6399 10.4157
267 1 0.576939 1.50691 10.563
184 2 0.921603 6.03557 11.7685
258 2 1.92403 5.74374 14.5953
256 1 2.16573 5.90996 15.7417
259 2 3.03415 5.30644 16.1761
190 2 -0.470905 5.32682 14.8694
109 3 5.15669 4.04298 11.774
285 2 0.266757 2.00257 11.5312
20 4 4.29678 2.94233 8.34743
64 1 3.89586 1.03631 14.5854