LAMMPS (2 Aug 2023 - Update 2)
  using 1 OpenMP thread(s) per MPI task
Reading data file ...
  triclinic box = (0 0 0) to (16.8189 12.842 16.0755) with tilt (-8.3798 1.195 0.4312)
WARNING: Triclinic box skew is large. LAMMPS will run inefficiently. (src/domain.cpp:220)
  2 by 2 by 2 MPI processor grid
  reading atoms ...
  274 atoms
Finding 1-2 1-3 1-4 neighbors ...
  special bond factors lj:    0        0        0       
  special bond factors coul:  0        0        0       
     0 = max # of 1-2 neighbors
     0 = max # of 1-3 neighbors
     0 = max # of 1-4 neighbors
     1 = max # of special neighbors
  special bonds CPU = 0.001 seconds
  read_data CPU = 0.007 seconds
*****Minimization starts.*****
Setting up cg style minimization ...
  Unit style    : real
  Current step  : 0
WARNING: No pairwise cutoff or binsize set. Atom sorting therefore disabled. (src/atom.cpp:2366)
WARNING: Communication cutoff is 0.0. No ghost atoms will be generated. Atoms may get lost. (src/comm_brick.cpp:210)
Per MPI rank memory allocation (min/avg/max) = 6.364 | 6.364 | 6.364 Mbytes
   Step          Temp          E_pair         E_mol          TotEng         Press     
         0   300            0              0              244.12834      3214.0773    
         1   300            0              0              244.12834      3214.0773    
Loop time of 5.97004e-05 on 8 procs for 1 steps with 274 atoms

56.1% CPU use with 8 MPI tasks x 1 OpenMP threads

Minimization stats:
  Stopping criterion = search direction is not downhill
  Energy initial, next-to-last, final = 
                     0                  0                  0
  Force two-norm initial, final = 0 0
  Force max component initial, final = 0 0
  Final line search alpha, max atom move = 0 0
  Iterations, force evaluations = 1 0

MPI task timing breakdown:
Section |  min time  |  avg time  |  max time  |%varavg| %total
---------------------------------------------------------------
Pair    | 0          | 0          | 0          |   0.0 |  0.00
Bond    | 1.29e-07   | 2.31e-07   | 3.44e-07   |   0.0 |  0.39
Neigh   | 0          | 0          | 0          |   0.0 |  0.00
Comm    | 8.65e-07   | 1.2422e-06 | 1.614e-06  |   0.0 |  2.08
Output  | 0          | 0          | 0          |   0.0 |  0.00
Modify  | 0          | 0          | 0          |   0.0 |  0.00
Other   |            | 5.823e-05  |            |       | 97.53

Nlocal:          34.25 ave          40 max          23 min
Histogram: 1 0 0 0 0 0 2 3 1 1
Nghost:              0 ave           0 max           0 min
Histogram: 8 0 0 0 0 0 0 0 0 0
Neighs:              0 ave           0 max           0 min
Histogram: 8 0 0 0 0 0 0 0 0 0

Total # of neighbors = 0
Ave neighs/atom = 0
Ave special neighs/atom = 0
Neighbor list builds = 0
Dangerous builds = 0
WARNING: New thermo_style command, previous thermo_modify settings will be lost (src/output.cpp:903)

CITE-CITE-CITE-CITE-CITE-CITE-CITE-CITE-CITE-CITE-CITE-CITE-CITE

Your simulation uses code contributions which should be cited:
- pair reaxff command: doi:10.1016/j.parco.2011.08.005
- fix qeq/reaxff command: doi:10.1016/j.parco.2011.08.005
The log file lists these citations in BibTeX format.

CITE-CITE-CITE-CITE-CITE-CITE-CITE-CITE-CITE-CITE-CITE-CITE-CITE

WARNING: Fix qeq/reaxff group is not charge neutral, net charge = -8.2 (src/REAXFF/fix_qeq_reaxff.cpp:392)
Neighbor list info ...
  update: every = 10 steps, delay = 0 steps, check = no
  max neighbors/atom: 2000, page size: 100000
  master list distance cutoff = 12
  ghost atom cutoff = 12
  binsize = 6, bins = 5 3 3
  2 neighbor lists, perpetual/occasional/extra = 2 0 0
  (1) pair reaxff, perpetual
      attributes: half, newton off, ghost
      pair build: half/bin/newtoff/ghost
      stencil: full/ghost/bin/3d
      bin: standard
  (2) fix qeq/reaxff, perpetual, copy from (1)
      attributes: half, newton off
      pair build: copy
      stencil: none
      bin: none
Setting up Verlet run ...
  Unit style    : real
  Current step  : 0
  Time step     : 0.5
Per MPI rank memory allocation (min/avg/max) = 109.8 | 110.8 | 111.6 Mbytes
   Step          Temp          PotEng         Press        f_avgp[1]       Density         Volume    
         0   300           -29524.072      53373.102      0              1.4594291      3472.1201    
       100   948.98865     -30922.622     -15514.121     -14366.674      1.4594291      3472.1201    
       200   662.6579      -31441.534     -7110.5489     -6276.1405      1.4594291      3472.1201    
       300   527.48147     -31761.175     -11773.982     -5042.4331      1.4594291      3472.1201    
       400   363.22322     -31883.277      1712.5181      22.309102      1.4594291      3472.1201    
       500   316.67184     -31985.47       1905.6475      17.453428      1.4594291      3472.1201    
       600   266.91972     -32029.11      -5246.467      -6511.4383      1.4594291      3472.1201    
       700   259.96122     -32070.248     -3585.8757     -3886.0335      1.4594291      3472.1201    
       800   264.70533     -32068.314     -6887.5509     -9015.5298      1.4594291      3472.1201    
       900   307.04485     -32055.099     -8974.0704     -1877.0383      1.4594291      3472.1201    
      1000   326.66755     -32040.888     -7245.8311      2779.9265      1.4594291      3472.1201    
      1100   328.71451     -32065.211      6623.7168      280.48449      1.4594291      3472.1201    
      1200   296.50673     -32086.34      -12008.081     -8759.1554      1.4594291      3472.1201    
      1300   282.5483      -32103.509     -5111.3942     -4842.3505      1.4594291      3472.1201    
      1400   272.4031      -32086.752     -11899.178     -3051.7434      1.4594291      3472.1201    
      1500   323.77012     -32089.162     -11478.784     -2925.6187      1.4594291      3472.1201    
      1600   332.65495     -32069.29      -11053.183     -6686.7844      1.4594291      3472.1201    
      1700   320.29387     -32071.674     -2269.5931     -4745.169       1.4594291      3472.1201    
      1800   280.02113     -32079.203      1721.8885      965.04853      1.4594291      3472.1201    
      1900   278.81188     -32104.933     -17454.68      -2930.1725      1.4594291      3472.1201    
      2000   276.58679     -32108.356     -11453.796     -3225.164       1.4594291      3472.1201    
Loop time of 74.8926 on 8 procs for 2000 steps with 274 atoms

Performance: 1.154 ns/day, 20.804 hours/ns, 26.705 timesteps/s, 7.317 katom-step/s
98.6% CPU use with 8 MPI tasks x 1 OpenMP threads

MPI task timing breakdown:
Section |  min time  |  avg time  |  max time  |%varavg| %total
---------------------------------------------------------------
Pair    | 42.063     | 57.484     | 62.096     |  80.4 | 76.76
Bond    | 0.00057324 | 0.0008355  | 0.0010229  |   0.0 |  0.00
Neigh   | 3.149      | 4.2196     | 4.6408     |  21.8 |  5.63
Comm    | 1.6021     | 6.2273     | 21.622     | 243.9 |  8.31
Output  | 0.0010655  | 0.0012705  | 0.0021875  |   1.0 |  0.00
Modify  | 6.475      | 6.9251     | 8.0239     |  17.5 |  9.25
Other   |            | 0.03415    |            |       |  0.05

Nlocal:          34.25 ave          43 max          22 min
Histogram: 1 0 0 2 0 0 2 0 2 1
Nghost:           2843 ave        2856 max        2823 min
Histogram: 1 0 0 0 0 2 2 2 0 1
Neighs:        18922.2 ave       23443 max       12373 min
Histogram: 1 0 0 2 0 0 2 0 2 1

Total # of neighbors = 151378
Ave neighs/atom = 552.47445
Ave special neighs/atom = 0
Neighbor list builds = 200
Dangerous builds not checked
System init for write_data ...
System init for write_restart ...
  using 1 OpenMP thread(s) per MPI task
Reading restart file ...
  restart file = 2 Aug 2023, LAMMPS = 2 Aug 2023
  restoring atom style full from restart
  triclinic box = (0 0 0) to (16.8189 12.842 16.0755) with tilt (-8.3798 1.195 0.4312)
WARNING: Triclinic box skew is large. LAMMPS will run inefficiently. (src/domain.cpp:220)
  2 by 2 by 2 MPI processor grid
  pair style reaxff stores no restart info
  274 atoms
Finding 1-2 1-3 1-4 neighbors ...
  special bond factors lj:    0        0        0       
  special bond factors coul:  0        0        0       
     0 = max # of 1-2 neighbors
     0 = max # of 1-3 neighbors
     0 = max # of 1-4 neighbors
     1 = max # of special neighbors
  special bonds CPU = 0.000 seconds
  read_restart CPU = 0.003 seconds
*****Negative-change 1 starts.*****
Resetting global fix info from restart file:
  fix style: nvt, fix ID: 4
Changing box ...
WARNING: Triclinic box skew is large. LAMMPS will run inefficiently. (src/domain.cpp:220)
  triclinic box = (0 0 0) to (16.650711 12.842 16.0755) with tilt (-8.3798 1.195 0.4312)
WARNING: Triclinic box skew is large. LAMMPS will run inefficiently. (src/domain.cpp:220)
  triclinic box = (0 0 0) to (16.650711 12.842 16.0755) with tilt (-8.296002 1.195 0.4312)
WARNING: Triclinic box skew is large. LAMMPS will run inefficiently. (src/domain.cpp:220)
  triclinic box = (0 0 0) to (16.650711 12.842 16.0755) with tilt (-8.296002 1.18305 0.4312)
All restart file global fix info was re-assigned
Neighbor list info ...
  update: every = 10 steps, delay = 0 steps, check = no
  max neighbors/atom: 2000, page size: 100000
  master list distance cutoff = 12
  ghost atom cutoff = 12
  binsize = 6, bins = 5 3 3
  2 neighbor lists, perpetual/occasional/extra = 2 0 0
  (1) pair reaxff, perpetual
      attributes: half, newton off, ghost
      pair build: half/bin/newtoff/ghost
      stencil: full/ghost/bin/3d
      bin: standard
  (2) fix qeq/reaxff, perpetual, copy from (1)
      attributes: half, newton off
      pair build: copy
      stencil: none
      bin: none
Setting up Verlet run ...
  Unit style    : real
  Current step  : 0
  Time step     : 0.5
Per MPI rank memory allocation (min/avg/max) = 110.5 | 110.9 | 111.4 Mbytes
   Step          Temp          PotEng         Press        f_avgp[1]        Volume    
         0   276.58679     -32102.729      22126.48       0              3437.3989    
       100   308.40664     -32107.799     -747.78636     -1263.2329      3437.3989    
       200   326.29246     -32098.637     -9076.7332     -543.59148      3437.3989    
       300   305.84306     -32087.894     -12751.763     -3786.7626      3437.3989    
       400   289.8649      -32096.178      4460.8435     -5914.0735      3437.3989    
       500   297.70472     -32120.295      1102.9722     -1779.4209      3437.3989    
       600   273.43628     -32106.145      3720.951      -2679.1109      3437.3989    
       700   296.12066     -32106.972      6327.35        3010.1045      3437.3989    
       800   308.56211     -32106.816     -6863.1593      1760.2567      3437.3989    
       900   298.80108     -32090.525     -11259.525      2222.8137      3437.3989    
      1000   297.39723     -32076.915     -11570.117     -6212.5884      3437.3989    
      1100   330.43417     -32110.523      2237.961       1949.3574      3437.3989    
      1200   283.08391     -32098.257      3445.3133      8227.9124      3437.3989    
      1300   288.02455     -32115.306      5922.0026     -2208.6818      3437.3989    
      1400   284.40493     -32109.394      1967.8237     -1156.4108      3437.3989    
      1500   309.14284     -32108.919     -3663.6039     -7374.9523      3437.3989    
      1600   293.64155     -32072.377     -4185.4572     -8622.587       3437.3989    
      1700   326.50119     -32086.555     -382.37957     -137.90451      3437.3989    
      1800   296.95412     -32087.35       2219.6846     -2127.0995      3437.3989    
      1900   274.95975     -32099.54      -12934.909      3624.3923      3437.3989    
      2000   266.80608     -32097.738     -1668.3895     -6631.1875      3437.3989    
Loop time of 77.5261 on 8 procs for 2000 steps with 274 atoms

Performance: 1.114 ns/day, 21.535 hours/ns, 25.798 timesteps/s, 7.069 katom-step/s
98.8% CPU use with 8 MPI tasks x 1 OpenMP threads

MPI task timing breakdown:
Section |  min time  |  avg time  |  max time  |%varavg| %total
---------------------------------------------------------------
Pair    | 58.777     | 62.227     | 65.207     |  28.2 | 80.27
Bond    | 0.00060756 | 0.00084679 | 0.0010011  |   0.0 |  0.00
Neigh   | 4.0216     | 4.4301     | 4.7448     |  10.6 |  5.71
Comm    | 1.136      | 4.1267     | 7.5703     | 109.5 |  5.32
Output  | 0.0042432  | 0.006834   | 0.0088173  |   2.4 |  0.01
Modify  | 6.3573     | 6.6994     | 7.1125     |   9.0 |  8.64
Other   |            | 0.03557    |            |       |  0.05

Nlocal:          34.25 ave          42 max          23 min
Histogram: 1 0 1 0 1 0 2 1 0 2
Nghost:        2833.12 ave        2853 max        2817 min
Histogram: 2 1 0 0 0 3 0 1 0 1
Neighs:        19134.1 ave       23371 max       13128 min
Histogram: 1 0 1 0 1 0 2 1 0 2

Total # of neighbors = 153073
Ave neighs/atom = 558.66058
Ave special neighs/atom = 0
Neighbor list builds = 200
Dangerous builds not checked
*****Equilibration neg1 starts.*****
WARNING: New thermo_style command, previous thermo_modify settings will be lost (src/output.cpp:903)
Neighbor list info ...
  update: every = 10 steps, delay = 0 steps, check = no
  max neighbors/atom: 2000, page size: 100000
  master list distance cutoff = 12
  ghost atom cutoff = 12
  binsize = 6, bins = 5 3 3
  2 neighbor lists, perpetual/occasional/extra = 2 0 0
  (1) pair reaxff, perpetual
      attributes: half, newton off, ghost
      pair build: half/bin/newtoff/ghost
      stencil: full/ghost/bin/3d
      bin: standard
  (2) fix qeq/reaxff, perpetual, copy from (1)
      attributes: half, newton off
      pair build: copy
      stencil: none
      bin: none
Setting up Verlet run ...
  Unit style    : real
  Current step  : 0
  Time step     : 0.5
Per MPI rank memory allocation (min/avg/max) = 110.5 | 110.9 | 111.3 Mbytes
   Step          Temp          PotEng         Press        f_avgp[1]        Volume    
         0   266.80608     -32097.738     -1668.4098      0              3437.3989    
       100   281.11826     -32096.415      3437.4556     -3607.786       3437.3989    
       200   302.93099     -32092.372      1782.291       1233.9608      3437.3989    
       300   323.23719     -32102.285     -3856.1001     -939.75526      3437.3989    
       400   289.04906     -32098.261     -12414.728     -3106.735       3437.3989    
       500   276.47342     -32111.833      6182.6478     -5118.5992      3437.3989    
       600   290.61322     -32117.971      1638.4959     -4690.2317      3437.3989    
       700   300.41355     -32107.486     -1151.7571     -2844.1974      3437.3989    
       800   289.83726     -32076.919      10134.407      1064.5367      3437.3989    
       900   312.69669     -32083.759     -6548.3188     -4016.0935      3437.3989    
      1000   321.95374     -32109.185     -18823.689     -13629.349      3437.3989    
      1100   315.17478     -32125.978     -16506.585     -3472.7192      3437.3989    
      1200   282.01943     -32102.678     -713.24749     -927.09517      3437.3989    
      1300   292.20253     -32106.65      -8351.2246     -4217.0653      3437.3989    
      1400   310.64176     -32104.974      927.69596     -4109.1941      3437.3989    
      1500   309.33956     -32075.718      286.41276     -9586.7044      3437.3989    
      1600   317.66959     -32080.265     -324.94904     -5939.6463      3437.3989    
      1700   312.5836      -32109.104     -1281.2797     -5267.3018      3437.3989    
      1800   288.8158      -32104.74      -10678.592     -5233.2689      3437.3989    
      1900   307.58913     -32133.046     -876.92767     -4098.7383      3437.3989    
      2000   297.72701     -32121.186      3637.2472      2196.6431      3437.3989    
Loop time of 77.7939 on 8 procs for 2000 steps with 274 atoms

Performance: 1.111 ns/day, 21.609 hours/ns, 25.709 timesteps/s, 7.044 katom-step/s
98.7% CPU use with 8 MPI tasks x 1 OpenMP threads

MPI task timing breakdown:
Section |  min time  |  avg time  |  max time  |%varavg| %total
---------------------------------------------------------------
Pair    | 46.88      | 61.093     | 65.778     |  70.6 | 78.53
Bond    | 0.00059581 | 0.00082592 | 0.00098422 |   0.0 |  0.00
Neigh   | 3.2284     | 4.3387     | 4.7668     |  21.5 |  5.58
Comm    | 0.86447    | 5.5593     | 19.762     | 234.0 |  7.15
Output  | 0.00089538 | 0.0010093  | 0.0015443  |   0.6 |  0.00
Modify  | 6.307      | 6.7665     | 7.8879     |  17.5 |  8.70
Other   |            | 0.0347     |            |       |  0.04

Nlocal:          34.25 ave          43 max          18 min
Histogram: 1 0 0 1 1 0 0 1 1 3
Nghost:        2818.62 ave        2836 max        2795 min
Histogram: 1 0 1 0 0 3 0 0 1 2
Neighs:        19092.2 ave       23812 max       10330 min
Histogram: 1 0 0 1 1 0 0 1 1 3

Total # of neighbors = 152738
Ave neighs/atom = 557.43796
Ave special neighs/atom = 0
Neighbor list builds = 200
Dangerous builds not checked
  using 1 OpenMP thread(s) per MPI task
Reading restart file ...
  restart file = 2 Aug 2023, LAMMPS = 2 Aug 2023
  restoring atom style full from restart
  triclinic box = (0 0 0) to (16.8189 12.842 16.0755) with tilt (-8.3798 1.195 0.4312)
WARNING: Triclinic box skew is large. LAMMPS will run inefficiently. (src/domain.cpp:220)
  2 by 2 by 2 MPI processor grid
  pair style reaxff stores no restart info
  274 atoms
Finding 1-2 1-3 1-4 neighbors ...
  special bond factors lj:    0        0        0       
  special bond factors coul:  0        0        0       
     0 = max # of 1-2 neighbors
     0 = max # of 1-3 neighbors
     0 = max # of 1-4 neighbors
     1 = max # of special neighbors
  special bonds CPU = 0.000 seconds
  read_restart CPU = 0.003 seconds
*****Positive-change 1 starts.*****
Resetting global fix info from restart file:
  fix style: nvt, fix ID: 4
Changing box ...
WARNING: Triclinic box skew is large. LAMMPS will run inefficiently. (src/domain.cpp:220)
  triclinic box = (0 0 0) to (16.987089 12.842 16.0755) with tilt (-8.3798 1.195 0.4312)
WARNING: Triclinic box skew is large. LAMMPS will run inefficiently. (src/domain.cpp:220)
  triclinic box = (0 0 0) to (16.987089 12.842 16.0755) with tilt (-8.463598 1.195 0.4312)
WARNING: Triclinic box skew is large. LAMMPS will run inefficiently. (src/domain.cpp:220)
  triclinic box = (0 0 0) to (16.987089 12.842 16.0755) with tilt (-8.463598 1.20695 0.4312)
All restart file global fix info was re-assigned
Neighbor list info ...
  update: every = 10 steps, delay = 0 steps, check = no
  max neighbors/atom: 2000, page size: 100000
  master list distance cutoff = 12
  ghost atom cutoff = 12
  binsize = 6, bins = 5 3 3
  2 neighbor lists, perpetual/occasional/extra = 2 0 0
  (1) pair reaxff, perpetual
      attributes: half, newton off, ghost
      pair build: half/bin/newtoff/ghost
      stencil: full/ghost/bin/3d
      bin: standard
  (2) fix qeq/reaxff, perpetual, copy from (1)
      attributes: half, newton off
      pair build: copy
      stencil: none
      bin: none
Setting up Verlet run ...
  Unit style    : real
  Current step  : 0
  Time step     : 0.5
Per MPI rank memory allocation (min/avg/max) = 109.6 | 110.1 | 110.4 Mbytes
   Step          Temp          PotEng         Press        f_avgp[1]        Volume    
         0   276.58679     -32088.728     -43631.799      0              3506.8413    
       100   310.74543     -32098.299     -3471.9682     -10024.352      3506.8413    
       200   326.36894     -32094.04      -6917.8849     -2723.0797      3506.8413    
       300   295.47561     -32085.081     -13323.542     -7409.7701      3506.8413    
       400   298.25983     -32109.355     -4341.5144     -9244.1159      3506.8413    
       500   292.08602     -32106.785     -13980.093     -7316.9909      3506.8413    
       600   327.47492     -32125.802     -815.90238     -3343.8586      3506.8413    
       700   309.82955     -32101.78      -4724.3178     -5127.6988      3506.8413    
       800   290.12909     -32088.251     -596.62901     -4305.956       3506.8413    
       900   292.55482     -32094.481     -10204.525     -6015.9842      3506.8413    
      1000   288.37044     -32088.16       2020.206      -11677.065      3506.8413    
      1100   313.57986     -32100.9       -4822.8374     -2898.4404      3506.8413    
      1200   299.94998     -32096.177     -3199.4198      1724.2354      3506.8413    
      1300   304.46488     -32110.858     -3513.9747     -5664.5835      3506.8413    
      1400   300.21292     -32105.667     -4731.6188     -8812.6899      3506.8413    
      1500   279.71639     -32089.032     -11613.519     -6650.4347      3506.8413    
      1600   302.05989     -32093.611     -10023.061     -11581.936      3506.8413    
      1700   301.10116     -32087.011     -15371.94      -5373.281       3506.8413    
      1800   302.79385     -32087.97      -8328.6201     -4076.7565      3506.8413    
      1900   304.40762     -32092.522     -1746.3816     -2721.9945      3506.8413    
      2000   279.42433     -32096.338     -16153.503     -9555.7165      3506.8413    
Loop time of 76.2796 on 8 procs for 2000 steps with 274 atoms

Performance: 1.133 ns/day, 21.189 hours/ns, 26.219 timesteps/s, 7.184 katom-step/s
98.7% CPU use with 8 MPI tasks x 1 OpenMP threads

MPI task timing breakdown:
Section |  min time  |  avg time  |  max time  |%varavg| %total
---------------------------------------------------------------
Pair    | 53.506     | 60.326     | 64.008     |  42.6 | 79.08
Bond    | 0.00059288 | 0.00081003 | 0.00093293 |   0.0 |  0.00
Neigh   | 3.7264     | 4.3404     | 4.5252     |  11.4 |  5.69
Comm    | 1.1228     | 4.8167     | 11.63      | 151.1 |  6.31
Output  | 0.0049016  | 0.0068416  | 0.0083951  |   1.8 |  0.01
Modify  | 6.5748     | 6.7542     | 7.3727     |   9.2 |  8.85
Other   |            | 0.03492    |            |       |  0.05

Nlocal:          34.25 ave          43 max          23 min
Histogram: 1 0 1 1 0 0 1 1 2 1
Nghost:         2797.5 ave        2815 max        2775 min
Histogram: 1 1 0 1 0 1 1 0 1 2
Neighs:        18751.5 ave       23397 max       12838 min
Histogram: 1 0 2 0 0 0 2 0 2 1

Total # of neighbors = 150012
Ave neighs/atom = 547.48905
Ave special neighs/atom = 0
Neighbor list builds = 200
Dangerous builds not checked
*****Equilibration pos1 starts.*****
WARNING: New thermo_style command, previous thermo_modify settings will be lost (src/output.cpp:903)
Neighbor list info ...
  update: every = 10 steps, delay = 0 steps, check = no
  max neighbors/atom: 2000, page size: 100000
  master list distance cutoff = 12
  ghost atom cutoff = 12
  binsize = 6, bins = 5 3 3
  2 neighbor lists, perpetual/occasional/extra = 2 0 0
  (1) pair reaxff, perpetual
      attributes: half, newton off, ghost
      pair build: half/bin/newtoff/ghost
      stencil: full/ghost/bin/3d
      bin: standard
  (2) fix qeq/reaxff, perpetual, copy from (1)
      attributes: half, newton off
      pair build: copy
      stencil: none
      bin: none
Setting up Verlet run ...
  Unit style    : real
  Current step  : 0
  Time step     : 0.5
Per MPI rank memory allocation (min/avg/max) = 109.6 | 110.1 | 110.5 Mbytes
   Step          Temp          PotEng         Press        f_avgp[1]        Volume    
         0   279.42433     -32096.338     -16153.516      0              3506.8413    
       100   310.2975      -32113.019     -5253.2285     -10714.658      3506.8413    
       200   318.09069     -32096.551     -5444.0741     -939.96079      3506.8413    
       300   324.34004     -32085.266     -7102.1245     -3484.862       3506.8413    
       400   295.27184     -32081.539     -18731.941     -7310.4412      3506.8413    
       500   276.66219     -32093.356     -8667.4282     -10434.453      3506.8413    
       600   309.70674     -32119.489     -535.14925     -8771.1931      3506.8413    
       700   291.34298     -32098.956     -1184.3458     -4438.7536      3506.8413    
       800   300.4569      -32088.192     -1169.6593     -5054.9423      3506.8413    
       900   323.18458     -32090.336     -9561.6634     -10857.804      3506.8413    
      1000   296.17388     -32089.323      1769.8475     -5170.176       3506.8413    
      1100   283.16267     -32099.59      -258.21904     -5515.8016      3506.8413    
      1200   293.47959     -32103.684      1940.0945     -9331.0898      3506.8413    
      1300   307.27593     -32103.225     -8856.8311     -5406.1748      3506.8413    
      1400   295.33062     -32075.127      5439.5468     -9137.3644      3506.8413    
      1500   329.82507     -32090.725     -12673.381     -14472.734      3506.8413    
      1600   299.28926     -32091.578     -6032.5877     -3171.1351      3506.8413    
      1700   289.33593     -32105.808     -8129.6121     -4090.8664      3506.8413    
      1800   285.72432     -32099.547     -8600.4829     -6068.7851      3506.8413    
      1900   298.64114     -32091.394      760.41018     -3900.5126      3506.8413    
      2000   322.85805     -32099.753     -5025.6919     -4676.2882      3506.8413    
Loop time of 75.8484 on 8 procs for 2000 steps with 274 atoms

Performance: 1.139 ns/day, 21.069 hours/ns, 26.368 timesteps/s, 7.225 katom-step/s
98.6% CPU use with 8 MPI tasks x 1 OpenMP threads

MPI task timing breakdown:
Section |  min time  |  avg time  |  max time  |%varavg| %total
---------------------------------------------------------------
Pair    | 41.109     | 59.611     | 63.966     |  91.6 | 78.59
Bond    | 0.00063666 | 0.00081748 | 0.00095625 |   0.0 |  0.00
Neigh   | 3.1448     | 4.283      | 4.587      |  21.0 |  5.65
Comm    | 0.83555    | 5.1984     | 23.708     | 310.2 |  6.85
Output  | 0.00091396 | 0.0010493  | 0.001511   |   0.6 |  0.00
Modify  | 6.4023     | 6.7195     | 7.854      |  16.7 |  8.86
Other   |            | 0.03474    |            |       |  0.05

Nlocal:          34.25 ave          41 max          24 min
Histogram: 2 0 1 0 0 0 0 1 1 3
Nghost:        2765.75 ave        2782 max        2739 min
Histogram: 1 1 0 0 0 0 1 2 1 2
Neighs:        18741.5 ave       22194 max       13374 min
Histogram: 2 0 1 0 0 0 0 1 0 4

Total # of neighbors = 149932
Ave neighs/atom = 547.19708
Ave special neighs/atom = 0
Neighbor list builds = 200
Dangerous builds not checked
  using 1 OpenMP thread(s) per MPI task
Reading restart file ...
  restart file = 2 Aug 2023, LAMMPS = 2 Aug 2023
  restoring atom style full from restart
  triclinic box = (0 0 0) to (16.8189 12.842 16.0755) with tilt (-8.3798 1.195 0.4312)
WARNING: Triclinic box skew is large. LAMMPS will run inefficiently. (src/domain.cpp:220)
  2 by 2 by 2 MPI processor grid
  pair style reaxff stores no restart info
  274 atoms
Finding 1-2 1-3 1-4 neighbors ...
  special bond factors lj:    0        0        0       
  special bond factors coul:  0        0        0       
     0 = max # of 1-2 neighbors
     0 = max # of 1-3 neighbors
     0 = max # of 1-4 neighbors
     1 = max # of special neighbors
  special bonds CPU = 0.000 seconds
  read_restart CPU = 0.003 seconds
*****Negative-change 2 starts.*****
Resetting global fix info from restart file:
  fix style: nvt, fix ID: 4
Changing box ...
WARNING: Triclinic box skew is large. LAMMPS will run inefficiently. (src/domain.cpp:220)
  triclinic box = (0 0 0) to (16.8189 12.71358 16.0755) with tilt (-8.3798 1.195 0.4312)
WARNING: Triclinic box skew is large. LAMMPS will run inefficiently. (src/domain.cpp:220)
  triclinic box = (0 0 0) to (16.8189 12.71358 16.0755) with tilt (-8.3798 1.195 0.426888)
All restart file global fix info was re-assigned
Neighbor list info ...
  update: every = 10 steps, delay = 0 steps, check = no
  max neighbors/atom: 2000, page size: 100000
  master list distance cutoff = 12
  ghost atom cutoff = 12
  binsize = 6, bins = 5 3 3
  2 neighbor lists, perpetual/occasional/extra = 2 0 0
  (1) pair reaxff, perpetual
      attributes: half, newton off, ghost
      pair build: half/bin/newtoff/ghost
      stencil: full/ghost/bin/3d
      bin: standard
  (2) fix qeq/reaxff, perpetual, copy from (1)
      attributes: half, newton off
      pair build: copy
      stencil: none
      bin: none
Setting up Verlet run ...
  Unit style    : real
  Current step  : 0
  Time step     : 0.5
Per MPI rank memory allocation (min/avg/max) = 110.7 | 111.4 | 112 Mbytes
   Step          Temp          PotEng         Press        f_avgp[1]        Volume    
         0   276.58679     -32105.676      20620.448      0              3437.3989    
       100   311.96361     -32112.576      2564.1518     -6124.6059      3437.3989    
       200   315.66139     -32092.292     -9956.548      -1017.7629      3437.3989    
       300   289.814       -32079.97      -10891.284     -3690.678       3437.3989    
       400   298.59073     -32106.926      10485.767     -5891.6184      3437.3989    
       500   285.01045     -32100.359      1043.1127     -4981.6047      3437.3989    
       600   303.16904     -32109.671     -5266.7794     -3703.3507      3437.3989    
       700   310.15861     -32107.204      6440.655       3299.2329      3437.3989    
       800   288.65672     -32091.633     -8095.2908     -4285.3288      3437.3989    
       900   272.113       -32085.172     -3349.6139     -3026.3502      3437.3989    
      1000   279.83222     -32087.814     -10702.566      1203.4503      3437.3989    
      1100   309.1151      -32102.939      4245.6799     -805.47215      3437.3989    
      1200   308.2893      -32103.522      4773.3206      1989.1028      3437.3989    
      1300   292.90485     -32102.178     -3368.7888     -1407.3597      3437.3989    
      1400   307.9633      -32121.61      -1225.3629     -6549.8678      3437.3989    
      1500   320.48626     -32125.206     -10533.005     -8105.3676      3437.3989    
      1600   309.86073     -32102.283     -13645.45      -5806.107       3437.3989    
      1700   313.11595     -32104.902     -9411.0796     -4291.7498      3437.3989    
      1800   303.36366     -32110.436     -2182.25       -2721.5629      3437.3989    
      1900   300.09107     -32123.021     -1192.4176     -2665.8202      3437.3989    
      2000   278.55425     -32107.348     -5179.5351     -10215.864      3437.3989    
Loop time of 77.9007 on 8 procs for 2000 steps with 274 atoms

Performance: 1.109 ns/day, 21.639 hours/ns, 25.674 timesteps/s, 7.035 katom-step/s
98.7% CPU use with 8 MPI tasks x 1 OpenMP threads

MPI task timing breakdown:
Section |  min time  |  avg time  |  max time  |%varavg| %total
---------------------------------------------------------------
Pair    | 42.813     | 61.274     | 65.79      |  90.4 | 78.66
Bond    | 0.00061622 | 0.00082636 | 0.00096584 |   0.0 |  0.00
Neigh   | 3.2516     | 4.383      | 4.6109     |  20.5 |  5.63
Comm    | 0.86701    | 5.3924     | 23.863     | 305.0 |  6.92
Output  | 0.0039292  | 0.0057527  | 0.0072007  |   1.8 |  0.01
Modify  | 6.5715     | 6.8098     | 7.9336     |  16.4 |  8.74
Other   |            | 0.03498    |            |       |  0.04

Nlocal:          34.25 ave          43 max          23 min
Histogram: 1 0 0 2 0 0 3 0 0 2
Nghost:        2847.12 ave        2859 max        2823 min
Histogram: 1 0 0 0 2 0 0 0 2 3
Neighs:        19130.6 ave       23687 max       13112 min
Histogram: 1 0 0 2 0 0 3 0 0 2

Total # of neighbors = 153045
Ave neighs/atom = 558.55839
Ave special neighs/atom = 0
Neighbor list builds = 200
Dangerous builds not checked
*****Equilibration neg2 starts.*****
WARNING: New thermo_style command, previous thermo_modify settings will be lost (src/output.cpp:903)
Neighbor list info ...
  update: every = 10 steps, delay = 0 steps, check = no
  max neighbors/atom: 2000, page size: 100000
  master list distance cutoff = 12
  ghost atom cutoff = 12
  binsize = 6, bins = 5 3 3
  2 neighbor lists, perpetual/occasional/extra = 2 0 0
  (1) pair reaxff, perpetual
      attributes: half, newton off, ghost
      pair build: half/bin/newtoff/ghost
      stencil: full/ghost/bin/3d
      bin: standard
  (2) fix qeq/reaxff, perpetual, copy from (1)
      attributes: half, newton off
      pair build: copy
      stencil: none
      bin: none
Setting up Verlet run ...
  Unit style    : real
  Current step  : 0
  Time step     : 0.5
Per MPI rank memory allocation (min/avg/max) = 110.7 | 111.4 | 112 Mbytes
   Step          Temp          PotEng         Press        f_avgp[1]        Volume    
         0   278.55425     -32107.348     -5179.5127      0              3437.3989    
       100   315.20209     -32131.633     -1899.0265     -6359.1914      3437.3989    
       200   312.58934     -32111.205      1845.8102     -578.54138      3437.3989    
       300   335.74357     -32111.612     -8383.2092     -1767.4349      3437.3989    
       400   290.27452     -32089.377     -9666.4463     -9708.9553      3437.3989    
       500   274.96873     -32107.051     -1705.6176     -9702.3448      3437.3989    
       600   297.23425     -32121.738      5321.9588     -6234.9439      3437.3989    
       700   291.3229      -32102.607      14677.425     -2198.1622      3437.3989    
       800   305.66909     -32110.173      165.1933      -7091.6972      3437.3989    
       900   286.18817     -32099.739      9837.1997     -2146.7435      3437.3989    
      1000   291.30902     -32124.438      2002.7144     -2097.9771      3437.3989    
      1100   273.23501     -32132.195     -17102.041     -9442.0858      3437.3989    
      1200   299.87056     -32136.654      543.46789     -6474.9612      3437.3989    
      1300   288.11665     -32108.281     -6672.2168      585.50816      3437.3989    
      1400   309.25452     -32116.158      2451.7717     -4980.5449      3437.3989    
      1500   299.8736      -32110.203     -13968.014     -9402.6999      3437.3989    
      1600   308.81467     -32111.194     -3429.7876     -4995.9897      3437.3989    
      1700   326.1114      -32113.894     -8308.9466     -4130.0189      3437.3989    
      1800   296.28209     -32091.688     -13370.893     -10969.691      3437.3989    
      1900   312.07733     -32116.388     -5275.4169     -3990.0487      3437.3989    
      2000   291.62925     -32120.177      7866.969      -934.62728      3437.3989    
Loop time of 78.0009 on 8 procs for 2000 steps with 274 atoms

Performance: 1.108 ns/day, 21.667 hours/ns, 25.641 timesteps/s, 7.026 katom-step/s
98.8% CPU use with 8 MPI tasks x 1 OpenMP threads

MPI task timing breakdown:
Section |  min time  |  avg time  |  max time  |%varavg| %total
---------------------------------------------------------------
Pair    | 42.565     | 61.292     | 65.803     |  92.0 | 78.58
Bond    | 0.00059447 | 0.00082937 | 0.00097937 |   0.0 |  0.00
Neigh   | 3.2616     | 4.378      | 4.5773     |  20.2 |  5.61
Comm    | 0.9779     | 5.5011     | 24.239     | 307.2 |  7.05
Output  | 0.00091165 | 0.0010073  | 0.0014871  |   0.6 |  0.00
Modify  | 6.5919     | 6.7937     | 7.9028     |  16.1 |  8.71
Other   |            | 0.03453    |            |       |  0.04

Nlocal:          34.25 ave          43 max          23 min
Histogram: 1 1 1 0 0 0 1 1 1 2
Nghost:        2853.75 ave        2886 max        2828 min
Histogram: 2 0 0 2 0 1 2 0 0 1
Neighs:        19119.4 ave       23698 max       13107 min
Histogram: 1 1 1 0 0 0 1 1 1 2

Total # of neighbors = 152955
Ave neighs/atom = 558.22993
Ave special neighs/atom = 0
Neighbor list builds = 200
Dangerous builds not checked
  using 1 OpenMP thread(s) per MPI task
Reading restart file ...
  restart file = 2 Aug 2023, LAMMPS = 2 Aug 2023
  restoring atom style full from restart
  triclinic box = (0 0 0) to (16.8189 12.842 16.0755) with tilt (-8.3798 1.195 0.4312)
WARNING: Triclinic box skew is large. LAMMPS will run inefficiently. (src/domain.cpp:220)
  2 by 2 by 2 MPI processor grid
  pair style reaxff stores no restart info
  274 atoms
Finding 1-2 1-3 1-4 neighbors ...
  special bond factors lj:    0        0        0       
  special bond factors coul:  0        0        0       
     0 = max # of 1-2 neighbors
     0 = max # of 1-3 neighbors
     0 = max # of 1-4 neighbors
     1 = max # of special neighbors
  special bonds CPU = 0.000 seconds
  read_restart CPU = 0.003 seconds
*****Positive-change 2 starts.*****
Resetting global fix info from restart file:
  fix style: nvt, fix ID: 4
Changing box ...
WARNING: Triclinic box skew is large. LAMMPS will run inefficiently. (src/domain.cpp:220)
  triclinic box = (0 0 0) to (16.8189 12.97042 16.0755) with tilt (-8.3798 1.195 0.4312)
WARNING: Triclinic box skew is large. LAMMPS will run inefficiently. (src/domain.cpp:220)
  triclinic box = (0 0 0) to (16.8189 12.97042 16.0755) with tilt (-8.3798 1.195 0.435512)
All restart file global fix info was re-assigned
Neighbor list info ...
  update: every = 10 steps, delay = 0 steps, check = no
  max neighbors/atom: 2000, page size: 100000
  master list distance cutoff = 12
  ghost atom cutoff = 12
  binsize = 6, bins = 5 3 3
  2 neighbor lists, perpetual/occasional/extra = 2 0 0
  (1) pair reaxff, perpetual
      attributes: half, newton off, ghost
      pair build: half/bin/newtoff/ghost
      stencil: full/ghost/bin/3d
      bin: standard
  (2) fix qeq/reaxff, perpetual, copy from (1)
      attributes: half, newton off
      pair build: copy
      stencil: none
      bin: none
Setting up Verlet run ...
  Unit style    : real
  Current step  : 0
  Time step     : 0.5
Per MPI rank memory allocation (min/avg/max) = 108.9 | 109.2 | 109.6 Mbytes
   Step          Temp          PotEng         Press        f_avgp[1]        Volume    
         0   276.58679     -32088.135     -41998.35       0              3506.8413    
       100   307.74629     -32095.298     -4869.5644     -6158.3395      3506.8413    
       200   322.24308     -32085.937     -20395.388     -4505.1412      3506.8413    
       300   286.52707     -32067.084     -11914.2       -6155.7412      3506.8413    
       400   300.1467      -32100.405      4364.2584     -8239.9239      3506.8413    
       500   297.4243      -32108.114      2312.7324     -5412.6246      3506.8413    
       600   287.54394     -32096.339     -3057.402      -2427.6759      3506.8413    
       700   306.83708     -32089.939     -3345.7385     -3311.2397      3506.8413    
       800   318.03723     -32085.014      4877.4949     -1838.4605      3506.8413    
       900   302.50553     -32080.029     -3070.4588     -5179.6187      3506.8413    
      1000   273.13795     -32063.742     -11905.544     -4150.054       3506.8413    
      1100   320.45856     -32101.677     -1929.6264     -3720.9045      3506.8413    
      1200   317.14037     -32108.158     -7552.7946      114.33373      3506.8413    
      1300   272.6372      -32088.034     -9565.6092     -5685.1582      3506.8413    
      1400   279.77104     -32096.43      -12818.403     -4505.8898      3506.8413    
      1500   303.87076     -32102.305     -3118.1535     -1093.2542      3506.8413    
      1600   308.56592     -32094.983     -1972.4667     -3486.0342      3506.8413    
      1700   284.45872     -32073.783     -17351.048     -9107.2101      3506.8413    
      1800   289.11411     -32078.252     -13710.753     -8008.8167      3506.8413    
      1900   314.8879      -32108.262     -3255.9721     -4300.5275      3506.8413    
      2000   290.85943     -32108.952     -4058.0902     -4619.4273      3506.8413    
Loop time of 74.6185 on 8 procs for 2000 steps with 274 atoms

Performance: 1.158 ns/day, 20.727 hours/ns, 26.803 timesteps/s, 7.344 katom-step/s
98.8% CPU use with 8 MPI tasks x 1 OpenMP threads

MPI task timing breakdown:
Section |  min time  |  avg time  |  max time  |%varavg| %total
---------------------------------------------------------------
Pair    | 40.793     | 55.406     | 62.454     |  99.5 | 74.25
Bond    | 0.0006307  | 0.00081031 | 0.00092678 |   0.0 |  0.00
Neigh   | 3.1422     | 3.9651     | 4.4015     |  23.6 |  5.31
Comm    | 1.4023     | 8.455      | 23.078     | 254.8 | 11.33
Output  | 0.0045412  | 0.0065091  | 0.0081278  |   1.8 |  0.01
Modify  | 6.3109     | 6.7513     | 7.5659     |  18.0 |  9.05
Other   |            | 0.03417    |            |       |  0.05

Nlocal:          34.25 ave          44 max          22 min
Histogram: 1 0 1 1 0 1 1 1 0 2
Nghost:        2771.75 ave        2794 max        2752 min
Histogram: 1 0 2 1 0 0 3 0 0 1
Neighs:        18719.8 ave       23899 max       12241 min
Histogram: 1 0 1 1 0 1 1 1 0 2

Total # of neighbors = 149758
Ave neighs/atom = 546.56204
Ave special neighs/atom = 0
Neighbor list builds = 200
Dangerous builds not checked
*****Equilibration pos2 starts.*****
WARNING: New thermo_style command, previous thermo_modify settings will be lost (src/output.cpp:903)
Neighbor list info ...
  update: every = 10 steps, delay = 0 steps, check = no
  max neighbors/atom: 2000, page size: 100000
  master list distance cutoff = 12
  ghost atom cutoff = 12
  binsize = 6, bins = 5 3 3
  2 neighbor lists, perpetual/occasional/extra = 2 0 0
  (1) pair reaxff, perpetual
      attributes: half, newton off, ghost
      pair build: half/bin/newtoff/ghost
      stencil: full/ghost/bin/3d
      bin: standard
  (2) fix qeq/reaxff, perpetual, copy from (1)
      attributes: half, newton off
      pair build: copy
      stencil: none
      bin: none
Setting up Verlet run ...
  Unit style    : real
  Current step  : 0
  Time step     : 0.5
Per MPI rank memory allocation (min/avg/max) = 108.6 | 108.9 | 109.2 Mbytes
   Step          Temp          PotEng         Press        f_avgp[1]        Volume    
         0   290.85943     -32108.952     -4058.1204      0              3506.8413    
       100   290.52481     -32102.789      3198.6361     -3673.579       3506.8413    
       200   302.0874      -32084.455     -3433.2923     -4861.461       3506.8413    
       300   293.88514     -32060.593     -10990.539     -7042.7379      3506.8413    
       400   320.95655     -32091.931     -3530.3644     -7167.3549      3506.8413    
       500   310.08327     -32098.425     -913.83481     -1158.1784      3506.8413    
       600   296.602       -32092.167     -13811.061     -2283.4767      3506.8413    
       700   300.94496     -32090          4238.541      -4951.7726      3506.8413    
       800   315.18589     -32074.769      909.43698     -7447.2769      3506.8413    
       900   359.59062     -32101.918     -5981.2994      2390.154       3506.8413    
      1000   299.90267     -32089.973     -7615.9002     -1833.3989      3506.8413    
      1100   304.63479     -32101.871     -4082.0045     -2539.311       3506.8413    
      1200   290.58565     -32099.065      383.22293     -7684.4438      3506.8413    
      1300   287.80835     -32115.279     -14443.721     -8293.4966      3506.8413    
      1400   294.80309     -32124.52      -5440.3148     -1820.5462      3506.8413    
      1500   307.20729     -32106.937     -10821.627     -8094.148       3506.8413    
      1600   297.25103     -32081.65      -9626.406      -2454.6392      3506.8413    
      1700   312.69264     -32098.462      229.85818     -4250.2222      3506.8413    
      1800   311.90913     -32115.414     -5772.7362     -368.98877      3506.8413    
      1900   282.11176     -32107.397     -3249.3253      1495.2787      3506.8413    
      2000   276.64319     -32107.659     -8844.4224      157.4937       3506.8413    
Loop time of 74.3738 on 8 procs for 2000 steps with 274 atoms

Performance: 1.162 ns/day, 20.659 hours/ns, 26.891 timesteps/s, 7.368 katom-step/s
98.8% CPU use with 8 MPI tasks x 1 OpenMP threads

MPI task timing breakdown:
Section |  min time  |  avg time  |  max time  |%varavg| %total
---------------------------------------------------------------
Pair    | 42.752     | 55.085     | 62.675     | 110.0 | 74.06
Bond    | 0.00063104 | 0.00080142 | 0.00090441 |   0.0 |  0.00
Neigh   | 3.1106     | 3.9387     | 4.441      |  27.8 |  5.30
Comm    | 0.96549    | 8.5551     | 20.885     | 279.2 | 11.50
Output  | 0.00094861 | 0.0011083  | 0.0019896  |   1.0 |  0.00
Modify  | 6.2558     | 6.7595     | 7.5932     |  21.2 |  9.09
Other   |            | 0.03388    |            |       |  0.05

Nlocal:          34.25 ave          45 max          21 min
Histogram: 1 0 2 0 0 0 2 1 1 1
Nghost:           2772 ave        2797 max        2746 min
Histogram: 1 2 0 0 1 0 2 0 0 2
Neighs:        18716.9 ave       24447 max       11705 min
Histogram: 1 0 2 0 0 0 2 1 1 1

Total # of neighbors = 149735
Ave neighs/atom = 546.4781
Ave special neighs/atom = 0
Neighbor list builds = 200
Dangerous builds not checked
  using 1 OpenMP thread(s) per MPI task
Reading restart file ...
  restart file = 2 Aug 2023, LAMMPS = 2 Aug 2023
  restoring atom style full from restart
  triclinic box = (0 0 0) to (16.8189 12.842 16.0755) with tilt (-8.3798 1.195 0.4312)
WARNING: Triclinic box skew is large. LAMMPS will run inefficiently. (src/domain.cpp:220)
  2 by 2 by 2 MPI processor grid
  pair style reaxff stores no restart info
  274 atoms
Finding 1-2 1-3 1-4 neighbors ...
  special bond factors lj:    0        0        0       
  special bond factors coul:  0        0        0       
     0 = max # of 1-2 neighbors
     0 = max # of 1-3 neighbors
     0 = max # of 1-4 neighbors
     1 = max # of special neighbors
  special bonds CPU = 0.000 seconds
  read_restart CPU = 0.002 seconds
*****Negative-change 3 starts.*****
Resetting global fix info from restart file:
  fix style: nvt, fix ID: 4
Changing box ...
WARNING: Triclinic box skew is large. LAMMPS will run inefficiently. (src/domain.cpp:220)
  triclinic box = (0 0 0) to (16.8189 12.842 15.914745) with tilt (-8.3798 1.195 0.4312)
All restart file global fix info was re-assigned
Neighbor list info ...
  update: every = 10 steps, delay = 0 steps, check = no
  max neighbors/atom: 2000, page size: 100000
  master list distance cutoff = 12
  ghost atom cutoff = 12
  binsize = 6, bins = 5 3 3
  2 neighbor lists, perpetual/occasional/extra = 2 0 0
  (1) pair reaxff, perpetual
      attributes: half, newton off, ghost
      pair build: half/bin/newtoff/ghost
      stencil: full/ghost/bin/3d
      bin: standard
  (2) fix qeq/reaxff, perpetual, copy from (1)
      attributes: half, newton off
      pair build: copy
      stencil: none
      bin: none
Setting up Verlet run ...
  Unit style    : real
  Current step  : 0
  Time step     : 0.5
Per MPI rank memory allocation (min/avg/max) = 110.9 | 111.5 | 112.2 Mbytes
   Step          Temp          PotEng         Press        f_avgp[1]        Volume    
         0   276.58679     -32103.482      22255.684      0              3437.3989    
       100   313.98724     -32112.074     -1303.1593     -4857.1286      3437.3989    
       200   312.64802     -32086.458     -7372.7699     -1940.1726      3437.3989    
       300   305.11518     -32091.001     -9836.1346     -3703.6187      3437.3989    
       400   288.52511     -32097.872      3622.8418     -4977.7031      3437.3989    
       500   290.86893     -32112.354     -7174.1087     -3550.332       3437.3989    
       600   282.3996      -32105.599      3700.5811     -1998.5215      3437.3989    
       700   307.19753     -32104.678     -4171.391      -2833.5968      3437.3989    
       800   310.28946     -32095.938     -6770.3166     -6249.7538      3437.3989    
       900   303.3773      -32095.331     -10946.534     -1622.8765      3437.3989    
      1000   294.3962      -32099.851      5057.5267     -3261.0498      3437.3989    
      1100   318.76519     -32123.425     -1610.2389     -6812.4033      3437.3989    
      1200   287.3499      -32108.499      238.85691      2551.2689      3437.3989    
      1300   277.76683     -32093.788      634.65296     -32.001634      3437.3989    
      1400   298.45649     -32093.53       2346.7399     -6190.0594      3437.3989    
      1500   300.98856     -32083.281     -9167.4446     -3744.3564      3437.3989    
      1600   309.62759     -32095.554     -10074.189     -8395.0916      3437.3989    
      1700   294.81379     -32099.923     -767.58583     -7810.4496      3437.3989    
      1800   298.17849     -32118.197      3790.8357     -3515.1106      3437.3989    
      1900   282.14865     -32107.765     -1884.3572     -8309.985       3437.3989    
      2000   297.39904     -32105.472     -13641.972     -11572.258      3437.3989    
Loop time of 76.9757 on 8 procs for 2000 steps with 274 atoms

Performance: 1.122 ns/day, 21.382 hours/ns, 25.982 timesteps/s, 7.119 katom-step/s
98.8% CPU use with 8 MPI tasks x 1 OpenMP threads

MPI task timing breakdown:
Section |  min time  |  avg time  |  max time  |%varavg| %total
---------------------------------------------------------------
Pair    | 44.218     | 58.727     | 65.01      | 102.8 | 76.29
Bond    | 0.00061863 | 0.00080946 | 0.00094145 |   0.0 |  0.00
Neigh   | 3.2053     | 4.186      | 4.5593     |  27.7 |  5.44
Comm    | 1.0075     | 7.2949     | 21.802     | 291.8 |  9.48
Output  | 0.0040656  | 0.0061701  | 0.0078416  |   2.0 |  0.01
Modify  | 6.3437     | 6.7255     | 7.7145     |  22.0 |  8.74
Other   |            | 0.03549    |            |       |  0.05

Nlocal:          34.25 ave          43 max          25 min
Histogram: 2 1 0 0 0 1 1 1 0 2
Nghost:        2841.12 ave        2854 max        2829 min
Histogram: 1 1 0 1 1 2 0 0 1 1
Neighs:        19130.5 ave       23860 max       14257 min
Histogram: 2 1 0 0 0 1 1 1 0 2

Total # of neighbors = 153044
Ave neighs/atom = 558.55474
Ave special neighs/atom = 0
Neighbor list builds = 200
Dangerous builds not checked
*****Equilibration neg3 starts.*****
WARNING: New thermo_style command, previous thermo_modify settings will be lost (src/output.cpp:903)
Neighbor list info ...
  update: every = 10 steps, delay = 0 steps, check = no
  max neighbors/atom: 2000, page size: 100000
  master list distance cutoff = 12
  ghost atom cutoff = 12
  binsize = 6, bins = 5 3 3
  2 neighbor lists, perpetual/occasional/extra = 2 0 0
  (1) pair reaxff, perpetual
      attributes: half, newton off, ghost
      pair build: half/bin/newtoff/ghost
      stencil: full/ghost/bin/3d
      bin: standard
  (2) fix qeq/reaxff, perpetual, copy from (1)
      attributes: half, newton off
      pair build: copy
      stencil: none
      bin: none
Setting up Verlet run ...
  Unit style    : real
  Current step  : 0
  Time step     : 0.5
Per MPI rank memory allocation (min/avg/max) = 110.9 | 111.5 | 112.2 Mbytes
   Step          Temp          PotEng         Press        f_avgp[1]        Volume    
         0   297.39904     -32105.472     -13641.935      0              3437.3989    
       100   303.8097      -32107.037     -3240.9103     -11616.069      3437.3989    
       200   317.36512     -32114.609      3559.6625     -1488.7044      3437.3989    
       300   285.24829     -32105.982     -9991.1456     -126.40205      3437.3989    
       400   268.22361     -32108.142     -7138.0854     -1376.2693      3437.3989    
       500   301.4256      -32130.243     -6868.0547     -1793.0081      3437.3989    
       600   305.29989     -32104.967     -19831.569     -12620.112      3437.3989    
       700   315.31739     -32104.958     -4541.2753     -3599.4943      3437.3989    
       800   296.4367      -32102.63      -14915.602     -6038.9499      3437.3989    
       900   291.92365     -32105.771     -19965.817     -9588.3794      3437.3989    
      1000   291.25874     -32107.903     -17113.457     -9574.5327      3437.3989    
      1100   324.31255     -32130.945      1850.4656     -4138.799       3437.3989    
      1200   292.79251     -32108.086     -6997.3343      1311.58        3437.3989    
      1300   323.52331     -32127.648     -15355.129     -2675.3313      3437.3989    
      1400   325.17912     -32125.576      2254.68       -8325.228       3437.3989    
      1500   295.69122     -32105.125      1547.2438     -7979.6629      3437.3989    
      1600   289.80527     -32110.189     -3976.0522     -8705.0523      3437.3989    
      1700   292.67965     -32128.71       2517.8528     -8986.1495      3437.3989    
      1800   286.79532     -32134.901      1828.1872     -6277.2933      3437.3989    
      1900   284.8846      -32118.147      3516.2554     -5237.4637      3437.3989    
      2000   301.89849     -32103.474     -3988.7181     -3088.6326      3437.3989    
Loop time of 77.4541 on 8 procs for 2000 steps with 274 atoms

Performance: 1.115 ns/day, 21.515 hours/ns, 25.822 timesteps/s, 7.075 katom-step/s
98.8% CPU use with 8 MPI tasks x 1 OpenMP threads

MPI task timing breakdown:
Section |  min time  |  avg time  |  max time  |%varavg| %total
---------------------------------------------------------------
Pair    | 46.98      | 59.626     | 65.418     |  87.3 | 76.98
Bond    | 0.00062453 | 0.00081594 | 0.00092251 |   0.0 |  0.00
Neigh   | 3.2428     | 4.2471     | 4.554      |  23.5 |  5.48
Comm    | 1.018      | 6.8116     | 19.447     | 258.2 |  8.79
Output  | 0.0008804  | 0.00099744 | 0.0014493  |   0.0 |  0.00
Modify  | 6.4236     | 6.7326     | 7.7508     |  18.9 |  8.69
Other   |            | 0.03459    |            |       |  0.04

Nlocal:          34.25 ave          44 max          23 min
Histogram: 1 0 1 1 0 1 1 1 1 1
Nghost:           2860 ave        2894 max        2831 min
Histogram: 1 1 2 0 0 1 1 1 0 1
Neighs:        19104.9 ave       24367 max       13159 min
Histogram: 1 0 1 1 0 1 1 2 0 1

Total # of neighbors = 152839
Ave neighs/atom = 557.80657
Ave special neighs/atom = 0
Neighbor list builds = 200
Dangerous builds not checked
  using 1 OpenMP thread(s) per MPI task
Reading restart file ...
  restart file = 2 Aug 2023, LAMMPS = 2 Aug 2023
  restoring atom style full from restart
  triclinic box = (0 0 0) to (16.8189 12.842 16.0755) with tilt (-8.3798 1.195 0.4312)
WARNING: Triclinic box skew is large. LAMMPS will run inefficiently. (src/domain.cpp:220)
  2 by 2 by 2 MPI processor grid
  pair style reaxff stores no restart info
  274 atoms
Finding 1-2 1-3 1-4 neighbors ...
  special bond factors lj:    0        0        0       
  special bond factors coul:  0        0        0       
     0 = max # of 1-2 neighbors
     0 = max # of 1-3 neighbors
     0 = max # of 1-4 neighbors
     1 = max # of special neighbors
  special bonds CPU = 0.000 seconds
  read_restart CPU = 0.003 seconds
*****Positive-change 3 starts.*****
Resetting global fix info from restart file:
  fix style: nvt, fix ID: 4
Changing box ...
WARNING: Triclinic box skew is large. LAMMPS will run inefficiently. (src/domain.cpp:220)
  triclinic box = (0 0 0) to (16.8189 12.842 16.236255) with tilt (-8.3798 1.195 0.4312)
All restart file global fix info was re-assigned
Neighbor list info ...
  update: every = 10 steps, delay = 0 steps, check = no
  max neighbors/atom: 2000, page size: 100000
  master list distance cutoff = 12
  ghost atom cutoff = 12
  binsize = 6, bins = 5 3 3
  2 neighbor lists, perpetual/occasional/extra = 2 0 0
  (1) pair reaxff, perpetual
      attributes: half, newton off, ghost
      pair build: half/bin/newtoff/ghost
      stencil: full/ghost/bin/3d
      bin: standard
  (2) fix qeq/reaxff, perpetual, copy from (1)
      attributes: half, newton off
      pair build: copy
      stencil: none
      bin: none
Setting up Verlet run ...
  Unit style    : real
  Current step  : 0
  Time step     : 0.5
Per MPI rank memory allocation (min/avg/max) = 109.3 | 109.7 | 110.2 Mbytes
   Step          Temp          PotEng         Press        f_avgp[1]        Volume    
         0   276.58679     -32091.553     -41578.178      0              3506.8413    
       100   305.45283     -32096.312     -5864.1397     -7230.8623      3506.8413    
       200   312.4563      -32081.82      -12297.07      -1525.3372      3506.8413    
       300   300.32538     -32083.85      -5545.2086     -4385.636       3506.8413    
       400   296.31557     -32105.888      2582.5582     -10712.187      3506.8413    
       500   295.61895     -32117.529     -8509.0308     -4321.5332      3506.8413    
       600   288.53101     -32105.431      932.37224     -2087.1233      3506.8413    
       700   288.70461     -32079.721     -9016.6944     -2788.6796      3506.8413    
       800   327.99285     -32098.696     -17233.906     -6643.2144      3506.8413    
       900   274.76798     -32065.01      -3425.4939     -2636.2809      3506.8413    
      1000   287.54796     -32090.603     -13964.237     -4603.143       3506.8413    
      1100   298.78356     -32110.052      8887.1668     -3082.8341      3506.8413    
      1200   288.38346     -32104          328.93301      3046.6547      3506.8413    
      1300   296.80232     -32103.508     -12994.017     -3771.5304      3506.8413    
      1400   301.99538     -32099.725     -1142.7038     -6896.6022      3506.8413    
      1500   310.28603     -32097.58      -5708.8576     -4457.3726      3506.8413    
      1600   310.03764     -32095.255     -11358.689     -4645.2495      3506.8413    
      1700   296.12468     -32090.529     -9596.8678     -7781.6077      3506.8413    
      1800   292.77097     -32096.077     -5552.5907     -4471.9286      3506.8413    
      1900   297.82463     -32101.576     -8760.2215      1219.5972      3506.8413    
      2000   304.77846     -32107.519     -722.49682     -4513.2191      3506.8413    
Loop time of 75.2522 on 8 procs for 2000 steps with 274 atoms

Performance: 1.148 ns/day, 20.903 hours/ns, 26.577 timesteps/s, 7.282 katom-step/s
98.8% CPU use with 8 MPI tasks x 1 OpenMP threads

MPI task timing breakdown:
Section |  min time  |  avg time  |  max time  |%varavg| %total
---------------------------------------------------------------
Pair    | 41.983     | 58.328     | 63.079     |  85.2 | 77.51
Bond    | 0.00066138 | 0.00082289 | 0.00096663 |   0.0 |  0.00
Neigh   | 3.1143     | 4.1596     | 4.3988     |  20.7 |  5.53
Comm    | 1.242      | 5.9974     | 22.342     | 265.9 |  7.97
Output  | 0.0040533  | 0.0067241  | 0.008818   |   2.5 |  0.01
Modify  | 6.4796     | 6.7248     | 7.7716     |  16.4 |  8.94
Other   |            | 0.03491    |            |       |  0.05

Nlocal:          34.25 ave          42 max          20 min
Histogram: 1 0 0 1 1 0 0 1 2 2
Nghost:        2777.75 ave        2794 max        2761 min
Histogram: 1 1 0 1 0 3 0 0 0 2
Neighs:          18755 ave       22924 max       11151 min
Histogram: 1 0 0 1 1 0 0 1 2 2

Total # of neighbors = 150040
Ave neighs/atom = 547.59124
Ave special neighs/atom = 0
Neighbor list builds = 200
Dangerous builds not checked
*****Equilibration pos3 starts.*****
WARNING: New thermo_style command, previous thermo_modify settings will be lost (src/output.cpp:903)
Neighbor list info ...
  update: every = 10 steps, delay = 0 steps, check = no
  max neighbors/atom: 2000, page size: 100000
  master list distance cutoff = 12
  ghost atom cutoff = 12
  binsize = 6, bins = 5 3 3
  2 neighbor lists, perpetual/occasional/extra = 2 0 0
  (1) pair reaxff, perpetual
      attributes: half, newton off, ghost
      pair build: half/bin/newtoff/ghost
      stencil: full/ghost/bin/3d
      bin: standard
  (2) fix qeq/reaxff, perpetual, copy from (1)
      attributes: half, newton off
      pair build: copy
      stencil: none
      bin: none
Setting up Verlet run ...
  Unit style    : real
  Current step  : 0
  Time step     : 0.5
Per MPI rank memory allocation (min/avg/max) = 109.2 | 109.6 | 110.2 Mbytes
   Step          Temp          PotEng         Press        f_avgp[1]        Volume    
         0   304.77846     -32107.519     -722.45671      0              3506.8413    
       100   286.66212     -32091.791     -9598.0364     -3090.5926      3506.8413    
       200   313.55636     -32092.537     -8578.1095     -3996.6739      3506.8413    
       300   319.73563     -32076.988     -9752.5893     -6682.8925      3506.8413    
       400   308.02219     -32087.658     -8370.7187     -4847.1102      3506.8413    
       500   281.89721     -32079.606      8388.3356     -2196.0719      3506.8413    
       600   302.71534     -32098.28      -11076.104     -4847.7234      3506.8413    
       700   281.02424     -32084.174     -4984.4641     -6216.6352      3506.8413    
       800   291.00593     -32089.116     -11262.28      -4225.2457      3506.8413    
       900   308.60917     -32098.896      411.61351     -4896.522       3506.8413    
      1000   300.43821     -32085.35       914.24783     -7024.1987      3506.8413    
      1100   305.95843     -32086.302     -8906.303      -1988.4624      3506.8413    
      1200   303.50586     -32098.187     -9716.1563     -7441.286       3506.8413    
      1300   277.83004     -32099.924     -6688.5676      1429.4166      3506.8413    
      1400   285.96876     -32102.17      -13750.51      -8534.8605      3506.8413    
      1500   317.28545     -32104.242     -11852.3       -4974.3122      3506.8413    
      1600   314.19812     -32101.028     -7286.17       -5650.1784      3506.8413    
      1700   318.75178     -32098.549      68.130181     -2618.0241      3506.8413    
      1800   301.85526     -32084.791     -872.53504     -1164.3344      3506.8413    
      1900   291.23397     -32091.928      4029.1366     -3917.6356      3506.8413    
      2000   266.5319      -32095.082      2602.769      -3419.1341      3506.8413    
Loop time of 75.2381 on 8 procs for 2000 steps with 274 atoms

Performance: 1.148 ns/day, 20.899 hours/ns, 26.582 timesteps/s, 7.284 katom-step/s
98.9% CPU use with 8 MPI tasks x 1 OpenMP threads

MPI task timing breakdown:
Section |  min time  |  avg time  |  max time  |%varavg| %total
---------------------------------------------------------------
Pair    | 50.196     | 59.478     | 63.088     |  57.3 | 79.05
Bond    | 0.00063751 | 0.00082291 | 0.00097172 |   0.0 |  0.00
Neigh   | 3.7633     | 4.251      | 4.4179     |  10.2 |  5.65
Comm    | 1.1707     | 4.7863     | 14.079     | 202.1 |  6.36
Output  | 0.00085793 | 0.00099679 | 0.0015412  |   0.0 |  0.00
Modify  | 6.5154     | 6.6852     | 7.1669     |   8.1 |  8.89
Other   |            | 0.03542    |            |       |  0.05

Nlocal:          34.25 ave          42 max          22 min
Histogram: 1 0 1 1 0 0 0 1 1 3
Nghost:        2784.75 ave        2805 max        2767 min
Histogram: 1 0 2 1 2 0 0 0 0 2
Neighs:          18695 ave       22642 max       12260 min
Histogram: 1 0 1 1 0 0 0 1 1 3

Total # of neighbors = 149560
Ave neighs/atom = 545.83942
Ave special neighs/atom = 0
Neighbor list builds = 200
Dangerous builds not checked
  using 1 OpenMP thread(s) per MPI task
Reading restart file ...
  restart file = 2 Aug 2023, LAMMPS = 2 Aug 2023
  restoring atom style full from restart
  triclinic box = (0 0 0) to (16.8189 12.842 16.0755) with tilt (-8.3798 1.195 0.4312)
WARNING: Triclinic box skew is large. LAMMPS will run inefficiently. (src/domain.cpp:220)
  2 by 2 by 2 MPI processor grid
  pair style reaxff stores no restart info
  274 atoms
Finding 1-2 1-3 1-4 neighbors ...
  special bond factors lj:    0        0        0       
  special bond factors coul:  0        0        0       
     0 = max # of 1-2 neighbors
     0 = max # of 1-3 neighbors
     0 = max # of 1-4 neighbors
     1 = max # of special neighbors
  special bonds CPU = 0.000 seconds
  read_restart CPU = 0.003 seconds
*****Negative-change 4 starts.*****
Resetting global fix info from restart file:
  fix style: nvt, fix ID: 4
Changing box ...
WARNING: Triclinic box skew is large. LAMMPS will run inefficiently. (src/domain.cpp:220)
  triclinic box = (0 0 0) to (16.8189 12.842 16.0755) with tilt (-8.3798 1.195 0.270445)
All restart file global fix info was re-assigned
Neighbor list info ...
  update: every = 10 steps, delay = 0 steps, check = no
  max neighbors/atom: 2000, page size: 100000
  master list distance cutoff = 12
  ghost atom cutoff = 12
  binsize = 6, bins = 5 3 3
  2 neighbor lists, perpetual/occasional/extra = 2 0 0
  (1) pair reaxff, perpetual
      attributes: half, newton off, ghost
      pair build: half/bin/newtoff/ghost
      stencil: full/ghost/bin/3d
      bin: standard
  (2) fix qeq/reaxff, perpetual, copy from (1)
      attributes: half, newton off
      pair build: copy
      stencil: none
      bin: none
Setting up Verlet run ...
  Unit style    : real
  Current step  : 0
  Time step     : 0.5
Per MPI rank memory allocation (min/avg/max) = 110 | 110.5 | 111 Mbytes
   Step          Temp          PotEng         Press        f_avgp[1]        Volume    
         0   276.58679     -32103.944     -12420.953      0              3472.1201    
       100   308.69886     -32108.012      1179.0203     -4818.2213      3472.1201    
       200   314.55632     -32085.88      -16482.823     -3660.2498      3472.1201    
       300   296.89405     -32078.715     -15020.87      -4368.4023      3472.1201    
       400   313.77863     -32114.22       6805.1968     -6537.3624      3472.1201    
       500   302.66483     -32118.125      624.05152     -2416.4943      3472.1201    
       600   299.8703      -32112.199     -3104.7351     -2064.2488      3472.1201    
       700   299.50068     -32093.343      3447.4626     -1567.4509      3472.1201    
       800   313.36893     -32099.538     -5497.0982     -5306.2143      3472.1201    
       900   281.92126     -32086.235     -1555.5221     -4920.2963      3472.1201    
      1000   290.25429     -32091.398     -20456         -7288.4092      3472.1201    
      1100   301.26883     -32090.218      14840.572      1222.1329      3472.1201    
      1200   305.30632     -32089.922      4289.6565     -1764.7974      3472.1201    
      1300   308.24747     -32098.762     -11973.968     -714.17261      3472.1201    
      1400   308.61717     -32099.104     -9001.4095     -6704.9009      3472.1201    
      1500   299.41004     -32092.139      91.119829     -2356.0114      3472.1201    
      1600   300.30541     -32094.869     -12939.497     -4655.118       3472.1201    
      1700   276.44992     -32085.368     -12468.278     -6766.1755      3472.1201    
      1800   301.81611     -32104.868     -5360.1005     -4696.7059      3472.1201    
      1900   314.12192     -32104.82      -1156.4156     -3616.8405      3472.1201    
      2000   298.3665      -32090.713      5527.7343     -2603.6206      3472.1201    
Loop time of 76.3431 on 8 procs for 2000 steps with 274 atoms

Performance: 1.132 ns/day, 21.206 hours/ns, 26.198 timesteps/s, 7.178 katom-step/s
98.8% CPU use with 8 MPI tasks x 1 OpenMP threads

MPI task timing breakdown:
Section |  min time  |  avg time  |  max time  |%varavg| %total
---------------------------------------------------------------
Pair    | 45.232     | 60.268     | 64.162     |  75.7 | 78.94
Bond    | 0.00061261 | 0.00082422 | 0.00094699 |   0.0 |  0.00
Neigh   | 3.3687     | 4.3048     | 4.519      |  17.1 |  5.64
Comm    | 1.1783     | 5.0804     | 20.13      | 261.2 |  6.65
Output  | 0.0046259  | 0.0068833  | 0.0087061  |   2.1 |  0.01
Modify  | 6.4224     | 6.647      | 7.5724     |  13.7 |  8.71
Other   |            | 0.03537    |            |       |  0.05

Nlocal:          34.25 ave          45 max          22 min
Histogram: 1 1 1 0 0 0 3 0 0 2
Nghost:         2802.5 ave        2820 max        2786 min
Histogram: 3 0 0 0 0 0 3 0 1 1
Neighs:        18901.8 ave       24510 max       12368 min
Histogram: 1 1 1 0 0 0 3 0 0 2

Total # of neighbors = 151214
Ave neighs/atom = 551.87591
Ave special neighs/atom = 0
Neighbor list builds = 200
Dangerous builds not checked
*****Equilibration neg4 starts.*****
WARNING: New thermo_style command, previous thermo_modify settings will be lost (src/output.cpp:903)
Neighbor list info ...
  update: every = 10 steps, delay = 0 steps, check = no
  max neighbors/atom: 2000, page size: 100000
  master list distance cutoff = 12
  ghost atom cutoff = 12
  binsize = 6, bins = 5 3 3
  2 neighbor lists, perpetual/occasional/extra = 2 0 0
  (1) pair reaxff, perpetual
      attributes: half, newton off, ghost
      pair build: half/bin/newtoff/ghost
      stencil: full/ghost/bin/3d
      bin: standard
  (2) fix qeq/reaxff, perpetual, copy from (1)
      attributes: half, newton off
      pair build: copy
      stencil: none
      bin: none
Setting up Verlet run ...
  Unit style    : real
  Current step  : 0
  Time step     : 0.5
Per MPI rank memory allocation (min/avg/max) = 110 | 110.5 | 111 Mbytes
   Step          Temp          PotEng         Press        f_avgp[1]        Volume    
         0   298.3665      -32090.713      5527.7064      0              3472.1201    
       100   289.60448     -32085.964     -13820.114     -5824.213       3472.1201    
       200   279.54288     -32093.861     -11772.671     -3626.3434      3472.1201    
       300   277.34329     -32111.371     -15837.902     -7079.6693      3472.1201    
       400   297.73737     -32122.303     -11363.176     -2939.3342      3472.1201    
       500   305.7154      -32094.301      2992.235      -87.116322      3472.1201    
       600   306.50543     -32083.582     -1362.6237     -10030.466      3472.1201    
       700   308.9956      -32084.101      977.02273     -1997.2102      3472.1201    
       800   302.79425     -32088.575     -18974.674     -5864.8753      3472.1201    
       900   281.78382     -32100.108     -4567.419       2184.2407      3472.1201    
      1000   287.30961     -32105.767     -8507.7106     -3412.5553      3472.1201    
      1100   300.51694     -32105.167      7803.6757     -157.77879      3472.1201    
      1200   300.6987      -32094.565     -7401.5355     -7056.3042      3472.1201    
      1300   274.85764     -32073.678     -6295.0572     -12797.981      3472.1201    
      1400   289.5109      -32086.568     -5071.7915     -9604.307       3472.1201    
      1500   280.41665     -32081.86      -3272.2004     -6709.967       3472.1201    
      1600   300.04423     -32102.364     -8839.8162     -6409.2737      3472.1201    
      1700   309.8633      -32129.637     -744.83001     -9834.3768      3472.1201    
      1800   282.91024     -32110.732     -6618.2646     -2068.2365      3472.1201    
      1900   287.71921     -32090.677     -6628.2345     -10181.719      3472.1201    
      2000   309.87173     -32091.377     -5193.6265     -9652.0715      3472.1201    
Loop time of 75.9149 on 8 procs for 2000 steps with 274 atoms

Performance: 1.138 ns/day, 21.087 hours/ns, 26.345 timesteps/s, 7.219 katom-step/s
98.9% CPU use with 8 MPI tasks x 1 OpenMP threads

MPI task timing breakdown:
Section |  min time  |  avg time  |  max time  |%varavg| %total
---------------------------------------------------------------
Pair    | 41.575     | 57.513     | 64.01      | 118.6 | 75.76
Bond    | 0.00060364 | 0.0008448  | 0.0010277  |   0.0 |  0.00
Neigh   | 3.1461     | 4.073      | 4.4508     |  26.5 |  5.37
Comm    | 1.0205     | 7.5229     | 23.462     | 328.1 |  9.91
Output  | 0.00089802 | 0.00099903 | 0.0014902  |   0.0 |  0.00
Modify  | 6.3781     | 6.7691     | 7.6975     |  20.6 |  8.92
Other   |            | 0.03458    |            |       |  0.05

Nlocal:          34.25 ave          44 max          24 min
Histogram: 2 0 0 1 0 1 1 1 1 1
Nghost:        2788.62 ave        2809 max        2777 min
Histogram: 3 1 0 0 1 0 2 0 0 1
Neighs:        18929.2 ave       23950 max       13456 min
Histogram: 2 0 0 1 0 1 1 1 1 1

Total # of neighbors = 151434
Ave neighs/atom = 552.67883
Ave special neighs/atom = 0
Neighbor list builds = 200
Dangerous builds not checked
  using 1 OpenMP thread(s) per MPI task
Reading restart file ...
  restart file = 2 Aug 2023, LAMMPS = 2 Aug 2023
  restoring atom style full from restart
  triclinic box = (0 0 0) to (16.8189 12.842 16.0755) with tilt (-8.3798 1.195 0.4312)
WARNING: Triclinic box skew is large. LAMMPS will run inefficiently. (src/domain.cpp:220)
  2 by 2 by 2 MPI processor grid
  pair style reaxff stores no restart info
  274 atoms
Finding 1-2 1-3 1-4 neighbors ...
  special bond factors lj:    0        0        0       
  special bond factors coul:  0        0        0       
     0 = max # of 1-2 neighbors
     0 = max # of 1-3 neighbors
     0 = max # of 1-4 neighbors
     1 = max # of special neighbors
  special bonds CPU = 0.000 seconds
  read_restart CPU = 0.003 seconds
*****Positive-change 4 starts.*****
Resetting global fix info from restart file:
  fix style: nvt, fix ID: 4
Changing box ...
WARNING: Triclinic box skew is large. LAMMPS will run inefficiently. (src/domain.cpp:220)
  triclinic box = (0 0 0) to (16.8189 12.842 16.0755) with tilt (-8.3798 1.195 0.591955)
All restart file global fix info was re-assigned
Neighbor list info ...
  update: every = 10 steps, delay = 0 steps, check = no
  max neighbors/atom: 2000, page size: 100000
  master list distance cutoff = 12
  ghost atom cutoff = 12
  binsize = 6, bins = 5 3 3
  2 neighbor lists, perpetual/occasional/extra = 2 0 0
  (1) pair reaxff, perpetual
      attributes: half, newton off, ghost
      pair build: half/bin/newtoff/ghost
      stencil: full/ghost/bin/3d
      bin: standard
  (2) fix qeq/reaxff, perpetual, copy from (1)
      attributes: half, newton off
      pair build: copy
      stencil: none
      bin: none
Setting up Verlet run ...
  Unit style    : real
  Current step  : 0
  Time step     : 0.5
Per MPI rank memory allocation (min/avg/max) = 110.1 | 110.8 | 111.4 Mbytes
   Step          Temp          PotEng         Press        f_avgp[1]        Volume    
         0   276.58679     -32106.194     -9403.4439      0              3472.1201    
       100   306.44239     -32107.341     -3899.1339     -6475.0517      3472.1201    
       200   309.80568     -32079.238     -12819.686     -2518.8486      3472.1201    
       300   302.60245     -32077.411     -10986.213     -4691.162       3472.1201    
       400   305.63268     -32104.298      2162.0738     -8623.7739      3472.1201    
       500   301.52467     -32116.314     -7313.9458     -1387.1683      3472.1201    
       600   285.22426     -32107.046      2773.7312     -3190.0855      3472.1201    
       700   297.85504     -32100.753      2191.4329     -2097.7236      3472.1201    
       800   301.557       -32093.929      3549.3616     -1082.2606      3472.1201    
       900   299.50096     -32089.881     -5099.7637      384.52318      3472.1201    
      1000   283.24        -32075.395     -4681.2925     -2632.752       3472.1201    
      1100   319.33897     -32108.972     -7625.5255     -1214.7046      3472.1201    
      1200   316.27151     -32113.743      5760.4511      5938.1741      3472.1201    
      1300   290.08502     -32097.373      2728.7456      448.94573      3472.1201    
      1400   295.98373     -32108.206     -8920.1118     -6632.9683      3472.1201    
      1500   312.34499     -32119.272     -17121.858     -4608.2714      3472.1201    
      1600   285.37876     -32085.388     -3248.2223      71.754585      3472.1201    
      1700   329.11327     -32103.072     -4752.2561     -651.41173      3472.1201    
      1800   299.25771     -32080.33       1618.842       80.134422      3472.1201    
      1900   316.94391     -32118.443     -6219.1142     -3402.3127      3472.1201    
      2000   282.04398     -32119.837     -4693.2447     -8768.4557      3472.1201    
Loop time of 76.4549 on 8 procs for 2000 steps with 274 atoms

Performance: 1.130 ns/day, 21.237 hours/ns, 26.159 timesteps/s, 7.168 katom-step/s
98.9% CPU use with 8 MPI tasks x 1 OpenMP threads

MPI task timing breakdown:
Section |  min time  |  avg time  |  max time  |%varavg| %total
---------------------------------------------------------------
Pair    | 42.147     | 57.851     | 64.082     |  98.8 | 75.67
Bond    | 0.00064508 | 0.00086866 | 0.0011147  |   0.0 |  0.00
Neigh   | 3.2064     | 4.1472     | 4.4887     |  22.2 |  5.42
Comm    | 1.2577     | 7.5014     | 23.211     | 274.6 |  9.81
Output  | 0.0044196  | 0.0071854  | 0.0093312  |   2.5 |  0.01
Modify  | 6.5595     | 6.913      | 7.8503     |  17.1 |  9.04
Other   |            | 0.03472    |            |       |  0.05

Nlocal:          34.25 ave          43 max          24 min
Histogram: 1 0 2 0 0 0 3 0 1 1
Nghost:        2799.25 ave        2812 max        2787 min
Histogram: 1 1 0 2 1 0 1 0 0 2
Neighs:        18943.4 ave       23619 max       13514 min
Histogram: 1 0 2 0 0 0 3 0 1 1

Total # of neighbors = 151547
Ave neighs/atom = 553.09124
Ave special neighs/atom = 0
Neighbor list builds = 200
Dangerous builds not checked
*****Equilibration pos4 starts.*****
WARNING: New thermo_style command, previous thermo_modify settings will be lost (src/output.cpp:903)
Neighbor list info ...
  update: every = 10 steps, delay = 0 steps, check = no
  max neighbors/atom: 2000, page size: 100000
  master list distance cutoff = 12
  ghost atom cutoff = 12
  binsize = 6, bins = 5 3 3
  2 neighbor lists, perpetual/occasional/extra = 2 0 0
  (1) pair reaxff, perpetual
      attributes: half, newton off, ghost
      pair build: half/bin/newtoff/ghost
      stencil: full/ghost/bin/3d
      bin: standard
  (2) fix qeq/reaxff, perpetual, copy from (1)
      attributes: half, newton off
      pair build: copy
      stencil: none
      bin: none
Setting up Verlet run ...
  Unit style    : real
  Current step  : 0
  Time step     : 0.5
Per MPI rank memory allocation (min/avg/max) = 110.2 | 110.8 | 111.3 Mbytes
   Step          Temp          PotEng         Press        f_avgp[1]        Volume    
         0   282.04398     -32119.837     -4693.2006      0              3472.1201    
       100   277.46578     -32099.007     -4575.4903      3382.5069      3472.1201    
       200   299.58929     -32098.356      7347.6463      1755.0368      3472.1201    
       300   285.60384     -32080.819     -5936.5968     -6376.3597      3472.1201    
       400   301.7652      -32083.363      6590.5852     -3183.1339      3472.1201    
       500   294.79071     -32075.17       3014.6754      4469.9375      3472.1201    
       600   306.67323     -32107.288     -12557.822      1712.6253      3472.1201    
       700   297.20425     -32120.728      4304.4426     -1286.7909      3472.1201    
       800   288.60372     -32111.725      1135.8955      1486.3958      3472.1201    
       900   297.48898     -32095.28      -5032.2506     -417.30342      3472.1201    
      1000   294.03733     -32075.287     -3131.8703     -3644.1584      3472.1201    
      1100   321.29113     -32098.943     -389.64597     -2729.1257      3472.1201    
      1200   301.40767     -32097.46      -2679.7647     -1686.1321      3472.1201    
      1300   284.44349     -32089.17       1304.7827     -6767.2508      3472.1201    
      1400   291.29865     -32092.233     -4186.7897     -6513.5348      3472.1201    
      1500   311.24251     -32092.558     -18049.344     -3764.8518      3472.1201    
      1600   320.9182      -32062.637     -47.486712     -2762.3972      3472.1201    
      1700   320.18995     -32074.803     -10322.109     -3586.1077      3472.1201    
      1800   308.58832     -32093.861      6144.5326     -2607.1432      3472.1201    
      1900   281.76662     -32087.66      -12083.66      -6945.9623      3472.1201    
      2000   295.43293     -32096.952      218.71701     -10850.552      3472.1201    
Loop time of 76.516 on 8 procs for 2000 steps with 274 atoms

Performance: 1.129 ns/day, 21.254 hours/ns, 26.138 timesteps/s, 7.162 katom-step/s
98.7% CPU use with 8 MPI tasks x 1 OpenMP threads

MPI task timing breakdown:
Section |  min time  |  avg time  |  max time  |%varavg| %total
---------------------------------------------------------------
Pair    | 41.442     | 59.025     | 64.481     |  95.2 | 77.14
Bond    | 0.00062774 | 0.00088048 | 0.001131   |   0.0 |  0.00
Neigh   | 3.2005     | 4.2144     | 4.5021     |  20.1 |  5.51
Comm    | 0.97223    | 6.4336     | 24.028     | 288.8 |  8.41
[...]
      1200   318.72967     -32122.278     -413.3707      -9652.4325      3472.1201    
      1300   286.72117     -32094.363     -9849.7796     -6469.5473      3472.1201    
      1400   303.38379     -32099.811     -11299.966     -8045.1485      3472.1201    
      1500   304.04089     -32104.187     -5848.665      -7038.7676      3472.1201    
      1600   297.47999     -32118.849     -8067.0597     -8415.6404      3472.1201    
      1700   289.99789     -32125.886     -16262.805     -10392.066      3472.1201    
      1800   312.35371     -32133.19      -3914.4701     -10954.759      3472.1201    
      1900   311.20994     -32102.973     -4089.0747     -7298.1389      3472.1201    
      2000   314.68339     -32105.956      110.40692     -1823.0045      3472.1201    
Loop time of 76.7331 on 8 procs for 2000 steps with 274 atoms

Performance: 1.126 ns/day, 21.315 hours/ns, 26.064 timesteps/s, 7.142 katom-step/s
98.6% CPU use with 8 MPI tasks x 1 OpenMP threads

MPI task timing breakdown:
Section |  min time  |  avg time  |  max time  |%varavg| %total
---------------------------------------------------------------
Pair    | 56.723     | 62.438     | 64.266     |  30.7 | 81.37
Bond    | 0.00061666 | 0.0008338  | 0.0010708  |   0.0 |  0.00
Neigh   | 4.1479     | 4.45       | 4.6931     |   7.1 |  5.80
Comm    | 1.4569     | 3.2984     | 9.0186     | 134.0 |  4.30
Output  | 0.00089889 | 0.0011327  | 0.0024936  |   1.5 |  0.00
Modify  | 6.2525     | 6.5079     | 6.8062     |   6.2 |  8.48
Other   |            | 0.03716    |            |       |  0.05

Nlocal:          34.25 ave          41 max          20 min
Histogram: 1 0 0 1 0 0 1 1 2 2
Nghost:        2813.12 ave        2830 max        2785 min
Histogram: 1 1 0 0 0 1 1 0 2 2
Neighs:        18902.4 ave       22332 max       11264 min
Histogram: 1 0 0 1 0 0 1 1 2 2

Total # of neighbors = 151219
Ave neighs/atom = 551.89416
Ave special neighs/atom = 0
Neighbor list builds = 200
Dangerous builds not checked
  using 1 OpenMP thread(s) per MPI task
Reading restart file ...
  restart file = 2 Aug 2023, LAMMPS = 2 Aug 2023
  restoring atom style full from restart
  triclinic box = (0 0 0) to (16.8189 12.842 16.0755) with tilt (-8.3798 1.195 0.4312)
WARNING: Triclinic box skew is large. LAMMPS will run inefficiently. (src/domain.cpp:220)
  2 by 2 by 2 MPI processor grid
  pair style reaxff stores no restart info
  274 atoms
Finding 1-2 1-3 1-4 neighbors ...
  special bond factors lj:    0        0        0       
  special bond factors coul:  0        0        0       
     0 = max # of 1-2 neighbors
     0 = max # of 1-3 neighbors
     0 = max # of 1-4 neighbors
     1 = max # of special neighbors
  special bonds CPU = 0.000 seconds
  read_restart CPU = 0.004 seconds
*****Negative-change 6 starts.*****
Resetting global fix info from restart file:
  fix style: nvt, fix ID: 4
Changing box ...
WARNING: Triclinic box skew is large. LAMMPS will run inefficiently. (src/domain.cpp:220)
  triclinic box = (0 0 0) to (16.8189 12.842 16.0755) with tilt (-8.50822 1.195 0.4312)
All restart file global fix info was re-assigned
Neighbor list info ...
  update: every = 10 steps, delay = 0 steps, check = no
  max neighbors/atom: 2000, page size: 100000
  master list distance cutoff = 12
  ghost atom cutoff = 12
  binsize = 6, bins = 5 3 3
  2 neighbor lists, perpetual/occasional/extra = 2 0 0
  (1) pair reaxff, perpetual
      attributes: half, newton off, ghost
      pair build: half/bin/newtoff/ghost
      stencil: full/ghost/bin/3d
      bin: standard
  (2) fix qeq/reaxff, perpetual, copy from (1)
      attributes: half, newton off
      pair build: copy
      stencil: none
      bin: none
Setting up Verlet run ...
  Unit style    : real
  Current step  : 0
  Time step     : 0.5
Per MPI rank memory allocation (min/avg/max) = 110.5 | 110.9 | 111.4 Mbytes
   Step          Temp          PotEng         Press        f_avgp[1]        Volume    
         0   276.58679     -32109.85      -12427.154      0              3472.1201    
       100   304.80264     -32108.504     -3069.5231     -6496.2399      3472.1201    
       200   319.09818     -32088.437     -1539.2765     -615.33007      3472.1201    
       300   305.91879     -32081.494     -4749.4518     -3498.9254      3472.1201    
       400   285.53134     -32088.765      227.2488      -5725.8429      3472.1201    
       500   315.80558     -32132.203     -13318.762     -4784.0965      3472.1201    
       600   274.53567     -32109.354      3406.2972     -5077.0652      3472.1201    
       700   280.90798     -32100.76       9611.6735      1881.6518      3472.1201    
       800   315.77911     -32109.88      -2898.0247     -4345.3716      3472.1201    
       900   279.86573     -32071.516     -9501.6297     -2729.271       3472.1201    
      1000   300.65141     -32083.601     -4262.4662     -8113.3452      3472.1201    
      1100   300.03173     -32089.505     -10600.794     -12859.479      3472.1201    
      1200   290.0494      -32095.669     -1487.6681     -3633.4958      3472.1201    
      1300   293.97773     -32103.655      11118.903     -2134.4978      3472.1201    
      1400   286.34249     -32098.075      2208.5629     -9711.7298      3472.1201    
      1500   297.31341     -32091.917     -15527.376     -5927.835       3472.1201    
      1600   318.1005      -32090.885     -2063.3405     -4237.464       3472.1201    
      1700   291.70249     -32080.5       -2639.333      -7593.7467      3472.1201    
      1800   304.25592     -32110.861     -9512.4156     -4912.7179      3472.1201    
      1900   297.97451     -32120.222     -13718.056     -8178.7223      3472.1201    
      2000   300.96191     -32122.018     -14746.716     -2762.8058      3472.1201    
Loop time of 77.1341 on 8 procs for 2000 steps with 274 atoms

Performance: 1.120 ns/day, 21.426 hours/ns, 25.929 timesteps/s, 7.105 katom-step/s
98.8% CPU use with 8 MPI tasks x 1 OpenMP threads

MPI task timing breakdown:
Section |  min time  |  avg time  |  max time  |%varavg| %total
---------------------------------------------------------------
Pair    | 61.406     | 63.177     | 64.594     |  16.9 | 81.91
Bond    | 0.0006544  | 0.00083202 | 0.0010501  |   0.0 |  0.00
Neigh   | 4.4037     | 4.5295     | 4.7161     |   4.7 |  5.87
Comm    | 1.369      | 2.8004     | 4.5849     |  80.8 |  3.63
Output  | 0.0045078  | 0.0070767  | 0.0094875  |   2.3 |  0.01
Modify  | 6.3836     | 6.5815     | 6.7143     |   4.3 |  8.53
Other   |            | 0.03816    |            |       |  0.05

Nlocal:          34.25 ave          44 max          24 min
Histogram: 1 1 1 0 0 0 2 1 1 1
Nghost:        2836.38 ave        2852 max        2819 min
Histogram: 1 1 0 0 2 1 0 1 0 2
Neighs:        18931.8 ave       24136 max       13532 min
Histogram: 2 1 0 0 0 0 3 0 1 1

Total # of neighbors = 151454
Ave neighs/atom = 552.75182
Ave special neighs/atom = 0
Neighbor list builds = 200
Dangerous builds not checked
*****Equilibration neg6 starts.*****
WARNING: New thermo_style command, previous thermo_modify settings will be lost (src/output.cpp:903)
Neighbor list info ...
  update: every = 10 steps, delay = 0 steps, check = no
  max neighbors/atom: 2000, page size: 100000
  master list distance cutoff = 12
  ghost atom cutoff = 12
  binsize = 6, bins = 5 3 3
  2 neighbor lists, perpetual/occasional/extra = 2 0 0
  (1) pair reaxff, perpetual
      attributes: half, newton off, ghost
      pair build: half/bin/newtoff/ghost
      stencil: full/ghost/bin/3d
      bin: standard
  (2) fix qeq/reaxff, perpetual, copy from (1)
      attributes: half, newton off
      pair build: copy
      stencil: none
      bin: none
Setting up Verlet run ...
  Unit style    : real
  Current step  : 0
  Time step     : 0.5
Per MPI rank memory allocation (min/avg/max) = 110.5 | 110.9 | 111.3 Mbytes
   Step          Temp          PotEng         Press        f_avgp[1]        Volume    
         0   300.96191     -32122.018     -14746.72       0              3472.1201    
       100   309.4712      -32124.794     -12225.866     -6061.5137      3472.1201    
       200   296.85556     -32094.03       9988.0242     -748.14262      3472.1201    
       300   297.72054     -32071.831      6271.9979     -3345.0803      3472.1201    
       400   286.99935     -32068.089     -4869.0165     -7335.3036      3472.1201    
       500   301.73416     -32094.849     -2848.1856     -9142.6077      3472.1201    
       600   298.87726     -32120.921      4211.8036     -4400.6981      3472.1201    
       700   274.49507     -32113.887     -205.30458     -1481.6616      3472.1201    
       800   276.4848      -32102.636     -4535.6535     -2610.8285      3472.1201    
       900   310.01793     -32106.856     -51.712192     -5345.7399      3472.1201    
      1000   313.51606     -32095.549     -3709.5012     -7277.4985      3472.1201    
      1100   310.08272     -32098.66       1254.8214     -3324.646       3472.1201    
      1200   282.07699     -32102.243     -11052.652     -5243.8774      3472.1201    
      1300   281.49785     -32103.986     -17993.3       -2098.2739      3472.1201    
      1400   286.29468     -32099.475     -3758.5681     -5916.6825      3472.1201    
      1500   285.55999     -32091.353      8617.0357     -6095.9343      3472.1201    
      1600   300.45532     -32094.925     -10554.542     -6439.4796      3472.1201    
      1700   304.01127     -32094.681      7812.5675     -996.23376      3472.1201    
      1800   306.6009      -32094.56       2977.538      -942.97345      3472.1201    
      1900   300.25481     -32098.94      -8764.7418     -6202.5735      3472.1201    
      2000   285.5904      -32094.311      3874.371       374.93467      3472.1201    
Loop time of 76.7276 on 8 procs for 2000 steps with 274 atoms

Performance: 1.126 ns/day, 21.313 hours/ns, 26.066 timesteps/s, 7.142 katom-step/s
98.7% CPU use with 8 MPI tasks x 1 OpenMP threads

MPI task timing breakdown:
Section |  min time  |  avg time  |  max time  |%varavg| %total
---------------------------------------------------------------
Pair    | 51.821     | 60.18      | 64.386     |  53.9 | 78.43
Bond    | 0.00064624 | 0.00082024 | 0.00096693 |   0.0 |  0.00
Neigh   | 3.786      | 4.327      | 4.7167     |  15.4 |  5.64
Comm    | 1.2079     | 5.4333     | 13.804     | 179.4 |  7.08
Output  | 0.00089297 | 0.0010236  | 0.0015996  |   0.7 |  0.00
Modify  | 6.3469     | 6.7488     | 7.281      |  12.5 |  8.80
Other   |            | 0.03683    |            |       |  0.05

Nlocal:          34.25 ave          46 max          23 min
Histogram: 2 0 1 0 0 2 1 0 1 1
Nghost:        2817.62 ave        2854 max        2778 min
Histogram: 1 1 0 0 1 2 0 2 0 1
Neighs:        18934.4 ave       25179 max       12842 min
Histogram: 2 0 1 0 0 2 1 0 1 1

Total # of neighbors = 151475
Ave neighs/atom = 552.82847
Ave special neighs/atom = 0
Neighbor list builds = 200
Dangerous builds not checked
  using 1 OpenMP thread(s) per MPI task
Reading restart file ...
  restart file = 2 Aug 2023, LAMMPS = 2 Aug 2023
  restoring atom style full from restart
  triclinic box = (0 0 0) to (16.8189 12.842 16.0755) with tilt (-8.3798 1.195 0.4312)
WARNING: Triclinic box skew is large. LAMMPS will run inefficiently. (src/domain.cpp:220)
  2 by 2 by 2 MPI processor grid
  pair style reaxff stores no restart info
  274 atoms
Finding 1-2 1-3 1-4 neighbors ...
  special bond factors lj:    0        0        0       
  special bond factors coul:  0        0        0       
     0 = max # of 1-2 neighbors
     0 = max # of 1-3 neighbors
     0 = max # of 1-4 neighbors
     1 = max # of special neighbors
  special bonds CPU = 0.000 seconds
  read_restart CPU = 0.003 seconds
*****Positive-change 6 starts.*****
Resetting global fix info from restart file:
  fix style: nvt, fix ID: 4
Changing box ...
WARNING: Triclinic box skew is large. LAMMPS will run inefficiently. (src/domain.cpp:220)
  triclinic box = (0 0 0) to (16.8189 12.842 16.0755) with tilt (-8.25138 1.195 0.4312)
All restart file global fix info was re-assigned
Neighbor list info ...
  update: every = 10 steps, delay = 0 steps, check = no
  max neighbors/atom: 2000, page size: 100000
  master list distance cutoff = 12
  ghost atom cutoff = 12
  binsize = 6, bins = 5 3 3
  2 neighbor lists, perpetual/occasional/extra = 2 0 0
  (1) pair reaxff, perpetual
      attributes: half, newton off, ghost
      pair build: half/bin/newtoff/ghost
      stencil: full/ghost/bin/3d
      bin: standard
  (2) fix qeq/reaxff, perpetual, copy from (1)
      attributes: half, newton off
      pair build: copy
      stencil: none
      bin: none
Setting up Verlet run ...
  Unit style    : real
  Current step  : 0
  Time step     : 0.5
Per MPI rank memory allocation (min/avg/max) = 109.7 | 110.3 | 110.7 Mbytes
   Step          Temp          PotEng         Press        f_avgp[1]        Volume    
         0   276.58679     -32101.864     -10182.208      0              3472.1201    
       100   308.68014     -32106          1604.9786     -5875.0269      3472.1201    
       200   323.67813     -32092.096     -7524.6925     -2837.4666      3472.1201    
       300   294.33396     -32076.574     -22106.11      -5939.0983      3472.1201    
       400   292.77312     -32100.073      1681.6841     -6443.4217      3472.1201    
       500   272.195       -32096.845     -8893.5279     -3745.5031      3472.1201    
       600   273.54799     -32095.829      1261.4812     -534.78183      3472.1201    
       700   317.76545     -32106.23       7626.1758      2744.5816      3472.1201    
       800   295.33068     -32070.954     -6355.5095     -821.0738       3472.1201    
       900   299.405       -32079.234     -2903.2076     -3305.343       3472.1201    
      1000   298.94678     -32093.237     -11006.849     -12170.815      3472.1201    
      1100   318.88297     -32112.752      8214.6386     -2205.2014      3472.1201    
      1200   298.7439      -32103.281      16345.781      8880.3284      3472.1201    
      1300   294.6935      -32104.525     -3447.998      -2900.4472      3472.1201    
      1400   312.11195     -32109.471     -10075.615     -6440.0131      3472.1201    
      1500   292.36255     -32086.847     -11191.802     -6883.1791      3472.1201    
      1600   303.45388     -32092.329      2220.6948     -3954.2198      3472.1201    
      1700   312.93452     -32109.178     -8861.0752     -1338.1195      3472.1201    
      1800   291.14572     -32105.352     -5683.0125     -8125.3935      3472.1201    
      1900   299.12366     -32113.075     -4422.9015     -3000.9576      3472.1201    
      2000   290.10948     -32094.376     -2760.1613     -5276.6773      3472.1201    
Loop time of 71.1824 on 8 procs for 2000 steps with 274 atoms

Performance: 1.214 ns/day, 19.773 hours/ns, 28.097 timesteps/s, 7.699 katom-step/s
98.9% CPU use with 8 MPI tasks x 1 OpenMP threads

MPI task timing breakdown:
Section |  min time  |  avg time  |  max time  |%varavg| %total
---------------------------------------------------------------
Pair    | 41.267     | 54.06      | 59.557     |  90.1 | 75.95
Bond    | 0.00054907 | 0.00074798 | 0.00089686 |   0.0 |  0.00
Neigh   | 3.1226     | 4.1391     | 4.6149     |  25.9 |  5.81
Comm    | 0.89611    | 6.3983     | 19.178     | 261.5 |  8.99
Output  | 0.0037236  | 0.0057672  | 0.0073276  |   2.0 |  0.01
Modify  | 6.0533     | 6.5445     | 7.5779     |  21.2 |  9.19
Other   |            | 0.03444    |            |       |  0.05

Nlocal:          34.25 ave          44 max          21 min
Histogram: 2 0 0 1 0 0 1 1 1 2
Nghost:        2789.62 ave        2806 max        2776 min
Histogram: 1 2 0 0 2 0 1 0 0 2
Neighs:        18898.2 ave       24134 max       11773 min
Histogram: 2 0 0 1 0 0 1 1 1 2

Total # of neighbors = 151186
Ave neighs/atom = 551.77372
Ave special neighs/atom = 0
Neighbor list builds = 200
Dangerous builds not checked
*****Equilibration pos6 starts.*****
WARNING: New thermo_style command, previous thermo_modify settings will be lost (src/output.cpp:903)
Neighbor list info ...
  update: every = 10 steps, delay = 0 steps, check = no
  max neighbors/atom: 2000, page size: 100000
  master list distance cutoff = 12
  ghost atom cutoff = 12
  binsize = 6, bins = 5 3 3
  2 neighbor lists, perpetual/occasional/extra = 2 0 0
  (1) pair reaxff, perpetual
      attributes: half, newton off, ghost
      pair build: half/bin/newtoff/ghost
      stencil: full/ghost/bin/3d
      bin: standard
  (2) fix qeq/reaxff, perpetual, copy from (1)
      attributes: half, newton off
      pair build: copy
      stencil: none
      bin: none
Setting up Verlet run ...
  Unit style    : real
  Current step  : 0
  Time step     : 0.5
Per MPI rank memory allocation (min/avg/max) = 109.7 | 110.2 | 110.7 Mbytes
   Step          Temp          PotEng         Press        f_avgp[1]        Volume    
         0   290.10948     -32094.376     -2760.2217      0              3472.1201    
       100   312.30408     -32106.937      8868.4984     -240.70775      3472.1201    
       200   325.28251     -32111.615     -258.03443      1865.7962      3472.1201    
       300   309.95019     -32118.228     -7379.038      -4213.6512      3472.1201    
       400   304.40482     -32130.973     -249.93521     -1665.9103      3472.1201    
       500   279.3113      -32113.929     -5648.1981     -3500.9914      3472.1201    
       600   313.35366     -32114.353      8038.4804     -6320.8117      3472.1201    
       700   316.1014      -32102.307     -15358.166     -4389.2658      3472.1201    
       800   279.41038     -32080.657     -9686.7994     -7316.5818      3472.1201    
       900   306.82369     -32105.717      256.83958     -7927.2712      3472.1201    
      1000   293.86921     -32099.615     -3252.3861     -1498.431       3472.1201    
      1100   285.36724     -32090.592      2054.6574     -2288.2784      3472.1201    
      1200   301.09049     -32101.749     -9248.0081     -10475.083      3472.1201    
      1300   296.08565     -32104.672      2042.2693     -9858.0268      3472.1201    
      1400   297.44942     -32122.62      -5689.7309     -8019.6666      3472.1201    
      1500   277.56063     -32112.503      2998.5257     -672.53882      3472.1201    
      1600   298.77501     -32110.261     -2493.9303     -2229.9558      3472.1201    
      1700   316.143       -32097.974     -3400.1195     -4664.7795      3472.1201    
      1800   296.43494     -32079.625     -819.66433      1447.1567      3472.1201    
      1900   290.33861     -32092.907     -2130.2152     -6878.0149      3472.1201    
      2000   275.81936     -32097.304      1943.1092     -4616.6871      3472.1201    
Loop time of 70.2905 on 8 procs for 2000 steps with 274 atoms

Performance: 1.229 ns/day, 19.525 hours/ns, 28.453 timesteps/s, 7.796 katom-step/s
98.8% CPU use with 8 MPI tasks x 1 OpenMP threads

MPI task timing breakdown:
Section |  min time  |  avg time  |  max time  |%varavg| %total
---------------------------------------------------------------
Pair    | 40.097     | 53.006     | 58.82      | 101.3 | 75.41
Bond    | 0.00052306 | 0.00071894 | 0.00085269 |   0.0 |  0.00
Neigh   | 3.1136     | 4.1074     | 4.6425     |  28.7 |  5.84
Comm    | 0.84394    | 6.6528     | 19.547     | 285.7 |  9.46
Output  | 0.00085114 | 0.00093919 | 0.0012343  |   0.0 |  0.00
Modify  | 5.9379     | 6.4891     | 7.5051     |  23.3 |  9.23
Other   |            | 0.03383    |            |       |  0.05

Nlocal:          34.25 ave          42 max          24 min
Histogram: 2 0 0 1 0 0 0 2 2 1
Nghost:        2784.25 ave        2808 max        2754 min
Histogram: 1 0 1 0 0 3 0 0 2 1
Neighs:        18903.5 ave       23075 max       13489 min
Histogram: 2 0 0 1 0 0 0 2 2 1

Total # of neighbors = 151228
Ave neighs/atom = 551.92701
Ave special neighs/atom = 0
Neighbor list builds = 200
Dangerous builds not checked
Total wall time: 0:31:41
