ITEM: TIMESTEP
0
ITEM: NUMBER OF ATOMS
366
ITEM: BOX BOUNDS xy xz yz pp pp pp
-7.5839999999999996e+00 1.5901800000000000e+01 -7.5839999999999996e+00
0.0000000000000000e+00 1.4167735000000000e+01 1.7780000000000001e-01
0.0000000000000000e+00 1.7246500000000001e+01 2.6463499999999995e-01
ITEM: ATOMS id type x y z
355 3 1.74748 0.68611 0.625605
5 4 0.872422 2.16774 5.51822
9 4 0.249438 4.15074 1.73086
11 4 -0.443663 4.7263 7.0299
27 4 1.52989 6.71369 3.42471
29 4 5.341 3.80597 7.9506
64 1 2.22314 2.71043 4.25908
69 1 -1.94692 5.3469 5.88411
70 1 0.855996 6.1217 7.04209
76 1 5.28088 1.58503 4.88326
77 1 3.0457 6.30247 4.60188
79 1 4.1565 4.98814 6.93006
98 3 -0.280498 1.55404 4.70368
99 3 1.67219 1.20197 6.57689
102 3 -0.853743 3.32286 2.7273
103 3 1.3672 3.15285 1.14259
104 3 -0.566552 4.86014 0.506215
105 3 0.303433 3.55545 6.28614
115 3 6.89231 1.18417 0.860449
124 3 1.05017 5.43436 2.6762
324 1 3.99978 0.383344 2.33527
199 2 1.82627 2.28639 3.32059
200 2 3.34771 2.31663 4.46598
201 2 2.06955 3.80812 4.47197
210 2 -1.31037 6.64308 2.56233
303 4 5.11884 4.82113 1.40647
215 2 -1.73732 5.09996 4.84292
216 2 -2.13232 6.45324 5.98045
218 2 1.73982 6.141 6.15698
219 2 1.26782 5.84953 8.11301
235 2 4.62983 0.745223 5.39241
236 2 5.90587 1.28559 3.88648
237 2 4.74066 2.56639 4.77813
238 2 3.75683 6.29437 3.76333
239 2 3.00741 5.2871 5.06736
241 2 -0.637378 6.62012 4.91644
244 2 3.11504 5.25736 7.43643
245 2 4.01475 4.66639 5.82042
23 4 6.89072 1.8384 5.90146
305 1 4.09906 3.90891 2.69588
310 3 4.04614 5.83172 0.728025
312 2 4.39082 2.82137 2.7689
313 2 2.97195 4.07445 2.40456
314 2 4.44811 4.48659 3.64873
326 2 3.77779 1.53686 2.34411
118 3 7.14654 0.655508 6.91249
10 4 -1.17796 6.332 0.0510413
358 2 4.9386 0.29304 1.74676
254 2 1.94334 6.28782 10.0673
8 4 1.54544 2.09285 11.8181
331 1 -1.18694 3.66395 14.2377
22 4 3.7516 1.87486 9.83952
25 4 4.14164 2.29013 15.234
26 4 6.35428 2.3464 11.4845
333 2 -1.44659 4.58754 14.8914
342 2 5.88008 0.252745 14.5034
65 1 -0.363632 1.83307 11.2344
66 1 1.77221 3.70679 12.9436
253 2 1.69331 5.42831 11.7901
81 1 1.02767 6.25981 14.3628
82 1 1.82312 6.45975 11.2101
100 3 0.240771 2.31795 16.1236
101 3 2.01305 0.808302 12.6947
106 3 -2.38285 6.63734 16.4795
116 3 3.19217 0.591161 8.76506
117 3 2.36386 2.37805 10.4802
119 3 3.78885 0.89506 14.4911
120 3 5.43994 1.97654 16.1062
121 3 2.88108 2.79089 16.2172
122 3 4.85681 1.58213 10.9508
123 3 7.22887 1.37612 12.466
127 3 4.53554 3.449 14.2951
131 3 4.22579 5.57262 12.5861
202 2 -0.583293 2.76305 10.3499
30 4 5.21384 4.61097 13.4004
332 2 -0.0663625 3.64308 13.7813
205 2 2.76203 4.22708 12.7709
206 2 1.70696 3.33034 13.9806
207 2 0.843356 4.30321 12.5983
251 2 1.28386 6.37849 13.1442
212 2 -0.972997 5.08204 9.61337
213 2 0.175054 3.66426 8.98219
68 1 -0.950001 4.15922 8.96729
3 4 1.55491 2.3797 17.1322
250 2 1.72134 5.44952 14.7791
252 2 -0.104337 6.15223 14.5483
203 2 -0.800476 2.07953 12.2597
32 4 3.67811 6.95464 11.8786
125 3 4.33234 2.99905 8.83659
20 4 6.65649 2.61362 16.9438
255 2 0.911539 7.10076 11.4806
1 4 -5.1927 13.525 1.60056
338 2 -3.87514 9.35429 1.59777
14 4 -2.27634 9.76494 7.60668
15 4 -3.52162 11.8986 5.59015
67 1 -1.60808 7.22654 1.6592
34 4 -0.940064 12.1464 3.90703
136 3 1.69127 10.2241 1.38492
328 2 -5.28975 11.6528 7.61593
71 1 -3.40939 8.35388 7.78588
72 1 -0.726504 8.94132 6.68045
78 1 0.156775 7.41783 4.445
84 1 -1.15793 10.6716 2.67341
325 2 -3.3916 13.9249 3.41445
107 3 -6.0965 13.0982 2.9268
108 3 -4.77958 12.0716 0.910993
109 3 -5.02104 11.5314 4.85262
110 3 -2.95451 10.8172 6.58915
111 3 -3.80876 13.4046 6.41966
132 3 2.16471 7.94485 2.65167
134 3 -0.640117 13.3702 2.82635
135 3 -2.3924 12.2483 4.53114
337 1 -3.41264 9.40824 0.54203
141 3 0.344505 11.7396 4.83395
142 3 1.77991 10.3308 6.56658
222 2 -4.27759 8.45321 7.01263
209 2 -0.858952 8.12701 1.47089
217 2 0.227122 7.16989 6.91898
221 2 -2.7128 7.51663 7.63194
264 2 1.19008 7.70409 8.30703
223 2 -1.14954 7.9322 6.34541
224 2 0.103888 8.87222 7.54512
225 2 -0.328617 9.63886 5.83354
240 2 3.33467 7.13913 5.41607
242 2 -0.39959 8.22752 3.88408
243 2 0.880559 7.82418 5.265
259 2 -0.127405 10.4705 2.26053
260 2 -1.94923 10.8401 1.90166
261 2 -1.53623 9.84722 3.40876
339 2 -2.34528 9.64489 0.59207
4 4 -4.90957 13.9297 7.42015
327 1 -6.11809 12.4719 7.73325
13 4 -6.38427 11.8943 3.89613
208 2 -2.69168 7.51882 1.58297
269 2 3.56722 7.54477 7.23613
6 4 -4.83368 13.7542 13.7367
16 4 -2.23777 8.97745 13.2762
18 4 -3.48343 11.62 11.6997
31 4 1.56185 7.70723 15.4957
37 4 -0.959532 11.5746 10.0112
147 3 2.18915 10.7458 12.5382
227 2 -0.0428763 7.49737 13.056
73 1 -0.715345 8.19043 12.2972
74 1 -1.19472 9.83504 14.6897
75 1 -5.02079 11.32 10.6376
86 1 1.51843 8.69671 8.93698
112 3 -2.99887 7.90529 14.2483
113 3 -2.91198 10.1077 12.3829
114 3 -3.89457 12.5455 12.8748
361 2 -3.45486 8.74366 17.1082
130 3 0.303548 7.74671 16.4316
138 3 -1.6385 10.396 9.04523
140 3 -2.16424 12.286 10.7511
144 3 1.59197 9.25556 14.5696
85 1 0.429906 11.2291 16.4102
146 3 0.266618 10.983 10.9108
139 3 -0.269893 12.6291 9.01221
220 2 -3.82206 8.32455 8.93728
282 2 -3.88419 7.66007 11.1809
228 2 -0.172768 9.12404 11.8021
229 2 -1.7573 10.6654 15.2464
230 2 -0.509138 10.3425 14.0128
231 2 -0.666085 9.09759 15.4128
129 3 2.97693 7.3789 16.2249
233 2 -4.72003 10.8659 9.70612
234 2 -5.35126 12.4355 10.4799
226 2 -1.35991 7.63415 11.5967
263 2 0.971917 10.463 15.7231
301 2 -1.5518 11.9746 16.4115
265 2 0.658823 9.35612 9.22234
266 2 2.11129 8.3788 9.89858
297 4 -3.99848 11.2682 17.0071
298 1 -2.59678 12.4193 16.1393
299 3 -4.99116 10.9301 15.8756
300 2 -2.94823 12.2647 15.053
362 2 -0.0148415 12.1597 15.749
302 2 -2.76702 13.4584 16.5399
340 1 -0.776948 13.6752 14.6545
341 2 -0.807738 12.5371 14.3092
40 4 1.5992 11.8598 11.5929
343 2 -0.42098 13.8155 15.7271
356 3 -5.98422 12.9776 14.5592
145 3 3.40056 8.35313 12.6852
262 2 -0.304281 10.76 17.1453
2 4 14.244 2.1454 3.63025
43 4 11.5489 2.02858 0.181715
19 4 7.88585 0.267846 1.69333
322 2 5.76033 5.19797 5.63642
42 4 9.31362 2.03419 3.84074
46 4 11.943 1.85278 5.60789
50 4 10.348 4.25698 1.89514
52 4 10.4314 3.86628 7.55229
89 1 11.6759 5.4445 2.57823
90 1 9.78478 4.99195 6.14453
214 2 13.0401 4.62882 6.45065
126 3 6.35884 3.09256 6.81951
149 3 13.7601 0.876988 2.82528
150 3 8.86481 1.16938 2.58289
151 3 8.06157 2.20965 4.86994
153 3 11.7475 0.611026 1.0221
156 3 13.0143 2.68552 4.55134
157 3 10.621 1.45201 4.68863
158 3 12.6492 0.649294 6.43818
165 3 9.62392 3.60271 3.3023
166 3 11.2918 3.25087 1.16803
168 3 9.50327 5.29735 0.690511
170 3 11.3917 2.85804 6.8152
273 2 11.6097 6.25726 1.70983
274 2 11.4383 5.90285 3.60844
275 2 10.6513 5.47043 5.61354
276 2 9.01996 5.80774 6.57451
277 2 9.28216 4.26665 5.50807
246 2 4.92364 5.88428 7.02066
287 2 7.227 6.41426 6.38608
278 2 11.5197 5.86401 7.98529
345 2 14.8587 1.53296 7.49091
304 4 6.92284 6.61786 3.52498
344 1 14.804 0.734751 8.26983
308 1 6.69735 5.18091 4.9012
323 2 7.71135 5.011 5.41712
311 3 6.23163 6.0598 2.28866
316 2 9.12938 5.88307 3.6149
321 2 6.56738 4.39596 4.16986
364 2 12.6589 4.84131 2.63601
286 2 8.45359 6.56439 7.90932
309 3 5.9359 3.68161 0.586625
7 4 14.2825 2.18801 15.3511
211 2 13.9804 3.45166 9.31171
346 2 15.0008 1.1394 9.3145
12 4 12.205 6.7601 15.2714
154 3 8.80648 0.82599 8.94495
45 4 8.88948 2.15002 9.75443
167 3 10.7761 6.96612 15.9263
48 4 9.35171 2.64901 15.1699
49 4 11.3917 2.19406 11.7108
51 4 9.45398 6.70813 16.8398
53 4 10.9258 4.70483 13.4236
249 2 6.21597 4.80035 10.3024
80 1 6.40577 4.92094 9.16126
88 1 12.4286 2.19497 10.1096
169 3 9.36743 3.39126 8.71399
93 1 8.09026 6.52775 10.7563
248 2 7.39941 4.37469 8.81389
152 3 13.1379 2.39911 16.5208
204 2 15.3028 0.730168 10.966
155 3 7.3326 2.57845 10.2641
159 3 13.9841 0.966677 14.4555
160 3 9.10966 1.24682 14.4069
161 3 10.5091 2.34183 16.2763
162 3 7.94401 3.08501 16.048
163 3 9.91557 1.99631 11.022
164 3 12.159 0.931083 12.5329
283 2 8.69617 5.94379 10.0248
54 4 6.65353 6.9788 15.098
171 3 9.83962 3.84762 14.174
172 3 11.5308 3.61805 12.3356
173 3 12.1056 5.3058 14.4344
174 3 6.13825 5.61549 14.2581
175 3 8.01563 6.72006 15.9922
177 3 10.2615 6.01568 12.7378
247 2 6.40544 5.97242 8.82979
280 2 11.1599 5.0548 9.68064
270 2 12.1346 1.28772 9.50442
271 2 13.5157 2.11432 10.4506
272 2 12.1601 3.17791 9.53321
359 2 13.7479 3.50164 13.4482
285 2 7.54427 5.8798 11.552
258 2 5.26682 6.3712 10.0091
24 4 8.16557 0.388879 13.4403
279 2 12.7955 4.64271 8.77532
128 3 6.08205 3.76778 12.1727
91 1 11.6803 4.92188 8.65079
288 2 6.73147 7.39257 8.00254
306 1 8.78001 7.04715 3.42112
38 4 1.691 11.8347 5.80837
44 4 5.69553 13.6257 7.51958
56 4 4.18833 11.4754 3.86433
58 4 8.3459 8.87168 7.08964
60 4 6.66684 11.4129 5.65993
87 1 3.92272 8.55296 6.8074
360 2 10.0343 9.70949 3.09482
95 1 9.8573 8.90877 5.85033
133 3 4.01863 8.74112 0.729363
363 2 8.10605 13.8437 8.0875
357 3 6.46974 13.0716 0.777086
143 3 1.51448 12.9474 7.01282
178 3 3.72946 10.1361 2.98482
179 3 4.63536 12.572 2.79031
180 3 3.03864 11.9653 4.88966
354 2 6.428 10.7978 2.34186
185 3 7.98343 11.8974 4.90072
186 3 5.50724 11.04 4.6425
187 3 7.22742 9.78232 6.41312
188 3 6.23962 12.2749 6.92157
267 2 4.97655 8.7613 7.12017
268 2 3.92194 8.55507 5.68385
289 2 10.4681 7.92668 5.77574
33 4 2.84754 9.2657 1.93708
307 1 6.03109 8.35388 3.98745
41 4 5.32224 13.7461 1.90221
317 2 9.22816 7.81535 4.28006
318 2 6.1565 9.01075 3.03109
319 2 6.43817 8.93237 4.91887
290 2 10.3763 9.69016 6.46984
315 2 9.05795 7.42143 2.35677
366 2 9.47457 9.3934 4.78596
334 1 8.99892 10.2232 3.01844
335 2 8.8067 10.6756 1.91448
336 2 8.19809 9.47691 3.26993
347 1 9.27521 8.11391 0.503136
349 2 10.2472 8.11415 1.11556
350 2 8.36621 8.36713 1.10424
351 1 6.5186 10.2674 1.40853
352 2 7.37814 9.55791 1.38756
353 2 5.55327 9.72898 1.08395
320 2 5.01308 8.01994 4.11061
35 4 1.65147 11.5129 0.35219
137 3 1.12757 12.9517 1.02574
329 2 8.83087 12.3681 6.84486
57 4 6.6522 11.6927 0.0228197
291 2 9.21215 10.671 8.48706
36 4 2.74939 9.72959 7.71791
21 4 0.561645 13.6742 7.96267
94 1 7.62099 7.06623 7.30685
17 4 9.30152 11.5767 15.2351
296 2 8.54418 12.8397 11.4052
348 2 9.57683 9.0365 16.8813
47 4 5.37144 13.8652 13.5905
59 4 4.02334 12.0238 9.64132
61 4 7.88633 9.42539 13.4183
62 4 4.32795 11.7238 15.5033
63 4 6.42817 11.749 11.5865
83 1 4.66112 7.28553 10.3928
92 1 10.926 8.06329 10.7116
281 2 10.4512 7.44582 9.84075
97 1 7.89993 12.38 10.5359
295 2 8.37489 11.485 10.0515
232 2 9.85658 10.6966 11.2171
181 3 8.20169 11.8079 16.5507
28 4 4.2884 7.48872 17.1018
184 3 2.73807 12.3848 10.4943
189 3 6.98061 8.3093 14.2455
190 3 9.10774 8.57258 12.5749
191 3 8.52743 10.5364 14.2853
192 3 4.01793 10.4043 14.4923
193 3 5.63898 11.5583 16.3455
194 3 4.48106 13.1388 14.6224
195 3 3.05611 11.8317 16.5042
196 3 5.26057 11.5281 10.5435
197 3 7.04162 10.2011 12.2887
198 3 6.14847 12.8213 12.6366
256 2 5.34117 8.18913 10.9125
182 3 3.50543 10.8115 8.63601
183 3 4.53701 13.3448 8.87751
292 2 9.57614 8.96786 9.48562
284 2 7.48001 7.39925 10.3255
96 1 8.769 9.55446 8.84591
293 2 7.7884 9.58422 9.39454
294 2 7.58928 13.2236 9.69121
55 4 9.55394 7.22636 11.9597
148 3 1.04938 13.0542 12.4724
176 3 5.50928 7.29823 16.1556
39 4 2.85506 9.77743 13.5788
257 2 3.88997 7.75225 9.67469
330 2 9.04803 12.4183 8.74807
365 2 10.7945 9.30297 10.6881
ITEM: TIMESTEP
100
ITEM: NUMBER OF ATOMS
366
ITEM: BOX BOUNDS xy xz yz pp pp pp
-7.5839999999999996e+00 1.5901800000000000e+01 -7.5839999999999996e+00
0.0000000000000000e+00 1.4167735000000000e+01 1.7780000000000001e-01
0.0000000000000000e+00 1.7246500000000001e+01 2.6463499999999995e-01
ITEM: ATOMS id type x y z
355 3 1.83519 0.712222 0.509959
5 4 0.968135 2.1029 5.51346
9 4 0.152541 4.18122 1.75859
11 4 -0.250909 4.68956 7.10214
27 4 1.58204 6.71245 3.41716
29 4 5.43071 3.99071 8.05431
64 1 2.18623 2.83166 4.25283
69 1 -1.661 5.21133 5.88406
70 1 0.777147 6.24482 7.10001
76 1 5.36725 1.53372 4.88817
77 1 2.96004 6.20206 4.68643
79 1 4.16965 5.0852 7.0502
98 3 -0.294385 1.45732 4.6996
99 3 1.87043 1.11347 6.51403
102 3 -0.715573 3.16575 2.68434
103 3 1.30511 3.27355 0.925249
104 3 -0.819244 4.89444 0.688688
105 3 0.52463 3.45872 6.42559
115 3 7.139 1.14508 0.818051
124 3 0.818807 5.38128 2.74329
324 1 3.72326 0.586051 2.39772
199 2 1.76826 2.4998 3.247
200 2 3.3865 2.55054 4.48163
201 2 2.01778 3.92821 4.40954
210 2 -1.53155 6.84423 2.79766
303 4 5.19573 4.88409 1.31948
215 2 -1.43048 4.84123 4.77964
216 2 -1.9944 6.30185 6.0382
218 2 1.64638 6.14584 6.25827
219 2 1.13032 6.06605 8.19108
235 2 4.92284 0.652421 5.42936
236 2 5.69795 1.26134 3.85446
237 2 4.67597 2.52258 4.89363
238 2 3.7253 6.15769 3.78746
239 2 2.86697 5.13621 5.2537
241 2 -0.575354 6.51242 4.72254
244 2 3.24977 5.16597 7.58783
245 2 4.0524 4.82899 5.94017
23 4 6.8715 1.82769 6.03254
305 1 4.17694 3.88939 2.58201
310 3 3.93923 5.78652 0.596116
312 2 4.07511 2.57316 2.45873
313 2 3.17491 4.36269 2.52203
314 2 4.68989 4.19491 3.58912
326 2 3.1324 1.27137 3.15584
118 3 7.11668 0.507607 6.85612
10 4 -1.26761 6.46433 0.18254
358 2 4.42311 1.16585 1.78479
4 4 2.72876 0.171995 7.51341
254 2 1.75008 6.50817 10.0094
8 4 1.52909 2.07388 11.8772
331 1 -1.28809 3.60579 14.2547
22 4 3.83421 1.90059 9.82821
25 4 4.11993 2.31855 15.2381
26 4 6.37567 2.44252 11.4683
333 2 -1.53406 4.50765 14.8943
125 3 4.4582 3.07673 8.88603
65 1 -0.289058 1.87287 11.2674
66 1 1.65431 3.77399 12.8959
253 2 1.65057 5.19947 11.435
81 1 1.08439 6.33573 14.3213
82 1 1.72407 6.34252 11.1785
100 3 0.0749654 2.27472 16.29
101 3 1.89936 0.683216 12.691
106 3 -2.37743 6.66858 16.3096
116 3 3.4997 0.570139 8.90903
117 3 2.42516 2.37634 10.5151
119 3 3.76147 0.903326 14.672
120 3 5.36364 1.99462 16.2656
121 3 2.7605 2.81713 16.0045
122 3 4.96687 1.82543 10.9905
123 3 6.96203 1.31632 12.4286
127 3 4.54684 3.53892 14.2118
131 3 4.24161 5.71835 12.5459
202 2 -0.429051 2.60877 10.3909
30 4 5.41033 4.73273 13.4421
332 2 -0.179012 3.64625 13.6943
205 2 2.61931 4.34891 12.7501
206 2 1.51587 3.34964 13.9163
207 2 0.810937 4.41437 12.4834
251 2 1.33562 6.42664 13.2024
212 2 -0.860476 5.08679 9.40747
213 2 0.243851 3.56649 9.38649
68 1 -0.751985 4.03811 8.97413
3 4 1.53737 2.39711 17.0935
250 2 1.95381 5.62226 14.8793
252 2 0.134849 5.77869 14.5181
20 4 6.64147 2.51819 17.0479
32 4 3.5741 7.03471 11.7356
255 2 0.878155 6.963 11.6347
211 2 -1.6386 3.42448 9.38249
1 4 -5.29485 13.4982 1.56719
338 2 -3.56534 9.54471 1.66097
14 4 -2.30697 9.83604 7.7026
15 4 -3.5448 12.0263 5.58849
67 1 -1.75087 7.33663 1.81456
34 4 -0.967868 12.0365 3.78455
136 3 1.77285 10.2318 1.29283
328 2 -5.22173 11.7039 8.23553
71 1 -3.43925 8.36033 7.78373
72 1 -0.661495 9.18231 6.72565
78 1 0.0657258 7.37148 4.26563
84 1 -1.15166 10.4176 2.7035
325 2 -3.34155 13.6942 3.05334
107 3 -6.19122 13.0099 2.78713
108 3 -4.33427 12.2868 0.888094
109 3 -4.98067 11.7391 4.90566
110 3 -3.21176 10.8123 6.74638
111 3 -3.7829 13.4259 6.51619
132 3 2.21626 7.86981 2.56748
134 3 -0.751578 13.3791 2.8217
135 3 -2.38976 12.2014 4.55363
337 1 -3.44789 9.51816 0.494443
141 3 0.358006 11.7785 4.77495
142 3 1.9374 10.239 6.46887
222 2 -4.28823 8.36689 7.0148
209 2 -1.18992 8.33787 1.63295
217 2 0.215622 7.38449 6.9377
221 2 -2.56352 7.61942 7.43432
264 2 1.37678 7.82084 8.21877
223 2 -1.03726 8.1589 6.31826
224 2 0.176537 9.08698 7.60739
225 2 -0.409629 9.98238 6.01259
269 2 3.83592 7.47283 6.99211
242 2 -0.522597 8.10733 3.65509
243 2 0.670546 7.95127 5.0873
259 2 -0.108641 10.2722 2.28494
260 2 -1.88634 10.2809 1.85104
261 2 -1.35836 9.65663 3.54292
339 2 -2.35998 9.69451 0.0331922
13 4 -6.38053 11.9551 4.0752
327 1 -5.99184 12.5698 8.09188
208 2 -2.86992 7.53666 1.63452
329 2 -6.6137 12.4688 7.10587
240 2 3.24571 7.09654 5.38386
361 2 -4.01595 8.68714 0.0209841
6 4 -4.82217 13.732 13.8139
16 4 -2.19048 8.90592 13.2297
18 4 -3.24731 11.6464 11.8361
31 4 1.39288 7.76288 15.5592
37 4 -0.897809 11.6786 9.90012
330 2 -6.59562 12.717 9.08853
227 2 0.00710321 7.47202 13.1126
73 1 -0.662546 8.12461 12.3643
74 1 -1.2194 9.93209 14.551
75 1 -4.7447 11.2988 10.6658
86 1 1.75967 8.85735 8.87401
112 3 -3.08179 7.77239 13.9592
113 3 -3.04599 10.0897 12.386
114 3 -3.87606 12.6419 13.0031
232 2 -5.49752 10.7208 11.1259
130 3 0.197368 7.57796 16.6785
138 3 -1.6252 10.2659 9.13704
140 3 -2.16619 12.2201 10.847
144 3 1.58584 9.20288 14.566
85 1 0.455117 11.2818 16.3001
146 3 0.246515 11.2459 10.847
139 3 -0.34541 12.5813 8.70497
220 2 -3.87141 8.16543 8.85862
342 2 -1.94511 14.0082 14.0579
228 2 -0.0908541 8.98837 11.8823
229 2 -1.72192 10.9116 14.98
230 2 -0.410244 10.2722 13.7749
231 2 -0.682827 9.31893 15.3027
129 3 2.80293 7.52751 16.187
233 2 -4.27001 10.7913 9.69091
234 2 -4.97776 12.468 10.5448
226 2 -1.37067 7.49898 11.671
263 2 1.01162 10.4504 15.5998
301 2 -1.41438 12.0746 16.1811
265 2 0.879421 9.52431 9.2167
266 2 2.43936 8.61803 9.76598
297 4 -3.90488 11.3956 16.9264
298 1 -2.50702 12.478 15.981
299 3 -5.08787 10.8263 15.9453
300 2 -2.83379 12.3601 14.8746
362 2 0.119873 12.2474 15.6492
302 2 -2.70489 13.5477 16.3555
340 1 -0.869772 13.523 14.4151
341 2 -0.765829 12.4474 14.1127
145 3 3.22856 8.308 12.5863
343 2 -0.618312 13.6836 15.5227
356 3 -5.91978 13.0009 14.7275
262 2 -0.353216 10.8414 16.8983
40 4 1.59758 11.8311 11.6074
257 2 3.78538 7.46188 9.51437
2 4 14.22 2.02431 3.68662
309 3 5.91463 3.65517 0.528382
19 4 7.87812 0.207572 1.84551
322 2 5.72274 5.18532 5.75817
42 4 9.30232 2.11692 3.85807
46 4 11.8991 1.95389 5.56259
50 4 10.4522 4.21479 1.83846
52 4 10.5919 4.07676 7.64933
89 1 11.5482 5.51524 2.74139
90 1 9.60559 5.21945 6.42905
214 2 13.3416 4.51475 6.36407
286 2 8.258 6.73574 8.00858
149 3 13.5362 1.02529 2.63481
150 3 8.92525 1.14239 2.67205
151 3 8.04367 2.15239 4.96989
153 3 11.7378 0.522256 0.761407
156 3 13.0447 2.70372 4.64348
157 3 10.5772 1.61389 4.64584
158 3 12.5607 0.690611 6.41718
165 3 9.54578 3.64651 3.10436
166 3 11.4283 3.16524 1.10681
168 3 9.61802 5.20796 0.68889
170 3 11.4304 3.07439 6.73529
273 2 11.2588 6.42676 2.13926
274 2 11.3174 5.65118 3.82507
275 2 10.4376 5.77439 5.88314
276 2 8.76349 5.9366 6.76284
277 2 9.15414 4.30446 5.80925
306 1 8.58096 6.8976 3.4789
287 2 7.09154 6.51407 6.45594
278 2 11.8135 6.03625 8.13515
345 2 14.7087 1.47175 7.35663
304 4 6.74744 6.6068 3.59932
344 1 14.7231 0.59866 8.15748
308 1 6.6705 5.15394 4.99733
323 2 7.7598 5.20159 5.51642
311 3 6.10984 5.86952 2.38105
316 2 8.81258 5.71441 3.59725
321 2 6.65181 4.23057 4.36514
364 2 12.5867 5.12935 2.5003
126 3 6.36851 3.08993 6.9015
246 2 4.93764 6.04343 7.31563
7 4 14.4686 2.17649 15.5073
91 1 11.9083 5.11144 8.75359
346 2 14.4525 0.945236 9.19897
12 4 12.1762 6.62782 15.2617
154 3 8.87547 0.790721 8.93308
45 4 8.91472 2.17445 9.68147
167 3 10.7848 7.0485 15.9398
48 4 9.26845 2.50732 15.3281
49 4 11.3299 2.28518 11.7183
51 4 9.45711 6.67519 16.7845
53 4 10.8269 4.59244 13.535
249 2 6.47453 4.65681 10.2761
80 1 6.62128 5.02986 9.21538
88 1 12.4653 2.28856 10.2051
43 4 11.8278 2.21471 17.2164
93 1 8.12508 6.51276 10.8938
248 2 7.6232 4.6289 8.7852
152 3 13.1894 2.42373 16.342
204 2 15.3889 0.556773 10.9846
155 3 7.40162 2.62046 10.1107
159 3 14.1262 0.823335 14.3543
160 3 8.90536 1.33772 14.2964
161 3 10.4364 2.20211 16.3736
162 3 7.83846 2.8717 16.1158
163 3 9.82295 2.13483 11.0104
164 3 11.889 1.07715 12.7794
283 2 8.74286 6.50403 9.95137
54 4 6.80526 6.96612 15.1701
171 3 9.71315 3.81745 14.3751
172 3 11.6417 3.80136 12.3641
173 3 12.0193 5.10031 14.5478
174 3 6.34623 5.70721 14.3059
175 3 8.17354 6.63681 15.9234
177 3 10.1507 5.95141 12.688
247 2 6.66136 6.16458 9.04283
280 2 11.5446 5.3155 9.75812
270 2 12.0394 1.45634 9.58242
271 2 13.5557 2.06849 10.5957
272 2 12.2137 3.38946 9.70652
359 2 13.6415 3.38141 13.4554
285 2 8.00116 5.49783 11.4341
258 2 5.36111 6.43779 9.87646
24 4 8.06045 0.463843 13.306
279 2 13.0451 4.73737 8.79933
128 3 6.3309 3.9325 12.2899
203 2 14.7313 2.10218 12.11
284 2 7.16465 7.11658 10.8673
169 3 9.58068 3.40491 8.64433
288 2 6.51304 7.3356 8.1331
182 3 3.78133 10.8319 8.47139
38 4 1.68514 11.781 5.6788
44 4 5.59173 13.5133 7.46148
56 4 4.15436 11.4182 3.82465
58 4 8.34685 8.85458 7.03447
60 4 6.6749 11.3687 5.64584
87 1 4.06516 8.50094 6.70133
360 2 10.1201 9.652 3.21776
95 1 9.83982 8.753 5.81995
133 3 4.08266 8.5623 0.949842
363 2 8.08994 13.7979 8.15831
357 3 6.26305 12.8737 0.824769
143 3 1.70032 12.8847 6.89689
178 3 3.65566 10.0608 3.01564
179 3 4.65603 12.5169 2.75426
180 3 2.92334 11.9163 4.67507
354 2 6.75952 10.7184 2.1809
185 3 7.91601 12.0158 4.95294
186 3 5.44456 11.0099 4.76485
187 3 7.27201 9.74032 6.25177
188 3 6.36809 12.1841 6.96843
267 2 5.11241 8.80546 7.16772
268 2 4.04031 8.61991 5.55194
289 2 10.4251 7.80907 5.74928
33 4 2.98888 9.21466 1.86468
307 1 5.8936 8.30328 3.93001
41 4 5.26987 13.7435 1.78828
317 2 9.08086 7.56036 4.34729
318 2 6.12198 9.05326 2.94006
319 2 6.38344 8.74413 4.91068
290 2 10.4176 9.54746 6.41084
315 2 8.81985 7.3903 2.40705
366 2 9.52786 9.24414 4.75984
334 1 9.19633 10.333 3.06361
335 2 9.24062 10.694 1.99652
336 2 8.19771 9.82649 3.32249
347 1 9.0264 8.06575 0.513046
349 2 9.65958 8.09919 1.39852
350 2 7.86791 8.07582 0.726563
351 1 6.66875 10.0965 1.28939
352 2 7.61014 9.34375 1.13321
353 2 5.67593 9.47396 1.20816
320 2 4.74777 8.15187 4.06771
35 4 1.61657 11.5103 0.333233
137 3 1.08532 12.8408 0.957043
21 4 0.601512 13.6768 7.85393
94 1 7.4004 7.20514 7.44034
291 2 9.16174 10.6969 8.59531
36 4 2.93588 9.79921 7.63095
17 4 9.28241 11.5186 15.3413
296 2 8.23202 13.0808 11.6116
348 2 9.45229 9.03019 16.9593
47 4 5.24287 13.9502 13.6606
59 4 4.08592 12.0087 9.6495
61 4 7.76386 9.48616 13.4831
62 4 4.18175 11.7347 15.3807
63 4 6.32566 11.6537 11.6743
83 1 4.64586 7.33313 10.2716
92 1 10.8537 7.9908 10.6424
281 2 10.5097 7.4992 9.66167
97 1 7.81504 12.5129 10.6972
295 2 8.41762 11.6876 10.3687
147 3 2.30042 10.7252 12.4118
181 3 8.18388 11.7275 16.5957
28 4 4.20183 7.41816 17.021
184 3 2.70018 12.347 10.3568
189 3 6.94897 8.3051 14.2353
190 3 8.8148 8.41733 12.7118
191 3 8.60534 10.529 14.2594
192 3 4.05148 10.4446 14.2611
193 3 5.61851 11.3323 16.2504
194 3 4.34941 13.2033 14.6649
195 3 3.02155 11.7744 16.5151
196 3 5.20505 11.3386 10.629
197 3 6.93052 10.2735 12.2829
198 3 5.98778 12.8887 12.6488
256 2 5.29853 8.26307 10.4841
282 2 11.804 7.55168 11.0968
183 3 4.80957 13.2752 8.92797
292 2 9.54511 8.96021 9.44891
365 2 10.893 9.21213 10.5994
96 1 8.7805 9.59416 8.76268
293 2 7.69378 9.54465 9.17931
294 2 7.54973 13.2896 9.69502
55 4 9.49939 7.24347 11.9865
148 3 1.13406 13.083 12.547
176 3 5.57139 7.44388 16.1805
39 4 2.92296 9.73266 13.4479
57 4 6.77576 11.8049 17.2431
ITEM: TIMESTEP
200
ITEM: NUMBER OF ATOMS
366
ITEM: BOX BOUNDS xy xz yz pp pp pp
-7.5839999999999996e+00 1.5901800000000000e+01 -7.5839999999999996e+00
0.0000000000000000e+00 1.4167735000000000e+01 1.7780000000000001e-01
0.0000000000000000e+00 1.7246500000000001e+01 2.6463499999999995e-01
ITEM: ATOMS id type x y z
355 3 1.71897 0.813385 0.627528
5 4 0.981975 2.02549 5.69265
9 4 0.0361382 4.0984 1.78118
11 4 -0.23815 4.78958 7.17776
27 4 1.56855 6.656 3.42589
29 4 5.44851 4.09066 8.1146
64 1 2.22047 2.75794 4.45672
69 1 -1.70552 5.2411 5.96851
70 1 0.730913 6.3846 7.20654
76 1 5.42942 1.71554 4.81705
77 1 2.91338 6.19346 4.78375
79 1 4.50031 5.48909 7.19322
98 3 -0.258602 1.36386 4.66959
99 3 1.867 1.10737 6.74718
102 3 -0.776984 3.21863 2.77173
103 3 1.12741 3.29267 0.885509
104 3 -0.822358 5.0074 0.781061
105 3 0.42202 3.58834 6.39063
115 3 7.00531 1.14167 0.918399
124 3 1.02326 5.27625 2.60454
324 1 3.93131 0.506695 2.2832
199 2 1.89555 2.19467 3.51204
200 2 3.33143 2.59504 4.73842
201 2 1.8214 3.86412 4.56174
210 2 -1.58924 6.62034 2.52538
303 4 5.17225 4.73533 1.39124
215 2 -1.52994 4.76416 4.98733
216 2 -1.8872 6.35165 5.82012
218 2 1.58824 6.3631 6.28909
219 2 1.15007 6.17541 8.25519
235 2 4.91032 0.854122 5.3337
236 2 6.03361 1.46099 3.85997
237 2 4.72899 2.59284 4.75958
238 2 3.69049 6.02523 3.94821
239 2 2.78075 5.23029 5.3728
241 2 -0.50195 6.53432 5.04051
244 2 3.77135 5.90481 8.0124
245 2 3.91765 5.05461 6.30897
4 4 2.95912 0.134964 7.67874
305 1 3.94305 3.91516 2.57746
310 3 4.17933 5.5945 0.501011
312 2 3.89693 2.73001 2.52362
313 2 2.88866 4.29968 2.43316
314 2 4.37378 4.24241 3.63257
326 2 3.65971 1.15244 3.22444
118 3 7.17074 0.673098 6.79748
10 4 -1.24555 6.52112 0.105228
358 2 4.23653 1.09127 1.38016
214 2 -2.40804 4.65157 6.74349
240 2 3.42342 7.01913 5.41489
254 2 2.12574 6.03328 10.2221
8 4 1.57477 2.07898 11.9359
331 1 -1.21271 3.64271 14.4179
22 4 3.86822 2.09292 9.87384
25 4 4.10723 2.35504 15.3383
26 4 6.43844 2.3923 11.4403
333 2 -1.37113 4.56186 15.0909
125 3 4.36758 3.29873 8.91228
65 1 -0.267831 1.8471 11.3806
66 1 1.73315 3.64767 13.1208
253 2 1.8194 5.22435 11.8498
81 1 0.985319 6.28397 14.4062
82 1 1.87463 6.20802 11.2529
100 3 0.0925093 2.1238 16.1612
101 3 1.94993 0.753153 12.6836
106 3 -2.41564 6.62682 16.4596
116 3 3.62491 0.739941 9.09458
117 3 2.31769 2.51571 10.581
119 3 3.682 1.04161 14.5842
120 3 5.28313 1.89874 16.4334
121 3 2.7475 2.95935 15.9827
122 3 4.97044 1.88003 11.0854
255 2 0.980973 6.98512 11.4835
127 3 4.71694 3.48109 14.2053
131 3 4.33501 5.75698 12.5002
202 2 -0.475571 2.71416 10.5342
30 4 5.46282 4.69281 13.317
332 2 -0.117251 3.66357 13.8936
205 2 2.84106 3.94148 12.8879
206 2 1.61326 3.27511 14.1611
207 2 0.937139 4.51703 12.8769
251 2 1.21502 6.23188 13.1952
212 2 -0.430684 4.83863 9.72065
213 2 0.154852 3.28866 9.0054
68 1 -0.714981 4.01131 9.00448
3 4 1.55807 2.46858 17.0075
250 2 1.48925 5.41479 14.883
252 2 -0.200893 6.32206 14.5655
20 4 6.6045 2.5908 17.0419
32 4 3.7059 7.01436 11.7888
203 2 -0.80495 2.08505 12.3758
1 4 -5.18106 13.6034 1.62908
338 2 -3.38962 9.63111 1.88035
14 4 -2.21728 9.82851 7.68496
15 4 -3.60075 11.9811 5.64802
67 1 -1.91942 7.30575 1.67932
34 4 -0.997409 12.0485 3.77692
136 3 1.91327 10.1189 1.08039
328 2 -5.20514 11.8316 8.15399
71 1 -3.33102 8.26035 7.87386
72 1 -0.628738 9.24797 6.67618
78 1 0.212187 7.36702 4.51074
84 1 -0.757546 10.4165 2.7713
21 4 0.428385 13.6721 7.81573
107 3 -6.17732 13.127 2.82085
108 3 -4.66834 12.2805 0.922751
109 3 -5.03812 11.854 4.98353
110 3 -3.10174 10.7464 6.78927
111 3 -3.56985 13.3778 6.69698
132 3 2.09321 7.90264 2.57846
134 3 -0.774724 13.2168 2.69647
135 3 -2.48432 11.975 4.52898
337 1 -3.29264 9.63997 0.795027
141 3 0.158796 11.8187 4.82013
142 3 2.03127 10.4252 6.23901
222 2 -4.2662 8.30312 7.15949
209 2 -1.48742 8.36426 1.782
217 2 0.210151 7.46257 7.13523
221 2 -2.61452 7.47376 7.57737
264 2 1.43332 7.95296 8.19838
223 2 -1.05045 8.28732 6.34055
224 2 0.288076 9.18745 7.50075
225 2 -0.476619 9.97969 5.839
269 2 3.70527 7.49859 6.90826
242 2 -0.419729 8.02128 3.90081
243 2 0.81921 7.94174 5.31212
259 2 0.210559 10.4497 2.15171
260 2 -1.72841 10.1587 2.05985
261 2 -0.616931 9.64973 3.53064
339 2 -2.20148 9.91272 0.345331
325 2 -2.97779 13.4912 2.48327
327 1 -5.99337 12.7047 8.11141
208 2 -3.08445 7.22019 1.44906
329 2 -6.64809 12.6748 7.12045
361 2 -3.73817 8.68236 0.285549
360 2 -5.11865 9.81119 3.05319
6 4 -4.84135 13.7685 13.7281
16 4 -2.20578 8.76668 13.1544
18 4 -3.26345 11.6955 11.8358
31 4 1.50364 7.74578 15.5166
37 4 -0.907426 11.6851 9.89105
257 2 3.63344 7.58103 9.25762
227 2 -0.0813311 7.42699 13.1158
73 1 -0.706446 7.99757 12.1913
74 1 -1.35306 9.64342 14.622
75 1 -4.78759 11.2553 10.7401
86 1 1.82696 8.87802 8.77741
112 3 -3.01257 7.70109 14.0485
113 3 -2.76685 10.1467 12.4827
114 3 -3.88812 12.6289 12.9533
39 4 2.77852 9.59016 13.4884
130 3 0.035636 7.71868 16.6486
138 3 -1.78909 10.4074 9.14313
140 3 -1.94938 12.4132 11.0091
144 3 1.47775 9.03751 14.5527
85 1 0.409673 11.1762 16.2709
146 3 0.384782 11.098 10.561
139 3 -0.345874 12.6558 8.72322
220 2 -3.77165 8.20046 8.90348
342 2 -1.82621 13.99 14.15
228 2 -0.0527972 8.66807 11.6157
229 2 -1.92401 10.5323 15.1035
230 2 -0.544752 10.1203 13.9627
231 2 -0.899517 8.88044 15.3779
129 3 2.89945 7.53862 16.1311
233 2 -4.37362 10.6512 9.92523
234 2 -5.08747 12.3287 10.4085
226 2 -1.52179 7.38322 11.5189
263 2 0.806993 10.2846 15.6278
301 2 -1.5276 11.8982 16.122
265 2 0.965794 9.62323 8.98791
266 2 2.37458 8.57497 9.69895
297 4 -3.92987 11.43 17.1354
298 1 -2.58475 12.3325 15.9589
299 3 -5.08225 10.8353 16.1132
300 2 -2.979 12.0107 14.9668
362 2 0.0749448 12.093 15.5878
302 2 -2.68333 13.4396 16.2265
340 1 -0.804081 13.4303 14.3567
341 2 -0.718601 12.335 13.925
145 3 3.48461 8.288 12.6958
343 2 -0.489797 13.5881 15.4843
356 3 -5.90849 13.0061 14.6126
262 2 -0.30524 10.8853 17.087
330 2 -6.71711 12.6396 9.07169
147 3 2.14629 10.7326 12.512
232 2 -5.65516 10.7626 11.4255
365 2 -4.74977 9.14996 10.6803
2 4 14.3058 1.91507 3.65542
309 3 5.9683 3.62459 0.597035
19 4 7.88453 0.111665 1.87123
322 2 5.85722 5.20647 5.71038
42 4 9.32033 2.12967 3.76747
46 4 11.9434 1.99104 5.42901
50 4 10.5175 4.2861 1.76922
52 4 10.6144 4.16353 7.65689
89 1 11.6112 5.36819 2.87189
90 1 9.66422 5.31407 6.51137
23 4 6.98378 1.995 5.95124
286 2 7.92718 6.64819 8.143
149 3 13.651 0.786511 2.71442
150 3 8.96395 0.851203 2.85012
151 3 8.12567 2.40847 4.89072
153 3 11.6858 0.497541 0.84572
156 3 13.1251 2.63648 4.59827
157 3 10.7303 1.8099 4.47207
158 3 12.3035 0.706617 6.23633
165 3 9.45262 3.45743 2.83714
166 3 11.404 3.14039 1.07504
168 3 9.71349 5.32635 0.718751
170 3 11.5199 3.20173 6.72907
273 2 11.0321 6.37065 2.99396
274 2 11.8061 4.81842 3.87079
275 2 10.4202 5.87411 5.90256
276 2 8.80454 5.94452 6.906
277 2 9.26654 4.29919 5.84297
306 1 8.56063 6.91761 3.58412
287 2 7.12992 6.44988 6.47346
278 2 11.9925 6.19706 8.32495
345 2 14.7063 1.56102 7.6458
304 4 6.75914 6.49596 3.62523
344 1 14.6566 0.609484 8.30435
308 1 6.7609 5.11241 5.0226
323 2 7.8257 5.17555 5.59694
311 3 6.08864 5.75416 2.37664
316 2 8.91159 5.82632 3.72684
321 2 6.72436 4.20844 4.37069
364 2 12.5201 5.45045 2.26721
126 3 6.33618 3.31844 7.06298
246 2 5.32904 6.12871 6.91739
43 4 11.4931 1.83513 0.00172474
7 4 14.2794 2.11753 15.4982
91 1 11.9463 5.14334 8.7517
346 2 14.2731 0.851601 9.31086
12 4 12.2169 6.64737 15.3047
154 3 8.85261 0.895615 8.7058
45 4 8.943 2.15608 9.67433
167 3 10.8322 7.19132 15.9621
48 4 9.25142 2.53779 15.3193