ITEM: TIMESTEP
0
ITEM: NUMBER OF ATOMS
366
ITEM: BOX BOUNDS xy xz yz pp pp pp
-7.5839999999999996e+00 1.5901800000000000e+01 -7.5839999999999996e+00
0.0000000000000000e+00 1.4340199999999999e+01 1.7780000000000001e-01
0.0000000000000000e+00 1.7418965000000000e+01 4.3709999999999999e-01
ITEM: ATOMS id type x y z
355 3 1.74748 0.692366 0.631861
5 4 0.872422 2.22292 5.5734
9 4 0.249438 4.16805 1.74817
11 4 -0.443663 4.7966 7.1002
27 4 1.52989 6.74794 3.45896
29 4 5.341 3.88548 8.0301
64 1 2.22314 2.75302 4.30167
69 1 -1.94692 5.40574 5.94295
70 1 0.855996 6.19213 7.11251
76 1 5.28088 1.63386 4.93209
77 1 3.0457 6.34849 4.6479
79 1 4.1565 5.05744 6.99936
98 3 -0.280498 1.60108 4.75072
99 3 1.67219 1.26774 6.64266
102 3 -0.853743 3.35014 2.75457
103 3 1.3672 3.16428 1.15401
104 3 -0.566552 4.8652 0.511277
105 3 0.303433 3.61831 6.349
115 3 6.89231 1.19277 0.869054
124 3 1.05017 5.46112 2.70297
324 1 3.99978 0.406697 2.35862
199 2 1.82627 2.3196 3.3538
200 2 3.34771 2.36129 4.51064
201 2 2.06955 3.85284 4.51669
210 2 -1.31037 6.6687 2.58795
303 4 5.11884 4.83519 1.42054
215 2 -1.73732 5.14839 4.89135
216 2 -2.13232 6.51304 6.04025
218 2 1.73982 6.20257 6.21855
219 2 1.26782 5.93066 8.19414
235 2 4.62983 0.799147 5.44633
236 2 5.90587 1.32445 3.92535
237 2 4.74066 2.61417 4.82591
238 2 3.75683 6.332 3.80096
239 2 3.00741 5.33777 5.11803
241 2 -0.637378 6.66928 4.9656
244 2 3.11504 5.33173 7.5108
245 2 4.01475 4.7246 5.87862
23 4 6.89072 1.89742 5.96047
305 1 4.09906 3.93587 2.72284
310 3 4.04614 5.839 0.735305
312 2 4.39082 2.84906 2.79659
313 2 2.97195 4.09849 2.4286
314 2 4.44811 4.52308 3.68522
326 2 3.77779 1.5603 2.36756
118 3 7.14654 0.724633 6.98161
10 4 -1.17796 6.33251 0.0515517
358 2 4.9386 0.310508 1.76422
254 2 1.94334 6.3885 10.168
8 4 1.54544 2.21103 11.9363
331 1 -1.18694 3.80633 14.38
22 4 3.7516 1.97325 9.93792
25 4 4.14164 2.44247 15.3863
26 4 6.35428 2.46124 11.5994
333 2 -1.44659 4.73645 15.0403
342 2 5.88008 0.397779 14.6484
65 1 -0.363632 1.94541 11.3467
66 1 1.77221 3.83622 13.073
253 2 1.69331 5.54622 11.908
81 1 1.02767 6.40344 14.5064
82 1 1.82312 6.57185 11.3222
100 3 0.240771 2.47918 16.2848
101 3 2.01305 0.935249 12.8216
106 3 -2.38285 6.80213 16.6443
116 3 3.19217 0.678812 8.85271
117 3 2.36386 2.48285 10.585
119 3 3.78885 1.03997 14.636
120 3 5.43994 2.1376 16.2673
121 3 2.88108 2.95306 16.3794
122 3 4.85681 1.69164 11.0603
123 3 7.22887 1.50078 12.5907
127 3 4.53554 3.59195 14.4381
131 3 4.22579 5.69848 12.7119
202 2 -0.583293 2.86655 10.4534
30 4 5.21384 4.74497 13.5344
332 2 -0.0663625 3.78089 13.9192
205 2 2.76203 4.35479 12.8986
206 2 1.70696 3.47015 14.1205
207 2 0.843356 4.42919 12.7243
251 2 1.28386 6.50993 13.2756
212 2 -0.972997 5.17818 9.7095
213 2 0.175054 3.75408 9.07201
68 1 -0.950001 4.24889 9.05697
3 4 1.55491 2.55102 17.3036
250 2 1.72134 5.59731 14.9268
252 2 -0.104337 6.29771 14.6938
203 2 -0.800476 2.20213 12.3823
32 4 3.67811 7.07342 11.9974
125 3 4.33234 3.08742 8.92496
20 4 6.65649 2.78305 17.1132
255 2 0.911539 7.21556 11.5954
1 4 -5.1927 13.541 1.61657
338 2 -3.87514 9.37026 1.61375
14 4 -2.27634 9.84101 7.68275
15 4 -3.52162 11.9545 5.64605
67 1 -1.60808 7.24313 1.67579
34 4 -0.940064 12.1855 3.9461
136 3 1.69127 10.2379 1.39877
328 2 -5.28975 11.7289 7.69209
71 1 -3.40939 8.43174 7.86374
72 1 -0.726504 9.00812 6.74725
78 1 0.156775 7.46228 4.48945
84 1 -1.15793 10.6983 2.70015
325 2 -3.3916 13.959 3.44859
107 3 -6.0965 13.1275 2.95607
108 3 -4.77958 12.0807 0.920103
109 3 -5.02104 11.5799 4.90114
110 3 -2.95451 10.8831 6.65504
111 3 -3.80876 13.4688 6.48386
132 3 2.16471 7.97136 2.67819
134 3 -0.640117 13.3985 2.85461
135 3 -2.3924 12.2936 4.57645
337 1 -3.41264 9.41366 0.54745
141 3 0.344505 11.7879 4.88229
142 3 1.77991 10.3964 6.63225
222 2 -4.27759 8.52334 7.08276
209 2 -0.858952 8.14172 1.4856
217 2 0.227122 7.23908 6.98817
221 2 -2.7128 7.59295 7.70826
264 2 1.19008 7.78716 8.3901
223 2 -1.14954 7.99566 6.40887
224 2 0.103888 8.94768 7.62057
225 2 -0.328617 9.6972 5.89188
240 2 3.33467 7.19329 5.47023
242 2 -0.39959 8.26637 3.92292
243 2 0.880559 7.87683 5.31765
259 2 -0.127405 10.4931 2.28313
260 2 -1.94923 10.8591 1.92068
261 2 -1.53623 9.88131 3.44285
339 2 -2.34528 9.65081 0.59799
4 4 -4.90957 14.0039 7.49436
327 1 -6.11809 12.5493 7.81059
13 4 -6.38427 11.9333 3.93509
208 2 -2.69168 7.53465 1.5988
269 2 3.56722 7.61713 7.30849
6 4 -4.83368 13.8916 13.8741
16 4 -2.23777 9.11022 13.4089
18 4 -3.48343 11.737 11.8167
31 4 1.56185 7.86218 15.6506
37 4 -0.959532 11.6747 10.1113
147 3 2.18915 10.8711 12.6636
227 2 -0.0428763 7.62793 13.1865
73 1 -0.715345 8.3134 12.4202
74 1 -1.19472 9.98194 14.8366
75 1 -5.02079 11.4263 10.744
86 1 1.51843 8.78608 9.02635
112 3 -2.99887 8.04777 14.3908
113 3 -2.91198 10.2315 12.5068
114 3 -3.89457 12.6743 13.0036
361 2 -3.45486 8.91475 17.2793
130 3 0.303548 7.91103 16.5959
138 3 -1.6385 10.4865 9.13568
140 3 -2.16424 12.3935 10.8586
144 3 1.59197 9.40125 14.7153
85 1 0.429906 11.3932 16.5743
146 3 0.266618 11.0921 11.0199
139 3 -0.269893 12.7192 9.10233
220 2 -3.82206 8.41392 9.02665
282 2 -3.88419 7.77188 11.2927
228 2 -0.172768 9.24206 11.9201
229 2 -1.7573 10.8179 15.3988
230 2 -0.509138 10.4826 14.1529
231 2 -0.666085 9.25171 15.5669
129 3 2.97693 7.54115 16.3871
233 2 -4.72003 10.963 9.80318
234 2 -5.35126 12.5403 10.5847
226 2 -1.35991 7.75012 11.7127
263 2 0.971917 10.6202 15.8803
301 2 -1.5518 12.1388 16.5756
265 2 0.658823 9.44834 9.31456
266 2 2.11129 8.47779 9.99757
297 4 -3.99848 11.4382 17.1772
298 1 -2.59678 12.5807 16.3007
299 3 -4.99116 11.0888 16.0343
300 2 -2.94823 12.4153 15.2035
362 2 -0.0148415 12.3172 15.9065
302 2 -2.76702 13.6238 16.7053
340 1 -0.776948 13.8218 14.801
341 2 -0.807738 12.6802 14.4523
40 4 1.5992 11.9758 11.7088
343 2 -0.42098 13.9727 15.8843
356 3 -5.98422 13.1232 14.7048
145 3 3.40056 8.47998 12.812
262 2 -0.304281 10.9315 17.3168
2 4 14.244 2.1817 3.66655
43 4 11.5489 2.0304 0.183532
19 4 7.88585 0.284779 1.71026
322 2 5.76033 5.25433 5.69279
42 4 9.31362 2.0726 3.87915
46 4 11.943 1.90886 5.66397
50 4 10.348 4.27593 1.91409
52 4 10.4314 3.94181 7.62782
89 1 11.6759 5.47028 2.60401
90 1 9.78478 5.0534 6.20597
214 2 13.0401 4.69333 6.51515
126 3 6.35884 3.16076 6.8877
149 3 13.7601 0.905241 2.85353
150 3 8.86481 1.19521 2.60871
151 3 8.06157 2.25835 4.91864
153 3 11.7475 0.621247 1.03232
156 3 13.0143 2.73103 4.59686
157 3 10.621 1.4989 4.73551
158 3 12.6492 0.713675 6.50256
165 3 9.62392 3.63574 3.33532
166 3 11.2918 3.26255 1.17972
168 3 9.50327 5.30426 0.697416
170 3 11.3917 2.92619 6.88336
273 2 11.6097 6.27436 1.72693
274 2 11.4383 5.93893 3.64453
275 2 10.6513 5.52656 5.66968
276 2 9.01996 5.87349 6.64026
277 2 9.28216 4.32173 5.56315
246 2 4.92364 5.95449 7.09087
287 2 7.227 6.47813 6.44994
278 2 11.5197 5.94386 8.06514
345 2 14.8587 1.60787 7.56582
304 4 6.92284 6.65311 3.56023
344 1 14.804 0.817449 8.35253
308 1 6.69735 5.22993 4.95021
323 2 7.71135 5.06517 5.47129
311 3 6.23163 6.08268 2.31155
316 2 9.12938 5.91922 3.65105
321 2 6.56738 4.43766 4.21156
364 2 12.6589 4.86767 2.66237
286 2 8.45359 6.64348 7.98841
309 3 5.9359 3.68748 0.592491
7 4 14.2825 2.34153 15.5046
211 2 13.9804 3.54478 9.40483
346 2 15.0008 1.23255 9.40764
12 4 12.205 6.91281 15.4241
154 3 8.80648 0.915439 9.0344
45 4 8.88948 2.24756 9.85197
167 3 10.7761 7.12538 16.0855
48 4 9.35171 2.80071 15.3216
49 4 11.3917 2.31117 11.8279
51 4 9.45398 6.87653 17.0082
53 4 10.9258 4.83907 13.5579
249 2 6.21597 4.90337 10.4054
80 1 6.40577 5.01255 9.25288
88 1 12.4286 2.29607 10.2107
169 3 9.36743 3.4784 8.80113
93 1 8.09026 6.63531 10.8638
248 2 7.39941 4.46283 8.90202
152 3 13.1379 2.56432 16.686
204 2 15.3028 0.839827 11.0756
155 3 7.3326 2.68109 10.3668
159 3 13.9841 1.11123 14.6001
160 3 9.10966 1.39089 14.551
161 3 10.5091 2.5046 16.4391
162 3 7.94401 3.24549 16.2085
163 3 9.91557 2.10653 11.1322
164 3 12.159 1.05641 12.6583
283 2 8.69617 6.04404 10.125
54 4 6.65353 7.12978 15.2489
171 3 9.83962 3.98936 14.3157
172 3 11.5308 3.7414 12.459
173 3 12.1056 5.45014 14.5788
174 3 6.13825 5.75807 14.4007
175 3 8.01563 6.87998 16.1521
177 3 10.2615 6.14306 12.8652
247 2 6.40544 6.06072 8.91808
280 2 11.1599 5.1516 9.77745
270 2 12.1346 1.38276 9.59947
271 2 13.5157 2.21883 10.5551
272 2 12.1601 3.27324 9.62854
359 2 13.7479 3.63612 13.5827
285 2 7.54427 5.99532 11.6676
258 2 5.26682 6.47129 10.1092
24 4 8.16557 0.523282 13.5747
279 2 12.7955 4.73046 8.86307
128 3 6.08205 3.8895 12.2944
91 1 11.6803 5.00839 8.73729
288 2 6.73147 7.4726 8.08257
306 1 8.78001 7.08136 3.45533
38 4 1.691 11.8928 5.86646
44 4 5.69553 13.7009 7.59478
56 4 4.18833 11.514 3.90297
58 4 8.3459 8.94257 7.16054
60 4 6.66684 11.4695 5.71653
87 1 3.92272 8.62104 6.87547
360 2 10.0343 9.74044 3.12577
95 1 9.8573 8.96727 5.90883
133 3 4.01863 8.74841 0.736657
363 2 8.10605 13.9245 8.16837
357 3 6.46974 13.0794 0.784857
143 3 1.51448 13.0175 7.08295
178 3 3.72946 10.1659 3.01467
179 3 4.63536 12.5999 2.81821
180 3 3.03864 12.0142 4.93855
354 2 6.428 10.8212 2.36528
185 3 7.98343 11.9464 4.94973
186 3 5.50724 11.0864 4.68892
187 3 7.22742 9.84645 6.47725
188 3 6.23962 12.3441 6.99079
267 2 4.97655 8.8325 7.19138
268 2 3.92194 8.61191 5.74069
289 2 10.4681 7.98444 5.8335
33 4 2.84754 9.28507 1.95645
307 1 6.03109 8.39376 4.02732
41 4 5.32224 13.7651 1.92123
317 2 9.22816 7.85815 4.32286
318 2 6.1565 9.04106 3.0614
319 2 6.43817 8.98156 4.96806
290 2 10.3763 9.75486 6.53454
315 2 9.05795 7.445 2.38033
366 2 9.47457 9.44126 4.83381
334 1 8.99892 10.2534 3.04862
335 2 8.8067 10.6947 1.93362
336 2 8.19809 9.50961 3.30263
347 1 9.27521 8.11894 0.508168
349 2 10.2472 8.12531 1.12671
350 2 8.36621 8.37817 1.11529
351 1 6.5186 10.2815 1.42261
352 2 7.37814 9.57178 1.40144
353 2 5.55327 9.73981 1.09479
320 2 5.01308 8.06104 4.15172
35 4 1.65147 11.5164 0.355712
137 3 1.12757 12.9619 1.036
329 2 8.83087 12.4365 6.91331
57 4 6.6522 11.6929 0.0230479
291 2 9.21215 10.7559 8.57193
36 4 2.74939 9.80677 7.79509
21 4 0.561645 13.7538 8.0423
94 1 7.62099 7.1393 7.37992
17 4 9.30152 11.7291 15.3874
296 2 8.54418 12.9538 11.5192
348 2 9.57683 9.20531 17.0502
47 4 5.37144 14.0011 13.7264
59 4 4.02334 12.1202 9.73773
61 4 7.88633 9.55957 13.5525
62 4 4.32795 11.8788 15.6583
63 4 6.42817 11.8648 11.7024
83 1 4.66112 7.38946 10.4968
92 1 10.926 8.17041 10.8187
281 2 10.4512 7.54423 9.93915
97 1 7.89993 12.4854 10.6413
295 2 8.37489 11.5855 10.152
232 2 9.85658 10.8087 11.3292
181 3 8.20169 11.9734 16.7162
28 4 4.2884 7.65974 17.2728
184 3 2.73807 12.4898 10.5993
189 3 6.98061 8.45175 14.3879
190 3 9.10774 8.69833 12.7006
191 3 8.52743 10.6793 14.4282
192 3 4.01793 10.5492 14.6372
193 3 5.63898 11.7217 16.509
194 3 4.48106 13.2851 14.7686
195 3 3.05611 11.9967 16.6692
196 3 5.26057 11.6335 10.649
197 3 7.04162 10.324 12.4116
198 3 6.14847 12.9477 12.763
256 2 5.34117 8.29825 11.0216
182 3 3.50543 10.8979 8.72237
183 3 4.53701 13.4335 8.96629
292 2 9.57614 9.06272 9.58047
284 2 7.48001 7.50251 10.4288
96 1 8.769 9.64292 8.93437
293 2 7.7884 9.67816 9.48849
294 2 7.58928 13.3206 9.78812
55 4 9.55394 7.34596 12.0792
148 3 1.04938 13.179 12.5971
176 3 5.50928 7.45979 16.3172
39 4 2.85506 9.91321 13.7146
257 2 3.88997 7.84899 9.77144
330 2 9.04803 12.5058 8.83555
365 2 10.7945 9.40985 10.795
ITEM: TIMESTEP
100
ITEM: NUMBER OF ATOMS
366
ITEM: BOX BOUNDS xy xz yz pp pp pp
-7.5839999999999996e+00 1.5901800000000000e+01 -7.5839999999999996e+00
0.0000000000000000e+00 1.4340199999999999e+01 1.7780000000000001e-01
0.0000000000000000e+00 1.7418965000000000e+01 4.3709999999999999e-01
ITEM: ATOMS id type x y z
355 3 1.83795 0.728786 0.520668
5 4 0.952067 2.16121 5.56754
9 4 0.159372 4.194 1.78453
11 4 -0.245664 4.74837 7.16005
27 4 1.59201 6.75348 3.463
29 4 5.44237 4.03529 8.13399
64 1 2.1921 2.85923 4.29374
69 1 -1.66393 5.27876 5.95987
70 1 0.780882 6.3067 7.16787
76 1 5.37045 1.58529 4.9533
77 1 2.96265 6.2477 4.73763
79 1 4.20291 5.17334 7.08305
98 3 -0.298051 1.50269 4.75718
99 3 1.87396 1.16942 6.56702
102 3 -0.704455 3.17823 2.70608
103 3 1.31472 3.2877 0.92013
104 3 -0.816389 4.9145 0.714568
105 3 0.526913 3.5048 6.47017
115 3 7.1506 1.16846 0.835784
124 3 0.834636 5.37086 2.75541
324 1 3.61728 0.580431 2.5158
199 2 1.76257 2.53407 3.2865
200 2 3.32812 2.59484 4.46516
201 2 2.02682 3.94774 4.42806
210 2 -1.51309 6.86332 2.7941
4 4 2.71951 0.263582 7.57817
215 2 -1.48254 4.9016 4.86485
216 2 -1.98501 6.36474 6.09803
218 2 1.65158 6.20247 6.3037
219 2 1.13749 6.10029 8.25351
235 2 4.93507 0.708649 5.49193
236 2 5.7382 1.29211 3.91626
237 2 4.70528 2.55502 4.91169
238 2 3.72453 6.18435 3.85627
239 2 2.77086 5.19293 5.27609
241 2 -0.597606 6.53732 4.76177
244 2 3.21519 5.15039 7.71033
245 2 4.03041 4.85036 6.00728
23 4 6.87389 1.91019 6.08986
305 1 4.20421 3.95047 2.61346
310 3 3.95511 5.80448 0.602151
312 2 4.25309 2.83904 2.46051
313 2 3.14897 4.30048 2.46547
314 2 4.57289 4.28534 3.61046
326 2 3.21357 1.1679 3.3551
118 3 7.12238 0.583946 6.93386
10 4 -1.26629 6.46601 0.162054
358 2 4.09051 1.20675 1.71966
254 2 1.71667 6.54843 10.1615
8 4 1.54223 2.17497 11.9685
331 1 -1.2945 3.72141 14.381
22 4 3.84234 1.99159 9.91129
25 4 4.12297 2.47443 15.402
26 4 6.3876 2.55162 11.5904
333 2 -1.54072 4.62163 15.0023
125 3 4.45089 3.16018 8.977
65 1 -0.272131 1.98349 11.3529
66 1 1.64478 3.85753 12.9941
253 2 1.68339 5.39949 11.7045
81 1 1.11764 6.49007 14.4757
82 1 1.73648 6.49043 11.3286
100 3 0.0749059 2.44659 16.4494
101 3 1.90371 0.810912 12.8233
106 3 -2.37606 6.79902 16.4584
116 3 3.52139 0.719073 8.98901
117 3 2.47191 2.47129 10.6215
119 3 3.75862 1.04955 14.8241
120 3 5.3584 2.15465 16.4327
121 3 2.77101 2.98415 16.178
122 3 4.98599 1.94789 11.075
123 3 6.9633 1.43778 12.5377
127 3 4.54864 3.66398 14.3605
131 3 4.24836 5.84748 12.6721
202 2 -0.449153 2.68551 10.4776
30 4 5.40112 4.84088 13.5736
332 2 -0.18313 3.74791 13.8212
205 2 2.6383 4.39585 12.7492
206 2 1.52538 3.52717 14.0651
207 2 0.78935 4.48626 12.5656
251 2 1.35037 6.57464 13.3533
212 2 -1.01569 5.10344 9.49533
213 2 0.223883 3.66327 9.55872
68 1 -0.732339 4.10218 9.0346
3 4 1.54545 2.57967 17.2633
250 2 1.97744 5.79503 15.0366
252 2 0.164228 5.88478 14.6986
20 4 6.64561 2.68905 17.2079
32 4 3.56844 7.16954 11.8732
255 2 0.886427 7.13289 11.7837
211 2 -1.54696 3.40611 9.03403
1 4 -5.28433 13.5076 1.57248
338 2 -3.59816 9.50335 1.64697
14 4 -2.31268 9.91994 7.77613
15 4 -3.5481 12.0927 5.65275
67 1 -1.74579 7.34857 1.76907
34 4 -0.963983 12.0856 3.837
136 3 1.81166 10.2318 1.28003
328 2 -5.26807 11.8195 8.33165
71 1 -3.42938 8.41242 7.88746
72 1 -0.68929 9.2314 6.86241
78 1 0.0550066 7.3975 4.28537
84 1 -1.17172 10.4428 2.77814
325 2 -3.2179 13.7021 2.93213
107 3 -6.20391 13.0013 2.80675
108 3 -4.32473 12.2955 0.867902
109 3 -4.9925 11.7983 4.96652
110 3 -3.20513 10.9044 6.82842
111 3 -3.78521 13.4812 6.59321
132 3 2.21837 7.89312 2.60503
134 3 -0.758321 13.4076 2.85548
135 3 -2.37325 12.2694 4.61433
337 1 -3.46479 9.51703 0.481128
141 3 0.35349 11.852 4.83016
142 3 1.91096 10.3398 6.56541
222 2 -4.28489 8.48025 7.02793
209 2 -1.19582 8.35908 1.54528
217 2 0.216982 7.43552 7.01864
221 2 -2.46436 7.70678 7.51534
264 2 1.40831 7.89325 8.26834
223 2 -1.03633 8.22412 6.39538
224 2 0.191137 9.12041 7.66162
225 2 -0.539515 10.1049 6.22303
269 2 3.8609 7.54038 7.04506
242 2 -0.523792 8.10594 3.6368
243 2 0.609401 7.9912 5.0982
259 2 -0.117127 10.2956 2.42063
260 2 -1.84934 10.348 1.91292
261 2 -1.42841 9.68023 3.6134
339 2 -2.34978 9.71495 0.048405
208 2 -2.88126 7.50081 1.55981
327 1 -5.96503 12.6948 8.20184
13 4 -6.39196 11.9992 4.11581
329 2 -6.59937 12.5366 7.26262
240 2 3.2638 7.13117 5.47546
6 4 -4.81611 13.8674 13.9465
16 4 -2.1919 9.03359 13.3682
18 4 -3.22929 11.7731 11.9462
31 4 1.40747 7.93721 15.7161
37 4 -0.889421 11.791 10.0008
262 2 -0.30493 11.0158 17.1199
227 2 0.0216954 7.59825 13.2704
73 1 -0.665285 8.26436 12.5376
74 1 -1.18454 10.0592 14.7209
75 1 -4.73621 11.4133 10.785
86 1 1.78349 8.92149 8.92646
112 3 -3.07644 7.9184 14.1161
113 3 -3.02767 10.224 12.5238
114 3 -3.87515 12.7938 13.1236
361 2 -3.8239 9.12096 17.4075
130 3 0.196332 7.72435 16.8081
138 3 -1.6335 10.3783 9.21092
140 3 -2.15248 12.331 10.9432
144 3 1.56876 9.36377 14.7212
85 1 0.467411 11.4409 16.4676
146 3 0.246393 11.3579 10.9669
139 3 -0.325733 12.6719 8.80469
220 2 -3.8486 8.22465 8.98197
342 2 -1.94266 14.129 14.1462
228 2 -0.0748115 9.14032 12.0887
229 2 -1.67253 11.0444 15.1669
230 2 -0.362015 10.3995 13.9583
231 2 -0.6833 9.40914 15.4925
129 3 2.81018 7.70479 16.367
233 2 -4.25362 10.909 9.82164
234 2 -4.97166 12.5677 10.6559
226 2 -1.33808 7.63249 11.8148
263 2 1.0098 10.5855 15.7855
301 2 -1.42271 12.2001 16.3759
265 2 0.895273 9.58299 9.27273
266 2 2.48499 8.67646 9.77085
297 4 -3.91045 11.572 17.0928
298 1 -2.50918 12.6204 16.1061
299 3 -5.09709 10.993 16.1375
300 2 -2.81196 12.48 14.9958
362 2 0.116968 12.3682 15.7785
302 2 -2.69168 13.7058 16.4595
340 1 -0.855472 13.6545 14.5463
341 2 -0.703325 12.5644 14.2364
40 4 1.59978 11.9553 11.7194
343 2 -0.634518 13.8252 15.6589
356 3 -5.91365 13.1347 14.8691
145 3 3.24006 8.44916 12.7413
257 2 3.78612 7.53419 9.63254
330 2 -6.57171 12.8761 9.14173
232 2 -5.4679 10.827 11.2739
2 4 14.213 2.04185 3.72198
345 2 14.6688 1.54563 7.43727
19 4 7.87994 0.236425 1.8713
322 2 5.74751 5.26284 5.78621
42 4 9.28748 2.14816 3.90122
46 4 11.8972 2.01389 5.62212
50 4 10.4426 4.21451 1.84665
52 4 10.5864 4.10542 7.71654
89 1 11.5538 5.51461 2.73323
90 1 9.59789 5.25277 6.48602
214 2 13.3178 4.59684 6.4611
286 2 8.29563 6.91497 8.09541
149 3 13.5436 1.04735 2.67456
150 3 8.91653 1.16681 2.72409
151 3 8.03416 2.20816 5.01749
153 3 11.7404 0.539161 0.791662
156 3 13.0513 2.74739 4.67312
157 3 10.5666 1.6746 4.69519
158 3 12.5582 0.759169 6.50242
165 3 9.53534 3.66115 3.11604
166 3 11.4268 3.16417 1.1053
168 3 9.6304 5.19109 0.691088
170 3 11.4362 3.14154 6.7824
273 2 11.2566 6.44267 2.17389
274 2 11.3272 5.62112 3.82186
275 2 10.4098 5.83464 5.92867
276 2 8.72915 5.97793 6.84182
277 2 9.17196 4.31446 5.85819
364 2 12.5807 5.13918 2.49127
287 2 7.12038 6.56092 6.50726
278 2 11.8262 6.08571 8.17332
309 3 5.91947 3.67561 0.52556
304 4 6.78272 6.63676 3.65484
344 1 14.713 0.669719 8.24719
308 1 6.66191 5.25718 5.0251
323 2 7.78591 5.22274 5.54543
311 3 6.12101 5.89009 2.42216
316 2 8.84412 5.80748 3.69243
321 2 6.56625 4.34517 4.2392
306 1 8.5617 6.92263 3.52433
246 2 4.94522 6.14004 7.31947
303 4 5.2403 4.9237 1.32806
126 3 6.36303 3.14971 6.99606
7 4 14.4582 2.3257 15.668
91 1 11.915 5.17204 8.81046
346 2 14.458 1.02088 9.31286
12 4 12.165 6.77526 15.4079
154 3 8.86753 0.875099 9.01499
45 4 8.91629 2.26368 9.76815
167 3 10.776 7.20788 16.0969
48 4 9.26482 2.65345 15.489
49 4 11.3314 2.41022 11.8405
51 4 9.44859 6.83964 16.9525
53 4 10.8355 4.71196 13.6812
249 2 6.53834 4.75817 10.3857
80 1 6.54102 5.11122 9.28411
88 1 12.4543 2.39469 10.3499
128 3 6.33678 4.03521 12.4053
93 1 8.11303 6.62501 11.0093
248 2 7.5466 4.74823 8.80392
152 3 13.1898 2.58052 16.498
204 2 15.3916 0.654193 11.0932
155 3 7.40344 2.73321 10.2163
159 3 14.1144 0.948303 14.5006
160 3 8.89274 1.47995 14.4111
161 3 10.4242 2.3602 16.5429
162 3 7.83197 3.01872 16.2654
163 3 9.83914 2.22731 11.0894
164 3 11.8766 1.21555 12.8882
283 2 8.71483 6.66112 10.0659
54 4 6.80165 7.12307 15.323
171 3 9.71264 3.9651 14.5347
172 3 11.6181 3.92926 12.5093
173 3 12.0008 5.23195 14.6809
174 3 6.34209 5.86198 14.4617
175 3 8.17291 6.79894 16.0964
177 3 10.148 6.094 12.8277
247 2 6.59285 6.26477 9.16023
280 2 11.5425 5.40269 9.79845
270 2 12.016 1.5525 9.72874
271 2 13.5645 2.18198 10.7103
272 2 12.2228 3.48679 9.81583
359 2 13.645 3.47659 13.5964
285 2 8.03138 5.59991 11.5224
258 2 5.33117 6.50579 10.055
24 4 8.07183 0.609402 13.4438
279 2 13.0477 4.7987 8.86535
43 4 11.8197 2.38762 17.3913
203 2 14.7506 2.25355 12.2219
284 2 7.1468 7.20698 11.0188
169 3 9.59082 3.44239 8.71221
288 2 6.45549 7.32137 8.17508
94 1 7.36473 7.27605 7.49869
38 4 1.6946 11.8472 5.74445
44 4 5.57903 13.5877 7.53632
56 4 4.14255 11.4705 3.8729
58 4 8.31878 8.92324 7.06059
60 4 6.66683 11.4176 5.70329
87 1 4.04678 8.57114 6.75932
360 2 10.0792 9.69655 3.27975
95 1 9.84899 8.80271 5.83971
133 3 4.09118 8.57784 0.974198
363 2 8.07823 13.9007 8.2466
357 3 6.24968 12.8721 0.836719
143 3 1.70584 12.9739 6.96666
178 3 3.66563 10.1048 3.02666
179 3 4.66322 12.5591 2.8089
180 3 2.92515 11.9607 4.73712
354 2 6.70621 10.759 2.19966
185 3 7.90469 12.0694 4.98961
186 3 5.41885 11.0574 4.83317
187 3 7.25828 9.80649 6.26938
188 3 6.35839 12.2632 7.02412
267 2 5.07744 8.96462 7.20829
268 2 3.92959 8.70213 5.59365
289 2 10.4115 7.87732 5.82559
33 4 2.99233 9.23525 1.88176
307 1 5.90735 8.36214 3.9789
41 4 5.27487 13.7637 1.81548
317 2 9.07259 7.66585 4.36529
318 2 6.15585 9.0494 2.99148
319 2 6.44275 8.74849 4.87665
290 2 10.3978 9.65441 6.47542
315 2 8.77377 7.36487 2.38178
366 2 9.5465 9.25718 4.7814
334 1 9.16268 10.3757 3.10313
335 2 9.20739 10.7082 2.04005
336 2 8.14594 9.90712 3.40282
347 1 9.04369 8.05125 0.531154
349 2 9.68443 8.11001 1.39687
350 2 7.89088 8.11714 0.766016
351 1 6.65172 10.1078 1.30075
352 2 7.62254 9.39673 1.15937
353 2 5.67537 9.45147 1.21308
320 2 4.79661 8.36275 4.18643
35 4 1.62116 11.5005 0.317897
137 3 1.08845 12.8798 0.989785
182 3 3.78284 10.907 8.5657
21 4 0.604659 13.7482 7.9433
291 2 9.13018 10.7901 8.67578
36 4 2.93909 9.89365 7.70263
17 4 9.27301 11.6744 15.4916
296 2 8.27321 13.1836 11.7366
348 2 9.46677 9.17396 17.1332
47 4 5.2481 14.088 13.7879
59 4 4.08393 12.1024 9.74844
61 4 7.77231 9.61521 13.6325
62 4 4.17558 11.877 15.5304
63 4 6.32057 11.7718 11.7973
83 1 4.64207 7.43426 10.4007
92 1 10.8336 8.09 10.7501
281 2 10.536 7.5894 9.74815
97 1 7.81251 12.6108 10.8206
295 2 8.40247 11.7657 10.4923
147 3 2.28988 10.8659 12.5501
181 3 8.15666 11.902 16.7294
28 4 4.19938 7.59389 17.1825
184 3 2.69515 12.4474 10.453
189 3 6.94966 8.45321 14.3895
190 3 8.8142 8.54689 12.8436
191 3 8.63113 10.6542 14.408
192 3 4.04018 10.5977 14.4161
193 3 5.60702 11.4981 16.4077
194 3 4.35194 13.346 14.7883
195 3 3.01745 11.9447 16.6718
196 3 5.20041 11.4598 10.7537
197 3 6.93344 10.4203 12.436
198 3 5.99383 13.019 12.7668
256 2 5.31426 8.37506 10.5463
57 4 6.76765 11.9837 17.4134
183 3 4.79737 13.3528 9.01919
292 2 9.52209 9.04863 9.55655
365 2 10.8668 9.32341 10.7003
96 1 8.74955 9.66377 8.83174
293 2 7.65613 9.60642 9.21517
294 2 7.52433 13.385 9.80042
55 4 9.50948 7.36927 12.1085
148 3 1.13894 13.2206 12.6579
176 3 5.56584 7.61373 16.3305
39 4 2.91759 9.8835 13.5918
282 2 11.7168 7.65706 11.2568
ITEM: TIMESTEP
200
ITEM: NUMBER OF ATOMS
366
ITEM: BOX BOUNDS xy xz yz pp pp pp
-7.5839999999999996e+00 1.5901800000000000e+01 -7.5839999999999996e+00
0.0000000000000000e+00 1.4340199999999999e+01 1.7780000000000001e-01
0.0000000000000000e+00 1.7418965000000000e+01 4.3709999999999999e-01
ITEM: ATOMS id type x y z
355 3 1.69697 0.871595 0.634989
5 4 1.00783 2.08884 5.70253
9 4 0.0565437 4.11279 1.78898
11 4 -0.204288 4.88505 7.12828
27 4 1.59808 6.66685 3.46252
29 4 5.45588 4.18197 8.18955
64 1 2.23789 2.66522 4.41235
69 1 -1.69155 5.29823 6.04667
70 1 0.8739 6.42999 7.20068
76 1 5.46307 1.81852 4.87475
77 1 2.97647 6.26499 4.75444
79 1 4.37919 5.54338 7.25881
98 3 -0.273077 1.39633 4.71026
99 3 1.85271 1.19451 6.78597
102 3 -0.728296 3.24063 2.78036
103 3 1.13577 3.31979 0.865846
104 3 -0.791473 5.01812 0.825886
105 3 0.460996 3.67483 6.36042
115 3 7.02702 1.17162 0.92716
124 3 1.0588 5.31007 2.63611
324 1 3.79452 0.523162 2.51486
199 2 1.80634 2.24897 3.46944
200 2 3.31324 2.29884 4.61447
201 2 2.04659 3.84343 4.57909
210 2 -1.67951 6.89314 2.62901
4 4 2.94766 0.219691 7.76434
215 2 -1.50016 4.90214 4.98649
216 2 -1.98107 6.42128 5.94479
218 2 1.72171 6.39735 6.32512
219 2 1.25859 6.28083 8.24784
235 2 4.78839 0.989971 5.28101
236 2 6.03659 1.5938 3.86469
237 2 4.98755 2.85152 5.02458
238 2 3.78207 6.15773 3.93408
239 2 2.98283 5.3791 5.41129
241 2 -0.521422 6.647 5.10306
244 2 3.74832 5.93041 8.03886
245 2 3.83414 4.91603 6.46281
303 4 5.24039 4.79743 1.40893
305 1 4.10383 3.9144 2.62772
310 3 4.21902 5.63725 0.526662
312 2 4.44854 2.82948 2.70958
313 2 3.04812 4.07216 2.27402
314 2 4.27553 4.44796 3.5996
326 2 3.59774 0.325661 3.618
118 3 7.16118 0.705936 6.86193
10 4 -1.25727 6.50221 0.0527533
358 2 3.81015 1.57337 2.24528
254 2 2.13634 6.06108 10.3655
8 4 1.58951 2.16559 12.0139
331 1 -1.24842 3.75589 14.5262
22 4 3.86637 2.20166 9.93907
25 4 4.09714 2.50667 15.5117
26 4 6.45742 2.55024 11.5489
333 2 -1.35607 4.68937 15.1748
125 3 4.36865 3.4221 9.01121
65 1 -0.257992 1.85489 11.3963
66 1 1.71371 3.68687 13.2774
253 2 1.86594 5.3172 12.0776
81 1 1.02328 6.43985 14.5841
82 1 1.96914 6.34896 11.418
100 3 0.132992 2.28716 16.3591
101 3 1.94802 0.862512 12.7957
106 3 -2.38851 6.73531 16.6004
116 3 3.65133 0.86135 9.16149
117 3 2.38678 2.56457 10.6394
119 3 3.65257 1.18767 14.7389
120 3 5.27705 2.09532 16.6179
121 3 2.75968 3.08645 16.1319
122 3 4.99468 1.96893 11.1196
211 2 -1.41373 3.16585 9.06302
127 3 4.72274 3.62339 14.3992
131 3 4.38962 5.9292 12.68
202 2 -0.496327 2.72502 10.5535
30 4 5.48184 4.83167 13.4588
332 2 -0.167004 3.72428 14.0013
205 2 2.82561 3.9244 12.9245
206 2 1.74829 3.59045 14.3861
207 2 0.897541 4.46464 12.9368
251 2 1.24147 6.38285 13.3162
212 2 -1.06659 4.9804 9.54989
213 2 0.313957 3.81507 9.48562
68 1 -0.677524 4.06758 9.02672
3 4 1.56242 2.6408 17.1781
250 2 1.60051 5.55038 15.0652
252 2 -0.168968 6.44104 14.7547
20 4 6.60302 2.77484 17.217
32 4 3.70223 7.14393 11.966
255 2 1.06154 7.00362 11.5795
1 4 -5.25722 13.5902 1.62959
338 2 -3.14782 9.64435 1.82449
14 4 -2.21531 9.87736 7.78641
15 4 -3.63756 12.0722 5.73247
67 1 -1.96829 7.3275 1.61187
34 4 -0.990418 12.1449 3.89567
136 3 1.95473 10.1281 1.07443
328 2 -5.17457 11.9185 8.31265
71 1 -3.31422 8.39817 8.03727
72 1 -0.622742 9.30397 6.74364
78 1 0.168637 7.40204 4.54061
84 1 -1.05461 10.5525 2.83198
325 2 -2.82228 13.8866 2.15126
107 3 -6.28473 13.0815 2.80108
108 3 -4.58667 12.2359 0.926293
109 3 -5.06211 11.9429 5.00313
110 3 -3.11406 10.7763 6.84813
111 3 -3.61271 13.4734 6.74924
132 3 2.11622 7.90304 2.64694
134 3 -0.792885 13.2335 2.72946
135 3 -2.44551 12.0969 4.63895
337 1 -3.19553 9.70207 0.71924
141 3 0.197078 11.9018 4.91322
142 3 2.03525 10.5112 6.37039
222 2 -4.25275 8.44553 7.27175
209 2 -1.36726 8.34239 1.43975
217 2 0.225248 7.52602 7.11637
221 2 -2.4195 7.62098 7.7419
264 2 1.47901 8.03546 8.23606
223 2 -0.984959 8.36983 6.14607
224 2 0.26808 9.21483 7.61048
225 2 -0.479342 10.2098 6.01816
269 2 3.75486 7.63074 6.94734
242 2 -0.47748 8.10815 3.91849
243 2 0.798186 7.98908 5.31301
259 2 0.0286069 10.519 2.40277
260 2 -1.83702 10.3643 2.01001
261 2 -1.20174 9.71114 3.67017
361 2 -3.88033 8.85489 0.291628
208 2 -3.10376 7.42181 1.50705
327 1 -5.97272 12.8051 8.20068
360 2 -5.1735 9.91505 3.18151
329 2 -6.59416 12.8832 7.17703
240 2 3.26952 7.32153 5.36184
21 4 0.452584 13.7466 7.90981
339 2 -2.20445 9.82195 0.18412
6 4 -4.8428 13.92 13.8612
16 4 -2.19327 8.91134 13.3145
18 4 -3.23007 11.8482 11.9678
31 4 1.51453 7.8969 15.6842
37 4 -0.90171 11.8027 10.0049
262 2 -0.397809 11.0672 17.2304
227 2 -0.0781474 7.52855 13.2874
73 1 -0.703229 8.14205 12.4402
74 1 -1.33635 9.78834 14.813
75 1 -4.76307 11.3494 10.9033
86 1 1.79368 8.95239 8.88267
112 3 -3.03849 7.85626 14.1744
113 3 -2.73823 10.2878 12.6219
114 3 -3.82975 12.7691 13.0792
39 4 2.77155 9.7284 13.6416
130 3 0.0227829 7.88996 16.7776
138 3 -1.79489 10.479 9.23387
140 3 -1.9338 12.5596 11.093
144 3 1.50877 9.19292 14.6844
85 1 0.383691 11.3651 16.4893
146 3 0.384537 11.2094 10.7011
139 3 -0.325191 12.7034 8.80901
220 2 -3.69292 8.28333 9.10424
342 2 -1.84138 14.0677 14.236
228 2 -0.00449976 8.88046 12.0007
229 2 -1.92368 10.6497 15.3914
230 2 -0.516895 10.2637 14.1859
231 2 -0.863326 8.93955 15.5145
129 3 2.91516 7.7501 16.3432
233 2 -4.33317 10.7117 10.0853
234 2 -5.06235 12.4135 10.5524
226 2 -1.36112 7.57416 11.6812
263 2 0.784201 10.4751 15.8378
301 2 -1.53683 12.0683 16.2462
265 2 0.946925 9.68439 9.0802
266 2 2.3637 8.66669 9.82019
297 4 -3.91364 11.5551 17.2981
298 1 -2.60651 12.4685 16.0824
299 3 -5.14346 11.0364 16.2937
300 2 -2.99845 12.1422 15.0875
362 2 0.106837 12.3187 15.8186
302 2 -2.67405 13.5911 16.3092
340 1 -0.808721 13.5665 14.453
341 2 -0.69081 12.483 14.0486
232 2 -5.64089 10.8868 11.6114
343 2 -0.502039 13.7792 15.5704
356 3 -5.89304 13.1032 14.7212
145 3 3.48952 8.44899 12.8442
257 2 3.47805 7.82286 9.48561
147 3 2.14447 10.8981 12.6487
2 4 14.316 1.92747 3.69438
345 2 14.6435 1.49769 7.56805
19 4 7.90827 0.101024 1.91502
322 2 5.82953 5.36412 5.89414
42 4 9.30242 2.15608 3.78782
46 4 11.9346 2.02041 5.45609
50 4 10.5129 4.26366 1.74956
52 4 10.6365 4.17713 7.70641
89 1 11.6162 5.35275 2.82909
90 1 9.70261 5.26135 6.40813
214 2 13.2776 4.63964 6.67481
286 2 8.39304 6.96577 8.05704
149 3 13.6766 0.814605 2.74286
150 3 8.94348 0.850799 2.9323
151 3 8.1407 2.45548 4.94932
153 3 11.6816 0.499396 0.874062
156 3 13.1142 2.66125 4.60015
157 3 10.7042 1.84639 4.51013
158 3 12.2965 0.741085 6.27472
165 3 9.45648 3.44974 2.84104
166 3 11.372 3.11895 1.04549
168 3 9.6896 5.31718 0.687088
170 3 11.5062 3.26583 6.7119
273 2 11.0353 6.34821 2.98024
274 2 11.8426 4.78567 3.81275
275 2 10.3945 5.79606 5.68899
276 2 8.87491 5.93743 6.80956
277 2 9.23239 4.31643 5.88445
364 2 12.5024 5.46269 2.21288
287 2 7.24395 6.49728 6.48537
278 2 11.8644 6.08198 8.1775
309 3 6.02339 3.67564 0.595188
304 4 6.78277 6.5146 3.6615
344 1 14.6325 0.671069 8.34618
308 1 6.74157 5.18194 5.07682
323 2 7.83838 5.21421 5.64184
311 3 6.17704 5.85285 2.35222
316 2 8.94145 5.83052 3.74853
321 2 6.61925 4.29811 4.44582
306 1 8.6132 6.96747 3.6267
246 2 5.09195 6.35761 6.79907
23 4 6.99091 2.07191 6.00393
126 3 6.33457 3.44141 7.10092
43 4 11.4774 1.80575 0.00113463
7 4 14.2555 2.24616 15.6356
91 1 11.9569 5.10843 8.81357
346 2 14.2904 1.05846 9.36306
12 4 12.2037 6.7804 15.4458
154 3 8.82133 0.963912 8.82472
45 4 8.93412 2.23758 9.78058
167 3 10.8092 7.2965 16.1046
48 4 9.24038 2.65334 15.4792
49 4 11.2515 2.30059 11.9249
51 4 9.48766 6.85104 16.9693