ITEM: TIMESTEP
0
ITEM: NUMBER OF ATOMS
366
ITEM: BOX BOUNDS xy xz yz pp pp pp
-7.4449689999999995e+00 1.5901800000000000e+01 -7.4449689999999995e+00
0.0000000000000000e+00 1.4340199999999999e+01 1.7780000000000001e-01
0.0000000000000000e+00 1.7246500000000001e+01 4.3709999999999999e-01
ITEM: ATOMS id type x y z
355 3 1.75425 0.692366 0.625605
5 4 0.893253 2.22292 5.51822
9 4 0.290679 4.16805 1.73086
11 4 -0.397478 4.7966 7.0299
27 4 1.59651 6.74794 3.42471
29 4 5.37784 3.88548 7.9506
64 1 2.24959 2.75302 4.25908
69 1 -1.89435 5.40574 5.88411
70 1 0.916133 6.19213 7.04209
76 1 5.29598 1.63386 4.88326
77 1 3.10802 6.34849 4.60188
79 1 4.20532 5.05744 6.93006
98 3 -0.265679 1.60108 4.70368
99 3 1.68321 1.26774 6.57689
102 3 -0.820932 3.35014 2.7273
103 3 1.39855 3.16428 1.14259
104 3 -0.518028 4.8652 0.506215
105 3 0.338023 3.61831 6.28614
115 3 6.90402 1.19277 0.860449
124 3 1.1041 5.46112 2.6762
324 1 4.00325 0.406697 2.33527
199 2 1.84862 2.3196 3.32059
200 2 3.37019 2.36129 4.46598
201 2 2.10694 3.85284 4.47197
210 2 -1.24434 6.6687 2.56233
303 4 5.16684 4.83519 1.40647
215 2 -1.68707 5.14839 4.84292
216 2 -2.0687 6.51304 5.98045
218 2 1.80029 6.20257 6.15698
219 2 1.32507 5.93066 8.11301
235 2 4.63646 0.799147 5.39241
236 2 5.91813 1.32445 3.88648
237 2 4.76559 2.61417 4.77813
238 2 3.81919 6.332 3.76333
239 2 3.0595 5.33777 5.06736
241 2 -0.571932 6.66928 4.91644
244 2 3.16648 5.33173 7.43643
245 2 4.06052 4.7246 5.82042
23 4 6.9082 1.89742 5.90146
305 1 4.13774 3.93587 2.69588
310 3 4.10435 5.839 0.728025
312 2 4.41861 2.84906 2.7689
313 2 3.01233 4.09849 2.40456
314 2 4.49242 4.52308 3.64873
326 2 3.7928 1.5603 2.34411
118 3 7.15204 0.724633 6.91249
10 4 -1.11465 6.33251 0.0510413
358 2 4.94126 0.310508 1.74676
254 2 2.00467 6.3885 10.0673
8 4 1.56455 2.21103 11.8181
331 1 -1.15248 3.80633 14.2377
22 4 3.76884 1.97325 9.83952
25 4 4.1622 2.44247 15.234
26 4 6.37598 2.46124 11.4845
333 2 -1.40299 4.73645 14.8914
342 2 5.88038 0.397779 14.5034
65 1 -0.347025 1.94541 11.2344
66 1 1.80729 3.83622 12.9436
253 2 1.74578 5.54622 11.7901
81 1 1.08806 6.40344 14.3628
82 1 1.88599 6.57185 11.2101
100 3 0.261477 2.47918 16.1236
101 3 2.01918 0.935249 12.6947
106 3 -2.31901 6.80213 16.4795
116 3 3.19674 0.678812 8.76506
117 3 2.38603 2.48285 10.4802
119 3 3.79558 1.03997 14.4911
120 3 5.45723 2.1376 16.1062
121 3 2.9065 2.95306 16.2172
122 3 4.87095 1.69164 10.9508
123 3 7.24072 1.50078 12.466
127 3 4.56783 3.59195 14.2951
131 3 4.27959 5.69848 12.5861
202 2 -0.557251 2.86655 10.3499
30 4 5.2579 4.74497 13.4004
332 2 -0.0320463 3.78089 13.7813
205 2 2.80234 4.35479 12.7709
206 2 1.73812 3.47015 13.9806
207 2 0.884455 4.42919 12.5983
251 2 1.34563 6.50993 13.1442
212 2 -0.923652 5.17818 9.61337
213 2 0.210318 3.75408 8.98219
68 1 -0.909785 4.24889 8.96729
3 4 1.57608 2.55102 17.1322
250 2 1.77357 5.59731 14.7791
252 2 -0.0450472 6.29771 14.5483
203 2 -0.781562 2.20213 12.2597
32 4 3.74583 7.07342 11.8786
125 3 4.36097 3.08742 8.83659
20 4 6.68003 2.78305 16.9438
255 2 0.980784 7.21556 11.4806
1 4 -5.05769 13.541 1.60056
338 2 -3.78184 9.37026 1.59777
14 4 -2.17985 9.84101 7.60668
15 4 -3.40349 11.9545 5.59015
67 1 -1.53607 7.24313 1.6592
34 4 -0.819199 12.1855 3.90703
136 3 1.79329 10.2379 1.38492
328 2 -5.17439 11.7289 7.61593
71 1 -3.32704 8.43174 7.78588
72 1 -0.638116 9.00812 6.68045
78 1 0.230272 7.46228 4.445
84 1 -1.05162 10.6983 2.67341
325 2 -3.25288 13.959 3.41445
107 3 -5.96597 13.1275 2.9268
108 3 -4.65901 12.0807 0.910993
109 3 -4.90647 11.5799 4.85262
110 3 -2.84735 10.8831 6.58915
111 3 -3.6757 13.4688 6.41966
132 3 2.24375 7.97136 2.65167
134 3 -0.506848 13.3985 2.82635
135 3 -2.27061 12.2936 4.53114
337 1 -3.31865 9.41366 0.54203
141 3 0.461159 11.7879 4.83395
142 3 1.88221 10.3964 6.56658
222 2 -4.19413 8.52334 7.01263
209 2 -0.777907 8.14172 1.47089
217 2 0.297759 7.23908 6.91898
221 2 -2.6388 7.59295 7.63194
264 2 1.26585 7.78716 8.30703
223 2 -1.07119 7.99566 6.34541
224 2 0.191453 8.94768 7.54512
225 2 -0.233123 9.6972 5.83354
240 2 3.40523 7.19329 5.41607
242 2 -0.317911 8.26637 3.88408
243 2 0.957993 7.87683 5.265
259 2 -0.023047 10.4931 2.26053
260 2 -1.84112 10.8591 1.90166
261 2 -1.43828 9.88131 3.40876
339 2 -2.24892 9.65081 0.59207
4 4 -4.77141 14.0039 7.42015
327 1 -5.99456 12.5493 7.73325
13 4 -6.26593 11.9333 3.89613
208 2 -2.61673 7.53465 1.58297
269 2 3.64155 7.61713 7.23613
6 4 -4.69825 13.8916 13.7367
16 4 -2.15004 9.11022 13.2762
18 4 -3.36902 11.737 11.6997
31 4 1.63655 7.86218 15.4957
37 4 -0.845322 11.6747 10.0112
147 3 2.29469 10.8711 12.5382
227 2 0.0300941 7.62793 13.056
73 1 -0.635327 8.3134 12.2972
74 1 -1.09862 9.98194 14.6897
75 1 -4.90922 11.4263 10.6376
86 1 1.60403 8.78608 8.93698
112 3 -2.92201 8.04777 14.2483
113 3 -2.81281 10.2315 12.3829
114 3 -3.77109 12.6743 12.8748
361 2 -3.37005 8.91475 17.1082
130 3 0.378494 7.91103 16.4316
138 3 -1.53593 10.4865 9.04523
140 3 -2.04303 12.3935 10.7511
144 3 1.68229 9.40125 14.5696
85 1 0.539679 11.3932 16.4102
146 3 0.374774 11.0921 10.9108
139 3 -0.144985 12.7192 9.01221
220 2 -3.74019 8.41392 8.93728
282 2 -3.8093 7.77188 11.1809
228 2 -0.0833386 9.24206 11.8021
229 2 -1.65299 10.8179 15.2464
230 2 -0.407864 10.4826 14.0128
231 2 -0.577475 9.25171 15.4128
129 3 3.04823 7.54115 16.2249
233 2 -4.61286 10.963 9.70612
234 2 -5.22851 12.5403 10.4799
226 2 -1.28535 7.75012 11.5967
263 2 1.07413 10.6202 15.7231
301 2 -1.43457 12.1388 16.4115
265 2 0.750969 9.44834 9.22234
266 2 2.19356 8.47779 9.89858
297 4 -3.88841 11.4382 17.0071
298 1 -2.47507 12.5807 16.1393
299 3 -4.88429 11.0888 15.8756
300 2 -2.82789 12.4153 15.053
362 2 0.104339 12.3172 15.749
302 2 -2.63498 13.6238 16.5399
340 1 -0.642445 13.8218 14.6545
341 2 -0.684563 12.6802 14.3092
40 4 1.71602 11.9758 11.5929
343 2 -0.285238 13.9727 15.7271
356 3 -5.85668 13.1232 14.5592
145 3 3.48214 8.47998 12.6852
262 2 -0.199312 10.9315 17.1453
2 4 14.2649 2.1817 3.63025
43 4 11.5692 2.0304 0.181715
19 4 7.88827 0.284779 1.69333
322 2 5.81144 5.25433 5.63642
42 4 9.33337 2.0726 3.84074
46 4 11.9606 1.90886 5.60789
50 4 10.3903 4.27593 1.89514
52 4 10.4689 3.94181 7.55229
89 1 11.7299 5.47028 2.57823
90 1 9.83376 5.0534 6.14453
214 2 13.0854 4.69333 6.45065
126 3 6.38872 3.16076 6.81951
149 3 13.7685 0.905241 2.82528
150 3 8.8761 1.19521 2.58289
151 3 8.08292 2.25835 4.86994
153 3 11.7534 0.621247 1.0221
156 3 13.0405 2.73103 4.55134
157 3 10.6348 1.4989 4.68863
158 3 12.6548 0.713675 6.43818
165 3 9.65944 3.63574 3.3023
166 3 11.3242 3.26255 1.16803
168 3 9.55614 5.30426 0.690511
170 3 11.4192 2.92619 6.8152
273 2 11.672 6.27436 1.70983
274 2 11.4967 5.93893 3.60844
275 2 10.7052 5.52656 5.61354
276 2 9.07703 5.87349 6.57451
277 2 9.32399 4.32173 5.50807
246 2 4.9814 5.95449 7.02066
287 2 7.29016 6.47813 6.38608
278 2 11.5771 5.94386 7.98529
345 2 14.8729 1.60787 7.49091
304 4 6.98848 6.65311 3.52498
344 1 14.8101 0.817449 8.26983
308 1 6.74841 5.22993 4.9012
323 2 7.76063 5.06517 5.41712
311 3 6.29187 6.08268 2.28866
316 2 9.18766 5.91922 3.6149
321 2 6.6107 4.43766 4.16986
364 2 12.7069 4.86767 2.63601
286 2 8.51802 6.64348 7.90932
309 3 5.97262 3.68748 0.586625
7 4 14.302 2.34153 15.3511
211 2 14.0134 3.54478 9.31171
346 2 15.0107 1.23255 9.3145
12 4 12.2703 6.91281 15.2714
154 3 8.81337 0.915439 8.94495
45 4 8.90948 2.24756 9.75443
167 3 10.8433 7.12538 15.9263
48 4 9.37587 2.80071 15.1699
49 4 11.4118 2.31117 11.7108
51 4 9.51847 6.87653 16.8398
53 4 10.9708 4.83907 13.4236
249 2 6.26239 4.90337 10.3024
80 1 6.45358 5.01255 9.16126
88 1 12.449 2.29607 10.1096
169 3 9.4 3.4784 8.71399
93 1 8.15389 6.63531 10.7563
248 2 7.4418 4.46283 8.81389
152 3 13.1594 2.56432 16.5208
204 2 15.3084 0.839827 10.966
155 3 7.35681 2.68109 10.2641
159 3 13.9915 1.11123 14.4555
160 3 9.11991 1.39089 14.4069
161 3 10.53 2.5046 16.2763
162 3 7.9724 3.24549 16.048
163 3 9.93384 2.10653 11.022
164 3 12.1664 1.05641 12.5329
283 2 8.75407 6.04404 10.0248
54 4 6.721 7.12978 15.098
171 3 9.87592 3.98936 14.174
172 3 11.565 3.7414 12.3356
173 3 12.1565 5.45014 14.4344
174 3 6.19222 5.75807 14.2581
175 3 8.08037 6.87998 15.9922
177 3 10.3197 6.14306 12.7378
247 2 6.46381 6.06072 8.82979
280 2 11.2089 5.1516 9.68064
270 2 12.146 1.38276 9.50442
271 2 13.5352 2.21883 10.4506
272 2 12.1904 3.27324 9.53321
359 2 13.7809 3.63612 13.4482
285 2 7.6013 5.99532 11.552
258 2 5.329 6.47129 10.0091
24 4 8.16739 0.523282 13.4403
279 2 12.8405 4.73046 8.77532
128 3 6.11786 3.8895 12.1727
91 1 11.7282 5.00839 8.65079
288 2 6.80416 7.4726 8.00254
306 1 8.84996 7.08136 3.42112
38 4 1.80846 11.8928 5.80837
44 4 5.83063 13.7009 7.51958
56 4 4.30249 11.514 3.86433
58 4 8.43353 8.94257 7.08964
60 4 6.7801 11.4695 5.65993
87 1 4.0072 8.62104 6.8074
360 2 10.1309 9.74044 3.09482
95 1 9.94549 8.96727 5.85033
133 3 4.10593 8.74841 0.729363
363 2 8.24325 13.9245 8.0875
357 3 6.60034 13.0794 0.777086
143 3 1.64288 13.0175 7.01282
178 3 3.83036 10.1659 2.98482
179 3 4.76065 12.5999 2.79031
180 3 3.15754 12.0142 4.88966
354 2 6.53562 10.8212 2.34186
185 3 8.10165 11.9464 4.90072
186 3 5.61692 11.0864 4.6425
187 3 7.32426 9.84645 6.41312
188 3 6.36131 12.3441 6.92157
267 2 5.06307 8.8325 7.12017
268 2 4.00662 8.61191 5.68385
289 2 10.5465 7.98444 5.77574
33 4 2.9399 9.28507 1.93708
307 1 6.11401 8.39376 3.98745
41 4 5.45941 13.7651 1.90221
317 2 9.30566 7.85815 4.28006
318 2 6.24615 9.04106 3.03109
319 2 6.52674 8.98156 4.91887
290 2 10.4722 9.75486 6.46984
315 2 9.1318 7.445 2.35677
366 2 9.56776 9.44126 4.78596
334 1 9.10068 10.2534 3.01844
335 2 8.91316 10.6947 1.91448
336 2 8.29236 9.50961 3.26993
347 1 9.35627 8.11894 0.503136
349 2 10.3282 8.12531 1.11556
350 2 8.44971 8.37817 1.10424
351 1 6.62105 10.2815 1.40853
352 2 7.4735 9.57178 1.38756
353 2 5.65039 9.73981 1.08395
320 2 5.09265 8.06104 4.11061
35 4 1.76654 11.5164 0.35219
137 3 1.25693 12.9619 1.02574
329 2 8.9535 12.4365 6.84486
57 4 6.76912 11.6929 0.0228197
291 2 9.31756 10.7559 8.48706
36 4 2.8455 9.80677 7.71791
21 4 0.697164 13.7538 7.96267
94 1 7.69053 7.1393 7.30685
17 4 9.41495 11.7291 15.2351
296 2 8.67083 12.9538 11.4052
348 2 9.66461 9.20531 16.8813
47 4 5.50801 14.0011 13.5905
59 4 4.1421 12.1202 9.64132
61 4 7.97853 9.55957 13.4183
62 4 4.44281 11.8788 15.5033
63 4 6.54388 11.8648 11.5865
83 1 4.73238 7.38946 10.3928
92 1 11.005 8.17041 10.7116
281 2 10.5242 7.54423 9.84075
97 1 8.02211 12.4854 10.5359
295 2 8.4882 11.5855 10.0515
232 2 9.96183 10.8087 11.2171
181 3 8.31723 11.9734 16.5507
28 4 4.36067 7.65974 17.1018
184 3 2.8603 12.4898 10.4943
189 3 7.06152 8.45175 14.2455
190 3 9.19154 8.69833 12.5749
191 3 8.63061 10.6793 14.2853
192 3 4.11975 10.5492 14.4923
193 3 5.75206 11.7217 16.3455
194 3 4.61021 13.2851 14.6224
195 3 3.17189 11.9967 16.5042
196 3 5.37423 11.6335 10.5435
197 3 7.14175 10.324 12.2887
198 3 6.27475 12.9477 12.6366
256 2 5.42139 8.29825 10.9125
182 3 3.61222 10.8979 8.63601
183 3 4.6691 13.4335 8.87751
292 2 9.66436 9.06272 9.48562
284 2 7.55241 7.50251 10.3255
96 1 8.86319 9.64292 8.84591
293 2 7.88281 9.67816 9.39454
294 2 7.72003 13.3206 9.69121
55 4 9.62437 7.34596 11.9597
148 3 1.17801 13.179 12.4724
176 3 5.57978 7.45979 16.1556
39 4 2.95075 9.91321 13.5788
257 2 3.96601 7.84899 9.67469
330 2 9.17087 12.5058 8.74807
365 2 10.8859 9.40985 10.6881
ITEM: TIMESTEP
100
ITEM: NUMBER OF ATOMS
366
ITEM: BOX BOUNDS xy xz yz pp pp pp
-7.4449689999999995e+00 1.5901800000000000e+01 -7.4449689999999995e+00
0.0000000000000000e+00 1.4340199999999999e+01 1.7780000000000001e-01
0.0000000000000000e+00 1.7246500000000001e+01 4.3709999999999999e-01
ITEM: ATOMS id type x y z
355 3 1.84829 0.710186 0.502029
5 4 0.987547 2.145 5.51174
9 4 0.20102 4.19656 1.75758
11 4 -0.190199 4.75048 7.12327
27 4 1.63794 6.74755 3.41487
29 4 5.47924 4.06942 8.05329
64 1 2.24122 2.83584 4.25578
69 1 -1.65297 5.30267 5.86289
70 1 0.861996 6.3571 7.11111
76 1 5.38418 1.61069 4.89395
77 1 3.0031 6.24731 4.68736
79 1 4.24746 5.13146 7.07601
98 3 -0.274198 1.50684 4.71016
99 3 1.86006 1.18947 6.50825
102 3 -0.679189 3.19061 2.68198
103 3 1.34094 3.28053 0.929414
104 3 -0.761508 4.90663 0.687069
105 3 0.552819 3.52041 6.41761
115 3 7.15064 1.16847 0.815756
124 3 0.877589 5.4068 2.74935
324 1 3.65915 0.586543 2.45508
199 2 1.86511 2.54904 3.26254
200 2 3.36997 2.52937 4.44124
201 2 2.11984 3.91767 4.41133
210 2 -1.44985 6.86731 2.79579
4 4 2.73617 0.243592 7.51901
215 2 -1.33808 4.8738 4.81174
216 2 -1.88127 6.41672 5.97025
218 2 1.69405 6.25478 6.28395
219 2 1.22974 6.15731 8.21258
235 2 4.93391 0.71569 5.42846
236 2 5.72464 1.33906 3.8527
237 2 4.72862 2.6009 4.91796
238 2 3.78111 6.19528 3.79166
239 2 2.92734 5.18486 5.29341
241 2 -0.525258 6.58792 4.7261
244 2 3.31799 5.03072 7.65485
245 2 4.11681 4.89619 5.94779
23 4 6.88732 1.88379 6.02407
305 1 4.23874 3.90747 2.60575
310 3 4.00506 5.80711 0.600867
312 2 4.11942 2.69098 2.53866
313 2 3.22277 4.36709 2.51415
314 2 4.6852 4.25056 3.57967
326 2 3.21695 1.14914 3.28512
118 3 7.11824 0.585328 6.85384
10 4 -1.21297 6.46991 0.178346
358 2 4.18828 1.22442 1.70223
254 2 1.81154 6.56863 10.0238
8 4 1.54739 2.18191 11.875
331 1 -1.26648 3.74428 14.2351
22 4 3.85272 1.98645 9.82619
25 4 4.14861 2.47539 15.2401
26 4 6.38729 2.56052 11.4587
333 2 -1.48423 4.6354 14.8842
125 3 4.49204 3.19157 8.88407
65 1 -0.264588 1.9939 11.2702
66 1 1.68357 3.88015 12.9013
253 2 1.73595 5.34818 11.5096
81 1 1.16341 6.48484 14.3193
82 1 1.80989 6.47232 11.1857
100 3 0.0926782 2.44603 16.281
101 3 1.91854 0.816217 12.6869
106 3 -2.32109 6.82887 16.3083
116 3 3.52133 0.664833 8.91711
117 3 2.43994 2.48961 10.505
119 3 3.7746 1.03855 14.6826
120 3 5.37614 2.15554 16.2668
121 3 2.77997 2.98652 15.9951
122 3 4.97528 1.93117 11.0005
123 3 6.98791 1.43797 12.4299
127 3 4.58309 3.67419 14.2145
131 3 4.31537 5.86422 12.5494
202 2 -0.406032 2.67593 10.3959
30 4 5.45455 4.85442 13.4417
332 2 -0.145832 3.76205 13.6715
205 2 2.70248 4.36126 12.703
206 2 1.53263 3.51639 13.9523
207 2 0.863332 4.57364 12.4801
251 2 1.41385 6.57173 13.1964
212 2 -0.859085 5.05652 9.59163
213 2 0.291794 3.63513 9.18443
68 1 -0.755681 4.13093 8.95422
3 4 1.55369 2.58151 17.0853
250 2 2.06923 5.79502 14.893
252 2 0.237889 5.8858 14.5405
20 4 6.65543 2.69335 17.0426
32 4 3.65674 7.16207 11.7354
255 2 0.967795 7.09933 11.6209
211 2 -1.56942 3.45378 9.25708
1 4 -5.15406 13.5122 1.56443
338 2 -3.43931 9.49461 1.63858
14 4 -2.19874 9.90693 7.71151
15 4 -3.42992 12.0842 5.58347
67 1 -1.68637 7.34549 1.80993
34 4 -0.850963 12.0777 3.78555
136 3 1.88145 10.2487 1.29606
328 2 -5.11112 11.7633 8.21183
71 1 -3.34986 8.43163 7.79386
72 1 -0.581215 9.26811 6.72502
78 1 0.119897 7.42081 4.26101
84 1 -1.02942 10.4464 2.71116
325 2 -3.05618 13.7032 2.96563
107 3 -6.07217 13.0473 2.77284
108 3 -4.19946 12.2855 0.894584
109 3 -4.87242 11.7894 4.90794
110 3 -3.11141 10.8836 6.75638
111 3 -3.64957 13.4951 6.51281
132 3 2.31031 7.88609 2.56676
134 3 -0.623067 13.4153 2.82437
135 3 -2.27524 12.2517 4.54371
337 1 -3.33461 9.49799 0.504002
141 3 0.474722 11.8321 4.7843
142 3 2.04562 10.3167 6.48691
222 2 -4.20298 8.43693 7.00901
209 2 -1.14813 8.35628 1.61421
217 2 0.319681 7.45965 6.95373
221 2 -2.47493 7.67349 7.46109
264 2 1.47144 7.92529 8.20344
223 2 -0.936564 8.24638 6.32452
224 2 0.27129 9.18742 7.58978
225 2 -0.350045 10.0668 6.00883
269 2 3.86009 7.55513 7.0071
242 2 -0.47263 8.13467 3.63472
243 2 0.733612 8.02643 5.04445
259 2 0.0145747 10.307 2.27783
260 2 -1.76161 10.3677 1.87337
261 2 -1.24069 9.68463 3.57608
339 2 -2.22469 9.64999 0.0730077
208 2 -2.80704 7.52107 1.62266
327 1 -5.84366 12.648 8.08992
13 4 -6.26728 12.0004 4.07196
329 2 -6.47595 12.5632 7.11401
240 2 3.30041 7.16251 5.37513
361 2 -3.84975 8.67356 0.0282733
6 4 -4.6885 13.8533 13.8217
16 4 -2.12114 9.07263 13.2609
18 4 -3.12948 11.7685 11.8253
31 4 1.47284 7.92069 15.5508
37 4 -0.785174 11.7759 9.89946
330 2 -6.44737 12.7842 9.08422
227 2 0.0360586 7.57067 13.1038
73 1 -0.611215 8.24638 12.3444
74 1 -1.15284 10.0646 14.5439
75 1 -4.62494 11.4173 10.6643
86 1 1.85311 8.92234 8.86382
112 3 -3.007 7.9117 13.9516
113 3 -2.9556 10.1966 12.4003
114 3 -3.74053 12.7604 13.0193
282 2 -3.81821 7.64098 11.0887
130 3 0.259285 7.74748 16.6567
138 3 -1.50763 10.3483 9.14157
140 3 -2.05336 12.3234 10.8343
144 3 1.67019 9.3617 14.5693
85 1 0.570687 11.451 16.296
146 3 0.357509 11.3551 10.8617
139 3 -0.207608 12.666 8.71429
220 2 -3.77632 8.24674 8.8658
365 2 -4.71822 9.30933 10.5975
228 2 -0.0151748 9.13626 11.9574
229 2 -1.65208 11.0405 14.9843
230 2 -0.326144 10.4053 13.8206
231 2 -0.638522 9.44356 15.3116
129 3 2.87696 7.70425 16.1953
233 2 -4.17905 10.9242 9.67241
234 2 -4.87334 12.5865 10.5512
226 2 -1.17416 7.6146 11.5549
263 2 1.08277 10.6033 15.5933
301 2 -1.33073 12.2068 16.1524
265 2 0.973206 9.60574 9.21559
266 2 2.53516 8.64288 9.73897
297 4 -3.79216 11.567 16.9292
298 1 -2.38352 12.6379 15.967
299 3 -4.99449 10.9823 15.9528
300 2 -2.73291 12.5345 14.8912
362 2 0.208371 12.4006 15.6494
302 2 -2.57149 13.6846 16.3591
340 1 -0.750041 13.6878 14.4163
341 2 -0.650058 12.598 14.0921
145 3 3.31772 8.43715 12.6002
343 2 -0.493265 13.829 15.5381
356 3 -5.79948 13.1342 14.7342
262 2 -0.227519 11.027 16.9433
40 4 1.71175 11.9502 11.6037
342 2 -1.8282 14.1942 14.0649
257 2 3.95022 7.56649 9.45954
232 2 -5.36939 10.8387 11.1367
2 4 14.2396 2.05486 3.68323
345 2 14.678 1.54874 7.36014
19 4 7.88332 0.225771 1.85695
322 2 5.78249 5.2499 5.76102
42 4 9.3163 2.15081 3.85974
46 4 11.9162 2.0169 5.55837
50 4 10.4939 4.23035 1.83878
52 4 10.6155 4.14625 7.6334
89 1 11.5991 5.52934 2.73622
90 1 9.65371 5.2972 6.40689
214 2 13.3156 4.65178 6.39604
286 2 8.34184 6.8138 7.97664
149 3 13.5612 1.04314 2.63936
150 3 8.93248 1.16082 2.68108
151 3 8.05718 2.19868 4.96282
153 3 11.7512 0.538047 0.773088
156 3 13.0575 2.75725 4.61766
157 3 10.5902 1.66785 4.65068
158 3 12.5673 0.752023 6.40853
165 3 9.57273 3.67552 3.09327
166 3 11.4561 3.17815 1.09771
168 3 9.65993 5.23766 0.695064
170 3 11.4747 3.14618 6.73701
273 2 11.3488 6.43674 2.13264
274 2 11.3527 5.67179 3.82262
275 2 10.4864 5.86598 5.88374
276 2 8.81033 5.98342 6.7431
277 2 9.2165 4.36637 5.75489
306 1 8.62483 6.93952 3.48383
287 2 7.15304 6.62253 6.46579
278 2 11.8281 6.12312 8.10109
309 3 5.95637 3.66758 0.526903
304 4 6.82211 6.62565 3.62532
344 1 14.7163 0.669806 8.17083
308 1 6.71302 5.26236 4.98535
323 2 7.8195 5.26094 5.51364
311 3 6.17823 5.89317 2.3889
316 2 8.85962 5.73235 3.59273
321 2 6.6463 4.38823 4.23849
364 2 12.617 5.11163 2.53854
246 2 4.92843 6.14154 7.37997
126 3 6.3983 3.154 6.89196
303 4 5.26856 4.91193 1.32647
7 4 14.4855 2.32843 15.5016
91 1 11.9306 5.21558 8.74914
346 2 14.4592 1.02091 9.22155
12 4 12.2327 6.77534 15.2507
154 3 8.88508 0.876162 8.93773
45 4 8.93043 2.26803 9.67848
167 3 10.838 7.19822 15.9168
48 4 9.28658 2.6587 15.3206
49 4 11.3527 2.40723 11.7196
51 4 9.51827 6.85317 16.7731
53 4 10.8785 4.72277 13.5386
249 2 6.60755 4.79122 10.2778
80 1 6.65396 5.12277 9.21172
88 1 12.464 2.39355 10.206
128 3 6.35982 4.05699 12.2758
93 1 8.18171 6.63888 10.8812
248 2 7.64994 4.73179 8.76354
152 3 13.2038 2.5844 16.3333
204 2 15.3558 0.718728 10.9876
155 3 7.41815 2.71951 10.0976
159 3 14.1285 0.948326 14.3533
160 3 8.9191 1.46902 14.2906
161 3 10.4586 2.3672 16.3741
162 3 7.85362 3.03231 16.1004
163 3 9.84443 2.23882 11.0005
164 3 11.9055 1.20632 12.7807
283 2 8.78245 6.58547 9.94009
54 4 6.87554 7.11668 15.1703
171 3 9.74775 3.95959 14.3741
172 3 11.6763 3.92339 12.3675
173 3 12.0649 5.23342 14.5535
174 3 6.41321 5.85778 14.3144
175 3 8.23398 6.79578 15.9204
177 3 10.2155 6.07587 12.6977
247 2 6.75749 6.23821 9.04913
280 2 11.5734 5.45085 9.74666
270 2 12.0404 1.56813 9.57396
271 2 13.5857 2.1686 10.5903
272 2 12.231 3.47804 9.7015
359 2 13.6531 3.55202 13.4431
285 2 8.03092 5.64027 11.439
258 2 5.4506 6.55166 9.93397
24 4 8.07008 0.598653 13.3138
279 2 13.0616 4.84072 8.78501
43 4 11.8485 2.38833 17.214
203 2 14.7253 2.26764 12.0967
169 3 9.60512 3.48582 8.63192
288 2 6.58044 7.41299 8.15759
94 1 7.46465 7.27935 7.43653
38 4 1.80226 11.8391 5.68215
44 4 5.72558 13.5857 7.46434
56 4 4.26771 11.4587 3.83028
58 4 8.43743 8.91262 7.02643
60 4 6.78652 11.4216 5.64842
87 1 4.1401 8.56177 6.69233
360 2 10.2262 9.6935 3.22469
95 1 9.93188 8.78237 5.81102
133 3 4.18951 8.58758 0.953716
363 2 8.23203 13.8879 8.16641
357 3 6.3866 12.8671 0.830029
143 3 1.83128 12.9606 6.89097
178 3 3.76174 10.0796 3.01946
179 3 4.79468 12.5454 2.7618
180 3 3.03239 11.9682 4.66586
354 2 6.83705 10.6414 2.22025
185 3 8.02659 12.0636 4.9407
186 3 5.54429 11.0648 4.77879
187 3 7.36774 9.78498 6.23492
188 3 6.50295 12.2466 6.97971
267 2 5.19387 8.84751 7.17336
268 2 4.09898 8.68115 5.51805
289 2 10.5262 7.83769 5.75234
33 4 3.08703 9.23415 1.87424
307 1 5.94894 8.3429 3.93306
41 4 5.41319 13.7586 1.79324
317 2 9.1578 7.57337 4.30925
318 2 6.23482 9.03787 2.93552
319 2 6.49867 8.74782 4.87326
290 2 10.5147 9.59074 6.40088
315 2 8.86442 7.40349 2.38881
366 2 9.6208 9.25967 4.7521
334 1 9.3036 10.3669 3.06415
335 2 9.346 10.7418 2.00374
336 2 8.303 9.86106 3.32851
347 1 9.13307 8.09468 0.515185
349 2 9.72465 8.17546 1.41633
350 2 7.99956 8.00342 0.676195
351 1 6.76511 10.0954 1.292
352 2 7.68293 9.37665 1.08725
353 2 5.77438 9.47064 1.19591
320 2 4.83609 8.35266 4.12508
35 4 1.72719 11.5121 0.324714
137 3 1.22754 12.8563 0.948851
182 3 3.89409 10.8952 8.4756
36 4 3.03841 9.86243 7.63672
291 2 9.2933 10.8079 8.57839
21 4 0.741702 13.7526 7.86246
17 4 9.38663 11.6709 15.3378
296 2 8.34323 13.1886 11.6064
348 2 9.5222 9.28316 16.9814
47 4 5.38252 14.0925 13.6617
59 4 4.19793 12.0994 9.64573
61 4 7.86027 9.63026 13.4916
62 4 4.29557 11.8793 15.3781
63 4 6.43323 11.7789 11.6775
83 1 4.71812 7.46401 10.2658
92 1 10.9468 8.09909 10.6646
281 2 10.5281 7.58981 9.71619
97 1 7.94663 12.5995 10.6984
295 2 8.54159 11.763 10.3955
147 3 2.41726 10.8554 12.414
181 3 8.29533 11.8896 16.5868
28 4 4.27468 7.58962 17.0133
184 3 2.81035 12.4553 10.3431
189 3 7.03056 8.45563 14.2369
190 3 8.89719 8.54791 12.708
191 3 8.71825 10.6706 14.2706
192 3 4.1578 10.5805 14.2737
193 3 5.72992 11.4932 16.2469
194 3 4.4776 13.3476 14.6549
195 3 3.13125 11.9408 16.5058
196 3 5.31091 11.4532 10.6336
197 3 7.03847 10.3892 12.3072
198 3 6.12058 13.0173 12.6534
256 2 5.37723 8.39154 10.4695
57 4 6.89186 11.9615 17.2389
183 3 4.92906 13.3667 8.92216
292 2 9.63845 9.05127 9.44662
284 2 7.24055 7.2628 10.8444
96 1 8.87697 9.67897 8.7543
293 2 7.78459 9.65583 9.16751
294 2 7.6886 13.3337 9.7177
55 4 9.57011 7.36577 11.9796
148 3 1.26455 13.2078 12.5483
176 3 5.64431 7.60712 16.176
39 4 3.02337 9.87214 13.4641
ITEM: TIMESTEP
200
ITEM: NUMBER OF ATOMS
366
ITEM: BOX BOUNDS xy xz yz pp pp pp
-7.4449689999999995e+00 1.5901800000000000e+01 -7.4449689999999995e+00
0.0000000000000000e+00 1.4340199999999999e+01 1.7780000000000001e-01
0.0000000000000000e+00 1.7246500000000001e+01 4.3709999999999999e-01
ITEM: ATOMS id type x y z
355 3 1.72451 0.814719 0.587311
5 4 0.99851 2.13149 5.70385
9 4 0.0900167 4.11374 1.76669
11 4 -0.222034 4.89855 7.16007
27 4 1.61245 6.67887 3.40262
29 4 5.5243 4.142 8.11486
64 1 2.30856 2.65598 4.45053
69 1 -1.72029 5.24327 5.95146
70 1 0.8126 6.46081 7.19836
76 1 5.42803 1.83154 4.84127
77 1 2.92911 6.19906 4.75522
79 1 4.44737 5.52439 7.23784
98 3 -0.234922 1.42487 4.69104
99 3 1.85191 1.18598 6.75776
102 3 -0.720897 3.24015 2.76274
103 3 1.17231 3.29187 0.879122
104 3 -0.759049 5.01335 0.790199
105 3 0.422503 3.66074 6.36531
115 3 7.0457 1.17249 0.920195
124 3 1.07726 5.30859 2.58932
324 1 3.8769 0.610469 2.30266
199 2 1.81364 2.22271 3.4733
200 2 3.46507 2.25601 4.60569
201 2 2.14327 3.76483 4.58441
210 2 -1.57998 6.61842 2.53
303 4 5.24332 4.75617 1.42631
215 2 -1.28388 5.11382 4.91491
216 2 -2.06989 6.32414 6.05468
218 2 1.65036 6.41508 6.28194
219 2 1.24088 6.3074 8.2337
235 2 4.76753 0.968833 5.2413
236 2 6.02189 1.62784 3.86143
237 2 4.99005 2.88778 5.09131
238 2 3.67239 5.92346 3.90021
239 2 2.73154 5.29528 5.36796
241 2 -0.50826 6.5875 5.02143
244 2 3.46704 5.73962 7.86813
245 2 4.28261 5.24652 6.08809
358 2 4.34905 1.03154 1.33092
305 1 4.01517 3.95449 2.64925
310 3 4.23769 5.62803 0.560637
312 2 3.98243 2.7928 2.44169
313 2 2.9907 4.43546 2.44196
314 2 4.53475 4.2499 3.61524
326 2 3.33771 1.51961 3.03997
118 3 7.16002 0.735687 6.80805
10 4 -1.20102 6.5389 0.0957379
4 4 2.96345 0.22094 7.68093
240 2 3.4862 7.06276 5.39332
254 2 2.14791 6.09238 10.2509
8 4 1.5872 2.17809 11.9091
331 1 -1.22728 3.78124 14.3822
22 4 3.8612 2.16394 9.89506
25 4 4.11431 2.51311 15.3374
26 4 6.45297 2.50879 11.418
333 2 -1.33081 4.70272 15.0456
125 3 4.40622 3.41433 8.92036
65 1 -0.276371 1.85818 11.3403
66 1 1.75727 3.72145 13.1433
253 2 1.90707 5.3458 11.9528
81 1 1.0338 6.42169 14.4673
82 1 1.95784 6.35 11.2686
100 3 0.114873 2.30814 16.1559
101 3 1.94895 0.850698 12.6519
106 3 -2.35381 6.7793 16.4521
116 3 3.65569 0.84258 9.09269
117 3 2.35001 2.60249 10.5077
119 3 3.63862 1.1977 14.5928
120 3 5.28251 2.08183 16.4557
121 3 2.76827 3.14313 15.9687
122 3 4.98236 1.97748 11.0993
255 2 1.0819 7.09703 11.4858
127 3 4.74398 3.63576 14.1982
131 3 4.4353 5.92665 12.5286
202 2 -0.491773 2.67852 10.4529
30 4 5.52429 4.85914 13.3
332 2 -0.177229 3.69866 13.8682
205 2 2.82824 3.91867 12.7746
206 2 1.76371 3.68862 14.2662
207 2 0.932249 4.48054 12.7864
251 2 1.30326 6.3431 13.1815
212 2 -0.577985 4.95685 9.67867
213 2 0.265296 3.42192 9.01213
68 1 -0.709744 4.07049 8.96633
3 4 1.58193 2.6431 16.9901
250 2 1.56775 5.59761 14.9906
252 2 -0.11016 6.52498 14.6098
20 4 6.6235 2.76183 17.0329
32 4 3.80163 7.18129 11.8034
1 4 -5.09553 13.5994 1.61172
338 2 -3.36794 9.64226 1.88482
14 4 -2.09248 9.90185 7.69325
15 4 -3.4905 12.0698 5.64907
67 1 -1.86656 7.31404 1.67092
34 4 -0.894486 12.089 3.77393
136 3 2.01633 10.1508 1.09256
328 2 -5.04395 11.9693 8.23439
71 1 -3.16965 8.33043 7.91732
72 1 -0.553777 9.33716 6.65705
78 1 0.260775 7.36787 4.5129
84 1 -0.622744 10.4503 2.76116
325 2 -2.89936 13.8188 2.90456
107 3 -6.12286 13.1297 2.81704
108 3 -4.53631 12.2589 0.957979
109 3 -4.93977 11.9396 4.98666
110 3 -3.00351 10.8223 6.81661
111 3 -3.44705 13.4769 6.65642
132 3 2.15368 7.92996 2.59554
134 3 -0.650159 13.2699 2.69872
135 3 -2.37602 12.0098 4.51558
337 1 -3.13018 9.616 0.790625
141 3 0.257917 11.8593 4.84858
142 3 2.16621 10.5025 6.26199
222 2 -4.13658 8.37624 7.24332
209 2 -1.35415 8.33731 1.75381
217 2 0.30522 7.55122 7.12273
221 2 -2.41853 7.54203 7.59361
264 2 1.54356 8.03607 8.19306
223 2 -0.978407 8.40995 6.26137
224 2 0.376946 9.2555 7.46282
225 2 -0.430658 10.1714 5.87152
360 2 -5.00361 9.8438 3.08221
242 2 -0.29367 7.92898 3.75013
243 2 0.812665 8.01735 5.2905
259 2 0.329868 10.4437 2.12975
260 2 -1.60693 10.1788 2.07981
261 2 -0.47929 9.71363 3.57211
339 2 -2.01179 9.91895 0.419232
208 2 -3.02507 7.31634 1.47745
327 1 -5.83565 12.8089 8.09893
21 4 0.574698 13.7415 7.82954
329 2 -6.51542 12.8293 7.10058
361 2 -3.56353 8.67717 0.228874
6 4 -4.70965 13.9213 13.7357
16 4 -2.08379 8.90839 13.1902
18 4 -3.15142 11.8204 11.8311
31 4 1.5722 7.92242 15.5351
37 4 -0.791587 11.775 9.90509
39 4 2.89881 9.72186 13.4789
227 2 0.0342091 7.45407 13.0974
73 1 -0.617189 8.08521 12.1654
74 1 -1.28544 9.76583 14.6179
75 1 -4.68578 11.372 10.7608
86 1 1.92545 8.98555 8.75496
112 3 -2.92968 7.791 14.0186
113 3 -2.68273 10.2321 12.4674
114 3 -3.72854 12.7805 12.9626
330 2 -6.57217 12.8509 9.01606
130 3 0.07537 7.92628 16.6355
138 3 -1.6661 10.4854 9.13405
140 3 -1.85393 12.5139 10.9952
144 3 1.55788 9.20254 14.5491
85 1 0.522983 11.3417 16.2945
146 3 0.484828 11.1879 10.6157
139 3 -0.200241 12.7174 8.74393
220 2 -3.61544 8.2819 8.98637
257 2 3.66723 7.66315 9.35563
228 2 -0.0438084 8.83714 11.5764
229 2 -1.8402 10.6915 15.1253
230 2 -0.381042 10.2946 14.0455
231 2 -0.851895 9.00475 15.3751
129 3 2.97645 7.72848 16.1578
233 2 -4.3277 10.7587 9.91912
234 2 -4.94003 12.4743 10.4703
226 2 -1.47856 7.52064 11.5499
263 2 0.923764 10.4343 15.6185
301 2 -1.37437 12.0547 16.0769
265 2 1.0845 9.71218 8.98819
266 2 2.51389 8.77816 9.67251
297 4 -3.80734 11.5862 17.1506
298 1 -2.45556 12.4737 15.9913
299 3 -4.97038 10.9996 16.1267
300 2 -2.90591 12.2192 15.0095
362 2 0.165854 12.2481 15.5877
302 2 -2.54903 13.549 16.3316
340 1 -0.68629 13.6128 14.3666
341 2 -0.596847 12.508 13.9329
145 3 3.58515 8.43385 12.7026
343 2 -0.370464 13.7664 15.4976
356 3 -5.79844 13.1277 14.604
262 2 -0.171712 11.0074 17.0679
342 2 -1.71126 14.1614 14.1617
147 3 2.29686 10.869 12.513
365 2 -4.68472 9.28936 10.7277
2 4 14.342 1.93608 3.64778
345 2 14.7325 1.64299 7.63414
19 4 7.8901 0.143322 1.87714
322 2 5.86662 5.34488 5.81844
42 4 9.33069 2.15955 3.76271
46 4 11.9727 2.04808 5.40696
50 4 10.5618 4.28629 1.76007
52 4 10.6733 4.21103 7.63109
89 1 11.6491 5.35935 2.88976
90 1 9.77017 5.33893 6.36642
214 2 13.159 4.46874 6.20456
286 2 8.23297 6.7249 8.18649
149 3 13.6957 0.796908 2.7149
150 3 8.99071 0.862746 2.86759
151 3 8.1361 2.45047 4.88661
153 3 11.7027 0.518304 0.856711
156 3 13.1396 2.67563 4.55957
157 3 10.7374 1.87341 4.48934
158 3 12.3325 0.758607 6.22145
165 3 9.45106 3.46795 2.80882
166 3 11.4337 3.13729 1.06479
168 3 9.81447 5.31414 0.713455
170 3 11.6118 3.33158 6.66916
273 2 11.0951 6.3581 3.07543
274 2 11.8862 4.79361 3.86803
275 2 10.4535 5.89871 5.6787
276 2 8.91968 5.96078 6.81991
277 2 9.34199 4.38244 5.82724
306 1 8.67983 6.97885 3.63382
287 2 7.21979 6.51353 6.52797
278 2 11.8708 6.15799 8.02793
309 3 6.03153 3.63771 0.59107
304 4 6.78568 6.53122 3.66591
344 1 14.6285 0.690412 8.29711
308 1 6.78991 5.22755 5.04013
323 2 7.86802 5.20428 5.58692
311 3 6.15625 5.83886 2.40369
316 2 8.96094 5.87419 3.77342
321 2 6.66736 4.33603 4.26043
364 2 12.5424 5.46274 2.25666
246 2 5.39338 6.25751 7.42422
126 3 6.40025 3.40642 7.07807
23 4 7.02015 2.07168 5.95062
43 4 11.5069 1.83449 0.000985147
7 4 14.2834 2.26282 15.4768
91 1 11.9279 5.20896 8.7142
346 2 14.2596 0.957729 9.326
12 4 12.2837 6.79618 15.2814
154 3 8.84259 0.967951 8.71185
45 4 8.93394 2.25121 9.65956
211 2 14.0329 3.41272 9.24125
48 4 9.26135 2.67913 15.3106
49 4 11.3005 2.33855 11.7399
51 4 9.56351 6.88126 16.7585