ITEM: TIMESTEP
0
ITEM: NUMBER OF ATOMS
274
ITEM: BOX BOUNDS xy xz yz pp pp pp
-7.3914999999999997e+00 1.6478000000000002e+01 -7.3914999999999997e+00
0.0000000000000000e+00 1.5100700000000000e+01 9.9190000000000000e-01
0.0000000000000000e+00 1.6771000000000001e+01 1.0307999999999999e+00
ITEM: ATOMS id type q x y z
11 4 1.0898 2.86535 0.79911 7.43059
13 4 1.5502 0.9488 2.35664 5.41983
15 4 1.05618 -0.23304 4.13371 2.00878
16 4 1.03438 -1.34954 6.24356 0.02657
17 4 1.12285 0.40192 4.90504 7.11073
18 4 1.08052 -1.13001 7.01932 5.42033
27 4 1.15793 3.6008 2.66123 3.76673
28 4 1.07718 5.67593 2.17185 0.11533
30 4 1.01511 6.13907 3.01483 5.41585
33 4 1.60439 5.04964 4.57297 1.82577
34 4 0.685738 1.01162 6.81432 3.199
56 1 -0.100823 0.96799 2.9921 1.21038
58 1 -0.120385 2.16521 5.4086 7.20585
59 1 -0.152046 -2.49699 6.20949 4.48498
65 1 -0.161866 6.67299 1.5147 6.33653
67 1 -0.103377 2.80211 6.82976 3.61338
79 3 -0.568753 -0.28502 1.52772 4.74186
80 3 -0.794161 1.64359 1.51668 6.63009
82 3 -0.571222 -1.25643 3.30758 2.97851
83 3 -0.728422 -1.1907 4.86501 0.89604
85 3 -0.769324 0.27933 3.72835 5.97562
86 3 -0.723968 -0.62398 6.11288 6.69915
96 3 -0.80317 2.05073 2.7072 4.27135
97 3 -0.568096 5.83545 0.80276 1.01724
98 3 -0.799488 3.75539 1.90386 8.22793
100 3 -0.712258 4.5378 2.94833 5.07342
103 3 -0.793305 3.84969 3.83799 2.65902
104 3 -0.702276 5.97975 3.46975 1.07727
105 3 -0.65874 0.5307 5.28261 2.87679
107 3 -0.80114 4.35141 5.54897 0.72967
148 2 -0.00794785 3.87974 1.33998 3.16764
170 2 0.0211355 0.51242 2.51445 0.33745
171 2 0.0806747 1.28311 2.2039 1.90517
172 2 0.121711 1.86294 3.52921 0.87425
176 2 0.0360342 2.35003 6.18918 6.46166
177 2 0.113254 2.82005 4.56267 6.95893
178 2 0.0642235 2.46273 5.78608 8.18858
179 2 0.0895029 -2.1772 5.31483 3.94116
180 2 0.0150845 -2.90235 6.93055 3.76279
194 2 0.0679921 6.55711 0.63572 5.68788
195 2 0.0721004 6.07512 1.33508 7.23675
199 2 0.0323943 3.37422 6.73666 2.68297
200 2 0.0888232 3.07283 5.99907 4.27632
12 4 1.10676 -0.65412 3.09296 9.44057
14 4 1.13028 1.87585 3.00127 11.2814
19 4 1.08134 0.69454 4.87488 13.5449
20 4 0.65435 -0.27234 7.12884 11.8673
29 4 1.50491 4.26089 3.01777 9.30612
31 4 0.69 4.08631 2.92904 15.2224
32 4 1.08253 6.42797 2.93312 11.4251
35 4 1.13306 4.84562 7.70806 16.4488
37 4 1.10262 5.21682 5.04543 13.1508
38 4 1.12264 2.09801 7.2928 15.0052
60 1 -0.147124 -0.0522 3.70824 14.7599
61 1 -0.079637 -1.47111 7.09134 10.4703
66 1 -0.155384 4.08481 1.08459 15.0089
81 3 -0.747865 0.51545 2.63062 10.4689
84 3 -0.737756 -0.13259 4.3367 8.54651
87 3 -0.740889 1.61547 4.14923 12.3923
88 3 -0.640443 -0.46042 5.75278 12.7755
99 3 -0.78202 3.01552 3.53148 10.2235
101 3 -0.664147 5.08944 3.31218 16.4631
102 3 -0.812427 5.41689 2.35235 10.2622
108 3 -0.716417 4.91143 4.29107 8.51939
110 3 -0.681057 4.57541 3.73605 13.8759
111 3 -0.72254 5.97424 4.46183 11.8173
112 3 -0.722035 1.71804 5.86073 14.3512
113 3 -0.735562 3.59696 7.09018 15.6145
114 3 -0.74497 1.12047 7.72914 16.2403
144 2 -0.0588719 2.32464 1.7748 11.9586
145 2 0.00087729 1.15451 7.16935 11.4476
149 2 0.00735011 2.7323 3.4094 15.5313
150 2 -0.0432915 6.36639 2.00493 12.5711
153 2 -0.000506217 4.20333 6.02773 12.7282
181 2 0.000365921 0.65017 2.9054 15.0131
182 2 0.0822504 -0.29385 4.26297 15.6754
183 2 0.0905886 -1.3268 6.19191 9.85805
185 2 0.0731409 -2.5013 7.09137 10.8534
213 2 0.0539127 7.46674 0.97046 8.76688
259 2 0.0296816 7.58418 2.30638 14.7805
261 3 -0.525342 -1.23347 6.88839 15.4762
21 4 1.08567 -2.5392 9.11135 7.2018
23 4 1.08205 -3.44837 11.6334 5.53198
26 4 1.02738 -0.28878 13.0099 1.62117
39 4 1.16083 -1.04797 10.8567 3.70929
40 4 0.637006 2.82979 9.17636 7.64442
42 4 1.08542 1.82474 10.7625 5.2137
57 1 -0.152214 -2.12747 7.59551 1.02241
89 3 -0.726418 -1.70063 8.44497 5.97188
91 3 -0.718536 -3.37234 10.3872 6.57719
92 3 -0.565496 -3.58225 13.0388 6.36725
106 3 -0.665113 0.15279 7.37748 4.47747
115 3 -0.757022 -0.85069 11.6391 2.28788
116 3 -0.738222 -2.09498 11.733 4.62602
117 3 -0.632527 0.76167 12.6653 0.43412
118 3 -0.643566 -1.42815 9.68682 8.26529
120 3 -0.706269 0.36433 10.7193 4.48565
121 3 -0.652121 1.76818 9.78205 6.52797
146 2 -0.0468125 -4.63523 11.4693 4.66393
151 2 0.00179821 0.7277 7.69526 2.03435
155 2 -0.0338028 -1.61899 9.54118 3.38764
156 2 0.0418675 -0.59653 11.8955 7.23128
173 2 0.0299624 -2.19483 8.52977 0.45153
174 2 0.0271111 -1.54936 7.80863 1.92948
175 2 0.0342099 -3.14404 7.30394 1.31605
198 2 0.0574953 3.06047 7.78646 4.08147
207 2 0.0392935 3.70161 7.43676 6.08476
212 2 0.0196873 1.53506 12.8862 6.41998
262 2 -0.0823716 3.47058 7.9074 0.39529
268 2 0.0805017 0.16249 9.55624 0.28377
24 4 0.620245 -1.1198 9.96116 12.863
25 4 1.06485 -2.68034 11.4275 10.6727
41 4 0.704379 -0.71484 11.1461 8.50103
63 1 -0.121294 -2.27609 10.2396 14.289
64 1 -0.151918 -3.18257 12.7402 11.8543
69 1 -0.123071 1.87209 8.29066 8.96667
90 3 -0.529279 -5.15307 12.802 8.50919
93 3 -0.60194 -0.51858 8.44162 12.838
94 3 -0.705191 -3.9947 10.8052 9.90788
95 3 -0.672793 -1.94008 10.1933 11.4492
119 3 -0.663476 -1.65766 12.0261 9.53305
147 2 -0.0387064 0.03389 10.9115 12.9045
154 2 -0.0526481 2.08495 8.33911 13.9724
157 2 -0.0125527 0.59685 10.8985 9.12645
184 2 0.103072 -1.34701 7.97987 9.84031
188 2 0.0495876 -1.84593 9.90897 15.2414
189 2 0.0811949 -3.21499 9.68749 14.1419
190 2 0.00472736 -2.51697 11.3089 14.3786
191 2 0.00846544 -2.32846 13.0996 12.4419
192 2 0.0240219 -3.94513 12.3492 12.5413
196 2 0.0034275 -4.03614 14.8325 14.255
197 2 0.0203289 -3.58496 14.7044 15.9749
204 2 0.0271782 2.5298 7.62593 9.54497
205 2 0.0745982 1.05397 7.69208 8.54679
206 2 0.0334614 1.42704 9.00656 9.66856
228 2 0.0123518 2.79791 10.3211 11.3915
229 2 0.0167762 1.81454 11.53 10.5566
238 4 0.660774 2.02549 12.6344 15.9786
240 1 -0.124579 0.91415 11.1611 16.1497
245 2 0.00052206 1.78261 13.3546 14.6939
246 2 0.0187726 1.0117 10.4897 15.2855
247 2 0.0312113 4.03504 9.44502 14.502
249 2 0.022565 2.97995 10.5414 13.5966
266 2 0.0785433 -3.60388 14.6324 11.3283
267 2 0.0196903 -2.31732 13.7348 14.7298
269 2 0.0267667 -0.13504 11.4847 16.2164
272 2 0.0543722 0.80137 13.2211 10.1695
1 4 0.631477 12.8264 2.1663 4.0758
2 4 0.458745 11.5016 0.37708 1.88429
3 1 -0.144232 11.6647 2.94024 5.29141
4 1 -0.0951922 12.9166 0.26429 0.68699
5 3 -0.600648 12.0677 0.9315 3.33315
6 2 0.0611554 10.4577 1.29035 1.36813
7 2 0.00675329 11.0314 2.18524 5.76664
8 2 0.00415102 10.999 3.63104 4.75937
9 2 0.0559515 12.1866 3.51365 6.06685
10 2 0.0536897 13.4348 1.23116 0.66594
36 4 0.646561 6.44105 4.53217 7.91163
43 4 1.03397 8.26432 2.30804 3.36218
47 4 0.695603 9.37362 4.81535 2.1437
48 4 0.684895 6.04412 6.97806 3.46837
109 3 -0.64693 6.40007 4.40591 6.26371
122 3 -0.552963 7.85777 0.85195 2.76341
123 3 -0.681637 6.96927 3.0746 4.0027
128 3 -0.639148 8.9069 3.23862 2.18439
129 3 -0.681385 5.96848 5.47449 2.82033
130 3 -0.612507 8.41177 5.66449 1.13706
158 2 -0.0727828 9.25092 2.07618 4.42472
161 2 -0.0119173 10.77 4.86078 1.64963
162 2 -0.000283996 9.27322 5.36482 3.51743
163 2 0.00840019 5.38927 6.96658 4.78884
166 2 -0.0145191 8.95557 6.60247 5.66115
186 2 0.0437564 12.4057 6.98006 8.26907
193 2 -0.016795 7.72921 1.60791 6.61879
201 2 0.0221111 8.23044 6.15902 8.24656
203 2 0.0591731 6.69027 7.00934 7.99697
253 4 0.474673 12.0858 1.05304 8.01244
255 2 0.0342924 12.3734 0.53482 6.66323
256 2 -0.0116362 10.9584 2.01462 7.99973
263 2 -0.00527582 11.1848 5.92984 5.16915
44 4 0.61469 9.09749 2.3871 9.93129
45 4 0.674994 13.1913 0.89722 12.8951
46 4 1.02709 11.5263 3.11309 11.4512
49 4 1.0395 9.32192 7.61687 16.5637
51 4 1.05447 7.07054 7.17122 14.5032
68 1 -0.104701 7.15436 6.13822 8.47384
72 1 -0.103897 8.41179 0.80243 9.29003
73 1 -0.141199 10.6467 4.59301 12.1023
124 3 -0.688974 7.96282 3.05983 10.9217
125 3 -0.558161 12.5276 3.60913 10.2482
126 3 -0.627552 10.4286 2.05091 10.8467
127 3 -0.670868 12.4293 2.29705 12.5506
132 3 -0.714246 6.32852 5.75493 14.1253
133 3 -0.698661 8.32207 6.84568 15.5041
152 2 -0.0244369 7.26359 3.3987 8.39099
159 2 -0.0334407 9.47196 3.42758 8.93788
160 2 -0.0245097 14.4909 1.19094 13.5309
202 2 0.0721033 7.03312 6.23003 9.56335
214 2 0.045344 10.0988 5.05541 11.2666
215 2 0.0282431 11.348 5.33455 12.4953
216 2 0.0498971 9.91593 4.32968 12.8767
220 2 0.041087 8.36378 7.3528 12.4401
231 4 0.432819 11.7153 6.61165 15.0184
232 1 -0.0996367 11.202 4.86617 15.4026
233 3 -0.657085 10.794 7.69109 15.8634
234 2 0.0348086 11.5806 6.98783 13.5913
235 2 0.0344913 11.6303 4.1445 14.6981
236 2 0.0813509 10.1093 4.77346 15.3594
237 2 0.0588856 11.5321 4.58339 16.4125
254 3 -0.484721 13.4559 1.8112 8.5104
257 1 -0.105306 7.83489 3.13807 15.4551
258 2 0.111817 7.80906 4.07233 14.8837
260 2 0.0699438 8.85718 2.96645 15.8178
264 2 0.0684236 13.5237 3.25542 14.3787
270 2 0.0402902 13.5425 1.09402 16.4432
50 4 0.609176 8.59396 7.85667 4.94721
52 4 0.612981 3.86138 10.524 2.83914
53 4 0.658514 7.3553 9.85556 7.21499
62 1 -0.142061 11.8344 7.88356 8.01623
70 1 -0.113475 4.11949 8.15583 6.79128
71 1 -0.139102 2.27989 12.469 5.73294
74 1 -0.138649 7.84287 8.31125 0.24075
76 1 -0.127874 5.68139 10.5875 3.24757
77 1 -0.0788068 6.68598 11.4182 6.48715
131 3 -0.625429 7.59053 7.49196 3.69861
135 3 -0.445046 3.40109 11.9693 2.20498
136 3 -0.687084 2.97209 10.1871 4.18589
137 3 -0.651407 7.88682 8.86784 6.01558
138 3 -0.527337 8.59727 10.2301 8.23125
139 3 -0.698323 3.66393 10.4294 8.32559
164 2 -0.037855 5.42636 7.91291 2.49546
165 2 -0.019237 9.78126 8.52118 4.35076
167 2 -0.00235248 3.52998 9.47316 1.84546
168 2 0.0285567 6.38427 9.09921 8.02938
208 2 0.0426891 4.71923 7.60012 7.52303
209 2 0.0495334 4.79018 8.81637 6.22697
210 2 0.070889 2.38166 13.1344 4.86853
211 2 0.0555387 3.24882 12.4264 6.24738
217 2 0.0468888 8.55711 8.69121 0.98689
218 2 0.0426535 6.83901 8.36327 0.67907
222 2 0.0237667 6.28641 10.3865 2.35049
223 2 0.0439888 5.97193 9.85316 4.00914
224 2 0.0588962 5.94923 11.5841 3.6261
225 2 0.121672 6.67546 12.2025 7.25476
226 2 0.0480842 5.6613 11.2986 6.11384
227 2 0.0691134 7.30931 11.7817 5.65895
265 2 0.0468649 10.0192 7.59285 7.35168
271 2 0.0501924 6.2569 12.5333 0.96812
22 4 1.02991 10.1168 11.3686 9.25195
54 4 1.01664 4.07402 11.365 9.58552
55 4 1.03998 6.61616 11.5607 11.1662
75 1 -0.159589 7.65364 8.01252 12.9616
78 1 -0.155434 2.81866 11.32 10.9374
134 3 -0.767489 6.02 8.09534 15.3713
140 3 -0.522272 4.29121 12.8744 9.0092
141 3 -0.543604 8.06971 11.6452 10.4573
142 3 -0.709778 5.53224 10.8421 10.1763
143 3 -0.505845 6.0847 13.064 11.5377
169 2 -0.0530777 6.77352 10.7709 12.404
187 2 0.0814434 11.4015 8.29691 8.93521
219 2 0.0316025 6.82257 8.22582 12.2741
221 2 0.0250972 8.16998 8.95902 13.1738
230 2 0.0736861 3.05064 12.0563 11.7183
239 4 0.601516 4.70177 11.7735 14.8815
241 1 -0.132817 4.0182 10.3572 13.8983
242 1 -0.12157 6.35294 11.3603 15.6271
243 3 -0.499225 4.8476 13.1009 13.9063
244 3 -0.585679 3.60979 12.1905 16.043
248 2 0.0368019 4.60716 10.1497 12.9952
250 2 0.0304346 6.89535 10.6969 14.9399
251 2 0.034171 6.23105 10.8173 16.5729
252 2 0.0358317 6.97155 12.2454 15.8135
273 2 0.0444663 1.71461 13.2964 8.64264
274 2 0.0194421 8.86757 10.0075 16.1388
ITEM: TIMESTEP
1
ITEM: NUMBER OF ATOMS
274
ITEM: BOX BOUNDS xy xz yz pp pp pp
-7.3914999999999997e+00 1.6478000000000002e+01 -7.3914999999999997e+00
0.0000000000000000e+00 1.5100700000000000e+01 9.9190000000000000e-01
0.0000000000000000e+00 1.6771000000000001e+01 1.0307999999999999e+00
ITEM: ATOMS id type q x y z
11 4 1.0888 2.87345 0.776035 7.4301
13 4 1.55028 0.95093 2.34175 5.41006
15 4 1.05586 -0.244176 4.13785 2.02628
16 4 1.04326 -1.35266 6.23258 0.00914008
17 4 1.13031 0.384721 4.9038 7.12316
18 4 1.0975 -1.10652 7.01425 5.41545
27 4 1.2366 3.59089 2.75649 3.80161
28 4 1.04757 5.67833 2.12692 0.111294
30 4 1.05232 6.11785 3.02466 5.39345
33 4 1.62879 5.03458 4.62009 1.86541
34 4 0.727473 1.01809 6.76046 3.27057
56 1 -0.0983256 0.985396 2.97503 1.19838
58 1 -0.119973 2.185 5.41482 7.20527
59 1 -0.14858 -2.50988 6.20289 4.46437
65 1 -0.157266 6.68219 1.48838 6.35075
67 1 -0.11502 2.81285 6.83109 3.61372
79 3 -0.575553 -0.28497 1.52943 4.74403
80 3 -0.78892 1.6457 1.51474 6.63145
82 3 -0.578436 -1.27518 3.29588 2.99126
83 3 -0.733512 -1.19067 4.8631 0.896986
85 3 -0.764147 0.280186 3.73085 5.97834
86 3 -0.734608 -0.624021 6.11483 6.69689
96 3 -0.832522 2.05431 2.70412 4.26914
97 3 -0.579473 5.84789 0.78427 1.01924
98 3 -0.812124 3.75643 1.90489 8.22996
100 3 -0.764081 4.53467 2.94357 5.07096
103 3 -0.839066 3.85244 3.83582 2.65864
104 3 -0.668857 5.97822 3.47224 1.07753
105 3 -0.68341 0.532593 5.28654 2.87637
107 3 -0.846466 4.35253 5.54978 0.734555
148 2 0.0160393 3.89668 1.26344 3.13356
170 2 0.0210987 0.510502 2.51731 0.341003
171 2 0.0821409 1.28027 2.20749 1.90601
172 2 0.120184 1.85979 3.53117 0.876646
176 2 0.0337478 2.34572 6.18697 6.46325
177 2 0.109902 2.81584 4.56263 6.95951
178 2 0.0621929 2.45835 5.78409 8.1875
179 2 0.0874458 -2.17384 5.31342 3.94769
180 2 0.0163211 -2.90131 6.93298 3.76829
194 2 0.0634015 6.55661 0.639922 5.6874
195 2 0.0743427 6.0743 1.33899 7.23361
199 2 0.0283113 3.37028 6.73629 2.68395
200 2 0.0769707 3.06893 5.99999 4.27439
12 4 1.10805 -0.669912 3.08313 9.4293
14 4 1.20398 1.85442 3.08352 11.2187
19 4 1.10889 0.71218 4.88415 13.5286
20 4 0.682368 -0.357697 7.14097 11.8963
29 4 1.53554 4.20519 2.99132 9.31962
31 4 0.722452 4.17508 2.90964 15.1962
32 4 1.13007 6.44371 2.98778 11.3488
35 4 1.21316 4.8731 7.61985 16.4048
37 4 1.16636 5.28467 4.98525 13.1921
38 4 1.2034 2.10668 7.21919 15.0741
60 1 -0.143053 -0.0620439 3.68768 14.7919
61 1 -0.088519 -1.48246 7.0906 10.4571
66 1 -0.161646 4.08126 1.04574 15.0071
81 3 -0.771583 0.514191 2.62887 10.4703
84 3 -0.746946 -0.132455 4.33683 8.5475
87 3 -0.776004 1.61575 4.14454 12.3919
88 3 -0.657769 -0.462495 5.75534 12.7718
99 3 -0.847034 3.01746 3.52638 10.2239
101 3 -0.67229 5.08418 3.31097 16.4598
102 3 -0.825854 5.41295 2.35424 10.2602
108 3 -0.706427 4.91137 4.2879 8.52113
110 3 -0.727123 4.57161 3.73261 13.8777
111 3 -0.763953 5.97262 4.46283 11.8194
112 3 -0.765184 1.7189 5.8625 14.3511
113 3 -0.804817 3.5955 7.09514 15.613
114 3 -0.774829 1.12256 7.73293 16.2396
144 2 -0.037737 2.35212 1.70148 11.9995
145 2 0.0105943 1.2352 7.1721 11.4229
149 2 0.0194907 2.64928 3.439 15.5509
150 2 -0.0291027 6.36253 1.94516 12.646
153 2 0.0197983 4.1353 6.09202 12.7006
181 2 0.00217523 0.647753 2.90408 15.0058
182 2 0.0808336 -0.296879 4.26563 15.671
183 2 0.0899956 -1.32455 6.19325 9.86151
185 2 0.0671914 -2.49694 7.09129 10.8555
213 2 0.0522161 7.47016 0.975576 8.76979
259 2 0.0249043 7.58202 2.30852 14.7848
261 3 -0.540317 -1.23718 6.89005 15.4804
21 4 1.10697 -2.536 9.14424 7.19653
23 4 1.1466 -3.36924 11.6453 5.59256
26 4 1.02199 -0.292563 13.0437 1.62426
39 4 1.22754 -1.01225 10.9542 3.7316
40 4 0.649157 2.83119 9.18431 7.64501
42 4 1.10071 1.81901 10.7456 5.20062
57 1 -0.147316 -2.14176 7.61988 1.03964
89 3 -0.726672 -1.70243 8.44199 5.97042
91 3 -0.76479 -3.37543 10.3858 6.57489
92 3 -0.595397 -3.59275 13.0537 6.37242
106 3 -0.693717 0.152675 7.37623 4.47406
115 3 -0.774719 -0.852071 11.639 2.28745
116 3 -0.80243 -2.09799 11.7297 4.62368
117 3 -0.643602 0.760037 12.6665 0.431814
118 3 -0.686378 -1.42541 9.68724 8.26474
120 3 -0.746331 0.362936 10.7188 4.48454
121 3 -0.657526 1.76971 9.7808 6.53207
146 2 -0.0256583 -4.70314 11.4598 4.61371
151 2 0.0147172 0.712413 7.74258 1.97094
155 2 -0.00856018 -1.65561 9.45533 3.36786
156 2 0.0370461 -0.589458 11.9393 7.15631
173 2 0.0322859 -2.19311 8.52489 0.450664
174 2 0.028939 -1.54885 7.8049 1.92571
175 2 0.0336755 -3.14065 7.30184 1.31354
198 2 0.0580666 3.05684 7.78503 4.08036
207 2 0.0379907 3.6991 7.44046 6.08808
212 2 0.0193572 1.53529 12.8824 6.41746
262 2 -0.0617807 3.4456 7.98543 0.440893
268 2 0.0776997 0.164593 9.56059 0.281769
24 4 0.65932 -1.18073 9.9059 12.8518
25 4 1.07177 -2.67698 11.4045 10.6605
41 4 0.761673 -0.800284 11.1148 8.53333
63 1 -0.128594 -2.28422 10.242 14.2995
64 1 -0.145913 -3.18956 12.7633 11.8917
69 1 -0.121604 1.86198 8.28023 8.98187
90 3 -0.529617 -5.15117 12.8096 8.50731
93 3 -0.633876 -0.516921 8.44228 12.8379
94 3 -0.703159 -4.00106 10.8037 9.90698
95 3 -0.700654 -1.93576 10.1913 11.4558
119 3 -0.694041 -1.65098 12.0279 9.5297
147 2 -0.0305512 0.0917394 10.9594 12.9067
154 2 -0.0314864 2.08383 8.40776 13.9045
157 2 -0.0091029 0.676032 10.8839 9.16347
184 2 0.100861 -1.34476 7.97903 9.84351
188 2 0.0489511 -1.84394 9.90865 15.2362
189 2 0.0772294 -3.21074 9.68789 14.139
190 2 0.0054976 -2.51406 11.3057 14.3756
191 2 0.00970377 -2.32688 13.0999 12.4351
192 2 0.0259919 -3.94767 12.349 12.5346
196 2 0.00480101 -4.03504 14.8428 14.2539
197 2 0.0217658 -3.58316 14.7134 15.9758
204 2 0.0273579 2.53058 7.62926 9.54073
205 2 0.074215 1.05739 7.69507 8.54416
206 2 0.0337679 1.43 9.00693 9.66436
228 2 0.0146222 2.80041 10.3231 11.3879
229 2 0.0165878 1.8193 11.5297 10.555
238 4 0.695059 2.04232 12.6018 16.057
240 1 -0.129575 0.902976 11.1471 16.15
245 2 0.00929459 1.76887 13.3938 14.6244
246 2 0.0199633 1.01386 10.494 15.287
247 2 0.0340318 4.03649 9.4495 14.5032
249 2 0.0224189 2.9834 10.5446 13.5996
266 2 0.078449 -3.60376 14.6326 11.3263
267 2 0.0206651 -2.31959 13.751 14.7314
269 2 0.0279626 -0.130342 11.4871 16.216
272 2 0.0527231 0.802434 13.2227 10.1718
1 4 0.641851 12.8435 2.17275 4.05728
2 4 0.475992 11.5702 0.329823 1.92438
3 1 -0.141058 11.6604 2.94859 5.29618
4 1 -0.102084 12.9144 0.266868 0.672213
5 3 -0.614132 12.0669 0.93006 3.33323
6 2 0.0715461 10.3956 1.34264 1.33712
7 2 0.0099927 11.035 2.18457 5.76368
8 2 0.00529617 11.0025 3.6285 4.75788
9 2 0.0576479 12.189 3.51077 6.06353
10 2 0.0530331 13.4381 1.22744 0.672805
36 4 0.662365 6.40842 4.61989 7.87598
43 4 1.10394 8.20159 2.31684 3.27862
47 4 0.783644 9.29279 4.78122 2.08755
48 4 0.767078 6.12785 6.91589 3.43926
109 3 -0.668103 6.40307 4.40659 6.26698
122 3 -0.586622 7.85376 0.836838 2.75707
123 3 -0.723441 6.97352 3.07171 4.00411
128 3 -0.708838 8.91303 3.24128 2.18618
129 3 -0.752984 5.96496 5.47824 2.82155
130 3 -0.667557 8.4152 5.66471 1.14007
158 2 -0.0531249 9.31487 2.06155 4.49338
161 2 -0.0131637 10.8476 4.86352 1.62332
162 2 -0.00462834 9.26838 5.39634 3.59218
163 2 0.00386892 5.34953 6.96612 4.86447
166 2 -0.0172151 8.97563 6.53633 5.6983
186 2 0.0472567 12.4054 6.98084 8.26186
193 2 -0.0141212 7.72633 1.61047 6.61655
201 2 0.0218029 8.22653 6.15605 8.24603
203 2 0.0533615 6.68958 7.00368 7.99634
253 4 0.507869 12.1445 1.02673 8.1022
255 2 0.0371296 12.3888 0.503614 6.581
256 2 -0.0103201 10.8941 2.06897 7.99822
263 2 -0.00291817 11.1867 5.93024 5.17107
44 4 0.649001 9.06627 2.3255 9.98861
45 4 0.696391 13.1051 0.835908 12.8537
46 4 1.03463 11.5515 3.10164 11.4437
49 4 1.05437 9.33699 7.60052 16.5767
51 4 1.07116 7.0534 7.15857 14.5007
68 1 -0.114015 7.16531 6.158 8.48174
72 1 -0.116198 8.40371 0.78652 9.27891
73 1 -0.13582 10.6305 4.62038 12.1129
124 3 -0.730272 7.9672 3.05948 10.9207
125 3 -0.568202 12.5329 3.60835 10.2489
126 3 -0.646753 10.4255 2.05079 10.8442
127 3 -0.685057 12.4328 2.29715 12.5571
132 3 -0.761789 6.32888 5.75677 14.1229
133 3 -0.700071 8.32257 6.84814 15.5022
152 2 -0.0113325 7.31518 3.32878 8.42137
159 2 -0.0220415 9.49295 3.4873 8.87938
160 2 -0.00888305 14.5676 1.20913 13.5684
202 2 0.0709872 7.03178 6.22703 9.55999
214 2 0.0475168 10.1014 5.05198 11.2677
215 2 0.02835 11.3488 5.32992 12.4935
216 2 0.0505957 9.91911 4.32704 12.8744
220 2 0.041696 8.36098 7.35276 12.4442
231 4 0.443313 11.7218 6.59776 15.1006
232 1 -0.105133 11.1991 4.84798 15.4054
233 3 -0.669728 10.7992 7.69158 15.8635
234 2 0.0408951 11.5749 7.00745 13.5095
235 2 0.0357296 11.6306 4.14959 14.6982
236 2 0.0787723 10.1123 4.77776 15.359
237 2 0.0528875 11.5324 4.58758 16.4097
254 3 -0.513881 13.468 1.82401 8.51992
257 1 -0.106366 7.85618 3.13552 15.4297
258 2 0.108864 7.80648 4.07171 14.8872
260 2 0.0684507 8.85302 2.96711 15.82
264 2 0.0725556 13.5267 3.25577 14.3779
270 2 0.0412619 13.5403 1.09029 16.4468
50 4 0.678407 8.49396 7.89077 4.94081
52 4 0.64903 3.87139 10.5913 2.89528
53 4 0.687765 7.42655 9.89748 7.16735
62 1 -0.135974 11.821 7.86545 8.03796
70 1 -0.114396 4.13396 8.14435 6.78292
71 1 -0.138068 2.28849 12.4983 5.74236
74 1 -0.135962 7.83657 8.33673 0.24753
76 1 -0.135309 5.69545 10.5877 3.24938
77 1 -0.0889834 6.68109 11.4287 6.48379
131 3 -0.690608 7.58917 7.49148 3.70053
135 3 -0.468043 3.40541 11.9619 2.20946
136 3 -0.706556 2.97698 10.1865 4.18258
137 3 -0.696748 7.88604 8.86829 6.01639
138 3 -0.54756 8.61353 10.2425 8.23878
139 3 -0.705214 3.66001 10.4254 8.3223
164 2 -0.0409057 5.39158 7.9642 2.44463
165 2 -0.0184006 9.84605 8.55647 4.31978
167 2 0.00697461 3.51274 9.41642 1.79144
168 2 0.0415614 6.32748 9.05713 8.07556
208 2 0.0398614 4.71482 7.60308 7.52338
209 2 0.0495271 4.78622 8.81718 6.22975
210 2 0.0684498 2.38031 13.1303 4.86849
211 2 0.0550159 3.24616 12.4238 6.24584
217 2 0.0468167 8.5562 8.68733 0.984387
218 2 0.0414711 6.84176 8.35893 0.677046
222 2 0.0235126 6.28111 10.387 2.35172
223 2 0.0408179 5.96692 9.85409 4.0071
224 2 0.0540799 5.94467 11.5821 3.62414
225 2 0.113724 6.67663 12.1983 7.25531
226 2 0.0468368 5.66431 11.2951 6.11623
227 2 0.0641534 7.30986 11.7774 5.66196
265 2 0.0481871 10.0221 7.59364 7.35095
271 2 0.0489057 6.25669 12.5378 0.969351
22 4 1.02856 10.0764 11.3623 9.23993
54 4 1.0245 4.08394 11.3713 9.56745
55 4 1.08339 6.61701 11.6203 11.0898
75 1 -0.154897 7.66092 8.02256 12.9425
78 1 -0.151822 2.79666 11.3187 10.96
134 3 -0.797427 6.01991 8.09821 15.3705
140 3 -0.544427 4.28899 12.8786 9.00738
141 3 -0.569802 8.08237 11.6426 10.4527
142 3 -0.730733 5.53282 10.8395 10.18
143 3 -0.543089 6.08626 13.0753 11.5507
169 2 -0.031939 6.78158 10.7234 12.4783
187 2 0.0812724 11.4013 8.3013 8.93111
219 2 0.0327837 6.8228 8.22349 12.279
221 2 0.0277294 8.16767 8.95524 13.1771
230 2 0.0707208 3.05299 12.0554 11.7141
239 4 0.610169 4.69631 11.79 14.8762
241 1 -0.132014 4.01218 10.3409 13.8878
242 1 -0.119833 6.37038 11.3537 15.6349
243 3 -0.512661 4.85753 13.114 13.9015
244 3 -0.6042 3.60908 12.1883 16.0418
248 2 0.0378928 4.60758 10.1538 12.999
250 2 0.0326166 6.89112 10.6994 14.9398
251 2 0.0358377 6.22743 10.8198 16.5697
252 2 0.0365597 6.96662 12.2452 15.8113
273 2 0.0448491 1.71611 13.3021 8.64513
274 2 0.0221726 8.86853 10.0025 16.1395
ITEM: TIMESTEP
2
ITEM: NUMBER OF ATOMS
274
ITEM: BOX BOUNDS xy xz yz pp pp pp
-7.3914999999999997e+00 1.6478000000000002e+01 -7.3914999999999997e+00
0.0000000000000000e+00 1.5100700000000000e+01 9.9190000000000000e-01
0.0000000000000000e+00 1.6771000000000001e+01 1.0307999999999999e+00
ITEM: ATOMS id type q x y z
11 4 1.09006 2.88381 0.721374 7.42218
13 4 1.54782 0.95246 2.32695 5.40287
15 4 1.06528 -0.266285 4.14951 2.05343
16 4 1.05706 -1.34946 6.2099 -0.0145809
17 4 1.14384 0.359196 4.88694 7.13885
18 4 1.12699 -1.09178 7.04187 5.42891
27 4 1.25389 3.5567 2.77773 3.78847
28 4 1.06173 5.6592 2.13735 0.149091
30 4 1.05382 6.12107 3.05698 5.39698
33 4 1.63703 5.01166 4.55382 1.82287
34 4 0.740363 1.01795 6.74192 3.28712
56 1 -0.0952821 1.00967 2.95138 1.18229
58 1 -0.114062 2.22353 5.42615 7.20537
59 1 -0.14496 -2.54003 6.18757 4.43177
65 1 -0.150546 6.69607 1.44683 6.37301
67 1 -0.114952 2.82294 6.83071 3.61618
79 3 -0.584005 -0.287707 1.5315 4.7466
80 3 -0.778492 1.6515 1.50935 6.63445
82 3 -0.593354 -1.30243 3.28115 3.0084
83 3 -0.743569 -1.18929 4.85919 0.899874
85 3 -0.763019 0.283408 3.73089 5.98133
86 3 -0.746055 -0.623506 6.1172 6.69529
96 3 -0.84928 2.05496 2.70154 4.26806
97 3 -0.591774 5.87545 0.743205 1.02423
98 3 -0.807334 3.75104 1.89385 8.2238
100 3 -0.755452 4.52953 2.93968 5.07496
103 3 -0.869255 3.85175 3.83968 2.65837
104 3 -0.716683 5.97344 3.46748 1.07224
105 3 -0.697927 0.5336 5.28238 2.87574
107 3 -0.856044 4.35346 5.55144 0.741288
148 2 0.0165831 3.90155 1.2447 3.1251
170 2 0.0215391 0.506134 2.52027 0.344437
171 2 0.0793293 1.27697 2.21079 1.90897
172 2 0.116579 1.85735 3.53552 0.879602
176 2 0.0339733 2.33909 6.18548 6.46406
177 2 0.109012 2.81034 4.56085 6.96
178 2 0.0611035 2.45204 5.78173 8.18777
179 2 0.0860143 -2.1678 5.30795 3.95584
180 2 0.0166127 -2.9008 6.93965 3.77329
194 2 0.0637369 6.55591 0.643226 5.685
195 2 0.0734257 6.07133 1.34449 7.23159
199 2 0.0344718 3.36453 6.73564 2.68346
200 2 0.0770759 3.06455 6.00086 4.2721
12 4 1.12326 -0.694181 3.06777 9.4203
14 4 1.22213 1.83524 3.10172 11.2019
19 4 1.12687 0.734982 4.89761 13.5003
20 4 0.69096 -0.387886 7.15967 11.9043
29 4 1.5273 4.20441 2.99919 9.27827
31 4 0.7408 4.20701 2.91823 15.185
32 4 1.12398 6.46446 3.00435 11.3379
35 4 1.22405 4.86232 7.60216 16.4001
37 4 1.18689 5.29633 4.96626 13.2107
38 4 1.21571 2.12317 7.20869 15.0944
60 1 -0.136296 -0.0807298 3.65887 14.8334
61 1 -0.0908964 -1.49251 7.09056 10.4496
66 1 -0.159729 4.0919 0.973218 14.9991
81 3 -0.778281 0.502877 2.62752 10.4652
84 3 -0.758663 -0.135004 4.33367 8.55481
87 3 -0.795403 1.61609 4.1403 12.3898
88 3 -0.662864 -0.468751 5.76026 12.7656
99 3 -0.83766 3.01299 3.52898 10.226
101 3 -0.698 5.08964 3.30795 16.4599
102 3 -0.808071 5.40736 2.35722 10.2568
108 3 -0.731515 4.91541 4.28729 8.52084
110 3 -0.747595 4.57022 3.72426 13.8748
111 3 -0.766884 5.97133 4.4663 11.8239
112 3 -0.776351 1.71967 5.85861 14.3504
113 3 -0.830196 3.59854 7.09683 15.6105
114 3 -0.783345 1.12407 7.73734 16.2419
144 2 -0.0301227 2.35801 1.68599 12.0086
145 2 0.0129259 1.25789 7.17358 11.4133
149 2 0.0202227 2.62658 3.44583 15.5564
150 2 -0.0235533 6.36089 1.9229 12.6747
153 2 0.0251442 4.11598 6.10777 12.6941
181 2 0.00342221 0.645942 2.89712 14.9965
182 2 0.081506 -0.302201 4.27196 15.6701
183 2 0.0903814 -1.32053 6.19318 9.86551
185 2 0.0647948 -2.49371 7.09101 10.8578
213 2 0.0501877 7.47247 0.984871 8.7726
259 2 0.0253243 7.57869 2.30904 14.7877
261 3 -0.553575 -1.24854 6.89152 15.484
21 4 1.12945 -2.51829 9.16488 7.16271
23 4 1.14556 -3.3454 11.6574 5.60629
26 4 1.02823 -0.300293 13.1084 1.63222
39 4 1.23721 -1.01657 10.9861 3.7358
40 4 0.666358 2.8333 9.19881 7.64563
42 4 1.11969 1.80455 10.715 5.18143
57 1 -0.140813 -2.16321 7.65603 1.0653
89 3 -0.757861 -1.70388 8.43672 5.96635
91 3 -0.778415 -3.3823 10.3852 6.57359
92 3 -0.603915 -3.61081 13.0875 6.38835
106 3 -0.709692 0.154689 7.37683 4.47245
115 3 -0.765448 -0.851277 11.6495 2.28328
116 3 -0.822432 -2.09754 11.7304 4.62179
117 3 -0.640928 0.754228 12.6725 0.436413
118 3 -0.693756 -1.42494 9.67488 8.26403
120 3 -0.762638 0.364808 10.7204 4.48472
121 3 -0.668953 1.77253 9.77838 6.53935
146 2 -0.0187321 -4.71644 11.4574 4.60352
151 2 0.0180109 0.709729 7.75653 1.95195
155 2 -0.00283977 -1.66233 9.43741 3.36533
156 2 0.0381307 -0.584848 11.9614 7.11834
173 2 0.0341332 -2.19104 8.5211 0.447657
174 2 0.02985 -1.54645 7.79977 1.92293
175 2 0.034959 -3.13885 7.29834 1.311
198 2 0.057627 3.05139 7.78439 4.07918
207 2 0.0372052 3.69384 7.44461 6.09186
212 2 0.0202751 1.53355 12.8783 6.41562
262 2 -0.0565408 3.43898 8.00397 0.451591
268 2 0.0773853 0.167142 9.56501 0.280181
24 4 0.677586 -1.19404 9.88094 12.8445
25 4 1.07039 -2.68757 11.3773 10.6433
41 4 0.752098 -0.810804 11.113 8.5412
63 1 -0.129747 -2.29578 10.2422 14.3116
64 1 -0.138147 -3.20029 12.7988 11.9373
69 1 -0.121284 1.84614 8.26441 9.00522
90 3 -0.528809 -5.14794 12.8247 8.50273
93 3 -0.649407 -0.516657 8.44046 12.8419
94 3 -0.697887 -4.02036 10.8016 9.90082
95 3 -0.712571 -1.93386 10.1854 11.461
119 3 -0.693941 -1.64819 12.0363 9.53182
147 2 -0.0284255 0.10996 10.9757 12.9089
154 2 -0.0258348 2.08291 8.42539 13.8865
157 2 -0.0054994 0.711483 10.878 9.17846
184 2 0.099883 -1.34105 7.9795 9.84691
188 2 0.0490005 -1.8397 9.90743 15.2296
189 2 0.0749833 -3.20639 9.68805 14.1356
190 2 0.00626894 -2.50954 11.3027 14.3707
191 2 0.0126807 -2.31932 13.102 12.43
192 2 0.0270133 -3.95583 12.3475 12.5295
196 2 0.00567748 -4.03797 14.8597 14.2508
197 2 0.0214681 -3.58423 14.7277 15.9807
204 2 0.0274071 2.53338 7.63272 9.53542
205 2 0.073202 1.06098 7.69832 8.53907
206 2 0.0337725 1.43364 9.0087 9.65951
228 2 0.0169933 2.80401 10.3233 11.3839
229 2 0.0169926 1.8231 11.5302 10.5518
238 4 0.70384 2.05031 12.5976 16.0826
240 1 -0.128462 0.894233 11.1344 16.1524
245 2 0.0105731 1.76313 13.4039 14.6046
246 2 0.0199961 1.01764 10.4995 15.287
247 2 0.0359228 4.03896 9.45438 14.5069
249 2 0.0213132 2.98701 10.5498 13.6036
266 2 0.0821236 -3.6033 14.6308 11.3229
267 2 0.0231331 -2.3308 13.7925 14.736
269 2 0.0295223 -0.125344 11.4917 16.2153
272 2 0.0523173 0.804379 13.2265 10.1758
1 4 0.663036 12.876 2.17594 4.0239
2 4 0.476651 11.6109 0.313011 1.93044
3 1 -0.138372 11.6487 2.96476 5.30923
4 1 -0.106175 12.9013 0.273163 0.665258
5 3 -0.620933 12.0733 0.931737 3.34149
6 2 0.0765359 10.3696 1.36114 1.32345
7 2 0.0127077 11.042 2.18335 5.75863
8 2 0.00567708 11.0078 3.62562 4.75439
9 2 0.0581013 12.194 3.50685 6.05898
10 2 0.0520213 13.444 1.22109 0.684368
36 4 0.679353 6.37338 4.62093 7.90109
43 4 1.10092 8.19989 2.30581 3.24746
47 4 0.793537 9.27255 4.74623 2.09099
48 4 0.775355 6.18305 6.9427 3.46588
109 3 -0.679045 6.40719 4.41252 6.27011
122 3 -0.5937 7.84044 0.800577 2.73731
123 3 -0.723433 6.97905 3.06763 4.00237
128 3 -0.729547 8.91879 3.23256 2.18177
129 3 -0.706549 5.96856 5.47459 2.82653
130 3 -0.667268 8.40687 5.67333 1.13606
158 2 -0.0475655 9.32631 2.05892 4.50517
161 2 -0.00903809 10.8854 4.86496 1.61285
162 2 -0.00301933 9.26702 5.41401 3.62636
163 2 0.00353234 5.33014 6.96535 4.89562
166 2 -0.0159771 8.98713 6.5037 5.71653
186 2 0.0486343 12.4064 6.97812 8.25169
193 2 -0.0133828 7.72475 1.61445 6.61393
201 2 0.022349 8.22466 6.15217 8.2448
203 2 0.0522793 6.6884 6.99955 7.99474
253 4 0.513302 12.1735 0.99158 8.15808
255 2 0.0402921 12.3957 0.488833 6.53788
256 2 -0.00737587 10.8618 2.0964 7.99651
263 2 -0.00185253 11.1919 5.93095 5.17413
44 4 0.655207 9.04143 2.29106 9.99918
45 4 0.706624 13.0714 0.735908 12.8386
46 4 1.03785 11.5866 3.08145 11.4266
49 4 1.06703 9.31745 7.58367 16.5535
51 4 1.09026 7.05756 7.13672 14.5267
68 1 -0.115485 7.16842 6.16312 8.48106
72 1 -0.121986 8.40021 0.769378 9.26809
73 1 -0.127281 10.6057 4.66226 12.1289
124 3 -0.740472 7.97885 3.06047 10.9195
125 3 -0.580435 12.5482 3.60675 10.2467