ITEM: TIMESTEP
0
ITEM: NUMBER OF ATOMS
274
ITEM: BOX BOUNDS xy xz yz pp pp pp
-7.3914999999999997e+00 1.6478000000000002e+01 -7.3914999999999997e+00
0.0000000000000000e+00 1.5100700000000000e+01 9.9190000000000000e-01
0.0000000000000000e+00 1.6771000000000001e+01 1.0307999999999999e+00
ITEM: ATOMS id type q x y z element
26 4 1.20892 7.14578 0.34149 2.17386 Si
13 4 1.1601 2.40703 2.28507 6.24217 Si
15 4 1.04015 -1.02224 3.05523 1.74867 Si
176 2 0.0223503 2.22173 6.07567 7.58233 H
17 4 0.878951 0.424461 4.38015 6.83719 Si
18 4 0.997682 -1.50673 6.22293 5.24707 Si
27 4 1.05866 4.34522 2.99559 4.09706 Si
28 4 1.05003 5.65846 2.38204 0.483516 Si
30 4 0.792319 6.56398 2.74432 6.09219 Si
33 4 1.33157 4.77822 4.9364 1.86056 Si
34 4 0.696066 0.237138 5.55831 2.94384 Si
56 1 -0.110292 0.172302 1.65867 0.634386 C
151 2 0.0549784 0.537575 6.44572 1.52183 H
106 3 -0.694062 -1.03869 6.27752 3.66642 O
65 1 -0.0573959 5.81271 0.832756 6.73683 C
67 1 -0.0699046 1.9115 5.79601 4.07943 C
200 2 0.0631264 2.73362 6.14476 3.48584 H
80 3 -0.818397 2.01606 0.911915 7.00799 O
199 2 0.0610027 1.48508 6.53191 4.72119 H
83 3 -0.762361 -1.70611 3.94561 0.572601 O
85 3 -0.762783 1.18095 3.23928 5.94263 O
86 3 -0.741683 -0.203348 5.63925 6.08057 O
96 3 -0.787569 3.30081 2.11649 4.9405 O
97 3 -0.784118 5.89679 1.04576 1.40404 O
255 2 0.326562 0.354245 2.03881 3.84279 H
100 3 -0.756062 5.42621 3.54893 5.21114 O
103 3 -0.742826 3.72177 4.1731 3.18223 O
104 3 -0.808946 5.65939 3.68085 1.47809 O
105 3 -0.703415 0.025174 3.99029 2.61506 O
107 3 -0.799079 3.63967 5.2563 0.707692 O
148 2 0.0708238 5.18214 1.7728 3.16853 H
170 2 0.0596311 1.12737 2.04265 0.695149 H
193 2 0.091284 5.15357 1.08578 7.55114 H
172 2 0.0514848 0.142897 0.669853 1.00572 H
84 3 -0.698003 -1.15886 3.65145 7.79888 O
146 2 0.350469 0.763758 0.791103 4.9309 H
195 2 0.116597 5.27784 0.419577 5.8817 H
58 1 -0.103899 1.96212 5.12205 8.02414 C
198 2 0.139886 1.99504 4.78738 4.49361 H
57 1 -0.103114 -2.47264 7.00018 1.18501 C
150 2 0.198294 2.68865 3.47806 1.32329 H
175 2 0.0589903 -2.84423 6.45759 2.07362 H
79 3 -0.689753 0.155528 1.00567 4.18492 O
177 2 0.0893305 2.72705 4.35661 7.91062 H
261 3 -0.706743 -1.78351 6.5416 15.3652 O
14 4 1.03019 1.29066 3.3075 11.0485 Si
19 4 0.778051 0.492221 5.39358 13.0414 Si
184 2 0.0521533 -0.509976 6.9263 8.96895 H
29 4 1.28029 3.76159 2.35978 9.60549 Si
31 4 0.688133 4.92447 3.57155 14.8502 Si
32 4 1.04366 6.20835 3.61838 10.9078 Si
145 2 0.0235084 1.65067 7.25837 10.8157 H
201 2 0.0449774 4.61014 6.39983 8.99481 H
38 4 1.05288 1.93542 6.9033 15.2273 Si
178 2 0.0762028 1.56357 5.19436 9.01812 H
35 4 1.10179 4.56748 7.47887 16.3619 Si
267 2 0.0323507 5.07333 1.13435 14.1874 H
81 3 -0.786696 -0.275797 3.29143 10.575 O
101 3 -0.67977 5.19346 3.24922 16.3991 O
87 3 -0.704942 1.48048 4.68096 11.9468 O
88 3 -0.683718 -0.199897 6.76366 12.666 O
99 3 -0.780515 2.2881 3.10217 9.73663 O
66 1 -0.117233 4.37115 1.91628 13.8494 C
102 3 -0.773791 5.09052 2.50507 10.8426 O
171 2 0.030723 0.728422 2.69097 16.4115 H
110 3 -0.724156 6.04664 4.4621 14.0921 O
16 4 0.995873 -0.744578 6.48719 16.6472 Si
112 3 -0.756319 1.98639 5.39456 14.6909 O
36 4 0.434999 5.84508 4.22434 8.46597 Si
197 2 0.0280912 3.33789 1.77099 14.174 H
144 2 -0.0111938 1.67334 2.01448 12.1507 H
196 2 0.092077 4.49466 2.17308 12.8154 H
149 2 0.2689 1.40582 4.85673 15.2646 H
111 3 -0.770106 5.80802 5.10255 11.5328 O
153 2 0.0422433 4.25364 6.49072 13.2945 H
61 1 -0.0947974 -1.16212 7.04025 9.82667 C
183 2 0.0531031 -1.59082 6.11496 10.2266 H
20 4 0.618399 0.0341438 7.66545 11.3017 Si
98 3 -0.811827 3.51447 0.795896 9.19872 O
113 3 -0.807092 3.36842 7.58819 15.2515 O
37 4 1.10351 5.82563 5.69226 13.0409 Si
114 3 -0.78039 0.789417 7.02257 16.4125 O
154 2 0.0430031 1.33701 7.78384 13.7835 H
108 3 -0.725345 4.52891 3.23341 8.3992 O
21 4 0.928986 -2.87157 8.75794 6.72646 Si
23 4 1.03676 -2.99658 11.7785 6.39088 Si
209 2 0.0954923 2.24487 9.10067 5.39172 H
39 4 1.14906 -0.84115 12.1764 4.21741 Si
167 2 0.0403398 2.00998 10.11 2.10946 H
118 3 -0.657061 -1.75886 9.40764 7.81841 O
173 2 0.0511807 -3.25543 7.48312 0.5625 H
89 3 -0.712225 -2.18656 7.70367 5.70529 O
91 3 -0.714884 -3.55825 10.2315 6.04276 O
92 3 -0.791514 -3.69 12.9573 7.28059 O
70 1 -0.0916967 3.01188 8.83685 6.10554 C
115 3 -0.797021 -0.626491 13.5998 3.57412 O
116 3 -0.777031 -1.57387 12.193 5.66609 O
207 2 0.0191324 2.80644 8.00646 6.77943 H
121 3 -0.675152 1.68316 11.3421 7.0272 O
120 3 -0.716229 0.525571 11.3623 4.27486 O
194 2 0.0636818 -0.706591 14.3596 7.05341 H
174 2 0.0683237 -1.5758 7.56223 1.32322 H
11 4 1.34396 -4.65999 13.9699 8.08876 Si
155 2 -0.00890498 -1.76583 11.2037 3.08816 H
262 2 -0.00982487 3.23162 7.85674 0.601437 H
160 2 0.055423 -3.4434 9.59121 3.45503 H
245 2 0.0701541 -3.38821 10.3089 3.82302 H
117 3 -0.646134 0.547368 12.6854 1.1198 O
156 2 0.240797 1.68247 12.2968 7.3677 H
42 4 0.809951 1.97488 11.7935 4.89565 Si
24 4 0.646055 -1.12737 9.96741 12.2826 Si
25 4 0.986041 -3.52253 10.9601 10.7439 Si
69 1 -0.119422 2.84026 9.51685 9.23932 C
63 1 -0.100123 -1.46513 9.33426 14.1923 C
64 1 -0.107146 -4.05505 12.7604 11.9398 C
213 2 0.0506296 -0.391251 14.6987 11.8058 H
192 2 0.0981789 -4.67411 13.3342 11.2562 H
93 3 -0.649554 0.0807971 9.29451 11.4847 O
269 2 0.0400371 -0.0473135 14.9242 15.6366 H
95 3 -0.687852 -2.52644 9.86862 11.4697 O
119 3 -0.67873 -2.73511 11.6102 9.45447 O
147 2 -0.00920026 -0.708495 11.6309 12.125 H
247 2 0.0549352 2.2281 9.88188 13.1777 H
157 2 0.0410227 -0.126828 11.4944 8.66736 H
190 2 0.0248366 -2.11712 10.083 14.655 H
188 2 0.045456 -0.45521 9.33059 14.6062 H
189 2 0.116946 -1.89319 8.35999 13.9979 H
240 1 -0.124788 0.329468 14.2826 14.8458 C
204 2 0.0675079 1.75089 9.44628 9.41447 H
206 2 0.0218296 3.38479 8.59687 9.18934 H
268 2 0.0285884 -0.224871 13.3896 14.6957 H
272 2 0.0548312 1.23677 13.9476 11.7361 H
241 1 -0.0987506 2.20765 10.9326 12.8388 C
185 2 0.102283 -1.82828 7.89726 9.77919 H
248 2 0.0552189 2.60354 11.0563 11.8497 H
266 2 0.0354786 -3.04406 13.1422 12.1279 H
249 2 0.0396984 1.31575 11.4958 13.0476 H
273 2 0.0257427 0.0885472 13.7006 10.3751 H
191 2 0.0328429 -4.58356 12.3559 12.7951 H
72 1 -0.130322 0.405942 14.3459 11.1877 C
246 2 0.0394332 0.689364 14.7155 13.9231 H
238 4 0.536478 1.96863 13.67 15.9806 Si
41 4 0.695632 -1.70505 10.9424 8.41349 Si
1 4 0.813066 13.6192 0.880999 3.6564 Si
82 3 -0.744686 13.4442 2.11814 2.61659 O
3 1 -0.0902034 12.7306 1.51979 5.35727 C
59 1 -0.108743 12.3055 4.80806 5.24018 C
164 2 0.062641 5.65691 5.42298 5.21556 H
7 2 0.0774016 13.2677 2.42568 5.59545 H
68 1 -0.108321 5.40855 6.28272 8.26837 C
9 2 0.055465 11.7038 1.6876 5.08863 H
166 2 -2.1527e-05 8.53404 6.32501 6.65769 H
49 4 1.06451 8.77831 6.07336 0.0262442 Si
180 2 0.0370268 11.4441 5.43606 5.13503 H
43 4 1.11475 8.21534 2.64416 3.63414 Si
47 4 0.633655 9.92139 4.61919 2.46444 Si
48 4 0.655013 6.15454 6.61104 3.91921 Si
109 3 -0.623694 7.61514 3.69808 7.71678 O
263 2 0.0563442 12.4558 4.35331 6.22112 H
123 3 -0.738785 7.71513 2.20689 5.10196 O
128 3 -0.698667 9.36195 3.77723 3.77197 O
129 3 -0.736377 5.49413 6.31876 2.44026 O
130 3 -0.706479 8.95307 4.9399 1.20242 O
186 2 0.0157803 11.0975 6.83469 7.74697 H
161 2 0.0366364 11.3068 3.76533 1.91989 H
162 2 0.0021082 10.4924 6.11347 3.12454 H
163 2 0.262869 7.8865 4.50763 7.21781 H
179 2 0.0699016 12.432 4.15342 4.3886 H
131 3 -0.640077 7.6744 7.10162 4.21205 O
8 2 0.0746265 12.8779 0.726155 6.07865 H
122 3 -0.804922 8.2988 1.37246 2.62194 O
202 2 0.0267681 5.09279 6.35432 7.25779 H
158 2 0.260603 13.8355 4.47449 8.15622 H
44 4 0.705167 8.67388 1.92564 10.3522 Si
12 4 1.34847 14.3498 2.47763 9.52031 Si
46 4 1.09672 11.6736 2.4319 11.1409 Si
254 3 -0.795754 14.9769 1.02057 9.60347 O
51 4 1.14733 7.24752 7.57139 14.9495 Si
258 2 0.0832883 7.88032 3.35203 14.8195 H
236 2 0.0711617 10.7656 4.56948 16.4582 H
73 1 -0.107713 11.4195 4.46848 11.9521 C
124 3 -0.679464 7.84473 3.26684 10.739 O
125 3 -0.794058 12.8091 2.6828 9.98273 O
126 3 -0.733459 10.2758 1.90544 10.5248 O
127 3 -0.771163 12.3785 1.57776 12.358 O
132 3 -0.78822 6.78071 6.8628 13.5961 O
133 3 -0.766581 8.53037 6.93397 15.7297 O
182 2 0.105044 14.1221 3.59282 12.6379 H
228 2 0.0845213 11.3065 0.858703 8.55187 H
257 1 -0.0985635 8.28974 3.56796 15.7807 C
259 2 0.0207832 8.98076 2.86132 16.1838 H
214 2 0.054771 11.5068 5.05109 11.0647 H
215 2 0.0328798 12.1956 4.53349 12.6773 H
216 2 0.0569307 10.4142 4.40826 12.307 H
233 3 -0.730178 11.1335 7.33272 16.0343 O
231 4 0.646618 12.1079 6.28283 15.2378 Si
232 1 -0.120065 11.6101 4.35923 15.8137 C
260 2 0.113032 8.54644 4.61442 15.8744 H
234 2 0.0194788 11.7867 6.40745 13.5624 H
235 2 0.0260127 11.3682 3.85126 14.9039 H
159 2 0.0546598 8.43089 1.77858 8.65121 H
181 2 0.0563473 13.9294 4.49516 14.2156 H
237 2 0.0597066 12.4655 3.94739 16.3416 H
60 1 -0.0983532 14.5778 3.92766 13.5665 C
203 2 0.0520202 6.30342 6.81111 8.52443 H
134 3 -0.802937 6.03492 7.96058 15.9342 O
264 2 0.0320203 15.0835 3.12328 14.1028 H
40 4 0.634796 3.01893 10.4664 7.4092 Si
52 4 0.666901 3.46763 10.9085 2.6438 Si
53 4 0.678026 7.84329 10.2539 6.85364 Si
6 2 0.324642 1.5535 12.5655 1.53234 H
50 4 0.601746 8.4212 7.64744 5.53731 Si
71 1 -0.0832484 2.26836 13.7925 4.84223 C
74 1 -0.108102 8.46296 7.96959 1.06417 C
76 1 -0.1104 5.03622 9.59572 2.171 C
77 1 -0.0845517 8.21078 11.9094 5.64248 C
210 2 0.0322577 2.72979 14.0799 5.74747 H
135 3 -0.687987 3.48379 12.3403 1.92435 O
136 3 -0.660437 3.26785 11.0809 4.21475 O
137 3 -0.633479 7.45896 8.81731 6.17755 O
10 2 0.0355907 6.68761 12.2715 0.769019 H
139 3 -0.699918 4.33292 11.3863 7.33852 O
274 2 0.0279697 9.1179 8.63888 0.536932 H
165 2 -0.00343797 10.1241 8.05227 5.20102 H
208 2 0.06713 3.98135 8.86775 5.66159 H
54 4 0.952848 4.9866 12.4836 8.30079 Si
5 3 -0.656745 5.70002 13.458 3.21315 O
2 4 0.677044 4.82933 13.1934 1.83949 Si
211 2 0.135601 1.3077 14.2817 4.59144 H
62 1 -0.116018 11.1247 7.89721 7.96563 C
138 3 -0.72725 8.80383 10.0711 8.1569 O
265 2 0.0981202 10.1671 8.41319 7.8036 H
226 2 0.0878713 7.25372 11.9653 5.17728 H
223 2 0.0688449 5.77242 9.79625 2.93075 H
224 2 0.0325635 5.32753 9.80238 1.18072 H
225 2 0.0913294 8.42745 12.7673 6.28266 H
218 2 0.0658527 7.40093 8.17788 0.924521 H
227 2 0.0490357 9.01109 11.5686 5.00546 H
140 3 -0.742655 6.5686 13.2336 7.85896 O
222 2 0.0573125 4.54542 8.61844 2.26353 H
217 2 0.0743009 8.75584 7.75387 2.08198 H
212 2 0.0906746 2.9428 13.6448 4.01567 H
230 2 0.0109027 2.74557 13.6063 7.96577 H
4 1 -0.143635 5.78571 12.7666 0.395252 C
22 4 1.15003 9.06803 10.886 9.54732 Si
45 4 1.09858 5.17391 14.0781 12.5744 Si
55 4 0.961854 6.61001 12.1691 10.8172 Si
75 1 -0.110088 8.21982 9.24994 14.0463 C
271 2 0.0402884 6.23492 13.1973 16.461 H
270 2 0.0160354 7.00446 14.78 16.7496 H
253 4 1.0402 7.78621 13.6707 8.81994 Si
141 3 -0.761576 7.8897 11.0535 10.6811 O
142 3 -0.76913 5.34021 11.9428 9.75892 O
143 3 -0.758149 6.48383 13.2835 12.0361 O
78 1 -0.104018 3.39483 13.9729 8.71656 C
220 2 0.0637036 9.13885 8.75692 13.8069 H
219 2 0.0659411 7.57227 9.47238 13.2135 H
221 2 0.0263501 8.31462 10.0205 14.8055 H
169 2 0.0941838 9.28503 8.46277 10.8694 H
239 4 0.64675 3.54384 12.0978 14.0255 Si
229 2 0.0720215 3.14793 13.7881 9.73203 H
242 1 -0.112826 5.24571 10.9743 14.4135 C
243 3 -0.721626 3.78095 13.3652 13.019 O
90 3 -0.760528 9.27452 12.9736 8.99085 O
94 3 -0.706605 10.5085 10.3212 10.1876 O
250 2 0.0581193 5.01128 10.623 15.3864 H
251 2 0.041774 6.02785 11.7262 14.4059 H
252 2 0.0398694 5.30948 10.2018 13.6524 H
244 3 -0.640551 2.90749 12.4844 15.4355 O
187 2 0.0786836 11.6211 8.12705 8.93176 H
168 2 0.0645155 8.60187 7.97401 11.0667 H
256 2 0.08414 6.551 9.35767 9.88462 H
205 2 0.0582937 3.34851 10.2637 9.83115 H
152 2 0.0561582 6.34852 8.9662 10.0506 H
ITEM: TIMESTEP
100
ITEM: NUMBER OF ATOMS
274
ITEM: BOX BOUNDS xy xz yz pp pp pp
-7.3914999999999997e+00 1.6478000000000002e+01 -7.3914999999999997e+00
0.0000000000000000e+00 1.5402714000000000e+01 9.9190000000000000e-01
0.0000000000000000e+00 1.6771000000000001e+01 1.0514159999999999e+00
ITEM: ATOMS id type q x y z element
26 4 1.1405 7.21651 0.291424 2.33028 Si
13 4 1.12189 2.22146 2.17996 6.07827 Si
15 4 1.00732 -1.02373 3.12238 1.71656 Si
176 2 0.029648 1.62255 6.39732 7.86991 H
17 4 0.888014 0.419039 4.48138 6.79412 Si
18 4 1.06792 -1.51528 6.25809 5.19984 Si
27 4 1.02136 4.41357 2.88434 4.18166 Si
28 4 1.10549 5.71936 2.41906 0.547128 Si
30 4 0.805743 6.71042 2.7176 5.98805 Si
33 4 1.3241 4.71799 4.9678 1.86826 Si
34 4 0.67666 0.151914 5.57054 2.87908 Si
56 1 -0.113072 0.270761 1.71275 0.652519 C
151 2 0.0573971 0.494093 6.3792 1.38986 H
106 3 -0.718269 -1.15549 6.2344 3.61239 O
65 1 -0.0648494 5.80864 0.961617 6.77197 C
67 1 -0.0718077 1.75661 6.01573 4.06811 C
200 2 0.0536695 2.48112 6.2906 3.30965 H
80 3 -0.8698 1.8528 0.995594 7.11732 O
199 2 0.0588281 1.4898 6.83389 4.75871 H
83 3 -0.742167 -1.87765 4.15302 0.680285 O
85 3 -0.746502 1.18907 3.40127 5.8249 O
86 3 -0.773826 -0.291757 5.75591 6.14176 O
96 3 -0.784528 3.34729 1.93315 4.90362 O
97 3 -0.77383 6.06386 1.13324 1.46982 O
255 2 0.304315 0.647811 1.6112 3.67882 H
100 3 -0.734513 5.48035 3.50736 5.23952 O
103 3 -0.791115 3.56644 4.09031 3.48049 O
104 3 -0.81162 5.68003 3.83094 1.34377 O
105 3 -0.697529 0.0553413 3.97962 2.6005 O
107 3 -0.855468 3.65047 5.52463 0.86742 O
148 2 0.0763469 5.03623 1.91576 2.85042 H
170 2 0.0629241 1.09335 2.3571 0.337906 H
193 2 0.089505 4.89199 1.28937 7.24299 H
172 2 0.070302 0.523161 1.03029 1.45317 H
195 2 0.12571 5.66308 0.477323 5.82951 H
146 2 0.295857 0.81728 0.530041 4.78136 H
84 3 -0.689628 -1.05662 3.57702 7.67789 O
58 1 -0.100636 1.62605 5.38665 8.24897 C
198 2 0.135654 1.98898 5.12659 4.63826 H
57 1 -0.111952 -2.75861 6.9938 1.18597 C
150 2 0.306053 2.80234 3.64328 3.01855 H
175 2 0.0630505 -2.92313 6.44516 2.08991 H
79 3 -0.677903 0.243313 0.719662 3.96219 O
177 2 0.0985629 2.59409 4.92426 8.26367 H
158 2 0.259354 -1.5631 4.43465 7.75609 H
194 2 0.0512775 6.48345 0.487218 7.49408 H
261 3 -0.700398 -1.70146 6.47101 15.3428 O
14 4 1.12593 1.29708 3.3795 10.9667 Si
19 4 0.711842 0.539308 5.353 12.9073 Si
184 2 0.0595281 -0.477097 7.2031 8.8007 H
29 4 1.44741 3.75181 2.28269 9.6073 Si
31 4 0.699518 4.82315 3.44379 14.9527 Si
32 4 1.01637 6.15815 3.49026 10.9653 Si
145 2 0.0198183 1.60499 7.21914 10.6141 H
201 2 0.0511906 4.6559 6.39276 9.12476 H
38 4 1.12969 1.94284 6.76878 15.1263 Si
178 2 0.0764612 1.02958 5.17758 9.13464 H
35 4 1.19371 4.62321 7.45246 16.31 Si
267 2 0.0284699 5.1807 1.00418 14.2557 H
81 3 -0.829284 -0.224267 3.42532 10.4692 O
101 3 -0.695887 5.29598 3.26121 16.5439 O
87 3 -0.716846 1.56277 4.73546 11.7828 O
88 3 -0.65211 -0.219905 6.8064 12.5736 O
99 3 -0.827115 2.35386 3.07594 9.79689 O
66 1 -0.123962 4.34543 1.61018 14.0378 C
102 3 -0.823634 4.81187 2.52775 10.8249 O
171 2 0.022311 0.770726 2.36762 16.5892 H
110 3 -0.746855 5.77116 4.43275 14.0913 O
16 4 0.989304 -0.754335 6.61092 16.6559 Si
112 3 -0.731978 1.89131 5.22228 14.6618 O
36 4 0.450263 5.7882 4.09758 8.49921 Si
197 2 0.0248722 3.44288 1.28531 14.5138 H
144 2 -0.0181736 1.33595 2.08122 12.1076 H
196 2 0.0782323 4.24981 1.90052 12.9991 H
149 2 0.235057 1.16521 4.58839 15.1907 H
111 3 -0.738593 5.86472 5.00497 11.5279 O
153 2 0.0393455 4.20051 6.46559 12.9318 H
61 1 -0.0998421 -1.13381 7.24092 9.66972 C
183 2 0.0385397 -1.59035 6.30308 9.95047 H
20 4 0.638532 0.0447711 7.6834 11.2204 Si
98 3 -0.875404 3.61211 0.734705 9.08506 O
113 3 -0.837493 3.42439 7.23144 15.243 O
37 4 1.11941 5.75544 5.61195 13.036 Si
114 3 -0.78091 0.825989 7.09724 16.2386 O
154 2 0.0315239 1.35318 7.71642 13.807 H
108 3 -0.718433 4.37795 3.24898 8.40869 O
246 2 0.0344671 8.25389 0.9292 14.3137 H
21 4 0.91221 -2.87842 8.74982 6.68057 Si
23 4 1.04125 -3.05975 11.8047 6.42017 Si
209 2 0.0498018 2.52079 8.43716 5.85569 H
39 4 1.07149 -0.820979 12.2876 4.37981 Si
167 2 0.0523561 1.89111 10.2039 2.03326 H
118 3 -0.667518 -1.86689 9.39051 7.90224 O
173 2 0.0634202 -3.68154 7.21406 0.645918 H
89 3 -0.75235 -2.17708 7.66729 5.64125 O
91 3 -0.719514 -3.47022 10.2444 6.01583 O
92 3 -0.775712 -3.96177 12.7666 7.40757 O
70 1 -0.0962017 3.5028 8.73324 6.17447 C
115 3 -0.76453 -0.808823 13.8102 3.72979 O
116 3 -0.788563 -1.66002 12.3649 5.77174 O
207 2 0.0229743 3.99106 8.10622 6.89666 H
121 3 -0.679899 1.85757 11.2689 7.16623 O
120 3 -0.726403 0.646866 11.6067 4.32521 O
41 4 0.719891 -1.65657 10.9438 8.36136 Si
174 2 0.0514077 -2.03059 7.82843 1.30358 H
11 4 1.37273 -4.71334 14.0836 8.04536 Si
155 2 0.0167705 -1.69796 11.1909 3.32586 H
262 2 -0.0187041 3.23475 8.02807 0.0620364 H
160 2 0.101296 -3.37984 8.76068 4.19916 H
245 2 0.0364855 -4.10942 8.869 3.84854 H
117 3 -0.663168 0.632508 12.7391 1.26918 O
156 2 0.199774 1.89266 12.3552 7.52648 H
24 4 0.661774 -1.12501 9.87446 12.3195 Si
25 4 1.0125 -3.50586 10.817 10.7322 Si
69 1 -0.106794 2.70645 9.75855 9.33421 C
63 1 -0.10285 -1.18307 9.52829 14.3538 C
64 1 -0.102443 -4.19028 12.5703 11.8276 C
272 2 0.0640449 1.48412 13.6509 11.7786 H
192 2 0.0975515 -4.87002 13.0127 11.0946 H
93 3 -0.664917 0.140813 9.23804 11.529 O
72 1 -0.133668 0.603778 14.2194 11.5471 C
95 3 -0.711189 -2.61358 9.79713 11.642 O
119 3 -0.698471 -2.55864 11.4334 9.54288 O
147 2 -0.00599344 -0.795666 11.5758 12.2687 H
247 2 0.048598 2.65118 10.1949 12.4059 H
157 2 0.0452347 0.0217735 11.4441 8.48692 H
190 2 0.0214499 -1.36149 10.5121 14.7643 H
188 2 0.0692793 -0.215174 9.12348 14.6076 H
189 2 0.0867851 -1.99739 8.79828 14.4666 H
240 1 -0.112535 0.446691 14.4282 15.1359 C
204 2 0.0719492 1.65823 9.92477 9.36374 H
206 2 0.0160217 3.03118 8.71549 9.35183 H
268 2 0.0420077 -0.0712126 13.5095 14.8236 H
213 2 0.032433 0.100236 14.6644 12.3942 H
241 1 -0.0941176 2.11833 11.0379 12.7942 C
185 2 0.108329 -1.8371 8.05038 9.62913 H
248 2 0.0486764 1.82111 11.7377 12.0158 H
266 2 0.0428373 -3.37304 13.2381 12.0195 H
249 2 0.0565907 1.29706 10.7615 13.4395 H
273 2 0.0203193 -0.0459768 13.715 10.8773 H
191 2 0.0383719 -4.63811 12.1986 12.7483 H
244 3 -0.620139 2.62876 12.3093 15.3584 O
269 2 0.055372 -0.0418403 15.0078 15.915 H
1 4 0.784247 13.5777 1.00378 3.73262 Si
82 3 -0.718257 13.4726 2.17229 2.5719 O
3 1 -0.096216 12.6568 1.4955 5.44763 C
59 1 -0.108301 12.2928 4.8665 5.40471 C
164 2 0.0425721 5.1645 5.87105 5.2521 H
7 2 0.0843907 13.2715 2.19147 5.99359 H
228 2 0.0852504 11.7424 0.900191 8.021 H
9 2 0.0600911 11.6959 1.83202 5.10172 H
166 2 0.0133957 8.86499 6.71795 6.83082 H
202 2 0.0402105 5.31031 6.47545 7.47604 H
180 2 0.040806 11.4406 5.51611 5.21018 H
43 4 1.1122 8.46389 2.6418 3.56166 Si
47 4 0.675845 10.002 4.71606 2.22797 Si
48 4 0.668564 6.18964 6.63687 3.98594 Si
109 3 -0.624639 7.60175 3.52064 7.68564 O
263 2 0.0479612 12.4134 4.47435 6.39268 H
123 3 -0.74441 7.93644 2.23682 5.03831 O
128 3 -0.701435 9.66843 3.72017 3.47529 O
129 3 -0.734212 5.61879 6.16685 2.53968 O
130 3 -0.688255 8.99803 4.88933 0.998306 O
186 2 0.011906 10.9992 6.81224 7.17913 H
161 2 0.0618525 11.5771 4.25897 1.70368 H
162 2 0.00531428 10.2305 6.24821 2.98701 H
163 2 0.272429 7.94291 4.35228 7.26077 H
179 2 0.0754356 12.5327 4.16348 4.61297 H
131 3 -0.63735 7.76875 6.77827 4.41503 O
8 2 0.0645828 12.6963 0.471774 5.77357 H
122 3 -0.756405 8.46354 1.44209 2.44264 O
44 4 0.726076 8.59369 1.81524 10.4964 Si
12 4 1.29619 14.3055 2.51615 9.53153 Si
46 4 1.07223 11.632 2.51362 11.0084 Si
254 3 -0.801119 14.7626 1.00283 9.62255 O
51 4 1.08696 7.28954 7.48998 14.7347 Si
258 2 0.0740344 7.81876 3.61389 15.0324 H
236 2 0.0771685 10.9416 4.29019 16.3632 H
73 1 -0.115833 11.1558 4.54056 11.8461 C
124 3 -0.688848 7.78588 3.15745 10.7702 O
125 3 -0.770655 12.64 2.5311 9.72338 O
126 3 -0.728204 10.1653 1.89525 10.6733 O
127 3 -0.771443 12.4742 1.70728 12.1624 O
132 3 -0.737597 6.84698 6.82709 13.2961 O
133 3 -0.736494 8.54931 6.75895 15.5295 O
182 2 0.0889636 13.946 3.95536 12.3535 H
68 1 -0.0885617 5.49681 6.19448 8.50596 C
257 1 -0.0904495 8.29155 3.7461 15.9925 C
259 2 0.0334357 9.05864 3.01425 16.1919 H
214 2 0.0282348 12.1278 5.01642 11.862 H
215 2 0.0413544 10.7784 4.34191 12.8359 H
216 2 0.0695204 10.4161 4.96802 11.1893 H
233 3 -0.716575 11.2617 7.27466 16.0495 O
231 4 0.67304 12.1718 6.26717 15.2376 Si
232 1 -0.115546 11.7144 4.2656 15.619 C
260 2 0.148848 8.53134 4.76186 16.2514 H
234 2 0.0140238 11.7748 6.51772 13.5827 H
235 2 0.0236812 11.4223 3.85423 14.661 H
159 2 0.0370045 8.52419 1.467 8.81683 H
181 2 0.0583855 13.9351 4.53589 14.0812 H
237 2 0.0580306 12.6689 3.92207 15.9768 H
60 1 -0.0924873 14.4494 3.98251 13.3064 C
203 2 0.0691483 6.41417 6.54905 8.92937 H
134 3 -0.821185 6.04208 7.81724 15.6892 O
49 4 0.972894 9.72552 7.1065 16.6515 Si
264 2 0.0368767 14.8674 3.04097 13.6012 H
40 4 0.64304 3.13857 10.3425 7.40584 Si
52 4 0.643799 3.32173 10.925 2.69171 Si
53 4 0.67866 7.68285 10.2113 6.95354 Si
4 1 -0.140356 6.03025 12.9383 0.639678 C
50 4 0.564542 8.32969 7.77854 5.59806 Si
71 1 -0.0966597 2.4885 13.763 4.98371 C
74 1 -0.119174 8.13123 7.92161 1.01885 C
76 1 -0.112323 4.86263 9.62987 2.36554 C
77 1 -0.0829442 8.0079 11.6265 5.4739 C
210 2 0.0344371 3.38493 13.7976 5.62018 H
135 3 -0.674698 3.50541 12.3611 1.89525 O
136 3 -0.658032 3.22322 11.0014 4.3183 O
137 3 -0.645246 7.22472 8.7893 6.29798 O
10 2 0.0496155 6.99982 13.1856 1.02391 H
139 3 -0.647726 4.53771 11.1502 7.34425 O
274 2 0.02127 8.91632 8.6803 0.968364 H
165 2 -0.00952181 9.69875 8.63264 4.96994 H
208 2 0.0976075 4.14308 9.09662 5.37005 H
54 4 0.833956 5.13451 12.4605 8.29064 Si
5 3 -0.66204 5.64727 13.563 3.33373 O
2 4 0.697117 4.86532 13.2479 1.97909 Si
6 2 0.336242 1.50137 12.8741 1.62534 H
62 1 -0.120503 10.9599 7.84058 7.60884 C
138 3 -0.715493 8.8475 10.1832 8.14566 O
265 2 0.0782638 10.0914 8.4276 7.33478 H
226 2 0.0800121 7.25483 11.4661 4.69607 H
223 2 0.0573133 5.66909 9.97946 2.98154 H
224 2 0.0264425 5.03481 9.7319 1.2837 H
225 2 0.101056 7.94048 12.576 5.97928 H
218 2 0.043072 7.23028 8.17198 0.49917 H
227 2 0.0484375 9.00574 11.366 5.14916 H
140 3 -0.750671 6.6044 13.154 7.85745 O
222 2 0.0433899 4.46298 8.66987 2.64224 H
217 2 0.085937 7.97178 7.44462 1.97667 H
212 2 0.0928685 2.61162 14.1079 3.96486 H
230 2 0.0127565 2.89646 14.0049 7.92533 H
42 4 0.825509 2.05856 11.848 5.04429 Si
271 2 0.0268327 5.94227 11.864 0.475294 H
211 2 0.0680627 1.60989 14.1566 5.42308 H
22 4 1.20032 9.12278 10.986 9.53011 Si
45 4 1.10862 5.23394 14.2335 12.5678 Si
55 4 1.00292 6.61365 12.2232 10.825 Si
75 1 -0.115055 8.03641 9.39045 14.1088 C
152 2 0.0755891 6.09007 9.11244 10.057 H
270 2 0.0184886 6.75765 14.5672 16.5237 H
253 4 1.07048 7.80399 13.7529 8.80905 Si
141 3 -0.740819 7.85126 11.1317 10.6707 O
142 3 -0.712433 5.28249 11.8522 9.9586 O
143 3 -0.744616 6.54515 13.4079 11.98 O
78 1 -0.0888908 3.81173 14.207 8.45868 C
220 2 0.0565633 9.05094 9.23616 13.7735 H
219 2 0.0713668 7.39075 9.65666 13.2808 H
221 2 0.0216328 7.91766 9.97917 15.004 H
169 2 0.0715709 10.3333 7.85926 11.401 H
239 4 0.643022 3.50217 12.1888 13.9282 Si
229 2 0.10067 3.72928 14.3412 9.52041 H
242 1 -0.117094 5.02409 10.8677 14.2208 C
243 3 -0.751715 3.92992 13.4619 13.0721 O
90 3 -0.771558 9.23053 13.0194 9.04738 O
94 3 -0.731254 10.4263 10.3126 10.2788 O
250 2 0.0418679 5.61264 11.1827 15.0713 H
251 2 0.0400884 5.57598 10.9273 13.3151 H
252 2 0.0498537 4.47524 9.96347 14.4347 H
238 4 0.511791 2.13603 13.6859 16.0864 Si
187 2 0.0635548 11.2731 7.94612 8.68111 H
168 2 0.110733 11.0403 8.30005 11.1574 H
256 2 0.0789661 6.26033 8.9971 10.4985 H
205 2 0.0721771 3.26481 10.4084 9.98849 H
ITEM: TIMESTEP
200
ITEM: NUMBER OF ATOMS
274
ITEM: BOX BOUNDS xy xz yz pp pp pp
-7.3914999999999997e+00 1.6478000000000002e+01 -7.3914999999999997e+00
0.0000000000000000e+00 1.5704728000000001e+01 9.9190000000000000e-01
0.0000000000000000e+00 1.6771000000000001e+01 1.0720320000000001e+00
ITEM: ATOMS id type q x y z element
26 4 1.18261 7.24356 0.300124 2.36387 Si
13 4 1.06721 2.2169 2.16267 6.13524 Si
15 4 0.941003 -0.988774 3.17291 1.78238 Si
176 2 0.0362481 1.80385 6.25368 7.82322 H
17 4 0.92798 0.329187 4.42821 6.7762 Si
18 4 1.02043 -1.63483 6.25138 5.25755 Si
27 4 1.07344 4.29426 2.99094 4.32227 Si
28 4 1.0125 5.74109 2.43779 0.598875 Si
30 4 0.77596 6.72386 2.70765 6.03547 Si
33 4 1.26011 4.72306 4.98603 1.87885 Si
34 4 0.676915 0.0987173 5.64063 2.98708 Si
56 1 -0.0918231 0.324889 1.93696 0.48024 C
151 2 0.0664187 0.199099 6.43407 1.45813 H
106 3 -0.701706 -1.28106 6.13561 3.64493 O
65 1 -0.039135 5.98616 0.818978 6.58311 C
67 1 -0.0980843 1.88154 6.36226 3.7191 C
200 2 0.0775703 2.62645 6.08481 2.94513 H
80 3 -0.77471 1.65587 0.783508 6.82978 O
177 2 0.0784805 2.30887 4.58977 8.2379 H
83 3 -0.734568 -1.70388 4.06975 0.608724 O
85 3 -0.770338 1.42709 3.57607 5.88052 O
86 3 -0.761987 -0.358689 5.70801 6.13007 O
96 3 -0.766697 3.59063 1.86626 5.31119 O
97 3 -0.709733 5.90742 1.03241 1.5438 O
255 2 0.309372 0.56778 1.56138 3.81819 H
100 3 -0.754974 5.65222 3.48688 5.02721 O
103 3 -0.791822 3.42161 3.95963 3.49466 O
104 3 -0.779385 5.68554 3.76218 1.57386 O
105 3 -0.660554 0.0179785 4.0083 2.83704 O
107 3 -0.841496 3.62079 5.56041 0.858983 O
148 2 0.113983 4.60885 1.86568 2.94966 H
170 2 0.0822676 1.04817 2.62174 0.0832343 H
193 2 0.118288 5.12339 1.03013 7.19549 H
172 2 0.0686063 0.645846 1.27274 1.25914 H
164 2 0.0329094 5.0899 5.49064 5.24538 H
108 3 -0.721324 4.4958 3.13177 8.20382 O
84 3 -0.720342 -1.00341 3.34078 7.42498 O
58 1 -0.10879 1.50142 5.30469 8.23299 C
198 2 0.0643745 2.04815 5.87117 4.68049 H
57 1 -0.117343 -2.53701 7.12912 1.06586 C
150 2 0.304465 2.4967 4.25458 4.05576 H
175 2 0.0817238 -2.47125 6.63398 2.05448 H
79 3 -0.692062 0.208097 0.664113 3.85652 O
261 3 -0.679398 -1.66206 6.55534 15.3105 O
14 4 1.16436 1.1947 3.372 10.8586 Si
19 4 0.791421 0.542374 5.41984 12.8873 Si
184 2 0.0787151 -0.699499 7.47307 8.80033 H
29 4 1.3173 3.6561 2.27776 9.39595 Si
31 4 0.670709 4.74791 3.42046 15.0735 Si
32 4 1.05071 6.10361 3.32623 10.921 Si
145 2 0.00919593 1.56334 7.39441 10.442 H
201 2 0.0402777 4.62695 6.17901 8.81224 H
38 4 1.03216 1.99063 6.58971 15.2384 Si
178 2 0.0555593 0.938329 5.3297 9.13904 H
35 4 1.23834 4.67336 7.41324 16.2622 Si
98 3 -0.774686 3.52138 0.74605 8.86843 O
81 3 -0.818302 -0.314398 3.3818 10.3774 O
101 3 -0.660379 5.32626 3.12056 16.6041 O
87 3 -0.755397 1.43918 4.71219 11.7426 O
88 3 -0.696892 -0.16856 6.79946 12.4447 O
99 3 -0.858594 2.20769 2.84979 9.76285 O
66 1 -0.109762 4.25716 1.64296 14.1801 C
102 3 -0.736508 4.91784 2.28441 10.806 O
171 2 0.0391815 0.520898 2.60234 16.5881 H
110 3 -0.725879 5.76083 4.27775 14.1247 O
16 4 0.914144 -0.689065 6.61315 16.6186 Si
112 3 -0.725687 1.52415 5.03017 14.8069 O
36 4 0.426079 5.84188 4.02248 8.43585 Si
197 2 0.0293299 3.35574 1.37665 14.6676 H
144 2 0.0109093 1.14958 2.02617 11.9465 H
196 2 0.080709 4.17228 1.8764 13.142 H
149 2 0.242957 0.602002 4.78057 15.4921 H
111 3 -0.756066 5.71621 4.82112 11.5245 O
153 2 0.0291411 4.01423 6.03665 13.0976 H
61 1 -0.0992113 -1.21292 7.20966 9.69467 C
183 2 0.0448689 -1.38237 6.16566 9.83638 H
20 4 0.683287 0.0313721 7.75299 11.2085 Si
267 2 0.0380975 5.07523 0.97183 14.4532 H
113 3 -0.843434 3.52567 7.01948 15.2476 O
37 4 1.09733 5.65077 5.44666 13.0371 Si
114 3 -0.748045 0.95432 7.13768 16.3496 O
154 2 0.0334425 1.40048 7.65329 13.9315 H
21 4 1.00215 -2.84391 8.86199 6.53635 Si
23 4 1.08796 -2.96589 11.8861 6.50404 Si
209 2 0.0513213 2.5944 8.18913 6.27303 H
39 4 1.04499 -0.826366 12.5812 4.41465 Si
167 2 0.0200347 2.16861 10.184 2.02439 H
118 3 -0.667765 -1.93223 9.38097 7.84154 O
42 4 0.818551 2.01948 11.9602 5.03691 Si
89 3 -0.743771 -2.15064 7.78412 5.5396 O
91 3 -0.748522 -3.2669 10.3754 5.96927 O
92 3 -0.776429 -4.11827 12.9504 6.95859 O
70 1 -0.0986586 3.53161 8.73227 6.34193 C
115 3 -0.796028 -0.697346 14.02 3.74669 O
116 3 -0.759986 -1.61749 12.6139 5.91252 O
6 2 0.307297 1.30617 12.2056 1.63294 H
121 3 -0.666661 1.77512 11.1807 7.12972 O
120 3 -0.697408 0.543789 11.6823 4.4067 O
156 2 0.227012 1.8864 12.021 7.68084 H
174 2 0.0407977 -1.896 7.97603 0.927246 H
11 4 1.23508 -4.78216 14.1544 7.80978 Si
155 2 0.0192808 -1.82571 11.5055 3.41445 H
146 2 0.307384 -6.69701 14.5351 4.64984 H
160 2 0.0793532 -2.93541 8.57828 3.23681 H
245 2 0.0324148 -3.62768 8.30452 3.03193 H
117 3 -0.632569 0.894336 13.1338 1.30066 O
262 2 -0.0162934 3.07987 7.90318 0.120641 H
173 2 0.0557516 -3.52411 7.25585 0.660539 H
199 2 0.044599 1.7009 7.41962 3.83453 H
194 2 0.0563771 -0.55908 14.7843 7.10755 H
195 2 0.156276 -1.58811 14.6819 5.62847 H
24 4 0.655 -1.16348 9.85261 12.3699 Si
25 4 1.00212 -3.555 10.7239 10.815 Si
69 1 -0.121625 3.11361 9.61347 9.28141 C
63 1 -0.109792 -1.0221 9.66389 14.3814 C
64 1 -0.101902 -3.94121 12.5093 12.1594 C
272 2 0.0692238 1.3288 14.2618 12.305 H
192 2 0.0915525 -4.71701 13.0651 11.6593 H
93 3 -0.66651 0.139029 9.31929 11.5418 O
72 1 -0.125804 0.549777 14.4158 11.574 C
95 3 -0.715711 -2.64339 9.66528 11.7042 O
119 3 -0.678172 -2.62883 11.5071 9.64409 O
147 2 -0.00967544 -0.888614 11.5698 12.4832 H
247 2 0.0338266 3.07387 10.8591 11.8475 H
157 2 0.0540946 0.0283712 11.2479 8.62196 H
190 2 0.0168247 -0.94936 10.6943 14.7049 H
188 2 0.0729321 -0.125627 9.08732 14.5585 H
189 2 0.0748593 -1.90156 9.15509 14.7129 H
240 1 -0.111628 0.566125 14.6515 14.9086 C
204 2 0.0607201 2.10916 9.66671 9.67233 H
206 2 0.0174863 3.45014 8.62768 9.10478 H
268 2 0.0357034 0.224487 13.8758 14.1362 H
213 2 0.0541686 -0.417855 14.7377 11.9018 H
241 1 -0.106244 2.29921 11.1148 12.5495 C
41 4 0.652411 -1.70372 10.8918 8.50204 Si
248 2 0.0500725 1.48078 11.6753 12.1497 H
266 2 0.047433 -2.97826 13.0266 12.1998 H
249 2 0.0558456 2.01813 10.2907 13.2025 H
273 2 0.0174199 0.527729 13.6459 10.8049 H
191 2 0.0303945 -4.26561 12.0818 13.0941 H
238 4 0.501793 2.08923 13.812 16.1213 Si
269 2 0.0465406 -0.264738 14.97 15.6244 H
244 3 -0.595334 2.75771 12.4073 15.4005 O
185 2 0.0838735 -2.09772 7.81225 9.89645 H
1 4 0.747103 13.5479 1.01642 3.78439 Si
82 3 -0.64065 13.3171 2.19 2.5182 O
3 1 -0.0916366 13.0744 1.58505 5.52595 C
59 1 -0.113032 12.1489 4.85658 5.41091 C
158 2 0.242452 13.775 4.08267 7.5147 H
7 2 0.0931014 14.0003 2.07978 5.74541 H