ITEM: TIMESTEP
0
ITEM: NUMBER OF ATOMS
274
ITEM: BOX BOUNDS xy xz yz pp pp pp
-7.3914999999999997e+00 1.6478000000000002e+01 -7.3914999999999997e+00
0.0000000000000000e+00 1.5100700000000000e+01 9.9190000000000000e-01
0.0000000000000000e+00 1.6771000000000001e+01 1.0307999999999999e+00
ITEM: ATOMS id type q x y z
152 2 -0.0171804 6.92348 2.07705 8.13607
13 4 1.54623 0.981615 1.91377 5.48796
15 4 1.41635 -0.422444 4.22608 1.62045
198 2 0.191837 1.47859 6.54873 5.22746
17 4 1.34403 -0.364765 4.30966 7.14866
18 4 1.29108 -2.06645 6.64675 5.40586
27 4 1.28611 3.60723 2.83176 3.80777
67 1 -0.662573 1.84943 6.61948 4.18336
30 4 1.28317 6.44414 2.4051 5.33656
33 4 1.44377 4.74686 5.02388 2.26147
34 4 1.04781 0.232764 6.90422 3.23503
56 1 -0.660136 1.03965 3.33811 0.641629
58 1 -0.663353 0.907156 5.74056 7.42892
28 4 1.22378 6.00785 2.36573 0.523487
65 1 -0.715575 6.56865 0.887592 6.57342
98 3 -0.847093 3.6432 1.3491 7.78401
174 2 0.158115 -2.67609 6.69965 1.30488
80 3 -0.846034 1.29725 0.7231 6.51938
195 2 0.223412 5.43392 0.963466 6.95344
83 3 -0.794268 -1.34067 4.47655 0.347377
85 3 -0.825885 0.329096 3.23713 6.2848
86 3 -0.769823 -1.66181 5.36062 6.28111
96 3 -0.83084 2.33842 2.40273 4.61932
97 3 -0.800112 6.39917 1.05446 1.41118
82 3 -0.817093 -0.911899 3.21276 2.66032
100 3 -0.797503 5.02822 2.57508 4.66301
103 3 -0.831091 3.58811 4.40466 3.2984
200 2 0.289294 2.50536 5.7294 3.789
105 3 -0.797375 0.0157691 5.55722 2.36095
107 3 -0.836168 4.06319 6.26138 1.44507
148 2 -0.00541316 3.77839 1.86036 2.52039
208 2 0.153918 4.3111 7.42184 7.126
171 2 0.148889 1.23463 2.27143 0.912527
172 2 0.221525 1.86395 4.04712 0.916781
176 2 0.177785 0.406147 6.70415 7.239
177 2 0.203082 1.80554 5.4786 6.7749
193 2 0.141953 7.39822 0.628006 7.37506
104 3 -0.795117 5.35972 3.82427 1.43427
108 3 -0.722788 4.85109 3.95257 8.22626
106 3 -0.787113 -0.930886 7.0572 4.30036
79 3 -0.833273 -0.238765 1.39625 4.4918
36 4 1.00369 6.47302 3.71009 7.92091
267 2 0.161386 4.02335 1.53139 12.9382
14 4 1.25409 1.67595 2.55654 10.7128
19 4 1.26958 1.21557 4.94821 12.8407
20 4 0.992441 -0.227092 7.44014 11.062
29 4 1.38046 3.87675 2.55413 8.87554
31 4 1.06755 4.52207 3.22407 15.0024
32 4 1.18994 6.04077 2.63447 11.3049
35 4 1.2374 4.54787 7.63795 16.7059
37 4 1.2169 5.39236 5.15607 12.6644
38 4 1.20526 2.1837 7.03196 15.0162
183 2 0.184837 -0.479705 6.39247 8.78827
61 1 -0.635397 -1.19552 6.72054 9.65439
66 1 -0.660026 4.29623 1.54682 14.0604
16 4 1.26863 -0.65464 6.88486 16.0614
261 3 -0.780732 -1.82312 6.39298 15.0155
87 3 -0.805524 1.77742 3.6842 11.9587
88 3 -0.771656 0.371989 6.09126 11.8252
99 3 -0.827477 2.44575 3.01945 9.3791
101 3 -0.763409 5.70027 3.11832 16.024
102 3 -0.833394 4.91595 1.99638 10.3703
178 2 0.188565 1.03508 5.46165 8.6099
110 3 -0.799623 4.83589 4.14093 13.7634
111 3 -0.793447 5.95793 4.27034 11.408
112 3 -0.823872 2.09671 5.69317 14.0221
113 3 -0.820783 3.23375 6.85853 16.26
184 2 0.176568 -2.04641 7.47952 9.27369
144 2 0.010405 2.60102 1.2165 11.3696
182 2 0.205947 -0.0146386 4.4517 15.0371
149 2 0.0163259 3.11403 3.89206 15.84
150 2 0.0135187 5.85724 1.94592 12.8598
153 2 -0.0125478 4.05642 6.01873 12.0094
81 3 -0.782301 0.171733 1.95618 10.4688
60 1 -0.659931 -0.0870474 4.17929 13.941
114 3 -0.825303 0.829275 7.53066 15.648
185 2 0.199347 -1.65747 5.79816 10.2424
170 2 0.188596 1.69139 4.49584 16.3014
84 3 -0.812576 -0.792922 3.74052 8.55196
181 2 0.16584 0.0251145 3.08423 13.8776
196 2 0.107761 3.31354 1.28953 14.712
264 2 0.189329 -1.06544 4.54411 13.4861
197 2 0.170118 5.10079 0.878361 14.2769
21 4 1.26446 -2.56125 9.47692 7.21112
23 4 1.25745 -3.59432 11.9369 5.71358
204 2 0.246239 0.544432 9.67509 8.19651
39 4 1.28938 -0.837863 12.0647 4.13031
199 2 0.112149 2.30266 7.7215 3.97969
238 4 1.00973 0.56436 11.277 0.609816
194 2 0.220689 -0.730017 14.1836 5.67888
89 3 -0.761519 -2.29652 8.09694 6.28378
91 3 -0.793068 -3.57992 10.4651 6.65608
92 3 -0.865588 -3.96502 13.1082 6.55593
11 4 1.56153 -4.8392 14.2089 7.38709
115 3 -0.801024 -0.628582 13.5331 3.56677
116 3 -0.856663 -2.1835 11.9793 4.85461
117 3 -0.840024 0.47559 12.6738 1.35365
118 3 -0.774764 -1.10095 10.4663 7.93053
120 3 -0.822134 0.475324 11.7769 4.98268
173 2 0.164319 -1.75458 8.20646 0.534529
146 2 -0.0287047 -4.85214 11.83 4.61035
151 2 -0.00979753 0.307482 8.42451 2.31127
155 2 -0.00192655 -0.971506 10.8918 2.84653
156 2 0.0262007 -1.38386 13.2105 7.41522
26 4 1.43796 0.161547 14.0578 2.15828
57 1 -0.667311 -2.49144 7.28572 0.284047
207 2 0.176131 3.10006 7.67769 5.61517
268 2 0.0267075 0.970808 10.1585 2.03405
240 1 -0.646654 -0.653045 9.74527 1.28049
269 2 0.143527 -1.50356 9.52651 2.04712
40 4 1.01236 3.1849 9.65198 7.44213
246 2 0.157617 -0.44387 8.87426 0.556871
70 1 -0.666113 3.81783 8.15007 6.33698
206 2 0.140737 1.75884 8.00137 8.1835
262 2 -0.0119041 3.1686 8.23704 0.228314
24 4 1.04106 -2.00066 9.56365 12.6538
25 4 1.24266 -3.23972 11.8696 10.7513
247 2 0.152559 2.19792 10.0319 14.1647
63 1 -0.654312 -1.11692 9.97659 14.2647
64 1 -0.669723 -3.78512 13.5498 11.4469
69 1 -0.642298 1.65076 9.18684 8.47634
241 1 -0.68206 3.28689 10.2386 13.9086
93 3 -0.811097 -1.17509 8.49322 11.7762
175 2 0.18232 -2.39258 8.68283 16.5852
95 3 -0.779088 -2.62648 10.8824 12.1161
119 3 -0.812542 -2.04904 12.2191 9.76546
147 2 0.160518 -0.0594582 9.80073 13.8333
190 2 0.0388964 -2.83986 9.00354 14.0489
272 2 0.154143 0.199792 14.2531 9.2472
244 3 -0.788642 2.649 11.9431 16.2638
188 2 0.172235 -1.3189 11.0906 14.3101
189 2 0.17496 -1.2707 9.38642 15.3349
90 3 -0.826351 -5.46946 13.2892 8.60126
191 2 0.209005 -4.93208 13.5366 11.5034
94 3 -0.758683 -4.7946 11.2331 10.0542
187 2 0.187356 -2.8085 9.14263 9.50759
154 2 -0.0212165 2.7052 8.33097 14.0011
266 2 0.154996 -3.31913 13.2783 12.5393
62 1 -0.652667 -3.50537 8.73567 8.71022
41 4 0.957134 -1.10224 11.972 8.48406
192 2 0.225667 -3.22252 14.5269 11.056
157 2 0.00116253 0.485943 12.5415 8.69106
145 2 0.00349352 0.710193 7.90879 9.69939
205 2 0.141587 1.9474 9.41876 9.54206
248 2 0.117695 4.03818 9.41439 14.2392
245 2 0.0410154 -0.13083 11.8277 16.7056
1 4 1.33806 14.108 1.922 3.53065
6 2 0.0491443 11.5056 1.32902 0.576539
3 1 -0.679834 12.4603 2.33555 4.61478
213 2 0.124909 9.02999 0.759457 7.91592
5 3 -0.788747 13.5788 0.947877 2.31331
59 1 -0.670201 11.7027 6.36842 4.50955
7 2 0.140891 11.8955 1.35678 4.80586
8 2 0.150078 12.056 3.05616 3.78079
9 2 0.173179 12.8557 2.9211 5.49719
263 2 0.13147 11.4159 5.44997 5.17183
109 3 -0.748142 6.69319 3.92079 6.39343
43 4 1.19356 9.06489 2.18566 3.37442
47 4 0.975924 8.93552 5.00484 2.47783
48 4 0.943084 6.05516 6.95623 4.24769
256 2 -0.0185867 12.7287 1.01919 6.0896
122 3 -0.789631 9.00484 0.758048 2.64468
123 3 -0.821172 7.83548 2.33645 4.44967
128 3 -0.831776 9.23142 3.51366 2.38665
129 3 -0.79448 6.13994 5.83852 3.18413
130 3 -0.806253 8.74809 5.63417 1.0169
158 2 -0.0098585 10.5438 2.16537 4.23242
161 2 -0.030303 10.2081 5.71658 3.43359
162 2 0.127182 7.66287 5.35146 3.56577
50 4 0.936067 8.24479 7.39438 6.25728
166 2 0.0146806 7.7421 6.18552 7.36551
163 2 0.0172041 4.79268 6.71882 5.39436
201 2 0.126935 8.75189 5.01283 8.2871
179 2 0.157747 11.9619 6.09992 3.4563
236 2 0.209417 10.6722 3.84025 0.267569
2 4 0.991875 12.7593 0.22757 1.20072
131 3 -0.827617 7.4572 7.1197 4.96078
165 2 -0.0284275 9.87533 7.08502 6.04463
180 2 0.156315 11.0457 7.29217 4.61673
44 4 0.964921 8.98927 1.95047 9.8597
49 4 1.26091 9.62482 7.33501 16.3325
46 4 1.28463 11.7285 2.03597 11.5603
237 2 0.17961 12.559 3.4923 16.022
51 4 1.26329 6.94306 7.41348 14.4981
254 3 -0.810345 14.095 1.10906 8.42716
271 2 0.142227 12.9081 1.62124 15.381
73 1 -0.663583 11.3702 3.50621 12.6995
159 2 -0.0269544 9.14404 3.41137 8.88146
125 3 -0.743861 12.9476 2.55526 10.4576
126 3 -0.793415 10.3348 1.82504 10.7349
270 2 0.180525 14.3757 2.7463 15.7063
132 3 -0.764034 6.46579 6.20069 13.331
133 3 -0.792898 8.34209 7.23694 15.37
68 1 -0.667036 7.78874 4.87887 8.90768
12 4 1.49688 14.3762 2.30837 9.43772
134 3 -0.817057 5.61002 7.58058 15.5451
202 2 0.216358 7.90617 4.50212 9.94288
214 2 0.179424 10.3115 3.84079 12.457
215 2 0.149189 12.3522 4.12405 12.2879
216 2 0.160803 11.5405 3.12448 13.7346
4 1 -0.657262 13.7834 1.86713 16.0592
231 4 1.03119 12.0804 5.86653 14.9412
232 1 -0.668399 11.778 4.34511 15.9805
233 3 -0.760549 11.1295 7.00975 15.3083
234 2 0.00662875 11.6993 5.34074 13.3464
235 2 0.154756 10.7735 3.94372 15.5193
258 2 0.18503 8.0398 3.7025 15.2496
259 2 0.179203 9.30866 3.24639 16.7412
257 1 -0.672003 8.47773 3.96031 16.3207
203 2 0.170334 7.02007 5.76006 8.95402
124 3 -0.783939 7.55734 2.24233 10.7013
127 3 -0.765143 12.3054 0.827983 12.5977
260 2 0.246243 8.58648 4.99993 16.6357
225 2 0.170462 8.27552 12.1981 6.05367
52 4 1.0602 3.86497 11.602 2.46068
53 4 1.01014 7.56873 10.3427 7.43995
212 2 0.180702 1.41509 14.122 6.00258
274 2 0.160728 9.21075 8.38346 0.949193
71 1 -0.675901 2.44575 13.6162 5.87538
211 2 0.210126 3.01733 13.4588 6.82084
76 1 -0.661966 5.09408 10.2458 2.79427
77 1 -0.647205 7.44836 11.3008 5.85471
250 2 0.134077 4.53423 9.36361 0.787628
135 3 -0.765696 4.57987 12.8868 1.85591
136 3 -0.788659 2.93866 11.5265 3.74777
137 3 -0.79025 8.00023 8.74622 6.92081
140 3 -0.792659 4.86513 13.3243 8.22755
226 2 0.109843 6.27055 11.6692 6.06343
164 2 -0.00105004 5.73582 8.5298 3.53677
209 2 0.128463 4.66729 8.70109 5.79709
167 2 0.0342059 3.29766 10.58 1.10301
168 2 0.099143 5.86542 10.2517 8.01363
227 2 0.164952 7.71994 10.7088 4.86229
42 4 1.27883 2.06621 11.8564 5.22041
210 2 0.165144 3.02257 14.0128 4.94887
255 2 0.00786802 7.12208 13.2129 6.64229
253 4 0.975537 5.99968 14.1971 7.43591
224 2 0.159565 6.07618 10.8832 2.5963
222 2 0.12247 4.90236 9.24329 2.09062
223 2 0.166455 4.87709 10.0548 3.91886
121 3 -0.75943 2.67025 10.8597 6.41365
217 2 0.166147 7.60941 8.52361 0.0219935
22 4 1.50617 9.41401 12.1061 9.48865
54 4 1.20448 4.71528 12.1187 9.38109
55 4 1.24387 7.1155 12.1487 11.4619
75 1 -0.682356 7.15898 9.09244 13.5998
251 2 0.161722 6.07487 11.6589 16.2168
265 2 0.243971 10.9722 9.27466 8.73499
186 2 0.162609 11.9305 7.58243 8.61639
141 3 -0.789019 8.63367 12.6379 10.8439
142 3 -0.821288 5.92023 12.1201 10.4109
143 3 -0.816755 6.70703 13.0341 12.7267
169 2 -0.00915825 7.22699 10.5904 12.1336
78 1 -0.658906 3.421 12.5726 10.6521
220 2 0.165918 8.15152 9.48472 14.0248
221 2 0.150442 6.29499 9.70648 13.8772
138 3 -0.815958 8.44889 11.1512 8.47311
239 4 1.05183 3.89813 11.5766 15.1496
230 2 0.1878 3.81533 12.121 11.6503
242 1 -0.649009 5.31442 10.8141 16.4352
243 3 -0.81797 4.69217 12.7584 14.3499
249 2 0.155575 3.52078 10.6052 12.8632
139 3 -0.742008 4.4639 10.3164 8.59616
219 2 0.156119 7.12887 8.74753 12.5279
229 2 0.236687 3.32878 13.6916 10.7372
252 2 0.126952 5.42197 9.9433 15.5597
10 2 0.0517445 7.36463 14.6881 16.376
45 4 1.25575 5.61698 13.7394 13.5629
273 2 0.185556 2.1191 13.6538 9.53906
218 2 0.156188 10.2186 9.53321 15.7584
72 1 -0.662871 1.30997 14.3303 8.93061
74 1 -0.639601 9.6731 9.18153 16.7311
228 2 0.135028 2.53783 11.9421 10.2552
160 2 0.0132679 6.5811 14.4818 14.7527
ITEM: TIMESTEP
100
ITEM: NUMBER OF ATOMS
274
ITEM: BOX BOUNDS xy xz yz pp pp pp
-7.3914999999999997e+00 1.6478000000000002e+01 -7.3914999999999997e+00
0.0000000000000000e+00 1.5410422000000001e+01 9.9190000000000000e-01
0.0000000000000000e+00 1.6771000000000001e+01 1.3405220000000000e+00
ITEM: ATOMS id type q x y z
106 3 -0.745332 -1.02899 6.9594 4.31548
13 4 1.51105 0.989867 1.92438 5.39687
15 4 1.29095 -0.235132 4.26991 1.64205
198 2 0.19136 1.59433 6.63509 5.20704
17 4 1.34674 -0.547419 4.35538 7.10849
18 4 1.22291 -2.1546 6.70618 5.56418
27 4 1.33277 3.76784 2.76595 3.91023
67 1 -0.662408 1.90216 6.80771 4.17053
30 4 1.37365 6.60832 2.44933 5.2455
33 4 1.46328 4.79146 5.01401 2.28795
34 4 0.962821 0.307982 7.01777 3.2389
56 1 -0.667427 1.14523 3.33472 0.660551
58 1 -0.65825 0.854786 5.61924 7.6386
28 4 1.36832 5.81421 2.44481 0.447024
65 1 -0.687867 6.50011 0.925809 6.67068
98 3 -0.854005 3.72644 1.3173 7.93456
174 2 0.171356 -3.15669 6.8096 1.11563
80 3 -0.844068 1.48824 0.857326 6.46588
195 2 0.254686 5.40891 1.04409 7.09613
83 3 -0.766127 -1.54445 4.68352 0.548564
85 3 -0.787643 0.288791 3.29639 6.19401
86 3 -0.756842 -1.75397 5.20195 6.3322
96 3 -0.819785 2.37723 2.38046 4.5923
97 3 -0.794822 6.42525 1.21767 1.25885
82 3 -0.781286 -0.892 3.38294 2.89556
100 3 -0.850303 5.12344 2.46836 4.62541
103 3 -0.78308 3.62334 4.29548 3.45996
200 2 0.279195 2.5277 5.90756 3.73961
105 3 -0.734503 0.45835 5.67137 2.12274
107 3 -0.816852 3.93798 6.08874 1.34984
148 2 -0.00858046 3.6439 1.84671 2.5527
36 4 1.03097 6.39381 3.66281 7.97144
171 2 0.135819 1.3567 2.28177 1.14322
172 2 0.236478 2.04709 4.03386 0.746467
176 2 0.161933 0.429125 6.62953 7.35454
177 2 0.212384 1.76525 5.22929 7.08141
193 2 0.137181 7.28643 0.635941 7.49477
104 3 -0.833981 5.3832 3.81428 1.32737
108 3 -0.753297 4.84346 3.9712 8.33508
267 2 0.154369 3.91098 1.78523 13.1713
14 4 1.23454 1.67873 2.5998 10.893
19 4 1.27174 1.13397 4.96901 13.0351
20 4 1.00807 -0.215502 7.41537 10.9946
29 4 1.38175 3.77567 2.62698 8.99242
31 4 1.06699 4.54269 3.33658 15.0961
32 4 1.21579 5.91182 2.53649 11.3131
35 4 1.25253 4.51928 7.69613 16.6844
37 4 1.24553 5.50589 5.17528 12.6704
38 4 1.24999 2.06132 7.03792 14.9794
183 2 0.193582 -0.689053 6.3515 8.84765
61 1 -0.638059 -1.37363 6.68862 9.71036
66 1 -0.653679 4.26996 1.62942 14.2293
16 4 1.25664 -0.814581 6.91013 16.2349
124 3 -0.813321 7.39485 2.0252 10.7873
87 3 -0.806643 1.68154 3.63592 12.2506
88 3 -0.749902 0.572659 6.31196 11.8798
99 3 -0.8199 2.44334 3.25624 9.63798
101 3 -0.82623 5.66832 3.13966 16.1969
102 3 -0.85171 4.79547 1.97383 10.3481
178 2 0.198854 0.93542 5.44447 8.81267
110 3 -0.803577 5.00218 4.25359 13.8758
111 3 -0.819541 6.00446 4.14178 11.5366
112 3 -0.846557 2.00169 5.72556 14.14
113 3 -0.820064 3.20788 6.9323 16.1633
184 2 0.180525 -2.2533 7.43708 9.35754
144 2 0.0108578 2.53622 1.10426 11.2412
182 2 0.189586 -0.392541 4.44626 14.8937
149 2 0.0224142 3.07111 3.97805 15.7408
150 2 0.0120159 5.67757 1.83017 12.847
153 2 -0.0143783 4.17944 5.98808 12.0255
81 3 -0.800735 0.186596 2.24806 10.3262
60 1 -0.654039 -0.354504 4.10793 13.7676
114 3 -0.803977 0.581581 7.41515 15.4386
185 2 0.171855 -1.78396 5.79855 10.4382
170 2 0.159309 1.52421 4.35585 16.3644
84 3 -0.784318 -1.12988 3.86709 8.54619
181 2 0.174084 -0.178504 3.007 13.5862
196 2 0.119197 3.39343 1.35321 14.927
152 2 0.0204333 6.5347 1.99634 8.41834
21 4 1.25654 -2.58877 9.51871 7.3464
23 4 1.2609 -3.59745 11.8904 5.69278
204 2 0.264171 0.436339 9.67883 8.12586
39 4 1.24124 -0.797167 12.0404 4.09597
199 2 0.118931 2.38782 7.84976 3.85212
238 4 0.972244 0.621436 11.2804 0.521759
194 2 0.187349 -0.816929 14.2909 5.73437
89 3 -0.772473 -2.28184 8.08584 6.60484
91 3 -0.791915 -3.61525 10.3949 6.44915
92 3 -0.824942 -3.864 13.1371 6.61833
11 4 1.54645 -4.78445 14.3367 7.4881
115 3 -0.840214 -0.815701 13.3865 3.28461
116 3 -0.818614 -2.23381 11.9389 4.9519
117 3 -0.78604 0.469155 12.8088 1.04303
118 3 -0.791086 -1.099 10.4766 7.94436
120 3 -0.829972 0.478164 11.8432 4.99622
173 2 0.150731 -1.82362 8.30511 0.559406
146 2 -0.0263426 -4.69952 11.836 4.47539
151 2 -0.0133031 0.489325 8.53887 2.37688
155 2 -0.00804523 -0.733865 10.7486 2.92381
156 2 0.0433519 -1.35164 13.0615 7.11111
26 4 1.434 0.0326765 14.1067 2.06154
57 1 -0.665911 -2.64654 7.36816 0.228408
207 2 0.17563 3.23335 7.7641 5.5781
268 2 0.0192448 0.808954 10.3697 2.14368
240 1 -0.650394 -0.597746 9.70571 1.26096
269 2 0.148413 -1.54958 9.61663 1.83349
40 4 0.999367 3.09931 9.71943 7.44653
246 2 0.150868 -0.394333 8.72976 0.66875
70 1 -0.645794 3.93125 8.28442 6.34636
206 2 0.124127 1.75687 8.10486 8.35818
262 2 -0.0122161 3.07371 8.33179 0.103148
208 2 0.13115 4.13034 7.64873 7.3552
121 3 -0.748496 2.56638 10.7035 6.23841
41 4 0.973136 -1.10139 11.993 8.38106
24 4 1.01386 -1.88945 9.65105 12.6103
25 4 1.31438 -3.24998 11.948 10.6978
247 2 0.153549 2.21191 10.0621 14.2149
63 1 -0.641599 -0.922156 9.99107 14.1851
64 1 -0.680204 -3.70557 13.6126 11.5989
69 1 -0.644316 1.59873 9.32801 8.46421
241 1 -0.673236 3.30231 10.0751 13.9588
93 3 -0.790233 -1.02309 8.51395 11.8179
175 2 0.168495 -2.48759 8.74954 16.2961
95 3 -0.788944 -2.81938 10.7336 11.8988
119 3 -0.813577 -2.0585 12.2438 9.64918
147 2 0.170139 0.143905 9.70789 13.7352
190 2 0.0289481 -2.63458 8.96112 14.0261
272 2 0.150543 0.0382931 14.1825 9.19836
244 3 -0.777238 2.78061 11.9128 16.2157
188 2 0.14466 -1.10328 11.1401 14.1879
189 2 0.17177 -1.18802 9.41116 15.3012
90 3 -0.836461 -5.50719 13.7013 8.813
191 2 0.192151 -4.82026 13.5589 11.7162
94 3 -0.798441 -4.62376 11.5849 9.986
187 2 0.19905 -2.98309 9.10796 9.80139
154 2 -0.00563395 2.59318 8.24927 13.9203
266 2 0.144536 -3.09577 13.3694 12.5874
62 1 -0.662426 -3.56884 8.88653 8.85534
197 2 0.154944 -2.26652 14.8707 14.2669
192 2 0.239016 -3.21462 14.4954 11.0749
157 2 -0.00235216 0.460046 12.5155 8.8845
145 2 0.00310664 0.9787 8.13594 9.92796
205 2 0.143959 1.98909 9.81302 9.46417
248 2 0.115938 4.02249 9.25532 14.4929
245 2 0.0422124 -0.0396019 11.8412 16.7047
249 2 0.157917 3.46375 10.253 12.8357
1 4 1.29478 14.1471 1.92549 3.52039
6 2 0.0683039 11.4597 1.14598 0.609633
3 1 -0.66058 12.4692 2.11202 4.7382
213 2 0.120075 8.99006 0.821312 8.04376
5 3 -0.795401 13.505 0.895843 2.35521
59 1 -0.652478 11.6183 6.50622 4.71079
7 2 0.163278 12.0286 1.14727 4.47607
8 2 0.168473 12.1389 2.99987 4.05609
9 2 0.166559 12.4993 2.38888 5.82635
263 2 0.133759 11.2862 5.60397 5.48571
109 3 -0.802625 6.84975 3.57177 6.42762
43 4 1.20482 9.05629 2.21042 3.36776
47 4 0.939634 9.06782 5.00346 2.45079
48 4 0.947861 6.21061 6.86378 4.3644
256 2 0.0148092 13.2284 0.759905 5.94895
122 3 -0.78931 8.83134 0.87999 2.52602
123 3 -0.892276 7.82911 2.43878 4.32001
128 3 -0.804763 9.54541 3.51332 2.35199
129 3 -0.842059 5.81118 5.76941 3.24043
130 3 -0.747735 8.95386 5.83752 1.06412
158 2 -0.0093501 10.5605 1.99898 4.2421
161 2 -0.00404972 10.1109 5.82267 3.55203
162 2 0.0797652 7.5969 4.99795 3.24482
50 4 0.909503 8.3053 7.3687 6.34528
166 2 0.0039548 7.93268 6.17096 7.45039
163 2 0.0136659 5.08027 6.82816 5.67179
165 2 -0.0197198 9.91721 7.13393 6.21152
179 2 0.176047 12.0548 6.22331 3.68138
236 2 0.23736 10.6125 3.77208 0.0882956
79 3 -0.819227 15.2142 1.2262 4.48066
131 3 -0.836582 7.62027 6.8934 4.97126
254 3 -0.818081 14.1523 1.2012 8.35033
44 4 1.01037 8.81695 1.84905 10.0808
49 4 1.18675 9.618 7.61827 16.2676
46 4 1.27791 11.8276 1.83246 11.604
237 2 0.177128 12.6456 3.44228 15.9329
51 4 1.28322 6.79725 7.38051 14.4648
261 3 -0.75498 13.5007 6.32869 14.9662
271 2 0.143939 12.8118 1.12962 15.753
73 1 -0.653718 11.4544 3.46111 12.5103
159 2 -0.0222816 8.84858 3.2514 9.07771
125 3 -0.7927 13.0534 2.19817 10.4576
126 3 -0.762852 10.2053 1.67672 10.8747
270 2 0.167459 14.0089 2.61889 15.536
132 3 -0.812883 6.47499 6.26458 13.247
133 3 -0.757251 8.17043 7.23817 15.4119
68 1 -0.665594 7.68243 4.83128 8.92322
12 4 1.53411 14.3182 2.38167 9.46924
134 3 -0.840141 5.65086 7.75338 15.6021
202 2 0.195981 7.66314 4.24242 9.8962
214 2 0.173015 10.2591 3.5621 12.5409
215 2 0.151091 12.0491 4.24337 11.9305
216 2 0.155064 11.9394 3.17133 13.5299
4 1 -0.650932 13.7116 1.70921 16.1511
231 4 1.0468 12.0117 5.91418 14.8004
232 1 -0.638027 11.829 4.31907 15.8185
233 3 -0.756388 10.9877 6.93675 15.3767
234 2 -0.00623473 11.5976 5.28007 13.1811
235 2 0.154443 10.8394 3.96427 15.3011
258 2 0.187831 8.18589 3.39958 15.1715
201 2 0.134445 8.74029 5.29514 8.77337
257 1 -0.651527 8.42279 3.82794 16.1878
203 2 0.163781 6.92003 5.71021 8.98626
260 2 0.227154 8.37663 4.92856 16.2489
264 2 0.174111 14.1627 4.48757 13.2502
259 2 0.212209 9.25018 3.2626 16.7594
225 2 0.186587 8.03987 12.2762 5.67046
52 4 1.00533 3.97085 11.4286 2.39805
53 4 1.0042 7.57808 10.2992 7.40892
212 2 0.153871 1.7888 13.8929 6.37786
274 2 0.171325 9.33138 8.61478 0.744377
71 1 -0.661693 2.77176 13.4347 5.92518
211 2 0.260675 3.58882 13.4171 6.76
76 1 -0.669918 5.16526 10.0596 2.80412
77 1 -0.684016 7.46034 11.3862 5.87901
250 2 0.137808 4.53645 9.19938 0.802926
135 3 -0.793957 4.74278 12.7264 1.65892
136 3 -0.785052 2.98694 11.7348 3.68317
137 3 -0.81608 7.94148 8.73356 6.92633
140 3 -0.789672 4.73892 13.4449 8.05881
226 2 0.126654 6.29557 11.5328 5.8912
164 2 -0.00590806 5.74622 8.40122 3.77768
209 2 0.138207 4.82545 8.67715 5.81599
167 2 0.0207028 3.1604 10.3116 1.28859
168 2 0.0806414 5.93595 10.3059 8.00937
227 2 0.159283 7.64595 10.5721 5.08001
42 4 1.27355 2.1179 11.854 5.15031
210 2 0.159666 3.13018 13.97 4.96194
255 2 0.00747479 7.19062 12.978 7.15491
253 4 0.985841 6.06622 14.1904 7.52093
224 2 0.165143 6.11132 10.7265 2.81641
222 2 0.135576 5.10081 9.1055 2.049
223 2 0.148872 4.75338 9.90476 3.9445
180 2 0.158428 10.9862 7.50092 4.80766
2 4 1.04518 5.36081 14.0927 1.25796
138 3 -0.795804 8.60949 11.0896 8.35742
22 4 1.50139 9.4736 12.2391 9.37485
54 4 1.20548 4.76105 12.0913 9.39098
55 4 1.26896 7.17578 12.0038 11.4302
75 1 -0.670929 7.18276 8.87774 13.3016
251 2 0.165033 5.92819 11.816 16.6061
265 2 0.229273 10.9254 9.50829 8.72024
186 2 0.164203 11.757 7.78331 8.61487
141 3 -0.813381 8.51338 12.4165 10.6022
142 3 -0.846591 5.96623 11.9433 10.4277
143 3 -0.824036 6.91405 12.9557 12.7212
169 2 0.00273587 7.40726 10.4465 12.0876
78 1 -0.671716 3.1997 12.2987 10.4375
220 2 0.163573 8.15791 9.23255 13.7303
221 2 0.148055 6.28406 9.50668 13.4519
228 2 0.158811 2.36379 11.9698 9.80365
239 4 1.02926 3.96568 11.4924 15.1053
230 2 0.17976 3.36286 11.723 11.398
242 1 -0.652964 5.35714 10.8157 16.5676
243 3 -0.781269 4.71934 12.5922 14.0572
160 2 0.00704759 6.55285 14.3758 14.7854
139 3 -0.751368 4.4339 10.6656 8.48819
219 2 0.16858 7.34452 8.34812 12.2739
229 2 0.21453 3.12328 13.4382 10.6005
252 2 0.139067 5.68783 10.1328 15.6063
10 2 0.0549831 7.62634 14.8454 16.5084
45 4 1.25915 5.71993 13.6711 13.4605
273 2 0.189412 1.92457 13.5169 9.45036
218 2 0.152254 10.4491 9.72753 15.6923
72 1 -0.659773 1.20624 14.323 9.03535
74 1 -0.67294 9.76017 9.46461 16.5497
217 2 0.162897 8.74323 9.94187 16.4538
127 3 -0.81014 4.94081 14.806 12.6543
ITEM: TIMESTEP
200
ITEM: NUMBER OF ATOMS
274
ITEM: BOX BOUNDS xy xz yz pp pp pp
-7.3914999999999997e+00 1.6478000000000002e+01 -7.3914999999999997e+00
0.0000000000000000e+00 1.5720144000000001e+01 9.9190000000000000e-01
0.0000000000000000e+00 1.6771000000000001e+01 1.6502440000000007e+00
ITEM: ATOMS id type q x y z
106 3 -0.788808 -0.891903 6.89138 4.39431
13 4 1.53782 1.05766 1.9396 5.49937
15 4 1.31351 -0.321759 4.25881 1.80886
198 2 0.184455 1.71699 7.16381 5.41939
17 4 1.3228 -0.732362 4.27236 7.14065
18 4 1.31496 -2.06819 6.77432 5.53878
27 4 1.24437 3.69505 2.75779 3.80861
67 1 -0.688927 1.90108 7.04714 4.36126
30 4 1.22737 6.54866 2.30629 5.36618
33 4 1.41438 4.74776 4.86335 2.2784
34 4 1.03114 0.329962 7.05792 3.36166
56 1 -0.667183 0.895521 3.19098 0.77985
58 1 -0.648972 0.659525 5.54235 7.57755
28 4 1.35069 5.91944 2.38296 0.52847
65 1 -0.706645 6.40279 0.923792 6.714
98 3 -0.781396 3.67429 1.52479 8.02116
174 2 0.184562 -2.75329 6.70851 1.38118
80 3 -0.847857 1.52928 0.791358 6.46402
195 2 0.235012 5.33969 1.11959 7.17958
83 3 -0.794151 -1.51865 4.70622 0.663975
85 3 -0.79581 0.131502 3.16646 6.2961
86 3 -0.756162 -1.84282 5.36409 6.36481
96 3 -0.818846 2.37262 2.41734 4.63767
97 3 -0.811304 6.3569 1.09696 1.3448
82 3 -0.79741 -0.840125 3.26771 2.93947
100 3 -0.795037 5.16503 2.50548 4.62371
103 3 -0.812692 3.59343 4.37108 3.26996
200 2 0.252761 2.29454 6.01961 4.00423
105 3 -0.74017 0.364596 5.76865 2.39315
107 3 -0.825022 4.06099 5.83985 1.11256
148 2 0.000887347 3.85451 1.66838 2.50752
36 4 1.01682 6.42182 3.73963 7.96892
171 2 0.155483 0.81769 2.10239 1.09219
172 2 0.189525 1.96649 3.67272 1.02931
176 2 0.169236 0.255941 6.60777 7.27066
177 2 0.212636 1.53856 5.17536 6.89593
208 2 0.180237 4.14475 7.39216 7.54671
104 3 -0.812532 5.55834 3.7204 1.46352
79 3 -0.805385 -0.0729168 1.25277 4.41503
152 2 -0.0118394 6.56811 2.09765 8.33121
267 2 0.170589 3.89589 1.80907 13.283
14 4 1.31107 1.64136 2.67013 10.9704
19 4 1.23925 0.896343 4.8699 12.9803
20 4 0.97837 -0.176576 7.3906 11.0406
29 4 1.38024 3.94368 2.75097 9.17146
31 4 1.04031 4.36801 3.37149 15.2513
32 4 1.20541 5.98514 2.54758 11.5209
35 4 1.25444 4.46053 7.78668 16.6017
37 4 1.21516 5.50108 5.13494 12.8527
38 4 1.25567 1.90197 6.99673 14.94
183 2 0.173739 -0.618028 6.35903 8.87109
61 1 -0.646448 -1.34693 6.76681 9.79022
66 1 -0.655415 4.1264 1.71146 14.3887
16 4 1.31109 -0.816339 6.97714 16.181
124 3 -0.810065 7.41272 1.95524 11.0488
87 3 -0.828989 1.6682 3.5742 12.1992
88 3 -0.782113 0.443042 6.18621 12.0264
99 3 -0.779318 2.4658 3.31343 9.77488
101 3 -0.775644 5.60365 3.27079 16.3205
102 3 -0.868212 4.72628 2.18283 10.5463
178 2 0.192637 0.76004 5.30016 8.71334
110 3 -0.798829 4.8764 4.25942 14.0381
111 3 -0.797443 6.07192 4.15838 11.6386
112 3 -0.82132 1.81144 5.52504 14.315
113 3 -0.800752 3.01511 7.1698 16.1267
184 2 0.181292 -2.12491 7.57448 9.42796
144 2 0.0125998 2.32677 1.14898 11.4762
182 2 0.177543 -0.763796 4.32409 14.8151
149 2 0.0222072 3.13966 4.15016 16.0633
150 2 0.0105877 5.60353 1.91362 13.0577
153 2 -0.0232389 4.31226 6.06365 12.2183
81 3 -0.813738 0.121738 2.38341 10.4361
60 1 -0.677109 -0.706811 4.11851 13.7212
114 3 -0.818855 0.578877 7.59376 15.499
185 2 0.170591 -1.88973 5.93299 10.4341
170 2 0.195328 1.50323 4.72154 16.4453
196 2 0.102295 3.13015 1.47173 15.1104
108 3 -0.742153 4.8836 4.10702 8.39094
21 4 1.25209 -2.59026 9.44917 7.33267
23 4 1.24505 -3.55415 11.8542 5.67025
204 2 0.251099 0.651768 9.73473 8.08063
39 4 1.23917 -0.879509 12.0736 3.95286
199 2 0.124681 2.44762 7.90316 3.87408
238 4 1.00264 0.665255 11.3221 0.387837
194 2 0.184537 -1.0423 14.1813 5.73942
89 3 -0.796348 -2.30119 8.06319 6.45019
91 3 -0.802291 -3.57138 10.3661 6.46528
92 3 -0.866177 -3.91687 13.0682 6.61054
11 4 1.51787 -4.81929 14.1954 7.40924
115 3 -0.818973 -0.859727 13.4382 3.15953
116 3 -0.844431 -2.1689 12.01 4.88874
117 3 -0.77513 0.449624 12.8566 0.71096
118 3 -0.787832 -1.08093 10.4016 7.86009
120 3 -0.824402 0.500148 12.0444 4.73632
173 2 0.175612 -1.81616 8.04692 0.487675
146 2 -0.0258144 -4.80474 11.9456 4.58897
151 2 -0.0164359 0.273022 8.64918 2.54628
155 2 -0.0253222 -0.860409 10.8357 2.71109
156 2 0.0481219 -1.46462 13.0974 7.06534
26 4 1.45324 0.026019 14.1078 1.94815
57 1 -0.660304 -2.57444 7.24664 0.384978
207 2 0.169194 3.22525 7.771 5.8876
268 2 0.0179908 0.727478 10.3961 2.01568
240 1 -0.647715 -0.600463 9.70499 1.12573
269 2 0.135548 -1.54596 9.59617 1.77796
40 4 1.00111 3.2058 9.83456 7.4338
246 2 0.16632 -0.328533 8.75593 0.571727
70 1 -0.66175 3.93553 8.11313 6.7604
206 2 0.146798 1.88161 8.14315 8.31945
262 2 -0.00203293 3.17991 8.07013 0.0158631
121 3 -0.773991 2.59371 10.7775 6.18947
41 4 0.975134 -1.23431 11.9441 8.36115
193 2 0.144377 -0.169316 14.6627 7.49234
24 4 1.02304 -1.86471 9.70983 12.5528
25 4 1.2836 -3.22699 12.0943 10.6719
247 2 0.165151 2.22509 9.76182 14.4021
63 1 -0.654941 -0.993788 10.4942 13.9625
64 1 -0.690964 -3.8559 13.6591 11.625
69 1 -0.653067 1.70985 9.30781 8.48854
241 1 -0.696268 3.29471 10.0251 14.1518
93 3 -0.778553 -0.920005 8.57293 11.914
175 2 0.179219 -2.37296 8.86019 16.5137
95 3 -0.783007 -2.54574 10.8986 11.7045
119 3 -0.825512 -2.04013 12.4148 9.60234
147 2 0.166087 0.121803 10.4869 13.4459
190 2 0.0233311 -2.47387 9.16624 14.0897
272 2 0.162468 -0.0782922 14.1945 9.34341
244 3 -0.788352 2.71952 12.1194 16.1345
188 2 0.165201 -1.43571 11.5485 13.9238
189 2 0.174223 -0.974247 10.1354 14.9932
90 3 -0.826081 -5.69991 13.7071 8.67026
191 2 0.199456 -4.96698 13.5339 11.5428
94 3 -0.771371 -4.54152 11.518 9.88493
187 2 0.213523 -3.04238 9.46919 9.84298
154 2 -0.00657069 2.48901 8.22002 13.8305
266 2 0.149943 -3.41065 13.2972 12.6705
62 1 -0.66946 -3.51713 8.95682 8.9136
197 2 0.16928 -2.34119 15.1891 14.6746
192 2 0.218678 -3.33573 14.6462 11.2064
157 2 0.00605001 0.387173 12.4906 8.5745
145 2 0.00230998 0.929796 8.12542 9.90155
205 2 0.146646 2.0163 9.70341 9.53778
248 2 0.167744 3.95596 9.22101 14.2182
245 2 0.0700937 -0.0344476 11.9057 16.7012
249 2 0.146506 3.40965 10.6213 13.1193
228 2 0.15464 2.14104 11.7275 9.69404
72 1 -0.642271 1.08432 14.2905 9.06317
1 4 1.31443 14.2353 1.77064 3.51271
6 2 0.0693636 11.4848 1.05272 0.607051
3 1 -0.664616 12.6304 2.08879 4.68886
213 2 0.118494 8.81097 0.83344 8.0724
5 3 -0.80908 13.6729 0.760654 2.30822
59 1 -0.643827 11.561 6.59812 4.86253
7 2 0.146313 12.1851 1.05205 4.55438
8 2 0.170178 12.2174 2.9079 4.01342
9 2 0.175657 12.8674 2.37298 5.76656
263 2 0.145959 11.0477 5.71471 5.40972
109 3 -0.748679 6.8131 3.76061 6.45548
43 4 1.20002 9.22007 2.08076 3.22056
47 4 0.959547 9.14273 4.95142 2.53892
48 4 0.917159 6.23807 6.87176 4.4532
256 2 -0.0145996 13.1217 0.723749 6.10519
122 3 -0.79203 8.86987 0.818703 2.30305
123 3 -0.78836 8.095 2.26983 4.38881
128 3 -0.814756 9.52825 3.44172 2.32965
129 3 -0.756235 6.17824 5.75673 3.3163
130 3 -0.742727 9.06231 5.73168 1.16205
158 2 -0.00774987 10.7418 1.85663 4.01332
161 2 -0.0129725 10.2401 5.67489 3.70356
162 2 0.152725 7.64692 5.11215 3.33516
50 4 0.946781 8.39181 7.26582 6.28406
166 2 0.00216917 8.12964 6.11834 7.55432
163 2 0.00340038 4.92222 6.87523 5.52664
165 2 -0.00308116 10.0747 6.89931 6.182
179 2 0.143799 11.9726 6.31064 3.76989
236 2 0.223958 10.1007 3.38431 0.017083
131 3 -0.81912 7.71479 6.771 5.00014
44 4 0.995206 8.76075 1.80905 10.158
49 4 1.18995 9.79478 7.71547 16.1726
46 4 1.27413 11.8834 1.79329 11.578
237 2 0.163842 12.2519 3.38228 15.9423
51 4 1.27396 6.78999 7.41679 14.4246
261 3 -0.796311 13.4153 6.48952 15.1947
84 3 -0.791119 14.0962 3.63495 8.49605
73 1 -0.666232 11.9758 3.46222 12.5435
159 2 -0.0325516 8.87816 3.12937 9.11059
125 3 -0.807074 12.9294 2.31373 10.41
126 3 -0.734706 10.1467 1.51301 10.9168
270 2 0.162556 13.8975 2.83501 15.5656
132 3 -0.798622 6.63361 6.13356 13.4173
133 3 -0.743336 8.16422 7.32635 15.4875
68 1 -0.667498 7.77327 4.78768 8.9762
12 4 1.56676 14.2504 2.31816 9.52175
134 3 -0.829373 5.46154 7.69287 15.3351
202 2 0.194749 7.84698 4.38386 10.0653