ITEM: TIMESTEP
0
ITEM: NUMBER OF ATOMS
274
ITEM: BOX BOUNDS xy xz yz pp pp pp
-8.3797999999999995e+00 1.8013900000000000e+01 -8.3797999999999995e+00
0.0000000000000000e+00 1.3273200000000001e+01 1.1950000000000001e+00
0.0000000000000000e+00 1.6075500000000002e+01 4.3120000000000003e-01
ITEM: ATOMS id type x y z q
5 4 0.429086 1.99825 0.258367 1.26324
7 4 1.46153 2.34178 5.20499 1.11787
9 4 -0.165459 4.32189 2.10487 1.2748
10 4 0.244049 4.39706 7.21964 1.61816
41 1 2.26946 1.1117 6.41809 -0.671056
44 1 4.27106 4.01568 1.52783 -0.680418
55 3 0.969117 0.764792 1.15963 -0.788859
56 3 0.123994 1.70493 4.58407 -0.786286
58 3 -1.14837 3.37901 2.91702 -0.843024
59 3 0.65283 3.50163 0.968427 -0.809567
61 3 1.21957 3.63846 6.07453 -0.793826
62 3 -0.783239 5.41316 6.45328 -0.826857
78 3 0.771135 5.19761 3.02012 -0.846805
84 3 3.05623 6.13325 4.1328 -0.824213
111 2 2.60306 2.69196 3.9811 -0.0131683
112 2 -1.17709 5.39346 1.28999 -0.0264385
113 2 -1.90825 6.2899 4.29406 -0.0248905
133 2 3.25167 1.54888 6.77315 0.185044
134 2 2.39683 0.198686 5.75681 0.160204
135 2 1.52666 0.952298 7.2601 0.224474
142 2 3.44602 3.66997 0.838895 0.179217
143 2 3.92854 4.83689 2.23044 0.216984
242 1 3.37082 0.249269 2.59134 -0.677124
243 2 3.69586 1.07868 1.89115 0.195441
244 2 3.12734 0.613714 3.62857 0.127224
25 4 1.50512 6.47264 3.6783 1.45488
21 4 6.0177 2.35323 5.44851 0.935468
24 4 5.6534 4.77997 0.428142 1.26265
26 4 5.41511 5.04565 7.02572 1.29898
38 4 6.8131 6.04541 3.08361 1.03058
45 1 7.2182 5.66903 7.40321 -0.670107
54 1 10.6835 5.34131 6.02608 -0.656056
74 3 5.78985 1.02951 6.24154 -0.826439
81 3 5.67783 3.68656 6.17055 -0.848016
85 3 4.65122 6.29346 6.2585 -0.796618
99 3 7.9236 1.141 7.98615 -0.832221
103 3 6.52105 5.7235 1.53588 -0.77735
105 3 9.76067 3.25556 7.87863 -0.778366
118 2 5.18357 2.25989 4.00444 -0.0488467
119 2 7.56975 2.42988 4.83354 -0.0603428
130 2 7.25952 4.60999 3.88002 -0.0441393
141 2 4.76901 3.1585 2.07141 0.16745
145 2 7.70342 5.85494 6.4016 0.157035
146 2 7.73105 4.84795 7.98517 0.207936
167 2 9.30861 6.04248 3.19003 0.14559
169 2 10.2064 6.20393 6.58498 0.180113
170 2 9.95353 4.78294 5.35987 0.149613
220 4 6.99854 0.0916594 2.02047 1.03286
221 1 8.85393 0.351618 1.64935 -0.674236
222 3 6.16428 1.17377 1.22676 -0.76836
223 2 6.90408 0.405245 3.69081 -0.0454166
224 2 8.91181 0.153754 0.532546 0.200539
225 2 9.11289 1.41952 1.91575 0.146172
255 2 9.0028 0.477721 4.06811 0.136748
257 2 9.87526 0.383355 5.71482 0.167782
267 2 12.2798 6.14597 0.853529 0.153029
4 4 15.4695 2.1478 3.94551 1.51214
39 4 11.2785 4.11132 7.3378 1.30275
37 4 13.1289 1.99967 5.81395 1.29391
101 3 14.4336 2.64359 5.1379 -0.795516
102 3 13.4423 0.750725 6.73892 -0.833127
106 3 12.2057 3.05436 6.56966 -0.816382
129 2 12.1551 1.3865 4.57525 -0.0251968
171 2 11.6435 5.63483 5.49242 0.184885
231 1 12.118 1.09013 1.74128 -0.662914
232 3 14.586 0.840466 3.17485 -0.777219
233 2 11.4244 1.32528 2.60222 0.146169
234 2 11.6033 0.595923 0.868143 0.175554
235 2 12.7921 1.96829 1.44323 0.175987
249 1 12.1201 5.22583 0.211347 -0.662494
250 2 11.4682 4.43824 0.704095 0.160763
1 4 -6.62462 12.3431 1.88158 1.33171
3 3 -6.06241 11.3358 0.70844 -0.792202
16 4 -2.97077 8.4858 7.06588 1.54602
17 4 -4.36465 10.1854 4.81026 1.30082
67 3 -3.86104 7.22648 7.63415 -0.816935
69 3 -5.87297 10.0116 4.44029 -0.843447
70 3 -3.88031 9.22684 5.95061 -0.827133
90 3 -3.39637 10.0193 3.5497 -0.839105
115 2 -4.1871 11.7539 5.38769 -0.0120762
152 2 -2.22784 8.49772 1.12306 0.168097
251 1 -5.19245 8.679 0.70066 -0.668448
252 2 -4.42497 8.06711 0.143461 0.174019
253 2 -4.8321 9.0229 1.71879 0.214128
265 2 -4.29177 12.2121 2.57915 0.202347
19 4 -1.59668 12.9651 7.29937 1.44506
254 1 1.27323 12.6961 4.74266 -0.668933
12 4 -0.871875 6.71391 5.5555 1.3205
28 4 4.3155 6.85834 4.79319 1.23086
30 4 2.68198 8.21635 1.32118 1.04909
31 4 -1.91617 10.0682 2.93576 1.22781
33 4 0.141676 11.1419 5.33458 1.15199
47 1 2.09307 9.87064 0.585325 -0.672466
48 1 -1.53312 8.45348 2.02414 -0.67372
49 1 1.38723 9.94547 6.13658 -0.660009
68 3 -1.55499 7.91437 6.34492 -0.814572
79 3 0.56948 7.09092 4.92644 -0.827275
87 3 1.6464 7.68566 2.41364 -0.79966
88 3 3.05158 7.23406 0.132678 -0.813039
89 3 -1.75715 11.4105 1.73492 -0.747641
93 3 -0.640622 10.4737 4.10684 -0.773402
94 3 -0.779016 11.8357 6.42748 -0.8077
122 2 3.95698 8.4903 4.97613 -0.0357557
125 2 4.12106 8.72206 2.09306 -0.0155279
147 2 1.96798 7.64894 7.12779 0.218532
150 2 1.71476 10.5164 1.43106 0.165748
151 2 -0.435968 8.45519 1.74106 0.207792
153 2 -1.80024 7.62156 2.7441 0.148872
154 2 1.96177 10.4701 6.95908 0.152655
155 2 2.05105 9.50605 5.33413 0.168921
156 2 0.597241 9.19485 6.53303 0.232851
256 2 2.2459 12.3007 4.23958 0.155079
258 1 4.19105 11.5386 3.65164 -0.667843
260 2 3.19908 11.2984 3.1842 0.142682
261 2 4.12714 12.0493 4.65064 0.166725
270 2 1.04771 12.4331 2.2623 0.160464
272 2 2.97835 10.3168 0.0341341 0.19543
268 2 10.6074 8.19227 0.740134 0.14067
144 2 7.08298 6.61333 8.00407 0.162944
274 2 9.97106 11.043 8.0151 0.176946
2 3 9.37872 11.4628 3.0279 -0.787897
53 1 8.53786 6.86034 3.33594 -0.666618
104 3 5.64776 6.78317 3.88302 -0.823789
166 2 8.41349 7.56279 2.38678 0.155039
168 2 8.59935 7.36717 4.3495 0.148067
206 4 9.44968 10.3022 4.11889 1.26649
207 4 5.91277 12.9782 7.92081 1.28975
208 4 7.84076 10.63 6.86285 1.13844
209 1 6.56923 9.13946 6.83656 -0.658435
259 2 4.9002 10.654 3.65964 0.161114
211 3 8.60093 10.5946 5.44394 -0.792641
212 3 6.95717 11.875 7.38124 -0.794766
213 2 8.83197 8.84106 3.46801 -0.001842
215 2 6.44817 8.8289 7.9155 0.150007
216 2 7.01576 8.32796 6.19382 0.171049
217 2 5.62215 9.57426 6.39769 0.16158
218 2 9.58162 9.19918 8.01212 0.174658
230 4 5.13636 12.77 2.39157 1.1346
237 1 6.82977 9.24871 0.656044 -0.667785
238 3 5.66826 11.8211 1.15447 -0.754748
240 2 6.08577 8.96664 1.46301 0.18267
241 2 7.83861 9.59395 1.06965 0.144189
65 3 -2.7177 6.26281 9.80023 -0.855083
8 4 1.8921 2.27967 10.6689 1.31696
13 4 0.260418 4.41968 12.2192 1.25769
14 4 -1.32904 6.40409 10.5893 1.47916
20 4 4.58308 3.24878 9.33261 1.28861
27 4 1.44645 6.47108 9.23406 1.34827
29 4 3.84736 6.60433 11.1082 0.95256
42 1 2.6815 0.762064 11.5746 -0.666286
57 3 0.532252 1.65692 9.80716 -0.798186
63 3 -0.507642 3.93369 13.5526 -0.82791
64 3 1.39438 3.33037 11.8361 -0.831076
66 3 -0.773615 4.62845 11.0228 -0.829234
73 3 3.11315 2.83888 9.77389 -0.80671
80 3 4.72243 4.63511 8.51408 -0.788505
82 3 1.17562 5.27102 8.23346 -0.81794
86 3 2.48267 6.17187 10.4693 -0.805333
114 2 1.04442 5.86716 12.5906 -0.0022487
117 2 5.05999 2.01185 8.30191 0.0343629
124 2 4.32405 5.51324 12.2778 -0.0470042
136 2 3.60028 1.16812 12.0957 0.188979
226 4 4.66637 6.7118 15.0537 0.933459
228 2 3.46989 5.59585 14.7175 -0.0470229
245 1 2.68674 2.37991 14.7722 -0.671677
246 2 2.01755 2.31871 13.8615 0.201888
247 2 3.37991 1.48759 14.8774 0.183379
248 2 3.21955 3.38654 14.8747 0.160979
138 2 1.90752 0.366015 12.2916 0.147742
60 3 -0.544667 3.25945 8.04017 -0.837377
23 4 6.98297 2.73721 11.1361 1.24858
36 4 8.95384 2.17872 8.76428 1.31638
52 1 10.2945 1.08147 9.55426 -0.6732
75 3 5.58437 3.28524 10.5806 -0.843292
76 3 6.8474 1.2381 11.7178 -0.834404
77 3 7.73398 3.9096 15.8402 -0.759906
100 3 8.14634 2.835 10.0311 -0.819075
121 2 7.42093 3.75047 12.4146 0.00411595
123 2 5.11756 6.48075 10.03 -0.000125725
163 2 11.2438 1.69644 9.5222 0.177685
165 2 9.95436 0.787012 10.6367 0.241437
179 4 7.56708 2.30431 15.6232 1.26078
180 4 9.84591 1.44408 13.5814 1.2663
181 4 11.0886 4.25022 12.6343 1.31266
183 1 5.93236 2.04539 14.6987 -0.664202
184 1 11.4658 0.697019 14.1804 -0.661067
188 3 8.78068 1.54534 14.8088 -0.815524
189 3 10.2427 2.8931 12.9812 -0.800597
192 3 10.3223 5.41521 11.7337 -0.807013
195 2 5.95818 1.00168 14.2547 0.221703
196 2 5.8933 2.85532 13.9052 0.167697
197 2 5.11609 2.16683 15.481 0.173597
203 2 8.37998 6.34347 9.68398 0.15364
227 3 6.04564 6.01638 15.3126 -0.796651
182 4 10.2908 6.73824 10.8556 1.06423
266 2 14.2764 5.23925 15.8424 0.170998
6 4 15.9882 2.2969 9.24385 1.33854
262 3 16.7158 2.28683 15.6907 -0.770782
107 3 12.0555 4.90867 8.53467 -0.805591
190 3 11.7901 4.98062 13.9747 -0.768434
11 4 12.7133 6.37577 8.97917 1.52546
110 2 15.3002 3.2384 10.488 0.0997582
172 4 15.8497 2.72245 14.459 1.04687
173 1 14.9053 1.351 13.517 -0.678279
174 2 14.118 2.67315 14.7469 0.0218066
175 2 15.9543 0.805305 13.22 0.130278
176 2 14.3689 1.74841 12.6044 0.155248
177 2 14.2546 0.694794 14.168 0.191454
178 4 12.3993 6.26052 14.7489 1.03673
185 1 12.5503 3.66658 11.5488 -0.672867
198 2 12.0428 0.415794 13.2392 0.174548
199 2 11.9643 1.53626 14.7673 0.167149
200 2 12.188 3.75053 10.4785 0.221913
201 2 12.751 2.59907 11.8669 0.152811
202 2 13.4082 4.37132 11.7784 0.208178
263 3 14.8952 1.2041 8.92425 -0.846958
15 4 -4.21035 10.7525 15.7409 1.14682
18 4 -2.52747 8.01486 12.8448 1.25787
32 4 -2.85227 10.8582 9.08649 0.987065
35 4 -1.45807 10.6826 14.0296 1.27763
43 1 -5.44659 10.4209 14.2596 -0.672571
91 3 -2.67019 9.56966 8.25505 -0.832247
92 3 -2.5457 12.2349 8.42781 -0.833088
96 3 -1.7103 9.13024 13.6397 -0.809156
98 3 -2.80996 11.1625 15.0868 -0.747244
116 2 -3.54849 8.8169 11.7827 -0.0440593
126 2 -1.99704 10.707 10.5157 -0.0272302
127 2 -4.39337 10.9038 9.72919 -0.0404363
137 2 -5.44309 12.8706 10.7528 0.159854
139 2 -4.93823 9.67536 13.5808 0.13651
140 2 -5.58185 11.4341 13.776 0.157624
72 3 -1.54203 7.12312 11.9951 -0.849915
164 2 1.92725 13.0377 8.8435 0.161539
187 3 0.900011 13.1055 12.2109 -0.813909
97 3 -1.24538 11.6329 12.7263 -0.830954
22 4 -0.60929 12.7692 11.7964 1.2353
34 4 3.50891 9.53481 12.2747 0.998199
46 1 2.38757 7.78211 8.17069 -0.663041
50 1 2.44036 10.5074 11.033 -0.672732
51 1 0.167578 10.7802 15.0148 -0.643331
83 3 -0.123343 7.13424 9.79897 -0.795071
95 3 3.72837 8.04784 11.6926 -0.823612
108 3 4.87294 10.3101 12.6419 -0.79597
120 2 -0.477079 12.1155 10.2545 -0.0164845
128 2 2.50508 9.44147 13.652 -0.0304185
148 2 3.48888 7.52703 8.22385 0.19572
149 2 2.145 8.78765 8.62022 0.1687
157 2 1.59927 9.80264 10.7392 0.171146
158 2 3.16886 10.7027 10.1843 0.159848
159 2 2.06486 11.4556 11.5308 0.201483
160 2 0.990587 10.5882 14.2594 0.154024
161 2 0.112057 9.98894 15.8222 0.184491
162 2 0.196456 11.8324 15.4385 0.227933
214 2 4.78859 12.1368 8.84778 -0.0237731
229 2 4.75895 7.51279 13.6009 -0.0243345
271 2 2.45876 9.94471 15.9653 0.166633
273 2 2.83053 12.6391 14.8203 0.170875
40 4 6.28047 10.4042 13.3239 0.898806
109 3 6.42099 10.9592 14.7841 -0.796796
131 2 7.31818 11.2276 12.3111 -0.0468715
132 2 7.02918 8.91663 13.2251 -0.0515293
186 1 8.58125 7.39283 10.3037 -0.678692
191 3 11.5352 7.16142 9.96619 -0.812303
193 2 11.1354 7.22649 15.3748 -0.0283133
194 2 9.66138 8.10154 11.7681 -0.0122806
204 2 8.62589 8.29387 9.60891 0.1574
205 2 7.85637 7.52195 11.1645 0.133931
219 2 8.71297 10.3474 9.23292 0.151288
236 4 7.4205 11.3221 16.0054 1.00097
239 2 8.11537 8.89775 15.9205 0.161158
264 2 8.85542 12.0022 15.3917 -0.00879064
269 2 10.4232 10.0201 14.7188 0.13431
210 1 9.19665 10.2396 8.22103 -0.653284
71 3 13.3442 7.1375 13.7967 -0.815097
ITEM: TIMESTEP
100
ITEM: NUMBER OF ATOMS
274
ITEM: BOX BOUNDS xy xz yz pp pp pp
-8.3040447595076472e+00 1.7961793852225217e+01 -8.3674513840065501e+00
-1.7007196415535830e-02 1.3272790842964529e+01 1.2063004767241354e+00
-2.0694922136996752e-03 1.6077569492213691e+01 4.1378364654898891e-01
ITEM: ATOMS id type x y z q
5 4 0.375437 1.96814 0.278326 1.27364
7 4 1.43244 2.18398 5.16283 1.14349
9 4 -0.0743032 4.29674 2.17556 1.28826
10 4 0.331417 4.41088 7.06329 1.56709
41 1 2.13837 0.914279 6.37562 -0.686794
44 1 4.18945 4.14824 1.46515 -0.670636
55 3 0.815072 0.62726 1.09485 -0.785418
56 3 0.114812 1.66483 4.53878 -0.789415
58 3 -1.21879 3.46409 2.88166 -0.832891
59 3 0.7654 3.40017 1.131 -0.806442
61 3 1.34946 3.60406 5.90479 -0.775172
62 3 -0.768282 5.35306 6.2123 -0.814933
78 3 0.88304 5.10083 3.06699 -0.820302
84 3 3.26607 6.03987 4.22649 -0.79879
111 2 2.81533 1.86264 4.21551 -0.0125312
112 2 -0.911085 5.39411 1.2243 -0.0223714
113 2 -1.7378 6.60121 4.16775 -0.0203536
133 2 3.30117 0.974461 6.36796 0.17542
134 2 -6.58956 12.756 6.02572 0.20914
135 2 1.71929 1.17053 7.35693 0.23021
142 2 3.19154 4.57357 1.11646 0.203224
143 2 4.44619 4.48986 2.50632 0.21048
242 1 3.03507 0.423291 2.80886 -0.671654
243 2 2.76094 1.5812 2.45651 0.160759
244 2 3.03718 0.207399 3.93227 0.148301
25 4 1.72054 6.43415 3.78886 1.40554
21 4 6.03289 2.314 5.44898 0.908216
24 4 5.58558 4.84194 0.354368 1.2536
26 4 5.43231 5.04327 7.05595 1.27548
38 4 6.81261 6.16075 3.05825 1.0286
45 1 7.21763 5.53791 7.60362 -0.664589
54 1 10.7873 5.5753 6.08794 -0.670294
74 3 5.75597 0.928571 6.24744 -0.798387
81 3 5.71971 3.67225 6.19305 -0.838269
85 3 4.73406 6.4497 6.42561 -0.79609
99 3 7.87491 1.10639 7.82142 -0.816617
103 3 6.40534 5.69308 1.52775 -0.776755
105 3 9.82427 3.41409 7.81067 -0.784371
118 2 5.19461 2.24761 4.00904 -0.0436766
119 2 7.57756 2.34446 4.79663 -0.0624877
130 2 7.66474 5.01417 3.92877 -0.0352401
141 2 4.26028 3.04554 1.31549 0.176514
145 2 7.8426 4.91443 6.84414 0.174469
241 2 8.02557 9.6252 0.937022 0.156648
167 2 9.49786 6.48473 2.64 0.153972
169 2 10.9476 6.56189 6.62875 0.212264
170 2 9.75445 5.37177 5.81582 0.153852
220 4 -1.36483 12.8945 1.85418 1.04817
221 1 8.90232 0.113853 1.50888 -0.667966
222 3 6.26261 1.04635 0.954244 -0.784529
223 2 6.83251 0.410014 3.52108 -0.0492415
224 2 0.558931 12.8312 0.385588 0.192631
225 2 9.1197 1.22595 1.79009 0.133058
255 2 0.829741 12.8238 3.54692 0.154965
257 2 9.39884 0.34671 5.38307 0.163792
267 2 -3.6144 6.11846 0.535148 0.166385
4 4 15.2982 2.11249 3.82733 1.52546
39 4 11.2288 4.20834 7.36864 1.29737
37 4 13.0367 2.05011 5.79914 1.30553
101 3 14.3266 2.52674 5.06983 -0.802947
102 3 13.3161 0.870581 6.8315 -0.838456
106 3 12.2598 3.23358 6.52793 -0.789354
129 2 11.9771 1.43583 4.68854 -0.0335272
171 2 11.5574 5.40598 5.26616 0.181202
231 1 12.024 1.07044 1.63632 -0.651682
232 3 14.5234 0.924077 2.99853 -0.796082
233 2 11.1844 1.22809 2.39762 0.144019
234 2 11.7099 0.531041 0.674809 0.18365
235 2 12.7644 2.00696 1.48386 0.179589
249 1 12.3437 5.29415 0.287346 -0.648359
250 2 11.4503 5.21837 1.05241 0.13064
1 4 -6.71466 12.3022 1.92072 1.30683
3 3 -6.00542 11.2449 0.838467 -0.797062
16 4 -2.88066 8.52295 7.07018 1.5232
17 4 -4.1334 10.3132 4.75765 1.29123
67 3 -3.84008 7.24531 7.6141 -0.820243
69 3 -5.7095 10.3202 4.50526 -0.823498
70 3 -3.6719 9.34056 5.85362 -0.829918
90 3 -3.35259 10.049 3.36487 -0.827886
115 2 -3.72146 11.8335 5.26815 0.00482377
152 2 -1.62086 8.44854 0.918729 0.161555
251 1 -5.1208 8.51196 0.609707 -0.660557
240 2 6.1534 9.1636 1.29319 0.149832
253 2 -4.62122 8.86569 1.59618 0.209904
265 2 -4.45293 12.8519 2.29082 0.192852
19 4 -1.58579 12.8933 7.34924 1.44826
254 1 1.2811 12.5315 4.54967 -0.67998
12 4 -0.746513 6.7664 5.53166 1.30013
28 4 4.42839 6.92887 4.92524 1.21667
30 4 2.58668 8.17225 1.27774 1.05227
31 4 -1.85441 10.0707 2.86133 1.22953
33 4 0.158944 11.0881 5.30095 1.13829
47 1 2.14173 10.0122 0.894966 -0.681677
48 1 -1.37996 8.44006 2.01873 -0.694821
49 1 1.32134 9.81506 6.12169 -0.657469
68 3 -1.44933 7.91087 6.42198 -0.82214
79 3 0.7787 7.11451 5.03544 -0.837401
87 3 1.83588 7.59958 2.48927 -0.83188
88 3 3.0079 7.22611 0.0375678 -0.827679
89 3 -1.69716 11.3946 1.62454 -0.756206
93 3 -0.715255 10.5024 4.12978 -0.79785
94 3 -0.73659 11.7734 6.47445 -0.800218
122 2 3.96889 8.59913 5.03388 -0.0400645
125 2 3.83811 9.46392 1.64722 0.0237836
147 2 2.10661 7.43871 6.92213 0.238044
150 2 1.22414 10.055 1.65813 0.16372
151 2 -0.307692 8.20073 2.18845 0.200804
153 2 -2.02573 7.69487 2.56334 0.14837
154 2 1.76244 10.3506 7.04043 0.149172
155 2 2.06898 9.37807 5.42987 0.173634
156 2 0.405013 9.07848 6.3239 0.251404
256 2 2.42592 12.198 4.38492 0.154532
258 1 4.29556 11.6046 3.82535 -0.661316
260 2 3.33298 11.1982 3.291 0.136073
261 2 4.08792 12.1516 4.8245 0.158706
270 2 1.22638 12.2616 2.04056 0.161381
272 2 2.67203 11.0289 0.953489 0.173512
268 2 10.5233 8.04305 0.832953 0.13916
144 2 7.26148 6.63605 7.44173 0.166765
238 3 5.36909 11.8825 1.07965 -0.772116
2 3 9.12801 11.4287 3.09136 -0.782987
53 1 8.56629 6.9726 3.03824 -0.66166
104 3 5.70005 6.80572 3.94592 -0.832212
166 2 8.15158 7.87752 2.30272 0.143398
168 2 8.65429 7.27434 4.1599 0.130113
206 4 9.41921 10.3628 4.20248 1.26512
207 4 14.1496 0.189376 7.95565 1.27725
208 4 7.75269 10.5772 7.02823 1.08201
209 1 6.63591 8.98701 7.00544 -0.655821
259 2 5.10094 10.8177 3.91928 0.166357
211 3 8.64901 10.6095 5.53612 -0.771958
212 3 6.79105 11.8751 7.41016 -0.767966
213 2 8.8634 8.87638 3.51699 -0.00456276
237 1 7.00774 9.39969 0.469695 -0.677624
216 2 6.97766 8.23318 6.26518 0.168967
217 2 5.54026 9.27308 6.86104 0.1628
230 4 5.00916 12.8104 2.36294 1.12677
60 3 -0.380865 3.24012 7.95842 -0.838568
266 2 12.8393 4.29824 0.0682635 0.164706
46 1 2.36112 7.70837 8.01249 -0.658615
161 2 -1.22084 9.51962 0.00163701 0.186935
65 3 -2.61039 6.31733 9.9126 -0.828673
8 4 1.98156 2.24322 10.6129 1.31708
13 4 0.367168 4.46168 12.1538 1.26209
14 4 -1.21913 6.41104 10.6207 1.43735
20 4 4.66531 3.18975 9.31627 1.30546
27 4 1.51517 6.43713 9.19182 1.3377
29 4 3.84616 6.55375 11.167 0.9483
42 1 2.58401 0.7957 11.7422 -0.668047
57 3 0.576886 1.60437 9.78345 -0.790331
63 3 -0.231269 3.98803 13.5533 -0.845441
64 3 1.50568 3.40515 11.6775 -0.826894
66 3 -0.748664 4.55652 10.997 -0.81262
73 3 3.27365 2.64431 9.75146 -0.828912
80 3 4.64215 4.57693 8.49329 -0.769175
82 3 1.20802 5.26899 8.14481 -0.813231
86 3 2.5829 6.06281 10.3978 -0.804343
114 2 1.08368 6.02781 12.4326 0.0165507
117 2 5.18702 2.05341 8.18413 0.0541803
124 2 4.41204 5.322 12.1683 -0.0345885
136 2 3.09225 1.41463 12.6069 0.16806
226 4 4.60787 6.72951 14.9467 0.916766
228 2 3.38534 5.65697 14.7887 -0.0430986
245 1 2.66344 2.64033 14.8251 -0.673957
246 2 2.14182 3.14545 13.958 0.201893
247 2 3.05346 1.57536 14.5821 0.160773
248 2 3.42789 3.29573 15.3315 0.167023
138 2 -6.68073 13.1272 12.1158 0.159809
71 3 -3.30591 7.17109 13.9564 -0.80851
23 4 7.04383 2.68706 11.1979 1.24501
36 4 8.97532 2.17897 8.71007 1.24205
52 1 10.2375 0.942412 9.34659 -0.662375
75 3 5.74174 3.28042 10.5104 -0.845495
76 3 6.88237 1.13561 11.7081 -0.830162
77 3 7.53713 3.85748 15.7794 -0.756695
100 3 8.17825 2.6489 10.0709 -0.798062
121 2 7.55018 3.68722 12.465 0.00712554
123 2 5.14399 6.74938 10.0859 -0.0109456
163 2 11.2577 1.47748 9.35362 0.176958
165 2 9.8726 0.58842 10.4183 0.233615
179 4 7.56361 2.24498 15.4757 1.2855
180 4 9.9567 1.2553 13.5636 1.25248
181 4 11.2275 4.13528 12.6756 1.22521
183 1 5.92176 1.82443 14.6434 -0.672861
184 1 11.4663 0.747449 14.5027 -0.667279
188 3 8.78906 1.59106 14.5891 -0.81882
189 3 10.4627 2.69601 12.883 -0.766017
192 3 10.2693 5.3068 11.697 -0.753112
195 2 6.03141 1.83666 13.5283 0.208407
196 2 5.12679 2.56682 14.9848 0.166578
197 2 5.67662 0.767948 15.0209 0.208243
203 2 8.5479 6.49545 9.63086 0.143858
227 3 6.03507 6.03398 15.1246 -0.779102
182 4 10.3517 6.7571 10.9363 1.04238
210 1 8.86128 10.1281 8.52445 -0.661416
6 4 15.9763 2.29561 9.14786 1.35751
262 3 -0.0484539 2.37609 15.7107 -0.778999
107 3 12.1168 4.88566 8.63619 -0.771149
190 3 11.8045 5.00543 14.1289 -0.759593
11 4 12.6104 6.46722 9.01024 1.45504
110 2 15.1909 3.26647 10.3255 0.120271
172 4 15.8588 2.82409 14.4085 1.0517
173 1 14.8106 1.43824 13.5633 -0.676331
174 2 14.1551 2.92227 14.6753 0.0178081
175 2 15.889 1.07886 12.9858 0.131495
176 2 14.151 1.96448 12.8349 0.156705
177 2 14.2873 0.643619 14.1476 0.207474
178 4 12.4719 6.23659 14.9085 1.0279
185 1 12.6701 3.6224 11.6177 -0.676841
198 2 12.2904 0.649646 13.6622 0.165945
199 2 11.737 1.52152 15.2649 0.17923
200 2 12.7685 4.2976 10.7285 0.249006
201 2 12.3937 2.57323 11.3911 0.18072
202 2 13.4971 3.79115 12.4512 0.166882
263 3 14.8921 1.19181 8.94576 -0.84194
15 4 -4.15304 10.6669 15.8413 1.15659
18 4 -2.35292 7.93605 12.9029 1.25456
32 4 -2.81609 10.8326 9.18303 0.96499
35 4 -1.41785 10.6483 14.0231 1.29652
43 1 -5.45422 10.6051 14.4143 -0.652767
91 3 -2.67534 9.56576 8.27477 -0.83253
92 3 -2.53025 12.222 8.47527 -0.833862
96 3 -1.55942 9.11181 13.5736 -0.811716
98 3 -2.78652 10.9855 15.0778 -0.759714
116 2 -3.41969 8.6376 11.7678 -0.0317004
126 2 -1.86617 10.6463 10.5356 -0.0311975
127 2 -4.35537 10.7329 9.89489 -0.0383919
137 2 -5.09224 13.0797 11.1815 0.173934
139 2 11.449 9.63885 13.8104 0.130775
140 2 -5.26551 11.517 13.7879 0.167633
72 3 -1.31213 6.97758 12.1597 -0.835631
164 2 1.67447 13.0529 8.46992 0.160352
187 3 0.992431 12.9726 12.1368 -0.818839
97 3 -1.15366 11.5764 12.729 -0.836826
22 4 -0.542015 12.7059 11.7678 1.23692
34 4 3.29328 9.64347 12.3813 0.953132
269 2 10.1865 10.5974 14.908 0.14776
50 1 2.26228 10.5002 11.1 -0.684033
51 1 0.0636027 10.7293 15.217 -0.632552
83 3 0.00667983 7.14727 9.82977 -0.80418
95 3 3.63273 7.86355 11.9651 -0.799667
108 3 4.68883 10.2935 12.5695 -0.807603
120 2 -0.51759 12.0381 10.2618 -0.0224367
128 2 2.36198 9.81185 13.7944 -0.0390456
148 2 3.46101 7.69795 8.20199 0.192671
149 2 1.89409 8.66817 8.33907 0.170798
157 2 1.49905 9.77155 10.7474 0.172899
158 2 3.02636 10.7584 10.276 0.158883
159 2 1.77382 11.4933 11.5094 0.227436
160 2 0.8928 10.481 14.5062 0.145752
264 2 9.05446 11.4159 16.009 0.0321785
162 2 0.162311 11.771 15.6113 0.231796
214 2 4.6381 12.3144 8.90637 -0.0196174
229 2 4.42512 7.45823 13.4567 0.0209122
271 2 2.9918 10.2998 15.9455 0.158751
273 2 2.87291 12.6062 14.9856 0.152876
40 4 6.13147 10.3702 13.1902 0.906543
109 3 6.49969 11.0656 14.5493 -0.799225
131 2 7.10898 11.0675 12.0068 -0.0312608
132 2 6.78173 8.84982 13.2425 -0.0436629
186 1 8.72643 7.53395 10.3153 -0.675115
191 3 11.5918 7.23869 10.1401 -0.834594
193 2 11.2974 7.25561 15.6216 -0.0222201
194 2 9.80721 8.08855 11.8946 -0.00984766
204 2 8.81896 8.45889 9.64041 0.169804
205 2 7.94867 7.63364 11.1106 0.134473
219 2 8.22585 10.233 9.50023 0.147453
236 4 7.25765 11.3679 15.9831 1.00052
239 2 8.24544 9.04572 15.7149 0.158837
146 2 7.34662 5.20362 8.7074 0.188752
252 2 -3.21877 8.29026 16.0426 0.1914
274 2 9.61692 10.967 8.41546 0.176539
215 2 6.8217 8.61321 8.08445 0.15242
218 2 9.39523 9.13007 8.48139 0.164323
ITEM: TIMESTEP
200
ITEM: NUMBER OF ATOMS
274
ITEM: BOX BOUNDS xy xz yz pp pp pp
-8.2270900899579313e+00 1.7830453764893701e+01 -8.3877359779821692e+00
-2.7480281888039748e-02 1.3252502975983555e+01 1.1721996529179681e+00
7.8785158579286474e-03 1.6067621484142059e+01 3.8302269409551015e-01
ITEM: ATOMS id type x y z q
5 4 0.479159 1.94877 0.378269 1.25781
7 4 1.44696 2.01493 5.19773 1.13398
9 4 0.00668618 4.31241 2.21842 1.26061
10 4 0.344062 4.22636 7.0229 1.57356
41 1 1.78432 0.596608 6.44635 -0.682019
44 1 3.9523 3.96168 1.25853 -0.680477
55 3 0.793883 0.476797 1.00765 -0.804185
56 3 0.114068 1.70273 4.37837 -0.802289
58 3 -1.16095 3.53421 2.94745 -0.820937
59 3 0.879513 3.20128 1.31187 -0.81726
61 3 1.51875 3.33896 6.0396 -0.77898
62 3 -0.682813 5.27023 6.20633 -0.823001
78 3 0.932273 5.16152 3.14944 -0.845032
84 3 3.22063 6.13301 4.44201 -0.81478
111 2 2.95042 1.70506 4.28131 -0.0019677
112 2 -0.69206 5.46929 1.20776 -0.0340618
113 2 -1.7502 6.66571 4.32061 -0.0132686
133 2 -5.81687 12.7845 6.06144 0.193254
134 2 0.778181 0.15289 6.50664 0.23728
135 2 2.07428 1.1138 7.36503 0.232119
142 2 3.06626 4.58932 0.914972 0.174778
143 2 4.26187 4.11769 2.33337 0.194024
242 1 3.00274 0.483165 2.77066 -0.682416
243 2 2.61023 1.44141 2.41336 0.192866
244 2 2.88213 0.103717 3.86298 0.159588
25 4 1.73839 6.4133 3.82429 1.44609
21 4 5.95646 2.1576 5.42092 0.900821
24 4 5.39788 4.7156 0.309567 1.23254
26 4 5.52558 5.07726 7.21243 1.23691
38 4 6.8457 6.55346 2.81264 0.959667
45 1 7.24186 5.50336 7.85211 -0.679945
54 1 10.4456 5.63018 6.2287 -0.680382
74 3 5.57974 0.724917 6.17724 -0.796394
81 3 5.6966 3.49126 6.18035 -0.764708
85 3 4.96687 6.36527 6.37382 -0.804425
99 3 7.89888 1.28335 7.94025 -0.819471
103 3 6.26543 5.61608 1.40134 -0.733585
105 3 9.79742 3.41979 7.82436 -0.778038
118 2 5.13921 2.25286 3.95111 -0.0380479
119 2 7.52363 2.09262 4.82886 -0.0552394
130 2 8.25034 5.53922 3.61774 0.0327799
141 2 3.90166 2.87685 0.988625 0.170574
145 2 7.90553 4.60826 7.97811 0.229361
241 2 7.79236 10.2343 1.04337 0.170821
167 2 9.63228 7.00665 2.31571 0.162425
169 2 10.9917 6.57384 6.54365 0.222106
170 2 9.39076 5.66354 6.39729 0.176106
220 4 7.00068 0.0186136 1.80191 1.03398
221 1 8.85115 0.185723 1.3005 -0.653698
222 3 6.39984 0.907252 0.677707 -0.809788
223 2 6.87449 0.760573 3.26517 -0.0711326
224 2 8.97535 0.345937 0.193194 0.208034
225 2 9.16415 1.09308 1.96647 0.129875
255 2 1.00201 12.6301 3.22869 0.131816
257 2 9.72254 0.192654 5.18612 0.150606
46 1 2.2273 7.89986 7.97956 -0.657056
4 4 15.0883 2.1855 3.83854 1.53793
39 4 11.1329 4.31832 7.45025 1.30872
37 4 12.8247 2.01459 5.82262 1.3195
101 3 14.02 2.53436 4.98041 -0.820219
102 3 13.1068 0.765184 6.74698 -0.840422
106 3 12.0846 3.20287 6.61071 -0.782597
129 2 11.6967 1.48918 4.70816 -0.0190299
171 2 10.7202 5.22476 5.19863 0.161662
231 1 11.7704 0.963494 1.84107 -0.644179
232 3 14.258 0.943372 2.95534 -0.769358
233 2 11.0088 0.195608 2.42298 0.13573
234 2 11.8033 0.851912 0.687854 0.177971
235 2 11.7224 2.00437 2.17818 0.172325
249 1 12.454 5.08774 0.240357 -0.655928
250 2 12.359 6.04831 0.921763 0.135565
1 4 -6.8329 12.3008 1.93714 1.26655
3 3 -5.90954 11.2215 0.941187 -0.777791
16 4 -2.80706 8.59253 7.07849 1.51785
17 4 -4.01102 10.3639 4.75872 1.26317
67 3 -3.76177 7.3677 7.66526 -0.835086
69 3 -5.59687 10.6733 4.68054 -0.834015
70 3 -3.56684 9.36609 5.85536 -0.84096
90 3 -3.38607 9.78051 3.37308 -0.803247
115 2 -3.27451 11.8239 5.20238 0.0307784
152 2 -0.612337 8.66822 0.914706 0.142009
251 1 -5.00498 8.73863 0.765253 -0.648606
240 2 6.27138 9.1864 0.868582 0.136408
253 2 -4.8443 8.97442 1.88883 0.228591
265 2 3.94809 0.0927685 2.25596 0.183082
19 4 -1.60988 12.9208 7.24215 1.40966
254 1 1.39919 12.2693 4.40049 -0.658027
12 4 -0.673433 6.73224 5.6372 1.34705
28 4 4.52427 6.87985 4.94344 1.25727
30 4 2.56704 8.20354 1.32071 1.05591
31 4 -1.79117 9.97102 2.83497 1.27116
33 4 0.155816 11.0476 5.24554 1.10326
47 1 2.07603 10.1473 1.23756 -0.662192
48 1 -1.24217 8.38406 1.93871 -0.658608
49 1 1.31048 9.69721 6.03552 -0.650065
68 3 -1.22611 7.82798 6.60313 -0.793176
79 3 0.735949 7.16722 5.08025 -0.825697
87 3 1.89854 7.54324 2.57887 -0.83502
266 2 11.9361 4.17897 0.682112 0.159982
89 3 -1.67883 11.3286 1.86134 -0.78616
93 3 -0.727351 10.2941 4.01382 -0.791861
94 3 -0.696181 11.9576 6.29888 -0.83403
122 2 4.15941 8.53523 5.17973 -0.0345789
125 2 3.75007 9.44813 1.76581 0.0229533
147 2 1.90524 7.6885 6.9227 0.235041
150 2 1.48893 10.2313 2.16323 0.179733
151 2 -0.596043 7.82235 2.7 0.188327
153 2 -2.25811 7.9315 1.70831 0.161492
154 2 2.03462 10.45 6.53002 0.128124
155 2 1.82645 9.00305 5.35285 0.215769
156 2 0.601978 9.25803 6.80993 0.232287
256 2 2.50644 11.8482 4.32633 0.148282
258 1 4.54981 11.6524 3.99639 -0.67001
260 2 3.83175 10.9098 3.59952 0.137448
261 2 4.15326 12.174 4.87176 0.182496
270 2 0.922978 12.1213 1.67798 0.168558
272 2 2.5586 11.1236 0.946869 0.193439
268 2 10.4514 8.24324 0.494717 0.124405
144 2 7.62314 6.28539 7.07751 0.152286
238 3 5.11314 11.7833 1.04096 -0.797381
2 3 8.85407 11.4719 3.24315 -0.795288
53 1 8.76755 7.15772 3.01964 -0.652078
104 3 5.71653 6.8241 3.87181 -0.834121
166 2 7.74915 8.15095 2.49111 0.0637378
168 2 9.05666 7.37603 4.05573 0.153027
206 4 9.32975 10.5149 4.3654 1.25064
207 4 5.54989 12.9788 7.91104 1.25818
208 4 7.61555 10.4674 7.17352 1.06395
209 1 6.53031 8.97455 7.01016 -0.651017
259 2 5.55411 11.1914 4.22441 0.185239
211 3 8.49223 10.5291 5.73462 -0.779946
212 3 6.5458 11.7191 7.50672 -0.77822
213 2 9.00054 9.03853 3.62268 0.00284657
237 1 7.17444 9.70965 0.27111 -0.67458
216 2 6.52433 8.66557 5.88859 0.167747
217 2 5.49369 9.23336 7.39466 0.164299
230 4 4.84801 12.7751 2.32735 1.13992
60 3 -0.497618 3.05562 7.69847 -0.830992
82 3 1.13738 5.21888 8.03767 -0.840851
271 2 1.32235 9.66936 0.324381 0.134764
215 2 7.10998 8.2387 7.71081 0.150625
252 2 -4.10229 8.18959 0.306257 0.169888
65 3 -2.39044 6.45306 9.70235 -0.858398
8 4 2.09408 2.1254 10.7229 1.29408
13 4 0.530134 4.41552 12.0875 1.2391
14 4 -1.11206 6.40754 10.5681 1.49617
20 4 4.73054 3.05219 9.38892 1.27407
27 4 1.50645 6.419 9.00696 1.39335
29 4 3.73983 6.41387 11.1455 0.959363
42 1 2.42213 0.674597 11.9407 -0.688171
57 3 0.756765 1.72557 9.62845 -0.796388
63 3 -0.153569 3.83985 13.4329 -0.849264
64 3 1.77525 3.40691 11.6816 -0.833143
66 3 -0.575998 4.54701 10.9823 -0.829848
73 3 3.43245 2.29846 9.80051 -0.81081
80 3 4.71916 4.51277 8.59304 -0.771848
218 2 9.61398 9.56625 8.60055 0.171541
86 3 2.63763 6.23634 10.1094 -0.822307
114 2 1.21362 5.93088 12.4577 -0.0139762
117 2 5.43987 1.89509 8.36901 0.0580853
124 2 3.89503 5.04729 12.1316 -0.0226715
136 2 2.0286 1.0548 12.8995 0.168886
226 4 4.48946 6.73664 14.9848 0.887014
228 2 3.51506 5.39375 14.9416 -0.0648015
245 1 2.74389 2.53441 14.9182 -0.688828
246 2 2.15524 2.62902 13.982 0.199674
247 2 3.39829 1.57926 14.8653 0.173869
248 2 3.33167 3.40432 15.1625 0.169309
138 2 -6.50432 12.704 11.5151 0.160406
71 3 -3.13087 6.98728 13.9718 -0.824766
23 4 7.18336 2.65275 11.0883 1.23228
36 4 9.01279 2.12325 8.68966 1.30283
52 1 10.372 0.876262 9.15774 -0.686856
75 3 5.7068 3.20186 10.6872 -0.828021
76 3 6.99246 1.13813 11.6633 -0.817655
77 3 7.26731 3.88192 15.6843 -0.768292
100 3 8.37865 2.79346 10.0118 -0.825013
121 2 7.63203 3.65158 12.3729 0.0207027
123 2 5.26788 6.34364 10.4314 -0.0138068
163 2 11.3102 1.44234 8.81786 0.188072
165 2 10.2286 0.695667 10.2553 0.225248
179 4 7.38088 2.14307 15.3734 1.27952
180 4 9.91076 1.38409 13.4366 1.28229
181 4 11.3375 4.06511 12.7181 1.3213
183 1 5.75852 1.44219 14.6941 -0.672051
184 1 11.1664 0.373031 14.4072 -0.661617
188 3 8.62259 1.77692 14.3347 -0.80486
189 3 10.6709 2.64929 12.8618 -0.824088
192 3 10.4424 5.31467 11.7601 -0.75579
195 2 5.6601 1.96189 13.681 0.189531
196 2 4.9763 1.74987 15.4533 0.166143
197 2 5.84246 0.322309 14.594 0.247635
203 2 8.45179 6.53812 9.59867 0.136833
227 3 5.97811 6.3537 15.0912 -0.741733
182 4 10.2524 6.74921 10.9475 1.05759
210 1 8.83701 10.3873 8.82258 -0.660947