ITEM: TIMESTEP
0
ITEM: NUMBER OF ATOMS
362
ITEM: BOX BOUNDS xy xz yz pp pp pp
-8.3819999999999997e+00 1.7202700000000000e+01 -8.3819999999999997e+00
0.0000000000000000e+00 1.3430600000000000e+01 3.0499999999999999e-02
0.0000000000000000e+00 1.7410833000000000e+01 3.0270000000000002e-01
ITEM: ATOMS id type x y z
3 4 4.03408 0.190809 8.25192
2 4 -0.493827 2.75487 5.09969
5 4 2.51257 2.16882 6.40338
7 4 -0.105836 3.6515 2.00341
14 4 4.77128 2.57538 4.37786
88 2 -0.0611089 2.23023 0.987125
125 2 -2.10119 5.97463 3.93974
60 1 -0.826246 4.37773 6.16652
61 1 1.98443 3.49169 7.65404
25 4 5.64096 4.34942 7.85906
69 1 0.388744 5.4303 1.65925
87 2 -1.18295 5.21435 1.4151
23 4 2.95906 6.46034 4.21774
93 2 3.51877 4.99362 3.57446
283 4 -3.11372 5.70999 8.33637
116 2 1.86096 1.17371 3.06876
117 2 -1.81074 3.87269 6.60134
118 2 -0.876902 5.304 5.46471
119 2 0.0359916 4.55089 6.96364
120 2 0.812376 3.57427 7.53569
121 2 2.52174 4.39482 7.19568
70 1 1.1074 6.56774 4.52939
201 3 7.56314 0.861214 1.37153
95 2 6.1261 3.68065 6.42668
142 2 0.838106 6.09573 0.863194
143 2 1.64607 4.15126 1.58326
144 2 0.616402 5.88134 2.73809
147 2 0.929002 5.41333 4.46141
350 2 4.52284 5.45971 0.280488
191 3 0.849977 1.8708 5.58761
192 3 3.0085 0.953412 7.26766
194 3 -0.281621 3.29312 3.56294
199 3 4.58731 1.19212 3.57159
200 3 3.70674 2.74109 5.49679
59 1 2.06753 0.134023 2.74164
203 3 6.50556 2.58311 5.26428
208 3 4.54832 3.79163 3.31871
62 1 -3.09002 6.04719 4.56249
212 3 4.52247 5.49892 7.69558
287 2 -1.74867 5.63745 7.33481
347 2 5.67552 0.264299 7.59236
129 2 -1.52179 6.5084 0.179841
123 2 -3.10705 5.17248 5.17827
6 4 0.310838 1.208 11.7983
9 4 0.864025 4.24306 12.9152
17 4 4.70361 2.40307 10.0285
20 4 4.81692 3.0922 16.2351
324 2 -0.694045 1.98867 16.2639
91 2 3.6103 3.66183 17.1361
28 4 0.909624 6.20232 15.3258
29 4 3.91332 6.51168 11.687
63 1 -0.232677 5.43269 11.9578
67 1 3.3531 3.44485 11.0511
68 1 1.33041 0.823335 10.2122
89 2 2.57032 4.44465 12.5626
328 2 2.61981 1.25979 14.7168
92 2 4.17459 1.62922 15.6174
205 3 6.0101 2.77808 17.0316
98 2 -0.514555 6.52593 16.2946
99 2 3.60645 5.32037 10.451
126 2 -1.10369 4.89421 11.3808
127 2 0.69476 5.91937 11.373
128 2 -0.626922 6.21225 12.7016
136 2 2.95465 2.67233 11.6769
137 2 2.54035 3.87109 10.3381
138 2 4.01261 4.23388 11.7004
139 2 1.91441 1.74098 9.96579
140 2 0.598016 0.565422 9.44935
86 2 -1.38444 3.25718 9.47022
195 3 0.590679 2.78923 12.4214
202 3 4.06207 0.679114 9.73647
122 2 2.38846 3.33895 8.77284
206 3 5.93704 2.64063 10.985
207 3 7.66418 1.03347 11.914
213 3 5.0449 4.12499 15.0873
214 3 0.591818 4.78546 14.5715
215 3 2.2446 6.19054 16.1841
216 3 4.72559 5.68023 12.8191
353 2 6.60181 0.520362 9.00065
297 2 -1.91538 6.14191 14.591
299 2 -2.90163 6.09648 17.0385
348 2 -2.42078 5.24079 9.82694
326 2 4.67339 1.12485 13.6734
325 1 3.97229 0.461381 14.0302
210 3 5.10741 3.12376 8.71243
322 2 0.0304226 1.40419 14.5975
296 4 -3.05079 5.42103 15.5046
27 4 5.59588 4.93503 13.8558
349 2 -4.55794 11.6184 8.11019
1 4 -4.43962 12.909 2.8303
10 4 -2.4498 8.48985 1.26895
11 4 -3.76921 11.2535 0.28117
101 2 1.12303 9.51985 0.418659
289 2 -3.09624 11.3109 7.15053
318 2 -3.39712 11.7904 4.90382
317 1 -4.25152 11.5487 4.26371
31 4 -1.02622 10.3507 3.09046
33 4 2.15308 8.99189 7.94504
34 4 0.634341 10.5189 5.73382
134 2 -2.05942 11.7807 8.34682
115 2 -6.74753 12.95 1.76689
13 4 0.338884 12.9147 1.5003
74 1 2.13949 9.85204 2.05603
100 2 -2.66852 10.87 3.28352
319 2 -4.21541 10.4935 3.84826
295 3 -3.53769 7.18126 8.59699
290 2 -2.80344 9.63406 6.87588
16 4 0.102687 13.0662 7.58495
288 2 -4.95148 9.78781 7.93594
124 2 -3.13636 6.95614 5.23094
145 2 0.538604 7.20801 3.81765
146 2 1.04516 7.03295 5.58071
114 2 -6.61656 12.5005 3.58716
158 2 1.23103 9.20058 2.00245
196 3 -3.50981 7.58044 2.0755
197 3 -3.06994 9.78133 0.663139
198 3 -3.83475 12.2477 1.5734
320 2 -5.23364 11.757 4.8292
217 3 3.28759 7.50508 3.13714
218 3 3.37694 7.87455 0.371356
219 3 -1.10307 8.93485 2.27414
220 3 -0.260085 11.5023 2.35764
221 3 3.05051 7.68003 8.07738
222 3 -0.386705 10.328 4.55721
223 3 1.43698 9.0859 6.59029
224 3 0.278859 11.7618 6.76174
285 1 -3.19331 10.2898 7.65065
211 3 3.7417 6.73983 5.64107
291 2 -2.34831 10.185 8.62785
19 4 -0.598692 12.8024 12.7696
32 4 0.806906 11.1543 16.7218
35 4 1.88267 8.1067 13.2156
36 4 -1.88249 11.4661 15.4195
37 4 0.482372 10.3046 11.3312
75 1 -0.623236 9.2724 10.103
135 2 -0.744599 12.1949 9.67406
130 2 -0.91459 8.46617 16.8345
103 2 -2.6202 10.0657 14.7269
294 2 -5.16211 8.82422 10.7792
160 2 -0.106413 8.26629 10.0106
161 2 -0.531407 9.91368 9.17098
162 2 -1.66351 9.23116 10.4718
225 3 0.937276 7.27698 14.214
226 3 2.60323 7.17437 12.1568
227 3 -0.578614 10.9091 16.0748
228 3 -1.4523 12.5831 14.2095
229 3 -2.99368 12.3226 16.3287
230 3 0.899235 9.13929 12.352
231 3 -0.631683 11.4369 11.8905
277 3 -5.20716 11.309 17.2476
102 2 0.910001 8.65114 9.09479
272 4 -6.25709 12.8062 13.914
273 4 -6.56652 11.0391 16.5142
274 2 -4.66661 12.3659 12.852
131 2 -2.64606 7.59328 16.2286
327 2 -3.90182 13.0959 14.9058
278 3 -6.45778 11.6933 15.0312
284 4 -3.94704 8.69135 9.03079
286 1 -3.70668 8.99193 10.7975
292 2 -3.40019 10.1215 10.8242
293 2 -3.12953 8.26854 11.4714
64 1 -1.83992 7.76176 17.1042
141 2 -6.31085 13.1683 10.579
266 3 2.94844 9.10179 14.1605
276 3 -7.57561 13.1621 12.8245
151 2 4.17864 7.05399 14.6023
66 1 -1.31292 12.6385 8.80437
24 4 3.55551 6.90698 16.8968
15 4 7.37063 2.4293 0.768114
18 4 8.07109 2.26901 5.73715
22 4 6.39179 4.4731 2.82376
107 2 9.61386 4.61065 8.51403
39 4 10.2742 1.7017 3.37779
45 4 11.6887 4.05452 1.52353
354 2 14.313 2.57976 5.07894
48 4 12.0433 3.46028 7.55245
166 2 12.2293 0.0872569 3.79096
71 1 5.97245 5.82687 1.56665
76 1 15.0299 1.73185 5.17287
77 1 11.9469 1.09157 4.18192
80 1 11.9465 3.90456 5.75485
94 2 8.54453 3.72056 6.55396
331 2 16.5679 0.523636 0.827486
106 2 12.7193 1.85465 7.66091
246 3 10.6381 3.39705 8.28905
109 2 11.6086 5.79054 6.3162
150 2 6.13711 5.36046 0.566325
335 2 13.1691 0.662493 6.40006
164 2 14.886 1.02904 4.31457
165 2 12.6592 1.93939 3.93313
167 2 11.5298 1.03155 5.25004
174 2 10.7876 4.23081 5.80381
175 2 12.0569 2.84992 5.14842
176 2 12.654 4.72529 5.31226
163 2 15.0815 1.24482 6.19642
209 3 7.13533 3.44925 1.97278
232 3 9.86488 0.46174 2.55104
233 3 9.1635 2.01378 4.58083
334 2 11.6331 0.155775 7.503
236 3 10.0249 0.567616 8.54607
241 3 10.8934 2.94804 2.49509
242 3 12.6185 3.23527 0.464652
243 3 12.6425 4.97438 2.44329
244 3 7.1371 5.1441 4.12289
245 3 10.7011 5.02517 0.671432
234 3 12.7202 0.526634 0.351467
247 3 13.0123 4.64522 7.99172
248 3 7.00732 5.05973 8.41169
250 3 9.34183 6.3498 5.08256
329 1 15.5983 1.00402 1.25509
330 2 15.2569 1.91994 0.729254
332 2 15.6709 1.1308 2.34531
8 4 12.8935 6.3917 3.10851
46 4 7.84045 6.54674 4.49068
204 3 8.05567 1.23607 6.86044
47 4 10.0302 6.502 0.267211
149 2 4.90229 6.11646 1.79951
4 4 15.0688 1.88706 10.0904
21 4 7.57453 2.40674 11.0592
40 4 12.449 2.21457 17.0399
42 4 9.9539 1.8798 9.33294
44 4 12.2605 2.76501 11.0476
73 1 7.63324 5.01483 13.3725
79 1 8.49644 6.21606 10.6075
298 2 14.5794 3.86652 15.6081
96 2 8.15089 3.61788 12.1098
104 2 12.0095 4.42971 10.1942
110 2 12.1028 3.26097 12.7023
321 1 16.4341 1.2674 15.3875
154 2 7.88472 5.50752 12.4158
155 2 8.54528 4.77801 14.0073
156 2 6.80833 6.22929 14.3086
171 2 9.35072 5.3791 10.8092
172 2 7.34664 5.92095 10.7998
193 3 16.0259 1.12084 11.1013
237 3 8.53913 2.26724 9.80381
235 3 14.826 0.909482 8.88628
239 3 13.6916 2.27142 10.7415
240 3 10.9014 2.04755 10.7323
279 4 14.6662 1.34658 14.7267
340 1 8.72903 6.79723 16.376
281 3 13.7747 2.29327 15.7147
97 2 6.68221 3.59964 13.0426
338 2 9.82741 0.826502 12.6297
300 4 9.63091 3.05833 16.1415
301 4 11.1821 5.52196 14.2105
302 1 8.4579 2.27819 14.9829
303 1 12.1796 5.03628 11.8063
305 2 8.93075 1.46541 14.3458
306 2 8.04047 3.31973 14.2924
307 2 7.64875 1.80482 15.6546
308 2 11.2185 4.71108 12.6099
309 2 13.1877 4.74193 12.2395
310 2 12.0932 6.17999 11.7733
314 3 10.9281 2.13902 16.2843
315 3 10.0586 4.61657 14.9749
316 3 12.7862 5.54013 14.8358
360 2 8.55222 5.66411 16.4487
280 2 15.8343 2.29708 13.8269
49 4 8.36238 5.78349 8.79994
152 2 5.66872 6.83307 15.8052
238 3 8.65209 3.2816 17.3528
282 3 14.0227 0.270164 13.7832
38 4 5.80207 12.8306 0.9116
261 3 3.20211 10.3925 8.35046
265 3 8.04216 9.44489 6.14916
50 4 10.7428 6.96354 5.4196
51 4 8.4981 8.51363 2.19887
52 4 5.32608 10.8861 3.17401
54 4 9.22771 8.70858 7.2172
56 4 7.4154 10.6921 5.4837
78 1 5.81913 8.13816 7.14414
81 1 9.69246 9.7908 2.90984
82 1 2.2136 11.287 4.94447
83 1 8.58722 12.157 5.36157
105 2 6.92642 7.13834 5.81628
111 2 3.98757 11.2899 4.08693
112 2 7.10927 12.0314 6.60754
362 3 0.942379 12.2465 0.144759
148 2 6.69698 6.678 1.71119
159 2 2.19999 10.6626 1.31896
168 2 5.44104 8.92865 7.87584
180 2 2.83378 10.3053 4.85774
169 2 5.89988 8.59075 6.04303
170 2 6.78882 7.74016 7.50036
30 4 3.58223 8.62136 2.04248
178 2 9.4611 9.66239 4.04207
179 2 1.85763 11.7787 3.96489
355 2 4.56333 11.9896 6.77863
181 2 2.71657 12.0117 5.69671
182 2 9.10196 11.8516 4.37258
333 1 4.36039 13.0935 7.17625
177 2 9.4875 10.8147 2.51393
249 3 11.7099 7.09299 4.12823
251 3 7.77732 7.68086 3.4411
252 3 9.49218 7.44213 1.37957
253 3 4.8278 9.61717 2.32997
254 3 5.55613 12.2298 2.33582
256 3 7.62451 9.39401 0.933023
184 2 7.82423 13.1869 5.29395
258 3 8.76078 7.35919 8.0192
259 3 10.6128 8.30788 6.22796
260 3 9.5267 10.0216 8.23752
264 3 6.39913 10.6813 4.29165
361 2 10.6904 9.33964 2.4908
183 2 9.37865 12.3212 6.11865
157 2 2.11562 10.3758 3.13968
359 2 11.7124 8.38775 0.128347
26 4 4.22679 6.97886 7.12859
12 4 8.8949 10.4569 9.64768
43 4 5.0087 12.2508 12.886
53 4 7.67352 10.8293 17.1731
55 4 3.27881 10.7993 9.88178
57 4 3.1037 10.6189 14.662
58 4 6.00613 10.0891 11.1869
65 1 9.55894 9.28086 10.9296
72 1 4.71218 7.41265 15.503
84 1 4.2613 10.4943 16.2326
85 1 6.48131 8.42165 12.007
275 2 10.4964 9.34662 16.2985
108 2 4.99829 7.6512 11.0104
132 2 8.72787 8.76598 11.4203
312 2 9.36859 7.08546 13.6762
336 1 1.24315 13.0386 13.2372
153 2 4.73287 8.62049 15.5904
173 2 8.86274 7.33056 10.6934
185 2 5.33127 10.2982 15.8259
186 2 3.87525 9.6012 16.9124
187 2 4.19187 11.5377 16.6836
188 2 6.95638 7.91935 11.1164
189 2 5.78153 7.67402 12.5456
190 2 7.34308 8.929 12.7181
352 2 10.2916 8.51945 10.5622
255 3 9.10727 11.5376 17.1716
262 3 4.20583 12.5771 9.91026
133 2 10.0421 10.0842 11.5993
267 3 3.7873 11.5106 13.5746
268 3 1.87273 11.1896 15.5072
269 3 7.36677 10.5217 9.85973
270 3 4.45951 9.95855 10.635
271 3 6.14077 11.084 12.4284
358 2 12.312 6.98845 16.9661
357 2 11.5079 8.09411 15.6946
304 1 10.4891 7.19287 13.8201
311 2 10.7436 8.08749 14.5616
356 2 1.79144 12.1729 12.7892
313 2 11.0163 7.35639 12.7853
337 2 1.42905 13.2132 14.3161
339 1 11.5654 7.80167 16.8122
257 3 6.44634 12.0289 17.2924
343 1 7.29772 9.88762 15.5804
344 2 8.29441 9.50841 15.2511
345 2 6.85889 10.5035 14.8066
346 2 6.55749 9.06621 15.8783
351 2 4.5296 13.0579 11.4892
113 2 6.46432 11.3189 8.73853
41 4 5.31974 12.671 8.78855
342 2 7.83378 7.41822 16.576
263 3 1.79894 10.8902 10.5524
341 2 9.25926 7.06243 15.4106
90 2 9.57962 12.0222 10.1731
323 2 7.8801 13.226 15.7298
ITEM: TIMESTEP
100
ITEM: NUMBER OF ATOMS
362
ITEM: BOX BOUNDS xy xz yz pp pp pp
-8.3819999999999997e+00 1.7202700000000000e+01 -8.3819999999999997e+00
0.0000000000000000e+00 1.3430600000000000e+01 3.0499999999999999e-02
0.0000000000000000e+00 1.7410833000000000e+01 3.0270000000000002e-01
ITEM: ATOMS id type x y z
115 2 2.23844 0.267041 1.3451
2 4 -0.593919 2.73543 5.15149
5 4 2.40568 2.23125 6.36543
7 4 -0.0193476 3.60229 2.05098
14 4 4.66434 2.57324 4.3366
88 2 -0.277749 2.29643 0.961156
124 2 -3.51991 6.05834 5.7493
60 1 -0.807248 4.3165 6.23021
61 1 2.04318 3.44761 7.69939
25 4 5.71558 4.36504 7.81331
69 1 0.554241 5.39834 1.71051
87 2 -0.853622 5.1814 1.56066
23 4 3.00006 6.46196 4.15895
93 2 3.6067 4.93368 3.76265
283 4 -3.01994 5.63822 8.18002
116 2 1.7402 1.09974 2.91961
117 2 -1.83719 3.91642 6.68005
118 2 -0.973387 5.22461 5.57731
119 2 0.0650611 4.40385 7.01308
120 2 0.862452 3.57456 7.77484
121 2 2.51575 4.41616 7.19655
70 1 1.17738 6.56102 4.67254
201 3 7.52474 0.881085 1.11576
95 2 5.94419 3.59754 6.34673
142 2 0.934757 6.17273 0.922244
143 2 1.7739 4.04996 1.68571
144 2 0.775569 5.86098 2.82503
147 2 1.04987 5.3584 4.59102
350 2 4.39185 5.17524 0.433583
191 3 0.823843 1.97107 5.75688
192 3 3.00238 0.66984 7.16623
194 3 -0.289149 3.19727 3.54262
199 3 4.44903 1.16602 3.58445
200 3 3.43404 2.89752 5.3341
59 1 2.07301 0.133347 2.46846
203 3 6.34829 2.62232 5.13883
208 3 4.6813 3.75328 3.31955
62 1 -3.14852 5.98474 4.67925
212 3 4.60015 5.42318 7.75455
287 2 -1.9925 5.79955 6.88961
149 2 4.72483 5.72024 1.94576
129 2 -1.27699 6.49717 0.542023
204 3 7.88034 1.00428 6.44883
123 2 -3.01232 4.81416 4.24636
210 3 5.06135 3.18085 8.54243
6 4 0.218161 1.15559 11.8924
9 4 0.877868 4.12681 13.0738
17 4 4.70611 2.406 9.8738
20 4 4.78595 3.02181 16.3249
324 2 -0.586542 2.12278 16.2529
91 2 3.42017 3.23916 17.133
28 4 0.93605 6.17549 15.2968
29 4 4.07207 6.4544 11.6328
63 1 -0.0959132 5.21077 11.8747
67 1 3.3081 3.55226 10.8356
68 1 1.19879 0.929894 10.2797
89 2 2.53703 4.34658 12.509
328 2 2.82782 1.55911 14.6604
92 2 4.42058 1.51564 15.6104
205 3 6.01419 2.9067 17.3037
98 2 -0.34208 6.43793 16.5554
99 2 3.74183 5.41105 10.3162
126 2 -0.91101 4.50809 11.5596
127 2 0.4613 5.54489 10.9181
128 2 -0.474562 6.00663 12.5961
136 2 2.84121 2.57026 11.4377
137 2 2.6035 3.98773 10.0784
138 2 3.94188 4.15245 11.5465
139 2 1.47746 2.01448 10.091
140 2 0.699552 0.470257 9.2571
86 2 -1.02128 2.8701 9.24229
195 3 0.588397 2.71141 12.6325
202 3 4.04942 0.836396 9.62088
322 2 0.108064 1.22889 14.7486
206 3 6.02835 2.42854 10.7845
207 3 7.62518 0.984859 11.9312
213 3 5.01465 4.03984 15.1716
214 3 0.705234 4.63441 14.6489
215 3 2.21551 6.31641 16.2116
216 3 4.81168 5.68587 12.7211
353 2 6.75614 0.789308 8.98562
297 2 -2.01142 6.24222 14.557
299 2 -2.95682 6.43497 17.1938
348 2 -1.87194 5.11798 9.32196
326 2 4.55786 1.46623 13.2999
325 1 3.92364 0.640488 13.9189
296 4 -3.15346 5.76492 15.6203
24 4 3.64324 6.79232 16.9544
280 2 -1.40307 2.52836 13.9897
141 2 2.05274 0.293411 10.6078
122 2 2.40962 3.22047 8.75196
349 2 -4.6893 11.4812 8.51325
1 4 -4.52664 12.921 3.01556
10 4 -2.38274 8.49079 1.39645
11 4 -3.84747 11.0944 0.335698
101 2 1.06855 9.74257 0.341582
289 2 -3.31965 11.1679 7.28424
318 2 -3.22955 11.6375 5.01983
317 1 -4.25136 11.6551 4.54395
31 4 -1.09062 10.4668 3.19803
33 4 2.18122 8.96721 7.97609
34 4 0.691001 10.483 5.7936
157 2 2.03463 10.3158 3.22759
347 2 -2.71661 13.1267 7.85262
13 4 0.307941 12.7698 1.56475
74 1 2.04271 9.8532 2.12195
100 2 -2.70007 10.9239 3.51757
319 2 -4.54238 10.6438 4.14768
295 3 -3.64628 7.05306 8.54924
290 2 -2.8591 9.40778 7.12133
16 4 0.19124 13.1821 7.61126
288 2 -5.1232 9.7724 7.93509
277 3 -5.29832 10.7189 0.115756
145 2 0.583474 7.11718 3.86069
146 2 1.00311 6.95254 5.77534
114 2 -7.02594 12.3604 2.70875
158 2 1.20895 9.12999 1.87178
196 3 -3.3609 7.39602 2.22351
197 3 -3.19645 9.67086 0.810878
198 3 -3.79041 12.2058 1.70309
320 2 -5.03126 11.9524 5.2984
217 3 3.31569 7.43954 3.00375
3 4 -4.36593 13.1748 8.26269
219 3 -1.15402 9.07518 2.44084
220 3 -0.369395 11.5897 2.40328
221 3 3.10807 7.65883 7.95708
222 3 -0.438171 10.1324 4.65255
223 3 1.28058 9.11906 6.57141
224 3 0.227813 11.5583 6.99646
285 1 -3.39643 10.159 7.81387
211 3 3.75215 6.82619 5.55092
26 4 4.22334 6.89072 7.06591
183 2 -7.60697 12.2478 6.48435
125 2 -2.2914 6.72216 4.53877
19 4 -0.572746 12.733 12.7881
32 4 0.713024 11.2614 16.652
35 4 1.89888 8.22154 13.3109
36 4 -1.94868 11.6413 15.3324
37 4 0.489045 10.2151 11.3683
75 1 -0.550198 9.06658 10.1514
135 2 -0.613074 12.7667 9.98469
130 2 -0.648899 8.50747 17.2189
103 2 -2.63425 10.3393 14.4812
294 2 -5.05037 8.83236 11.0705
160 2 -0.106944 8.04264 10.3904
161 2 -0.305223 9.56735 9.20224
162 2 -1.80176 9.01142 10.367
225 3 0.950967 7.35928 14.2711
226 3 2.80389 7.10517 12.1671
227 3 -0.748467 10.971 16.1691
228 3 -1.45902 12.6504 14.1538
229 3 -3.11378 12.0613 16.3966
230 3 1.02918 9.2206 12.4699
231 3 -0.505891 11.3756 11.8324
66 1 -1.12385 12.8915 9.00737
102 2 1.06983 8.43948 9.20557
272 4 -6.19288 12.8338 13.9459
273 4 -6.45131 10.8917 16.4869
274 2 -4.74767 12.4093 12.8035
131 2 -2.30538 7.57865 15.9977
327 2 -3.82388 13.2301 14.6826
278 3 -6.26284 11.7559 15.1451
284 4 -4.08488 8.60949 9.07095
286 1 -3.77382 8.9612 10.8686
292 2 -3.33646 9.82765 11.378
293 2 -3.0902 8.02139 11.0593
64 1 -1.50852 7.74508 17.3821
276 3 -7.35721 13.1906 12.9721
291 2 -2.61436 10.1324 9.03131
134 2 -1.86675 12.0563 8.74156
15 4 7.28947 2.42082 0.689554
18 4 7.96153 2.30154 5.60881
22 4 6.4532 4.50384 2.80813
107 2 9.73463 4.77827 8.57191
39 4 10.2653 1.7442 3.13752
45 4 11.5787 3.97746 1.49993
354 2 14.252 2.41589 5.3638
48 4 12.0401 3.44223 7.43134
166 2 12.1824 0.317893 3.46389
71 1 5.89972 5.76927 1.50824
76 1 15.0401 1.55889 5.39879
77 1 11.956 1.23272 4.03971
80 1 11.7383 4.06282 5.70052
94 2 8.46174 3.58645 6.59214
331 2 16.2897 0.589056 0.409089
106 2 12.7239 1.821 7.4267
246 3 10.6102 3.37991 8.31212
109 2 11.5552 5.89376 6.38273
150 2 6.13933 5.36706 0.502193
335 2 12.8098 0.688583 6.22014
164 2 14.799 0.720966 4.6113
165 2 12.589 2.04065 3.74922
167 2 11.9553 1.0597 5.23637
174 2 10.6876 4.48166 5.75123
175 2 11.8178 2.95296 4.98857
176 2 12.4877 4.81157 5.26432
163 2 15.1583 1.18101 6.48357
209 3 7.25605 3.3763 2.06425
232 3 9.88892 0.379637 2.46995
233 3 9.12405 2.23656 4.4914
47 4 10.017 6.51417 0.132264
236 3 9.88086 0.656776 8.24251
241 3 10.705 2.96708 2.30235
242 3 12.5943 3.22578 0.52616
243 3 12.4296 5.04899 2.54506
244 3 7.12881 5.40543 3.99988
245 3 10.6107 4.98598 0.692828
234 3 12.7705 0.453278 0.242911
247 3 13.1226 4.43924 7.96476
248 3 7.12966 5.04499 8.36052
250 3 9.39034 6.30054 5.10265
329 1 15.4969 0.940984 1.12548
330 2 14.9831 1.87896 0.840275
332 2 15.7753 0.856625 2.28848
8 4 12.8375 6.46654 3.2397
235 3 14.6704 0.795877 8.64018
49 4 8.45674 5.89392 8.70304
4 4 15.0609 1.72916 9.96776
21 4 7.57162 2.32449 11.08
40 4 12.4264 2.16354 16.8543
42 4 9.94518 2.0142 9.44135
44 4 12.3494 2.86155 11.0218
73 1 7.6748 5.05187 13.4097
79 1 8.49029 6.35991 10.5474
282 3 14.1275 0.321873 13.8095
96 2 8.05851 3.65364 12.118
104 2 11.8676 4.50505 10.2129
110 2 12.4845 3.1936 12.7065
321 1 16.3825 1.33165 15.4622
154 2 7.916 5.60045 12.4074
155 2 8.59818 4.76146 14.006
156 2 6.87723 6.22747 14.5178
171 2 9.13265 5.44717 10.8521
172 2 7.36272 6.10773 10.7046
193 3 15.8994 1.11298 11.2176
237 3 8.50978 2.45292 9.77878
307 2 7.59626 1.9484 15.4707
239 3 13.7646 2.49185 10.4661
240 3 10.9706 1.76411 10.6616
279 4 14.6033 1.47722 14.7758
340 1 8.61002 6.67059 16.3954
281 3 13.5483 2.22704 15.7497
97 2 6.60416 3.60559 13.0973
338 2 9.83826 1.07781 12.7181
300 4 9.71962 3.08942 15.9745
301 4 11.1698 5.51101 14.1811
302 1 8.46278 2.35954 14.8135
303 1 12.1461 4.98072 11.9271
305 2 8.98528 1.51144 14.1194
306 2 8.1555 3.3494 14.2175
27 4 5.63925 4.95552 13.8485
308 2 11.3782 4.36179 12.7495
309 2 13.269 4.82828 12.3045
310 2 11.9947 6.08368 11.9172
314 3 10.9581 2.14967 16.1078
315 3 10.1819 4.64545 15.0868
316 3 12.6479 5.68028 14.9235
360 2 8.39909 5.54434 16.6959
238 3 8.69254 3.21633 17.2087
341 2 9.12843 6.81386 15.3459
298 2 14.5907 4.27479 16.0323
38 4 5.72158 12.7049 0.893702
261 3 2.96625 10.2466 8.46168
265 3 8.05078 9.43818 6.1304
50 4 10.7756 7.09624 5.3938
51 4 8.65209 8.55115 2.15676
52 4 5.3517 10.8678 3.27222
54 4 9.24123 8.86259 7.17118
56 4 7.61599 10.6958 5.37197
78 1 5.81199 8.11545 7.28861
81 1 9.7829 9.92193 2.93168
82 1 2.2307 11.3507 4.97383
83 1 8.79743 12.1858 5.63621
105 2 6.87515 7.34887 5.81526
111 2 4.08355 11.3057 4.31154
112 2 7.11379 11.9434 6.56634
362 3 0.854726 12.308 0.0530412
148 2 6.3111 6.81447 1.69878
159 2 2.28269 10.6342 1.34167
168 2 5.41075 8.76199 8.07283
180 2 2.90277 10.3391 5.00264
169 2 5.65136 8.60167 6.28098
170 2 6.92133 7.76835 7.57666
30 4 3.56433 8.61873 1.94043
178 2 9.78644 9.62729 4.03066
179 2 1.91421 11.7021 3.94156
355 2 4.26931 11.8333 6.72645
181 2 2.588 12.2057 5.60036
182 2 9.29481 12.0809 4.59091
333 1 4.16999 13.0221 7.13473
177 2 9.32283 10.9028 2.63254
249 3 11.7021 7.31374 4.08392
251 3 7.88331 7.71717 3.42763
252 3 9.57592 7.63602 1.19648
253 3 4.84396 9.56258 2.46925
254 3 5.46004 12.1317 2.31577
256 3 7.58659 9.31167 1.07383
184 2 8.03807 13.177 5.55702
258 3 8.55814 7.24443 7.96589
259 3 10.5738 8.38825 6.32058
260 3 9.55087 9.98229 8.3853
264 3 6.60419 10.6969 4.19393
361 2 10.7821 9.63781 2.47592
113 2 6.30745 11.1583 8.65678
41 4 5.33506 12.5923 8.60205
218 3 3.56728 7.97816 0.500745
334 2 3.06299 13.2392 7.52823
46 4 7.91488 6.66423 4.55751
12 4 8.85564 10.5422 9.76468
43 4 5.0119 12.4611 12.8503
53 4 7.74327 10.7857 17.3152
55 4 3.3054 10.7826 10.0026
57 4 3.1034 10.6607 14.6639
58 4 5.97736 10.1334 11.2418
65 1 9.53261 9.34971 11.0373
72 1 4.81066 7.47336 15.7229
84 1 4.40009 10.7033 16.0669
85 1 6.4838 8.47527 11.9864
275 2 10.5848 9.2591 16.0659
108 2 5.13695 7.50726 10.7813
132 2 8.92416 8.68699 11.7977
312 2 9.23386 6.97316 13.3293
336 1 1.32143 13.114 13.0136
153 2 4.77259 8.69243 15.7988
173 2 8.91647 7.42242 10.7608
185 2 5.51618 10.4951 15.7724
186 2 4.04101 9.94254 16.8072
187 2 4.2883 11.8337 16.4448
188 2 7.07771 7.67475 11.2895
189 2 5.68839 7.98402 12.6112
190 2 7.25449 8.90657 12.7189
352 2 10.2061 8.72269 10.372
255 3 9.20498 11.4104 17.2454
262 3 4.34527 12.4065 9.86835
133 2 10.1888 10.1016 11.5937
267 3 3.7067 11.83 13.6724
268 3 1.76192 11.125 15.3724
269 3 7.2346 10.4786 9.77916
270 3 4.48233 9.75535 10.7193
271 3 5.98511 11.2718 12.4292
152 2 5.81311 6.95745 16.1388
357 2 11.4509 7.86887 15.5551
304 1 10.2477 7.14395 13.7371
311 2 10.2329 7.91002 14.5629
356 2 1.77913 12.3846 12.3263
313 2 10.9642 7.47095 12.8754
337 2 1.55217 12.9162 14.0678
339 1 11.6231 7.71437 16.6939
257 3 6.54706 11.9627 17.3079
343 1 7.54871 10.0356 15.5465
344 2 8.56449 9.68258 15.2549
345 2 7.02938 10.6174 14.7182
346 2 6.95731 9.1002 15.8769
351 2 4.40854 13.1359 11.4266
323 2 7.66079 13.3114 15.9616
358 2 12.564 7.08821 16.8531
342 2 7.67084 7.30581 16.5094
263 3 1.92706 10.8974 10.7932
266 3 3.0269 9.12768 14.0811
151 2 4.49291 7.12115 14.6915
90 2 9.45156 12.1488 9.96824
359 2 11.6963 8.69451 17.233
ITEM: TIMESTEP
200
ITEM: NUMBER OF ATOMS
362
ITEM: BOX BOUNDS xy xz yz pp pp pp
-8.3819999999999997e+00 1.7202700000000000e+01 -8.3819999999999997e+00
0.0000000000000000e+00 1.3430600000000000e+01 3.0499999999999999e-02
0.0000000000000000e+00 1.7410833000000000e+01 3.0270000000000002e-01
ITEM: ATOMS id type x y z
124 2 -3.45354 6.12567 5.76828
2 4 -0.391366 2.70536 5.10228
5 4 2.44203 2.09506 6.35627
7 4 -0.0543919 3.55659 2.00708
14 4 4.60563 2.5802 4.22376
88 2 -0.389526 2.33113 0.842772
210 3 5.16276 3.18657 8.54002
60 1 -0.737109 4.34716 6.10429
61 1 2.15743 3.33082 7.73477
25 4 5.78852 4.35236 7.70973
69 1 0.809452 5.16091 1.81871
87 2 -1.0952 4.95292 1.70012
23 4 3.0267 6.39613 4.26401
93 2 3.62338 4.95482 3.54331
283 4 -2.98911 5.68788 8.19322
116 2 1.74738 1.12029 2.80543
117 2 -1.8417 4.01544 6.31171
118 2 -0.584878 5.24548 5.42665
119 2 -0.0683939 4.27549 7.07658
120 2 1.21867 4.08082 7.45731
121 2 3.18292 3.84769 7.77438
70 1 1.19122 6.51099 4.69983
201 3 7.4575 0.95736 1.17976
95 2 5.98976 3.83665 6.12263
142 2 0.476696 5.7958 0.988299
143 2 1.93331 4.33502 1.51783
144 2 0.900831 5.66268 2.90393
147 2 1.07446 5.33729 4.76914
350 2 4.49843 5.35156 0.378549
191 3 0.868126 1.98931 5.8415
192 3 3.19979 0.578551 7.10333
194 3 -0.189024 3.00471 3.50789
199 3 4.32789 1.17029 3.55887
200 3 3.48942 2.82517 5.37838
59 1 2.12866 0.0689936 2.47805
203 3 6.35012 2.63669 5.0288
208 3 4.57561 3.73012 3.16813
62 1 -3.19511 5.85318 4.71427
212 3 4.89717 5.65587 7.72749
287 2 -1.90487 5.76673 6.82437
122 2 2.02684 2.6791 8.69412
129 2 -1.49505 6.27283 0.475759
204 3 7.81228 0.924501 6.34196
125 2 -2.12606 6.25093 4.27683
353 2 6.5069 0.710807 8.67537
6 4 0.134917 0.909401 11.899
9 4 0.961694 4.1002 13.0643
17 4 4.80579 2.50425 9.89631
20 4 4.83358 3.20857 16.3008
324 2 -0.452238 2.46154 15.791
91 2 3.34807 3.54391 17.1114
28 4 1.10073 6.21396 15.4099
29 4 4.08616 6.53088 11.7855
63 1 0.0311328 5.29703 11.9679
67 1 3.39913 3.44885 11.0112
68 1 1.25415 0.848752 10.3361
89 2 2.6435 3.86268 12.7706
328 2 2.74141 1.44193 14.5531
92 2 4.38883 1.72048 15.5248
205 3 5.95809 2.94485 17.3907
98 2 -0.229605 6.59668 16.4324
99 2 3.90746 5.31133 10.581
126 2 -0.714142 4.57817 11.4132
127 2 0.960664 5.70701 11.3603
128 2 -0.437315 6.13099 12.5396
136 2 2.71805 2.59486 11.4147
137 2 2.8203 4.12172 10.2855
138 2 3.98462 3.93682 11.8039
139 2 1.78732 1.82601 10.4884
140 2 0.67483 0.83137 9.43315
86 2 -0.924783 2.7893 9.29573
195 3 0.362456 2.54606 12.5929
202 3 4.1747 0.83497 9.5501
322 2 -0.0602948 1.12251 14.4671
206 3 6.04583 2.67251 10.9693
207 3 7.68812 0.947901 11.9208
213 3 5.16177 4.27019 15.2013
214 3 0.781064 4.77935 14.617
215 3 2.37412 6.32105 16.2447
216 3 4.78236 5.678 12.8585
27 4 5.62994 4.90733 13.9083
297 2 -1.70222 5.99775 14.5844
298 2 -2.42846 4.92329 16.5683
348 2 -1.84144 5.08798 9.20779
326 2 4.27565 1.22606 13.0147
325 1 3.93479 0.727119 13.8786
296 4 -3.079 6.16203 15.6016
327 2 4.76025 0.468516 14.5621
280 2 -1.53914 2.72848 13.8767
299 2 -3.0637 6.43097 17.3429
349 2 -4.76791 11.5698 8.62921
1 4 -4.45751 12.9151 3.02819
10 4 -2.30011 8.42687 1.45413
11 4 -3.85258 11.1035 0.39746
101 2 0.987733 9.59396 0.317341
289 2 -3.79581 11.0408 7.03689
318 2 -3.55645 11.7807 5.27232
317 1 -4.42294 11.5687 4.55384
31 4 -1.19884 10.4448 3.37366
33 4 2.11628 8.86194 8.07856
34 4 0.696235 10.4608 5.93942
64 1 -1.56639 7.32818 0.083698
347 2 -2.7669 12.8418 7.47177
13 4 0.171756 12.8215 1.4339
74 1 1.95 9.88916 2.01645
100 2 -2.90033 10.6853 3.72282
319 2 -4.39951 10.5308 4.13487
295 3 -3.67298 7.07456 8.68201
290 2 -3.23763 9.30497 7.08444
16 4 0.0409384 13.1063 7.43954
288 2 -5.39105 9.5793 8.03978
277 3 -5.39427 10.7433 0.235832
145 2 0.712504 7.06115 3.86786
146 2 1.26706 7.10475 5.73046
114 2 -6.82934 12.3805 3.02216
158 2 0.998696 9.27454 1.89483
196 3 -3.347 7.36811 2.30216
197 3 -2.98255 9.59846 0.654108
198 3 -3.71102 12.0803 1.68403
320 2 -5.37937 11.7762 5.08037
217 3 3.08101 7.57729 3.13022
3 4 -4.31543 13.1383 8.22789
219 3 -1.12016 9.07966 2.51691
220 3 -0.679918 11.6346 2.51172
221 3 3.0976 7.55196 7.96579
222 3 -0.419467 10.3231 4.80151
223 3 1.13941 9.19682 6.70674
224 3 0.306764 11.6568 6.91838
285 1 -3.74357 10.1165 7.69709
211 3 4.03028 6.76816 5.49583
362 3 0.75943 12.1424 0.104459
134 2 -1.91443 11.9338 8.68582
291 2 -2.88274 10.2713 8.65369
183 2 -7.6215 12.1857 6.57377
157 2 1.99219 10.3813 3.11258
115 2 -6.1676 13.0185 1.36063
361 2 -6.43709 10.1552 2.04446
19 4 -0.402875 12.7424 12.766
32 4 0.742233 11.1784 16.5927
35 4 2.02025 8.15818 13.2125
36 4 -1.99217 11.5651 15.3766
37 4 0.496356 10.1621 11.4842
75 1 -0.534009 9.05765 10.2595
135 2 -0.78622 12.813 9.80423
130 2 -0.526022 8.06009 17.3723
103 2 -2.67476 10.3324 14.4838
294 2 -5.30511 8.71698 11.0109
160 2 -0.110796 7.98878 10.4856
161 2 -0.394526 9.27469 9.21039
162 2 -1.76036 9.08558 10.5496
225 3 1.05802 7.3542 14.308
226 3 2.76694 7.18772 12.1241
227 3 -0.784747 10.8336 16.1554
228 3 -1.37576 12.5887 14.3932
229 3 -3.09986 12.1121 16.3557
230 3 0.875183 9.12219 12.5594
231 3 -0.563359 11.3748 12.0106
66 1 -1.27942 12.8836 8.80306
102 2 1.09045 8.40457 9.4005
272 4 -6.17367 12.8291 13.9331
273 4 -6.45791 11.0128 16.4899
274 2 -4.66012 12.3073 12.9417
131 2 -2.7477 7.98302 16.2841
24 4 3.74378 6.89489 16.8517
278 3 -6.27285 11.8923 15.1936
284 4 -4.2096 8.53714 9.20354
286 1 -3.73904 8.90191 10.8921
292 2 -3.37984 9.9399 11.1897
293 2 -3.22498 7.99268 11.3275
141 2 -6.37293 13.1233 10.4781
276 3 -7.56625 13.0094 12.9145
263 3 1.83792 10.7395 10.6298
15 4 7.42486 2.49733 0.809008
18 4 7.82993 2.2553 5.49015
22 4 6.39325 4.55251 2.83763
107 2 9.7307 5.01397 8.39971
39 4 10.102 1.692 3.12137
45 4 11.5415 4.01259 1.48901
354 2 14.2472 2.32092 5.45168
48 4 12.0393 3.38045 7.55971
166 2 12.0049 0.208386 3.3458
71 1 6.02221 5.91319 1.57458
76 1 15.199 1.66954 5.51936
77 1 11.8005 1.13726 3.99854
80 1 11.7355 3.80119 5.75728
94 2 8.33207 3.46024 6.48147
331 2 16.3172 0.573756 1.04197
106 2 12.7095 1.79295 7.58122
246 3 10.6292 3.61153 8.43205
109 2 11.5064 5.7748 6.05685
150 2 6.21734 5.35434 0.578278
335 2 13.1269 0.350409 6.24885
164 2 15.326 1.0202 4.55762
165 2 12.5995 1.93293 3.91316
167 2 11.4777 0.893609 5.08794
174 2 10.6718 4.21211 5.79612
175 2 11.7566 2.8072 5.06308
176 2 12.5532 4.59383 5.38068
163 2 15.2408 1.02244 6.44796
209 3 7.32299 3.50699 2.09961
232 3 9.72785 0.382204 2.28142
233 3 8.98902 1.91983 4.32356
123 2 13.9121 4.76827 4.53993
236 3 10.0584 0.818738 8.26401
241 3 10.5643 3.00492 2.32046
242 3 12.461 3.128 0.531894
243 3 12.3886 5.02706 2.53103
244 3 7.14426 5.43378 3.91431
245 3 10.7454 5.19528 0.689032
234 3 12.8875 0.38895 0.150336
247 3 13.1355 4.5484 7.90108
248 3 7.19527 4.98078 8.04902
250 3 9.33172 6.32054 5.01258
329 1 15.3554 1.10088 1.36151
330 2 15.0138 2.0189 0.726034
332 2 15.2484 1.24643 2.50069
8 4 12.9389 6.44601 3.27277
149 2 4.86408 6.13126 1.75684
49 4 8.31716 5.92803 8.62414
334 2 11.6684 0.340375 7.52715
235 3 14.7226 0.582541 8.69312
4 4 15.1702 1.63025 9.95376
21 4 7.56801 2.2419 11.0852
40 4 12.4364 2.18354 16.8816
42 4 9.86369 1.99077 9.24737
44 4 12.3793 3.01241 10.853
73 1 7.6502 4.97637 13.2852
79 1 8.14928 6.48804 10.4845
282 3 13.8928 0.532247 13.718
96 2 8.2422 3.61542 12.0207
104 2 12.1488 4.59985 10.0742
110 2 12.5508 3.15694 12.5972
321 1 16.3736 1.49588 15.2516
154 2 7.85008 5.56084 12.2708
155 2 8.58347 4.75059 13.8841
156 2 6.99571 6.11716 14.4733
171 2 8.85395 5.58593 10.8595
172 2 7.03998 6.40077 10.5769
193 3 15.8062 0.828273 11.2148
237 3 8.37816 2.26656 9.72746
307 2 7.73729 1.79846 15.4172
239 3 13.8101 2.46101 10.3514
240 3 10.9816 2.22335 10.4965
279 4 14.5645 1.64309 14.7673
340 1 8.66647 6.61045 16.4489
281 3 13.7049 2.55305 15.727
97 2 6.74494 3.59995 13.0224