ITEM: TIMESTEP
0
ITEM: NUMBER OF ATOMS
362
ITEM: BOX BOUNDS xy xz yz pp pp pp
-8.5273669999999999e+00 1.7172200000000000e+01 -8.3819999999999997e+00
0.0000000000000000e+00 1.3430600000000000e+01 -1.4536700000000000e-01
0.0000000000000000e+00 1.7586700000000000e+01 3.0270000000000002e-01
ITEM: ATOMS id type x y z
146 2 0.738702 6.54971 5.73438
2 4 -0.750756 2.78738 5.14023
5 4 2.43572 2.11686 6.20908
7 4 -0.797395 3.64808 2.00573
14 4 5.0606 2.67148 4.37181
23 4 2.69632 6.09139 4.38177
59 1 2.62337 1.35061 2.31579
60 1 -1.47479 4.17958 6.28408
61 1 2.43375 3.54733 7.4351
95 2 5.98518 3.6916 6.69179
69 1 0.154373 5.30707 1.57524
87 2 -1.43193 5.32633 1.26104
353 2 6.01798 0.516588 8.26461
93 2 3.51461 4.58434 4.05829
211 3 3.40348 6.57298 5.76902
116 2 2.87052 2.44271 2.33745
25 4 5.60454 4.62802 8.06659
118 2 -1.77053 5.04977 5.43786
119 2 -0.474125 4.41989 6.8048
120 2 1.32406 3.90953 7.31961
121 2 3.21809 4.26886 7.04825
114 2 1.77858 1.12558 3.02365
123 2 -2.29899 5.30099 3.81188
70 1 0.801605 6.19399 4.60981
62 1 -2.39003 6.42503 4.10319
143 2 0.911596 3.63319 1.26582
144 2 0.35612 5.68282 2.72004
147 2 0.593292 5.09897 4.39903
115 2 2.39289 1.09411 1.26581
191 3 0.62689 2.1923 5.57021
192 3 2.78688 0.747589 7.01055
194 3 -0.816626 3.36981 3.51865
199 3 5.20226 1.30271 3.39903
200 3 3.74391 2.5162 5.31348
122 2 2.63224 3.17328 8.46315
287 2 -1.82804 5.18315 8.04426
208 3 4.80295 3.95923 3.34771
201 3 7.38611 1.29799 1.08632
350 2 4.48241 5.19714 0.580284
142 2 0.646833 6.03084 0.894532
3 4 3.49295 0.144026 8.26721
13 4 8.28863 0.0629808 1.63617
1 4 4.16009 0.27751 2.75456
203 3 6.63822 2.85338 5.45047
212 3 4.76023 5.91123 7.75176
283 4 -3.41528 5.41856 8.55409
117 2 -2.33847 3.86988 7.04782
6 4 -0.0544033 1.33914 11.7744
9 4 0.67572 4.26899 13.0777
17 4 4.6751 2.43509 9.97065
20 4 4.95471 3.11538 16.4488
24 4 3.36537 6.50207 17.2092
27 4 5.17221 4.7383 13.6879
28 4 0.859585 5.7513 15.8834
322 2 -0.0883327 1.3169 14.3628
63 1 -0.0362051 5.6477 12.1241
67 1 3.55767 3.15467 11.5907
68 1 1.00013 1.41583 10.0975
89 2 2.37508 4.26344 12.642
91 2 3.43465 3.0518 17.095
92 2 5.20073 1.52091 16.2621
97 2 5.29837 3.47322 12.4871
98 2 -0.221447 5.44883 17.1723
99 2 2.75861 6.12425 10.9775
126 2 -0.796932 5.15657 11.4636
127 2 0.806764 6.24335 11.5873
297 2 -2.22477 6.46555 14.4703
136 2 3.70358 2.52477 12.5531
137 2 2.58399 2.93656 11.1206
138 2 3.80279 4.26101 11.7413
139 2 1.05887 2.5171 9.89864
140 2 0.986804 0.85504 9.08044
141 2 1.98865 1.08991 10.5815
195 3 -0.0217794 2.87861 12.3342
202 3 3.90476 1.30019 9.30383
86 2 -0.611723 1.59414 8.97866
206 3 6.06766 2.00577 10.5324
296 4 -3.4543 5.83152 15.4277
213 3 5.01826 3.98559 15.1105
214 3 0.496107 4.59903 14.6447
215 3 2.33292 5.61297 16.4189
216 3 4.34862 5.94725 13.1167
276 3 0.922104 0.405148 12.6924
328 2 3.39885 0.833415 13.9726
128 2 -0.510788 6.18588 13.0853
321 1 -0.790164 1.66409 15.1557
298 2 -2.39673 4.74265 16.1613
324 2 -0.435859 2.6371 15.7164
205 3 5.92693 3.62366 17.5541
210 3 4.79655 3.68986 9.01016
327 2 3.7841 0.57521 11.5675
280 2 -1.78319 2.85861 13.9887
358 2 -4.05369 6.58213 17.0378
320 2 -5.60798 12.8921 4.53017
347 2 -3.5321 12.2668 7.86859
10 4 -2.61556 9.03412 1.44795
26 4 3.77696 7.03005 7.22873
101 2 1.02523 9.67719 0.417814
16 4 -0.00432256 13.083 7.7607
159 2 0.996764 9.92866 2.18369
362 3 0.576796 12.2453 0.54853
31 4 -1.46154 10.826 3.56431
33 4 1.49805 8.46443 8.53944
34 4 0.574141 10.3345 6.25998
64 1 -1.53449 7.81126 0.406362
66 1 -1.74427 12.6772 8.60647
291 2 -4.05338 9.38953 6.24045
74 1 0.931579 8.79896 2.16527
100 2 -3.06192 11.2988 4.05155
319 2 -5.47386 11.1801 3.60559
30 4 2.79757 8.21961 2.06404
318 2 -4.24981 11.7929 5.0093
130 2 -0.829318 6.91955 0.928127
221 3 2.3491 7.07055 8.12876
134 2 -1.95468 11.5872 8.22964
284 4 -4.16244 8.50575 8.21673
317 1 -4.81927 12.0927 4.14092
157 2 0.682542 8.48326 3.24339
158 2 0.143955 8.39548 1.43107
196 3 -3.96828 8.13075 2.31883
197 3 -3.14313 10.1879 0.509426
198 3 -3.91061 12.6434 1.31921
178 2 -5.39325 9.04581 2.57965
217 3 3.04198 7.16523 3.27666
218 3 2.94628 7.52918 0.604862
219 3 -1.57822 9.48176 2.7157
220 3 -0.827536 12.0741 2.74206
295 3 -3.82983 6.88391 8.30142
222 3 -0.565303 10.4244 4.82836
223 3 0.431679 8.99615 7.45463
224 3 0.428604 11.7412 6.92113
285 1 -2.95676 9.3745 7.18436
289 2 -2.11445 8.71938 6.75774
8 4 -4.13679 6.69936 3.4291
290 2 -2.58621 10.3662 7.57699
361 2 -6.55882 10.5809 2.07279
125 2 -1.8079 7.09374 3.36071
145 2 0.330936 6.90608 3.8466
180 2 2.18988 9.99697 4.55429
124 2 -2.20647 6.73836 5.17873
19 4 -0.0578066 12.9115 12.8172
32 4 0.641086 11.4065 17.042
35 4 1.32283 8.2899 14.2875
36 4 -1.80033 11.7274 15.4108
37 4 0.442698 10.1364 12.0728
75 1 -0.719932 9.20905 10.7837
131 2 -1.11765 8.79347 17.2584
102 2 0.66669 8.02928 10.0453
103 2 -2.5831 10.4906 14.5861
286 1 -4.3566 9.50969 10.1216
160 2 -0.529796 8.15556 11.2888
161 2 -0.636939 9.14483 9.663
162 2 -1.6996 9.665 11.0464
225 3 0.588244 7.27788 15.3924
226 3 2.19602 7.3428 13.2334
227 3 -0.809794 10.9479 16.3593
228 3 -0.872687 12.6652 14.3348
229 3 -2.76701 12.7049 16.2845
230 3 0.302988 9.31633 13.46
231 3 -0.384684 11.4763 11.9
135 2 -1.43857 12.755 9.67799
299 2 -3.66239 7.59827 15.5059
272 4 -6.2025 12.7906 13.37
273 4 -6.49968 11.2479 16.105
274 2 -3.67719 12.9415 13.0351
11 4 -3.87281 11.9655 17.5486
277 3 -5.24586 11.9441 16.8083
278 3 -6.42072 11.6474 14.5454
326 2 -4.8524 11.6925 11.9546
293 2 -3.44186 8.8335 10.357
292 2 -4.10819 10.573 9.85815
294 2 -4.81251 9.43208 11.1456
349 2 -5.82666 12.1036 9.01492
359 2 -5.10289 8.7124 17.1126
352 2 -7.10986 12.4981 10.3239
325 1 -4.57007 12.905 12.4404
266 3 2.45667 9.25754 15.0483
132 2 -6.05256 10.756 10.2705
129 2 -2.58968 7.65048 17.452
29 4 3.34892 6.82808 12.3632
65 1 -7.03185 11.3785 10.4914
151 2 3.89051 7.11709 15.0228
288 2 -5.75045 9.08157 9.00751
261 3 2.56555 9.4625 9.03484
15 4 7.41928 2.84846 0.668079
18 4 8.27917 2.37459 5.80144
22 4 6.53818 4.81155 2.88586
330 2 14.951 1.52775 2.55226
39 4 10.3939 1.9309 3.24474
45 4 11.9757 4.2812 1.63956
354 2 13.9653 2.13166 5.54757
48 4 11.9689 3.11199 7.55836
329 1 15.5557 0.610809 2.17008
71 1 5.96448 6.09955 1.58146
76 1 14.9349 1.54923 5.30169
77 1 11.8012 0.745995 3.75085
80 1 12.2358 3.27239 5.67114
94 2 8.93099 3.40551 6.9512
88 2 15.493 2.4135 1.19409
106 2 12.7257 1.52611 7.7971
109 2 11.1771 6.17227 7.12858
335 2 13.6285 0.454996 6.36972
150 2 6.24425 5.59767 0.583222
163 2 15.331 1.08694 6.27548
164 2 14.8714 0.809153 4.39033
165 2 12.6834 1.36056 3.36457
167 2 11.7078 0.610256 4.85871
174 2 11.2252 3.87134 5.51729
175 2 12.202 2.27997 5.12746
176 2 13.1835 3.85748 5.37824
149 2 4.86221 6.27777 1.881
209 3 7.52933 3.89781 2.11944
232 3 9.5599 0.879171 2.34385
233 3 9.36246 2.26976 4.69935
234 3 13.2134 0.664589 0.739248
248 3 7.06926 5.04752 8.67313
241 3 11.0787 3.29884 2.61144
242 3 13.133 3.36159 0.780585
243 3 12.7467 5.24113 2.76928
244 3 7.13379 5.77667 3.96797
245 3 11.2264 5.29655 0.567446
246 3 10.3511 3.02457 7.85102
247 3 12.8307 4.3664 7.94436
331 2 16.3377 0.877072 1.30164
250 3 9.50543 6.42667 4.99873
334 2 11.8492 0.211878 7.37213
204 3 8.04508 1.08916 6.58919
4 4 15.1166 0.992919 9.66454
21 4 7.47573 2.40386 11.1847
312 2 9.0143 5.75681 13.3899
42 4 9.84165 2.02824 9.4658
44 4 12.6966 2.37288 10.6509
73 1 7.0685 5.17773 13.5667
236 3 9.44363 0.559122 8.87162
338 2 10.4019 0.680479 12.2977
96 2 7.33499 3.73402 12.2166
104 2 12.3248 4.22399 10.5568
110 2 13.1008 2.14144 12.4076
341 2 9.43131 6.3476 15.1403
154 2 7.42033 5.79486 12.4825
155 2 7.68311 4.28084 13.8092
156 2 6.99195 5.92735 14.4725
171 2 8.5651 5.6539 11.3369
360 2 8.75206 5.2854 16.6544
193 3 15.5411 0.698799 11.1185
237 3 8.63576 2.8496 10.0987
238 3 8.58765 3.6357 17.2029
239 3 13.8528 2.058 9.58422
240 3 11.1725 1.94325 10.4721
279 4 14.5114 1.65037 14.9554
340 1 8.95596 6.39971 16.2328
281 3 13.5895 2.27355 16.1961
348 2 13.7939 5.11269 10.2752
304 1 10.138 6.09938 13.1909
300 4 9.74926 2.86212 16.1858
301 4 11.0831 4.63023 13.8296
302 1 8.66211 1.45804 15.4662
303 1 13.3858 3.8789 11.8161
305 2 9.38458 0.548454 15.2747
306 2 8.24566 1.78734 14.4706
307 2 7.88189 1.32421 16.2719
308 2 13.33 4.51963 12.6917
207 3 7.93937 1.11687 11.9698
310 2 11.5067 3.7665 12.3611
314 3 10.977 2.25793 17.0035
315 3 10.095 3.77604 14.7604
316 3 12.3729 5.15472 14.5829
107 2 9.5242 5.66329 9.71815
313 2 10.4389 5.97689 12.082
282 3 13.8718 0.453899 14.0555
40 4 12.5402 2.3428 17.4691
323 2 16.1005 0.641568 16.0954
79 1 8.20247 6.63101 10.7805
49 4 8.13155 6.17896 8.85017
309 2 14.4337 3.92159 11.4415
337 2 10.3095 0.433515 14.2273
38 4 5.85711 12.6997 1.21472
41 4 5.01567 11.8766 8.67938
260 3 9.2422 9.59799 8.61952
50 4 10.7662 7.05819 5.66368
51 4 9.23205 8.62867 1.91311
52 4 4.46584 10.5218 3.15296
54 4 9.03926 8.6489 7.35137
56 4 6.70502 10.5576 5.21976
78 1 4.73301 8.79605 7.25214
81 1 10.7218 9.63141 2.69367
82 1 2.37654 10.3769 5.59493
83 1 8.02327 11.5008 4.30641
105 2 7.34325 8.09005 5.41902
111 2 3.18049 11.2525 3.97873
112 2 5.9194 11.8443 6.14595
113 2 5.48823 10.2456 8.32961
148 2 6.61036 7.0158 1.82051
166 2 3.17045 12.9462 3.14933
265 3 7.68177 9.45028 6.19206
332 2 7.57107 13.014 2.9597
169 2 4.04689 9.68302 7.52206
170 2 5.00389 8.7924 6.13046
177 2 10.3481 9.70668 3.78606
168 2 5.58122 8.55214 7.94727
179 2 2.52625 11.5545 5.70658
46 4 8.10656 7.04528 4.323
181 2 3.14828 9.71183 6.15836
182 2 7.65197 11.1739 3.21644
183 2 9.06021 11.0427 4.60696
333 1 4.47041 12.8484 7.06708
249 3 12.0044 7.07287 4.56569
251 3 8.44355 7.76409 3.01061
252 3 9.80683 7.73782 0.667994
253 3 3.86103 9.40315 2.25514
254 3 5.2086 11.677 2.27835
256 3 8.30248 9.83345 1.19815
355 2 4.23509 11.7899 6.56968
258 3 8.41335 7.35337 7.86284
259 3 10.3913 8.47478 6.2164
184 2 7.89668 12.5923 4.5471
264 3 5.51829 9.97059 4.26483
257 3 6.79305 11.9112 0.00166571
187 2 4.30118 11.0076 0.0173591
12 4 8.61949 10.5825 9.65199
43 4 4.7949 12.3578 13.3814
53 4 7.93726 11.0478 17.3688
55 4 3.27662 10.1718 10.3256
57 4 3.04809 10.6764 15.4485
58 4 6.19291 10.0658 11.8598
357 2 11.3762 7.76115 15.518
72 1 4.49508 7.34914 15.9718
84 1 4.24265 10.3745 16.9744
85 1 6.65247 8.74366 13.0429
345 2 6.7417 10.7722 15.334
108 2 4.15198 8.16985 11.7394
346 2 6.54341 9.03863 16.2821
172 2 7.05478 6.77901 10.8537
342 2 8.02736 7.12282 16.3678
153 2 4.39094 8.52693 16.3348
351 2 3.58657 12.9397 12.3002
185 2 5.3729 10.1809 16.6294
186 2 3.76353 9.46278 17.5347
275 2 10.8131 9.49085 16.3351
188 2 7.68844 8.38789 12.5917
189 2 5.68574 8.09446 12.9356
190 2 6.76943 9.12927 14.1683
235 3 6.35314 12.753 8.89861
255 3 9.31746 11.6393 16.8092
262 3 3.87381 11.7668 9.75891
356 2 2.22094 12.015 13.1084
267 3 3.95843 11.4572 14.4173
268 3 1.89552 11.7319 16.048
269 3 7.47785 10.2012 10.6676
270 3 4.56562 9.37002 10.8513
271 3 5.78266 11.4632 12.6985
344 2 8.26182 9.51667 15.5119
133 2 9.66737 11.0872 11.5862
173 2 8.69281 7.59106 11.1244
311 2 10.4718 7.09252 13.6173
263 3 2.13013 10.2442 11.4242
343 1 7.25413 9.94142 15.9679
336 1 1.76951 13.0663 13.2055
339 1 11.7904 7.77085 16.5643
90 2 8.24656 12.0169 8.79753
47 4 10.4267 6.87771 17.3952
152 2 5.50889 6.92034 15.9728
ITEM: TIMESTEP
100
ITEM: NUMBER OF ATOMS
362
ITEM: BOX BOUNDS xy xz yz pp pp pp
-8.5273669999999999e+00 1.7172200000000000e+01 -8.3819999999999997e+00
0.0000000000000000e+00 1.3430600000000000e+01 -1.4536700000000000e-01
0.0000000000000000e+00 1.7586700000000000e+01 3.0270000000000002e-01
ITEM: ATOMS id type x y z
146 2 0.736824 6.20664 5.78195
2 4 -0.834402 2.83195 5.12499
5 4 2.37142 2.24822 6.20306
7 4 -0.893279 3.77185 1.99299
14 4 5.18002 2.6878 4.40002
23 4 2.75182 6.07772 4.39947
59 1 2.48226 1.43119 2.32985
60 1 -1.38833 4.29108 6.2052
61 1 2.11175 3.52537 7.49667
95 2 5.99025 3.69991 6.48734
69 1 0.223427 5.36484 1.61094
87 2 -1.51617 5.4753 1.48383
353 2 5.98547 0.304418 8.05182
93 2 3.36948 4.57335 3.99968
88 2 -1.41501 2.42937 1.0826
116 2 2.75468 2.48247 2.09275
205 3 5.97539 3.47372 0.0413135
118 2 -1.79506 5.2141 5.47957
119 2 -0.669422 4.63428 6.98489
120 2 1.09039 4.02196 7.27675
121 2 2.98469 4.24155 7.31018
114 2 1.81925 1.34716 3.19599
123 2 -1.91929 5.78323 3.72587
70 1 0.843097 5.98696 4.69135
211 3 3.24618 6.57728 5.7732
143 2 0.887966 3.78195 1.48703
144 2 0.428985 5.64245 2.77159
147 2 0.906067 4.77576 4.49092
115 2 2.06256 0.808029 1.43406
191 3 0.83287 2.39897 5.51026
192 3 2.66308 0.553924 6.9476
194 3 -0.939354 3.4606 3.52837
199 3 5.19936 1.32893 3.46372
200 3 3.85284 2.67378 5.28276
122 2 2.17851 3.04562 8.54558
287 2 -1.80862 5.09321 7.96512
208 3 4.95892 4.03966 3.48388
201 3 7.24551 1.22849 1.08171
350 2 4.5696 5.28437 0.622895
142 2 0.742343 6.13729 0.928509
124 2 -2.67239 6.53613 5.33984
13 4 8.22279 0.0534099 1.60256
1 4 4.13724 0.346017 2.76055
283 4 -3.3637 5.39362 8.60101
212 3 4.82225 5.87928 7.64459
145 2 0.137576 6.5786 4.06709
86 2 -0.970057 1.74098 8.7825
6 4 0.104411 1.4016 11.7237
9 4 0.726847 4.20082 13.0906
17 4 4.67475 2.37953 9.86321
20 4 5.02139 3.16903 16.4609
24 4 3.34099 6.48577 17.1818
27 4 5.3021 4.7003 13.6731
28 4 0.737406 5.79589 15.9127
322 2 -0.089558 1.18455 14.5284
63 1 -0.0507222 5.54601 12.0388
67 1 3.56205 3.10327 11.3848
68 1 0.744775 1.61303 9.87052
89 2 2.40742 4.21723 12.5206
91 2 3.40133 2.99328 16.8833
92 2 5.51017 1.64063 16.2901
97 2 5.19324 3.49867 12.4098
98 2 -0.277784 5.51632 17.2482
99 2 2.75084 6.03523 11.0238
126 2 -0.983929 5.37721 11.529
127 2 0.830057 5.69101 11.2837
297 2 -2.1428 6.16449 14.7561
136 2 3.54831 2.36472 12.2126
137 2 2.60889 3.02327 10.68
138 2 3.76283 4.19407 11.583
139 2 0.672674 2.66919 9.4206
140 2 0.396323 0.744108 9.22101
141 2 1.87814 1.3766 10.2841
195 3 0.186025 2.86485 12.6126
202 3 3.89902 1.07649 9.19302
358 2 -4.03465 6.85141 17.1049
206 3 6.02214 2.05834 10.6096
296 4 -3.57157 5.921 15.5234
213 3 5.18892 3.94163 15.0917
214 3 0.402212 4.5346 14.6708
215 3 2.23962 5.56583 16.4644
216 3 4.28464 5.83647 13.1881
207 3 7.81895 1.14361 12.31
328 2 3.17079 1.14042 13.6905
128 2 -0.0941 6.50753 12.6506
321 1 -0.884379 1.47122 15.2632
298 2 -2.57296 5.02457 16.5766
324 2 -0.607154 2.43462 15.7618
327 2 3.81011 0.387731 11.7069
210 3 4.93685 3.59541 8.85274
348 2 -3.06265 5.17781 10.2474
320 2 -5.78738 12.6599 4.21508
347 2 -3.57476 12.1555 7.74005
10 4 -2.6063 9.09278 1.51829
26 4 3.72987 6.94219 7.2852
101 2 1.11122 9.87498 0.67364
16 4 0.00267848 13.0941 7.71281
159 2 1.25863 10.0418 2.41994
362 3 0.524308 12.3681 0.492025
31 4 -1.37692 10.9559 3.60758
33 4 1.45158 8.49742 8.48837
34 4 0.492463 10.2836 6.26205
64 1 -1.35635 8.02593 0.50963
66 1 -1.78215 12.5908 8.5217
291 2 -3.75103 9.46209 6.32623
74 1 1.14063 8.90298 2.41027
100 2 -2.94795 11.462 4.18609
319 2 -5.30049 10.9989 3.40334
30 4 2.91357 8.33822 2.08881
318 2 -4.27494 11.7892 4.84426
130 2 -0.73027 7.04963 0.90887
221 3 2.28481 7.10867 8.13571
134 2 -1.94293 11.5421 8.05941
284 4 -4.06247 8.55318 8.36007
317 1 -4.81509 11.984 3.88653
157 2 0.956581 8.39211 3.43398
158 2 0.192862 8.57319 1.68957
196 3 -3.67699 8.12871 2.08347
197 3 -3.13879 10.3725 0.478028
198 3 -3.87292 12.776 1.34136
178 2 -5.20954 8.86763 2.30582
217 3 2.93682 7.03172 3.1308
218 3 3.03414 7.3464 0.479167
219 3 -1.61254 9.71146 2.6743
220 3 -0.710652 12.1116 2.87792
295 3 -3.73105 6.93339 8.43932
222 3 -0.592924 10.5113 4.8973
223 3 0.36009 9.00331 7.29376
224 3 0.527314 11.6453 7.11457
285 1 -2.93296 9.37121 7.14411
289 2 -2.02922 8.7024 6.93384
8 4 -4.00457 6.72186 3.33419
290 2 -2.62363 10.4411 7.56224
361 2 -6.3681 10.4607 1.96784
125 2 -1.88342 7.75806 4.03448
131 2 -0.614368 8.78901 0.0583044
180 2 2.15713 9.88853 4.42929
11 4 -3.72541 11.808 0.0252077
3 4 -4.95184 13.1178 8.19978
62 1 -2.39117 6.73761 4.27707
19 4 -0.162647 12.8814 12.8795
32 4 0.613935 11.4554 17.1315
35 4 1.41826 8.196 14.2076
36 4 -1.82642 11.9442 15.5472
37 4 0.419655 9.90774 11.9055
75 1 -0.931899 9.03476 10.8652
261 3 2.49447 9.56018 8.95735
102 2 0.345724 8.06331 9.71959
103 2 -2.91332 10.8229 15.0637
286 1 -4.21495 9.68991 9.99453
160 2 -0.788937 7.92873 10.9734
161 2 -0.890595 9.36847 9.79808
162 2 -1.84455 9.35243 11.3893
225 3 0.361518 7.15298 15.3512
226 3 2.23603 7.27874 13.2498
227 3 -0.695214 11.0646 16.3353
228 3 -1.17512 12.6185 14.1626
229 3 -2.78616 13.0133 16.3123
230 3 0.404122 9.10243 13.2399
231 3 -0.17589 11.5033 11.9365
135 2 -1.68427 12.6355 9.65773
299 2 -3.82944 7.67114 15.4425
272 4 -6.23103 12.8781 13.4029
273 4 -6.45445 11.313 16.1062
274 2 -3.4835 12.9153 13.1009
276 3 -7.41796 13.2522 12.4737
277 3 -5.33409 11.8711 16.9737
278 3 -6.28053 11.8753 14.6179
326 2 -4.6855 11.7103 12.1778
293 2 -3.19989 8.84006 10.3733
292 2 -3.87228 10.7614 9.79184
294 2 -5.11061 9.66416 10.7013
349 2 -5.89882 11.9225 8.88287
359 2 -5.29564 8.87783 17.0271
352 2 -7.1386 12.4035 10.1515
325 1 -4.52238 12.8636 12.5261
266 3 2.48283 9.17534 15.0506
132 2 -5.86339 10.8611 10.2517
129 2 -2.23895 7.96784 17.2991
29 4 3.38049 6.81136 12.3811
65 1 -6.9826 11.3245 10.4689
263 3 1.9359 10.1104 11.1716
288 2 -5.677 8.95325 9.11365
15 4 7.37155 2.89517 0.893157
18 4 8.29209 2.43792 5.81033
22 4 6.56145 4.92714 2.96518
330 2 15.1925 1.55517 2.52058
39 4 10.2519 1.88792 3.18221
45 4 11.911 4.23089 1.6138
354 2 13.8502 2.25755 5.37784
48 4 11.897 3.14186 7.47582
329 1 15.6942 0.648878 2.09691
71 1 5.93056 6.26239 1.61639
76 1 14.8489 1.55005 5.18825
77 1 11.7643 0.80015 3.60821
80 1 12.1579 3.31807 5.57686
94 2 8.9838 3.58531 6.79802
25 4 5.70193 4.57158 7.91407
106 2 12.6286 1.57254 7.33038
109 2 11.2172 5.90597 6.83823
335 2 13.5163 0.383253 6.23434
150 2 6.29599 5.91899 0.594156
163 2 15.2808 1.03084 6.08015
164 2 14.8548 0.922981 4.29773
165 2 12.6885 1.36192 3.54333
167 2 11.5337 0.407259 4.7112
174 2 11.2384 4.02144 5.42003
175 2 12.0849 2.34195 4.9259
176 2 13.1756 3.93066 5.53433
149 2 4.86267 6.44273 1.87673
209 3 7.57534 3.77509 2.20846
232 3 9.45431 0.805923 2.33707
233 3 9.29159 2.21396 4.68161
234 3 13.178 0.622492 0.584412
248 3 7.13178 4.96924 8.39425
241 3 10.955 3.17038 2.39189
242 3 12.9589 3.3389 0.767074
243 3 12.8527 5.31687 2.59697
244 3 7.04663 5.87632 4.07486
245 3 11.2047 5.29945 0.547198
246 3 10.4188 3.01308 8.03239
247 3 12.822 4.30353 8.09761
331 2 16.412 0.757303 1.25364
250 3 9.51292 6.36513 5.0698
204 3 7.97122 1.02908 6.62209
203 3 6.84698 2.96807 5.34989
117 2 14.8675 3.50444 6.61276
4 4 15.04 0.953461 9.76701
21 4 7.42143 2.28012 11.2483
312 2 9.13607 5.67267 13.2954
42 4 9.7974 1.96839 9.50893
44 4 12.6592 2.4047 10.6523
73 1 7.14912 5.23904 13.4555
236 3 9.40894 0.506458 8.90175
338 2 10.5005 0.896762 12.638
96 2 7.49544 3.75809 12.1902
104 2 12.2919 4.19204 10.3397
110 2 13.2131 2.43357 12.427
341 2 9.52441 6.10709 15.0813
154 2 7.59782 5.73841 12.4414
155 2 7.73734 4.25958 13.8559
156 2 6.99963 6.04289 14.4275
171 2 8.64835 5.61898 11.3475
360 2 8.77244 5.16566 16.5889
193 3 15.7454 0.992804 11.3789
237 3 8.57226 2.63895 10.1601
238 3 8.52769 3.47827 17.2888
239 3 13.8112 1.89221 9.69453
240 3 11.2232 1.82335 10.58
279 4 14.3919 1.54244 14.9821
340 1 9.0682 6.19836 16.1454
281 3 13.5979 2.45843 16.0619
280 2 15.3973 2.61341 13.9503
304 1 10.3517 5.83683 13.199
300 4 9.66921 2.67599 16.2571
301 4 11.2294 4.41617 13.9927
302 1 8.69782 1.25355 15.6082
303 1 13.2807 4.06805 11.6904
305 2 9.28894 0.278747 15.4536
306 2 8.21768 1.71807 14.6882
309 2 14.3455 3.8476 11.3747
308 2 13.3084 4.97705 12.3884
152 2 5.46498 6.79618 16.3865
310 2 11.7959 3.37711 12.7011
314 3 11.0673 2.26693 16.7587
315 3 10.1311 3.75274 14.8393
316 3 12.4816 5.15484 14.7773
107 2 9.67321 5.46316 9.52329
313 2 10.747 5.52437 12.0701
282 3 13.7865 0.427217 14.1258
40 4 12.6024 2.26575 17.388
323 2 15.9906 0.486557 16.125
79 1 8.49931 6.52901 10.7627
49 4 8.20302 6.12184 8.87508
307 2 7.94281 1.0936 16.5031
38 4 5.82161 12.8187 1.25027
41 4 5.02973 11.8875 8.51867
260 3 9.20576 9.67166 8.49393
50 4 10.7606 7.06298 5.741
51 4 9.24595 8.71933 1.911
52 4 4.56032 10.5989 3.26563
54 4 8.94919 8.67321 7.30337
56 4 6.71877 10.5135 5.3257
78 1 4.64543 8.71778 7.10568
81 1 10.9022 9.42687 2.53653
82 1 2.27046 10.1783 5.52321
83 1 8.01776 11.5912 4.41475
105 2 7.24963 7.96856 5.57523
111 2 3.18221 11.2275 4.13709
112 2 6.08634 11.9649 6.1517
113 2 5.51642 10.3631 7.76824
148 2 6.5742 7.15505 1.92472
166 2 3.32484 13.1049 2.78827
265 3 7.41669 9.3748 6.22515
332 2 7.65843 12.9963 2.93224
169 2 4.05981 9.57155 7.52345
170 2 4.88685 8.74026 6.00357
177 2 10.7633 9.48523 3.6842
168 2 5.58482 8.5814 7.72885
179 2 2.48658 11.3244 5.65501
46 4 8.08991 7.01113 4.37798
181 2 3.05907 9.55793 6.05484
182 2 7.69212 11.3138 3.30225
183 2 9.06919 11.182 4.67641
333 1 4.43261 12.7658 6.85379
249 3 12.1093 7.09772 4.58919
251 3 8.50628 7.92712 3.18631
252 3 9.80879 7.59006 0.880444
253 3 3.83388 9.574 2.29474
254 3 5.2248 11.8591 2.46202
256 3 8.37763 9.8522 1.07634
355 2 4.2384 11.743 6.3548
258 3 8.58718 7.31095 7.93663
259 3 10.3056 8.49852 6.4036
184 2 7.85669 12.6983 4.73626
264 3 5.62755 9.99668 4.29858
257 3 6.80266 11.8899 0.183903
187 2 4.14381 10.8944 0.114428
334 2 3.46884 13.2068 7.26773
90 2 8.12793 12.0676 8.62837
12 4 8.6462 10.6851 9.52678
43 4 4.84666 12.288 13.3579
53 4 7.82156 11.1088 17.4103
55 4 3.14438 10.3188 10.2121
57 4 2.98839 10.6807 15.4401
58 4 6.23411 10.0596 11.7202
357 2 11.4037 7.81478 15.4601
72 1 4.53259 7.31629 15.9763
84 1 4.09877 10.3285 16.9737
85 1 6.67631 8.89512 13.0522
345 2 6.33466 10.4219 15.5408
108 2 4.19497 8.15632 11.7215
346 2 6.68012 8.95255 16.6763
337 2 2.03079 13.0003 14.2276
172 2 7.32615 6.86417 10.8215
153 2 4.42983 8.48745 16.2035
351 2 3.63552 12.894 12.3066
185 2 5.22915 10.1638 16.7405
186 2 3.61904 9.36194 17.4056
47 4 10.4159 6.89368 17.3757
188 2 7.62523 8.41838 12.5976
189 2 5.83613 8.06392 12.8666
190 2 6.77024 9.21609 14.2342
235 3 6.41897 12.7314 9.00154
255 3 9.24401 11.5667 16.6968
262 3 3.81822 11.725 9.54539
356 2 2.07284 12.1703 12.4656
267 3 4.08297 11.3844 14.4088
268 3 1.86141 11.6374 16.1081
269 3 7.5873 10.1573 10.6026
270 3 4.53858 9.40924 10.8662
271 3 5.83542 11.4095 12.516
344 2 8.02685 9.61893 15.4709
133 2 9.87 11.0059 11.5558
173 2 9.2401 7.33106 11.0087
311 2 10.7478 6.83019 13.6043
151 2 4.26338 7.03921 14.9075
343 1 7.12504 9.82766 16.1291
336 1 1.75354 13.0686 13.1121
339 1 11.8262 7.92223 16.5059
342 2 8.36241 7.07799 16.3301
275 2 10.8017 9.59317 15.992
ITEM: TIMESTEP
200
ITEM: NUMBER OF ATOMS
362
ITEM: BOX BOUNDS xy xz yz pp pp pp
-8.5273669999999999e+00 1.7172200000000000e+01 -8.3819999999999997e+00
0.0000000000000000e+00 1.3430600000000000e+01 -1.4536700000000000e-01
0.0000000000000000e+00 1.7586700000000000e+01 3.0270000000000002e-01
ITEM: ATOMS id type x y z
146 2 0.716633 6.00746 5.59235
2 4 -0.788672 3.01138 5.0616
5 4 2.36936 2.16986 6.26129
7 4 -1.02549 3.63198 1.87134
14 4 5.09163 2.66885 4.40606
23 4 2.79336 6.10163 4.33395
59 1 2.51495 1.59068 2.36052
60 1 -1.13594 4.43814 6.24414
61 1 2.19457 3.37723 7.66789
212 3 4.76845 5.76977 7.74944
69 1 -0.113648 5.40353 1.44556
87 2 -1.86296 5.18422 1.39396
353 2 5.92573 0.378137 8.15672
93 2 3.71474 4.71617 3.82795
25 4 5.69344 4.51902 7.94411
116 2 2.99299 2.52751 1.91393
205 3 5.96545 3.39431 0.0322659
118 2 -1.70322 5.29344 5.60165
119 2 -0.279663 4.73207 6.91044
120 2 1.02774 3.62799 7.5205
121 2 2.83587 4.21833 7.35948
114 2 1.92346 1.78368 3.36464
123 2 -1.90367 5.80595 3.98694
70 1 0.857128 5.92291 4.47239
211 3 3.29918 6.45136 5.76804
143 2 0.568748 3.8359 0.84161
144 2 0.266388 5.6371 2.5378
147 2 0.815898 4.8712 4.0293
115 2 1.94316 1.00448 1.55471
191 3 0.82889 2.27778 5.3333
192 3 2.498 0.806455 7.01305
194 3 -0.897922 3.37743 3.40229
199 3 5.12408 1.19529 3.62099
200 3 3.82254 2.6659 5.38599
122 2 2.41378 2.96745 8.66275
287 2 -1.85746 5.27124 7.88076
208 3 4.9016 3.81505 3.24652
201 3 7.22333 1.34187 1.17567
350 2 4.40407 5.15577 0.670714
142 2 0.240321 6.2384 0.758321
117 2 -1.95262 3.79683 6.86425
13 4 8.24913 0.116068 1.70934
1 4 4.03331 0.407613 2.77518
283 4 -3.37574 5.38876 8.70194
203 3 6.76153 2.8372 5.32878
3 4 3.32353 0.167503 8.23027
6 4 0.0676337 1.27276 11.7024
9 4 0.87524 4.11992 13.1298
17 4 4.74052 2.35959 9.90587
20 4 5.00433 3.13295 16.3975
24 4 3.32209 6.49362 17.222
27 4 5.35457 4.56227 13.556
28 4 0.828061 5.7522 15.8171
322 2 -0.132654 1.08597 14.4452
63 1 -0.0525752 5.33297 12.0747
67 1 3.521 3.38685 11.1801
68 1 0.825859 1.78535 10.0294
89 2 2.63449 4.01387 12.8139
91 2 3.451 2.80057 16.74
92 2 5.19307 1.54917 16.2413
97 2 5.10776 3.2717 12.4247
98 2 -0.343626 5.43987 17.0744
99 2 2.99782 6.07897 10.9235
126 2 -0.95837 4.91591 11.5547
127 2 0.854858 5.36389 11.2284
297 2 -2.22552 6.24731 14.6474
136 2 3.55192 2.75504 12.1852
137 2 2.49996 3.41297 10.6046
138 2 4.15216 4.3691 11.2187
139 2 0.446602 2.686 9.5082
140 2 0.684285 0.903808 9.34256
141 2 1.96139 1.91649 10.2569
195 3 0.267321 2.75745 12.6087
202 3 3.86536 1.10059 9.31696
276 3 1.11049 0.230698 12.4908
206 3 6.03223 1.93386 10.6911
296 4 -3.58929 6.00444 15.7446
213 3 5.17687 3.81721 14.9812
214 3 0.598613 4.68101 14.573
215 3 2.28128 5.61751 16.4852
216 3 4.51656 5.76598 12.994
207 3 7.78478 1.0728 12.192
328 2 3.36748 1.10726 13.6721
128 2 -0.21275 6.31838 12.5795
358 2 -4.12234 6.82274 17.2535
298 2 -2.66272 4.92159 16.6215
324 2 -0.534488 2.11581 16.041
307 2 7.5596 1.13456 16.1554
86 2 -0.847602 1.60348 8.95093
29 4 3.43899 6.70752 12.4016
210 3 5.06992 3.39037 8.8258
348 2 -3.08261 4.91955 10.2939
320 2 -5.8762 12.7879 4.34165
347 2 -3.71797 12.4644 7.59138
10 4 -2.54371 9.2202 1.45588
26 4 3.77658 6.89929 7.2004
101 2 1.11333 9.69329 0.408157
16 4 -0.0814523 13.0014 7.7195
159 2 1.32143 10.2073 2.16245
362 3 0.432498 12.2684 0.546843
31 4 -1.4623 11.0566 3.63457
33 4 1.42139 8.35556 8.37832
34 4 0.518304 10.3149 6.09456
64 1 -1.40573 8.16483 0.326804
66 1 -1.88795 12.5667 8.37295
291 2 -3.89741 9.13607 6.1478
74 1 1.109 9.11939 2.29532
100 2 -3.00822 11.6148 4.17544
319 2 -5.30123 11.15 3.52042
30 4 2.86202 8.39131 2.13201
318 2 -4.44515 11.6876 5.0425
130 2 -0.999928 7.08804 0.826547
221 3 2.39775 7.12762 8.30274
134 2 -2.15809 11.5943 7.77495
284 4 -3.9408 8.52937 8.31596
317 1 -4.90502 12.1099 4.06975
157 2 0.830959 8.95912 3.40691
158 2 0.167799 8.61583 1.55471
196 3 -3.81313 8.0513 2.06749
197 3 -3.19028 10.378 0.557575
198 3 -3.99793 12.7608 1.45398
178 2 -5.32295 8.8915 2.31544
217 3 2.80993 7.19063 3.26407
218 3 2.85369 7.54162 0.526411
219 3 -1.66881 9.78599 2.70074
220 3 -0.848367 12.2001 2.74126
295 3 -3.6741 6.88631 8.50205
222 3 -0.554997 10.4775 4.90452
223 3 0.594314 8.74699 7.09242
224 3 0.339609 11.6437 7.03794
285 1 -2.94629 9.39537 6.90697
289 2 -2.10592 8.7984 6.65293
8 4 -4.10991 6.77068 3.35422
290 2 -2.81573 10.5154 7.07719
361 2 -6.20531 10.6047 2.01736
125 2 -1.96557 7.73746 4.17769
124 2 -2.88163 6.71337 5.40065
62 1 -2.50992 6.7503 4.35116
11 4 -3.76809 11.8244 0.143269
261 3 2.42023 9.51569 8.78144
145 2 0.27671 6.70733 3.85387
19 4 -0.296353 12.8155 12.8835
32 4 0.506622 11.4179 17.0891
35 4 1.35806 8.18348 14.1871
36 4 -1.9388 11.9449 15.5563
37 4 0.387706 9.93734 11.8795
75 1 -0.903989 8.88122 10.9529
263 3 1.90152 10.2183 11.1528
102 2 0.319156 8.02691 9.71635
103 2 -2.78421 10.697 14.7265
286 1 -4.20689 9.60591 10.0002
160 2 -0.485666 7.77895 10.8517
161 2 -0.97395 9.43542 9.95109
162 2 -1.84636 8.92114 11.4893
225 3 0.513577 7.30798 15.3886
226 3 2.21639 7.07607 13.2176
227 3 -0.912744 11.0639 16.4567
228 3 -1.0889 12.6244 14.4328
229 3 -2.96176 12.9659 16.3594
230 3 0.354416 9.15133 13.2319
231 3 -0.517029 11.4472 12.0002
135 2 -1.7718 12.412 9.46303
299 2 -3.81484 7.79739 15.7992
272 4 -6.14916 12.9037 13.4293
273 4 -6.57271 11.3543 16.1733
274 2 -3.45552 13.012 12.9848
65 1 -6.93524 11.2988 10.4896
277 3 -5.36072 11.7499 17.1094
278 3 -6.36037 12.0303 14.7038
326 2 -4.54119 11.5587 12.4942
293 2 -2.86869 9.43055 9.8306
292 2 -4.33402 10.7163 10.1151
294 2 -4.65156 9.01088 10.8519
349 2 -5.84961 12.01 8.95401
359 2 -5.24893 8.94259 17.3855
352 2 -6.81994 12.36 10.2444
325 1 -4.41542 12.7172 12.5837
266 3 2.36989 9.23498 14.901
132 2 -5.92027 10.6782 10.3003
129 2 -2.22032 8.27401 17.0219
327 2 -4.50731 13.1718 11.4488
288 2 -5.60209 9.0678 8.91198
131 2 -0.721202 9.12144 17.5093
15 4 7.31344 2.92689 0.839241
18 4 8.32049 2.32289 5.7709
22 4 6.49371 4.94059 2.95326
330 2 15.0023 1.59914 2.7493
39 4 10.1941 2.04248 3.21467
45 4 12.0615 4.24563 1.68044
354 2 13.8489 2.41818 5.43378
48 4 11.9626 3.12998 7.45634
329 1 15.5641 0.676322 2.30483
71 1 5.89839 6.11969 1.49438
76 1 14.8699 1.81314 5.34772
77 1 11.6851 0.881588 3.73452
80 1 12.0872 3.44875 5.61395
94 2 8.96846 3.24713 7.00594
88 2 15.4985 2.24038 1.08516
106 2 12.7819 1.55891 7.37457
109 2 11.6706 6.1503 6.68685
335 2 13.671 0.465046 6.28855
150 2 5.92473 5.60752 0.474809
163 2 15.1316 1.31445 6.36871
164 2 14.8247 1.09353 4.43934
165 2 12.5485 1.44895 3.28949
167 2 11.7955 0.670608 4.82456
174 2 11.1159 4.06801 5.46925
175 2 11.9188 2.40616 5.01203
176 2 13.0351 3.99545 5.36955
149 2 4.85031 6.20283 1.93311
209 3 7.54286 3.98062 2.12201
232 3 9.47948 1.00821 2.3205
233 3 9.31516 2.22192 4.61526
234 3 13.4044 0.709652 0.605423
248 3 7.14094 5.03162 8.56085
241 3 10.9031 3.33117 2.4479
242 3 13.0407 3.29983 0.721789
243 3 12.873 5.17497 2.67025
244 3 7.17204 5.95526 4.0239
245 3 11.3016 5.34145 0.604291
246 3 10.4645 2.98947 7.96771
247 3 12.8542 4.33611 8.09657
331 2 16.4289 0.93143 1.59954
250 3 9.48058 6.29927 5.27642
204 3 8.0718 1.0812 6.57501
95 2 6.14046 3.87267 6.41082
4 4 14.9669 0.954975 9.73925
21 4 7.47656 2.30001 11.2005
312 2 9.17313 5.64705 13.3167
42 4 9.82401 1.96999 9.44944
44 4 12.5603 2.34415 10.706
73 1 7.1772 5.22327 13.4488
236 3 9.2763 0.414932 8.93178
338 2 10.4245 0.79143 12.4894
96 2 7.46754 3.80763 12.1316
104 2 12.3243 4.28778 10.6372
110 2 13.0579 2.10746 12.4109
341 2 9.5482 6.14501 15.1151
154 2 7.77191 5.4645 12.4245
155 2 7.86473 4.69345 14.1693
156 2 6.90267 6.2811 13.9238
171 2 9.01764 5.03594 11.1373
360 2 8.80758 5.22792 16.6178
193 3 15.5635 0.826356 11.2424
237 3 8.66675 2.74836 10.2682
238 3 8.60316 3.52634 17.3035