ITEM: TIMESTEP
0
ITEM: NUMBER OF ATOMS
362
ITEM: BOX BOUNDS xy xz yz pp pp pp
-8.5132789999999989e+00 1.7202700000000000e+01 -8.5132789999999989e+00
0.0000000000000000e+00 1.3430600000000000e+01 3.0499999999999999e-02
0.0000000000000000e+00 1.7586700000000000e+01 3.0270000000000002e-01
ITEM: ATOMS id type x y z
146 2 0.731535 6.54971 5.73438
2 4 -0.726342 2.78738 5.14023
5 4 2.47772 2.11686 6.20908
7 4 -0.813474 3.64808 2.00573
14 4 5.07835 2.67148 4.37181
23 4 2.67997 6.09139 4.38177
59 1 2.63342 1.35061 2.31579
60 1 -1.45267 4.17958 6.28408
61 1 2.47391 3.54733 7.4351
95 2 6.01634 3.6916 6.69179
69 1 0.117326 5.30707 1.57524
87 2 -1.47237 5.32633 1.26104
353 2 6.09688 0.516588 8.26461
93 2 3.51005 4.58434 4.05829
211 3 3.39644 6.57298 5.76902
116 2 2.86987 2.44271 2.33745
25 4 5.64031 4.62802 8.06659
118 2 -1.76571 5.04977 5.43786
119 2 -0.449104 4.41989 6.8048
120 2 1.35943 3.90953 7.31961
121 2 3.2471 4.26886 7.04825
114 2 1.79808 1.12558 3.02365
123 2 -2.31323 5.30099 3.81188
70 1 0.786557 6.19399 4.60981
62 1 -2.41254 6.42503 4.10319
143 2 0.888141 3.63319 1.26582
144 2 0.326961 5.68282 2.72004
147 2 0.587049 5.09897 4.39903
115 2 2.39483 1.09411 1.26581
191 3 0.661627 2.1923 5.57021
192 3 2.85072 0.747589 7.01055
194 3 -0.814532 3.36981 3.51865
199 3 5.22381 1.30271 3.39903
200 3 3.7728 2.5162 5.31348
122 2 2.6866 3.17328 8.46315
287 2 -1.79805 5.18315 8.04426
208 3 4.79741 3.95923 3.34771
201 3 7.38418 1.29799 1.08632
350 2 4.43635 5.19714 0.580284
142 2 0.595624 6.03084 0.894532
3 4 3.57561 0.144026 8.26721
13 4 8.30464 0.0629808 1.63617
1 4 4.18534 0.27751 2.75456
203 3 6.66513 2.85338 5.45047
212 3 4.77997 5.91123 7.75176
283 4 -3.38245 5.41856 8.55409
117 2 -2.30548 3.86988 7.04782
6 4 0.0519761 1.33914 11.7744
9 4 0.766058 4.26899 13.0777
17 4 4.75217 2.43509 9.97065
20 4 5.09087 3.11538 16.4488
24 4 3.4754 6.50207 17.2092
27 4 5.26406 4.7383 13.6879
28 4 0.96364 5.7513 15.8834
322 2 0.0445985 1.3169 14.3628
63 1 0.030646 5.6477 12.1241
67 1 3.64402 3.15467 11.5907
68 1 1.08868 1.41583 10.0975
89 2 2.46104 4.26344 12.642
91 2 3.57803 3.0518 17.095
92 2 5.35094 1.52091 16.2621
97 2 5.39066 3.47322 12.4871
98 2 -0.101256 5.44883 17.1723
99 2 2.80904 6.12425 10.9775
126 2 -0.731889 5.15657 11.4636
127 2 0.862198 6.24335 11.5873
297 2 -2.14223 6.46555 14.4703
136 2 3.80603 2.52477 12.5531
137 2 2.66775 2.93656 11.1206
138 2 3.87961 4.26101 11.7413
139 2 1.13439 2.5171 9.89864
140 2 1.07062 0.85504 9.08044
141 2 2.08538 1.08991 10.5815
195 3 0.0748993 2.87861 12.3342
202 3 3.9864 1.30019 9.30383
86 2 -0.536332 1.59414 8.97866
206 3 6.15474 2.00577 10.5324
296 4 -3.35568 5.83152 15.4277
213 3 5.13211 3.98559 15.1105
214 3 0.599084 4.59903 14.6447
215 3 2.44381 5.61297 16.4189
216 3 4.42258 5.94725 13.1167
276 3 1.04716 0.405148 12.6924
328 2 3.53264 0.833415 13.9726
128 2 -0.439541 6.18588 13.0853
321 1 -0.652639 1.66409 15.1557
298 2 -2.27976 4.74265 16.1613
324 2 -0.302361 2.6371 15.7164
205 3 6.06925 3.62366 17.5541
210 3 4.85131 3.68986 9.01016
327 2 3.89602 0.57521 11.5675
280 2 -1.66948 2.85861 13.9887
358 2 -3.9462 6.58213 17.0378
320 2 -5.69082 12.8921 4.53017
347 2 -3.57473 12.2668 7.86859
10 4 -2.69118 9.03412 1.44795
26 4 3.78019 7.03005 7.22873
101 2 0.932706 9.67719 0.417814
16 4 -0.0562103 13.083 7.7607
159 2 0.91969 9.92866 2.18369
362 3 0.459923 12.2453 0.54853
31 4 -1.53355 10.826 3.56431
33 4 1.50027 8.46443 8.53944
34 4 0.534473 10.3345 6.25998
64 1 -1.60847 7.81126 0.406362
66 1 -1.7835 12.6772 8.60647
291 2 -4.0838 9.38953 6.24045
74 1 0.865615 8.79896 2.16527
100 2 -3.1337 11.2988 4.05155
319 2 -5.54899 11.1801 3.60559
30 4 2.73637 8.21961 2.06404
318 2 -4.31678 11.7929 5.0093
130 2 -0.889073 6.91955 0.928127
221 3 2.36108 7.07055 8.12876
134 2 -1.98684 11.5872 8.22964
284 4 -4.16392 8.50575 8.21673
317 1 -4.89808 12.0927 4.14092
157 2 0.630702 8.48326 3.24339
158 2 0.0745573 8.39548 1.43107
196 3 -4.026 8.13075 2.31883
197 3 -3.23983 10.1879 0.509426
198 3 -4.02362 12.6434 1.31921
178 2 -5.45747 9.04581 2.57965
217 3 3.00365 7.16523 3.27666
218 3 2.87714 7.52918 0.604862
219 3 -1.64541 9.48176 2.7157
220 3 -0.920385 12.0741 2.74206
295 3 -3.81422 6.88391 8.30142
222 3 -0.620432 10.4244 4.82836
223 3 0.417546 8.99615 7.45463
224 3 0.381595 11.7412 6.92113
285 1 -2.97742 9.3745 7.18436
289 2 -2.1329 8.71938 6.75774
8 4 -4.1689 6.69936 3.4291
290 2 -2.6128 10.3662 7.57699
361 2 -6.64355 10.5809 2.07279
125 2 -1.84465 7.09374 3.36071
145 2 0.301003 6.90608 3.8466
180 2 2.13624 9.99697 4.55429
124 2 -2.22118 6.73836 5.17873
19 4 -0.0565433 12.9115 12.8172
32 4 0.700374 11.4065 17.042
35 4 1.38527 8.2899 14.2875
36 4 -1.76085 11.7274 15.4108
37 4 0.46414 10.1364 12.0728
75 1 -0.70233 9.20905 10.7837
131 2 -1.03003 8.79347 17.2584
102 2 0.688579 8.02928 10.0453
103 2 -2.53963 10.4906 14.5861
286 1 -4.34873 9.50969 10.1216
160 2 -0.496521 8.15556 11.2888
161 2 -0.630094 9.14483 9.663
162 2 -1.68389 9.665 11.0464
225 3 0.672039 7.27788 15.3924
226 3 2.2572 7.3428 13.2334
227 3 -0.752864 10.9479 16.3593
228 3 -0.853524 12.6652 14.3348
229 3 -2.72841 12.7049 16.2845
230 3 0.346742 9.31633 13.46
231 3 -0.378398 11.4763 11.9
135 2 -1.46768 12.755 9.67799
299 2 -3.58064 7.59827 15.5059
272 4 -6.1944 12.7906 13.37
273 4 -6.44834 11.2479 16.105
274 2 -3.67401 12.9415 13.0351
11 4 -3.81396 11.9655 17.5486
277 3 -5.19433 11.9441 16.8083
278 3 -6.38923 11.6474 14.5454
326 2 -4.84773 11.6925 11.9546
293 2 -3.42484 8.8335 10.357
292 2 -4.11364 10.573 9.85815
294 2 -4.79346 9.43208 11.1456
349 2 -5.85599 12.1036 9.01492
359 2 -5.01594 8.7124 17.1126
352 2 -7.12982 12.4981 10.3239
325 1 -4.57258 12.905 12.4404
266 3 2.51717 9.25754 15.0483
132 2 -6.05565 10.756 10.2705
129 2 -2.48866 7.65048 17.452
29 4 3.4064 6.82808 12.3632
65 1 -7.03892 11.3785 10.4914
151 2 3.97215 7.11709 15.0228
288 2 -5.74964 9.08157 9.00751
261 3 2.56283 9.4625 9.03484
15 4 7.39759 2.84846 0.668079
18 4 8.31443 2.37459 5.80144
22 4 6.51942 4.81155 2.88586
330 2 14.9617 1.52775 2.55226
39 4 10.4076 1.9309 3.24474
45 4 11.9496 4.2812 1.63956
354 2 14.0005 2.13166 5.54757
48 4 12.0146 3.11199 7.55836
329 1 15.5716 0.610809 2.17008
71 1 5.91957 6.09955 1.58146
76 1 14.9734 1.54923 5.30169
77 1 11.8319 0.745995 3.75085
80 1 12.2607 3.27239 5.67114
94 2 8.96764 3.40551 6.9512
88 2 15.481 2.4135 1.19409
106 2 12.7897 1.52611 7.7971
109 2 11.1879 6.17227 7.12858
335 2 13.6887 0.454996 6.36972
150 2 6.1942 5.59767 0.583222
163 2 15.3839 1.08694 6.27548
164 2 14.908 0.809153 4.39033
165 2 12.704 1.36056 3.36457
167 2 11.7512 0.610256 4.85871
174 2 11.2426 3.87134 5.51729
175 2 12.2314 2.27997 5.12746
176 2 13.1996 3.85748 5.37824
149 2 4.81856 6.27777 1.881
209 3 7.51191 3.89781 2.11944
232 3 9.57495 0.879171 2.34385
233 3 9.38756 2.26976 4.69935
234 3 13.2142 0.664589 0.739248
248 3 7.10701 5.04752 8.67313
241 3 11.0723 3.29884 2.61144
242 3 13.1074 3.36159 0.780585
243 3 12.7225 5.24113 2.76928
244 3 7.11639 5.77667 3.96797
245 3 11.1793 5.29655 0.567446
246 3 10.4007 3.02457 7.85102
247 3 12.8679 4.3664 7.94436
331 2 16.3422 0.877072 1.30164
250 3 9.49201 6.42667 4.99873
334 2 11.922 0.211878 7.37213
204 3 8.10122 1.08916 6.58919
4 4 15.205 0.992919 9.66454
21 4 7.56546 2.40386 11.1847
312 2 9.09294 5.75681 13.3899
42 4 9.91765 2.02824 9.4658
44 4 12.7812 2.37288 10.6509
73 1 7.15473 5.17773 13.5667
236 3 9.52829 0.559122 8.87162
338 2 10.5202 0.680479 12.2977
96 2 7.42191 3.73402 12.2166
104 2 12.39 4.22399 10.5568
110 2 13.2056 2.14144 12.4076
341 2 9.52184 6.3476 15.1403
154 2 7.48935 5.79486 12.4825
155 2 7.78077 4.28084 13.8092
156 2 7.07989 5.92735 14.4725
171 2 8.62388 5.6539 11.3369
360 2 8.86861 5.2854 16.6544
193 3 15.6472 0.698799 11.1185
237 3 8.70999 2.8496 10.0987
238 3 8.72629 3.6357 17.2029
239 3 13.9297 2.058 9.58422
240 3 11.2596 1.94325 10.4721
279 4 14.6471 1.65037 14.9554
340 1 9.05709 6.39971 16.2328
281 3 13.7315 2.27355 16.1961
348 2 13.8473 5.11269 10.2752
304 1 10.2112 6.09938 13.1909
300 4 9.88528 2.86212 16.1858
301 4 11.1775 4.63023 13.8296
302 1 8.80486 1.45804 15.4662
303 1 13.4672 3.8789 11.8161
305 2 9.53447 0.548454 15.2747
306 2 8.37499 1.78734 14.4706
307 2 8.03416 1.32421 16.2719
308 2 13.4139 4.51963 12.6917
207 3 8.04996 1.11687 11.9698
310 2 11.5948 3.7665 12.3611
314 3 11.1273 2.25793 17.0035
315 3 10.2074 3.77604 14.7604
316 3 12.4696 5.15472 14.5829
107 2 9.56642 5.66329 9.71815
313 2 10.502 5.97689 12.082
282 3 14.0102 0.453899 14.0555
40 4 12.6945 2.3428 17.4691
323 2 16.2578 0.641568 16.0954
79 1 8.24582 6.63101 10.7805
49 4 8.15978 6.17896 8.85017
309 2 14.5108 3.92159 11.4415
337 2 10.4499 0.433515 14.2273
38 4 5.74246 12.6997 1.21472
41 4 4.98519 11.8766 8.67938
260 3 9.2339 9.59799 8.61952
50 4 10.7532 7.05819 5.66368
51 4 9.16522 8.62867 1.91311
52 4 4.39269 10.5218 3.15296
54 4 9.02755 8.6489 7.35137
56 4 6.65254 10.5576 5.21976
78 1 4.71882 8.79605 7.25214
81 1 10.6529 9.63141 2.69367
82 1 2.32968 10.3769 5.59493
83 1 7.95207 11.5008 4.30641
105 2 7.31747 8.09005 5.41902
111 2 3.10844 11.2525 3.97873
112 2 5.86348 11.8443 6.14595
113 2 5.4705 10.2456 8.32961
148 2 6.55872 7.0158 1.82051
166 2 3.07303 12.9462 3.14933
265 3 7.65025 9.45028 6.19206
332 2 7.47104 13.014 2.9597
169 2 4.02658 9.68302 7.52206
170 2 4.97833 8.7924 6.13046
177 2 10.2896 9.70668 3.78606
168 2 5.57654 8.55214 7.94727
179 2 2.46876 11.5545 5.70658
46 4 8.08008 7.04528 4.323
181 2 3.1138 9.71183 6.15836
182 2 7.57295 11.1739 3.21644
183 2 8.99665 11.0427 4.60696
333 1 4.41381 12.8484 7.06708
249 3 11.9801 7.07287 4.56569
251 3 8.39653 7.76409 3.01061
252 3 9.73624 7.73782 0.667994
253 3 3.78994 9.40315 2.25514
254 3 5.11501 11.677 2.27835
256 3 8.21634 9.83345 1.19815
355 2 4.18402 11.7899 6.56968
258 3 8.4198 7.35337 7.86284
259 3 10.3698 8.47478 6.2164
184 2 7.81701 12.5923 4.5471
264 3 5.46197 9.97059 4.26483
257 3 6.67395 11.9112 0.00166571
187 2 4.19128 11.0076 0.0173591
12 4 8.61185 10.5825 9.65199
43 4 4.80744 12.3578 13.3814
53 4 8.00346 11.0478 17.3688
55 4 3.27994 10.1718 10.3256
57 4 3.09847 10.6764 15.4485
58 4 6.21289 10.0658 11.8598
357 2 11.4565 7.76115 15.518
72 1 4.58405 7.34914 15.9718
84 1 4.31157 10.3745 16.9744
85 1 6.6977 8.74366 13.0429
345 2 6.78996 10.7722 15.334
108 2 4.1897 8.16985 11.7394
346 2 6.61865 9.03863 16.2821
172 2 7.0974 6.77901 10.8537
342 2 8.12263 7.12282 16.3678
153 2 4.47183 8.52693 16.3348
351 2 3.58229 12.9397 12.3002
185 2 5.44025 10.1809 16.6294
186 2 3.84727 9.46278 17.5347
275 2 10.8843 9.49085 16.3351
188 2 7.73265 8.38789 12.5917
189 2 5.73638 8.09446 12.9356
190 2 6.82226 9.12927 14.1683
235 3 6.31613 12.753 8.89861
255 3 9.37205 11.6393 16.8092
262 3 3.85541 11.7668 9.75891
356 2 2.23413 12.015 13.1084
267 3 3.99051 11.4572 14.4173
268 3 1.94144 11.7319 16.048
269 3 7.48435 10.2012 10.6676
270 3 4.5823 9.37002 10.8513
271 3 5.7972 11.4632 12.6985
344 2 8.32445 9.51667 15.5119
133 2 9.67435 11.0872 11.5862
173 2 8.73006 7.59106 11.1244
311 2 10.5394 7.09252 13.6173
263 3 2.14389 10.2442 11.4242
343 1 7.31715 9.94142 15.9679
336 1 1.77318 13.0663 13.2055
339 1 11.8812 7.77085 16.5643
90 2 8.21588 12.0169 8.79753
47 4 10.5349 6.87771 17.3952
152 2 5.60216 6.92034 15.9728
ITEM: TIMESTEP
100
ITEM: NUMBER OF ATOMS
362
ITEM: BOX BOUNDS xy xz yz pp pp pp
-8.5132789999999989e+00 1.7202700000000000e+01 -8.5132789999999989e+00
0.0000000000000000e+00 1.3430600000000000e+01 3.0499999999999999e-02
0.0000000000000000e+00 1.7586700000000000e+01 3.0270000000000002e-01
ITEM: ATOMS id type x y z
146 2 0.721268 6.1903 5.81019
2 4 -0.791692 2.83641 5.12846
5 4 2.40542 2.24689 6.20506
7 4 -0.909892 3.77515 1.99446
14 4 5.19685 2.68642 4.40372
23 4 2.74517 6.08371 4.39647
59 1 2.5084 1.41485 2.35444
60 1 -1.43612 4.27228 6.19176
61 1 2.18155 3.51372 7.5246
95 2 6.02075 3.72631 6.47411
69 1 0.192481 5.38782 1.61329
87 2 -1.54189 5.51212 1.50812
353 2 6.04624 0.292883 8.13012
93 2 3.3475 4.57714 3.96273
211 3 3.23865 6.55584 5.78494
116 2 2.77631 2.47464 2.11338
205 3 5.94484 3.47005 0.0356652
118 2 -1.78791 5.2265 5.42725
119 2 -0.585256 4.53201 6.83439
120 2 1.15178 4.00338 7.34756
121 2 3.06217 4.2283 7.30358
114 2 1.84677 1.32402 3.22311
123 2 -1.94027 5.806 3.7025
70 1 0.826897 5.98863 4.70475
124 2 -2.67943 6.53105 5.33318
143 2 0.849008 3.80143 1.46515
144 2 0.416928 5.65352 2.76811
147 2 0.890361 4.76707 4.47798
115 2 2.09301 0.789759 1.45554
191 3 0.882709 2.41148 5.51591
192 3 2.70851 0.554618 6.94761
194 3 -0.896774 3.44624 3.52725
199 3 5.22409 1.33753 3.46073
200 3 3.87217 2.66841 5.29331
122 2 2.29153 3.02255 8.56217
287 2 -1.74417 5.17332 7.96618
208 3 4.96516 4.03842 3.48714
201 3 7.23985 1.22097 1.09249
350 2 4.52262 5.27242 0.624378
142 2 0.687275 6.17257 0.912201
117 2 -2.34074 3.83518 6.74544
13 4 8.2277 0.0508357 1.60427
1 4 4.17126 0.341258 2.77319
88 2 -1.45314 2.44952 1.08066
212 3 4.83847 5.89481 7.63985
283 4 -3.31326 5.40775 8.58543
145 2 0.116332 6.58385 4.09093
6 4 0.209422 1.39275 11.7294
9 4 0.812564 4.20605 13.093
17 4 4.74958 2.38128 9.85776
20 4 5.15832 3.15638 16.4713
24 4 3.4516 6.4831 17.1764
27 4 5.38946 4.70494 13.6915
28 4 0.841761 5.79079 15.9189
322 2 0.0424323 1.17881 14.5175
63 1 0.0269241 5.54321 12.0387
67 1 3.6415 3.0928 11.3896
68 1 0.845949 1.61123 9.88617
89 2 2.48527 4.2114 12.511
91 2 3.54675 2.95216 16.9257
92 2 5.66382 1.63306 16.2778
97 2 5.26358 3.52436 12.428
98 2 -0.166229 5.50907 17.2377
99 2 2.8238 6.01613 11.0294
126 2 -0.926269 5.30448 11.5924
127 2 0.83893 5.7174 11.2402
297 2 -2.01708 6.15855 14.754
136 2 3.64462 2.32664 12.2051
137 2 2.67766 3.00007 10.6769
138 2 3.83848 4.18985 11.6082
139 2 0.777661 2.67713 9.44571
140 2 0.459618 0.747059 9.24677
141 2 1.97412 1.35485 10.2598
195 3 0.294855 2.86262 12.6175
202 3 3.99423 1.0719 9.18095
86 2 -0.842947 1.77024 8.84048
206 3 6.09857 2.06412 10.6128
296 4 -3.47005 5.93253 15.5143
213 3 5.28117 3.94673 15.1043
214 3 0.496213 4.52819 14.6725
215 3 2.34356 5.57831 16.463
216 3 4.3605 5.84013 13.1993
207 3 7.9192 1.13283 12.2994
328 2 3.31361 1.17382 13.6518
128 2 -0.0406632 6.48009 12.6692
321 1 -0.741598 1.46295 15.2673
298 2 -2.49805 5.03945 16.587
324 2 -0.449477 2.42801 15.7577
327 2 3.94248 0.412954 11.713
210 3 4.97577 3.59533 8.84712
348 2 -2.98568 5.17751 10.2387
358 2 -3.92771 6.85714 17.0465
320 2 -5.86807 12.6252 4.24448
347 2 -3.61793 12.1751 7.6609
10 4 -2.67773 9.09613 1.51788
26 4 3.73021 6.93624 7.27951
101 2 0.984782 9.89099 0.714885
16 4 -0.0569396 13.0962 7.71255
159 2 1.17408 10.0237 2.45984
362 3 0.400723 12.376 0.482315
31 4 -1.46258 10.9545 3.61432
33 4 1.44557 8.48773 8.49135
34 4 0.457266 10.2692 6.28171
64 1 -1.42422 8.03186 0.517625
66 1 -1.83519 12.5934 8.5462
291 2 -3.8109 9.44961 6.29913
74 1 1.06663 8.89063 2.42104
100 2 -3.03182 11.4321 4.21773
319 2 -5.38149 10.9746 3.40281
30 4 2.85196 8.33605 2.09035
318 2 -4.33404 11.7854 4.8406
130 2 -0.774134 7.04343 0.941858
221 3 2.278 7.09912 8.13379
134 2 -2.05557 11.5644 8.07204
284 4 -4.05485 8.54142 8.3523
317 1 -4.89605 11.9733 3.89506
157 2 0.90312 8.34803 3.4311
158 2 0.118831 8.57665 1.70201
196 3 -3.73677 8.12584 2.08764
197 3 -3.24441 10.3739 0.488218
198 3 -3.99268 12.7708 1.34492
178 2 -5.26011 8.86172 2.30418
217 3 2.89979 7.03542 3.13505
218 3 2.96806 7.34954 0.48169
219 3 -1.69182 9.71782 2.67059
220 3 -0.816272 12.1291 2.87607
295 3 -3.72082 6.94889 8.43863
222 3 -0.661399 10.5087 4.88428
223 3 0.339492 8.99808 7.30904
224 3 0.479578 11.6433 7.11006
285 1 -2.9605 9.35819 7.13001
289 2 -2.05282 8.67482 6.90821
8 4 -4.0371 6.72198 3.33633
290 2 -2.65197 10.4172 7.56065
361 2 -6.42199 10.452 1.94351
125 2 -1.93597 7.77115 4.02186
62 1 -2.42157 6.7436 4.26215
180 2 2.02587 9.90347 4.44116
11 4 -3.84058 11.8041 0.0288219
3 4 -5.00059 13.1141 8.19255
131 2 -0.700759 8.7941 0.0677637
19 4 -0.152659 12.882 12.8741
32 4 0.662522 11.4528 17.1378
35 4 1.47936 8.18571 14.2093
36 4 -1.77858 11.9316 15.5427
37 4 0.434929 9.89892 11.9211
75 1 -0.92092 9.02646 10.8846
261 3 2.49277 9.55067 8.95651
102 2 0.341257 8.05187 9.72208
103 2 -2.87879 10.8162 15.0729
286 1 -4.2414 9.68443 10.0161
160 2 -0.774131 7.91945 10.9882
161 2 -0.874576 9.37509 9.81702
162 2 -1.84067 9.3214 11.4073
225 3 0.439248 7.14444 15.3633
226 3 2.30496 7.27589 13.2518
227 3 -0.649213 11.0706 16.3284
228 3 -1.13813 12.6068 14.1521
229 3 -2.73748 13.0189 16.3237
230 3 0.439654 9.08313 13.249
231 3 -0.159642 11.4967 11.9444
135 2 -1.68615 12.6449 9.66212
299 2 -3.6873 7.69716 15.4762
272 4 -6.22953 12.8805 13.395
273 4 -6.39918 11.3108 16.1059
274 2 -3.49184 12.8923 13.0963
263 3 1.95638 10.1022 11.1795
277 3 -5.27277 11.8553 16.9722
278 3 -6.24737 11.8803 14.6115
326 2 -4.70631 11.7113 12.1342
293 2 -3.21169 8.83518 10.3373
292 2 -3.91474 10.7397 9.74809
294 2 -4.94127 9.76251 10.8456
349 2 -5.87358 11.878 8.90194
359 2 -5.23801 8.85963 17.0285
352 2 -7.14856 12.4266 10.1139
325 1 -4.52934 12.8604 12.516
266 3 2.53288 9.1778 15.0521
132 2 -5.91513 10.7999 10.2816
129 2 -2.12576 7.95134 17.3203
29 4 3.44982 6.79949 12.3833
65 1 -6.99646 11.3143 10.4497
276 3 -7.42479 13.2482 12.4899
288 2 -5.67148 8.9324 9.14924
15 4 7.36411 2.89719 0.889419
18 4 8.33137 2.436 5.81323
22 4 6.53959 4.9345 2.94865
330 2 15.2046 1.55549 2.50915
39 4 10.264 1.89434 3.18325
45 4 11.8859 4.23754 1.6055
354 2 13.8941 2.26702 5.35027
48 4 11.9511 3.12877 7.46078
329 1 15.7086 0.662241 2.08378
71 1 5.87514 6.25744 1.59698
76 1 14.8952 1.54914 5.16419
77 1 11.7864 0.806378 3.60375
80 1 12.2051 3.32389 5.57029
94 2 9.02719 3.56414 6.81136
204 3 8.0232 1.02836 6.63081
106 2 12.6943 1.56983 7.36255
109 2 11.1849 5.92405 6.8574
335 2 13.591 0.397682 6.19902
150 2 6.22383 5.8775 0.582558
163 2 15.3299 1.00509 6.0797
164 2 14.9066 0.927871 4.27118
165 2 12.704 1.40271 3.517
167 2 11.5836 0.415538 4.70702
174 2 11.3103 4.03879 5.39816
175 2 12.1204 2.34466 4.92491
176 2 13.2339 3.91383 5.52222
149 2 4.82181 6.44589 1.87601
209 3 7.5571 3.79198 2.19267
232 3 9.47349 0.810934 2.33262
233 3 9.31266 2.21281 4.6808
234 3 13.1784 0.625017 0.584824
248 3 7.15902 4.97047 8.39776
241 3 10.9515 3.17447 2.3898
242 3 12.9295 3.3563 0.751549
243 3 12.8239 5.3204 2.58458
244 3 7.01679 5.87844 4.07894
245 3 11.1567 5.30657 0.55051
246 3 10.4713 3.01276 8.00713
247 3 12.8738 4.29899 8.0944
331 2 16.4256 0.780879 1.2451
250 3 9.48759 6.36369 5.06429
25 4 5.73476 4.57963 7.9083
203 3 6.87499 2.96521 5.35528
4 4 15.1434 0.958377 9.75838
21 4 7.50187 2.27958 11.2567
312 2 9.20989 5.67247 13.293
42 4 9.86605 1.96378 9.51162
44 4 12.7454 2.39191 10.6552
73 1 7.2301 5.24838 13.4499
236 3 9.48338 0.504981 8.90639
338 2 10.6435 0.907779 12.6366
96 2 7.56975 3.74803 12.205
104 2 12.3963 4.20767 10.3714
110 2 13.2868 2.39785 12.4209
341 2 9.61779 6.08461 15.093
154 2 7.68552 5.77216 12.4064
155 2 7.8179 4.28304 13.8561
156 2 7.08336 6.0663 14.4218
171 2 8.76292 5.61832 11.3254
360 2 8.92034 5.14847 16.5973
193 3 15.8478 0.991067 11.3817
237 3 8.65146 2.63765 10.1686
238 3 8.65488 3.46681 17.3082
239 3 13.9116 1.89474 9.69684
240 3 11.2994 1.82366 10.5596
279 4 14.534 1.54761 14.982
340 1 9.17643 6.16656 16.1597
281 3 13.7389 2.46492 16.0613
280 2 15.528 2.63919 13.9694
304 1 10.4303 5.83768 13.199
300 4 9.8064 2.66374 16.2686
301 4 11.3228 4.42229 13.9903
302 1 8.84872 1.26045 15.6258
303 1 13.3841 4.06525 11.6776
305 2 9.46596 0.289381 15.4268
306 2 8.37499 1.74906 14.6853
309 2 14.4381 3.82288 11.3366
308 2 13.4608 4.96969 12.3802
307 2 8.13647 1.08557 16.4796
310 2 11.8858 3.37888 12.673
314 3 11.2171 2.26489 16.7674
315 3 10.2407 3.75322 14.8513
316 3 12.5715 5.16873 14.7722
107 2 9.71084 5.46913 9.48707
313 2 10.839 5.54406 12.0691
282 3 13.9261 0.443674 14.1093
40 4 12.7546 2.26128 17.3852
323 2 16.1508 0.50031 16.117
79 1 8.55961 6.53072 10.758
49 4 8.22911 6.12626 8.87196
152 2 5.57811 6.81921 16.3522
38 4 5.69932 12.8169 1.25394
41 4 4.99699 11.8922 8.51976
260 3 9.20469 9.69775 8.49516
50 4 10.7397 7.06218 5.7374
51 4 9.18171 8.72546 1.90434
52 4 4.48755 10.6035 3.25605
54 4 8.94216 8.68539 7.29715
56 4 6.65947 10.5385 5.30086
78 1 4.62326 8.71142 7.09721
81 1 10.843 9.42064 2.51519
82 1 2.22119 10.1663 5.53869
83 1 7.94073 11.6167 4.38797
105 2 7.19351 7.96152 5.57306
111 2 3.11746 11.22 4.14708
112 2 6.04543 11.9742 6.14597
113 2 5.47447 10.3796 7.78547
148 2 6.53172 7.15423 1.85969
166 2 3.19736 13.1318 2.7808
265 3 7.39726 9.35991 6.23825
332 2 7.53809 13.0075 2.90658
169 2 4.02303 9.57055 7.48533
170 2 4.90728 8.73129 6.01717
177 2 10.698 9.48796 3.66432
168 2 5.55144 8.56538 7.7612
179 2 2.42993 11.2973 5.69773
46 4 8.05431 7.01647 4.38379
181 2 3.05178 9.51738 6.05838
182 2 7.65881 11.33 3.33908
183 2 9.01717 11.2359 4.67372
333 1 4.36756 12.7713 6.87801
249 3 12.0942 7.08011 4.5915
251 3 8.4617 7.93259 3.19607
252 3 9.74225 7.5956 0.876378
253 3 3.77301 9.57604 2.29934
254 3 5.13912 11.8806 2.46315
256 3 8.27985 9.83929 1.07873
355 2 4.20762 11.6904 6.38231
258 3 8.59029 7.31838 7.93204
259 3 10.2922 8.52139 6.38057
184 2 7.74765 12.6956 4.72781
264 3 5.57959 9.99225 4.29756
257 3 6.69089 11.8862 0.189245
187 2 4.02605 10.8921 0.10237
334 2 3.37414 13.2151 7.17586
90 2 8.09924 12.0703 8.60181
12 4 8.63836 10.6967 9.53336
43 4 4.86802 12.2965 13.3478
53 4 7.88697 11.103 17.4193
55 4 3.1378 10.3086 10.2209
57 4 3.03524 10.6805 15.4413
58 4 6.25576 10.0604 11.7097
357 2 11.4152 7.83423 15.4508
72 1 4.63304 7.32701 15.9732
84 1 4.15517 10.3292 16.9666
85 1 6.69691 8.89169 13.0474
345 2 6.38973 10.413 15.5378
108 2 4.25462 8.12921 11.7083
346 2 6.73622 8.94843 16.6757
337 2 2.01517 13.0358 14.2339
339 1 11.9179 7.92834 16.4736
153 2 4.49238 8.49209 16.1929
351 2 3.63607 12.8972 12.2983
185 2 5.28174 10.1677 16.7416
186 2 3.68856 9.36224 17.4015
47 4 10.5301 6.889 17.377
188 2 7.62352 8.41784 12.5913
189 2 5.86866 8.07052 12.9009
190 2 6.805 9.24003 14.2121
235 3 6.4037 12.75 8.97686
255 3 9.3053 11.5565 16.706
262 3 3.80839 11.7305 9.56296
356 2 2.08616 12.2099 12.4792
267 3 4.123 11.3888 14.397
268 3 1.9131 11.6248 16.1179
269 3 7.57498 10.1536 10.6134
270 3 4.55389 9.39978 10.8705
271 3 5.86301 11.4217 12.5072
344 2 8.07982 9.62532 15.465
133 2 9.94548 11.0525 11.5578
173 2 9.30304 7.34626 10.9654
311 2 10.8274 6.82261 13.6295
151 2 4.31136 7.02852 14.9131
343 1 7.18431 9.83605 16.1362
336 1 1.76392 13.092 13.0991
275 2 10.8486 9.59024 15.9748
172 2 7.37816 6.85054 10.8424
342 2 8.45363 7.00794 16.3451
ITEM: TIMESTEP
200
ITEM: NUMBER OF ATOMS
362
ITEM: BOX BOUNDS xy xz yz pp pp pp
-8.5132789999999989e+00 1.7202700000000000e+01 -8.5132789999999989e+00
0.0000000000000000e+00 1.3430600000000000e+01 3.0499999999999999e-02
0.0000000000000000e+00 1.7586700000000000e+01 3.0270000000000002e-01
ITEM: ATOMS id type x y z
146 2 0.693243 5.90708 5.64267
2 4 -0.750988 2.99331 5.05312
5 4 2.41645 2.16854 6.26622
7 4 -0.987752 3.62503 1.88025
14 4 5.10571 2.64302 4.41416
23 4 2.77829 6.11614 4.34371
59 1 2.5193 1.56171 2.41034
60 1 -1.37261 4.40172 6.21678
61 1 2.26228 3.3838 7.68837
212 3 4.7671 5.77471 7.75661
69 1 -0.155857 5.42743 1.49575
87 2 -1.86508 5.20321 1.42118
353 2 5.95823 0.364508 8.15041
93 2 3.76712 4.75262 3.84409
211 3 3.29248 6.45714 5.76594
116 2 3.03408 2.45986 1.98715
205 3 5.92022 3.38234 0.0294432
118 2 -1.87071 5.29173 5.55735
119 2 -0.458004 4.64711 6.81094
120 2 1.14401 3.74319 7.44894
121 2 2.98259 4.17859 7.45558
114 2 1.94393 1.7895 3.3859
123 2 -1.89244 5.89552 3.87344
70 1 0.8533 5.89 4.48763
283 4 -3.303 5.36982 8.67445
143 2 0.579747 3.91604 0.907414
144 2 0.216169 5.62883 2.59154
147 2 0.869467 4.8698 3.98528
115 2 1.93103 1.04632 1.61497
191 3 0.848371 2.37103 5.4154
192 3 2.53328 0.771152 7.02665
194 3 -0.882068 3.36119 3.40844
199 3 5.16401 1.17296 3.64479
200 3 3.84226 2.63724 5.40347
122 2 2.36066 2.92931 8.68874
287 2 -1.75286 5.03224 8.02978
208 3 4.91604 3.77924 3.24263
201 3 7.22984 1.34575 1.18636
350 2 4.36449 5.14997 0.680156
142 2 0.197571 6.31937 0.878151
117 2 -2.1341 3.75457 6.74742
13 4 8.24784 0.120563 1.71758
1 4 4.07076 0.403822 2.80124
203 3 6.78146 2.83433 5.34803
3 4 3.39388 0.163522 8.23821
25 4 5.71399 4.53482 7.93831
6 4 0.182342 1.26125 11.7134
9 4 0.965413 4.10609 13.1383
17 4 4.81106 2.36424 9.90572
20 4 5.1363 3.12311 16.4126
24 4 3.42538 6.49896 17.2128
27 4 5.43121 4.54993 13.5708
28 4 0.921209 5.73868 15.8411
322 2 -0.0100087 0.955096 14.4481
63 1 0.0259821 5.31483 12.0859
67 1 3.62189 3.40212 11.1909
68 1 0.928002 1.74702 10.0379
89 2 2.7106 3.9971 12.8165
91 2 3.588 2.72237 16.7718
92 2 5.37758 1.55237 16.2544
97 2 5.21905 3.27083 12.4495
98 2 -0.187823 5.43644 17.1137
99 2 3.0659 6.06294 10.9456
126 2 -0.896698 4.9149 11.6176
127 2 0.928576 5.35539 11.2355
297 2 -2.19212 6.38251 14.6705
136 2 3.64752 2.77135 12.1809
137 2 2.61975 3.40285 10.5887
138 2 4.20284 4.41161 11.2208
139 2 0.558592 2.71887 9.59666
140 2 0.736828 0.901344 9.29404
141 2 2.05257 1.78329 10.2483
195 3 0.351965 2.74908 12.603
202 3 3.95208 1.09607 9.32082
86 2 -0.774303 1.65513 8.90268
206 3 6.12817 1.96111 10.6778
296 4 -3.47363 6.01738 15.7359
213 3 5.27863 3.79997 14.9945
214 3 0.673477 4.66234 14.5909
215 3 2.39431 5.6099 16.4695
216 3 4.5711 5.75564 13.0157
207 3 7.87017 1.03047 12.155
328 2 3.49131 1.12032 13.6332
128 2 -0.0933865 6.28054 12.6806
307 2 7.76485 1.29992 16.3136
298 2 -2.5149 4.95445 16.537
324 2 -0.372454 2.14496 15.9537
210 3 5.11285 3.40507 8.82051
276 3 1.20477 0.242111 12.5219
358 2 -4.00896 6.78253 17.2237
29 4 3.50394 6.69951 12.4142
348 2 -3.05325 4.95053 10.3069
320 2 -5.94276 12.7579 4.35461
347 2 -3.75979 12.4558 7.59579
10 4 -2.61626 9.22905 1.4501
26 4 3.77008 6.89057 7.20729
101 2 0.996798 9.75367 0.438099
16 4 -0.158538 12.988 7.725
159 2 1.23781 10.2231 2.1766
362 3 0.291087 12.278 0.54648
31 4 -1.54989 11.0384 3.64708
33 4 1.41689 8.33851 8.3922
34 4 0.464759 10.2885 6.13069
64 1 -1.47298 8.17859 0.327742
66 1 -1.94958 12.5226 8.38041
291 2 -4.00703 9.12916 6.18864
74 1 1.03501 9.10743 2.31089
100 2 -3.07721 11.5822 4.23349
319 2 -5.35236 11.1421 3.55403
30 4 2.79485 8.39951 2.14007
318 2 -4.54891 11.6743 5.08833
130 2 -1.0952 7.10754 0.872758
221 3 2.39307 7.11184 8.29497
134 2 -2.21006 11.5082 7.83439
284 4 -3.93128 8.52093 8.34255
317 1 -4.98228 12.0863 4.10532
157 2 0.783542 8.93257 3.43664
158 2 0.0903767 8.62661 1.56164
196 3 -3.91748 8.03268 2.08405
197 3 -3.28077 10.3746 0.555395
198 3 -4.11847 12.7536 1.46687
178 2 -5.39996 8.90633 2.3094
217 3 2.77742 7.20682 3.27907
218 3 2.77245 7.52197 0.539811
219 3 -1.74312 9.79049 2.68397
220 3 -0.946234 12.2212 2.76423
295 3 -3.5768 6.87764 8.47444
222 3 -0.6204 10.4716 4.90277
223 3 0.566722 8.75345 7.12819
224 3 0.271358 11.6341 7.05694
285 1 -3.03962 9.36618 6.9083
289 2 -2.16809 8.76828 6.60837
8 4 -4.14705 6.77003 3.34134
290 2 -2.82919 10.5111 7.06237
361 2 -6.2597 10.5876 1.98943
125 2 -2.02325 7.78547 4.09244
62 1 -2.51394 6.76932 4.30738
145 2 0.318894 6.735 3.90588
11 4 -3.87658 11.8218 0.153466
124 2 -2.74627 6.69794 5.38656
19 4 -0.288678 12.7984 12.8594
32 4 0.567048 11.4244 17.1013
35 4 1.4113 8.17623 14.1927
36 4 -1.8913 11.9107 15.5756
37 4 0.412551 9.91129 11.9025
75 1 -0.858265 8.84947 10.9651
288 2 -5.54825 9.03275 8.85493
102 2 0.381163 7.97649 9.75705
103 2 -2.73096 10.6329 14.7679
286 1 -4.12707 9.66625 9.95785
160 2 -0.401682 7.77362 10.8815
161 2 -0.86949 9.37596 9.9546
162 2 -1.86173 8.85623 11.3917
225 3 0.591779 7.27988 15.4185
226 3 2.28175 7.06998 13.2209
227 3 -0.844085 11.0479 16.4577
228 3 -1.05847 12.6203 14.4256
229 3 -2.90484 12.9634 16.3794
230 3 0.37735 9.1255 13.2568
231 3 -0.497485 11.4097 12.0165
135 2 -1.78226 12.3885 9.46628
299 2 -3.70159 7.86002 15.939
272 4 -6.14533 12.9166 13.4086
273 4 -6.50709 11.3449 16.1738
274 2 -3.48005 13.0138 12.9645
263 3 1.92617 10.1916 11.1531
277 3 -5.27954 11.7347 17.0968
278 3 -6.31934 12.0675 14.7231
326 2 -4.55825 11.5612 12.4629
293 2 -2.9272 9.77056 9.84493
292 2 -4.40704 10.6569 10.3307
294 2 -4.50802 8.86204 10.7317
349 2 -5.86504 11.9594 8.96971
359 2 -5.28396 8.84394 17.3976
352 2 -6.93287 12.401 10.1845
325 1 -4.42356 12.7215 12.5389
266 3 2.42739 9.23658 14.8847
132 2 -5.96536 10.5669 10.2188
129 2 -2.14078 8.26417 17.0071
65 1 -6.9553 11.2866 10.4907
327 2 -4.49783 13.1803 11.4115
131 2 -0.597992 9.12177 17.508
261 3 2.41569 9.50438 8.79362
15 4 7.33378 2.93962 0.806056
18 4 8.32816 2.32651 5.76921
22 4 6.46746 4.9628 2.93539
330 2 14.9897 1.68169 2.70324
39 4 10.2053 2.04971 3.21461
45 4 12.0466 4.25426 1.67401
354 2 13.9324 2.43349 5.35974
48 4 12.0321 3.12189 7.44285
329 1 15.56 0.756157 2.24316
71 1 5.85298 6.11785 1.47578
76 1 14.9472 1.79139 5.35956
77 1 11.702 0.870493 3.69776
80 1 12.136 3.44363 5.6059
94 2 8.98348 3.26618 6.96756
204 3 8.11103 1.08075 6.5864
106 2 12.8271 1.53211 7.38365
109 2 11.6465 6.18619 6.68539
335 2 13.7318 0.491297 6.30753
150 2 5.89295 5.59924 0.507569
163 2 15.2078 1.41654 6.44325
164 2 14.8429 0.982594 4.53323
165 2 12.6049 1.41275 3.23229
167 2 11.8109 0.680155 4.78294
174 2 11.1639 4.07942 5.48086
175 2 11.9601 2.41985 4.98895
176 2 13.0913 3.99551 5.36459
149 2 4.79037 6.20656 1.89351
209 3 7.54287 4.02481 2.16678
232 3 9.48588 1.02203 2.31843
233 3 9.33397 2.22778 4.62935
234 3 13.3868 0.713611 0.593471
248 3 7.1731 5.06837 8.54809
241 3 10.8943 3.35164 2.43767
242 3 12.997 3.3081 0.697735
243 3 12.8777 5.172 2.66737
244 3 7.11346 5.98849 4.02321
245 3 11.2677 5.36497 0.603047
246 3 10.5528 2.98788 7.96745
247 3 12.918 4.30199 8.11335
331 2 16.4612 1.02939 1.58329
250 3 9.44131 6.31874 5.29237
88 2 15.4907 2.30947 0.997252
95 2 6.14827 3.90513 6.40659
332 2 15.9346 0.0752525 3.05227
4 4 15.0949 0.958994 9.71363
21 4 7.56218 2.30248 11.2039
312 2 9.23885 5.6717 13.3008
42 4 9.89315 1.98414 9.44389
44 4 12.6515 2.34221 10.6698
73 1 7.23858 5.22094 13.4324
236 3 9.33557 0.41577 8.92958
338 2 10.5156 0.813652 12.4992
96 2 7.56704 3.77506 12.1779
104 2 12.4332 4.30996 10.6464
110 2 13.1134 2.06975 12.3999
341 2 9.58338 6.1606 15.128
154 2 7.8476 5.44854 12.4342
155 2 7.88316 4.68195 14.1814
156 2 6.92728 6.2889 13.8585
171 2 9.05611 5.00548 11.1538
360 2 8.93122 5.22327 16.6798
193 3 15.6864 0.809113 11.2101
237 3 8.75218 2.76888 10.2595