ITEM: TIMESTEP
0
ITEM: NUMBER OF ATOMS
362
ITEM: BOX BOUNDS xy xz yz pp pp pp
-8.3819999999999997e+00 1.7378567000000000e+01 -8.3819999999999997e+00
0.0000000000000000e+00 1.3430600000000000e+01 2.0636699999999999e-01
0.0000000000000000e+00 1.7586700000000000e+01 3.0270000000000002e-01
ITEM: ATOMS id type x y z
3 4 4.11743 0.190809 8.33527
2 4 -0.442315 2.75487 5.1512
5 4 2.57725 2.16882 6.46807
7 4 -0.0855996 3.6515 2.02364
14 4 4.8155 2.57538 4.42208
88 2 -0.051138 2.23023 0.997096
125 2 -2.0614 5.97463 3.97954
60 1 -0.763958 4.37773 6.22881
61 1 2.06175 3.49169 7.73135
25 4 5.72034 4.34942 7.93844
69 1 0.405504 5.4303 1.67601
87 2 -1.16865 5.21435 1.4294
23 4 3.00166 6.46034 4.26034
93 2 3.55488 4.99362 3.61056
283 4 -3.02951 5.70999 8.42058
116 2 1.89196 1.17371 3.09976
117 2 -1.74406 3.87269 6.66802
118 2 -0.821703 5.304 5.5199
119 2 0.106331 4.55089 7.03398
120 2 0.888495 3.57427 7.61181
121 2 2.59443 4.39482 7.26836
70 1 1.15316 6.56774 4.57514
201 3 7.577 0.861214 1.38538
95 2 6.19101 3.68065 6.4916
142 2 0.846825 6.09573 0.871914
143 2 1.66207 4.15126 1.59925
144 2 0.644059 5.88134 2.76574
147 2 0.974067 5.41333 4.50647
350 2 4.52567 5.45971 0.283321
191 3 0.906417 1.8708 5.64405
192 3 3.08192 0.953412 7.34107
194 3 -0.245632 3.29312 3.59893
199 3 4.62339 1.19212 3.60766
200 3 3.76226 2.74109 5.55231
59 1 2.09522 0.134023 2.76933
203 3 6.55874 2.58311 5.31745
208 3 4.58185 3.79163 3.35223
62 1 -3.04393 6.04719 4.60858
212 3 4.60021 5.49892 7.77331
287 2 -1.67458 5.63745 7.4089
347 2 5.75221 0.264299 7.66905
129 2 -1.51997 6.5084 0.181657
123 2 -3.05475 5.17248 5.23058
6 4 0.430014 1.208 11.9175
9 4 0.994481 4.24306 13.0456
17 4 4.80491 2.40307 10.1298
20 4 4.98091 3.0922 16.399
324 2 -0.529762 1.98867 16.4282
91 2 3.78339 3.66183 17.3091
28 4 1.06443 6.20232 15.4806
29 4 4.03137 6.51168 11.8051
63 1 -0.111891 5.43269 12.0785
67 1 3.46473 3.44485 11.1627
68 1 1.43356 0.823335 10.3154
89 2 2.69721 4.44465 12.6895
328 2 2.76847 1.25979 14.8654
92 2 4.33234 1.62922 15.7751
205 3 6.18213 2.77808 17.2037
98 2 -0.349964 6.52593 16.4592
99 2 3.71201 5.32037 10.5566
126 2 -0.988731 4.89421 11.4957
127 2 0.809639 5.91937 11.4879
128 2 -0.498623 6.21225 12.8299
136 2 3.0726 2.67233 11.7948
137 2 2.64478 3.87109 10.4425
138 2 4.13079 4.23388 11.8186
139 2 2.01507 1.74098 10.0665
140 2 0.693464 0.565422 9.5448
86 2 -1.28878 3.25718 9.56587
195 3 0.716148 2.78923 12.5469
202 3 4.16042 0.679114 9.83482
122 2 2.47708 3.33895 8.86146
206 3 6.048 2.64063 11.096
207 3 7.78452 1.03347 12.0344
213 3 5.1973 4.12499 15.2397
214 3 0.739006 4.78546 14.7187
215 3 2.40808 6.19054 16.3476
216 3 4.85508 5.68023 12.9486
353 2 6.69273 0.520362 9.09157
297 2 -1.768 6.14191 14.7384
299 2 -2.72952 6.09648 17.2106
348 2 -2.32152 5.24079 9.9262
326 2 4.81151 1.12485 13.8115
325 1 4.11401 0.461381 14.1719
210 3 5.19542 3.12376 8.80043
322 2 0.177872 1.40419 14.745
296 4 -2.89418 5.42103 15.6612
27 4 5.73584 4.93503 13.9958
349 2 -4.47602 11.6184 8.19211
1 4 -4.41104 12.909 2.85889
10 4 -2.43698 8.48985 1.28176
11 4 -3.76637 11.2535 0.28401
101 2 1.12726 9.51985 0.422888
289 2 -3.02402 11.3109 7.22276
318 2 -3.34759 11.7904 4.95335
317 1 -4.20846 11.5487 4.30678
31 4 -0.994999 10.3507 3.12168
33 4 2.23334 8.99189 8.02529
34 4 0.692258 10.5189 5.79173
134 2 -1.9751 11.7807 8.43113
115 2 -6.72969 12.95 1.78474
13 4 0.354039 12.9147 1.51546
74 1 2.16026 9.85204 2.0768
100 2 -2.63535 10.87 3.31669
319 2 -4.17653 10.4935 3.88713
295 3 -3.45085 7.18126 8.68382
290 2 -2.73398 9.63406 6.94533
16 4 0.179303 13.0662 7.66156
288 2 -4.87132 9.78781 8.0161
124 2 -3.08352 6.95614 5.28378
145 2 0.577167 7.20801 3.85622
146 2 1.10153 7.03295 5.63708
114 2 -6.58032 12.5005 3.6234
158 2 1.25126 9.20058 2.02267
196 3 -3.48885 7.58044 2.09647
197 3 -3.06324 9.78133 0.669837
198 3 -3.81885 12.2477 1.58929
320 2 -5.18486 11.757 4.87798
217 3 3.31928 7.50508 3.16883
218 3 3.38069 7.87455 0.375107
219 3 -1.0801 8.93485 2.29711
220 3 -0.23627 11.5023 2.38146
221 3 3.1321 7.68003 8.15897
222 3 -0.340673 10.328 4.60324
223 3 1.50355 9.0859 6.65686
224 3 0.347159 11.7618 6.83004
285 1 -3.11603 10.2898 7.72793
211 3 3.79868 6.73983 5.69805
291 2 -2.26116 10.185 8.715
19 4 -0.469706 12.8024 12.8985
32 4 0.975813 11.1543 16.8907
35 4 2.01616 8.1067 13.3491
36 4 -1.72674 11.4661 15.5753
37 4 0.596829 10.3046 11.4457
75 1 -0.521186 9.2724 10.205
135 2 -0.646881 12.1949 9.77178
130 2 -0.744544 8.46617 17.0045
103 2 -2.47144 10.0657 14.8757
294 2 -5.05323 8.82422 10.8881
160 2 -0.00529524 8.26629 10.1117
161 2 -0.43877 9.91368 9.26362
162 2 -1.55773 9.23116 10.5776
225 3 1.08085 7.27698 14.3576
226 3 2.72603 7.17437 12.2796
227 3 -0.416242 10.9091 16.2372
228 3 -1.30877 12.5831 14.353
229 3 -2.82874 12.3226 16.4937
230 3 1.024 9.13929 12.4767
231 3 -0.511578 11.4369 12.0106
277 3 -5.03294 11.309 17.4218
102 2 1.00187 8.65114 9.18666
272 4 -6.11655 12.8062 14.0545
273 4 -6.39971 11.0391 16.681
274 2 -4.53679 12.3659 12.9818
131 2 -2.48213 7.59328 16.3925
327 2 -3.75126 13.0959 15.0564
278 3 -6.30595 11.6933 15.183
284 4 -3.85582 8.69135 9.12201
286 1 -3.59761 8.99193 10.9066
292 2 -3.29085 10.1215 10.9336
293 2 -3.01366 8.26854 11.5873
64 1 -1.66715 7.76176 17.277
141 2 -6.20399 13.1683 10.6859
266 3 3.09148 9.10179 14.3035
276 3 -7.44607 13.1621 12.954
151 2 4.32614 7.05399 14.7498
66 1 -1.22399 12.6385 8.8933
24 4 3.72618 6.90698 17.0675
15 4 7.37839 2.4293 0.775872
18 4 8.12905 2.26901 5.7951
22 4 6.42031 4.4731 2.85229
107 2 9.69986 4.61065 8.60003
39 4 10.3083 1.7017 3.41191
45 4 11.7041 4.05452 1.53892
354 2 14.3643 2.57976 5.13024
48 4 12.1196 3.46028 7.62874
166 2 12.2676 0.0872569 3.82925
71 1 5.98828 5.82687 1.58248
76 1 15.0822 1.73185 5.22512
77 1 11.9891 1.09157 4.22416
80 1 12.0046 3.90456 5.81298
94 2 8.61073 3.72056 6.62016
331 2 16.5762 0.523636 0.835845
106 2 12.7967 1.85465 7.73829
246 3 10.7218 3.39705 8.37278
109 2 11.6724 5.79054 6.38
150 2 6.14283 5.36046 0.572045
335 2 13.2337 0.662493 6.4647
164 2 14.9296 1.02904 4.35815
165 2 12.6989 1.93939 3.97286
167 2 11.5828 1.03155 5.30307
174 2 10.8463 4.23081 5.86243
175 2 12.1089 2.84992 5.20043
176 2 12.7077 4.72529 5.36592
163 2 15.1441 1.24482 6.25901
209 3 7.15526 3.44925 1.99271
232 3 9.89065 0.46174 2.57681
233 3 9.20978 2.01378 4.6271
334 2 11.7089 0.155775 7.57878
236 3 10.1113 0.567616 8.63239
241 3 10.9186 2.94804 2.52029
242 3 12.6232 3.23527 0.469345
243 3 12.6672 4.97438 2.46797
244 3 7.17874 5.1441 4.16454
245 3 10.7079 5.02517 0.678215
234 3 12.7238 0.526634 0.355017
247 3 13.093 4.64522 8.07245
248 3 7.09228 5.05973 8.49666
250 3 9.39316 6.3498 5.1339
329 1 15.611 1.00402 1.26777
330 2 15.2643 1.91994 0.73662
332 2 15.6946 1.1308 2.369
8 4 12.9249 6.3917 3.13991
46 4 7.88581 6.54674 4.53604
204 3 8.12496 1.23607 6.92974
47 4 10.0329 6.502 0.26991
149 2 4.92046 6.11646 1.81768
4 4 15.1708 1.88706 10.1924
21 4 7.68624 2.40674 11.1709
40 4 12.6211 2.21457 17.2121
42 4 10.0482 1.8798 9.42722
44 4 12.3721 2.76501 11.1592
73 1 7.76832 5.01483 13.5076
79 1 8.60358 6.21606 10.7146
298 2 14.7371 3.86652 15.7658
96 2 8.27321 3.61788 12.2321
104 2 12.1124 4.42971 10.2972
110 2 12.2311 3.26097 12.8306
321 1 16.5896 1.2674 15.5429
154 2 8.01013 5.50752 12.5412
155 2 8.68677 4.77801 14.1488
156 2 6.95286 6.22929 14.4532
171 2 9.4599 5.3791 10.9184
172 2 7.45573 5.92095 10.9089
193 3 16.1381 1.12084 11.2135
237 3 8.63816 2.26724 9.90284
235 3 14.9158 0.909482 8.97604
239 3 13.8001 2.27142 10.85
240 3 11.0098 2.04755 10.8407
279 4 14.8149 1.34658 14.8754
340 1 8.89444 6.79723 16.5414
281 3 13.9334 2.29327 15.8734
97 2 6.81395 3.59964 13.1744
338 2 9.95498 0.826502 12.7573
300 4 9.79396 3.05833 16.3045
301 4 11.3256 5.52196 14.354
302 1 8.60924 2.27819 15.1343
303 1 12.2989 5.03628 11.9255
305 2 9.07566 1.46541 14.4907
306 2 8.18483 3.31973 14.4367
307 2 7.80688 1.80482 15.8128
308 2 11.3458 4.71108 12.7373
309 2 13.3113 4.74193 12.3631
310 2 12.2122 6.17999 11.8922
314 3 11.0926 2.13902 16.4487
315 3 10.2099 4.61657 15.1262
316 3 12.9361 5.54013 14.9856
360 2 8.71836 5.66411 16.6149
280 2 15.9739 2.29708 13.9665
49 4 8.45127 5.78349 8.88883
152 2 5.82837 6.83307 15.9649
238 3 8.82737 3.2816 17.5281
282 3 14.162 0.270164 13.9225
38 4 5.81127 12.8306 0.920808
261 3 3.28646 10.3925 8.4348
265 3 8.10427 9.44489 6.21128
50 4 10.7976 6.96354 5.47435
51 4 8.52031 8.51363 2.22108
52 4 5.35814 10.8861 3.20607
54 4 9.30061 8.70858 7.2901
56 4 7.47079 10.6921 5.53909
78 1 5.89129 8.13816 7.2163
81 1 9.72185 9.7908 2.93923
82 1 2.26355 11.287 4.99441
83 1 8.64138 12.157 5.41572
105 2 6.98517 7.13834 5.87503
111 2 4.02885 11.2899 4.12821
112 2 7.17601 12.0314 6.67428
362 3 0.943841 12.2465 0.146221
148 2 6.71426 6.678 1.72848
159 2 2.21331 10.6626 1.33228
168 2 5.52059 8.92865 7.9554
180 2 2.88285 10.3053 4.90681
169 2 5.96092 8.59075 6.10407
170 2 6.86458 7.74016 7.57612
30 4 3.60286 8.62136 2.06311
178 2 9.50193 9.66239 4.0829
179 2 1.89767 11.7787 4.00494
355 2 4.6318 11.9896 6.8471
181 2 2.77411 12.0117 5.75425
182 2 9.14613 11.8516 4.41674
333 1 4.43288 13.0935 7.24874
177 2 9.51289 10.8147 2.53932
249 3 11.7516 7.09299 4.16993
251 3 7.81208 7.68086 3.47586
252 3 9.50612 7.44213 1.39351
253 3 4.85134 9.61717 2.35351
254 3 5.57972 12.2298 2.35942
256 3 7.63393 9.39401 0.942448
184 2 7.8777 13.1869 5.34743
258 3 8.84178 7.35919 8.1002
259 3 10.6757 8.30788 6.29087
260 3 9.6099 10.0216 8.32072
264 3 6.44248 10.6813 4.335
361 2 10.7155 9.33964 2.51596
183 2 9.44045 12.3212 6.18045
157 2 2.14733 10.3758 3.17139
359 2 11.7137 8.38775 0.129643
26 4 4.2988 6.97886 7.20059
12 4 8.99235 10.4569 9.74513
43 4 5.13887 12.2508 13.0162
53 4 7.84698 10.8293 17.3465
55 4 3.37862 10.7993 9.98159
57 4 3.2518 10.6189 14.8101
58 4 6.11913 10.0891 11.2999
65 1 9.66934 9.28086 11.04
72 1 4.86878 7.41265 15.6596
84 1 4.42526 10.4943 16.3965
85 1 6.6026 8.42165 12.1283
275 2 10.661 9.34662 16.4632
108 2 5.1095 7.6512 11.1216
132 2 8.84322 8.76598 11.5356
312 2 9.50673 7.08546 13.8144
336 1 1.37686 13.0386 13.371
153 2 4.89034 8.62049 15.7479
173 2 8.97076 7.33056 10.8014
185 2 5.49113 10.2982 15.9857
186 2 4.04608 9.6012 17.0833
187 2 4.36039 11.5377 16.8522
188 2 7.06867 7.91935 11.2287
189 2 5.90826 7.67402 12.6723
190 2 7.47154 8.929 12.8466
352 2 10.3982 8.51945 10.6689
255 3 9.28072 11.5376 17.3451
262 3 4.30593 12.5771 10.0104
133 2 10.1593 10.0842 11.7165
267 3 3.92441 11.5106 13.7117
268 3 2.02937 11.1896 15.6639
269 3 7.46636 10.5217 9.95932
270 3 4.56693 9.95855 10.7424
271 3 6.26631 11.084 12.5539
358 2 12.4834 6.98845 17.1375
357 2 11.6664 8.09411 15.8531
304 1 10.6287 7.19287 13.9597
311 2 10.8907 8.08749 14.7087
356 2 1.92062 12.1729 12.9184
313 2 11.1455 7.35639 12.9144
337 2 1.57365 13.2132 14.4607
339 1 11.7352 7.80167 16.9821
257 3 6.62101 12.0289 17.467
343 1 7.4551 9.88762 15.7377
344 2 8.44847 9.50841 15.4052
345 2 7.00845 10.5035 14.9562
346 2 6.71788 9.06621 16.0387
351 2 4.64566 13.0579 11.6053
113 2 6.55259 11.3189 8.8268
41 4 5.40852 12.671 8.87732
342 2 8.00122 7.41822 16.7434
263 3 1.90553 10.8902 10.659
341 2 9.41492 7.06243 15.5662
90 2 9.68238 12.0222 10.2758
323 2 8.03899 13.226 15.8886
ITEM: TIMESTEP
100
ITEM: NUMBER OF ATOMS
362
ITEM: BOX BOUNDS xy xz yz pp pp pp
-8.3819999999999997e+00 1.7378567000000000e+01 -8.3819999999999997e+00
0.0000000000000000e+00 1.3430600000000000e+01 2.0636699999999999e-01
0.0000000000000000e+00 1.7586700000000000e+01 3.0270000000000002e-01
ITEM: ATOMS id type x y z
204 3 7.95956 1.01623 6.53022
2 4 -0.524586 2.7319 5.19959
5 4 2.47138 2.23071 6.42362
7 4 0.00132916 3.60904 2.11326
14 4 4.71906 2.55105 4.38915
88 2 -0.316565 2.29012 1.01897
210 3 5.14736 3.20563 8.63542
60 1 -0.752201 4.3104 6.27744
61 1 2.11668 3.45212 7.7616
25 4 5.79389 4.37834 7.88816
69 1 0.580147 5.40852 1.7605
87 2 -0.835339 5.19531 1.66111
23 4 3.06542 6.49245 4.19485
93 2 3.72297 4.94004 3.82358
283 4 -2.94581 5.62207 8.25245
116 2 1.77997 1.11086 2.97174
117 2 -1.79711 3.89687 6.71376
118 2 -0.900444 5.23308 5.64903
119 2 0.100308 4.37955 7.05253
120 2 0.948067 3.59219 7.85723
121 2 2.59973 4.39284 7.26303
70 1 1.24097 6.54627 4.70568
201 3 7.53137 0.877968 1.13184
95 2 6.00088 3.58127 6.43713
142 2 0.950953 6.1853 0.966988
143 2 1.80297 4.02919 1.70152
144 2 0.829937 5.82414 2.85682
147 2 1.06252 5.35705 4.65151
350 2 4.3237 5.20309 0.464061
191 3 0.892811 1.97433 5.81245
192 3 3.08775 0.678501 7.25369
194 3 -0.236139 3.19135 3.59812
199 3 4.50644 1.1772 3.6303
200 3 3.49552 2.88595 5.39175
59 1 2.10721 0.143414 2.50838
203 3 6.40534 2.61113 5.21158
208 3 4.74201 3.75212 3.38774
62 1 -3.09281 5.95532 4.71213
212 3 4.67291 5.42631 7.80758
287 2 -1.94526 5.78396 6.93788
149 2 4.71712 5.67561 1.97947
129 2 -1.28371 6.52206 0.62549
115 2 2.27208 0.279191 1.38538
124 2 -3.53537 6.10072 5.76109
6 4 0.327875 1.14207 12.0152
9 4 1.00704 4.12822 13.2147
17 4 4.80497 2.40945 9.96431
20 4 4.98636 3.02843 16.4955
324 2 -0.411488 2.05217 16.402
91 2 3.62695 3.23449 17.3168
28 4 1.09024 6.18243 15.4487
29 4 4.20336 6.4547 11.7917
63 1 0.0357234 5.21718 12.0238
67 1 3.42219 3.56109 10.9475
68 1 1.30305 0.910107 10.4099
89 2 2.69307 4.33142 12.617
328 2 3.07136 1.56122 14.7992
92 2 4.56641 1.53142 15.7617
205 3 6.17272 2.90348 17.4501
98 2 -0.252605 6.45051 16.6393
99 2 3.8511 5.41614 10.4487
126 2 -0.829879 4.53436 11.7233
127 2 0.628882 5.48911 11.1244
128 2 -0.299114 6.05777 12.7617
136 2 2.97139 2.59195 11.5274
137 2 2.76678 3.9656 10.115
138 2 4.12356 4.13705 11.6326
139 2 1.56511 2.00191 10.2353
140 2 0.851947 0.439182 9.3899
86 2 -0.937364 2.89093 9.40476
195 3 0.699152 2.72249 12.7617
202 3 4.11758 0.863299 9.70214
322 2 0.191954 1.19894 14.8575
206 3 6.14572 2.3717 10.8447
207 3 7.74052 0.99412 12.0698
213 3 5.20173 4.02608 15.3226
214 3 0.861623 4.64989 14.801
215 3 2.37281 6.36057 16.3792
216 3 4.96729 5.68402 12.8689
353 2 6.86568 0.806493 9.07307
297 2 -1.85702 6.27274 14.6696
299 2 -2.80672 6.46064 17.389
348 2 -1.77719 5.09241 9.37696
326 2 4.67962 1.44529 13.399
325 1 4.08805 0.645763 14.0837
296 4 -2.99734 5.7762 15.7828
24 4 3.80825 6.79559 17.1284
141 2 2.15437 0.261602 10.808
280 2 -1.25296 2.53894 14.1595
122 2 2.50667 3.24137 8.9077
349 2 -4.59764 11.5078 8.59269
1 4 -4.48011 12.9363 3.04046
10 4 -2.36211 8.49555 1.41797
11 4 -3.8438 11.094 0.344797
101 2 1.06426 9.7478 0.38883
289 2 -3.24466 11.1515 7.36424
318 2 -3.22503 11.6133 5.07108
317 1 -4.22124 11.6582 4.56855
31 4 -1.0515 10.4686 3.22874
33 4 2.26014 8.98009 8.04289
34 4 0.771822 10.4923 5.85705
157 2 1.99807 10.2671 3.21987
277 3 -5.28843 10.7285 0.088653
13 4 0.310863 12.7754 1.58943
74 1 2.05604 9.8418 2.12864
100 2 -2.64613 10.9317 3.57689
319 2 -4.51313 10.6636 4.15198
295 3 -3.56409 7.04239 8.63178
290 2 -2.7499 9.42758 7.22352
16 4 0.273672 13.201 7.6837
288 2 -5.05102 9.75945 8.11666
26 4 4.27908 6.88799 7.1147
145 2 0.675225 7.1178 3.8739
146 2 1.04079 6.97909 5.80474
114 2 -6.96497 12.3574 2.75051
158 2 1.23712 9.13099 1.84157
196 3 -3.32201 7.41199 2.2743
197 3 -3.1823 9.6644 0.823483
198 3 -3.77383 12.1957 1.69244
320 2 -5.02482 11.9582 5.30642
217 3 3.35922 7.44321 3.02347
3 4 -4.2799 13.1897 8.34457
219 3 -1.12769 9.08894 2.45934
220 3 -0.340971 11.599 2.42332
221 3 3.18432 7.66892 7.99986
222 3 -0.383598 10.113 4.66653
223 3 1.35936 9.15613 6.66464
224 3 0.325139 11.5641 7.02142
285 1 -3.30012 10.1638 7.92313
211 3 3.7897 6.83608 5.60018
347 2 -2.6215 13.1554 7.9354
183 2 -7.5788 12.2012 6.52441
125 2 -2.24256 6.74884 4.53154
64 1 -1.51686 7.43528 0.0159865
19 4 -0.443581 12.7412 12.9218
32 4 0.886328 11.2795 16.8343
35 4 2.0364 8.22884 13.4499
36 4 -1.77449 11.6417 15.5139
37 4 0.616447 10.2127 11.4995
75 1 -0.438689 9.07784 10.2687
135 2 -0.511183 12.732 10.0813
130 2 -0.455368 8.45874 17.3903
103 2 -2.44231 10.3117 14.6878
294 2 -4.91189 8.84434 11.1548
160 2 -0.00593096 8.06387 10.5398
161 2 -0.211046 9.55833 9.29231
162 2 -1.62017 9.10345 10.5355
225 3 1.09959 7.36436 14.4102
226 3 2.93274 7.09215 12.3288
227 3 -0.581588 11.0026 16.3728
228 3 -1.30837 12.6265 14.3145
229 3 -2.93912 12.0655 16.5898
230 3 1.16552 9.21755 12.611
231 3 -0.375801 11.3887 11.9555
66 1 -1.02543 12.8914 9.08091
102 2 1.14506 8.44567 9.26158
272 4 -6.05062 12.8358 14.1011
273 4 -6.28403 10.9006 16.6495
274 2 -4.66895 12.3517 12.9707
131 2 -2.16959 7.51835 16.1353
327 2 -3.61648 13.2639 14.8292
278 3 -6.1056 11.7655 15.3084
284 4 -3.98586 8.61624 9.16917
286 1 -3.68854 8.95597 10.9603
292 2 -3.21486 9.81937 11.4856
293 2 -2.97315 8.00168 11.1434
134 2 -1.78079 12.0656 8.81363
276 3 -7.21983 13.2155 13.1161
291 2 -2.45877 10.1644 9.09848
15 4 7.29001 2.42789 0.680692
18 4 8.01112 2.29659 5.66311
22 4 6.49465 4.49761 2.82586
107 2 9.86233 4.77588 8.64327
39 4 10.3031 1.74304 3.16821
45 4 11.5729 3.98176 1.50555
354 2 14.2864 2.40652 5.4493
48 4 12.1028 3.4586 7.50259
166 2 12.196 0.330307 3.50022
71 1 5.87338 5.75659 1.53626
76 1 15.0996 1.56686 5.44933
77 1 11.9759 1.22318 4.09189
80 1 11.7893 4.03168 5.77357
94 2 8.52838 3.60926 6.60481
331 2 16.2687 0.600171 0.366586
106 2 12.754 1.82591 7.54034
246 3 10.6776 3.40684 8.40705
109 2 11.6206 5.90947 6.42009
150 2 6.10739 5.34061 0.495527
335 2 12.8421 0.646441 6.34971
164 2 14.8574 0.727476 4.67169
165 2 12.5662 2.07535 3.75054
167 2 12.009 1.07797 5.23695
174 2 10.7266 4.50052 5.85775
175 2 11.8406 2.93516 5.13006
176 2 12.5899 4.77072 5.34313
163 2 15.2645 1.1864 6.51414
209 3 7.27671 3.36964 2.07427
232 3 9.90966 0.394472 2.48142
233 3 9.14341 2.2235 4.51368
47 4 10.0354 6.49873 0.1404
236 3 9.95959 0.655143 8.31017
241 3 10.7229 2.95955 2.31844
242 3 12.6039 3.23097 0.517669
243 3 12.4453 5.06356 2.54865
244 3 7.18166 5.4028 3.98173
245 3 10.6052 4.98713 0.693644
234 3 12.7491 0.463281 0.268284
247 3 13.1893 4.44556 8.03919
248 3 7.21947 5.0512 8.44696
250 3 9.42638 6.2963 5.15175
329 1 15.4933 0.917856 1.10981
330 2 14.9445 1.8459 0.846685
332 2 15.83 0.86716 2.2552
8 4 12.8566 6.47119 3.25927
123 2 14.1552 4.78999 4.27449
235 3 14.7671 0.801858 8.76782
49 4 8.53473 5.8825 8.79241
4 4 15.1657 1.73834 10.0848
21 4 7.67384 2.30643 11.1814
40 4 12.5959 2.15915 17.0329
42 4 10.0243 2.00687 9.53313
44 4 12.4485 2.85194 11.1075
73 1 7.81941 5.04131 13.5286
79 1 8.59157 6.32695 10.6371
282 3 14.2634 0.326366 13.9206
96 2 8.1029 3.68204 12.1651
104 2 11.9668 4.48905 10.3129
110 2 12.6215 3.172 12.806
321 1 16.5146 1.30398 15.6089
154 2 8.04511 5.57347 12.5302
155 2 8.73872 4.77241 14.1506
156 2 7.09157 6.24033 14.6192
171 2 9.24057 5.41192 10.9461
172 2 7.44336 6.09568 10.8397
193 3 16.0177 1.11391 11.3325
237 3 8.61427 2.45987 9.89304
27 4 5.80582 4.95163 13.9904
239 3 13.8686 2.47874 10.566
240 3 11.0699 1.74646 10.7323
279 4 14.7319 1.46659 14.914
340 1 8.7775 6.64257 16.6022
281 3 13.6988 2.19441 15.9131
97 2 6.76152 3.5865 13.29
338 2 9.96613 1.05254 12.8668
300 4 9.86524 3.08673 16.1368
301 4 11.3134 5.51373 14.3338
302 1 8.63343 2.35111 14.9585
303 1 12.2668 4.95943 12.0384
305 2 9.14318 1.49777 14.2741
306 2 8.31173 3.32115 14.3383
307 2 7.77208 1.9348 15.6495
308 2 11.5004 4.38646 12.9
309 2 13.3741 4.81791 12.4404
310 2 12.1404 6.05089 12.0005
314 3 11.1212 2.17905 16.2951
315 3 10.3138 4.66298 15.2175
316 3 12.8041 5.68059 15.0868
360 2 8.56711 5.50813 16.8587
238 3 8.85605 3.21344 17.3828
341 2 9.29919 6.80672 15.5592
298 2 14.8177 4.25444 16.1582
38 4 5.72208 12.6822 0.900024
261 3 3.06684 10.2539 8.5511
265 3 8.10407 9.44918 6.19953
50 4 10.8177 7.09574 5.45077
51 4 8.68659 8.53868 2.17853
52 4 5.38442 10.8592 3.306
54 4 9.28543 8.85986 7.21641
56 4 7.65696 10.6809 5.41475
78 1 5.88546 8.10749 7.3259
81 1 9.79048 9.89923 2.93325
82 1 2.2781 11.3343 4.97584
83 1 8.8345 12.1733 5.67593
105 2 6.92978 7.30033 5.86569
111 2 4.15039 11.2858 4.37061
112 2 7.14333 11.9453 6.59265
362 3 0.85657 12.3392 0.0675079
361 2 10.8198 9.62036 2.4859
159 2 2.28846 10.6082 1.34768
168 2 5.50087 8.73756 8.11235
180 2 2.97336 10.3144 5.0313
169 2 5.73896 8.61098 6.35501
170 2 7.00615 7.75338 7.62209
30 4 3.60192 8.63835 1.95371
178 2 9.77161 9.61889 4.0478
179 2 1.94379 11.6669 3.96079
355 2 4.3899 11.8367 6.84208
181 2 2.59781 12.2036 5.58365
182 2 9.33375 12.0628 4.63638
333 1 4.24276 13.0406 7.21039
177 2 9.30242 10.8622 2.60492
249 3 11.7346 7.31334 4.13738
251 3 7.93411 7.72526 3.45325
252 3 9.58417 7.62956 1.21054
253 3 4.86965 9.55859 2.50415
254 3 5.48716 12.124 2.34064
256 3 7.56852 9.31189 1.07138
148 2 6.26158 6.8002 1.69332
258 3 8.62603 7.25282 8.0393
259 3 10.6176 8.38543 6.37422
260 3 9.62173 9.9692 8.44103
264 3 6.64816 10.6766 4.20277
41 4 5.42944 12.5898 8.70301
113 2 6.41719 11.1567 8.67445
218 3 3.60265 8.0306 0.487801
334 2 3.22436 13.1687 7.70199
46 4 7.95363 6.66036 4.57513
184 2 8.08917 13.161 5.60013
12 4 8.93814 10.5361 9.83806
43 4 5.13209 12.4559 12.9824
53 4 7.91031 10.7779 17.5103
55 4 3.41136 10.7713 10.1158
57 4 3.25865 10.6683 14.8431
58 4 6.06585 10.1409 11.3413
65 1 9.63241 9.32559 11.0939
72 1 4.97682 7.45772 15.8951
84 1 4.55737 10.6722 16.2309
85 1 6.59032 8.48796 12.0844
275 2 10.7705 9.26621 16.2305
108 2 5.25353 7.52016 10.9227
132 2 9.0246 8.68884 11.8719
312 2 9.36521 6.98992 13.5208
336 1 1.45847 13.0916 13.1558
153 2 4.95796 8.67838 15.9619
173 2 9.01086 7.37848 10.8362
185 2 5.69434 10.4938 15.9735
186 2 4.17907 9.82963 16.9703
187 2 4.37821 11.7879 16.6714
188 2 6.99845 7.8072 11.2762
189 2 5.79541 7.97327 12.7501
190 2 7.47985 8.86475 12.7874
352 2 10.2659 8.68185 10.4125
255 3 9.39333 11.4077 17.4068
262 3 4.42173 12.401 9.97471
133 2 10.3117 10.0798 11.6677
267 3 3.85548 11.8283 13.8396
268 3 1.9328 11.1285 15.5724
269 3 7.33781 10.4858 9.88635
270 3 4.58077 9.76175 10.8037
271 3 6.10373 11.2645 12.5471
152 2 5.9591 6.90735 16.2643
357 2 11.601 7.87958 15.7099
304 1 10.3909 7.13223 13.9189
311 2 10.4489 7.91257 14.7695
356 2 1.9398 12.3727 12.491
313 2 11.1073 7.44829 13.0505
337 2 1.67747 12.9049 14.2122
339 1 11.8018 7.71469 16.8388
257 3 6.69889 11.9484 17.4941
343 1 7.71033 10.0357 15.7486
344 2 8.72851 9.70969 15.407
345 2 7.16711 10.6372 14.9685
346 2 7.14385 9.09173 16.0447
351 2 4.55988 13.1682 11.6116
323 2 7.76579 13.2877 16.0743
358 2 12.7031 7.04526 17.0171
342 2 7.85873 7.29811 16.7593
263 3 2.03558 10.8815 10.911
266 3 3.16286 9.13234 14.2262
90 2 9.56638 12.1616 10.1004
359 2 11.8807 8.68313 17.396
151 2 4.49701 7.06149 14.9434
ITEM: TIMESTEP
200
ITEM: NUMBER OF ATOMS
362
ITEM: BOX BOUNDS xy xz yz pp pp pp
-8.3819999999999997e+00 1.7378567000000000e+01 -8.3819999999999997e+00
0.0000000000000000e+00 1.3430600000000000e+01 2.0636699999999999e-01
0.0000000000000000e+00 1.7586700000000000e+01 3.0270000000000002e-01
ITEM: ATOMS id type x y z
204 3 7.8899 0.989362 6.46741
2 4 -0.336003 2.7119 5.18683
5 4 2.50824 2.09713 6.42232
7 4 -0.0202405 3.5651 2.08564
14 4 4.66774 2.55473 4.289
88 2 -0.38499 2.30835 0.927529
210 3 5.20509 3.19933 8.63424
60 1 -0.622954 4.34816 6.21142
61 1 2.23894 3.37375 7.80259
25 4 5.83028 4.35622 7.76196
69 1 0.827483 5.16101 1.90711
87 2 -1.08717 4.90548 1.79062
23 4 3.1002 6.3937 4.28466
93 2 3.58435 4.89224 3.57224
283 4 -2.91064 5.67656 8.25541
116 2 1.87894 1.23176 2.87177
117 2 -1.78467 4.00709 6.35986
118 2 -0.430468 5.27729 5.6091
119 2 -0.0355116 4.26338 7.24095
120 2 1.33385 4.09986 7.53383
121 2 3.23203 3.88787 7.90111
70 1 1.27065 6.56603 4.72711
201 3 7.46065 0.953554 1.21556
95 2 6.00935 3.77038 6.20381
142 2 0.572339 5.87555 1.12951
143 2 1.97672 4.28059 1.60876
144 2 0.961139 5.66054 2.95502
147 2 1.10986 5.39659 4.81045
350 2 4.43238 5.33266 0.421195
191 3 0.919745 1.97146 5.94918
192 3 3.28397 0.571634 7.16842
194 3 -0.142396 3.00338 3.58116
199 3 4.42776 1.17253 3.60892
200 3 3.56204 2.7982 5.44641
59 1 2.17787 0.153383 2.54887
203 3 6.41861 2.63508 5.06535
208 3 4.60265 3.73963 3.26586
62 1 -3.14652 5.80113 4.74438
212 3 4.96846 5.68175 7.72572
287 2 -1.84171 5.74815 6.85762
124 2 -3.49181 6.15867 5.74456
129 2 -1.48031 6.27157 0.593564
125 2 -2.16401 6.129 4.33536
6 4 0.250492 0.956041 12.0413
9 4 1.11056 4.12385 13.2299
17 4 4.8736 2.50844 9.98475
20 4 5.00671 3.21907 16.4708
324 2 -0.182926 2.34309 15.8072
91 2 3.49814 3.61912 17.2108
28 4 1.23357 6.22418 15.5582
29 4 4.16991 6.49821 11.9404
63 1 0.169734 5.33665 12.1611
67 1 3.53601 3.45992 11.1164
68 1 1.35075 0.833925 10.4711
89 2 2.75373 3.89576 12.8637
328 2 2.91456 1.56182 14.8954
92 2 4.47404 1.77724 15.6962
205 3 6.10051 2.86659 17.5259
98 2 -0.196473 6.66569 16.5532
99 2 3.96966 5.39391 10.6946
126 2 -0.599857 4.76008 11.5484
127 2 1.133 5.70901 11.5986
128 2 -0.257734 6.18672 12.7566
136 2 2.97011 2.61529 11.5662
137 2 2.78565 4.1499 10.4603
138 2 4.11385 4.03197 11.8891
139 2 1.84999 1.87039 10.6328
140 2 0.818394 0.794839 9.53636
86 2 -0.812003 2.69724 9.3953
195 3 0.452248 2.51177 12.7277
202 3 4.21447 0.852177 9.59836
322 2 -0.000676522 0.908301 14.5156
206 3 6.11914 2.60602 11.0244
207 3 7.81898 0.927928 12.0294
213 3 5.38262 4.23321 15.3528
214 3 0.944119 4.77301 14.7722
215 3 2.53942 6.33513 16.4077
216 3 4.93475 5.6716 13.0112
353 2 6.59447 0.680408 8.79932
297 2 -1.58489 6.31308 14.7803
298 2 -2.19741 4.94489 16.6835
348 2 -1.76535 5.04418 9.21585
326 2 4.34065 1.37215 13.2053
325 1 4.0626 0.797744 14.0383
296 4 -2.93494 6.19523 15.8108
280 2 -1.42125 2.75562 14.1057
327 2 4.94451 0.589642 14.6668
122 2 2.03759 2.77805 8.86425
299 2 -2.93371 6.43808 17.5548
349 2 -4.69798 11.5758 8.74404
1 4 -4.41156 12.9184 3.05212
10 4 -2.27272 8.42999 1.48764
11 4 -3.85131 11.0996 0.402002
101 2 1.0067 9.6821 0.36897
289 2 -3.94868 10.9734 7.12921
318 2 -3.58734 11.7567 5.34287
317 1 -4.40304 11.5617 4.57079
31 4 -1.13783 10.4433 3.42173
33 4 2.1865 8.8847 8.11837
34 4 0.772814 10.4831 5.96855
64 1 -1.56701 7.31886 0.130198
277 3 -5.3956 10.7756 0.231291
13 4 0.206107 12.8429 1.47961
74 1 1.98924 9.93312 2.06441
100 2 -2.8311 10.6872 3.83756
319 2 -4.34006 10.5314 4.11914
295 3 -3.57054 7.06918 8.76895
290 2 -2.94935 9.40088 7.21965
16 4 0.118964 13.1291 7.50196
288 2 -5.32004 9.49076 8.15532
347 2 -2.7125 12.8161 7.55463
145 2 0.715165 7.14342 3.93186
146 2 1.31815 7.14751 5.7367
114 2 -6.77382 12.5341 3.14125
158 2 1.05292 9.31889 1.97086
196 3 -3.30991 7.36851 2.33373
197 3 -2.99277 9.62333 0.679745
198 3 -3.71109 12.0799 1.71551
320 2 -5.39044 11.746 5.03669
217 3 3.13428 7.52616 3.10704
3 4 -4.25958 13.134 8.28205
219 3 -1.11065 9.09384 2.51359
220 3 -0.654168 11.6311 2.56247
221 3 3.16 7.56385 8.02486
222 3 -0.34659 10.3269 4.80961
223 3 1.21325 9.24072 6.78402
224 3 0.369628 11.6851 6.88406
285 1 -3.64351 10.1207 7.83221
211 3 4.12088 6.79544 5.46905
134 2 -1.79367 11.8928 8.68117
291 2 -2.96142 10.4715 8.70733
362 3 0.789244 12.1706 0.138652
361 2 -6.42007 10.1885 2.00655
183 2 -7.56988 12.1589 6.61257
115 2 -6.18196 13.0757 1.44032
19 4 -0.247502 12.7553 12.9038
32 4 0.936376 11.1957 16.8169
35 4 2.14555 8.17349 13.3929
36 4 -1.80209 11.5635 15.5702
37 4 0.634238 10.1516 11.6103
75 1 -0.441869 9.07167 10.3934
135 2 -0.64071 12.7221 9.82101
130 2 -0.351318 8.05686 17.5822
103 2 -2.46649 10.3036 14.7264
294 2 -4.9721 8.72025 11.2918
160 2 -0.00424586 8.00062 10.6637
161 2 -0.306255 9.31522 9.34365
162 2 -1.60145 9.10622 10.6956
225 3 1.16086 7.37657 14.5019
226 3 2.90146 7.21053 12.3247
227 3 -0.586832 10.8846 16.344
228 3 -1.22986 12.572 14.5592
229 3 -2.93263 12.1379 16.5539
230 3 1.01882 9.12626 12.72
231 3 -0.414448 11.3714 12.1803
66 1 -1.18421 12.8542 8.86066
102 2 1.19694 8.45236 9.50195
272 4 -5.99444 12.8545 14.1347
273 4 -6.28323 11.0013 16.6764
274 2 -4.59503 12.3121 13.1877
131 2 -2.69677 7.94635 16.5464
151 2 4.306 7.04753 14.6845
278 3 -6.08202 11.89 15.3865
284 4 -4.12814 8.51706 9.27599
286 1 -3.63196 8.85821 10.9695
292 2 -3.21969 9.98576 10.9175
293 2 -2.98855 7.98758 11.4584
141 2 -6.25127 13.1812 10.6585
276 3 -7.37907 13.0294 13.1287
263 3 1.93581 10.7107 10.7362
359 2 -5.25728 8.93046 17.3143
24 4 3.91151 6.8709 16.9964
15 4 7.41698 2.48057 0.809245
18 4 7.89202 2.26513 5.52943
22 4 6.41699 4.54699 2.83684
107 2 9.82604 5.00724 8.4378
39 4 10.1469 1.68012 3.20796
45 4 11.5492 4.01375 1.48538
354 2 14.5817 2.57841 5.75921
48 4 12.1151 3.39947 7.63412
166 2 11.9668 0.200397 3.50896
71 1 5.98475 5.90502 1.57188
76 1 15.2828 1.64473 5.52066
77 1 11.8355 1.11587 4.08978
80 1 11.7745 3.76351 5.82407
94 2 8.3967 3.51465 6.4502
331 2 16.2653 0.604014 0.936232
106 2 12.7754 1.77409 7.56366
246 3 10.7 3.5816 8.51699
109 2 11.4978 5.75261 6.15015
150 2 6.22334 5.29515 0.625
335 2 12.9263 0.426259 6.13474
164 2 14.9488 1.11719 4.61523
165 2 12.5826 1.87881 3.75752
167 2 11.9172 0.88499 5.27378
174 2 10.6705 4.12983 5.96965
175 2 11.8652 2.79611 5.16905
176 2 12.6019 4.58754 5.44105
163 2 15.413 0.928726 6.40604
209 3 7.29073 3.49632 2.04873
232 3 9.76576 0.40747 2.31219
233 3 9.03341 1.89498 4.34933
334 2 11.6263 0.281676 7.60258
236 3 10.1732 0.793836 8.38299
241 3 10.6141 3.01102 2.34535
242 3 12.4742 3.13112 0.531633
243 3 12.3727 5.04953 2.49823
244 3 7.20298 5.43991 3.87296
245 3 10.7645 5.16228 0.649782
234 3 12.855 0.364145 0.207634
247 3 13.1934 4.56335 7.94767
248 3 7.24631 5.00208 8.12412
250 3 9.36686 6.2933 5.04587
329 1 15.3462 1.09479 1.31056
330 2 14.9561 1.96935 0.737982
332 2 15.3551 1.25356 2.44276
8 4 12.9535 6.46218 3.28928
49 4 8.37257 5.94119 8.66341
123 2 13.937 4.71373 4.60155
149 2 4.84618 6.04487 1.80904
4 4 15.273 1.58353 10.0772
21 4 7.6521 2.19587 11.1481
40 4 12.5814 2.17315 17.0711
42 4 9.9548 1.97221 9.32104
44 4 12.4753 2.99178 10.9514
73 1 7.83298 4.94143 13.39
79 1 8.34517 6.41838 10.5671
282 3 13.985 0.56542 13.8085
96 2 8.301 3.61571 11.9991
104 2 12.2256 4.58742 10.1791
110 2 12.5768 3.12586 12.7027
321 1 16.5132 1.40335 15.3339
154 2 8.02436 5.49086 12.3818
155 2 8.75304 4.76078 13.9979
156 2 7.18205 6.09901 14.6176
171 2 9.0076 5.37833 10.7726
172 2 7.19417 6.31394 10.6348
193 3 15.9069 0.826576 11.3435
237 3 8.46938 2.19959 9.83757
27 4 5.8375 4.90518 14.0588
239 3 13.9191 2.47956 10.4443
240 3 11.1 2.22468 10.5983
279 4 14.6882 1.61584 14.9251
340 1 8.79834 6.65494 16.642
281 3 13.8496 2.50634 15.9176
97 2 6.9648 3.56569 13.2069
338 2 10.303 1.00603 12.9522
300 4 9.87243 2.99783 16.1435