ITEM: TIMESTEP
0
ITEM: NUMBER OF ATOMS
362
ITEM: BOX BOUNDS xy xz yz pp pp pp
-8.3819999999999997e+00 1.7202700000000000e+01 -8.3819999999999997e+00
0.0000000000000000e+00 1.3430600000000000e+01 3.0499999999999999e-02
0.0000000000000000e+00 1.7762567000000001e+01 3.0270000000000002e-01
ITEM: ATOMS id type x y z
146 2 0.796045 6.54971 5.79172
2 4 -0.699353 2.78738 5.19163
5 4 2.49782 2.11686 6.27117
7 4 -0.777338 3.64808 2.02579
14 4 5.10431 2.67148 4.41553
23 4 2.74013 6.09139 4.42559
59 1 2.64653 1.35061 2.33895
60 1 -1.41195 4.17958 6.34692
61 1 2.5081 3.54733 7.50945
95 2 6.0521 3.6916 6.75871
69 1 0.170126 5.30707 1.591
87 2 -1.41932 5.32633 1.27365
353 2 6.10062 0.516588 8.34726
93 2 3.55519 4.58434 4.09887
211 3 3.46117 6.57298 5.82671
116 2 2.89389 2.44271 2.36082
25 4 5.6852 4.62802 8.14726
118 2 -1.71615 5.04977 5.49224
119 2 -0.406077 4.41989 6.87285
120 2 1.39726 3.90953 7.39281
121 2 3.28857 4.26886 7.11873
114 2 1.80882 1.12558 3.05389
123 2 -2.26087 5.30099 3.84999
70 1 0.847704 6.19399 4.65591
62 1 -2.34899 6.42503 4.14422
143 2 0.924255 3.63319 1.27848
144 2 0.383321 5.68282 2.74724
147 2 0.637282 5.09897 4.44302
115 2 2.40555 1.09411 1.27847
191 3 0.682592 2.1923 5.62591
192 3 2.85699 0.747589 7.08066
194 3 -0.78144 3.36981 3.55383
199 3 5.23625 1.30271 3.43302
200 3 3.79705 2.5162 5.36661
122 2 2.71688 3.17328 8.54778
287 2 -1.7476 5.18315 8.1247
208 3 4.83643 3.95923 3.38119
201 3 7.39697 1.29799 1.09719
350 2 4.48822 5.19714 0.586087
142 2 0.655779 6.03084 0.903478
3 4 3.57563 0.144026 8.34988
13 4 8.30499 0.0629808 1.65254
1 4 4.18764 0.27751 2.7821
203 3 6.69273 2.85338 5.50498
212 3 4.83774 5.91123 7.82928
283 4 -3.32974 5.41856 8.63963
117 2 -2.26799 3.86988 7.1183
6 4 0.0633409 1.33914 11.8922
9 4 0.806497 4.26899 13.2085
17 4 4.77481 2.43509 10.0704
20 4 5.1192 3.11538 16.6133
24 4 3.53746 6.50207 17.3813
27 4 5.30909 4.7383 13.8247
28 4 1.01842 5.7513 16.0422
322 2 0.0552953 1.3169 14.5064
63 1 0.0850361 5.6477 12.2454
67 1 3.67357 3.15467 11.7066
68 1 1.1011 1.41583 10.1985
89 2 2.5015 4.26344 12.7684
91 2 3.6056 3.0518 17.266
92 2 5.36335 1.52091 16.4248
97 2 5.42324 3.47322 12.612
98 2 -0.0497238 5.44883 17.344
99 2 2.86839 6.12425 11.0873
126 2 -0.682296 5.15657 11.5782
127 2 0.922637 6.24335 11.7032
297 2 -2.08006 6.46555 14.615
136 2 3.82911 2.52477 12.6786
137 2 2.6952 2.93656 11.2318
138 2 3.9202 4.26101 11.8587
139 2 1.15786 2.5171 9.99763
140 2 1.07761 0.85504 9.17124
141 2 2.09446 1.08991 10.6874
195 3 0.101562 2.87861 12.4575
202 3 3.9978 1.30019 9.39686
86 2 -0.521936 1.59414 9.06845
206 3 6.17298 2.00577 10.6378
296 4 -3.30002 5.83152 15.582
213 3 5.16937 3.98559 15.2616
214 3 0.642554 4.59903 14.7912
215 3 2.49711 5.61297 16.583
216 3 4.47979 5.94725 13.2478
276 3 1.04903 0.405148 12.8193
328 2 3.53857 0.833415 14.1123
128 2 -0.379935 6.18588 13.2162
321 1 -0.638607 1.66409 15.3073
298 2 -2.23511 4.74265 16.3229
324 2 -0.278695 2.6371 15.8736
205 3 6.10247 3.62366 17.7296
210 3 4.88666 3.68986 9.10026
327 2 3.89978 0.57521 11.6832
280 2 -1.6433 2.85861 14.1286
358 2 -3.88331 6.58213 17.2081
320 2 -5.56268 12.8921 4.57547
347 2 -3.45342 12.2668 7.94727
10 4 -2.60108 9.03412 1.46243
26 4 3.84925 7.03005 7.30102
101 2 1.02941 9.67719 0.421992
16 4 0.0732844 13.083 7.8383
159 2 1.0186 9.92866 2.20553
362 3 0.582282 12.2453 0.554015
31 4 -1.4259 10.826 3.59995
33 4 1.58344 8.46443 8.62483
34 4 0.636741 10.3345 6.32258
64 1 -1.53043 7.81126 0.410425
66 1 -1.65821 12.6772 8.69254
291 2 -3.99098 9.38953 6.30285
74 1 0.953232 8.79896 2.18693
100 2 -3.02141 11.2988 4.09207
319 2 -5.43781 11.1801 3.64165
30 4 2.81821 8.21961 2.08468
318 2 -4.19971 11.7929 5.05939
130 2 -0.820037 6.91955 0.937409
221 3 2.43038 7.07055 8.21005
134 2 -1.87238 11.5872 8.31194
284 4 -4.08027 8.50575 8.2989
317 1 -4.77786 12.0927 4.18233
157 2 0.714976 8.48326 3.27582
158 2 0.158266 8.39548 1.44538
196 3 -3.94509 8.13075 2.34202
197 3 -3.13804 10.1879 0.51452
198 3 -3.89741 12.6434 1.3324
178 2 -5.36745 9.04581 2.60545
217 3 3.07474 7.16523 3.30942
218 3 2.95233 7.52918 0.610911
219 3 -1.55106 9.48176 2.74285
220 3 -0.800116 12.0741 2.76948
295 3 -3.74681 6.88391 8.38443
222 3 -0.517019 10.4244 4.87664
223 3 0.506225 8.99615 7.52918
224 3 0.497816 11.7412 6.99034
285 1 -2.88491 9.3745 7.2562
289 2 -2.04687 8.71938 6.82532
8 4 -4.1025 6.69936 3.46339
290 2 -2.51044 10.3662 7.65276
361 2 -6.53809 10.5809 2.09352
125 2 -1.77429 7.09374 3.39432
145 2 0.369402 6.90608 3.88506
180 2 2.23542 9.99697 4.59983
124 2 -2.15469 6.73836 5.23051
19 4 0.0703657 12.9115 12.9454
32 4 0.811506 11.4065 17.2124
35 4 1.46571 8.2899 14.4304
36 4 -1.64622 11.7274 15.5649
37 4 0.563426 10.1364 12.1935
75 1 -0.612096 9.20905 10.8915
131 2 -0.945068 8.79347 17.431
102 2 0.767143 8.02928 10.1457
103 2 -2.43724 10.4906 14.7319
286 1 -4.25538 9.50969 10.2228
160 2 -0.416909 8.15556 11.4016
161 2 -0.540309 9.14483 9.75963
162 2 -1.58914 9.665 11.1569
225 3 0.742168 7.27788 15.5464
226 3 2.32835 7.3428 13.3658
227 3 -0.646201 10.9479 16.5229
228 3 -0.729339 12.6652 14.4782
229 3 -2.60416 12.7049 16.4473
230 3 0.437589 9.31633 13.5946
231 3 -0.265684 11.4763 12.019
135 2 -1.34179 12.755 9.77477
299 2 -3.50733 7.59827 15.661
272 4 -6.0688 12.7906 13.5037
273 4 -6.33863 11.2479 16.266
274 2 -3.54684 12.9415 13.1654
11 4 -3.69733 11.9655 17.7241
277 3 -5.07778 11.9441 16.9764
278 3 -6.27526 11.6474 14.6908
326 2 -4.73286 11.6925 12.0742
293 2 -3.33829 8.8335 10.4606
292 2 -4.00961 10.573 9.95674
294 2 -4.70106 9.43208 11.2571
349 2 -5.73651 12.1036 9.10507
359 2 -4.93177 8.7124 17.2837
352 2 -7.00662 12.4981 10.4271
325 1 -4.44567 12.905 12.5648
266 3 2.60716 9.25754 15.1988
132 2 -5.94985 10.756 10.3732
129 2 -2.41516 7.65048 17.6265
29 4 3.47255 6.82808 12.4869
65 1 -6.92694 11.3785 10.5964
151 2 4.04074 7.11709 15.173
288 2 -5.66038 9.08157 9.09759
261 3 2.6559 9.4625 9.12519
15 4 7.42596 2.84846 0.67476
18 4 8.33718 2.37459 5.85946
22 4 6.56704 4.81155 2.91471
330 2 14.9765 1.52775 2.57779
39 4 10.4264 1.9309 3.27719
45 4 11.9921 4.2812 1.65596
354 2 14.0208 2.13166 5.60305
48 4 12.0445 3.11199 7.63394
329 1 15.5774 0.610809 2.19178
71 1 5.9803 6.09955 1.59727
76 1 14.988 1.54923 5.35471
77 1 11.8387 0.745995 3.78836
80 1 12.2925 3.27239 5.72785
94 2 9.0005 3.40551 7.02071
88 2 15.5049 2.4135 1.20603
106 2 12.8036 1.52611 7.87507
109 2 11.2484 6.17227 7.19986
335 2 13.6922 0.454996 6.43342
150 2 6.25008 5.59767 0.589054
163 2 15.3937 1.08694 6.33823
164 2 14.9153 0.809153 4.43424
165 2 12.7171 1.36056 3.39821
167 2 11.7564 0.610256 4.9073
174 2 11.2804 3.87134 5.57246
175 2 12.2533 2.27997 5.17874
176 2 13.2373 3.85748 5.43202
149 2 4.88102 6.27777 1.89981
209 3 7.55052 3.89781 2.14063
232 3 9.58334 0.879171 2.36729
233 3 9.40945 2.26976 4.74634
234 3 13.2207 0.664589 0.746641
248 3 7.15599 5.04752 8.75986
241 3 11.1048 3.29884 2.63756
242 3 13.1409 3.36159 0.788391
243 3 12.7744 5.24113 2.79697
244 3 7.17347 5.77667 4.00765
245 3 11.2321 5.29655 0.573121
246 3 10.4296 3.02457 7.92953
247 3 12.9102 4.3664 8.0238
331 2 16.3507 0.877072 1.31466
250 3 9.55541 6.42667 5.04872
334 2 11.9229 0.211878 7.44585
204 3 8.11097 1.08916 6.65508
4 4 15.2132 0.992919 9.76119
21 4 7.58757 2.40386 11.2966
312 2 9.1482 5.75681 13.5238
42 4 9.93631 2.02824 9.56046
44 4 12.8031 2.37288 10.7574
73 1 7.20417 5.17773 13.7024
236 3 9.53235 0.559122 8.96033
338 2 10.5248 0.680479 12.4206
96 2 7.45715 3.73402 12.3388
104 2 12.4304 4.22399 10.6623
110 2 13.2249 2.14144 12.5316
341 2 9.58271 6.3476 15.2917
154 2 7.54515 5.79486 12.6073
155 2 7.8212 4.28084 13.9473
156 2 7.13667 5.92735 14.6172
171 2 8.67847 5.6539 11.4503
360 2 8.9186 5.2854 16.821
193 3 15.6522 0.698799 11.2297
237 3 8.73675 2.8496 10.1997
238 3 8.75968 3.6357 17.3749
239 3 13.9486 2.058 9.68007
240 3 11.2772 1.94325 10.5768
279 4 14.661 1.65037 15.105
340 1 9.11829 6.39971 16.3952
281 3 13.7515 2.27355 16.358
348 2 13.8967 5.11269 10.378
304 1 10.2699 6.09938 13.3229
300 4 9.91112 2.86212 16.3476
301 4 11.2214 4.63023 13.9679
302 1 8.81677 1.45804 15.6208
303 1 13.504 3.8789 11.9342
305 2 9.53733 0.548454 15.4274
306 2 8.39037 1.78734 14.6153
307 2 8.04461 1.32421 16.4346
308 2 13.4569 4.51963 12.8187
207 3 8.05907 1.11687 12.0895
310 2 11.6303 3.7665 12.4847
314 3 11.147 2.25793 17.1735
315 3 10.2426 3.77604 14.908
316 3 12.5187 5.15472 14.7287
107 2 9.62138 5.66329 9.81534
313 2 10.5597 5.97689 12.2028
282 3 14.0123 0.453899 14.1961
40 4 12.7149 2.3428 17.6438
323 2 16.2615 0.641568 16.2563
79 1 8.31027 6.63101 10.8883
49 4 8.22005 6.17896 8.93867
309 2 14.5481 3.92159 11.5559
337 2 10.4518 0.433515 14.3696
38 4 5.86925 12.6997 1.22687
41 4 5.10246 11.8766 8.76617
260 3 9.3284 9.59799 8.70571
50 4 10.8228 7.05819 5.72032
51 4 9.25118 8.62867 1.93224
52 4 4.49737 10.5218 3.18449
54 4 9.11277 8.6489 7.42488
56 4 6.75722 10.5576 5.27196
78 1 4.80553 8.79605 7.32467
81 1 10.7488 9.63141 2.72061
82 1 2.43249 10.3769 5.65088
83 1 8.06634 11.5008 4.34947
105 2 7.39744 8.09005 5.47321
111 2 3.22028 11.2525 4.01852
112 2 5.98086 11.8443 6.20741
113 2 5.57152 10.2456 8.41291
148 2 6.62857 7.0158 1.83871
166 2 3.20195 12.9462 3.18082
265 3 7.74369 9.45028 6.25399
332 2 7.60067 13.014 2.9893
169 2 4.12211 9.68302 7.59728
170 2 5.0652 8.7924 6.19177
177 2 10.386 9.70668 3.82392
168 2 5.6607 8.55214 8.02674
179 2 2.58332 11.5545 5.76364
46 4 8.14979 7.04528 4.36623
181 2 3.20986 9.71183 6.21994
182 2 7.68414 11.1739 3.2486
183 2 9.10628 11.0427 4.65303
333 1 4.54108 12.8484 7.13775
249 3 12.05 7.07287 4.61135
251 3 8.47366 7.76409 3.04072
252 3 9.81351 7.73782 0.674674
253 3 3.88358 9.40315 2.27769
254 3 5.23139 11.677 2.30114
256 3 8.31446 9.83345 1.21013
355 2 4.30078 11.7899 6.63537
258 3 8.49198 7.35337 7.94146
259 3 10.4534 8.47478 6.27857
184 2 7.94215 12.5923 4.59257
264 3 5.56094 9.97059 4.30748
257 3 6.79307 11.9112 0.00168236
187 2 4.30135 11.0076 0.0175327
12 4 8.71601 10.5825 9.74851
43 4 4.92871 12.3578 13.5152
53 4 8.11095 11.0478 17.5424
55 4 3.37988 10.1718 10.4288
57 4 3.20258 10.6764 15.603
58 4 6.31151 10.0658 11.9784
357 2 11.5314 7.76115 15.6732
72 1 4.65479 7.34914 16.1315
84 1 4.41239 10.3745 17.1442
85 1 6.7829 8.74366 13.1733
345 2 6.89504 10.7722 15.4874
108 2 4.26938 8.16985 11.8568
346 2 6.70624 9.03863 16.4449
172 2 7.16332 6.77901 10.9623
342 2 8.19104 7.12282 16.5315
153 2 4.55428 8.52693 16.4982
351 2 3.70957 12.9397 12.4232
185 2 5.5392 10.1809 16.7957
186 2 3.93888 9.46278 17.7101
275 2 10.9764 9.49085 16.4984
188 2 7.81436 8.38789 12.7176
189 2 5.81509 8.09446 13.065
190 2 6.91112 9.12927 14.31
235 3 6.44212 12.753 8.98759
255 3 9.48555 11.6393 16.9773
262 3 3.97139 11.7668 9.8565
356 2 2.35203 12.015 13.2395
267 3 4.1026 11.4572 14.5615
268 3 2.05599 11.7319 16.2084
269 3 7.58452 10.2012 10.7743
270 3 4.67414 9.37002 10.9598
271 3 5.90964 11.4632 12.8255
344 2 8.41694 9.51667 15.667
133 2 9.78323 11.0872 11.702
173 2 8.80406 7.59106 11.2356
311 2 10.608 7.09252 13.7535
263 3 2.24437 10.2442 11.5384
343 1 7.41381 9.94142 16.1276
336 1 1.90157 13.0663 13.3375
339 1 11.9561 7.77085 16.7299
90 2 8.33454 12.0169 8.88551
47 4 10.6007 6.87771 17.5692
152 2 5.66861 6.92034 16.1325
ITEM: TIMESTEP
100
ITEM: NUMBER OF ATOMS
362
ITEM: BOX BOUNDS xy xz yz pp pp pp
-8.3819999999999997e+00 1.7202700000000000e+01 -8.3819999999999997e+00
0.0000000000000000e+00 1.3430600000000000e+01 3.0499999999999999e-02
0.0000000000000000e+00 1.7762567000000001e+01 3.0270000000000002e-01
ITEM: ATOMS id type x y z
146 2 0.774216 6.19023 5.80304
2 4 -0.771064 2.83672 5.17419
5 4 2.42884 2.25571 6.26559
7 4 -0.857781 3.77448 2.0177
14 4 5.21916 2.67315 4.44943
23 4 2.80377 6.10896 4.43708
59 1 2.52503 1.43863 2.38549
60 1 -1.31537 4.30254 6.259
61 1 2.19801 3.52121 7.56933
95 2 6.06159 3.67344 6.57302
69 1 0.253341 5.37131 1.61339
87 2 -1.46735 5.49656 1.50678
353 2 6.08813 0.310964 8.08268
93 2 3.40023 4.58281 4.03583
88 2 -1.41613 2.4538 1.12971
116 2 2.82208 2.49573 2.1495
205 3 5.99224 3.47365 0.0446165
118 2 -1.72484 5.21865 5.52691
119 2 -0.554929 4.65216 7.01278
120 2 1.16108 4.02203 7.38652
121 2 3.07115 4.25 7.35764
114 2 1.86153 1.36483 3.2608
123 2 -1.90959 5.7598 3.71663
70 1 0.88722 5.95896 4.70046
124 2 -2.65713 6.51231 5.34248
143 2 0.917319 3.75481 1.48632
144 2 0.458561 5.62083 2.76305
147 2 1.00577 4.76002 4.49246
115 2 2.0888 0.826254 1.48753
191 3 0.904279 2.40845 5.5843
192 3 2.74861 0.572194 7.04262
194 3 -0.882869 3.4676 3.5663
199 3 5.23841 1.32656 3.49746
200 3 3.9002 2.66149 5.33475
122 2 2.30065 3.03337 8.60309
287 2 -1.73715 5.10394 8.04004
208 3 5.0335 4.04055 3.54756
201 3 7.25475 1.22569 1.10926
350 2 4.61184 5.20814 0.565944
142 2 0.759654 6.13841 0.938428
145 2 0.208582 6.56892 4.06352
13 4 8.25319 0.0658443 1.61734
1 4 4.18111 0.34259 2.77446
211 3 3.29316 6.5779 5.83455
212 3 4.88336 5.8812 7.68694
283 4 -3.28757 5.38151 8.66813
6 4 0.210565 1.38754 11.8357
9 4 0.85732 4.19456 13.2185
17 4 4.78581 2.38851 9.95386
20 4 5.21182 3.17532 16.6309
24 4 3.51192 6.49225 17.3559
27 4 5.43908 4.70085 13.8318
28 4 0.910832 5.8015 16.09
322 2 0.057904 1.19881 14.6409
63 1 0.0709503 5.53526 12.2138
67 1 3.68766 3.10858 11.4873
68 1 0.855222 1.59376 10.0111
89 2 2.55427 4.23469 12.6306
91 2 3.58821 3.00009 17.0542
92 2 5.68994 1.63785 16.4595
97 2 5.24748 3.52479 12.6051
98 2 -0.11481 5.5153 17.4284
99 2 2.90919 6.02981 11.1662
126 2 -0.864087 5.43832 11.6398
127 2 1.02474 5.70566 11.4799
297 2 -1.99153 6.15929 14.886
136 2 3.69917 2.354 12.3048
137 2 2.75283 3.05029 10.8257
138 2 3.91145 4.19587 11.7326
139 2 0.839966 2.62867 9.51332
140 2 0.462535 0.716832 9.38448
141 2 1.99548 1.32704 10.4023
195 3 0.298935 2.86358 12.7548
202 3 4.00927 1.09451 9.29007
86 2 -0.860967 1.70786 8.9345
206 3 6.12242 2.05092 10.7
296 4 -3.41618 5.91631 15.6602
213 3 5.3665 3.95003 15.2565
214 3 0.560128 4.55424 14.8674
215 3 2.42378 5.5956 16.6284
216 3 4.42316 5.8392 13.3478
348 2 -2.95942 5.1055 10.2881
328 2 3.24931 1.19349 13.7201
128 2 0.0307768 6.44862 12.8634
321 1 -0.733324 1.47436 15.3824
298 2 -2.43093 5.03321 16.7242
324 2 -0.452098 2.4327 15.8772
327 2 3.90409 0.424335 11.8478
210 3 5.02347 3.60744 8.94656
207 3 7.91949 1.14079 12.4271
307 2 8.07638 1.05368 16.6356
320 2 -5.75306 12.5999 4.19318
347 2 -3.48969 12.1291 7.84372
10 4 -2.58947 9.10274 1.54918
26 4 3.79496 6.93928 7.3288
101 2 1.0932 9.87917 0.701146
16 4 0.0801108 13.0919 7.77644
159 2 1.28553 10.0561 2.43364
362 3 0.529384 12.3776 0.498172
31 4 -1.34576 10.9644 3.62976
33 4 1.54413 8.50768 8.57039
34 4 0.575306 10.2854 6.34758
64 1 -1.34482 8.03696 0.542152
66 1 -1.70702 12.6044 8.5887
291 2 -3.7234 9.48463 6.39555
74 1 1.16943 8.92572 2.41544
100 2 -2.91536 11.4719 4.21985
319 2 -5.2393 10.9948 3.38215
30 4 2.94956 8.32111 2.09548
318 2 -4.23675 11.7731 4.83875
130 2 -0.698906 7.0482 0.924442
221 3 2.37258 7.11923 8.19697
134 2 -1.81954 11.5788 8.15568
284 4 -3.97697 8.53893 8.45934
317 1 -4.78085 11.9724 3.88075
157 2 1.00677 8.39684 3.41776
158 2 0.216159 8.60562 1.69044
196 3 -3.64325 8.13845 2.1403
197 3 -3.13427 10.3784 0.504751
198 3 -3.87414 12.7884 1.35452
178 2 -5.21579 8.83948 2.31127
217 3 2.96853 7.06747 3.17198
218 3 3.04982 7.36305 0.522113
219 3 -1.57505 9.7084 2.70219
220 3 -0.69106 12.1065 2.894
295 3 -3.66027 6.92512 8.51169
222 3 -0.574989 10.5151 4.90973
223 3 0.472368 9.03404 7.38309
224 3 0.588976 11.6536 7.16733
285 1 -2.87625 9.36741 7.21338
289 2 -1.99263 8.70704 7.0066
8 4 -3.98346 6.71997 3.35545
290 2 -2.60528 10.3728 7.6642
361 2 -6.33706 10.4454 1.95446
125 2 -1.88261 7.74903 4.04708
131 2 -0.624392 8.81226 0.0574387
180 2 2.17084 9.89473 4.5178
11 4 -3.72937 11.8094 0.0362425
3 4 -4.84844 13.1263 8.28532
62 1 -2.36841 6.72347 4.28892
19 4 -0.0481189 12.8903 13.0257
32 4 0.782481 11.4623 17.3107
35 4 1.56216 8.19906 14.3523
36 4 -1.65011 11.9414 15.7153
37 4 0.554217 9.9006 12.041
75 1 -0.812206 9.02893 11.0116
263 3 2.04423 10.1052 11.2691
102 2 0.420744 8.09646 9.78456
103 2 -2.74081 10.8167 15.259
286 1 -4.11217 9.71298 10.0629
160 2 -0.674229 7.922 11.0753
161 2 -0.815016 9.39747 9.96009
162 2 -1.72961 9.34457 11.6062
225 3 0.516968 7.16361 15.5168
226 3 2.37214 7.27465 13.4059
227 3 -0.534957 11.0818 16.5019
228 3 -1.03665 12.6132 14.3121
229 3 -2.61848 13.02 16.5025
230 3 0.548136 9.08875 13.3667
231 3 -0.0431028 11.5219 12.1058
135 2 -1.57969 12.6486 9.71321
299 2 -3.65629 7.68422 15.592
272 4 -6.11388 12.8779 13.516
273 4 -6.28108 11.3207 16.2612
274 2 -3.38764 12.9179 13.2304
276 3 -7.30989 13.2199 12.6046
277 3 -5.16125 11.8628 17.1463
278 3 -6.12968 11.9299 14.7861
326 2 -4.57618 11.7059 12.2922
293 2 -3.09473 8.92821 10.4602
292 2 -3.82016 10.7964 9.87818
294 2 -5.01127 9.64456 10.7644
349 2 -5.78462 11.9191 8.97557
359 2 -5.14655 8.87812 17.2044
352 2 -6.9942 12.388 10.2374
325 1 -4.41435 12.8551 12.655
266 3 2.62489 9.18463 15.194
132 2 -5.80632 10.8265 10.3353
129 2 -2.08441 7.96132 17.5209
29 4 3.52668 6.81122 12.5274
65 1 -6.88804 11.3312 10.5542
151 2 4.19938 7.03212 15.1293
288 2 -5.58613 8.93139 9.17891
358 2 -3.85852 6.86402 17.2338
15 4 7.35702 2.89341 0.907533
18 4 8.32449 2.44416 5.85412
22 4 6.58955 4.9332 2.97628
330 2 15.089 1.50302 2.48578
39 4 10.2793 1.88746 3.2146
45 4 11.9208 4.23561 1.61907
354 2 13.896 2.26282 5.43591
48 4 11.9777 3.1464 7.56786
329 1 15.7214 0.647603 2.09587
71 1 5.88421 6.22572 1.62093
76 1 14.9 1.55341 5.24889
77 1 11.7912 0.801754 3.64658
80 1 12.2008 3.30569 5.64554
94 2 8.9428 3.67267 6.79085
25 4 5.77076 4.57074 7.98202
106 2 12.7374 1.59433 7.40361
109 2 11.3099 5.89628 6.84847
335 2 13.5687 0.414913 6.34408
150 2 6.25503 5.84585 0.620626
163 2 15.3504 1.05926 6.14073
164 2 14.9158 0.930711 4.37722
165 2 12.7169 1.36621 3.57763
167 2 11.5699 0.409794 4.74193
174 2 11.2762 4.00151 5.54261
175 2 12.1092 2.33468 4.9728
176 2 13.2025 3.92602 5.5811
149 2 4.84423 6.33299 1.92461
209 3 7.57271 3.78836 2.21141
232 3 9.47635 0.813202 2.35542
233 3 9.32088 2.20583 4.72562
234 3 13.1848 0.618213 0.589602
248 3 7.19712 4.96743 8.46256
241 3 10.9717 3.16729 2.41214
242 3 12.9685 3.3417 0.753404
243 3 12.8757 5.33016 2.60174
244 3 7.10521 5.88506 4.0794
245 3 11.2103 5.29539 0.560578
246 3 10.5147 2.97321 8.18891
247 3 12.8998 4.29915 8.17767
331 2 16.4136 0.780474 1.20541
250 3 9.5559 6.35431 5.09393
204 3 8.05385 1.05216 6.70695
203 3 6.89207 2.92815 5.3967
117 2 14.9493 3.51707 6.70523
4 4 15.1578 0.938615 9.87964
21 4 7.51538 2.26281 11.3537
312 2 9.24932 5.66372 13.45
42 4 9.89112 1.98656 9.57936
44 4 12.7476 2.40877 10.7487
73 1 7.27841 5.22461 13.5482
236 3 9.48881 0.492077 8.95617
338 2 10.6164 0.919069 12.8029
96 2 7.56827 3.72228 12.3
104 2 12.3756 4.2137 10.4057
110 2 13.2531 2.40867 12.5302
341 2 9.69505 6.10296 15.2519
154 2 7.76205 5.69255 12.5388
155 2 7.84221 4.23271 13.9523
156 2 7.14142 6.05545 14.5228
171 2 8.74957 5.62725 11.4935
360 2 8.94494 5.15598 16.7834
193 3 15.8533 0.983053 11.4741
237 3 8.66301 2.62948 10.2619
238 3 8.71796 3.4589 17.445
239 3 13.9218 1.88909 9.8
240 3 11.328 1.81886 10.6725
279 4 14.5347 1.53788 15.1331
340 1 9.24149 6.19446 16.3418
281 3 13.7549 2.44541 16.2358
280 2 15.4968 2.61959 14.103
304 1 10.4623 5.8367 13.3563
300 4 9.83907 2.6882 16.426
301 4 11.3657 4.41149 14.1384
302 1 8.84664 1.22681 15.7932
303 1 13.3755 4.08035 11.7717
305 2 9.47508 0.270774 15.6699
306 2 8.39871 1.6912 14.8442
309 2 14.4403 3.79045 11.4655
308 2 13.4406 4.99608 12.4611
49 4 8.27132 6.11583 8.96186
310 2 11.8695 3.44301 12.773
314 3 11.2397 2.27307 16.9405
315 3 10.2912 3.74268 15.0043
316 3 12.6267 5.15653 14.9226
107 2 9.74712 5.44219 9.60301
313 2 10.8358 5.5875 12.2519
282 3 13.9262 0.418227 14.2736
40 4 12.7716 2.26116 17.562
323 2 16.1743 0.481483 16.242
79 1 8.61262 6.5234 10.8466
38 4 5.81819 12.8064 1.26227
41 4 5.11015 11.8898 8.60204
260 3 9.2941 9.68432 8.57147
50 4 10.8114 7.05597 5.76712
51 4 9.26258 8.71682 1.92139
52 4 4.58144 10.5922 3.29309
54 4 9.01306 8.66593 7.37431
56 4 6.74978 10.541 5.33636
78 1 4.72327 8.71484 7.15938
81 1 10.9178 9.41453 2.53816
82 1 2.32486 10.1829 5.57828
83 1 8.03701 11.5991 4.42687
105 2 7.28017 7.9496 5.58218
111 2 3.19959 11.2308 4.16977
112 2 6.13368 11.9483 6.18252
113 2 5.56924 10.3922 7.83221
148 2 6.49773 7.11624 1.90176
166 2 3.36067 13.1103 2.84247
265 3 7.49919 9.29463 6.31872
332 2 7.67663 13.019 2.91101
169 2 4.11867 9.55383 7.5903
170 2 4.97276 8.73704 6.065
177 2 10.8052 9.50312 3.70313
168 2 5.65968 8.56103 7.79162
179 2 2.52683 11.3431 5.72678
46 4 8.13624 7.01657 4.4009
181 2 3.17052 9.54289 6.13291
182 2 7.7344 11.289 3.36088
183 2 9.08903 11.2265 4.71749
333 1 4.48421 12.7741 6.96042
249 3 12.1323 7.09135 4.63443
251 3 8.5528 7.94337 3.2025
252 3 9.81684 7.57563 0.89406
253 3 3.87782 9.54798 2.33063
254 3 5.23503 11.8457 2.49053
256 3 8.39215 9.82981 1.06014
355 2 4.26841 11.8109 6.4407
258 3 8.66125 7.31151 8.03586
259 3 10.3608 8.49416 6.45377
184 2 7.82014 12.6803 4.75221
264 3 5.67504 9.97613 4.35022
257 3 6.80972 11.8766 0.206884
334 2 3.55588 13.2158 7.43566
90 2 8.21582 12.0803 8.74906
187 2 4.13448 10.9093 0.0622167
12 4 8.73576 10.6761 9.62701
43 4 4.98409 12.2988 13.5078
53 4 8.00835 11.0908 17.5902
55 4 3.25192 10.3149 10.3188
57 4 3.13283 10.6816 15.5896
58 4 6.34002 10.073 11.8565
357 2 11.5383 7.82158 15.6476
72 1 4.70907 7.34972 16.1484
84 1 4.25516 10.3402 17.1254
85 1 6.79637 8.89798 13.1806
345 2 6.48136 10.4078 15.7029
108 2 4.34054 8.15128 11.8789
346 2 6.87553 8.96456 16.8723
342 2 8.53531 7.07496 16.5297
47 4 10.5919 6.89338 17.5665
153 2 4.59555 8.47495 16.3786
351 2 3.77 12.9372 12.47
185 2 5.38725 10.1721 16.9064
186 2 3.78984 9.40014 17.5615
337 2 2.18941 12.948 14.3199
188 2 7.75436 8.44752 12.7279
189 2 5.9765 8.08982 13.0032
190 2 6.88631 9.23039 14.3553
235 3 6.51895 12.724 9.10088
255 3 9.42116 11.5544 16.8604
262 3 3.91421 11.7079 9.63486
356 2 2.1818 12.2165 12.5529
267 3 4.2251 11.3864 14.5576
268 3 2.02352 11.6345 16.2827
269 3 7.71458 10.1354 10.7021
270 3 4.65285 9.40691 10.9938
271 3 5.95818 11.4214 12.6349
344 2 8.20553 9.63296 15.618
133 2 9.94795 11.0194 11.6038
173 2 9.3541 7.32581 11.0522
311 2 10.8633 6.79919 13.7921
275 2 10.9832 9.60576 16.1097
343 1 7.29707 9.84372 16.2965
336 1 1.87202 13.0811 13.2306
339 1 11.9879 7.92858 16.6603
172 2 7.45396 6.86295 10.9322
152 2 5.71092 6.86925 16.3877
261 3 2.61034 9.55429 9.05707
ITEM: TIMESTEP
200
ITEM: NUMBER OF ATOMS
362
ITEM: BOX BOUNDS xy xz yz pp pp pp
-8.3819999999999997e+00 1.7202700000000000e+01 -8.3819999999999997e+00
0.0000000000000000e+00 1.3430600000000000e+01 3.0499999999999999e-02
0.0000000000000000e+00 1.7762567000000001e+01 3.0270000000000002e-01
ITEM: ATOMS id type x y z
146 2 0.708938 5.94774 5.65976
2 4 -0.717166 2.98642 5.09344
5 4 2.43794 2.18355 6.33836
7 4 -0.960148 3.62486 1.89859
14 4 5.0936 2.62561 4.44915
23 4 2.81821 6.12761 4.37726
59 1 2.53085 1.60858 2.41815
60 1 -1.07819 4.47476 6.3102
61 1 2.22683 3.39626 7.73488
95 2 6.1754 3.81204 6.51581
69 1 -0.0599161 5.37707 1.49317
87 2 -1.79455 5.22126 1.42855
353 2 6.03495 0.376786 8.21015
93 2 3.87944 4.83282 3.877
283 4 -3.26929 5.40595 8.75755
116 2 3.17336 2.45062 1.9727
205 3 5.97516 3.39579 0.0224144
118 2 -1.55322 5.32503 5.58884
119 2 -0.327605 4.85099 7.08894
120 2 1.07797 3.68316 7.64546
121 2 2.93691 4.19706 7.35919
114 2 1.96785 1.92294 3.38184
123 2 -1.91951 5.7533 4.029
70 1 0.896629 5.91191 4.51248
117 2 -1.9764 3.85104 6.88231
143 2 0.646196 3.8487 0.880767
144 2 0.323804 5.62112 2.61128
147 2 0.959274 4.84748 4.04055
115 2 1.86754 1.14506 1.60934
191 3 0.839253 2.28438 5.38959
192 3 2.57025 0.826779 7.0998
194 3 -0.849792 3.3362 3.43322
199 3 5.15671 1.16288 3.63845
200 3 3.82058 2.63716 5.43242
122 2 2.5046 2.96677 8.73859
287 2 -1.69943 5.27643 8.01529
208 3 4.92234 3.77923 3.26291
201 3 7.24182 1.31743 1.20436
350 2 4.43962 5.14172 0.565932
142 2 0.283226 6.25873 0.838362
203 3 6.77245 2.77853 5.35551
13 4 8.2726 0.132674 1.73088
1 4 4.04487 0.419973 2.78503
211 3 3.33418 6.5021 5.8034
212 3 4.81868 5.75425 7.74695
25 4 5.76307 4.51878 8.00432
3 4 3.40222 0.175229 8.32256
6 4 0.170212 1.24699 11.8218
9 4 1.01236 4.12913 13.3138
17 4 4.83413 2.38142 9.98857
20 4 5.19134 3.13495 16.5834
24 4 3.49075 6.53354 17.379
27 4 5.48588 4.52846 13.7255
28 4 0.956965 5.76649 15.9991
322 2 -0.021676 1.0271 14.5508
63 1 0.0878438 5.3303 12.2906
67 1 3.66464 3.4047 11.3116
68 1 0.990038 1.71718 10.186
89 2 2.78036 3.98693 12.9608
91 2 3.64378 2.75 16.9161
92 2 5.45383 1.55188 16.428
97 2 5.26566 3.25772 12.5924
98 2 -0.152316 5.45589 17.3218
99 2 3.13085 6.01923 11.1454
126 2 -0.861042 4.94397 11.8059
127 2 0.85773 5.50649 11.4095
297 2 -2.13541 6.33996 14.741
136 2 3.67815 2.72435 12.244
137 2 2.7091 3.38096 10.6862
138 2 4.26882 4.35699 11.4353
139 2 0.698828 2.74799 9.82968
140 2 0.780769 0.975149 9.36953
141 2 2.11184 1.69907 10.4362
195 3 0.347097 2.6357 12.7298
202 3 3.94796 1.13499 9.38485
86 2 -0.701826 1.63402 9.13145
206 3 6.11821 1.9291 10.7606
296 4 -3.42862 6.00444 15.8785
213 3 5.33892 3.80692 15.1633
214 3 0.774503 4.70405 14.7631
215 3 2.41312 5.65626 16.6834
216 3 4.69071 5.79465 13.1929
29 4 3.58111 6.69932 12.5782
328 2 3.47803 1.12414 13.7472
128 2 -0.0767621 6.30953 12.8845
207 3 7.84735 1.06101 12.3177
298 2 -2.4524 4.91878 16.6887
324 2 -0.354239 2.15889 16.1157
307 2 7.87582 1.12773 16.4987
358 2 -3.92256 6.80991 17.3742
210 3 5.1609 3.40971 8.92264
348 2 -2.99712 4.91803 10.3505
320 2 -5.84817 12.7528 4.3416
347 2 -3.65364 12.4856 7.62603
10 4 -2.51585 9.22105 1.492
26 4 3.8361 6.90007 7.23854
101 2 1.13802 9.74613 0.396916
16 4 0.00103279 13.0485 7.76762
159 2 1.39767 10.2459 2.14148
362 3 0.446332 12.2813 0.547217
31 4 -1.43063 11.0637 3.66451
33 4 1.5203 8.37569 8.47149
34 4 0.589246 10.3145 6.15824
64 1 -1.37786 8.17975 0.339291
66 1 -1.82151 12.5604 8.39265
291 2 -3.98978 9.19382 6.26218
74 1 1.13353 9.12912 2.28811
100 2 -2.96298 11.6163 4.21363
319 2 -5.23013 11.1316 3.55687
30 4 2.89163 8.40633 2.15171
318 2 -4.41623 11.7389 5.06077
130 2 -0.972372 7.14824 0.861314
221 3 2.46665 7.14777 8.36391
134 2 -2.09696 11.6264 7.7266
284 4 -3.86974 8.55665 8.40567
317 1 -4.86876 12.0996 4.07879
157 2 0.872653 8.95173 3.3924
158 2 0.206069 8.68146 1.54286
196 3 -3.8036 8.0619 2.09021
197 3 -3.1724 10.4099 0.607528
198 3 -3.9978 12.7974 1.4367
178 2 -5.31785 8.89858 2.30608
217 3 2.81333 7.20542 3.29517
218 3 2.90179 7.54042 0.525781
219 3 -1.60894 9.79541 2.72016
220 3 -0.809667 12.1891 2.78843
295 3 -3.58031 6.92236 8.61646
222 3 -0.519239 10.4836 4.93394
223 3 0.683165 8.81714 7.17792
224 3 0.421086 11.6996 7.0713
285 1 -2.89686 9.37462 7.02711
289 2 -2.00945 8.80774 6.59504
8 4 -4.1034 6.75298 3.35608
290 2 -2.7544 10.5054 7.23806
361 2 -6.17293 10.6032 1.97569
125 2 -1.952 7.68014 4.06684
124 2 -2.85847 6.74594 5.41181
62 1 -2.48044 6.69755 4.35329
11 4 -3.76767 11.8241 0.157035
145 2 0.310176 6.68336 3.88998
19 4 -0.199586 12.825 13.0219
32 4 0.68889 11.4329 17.2808
35 4 1.51937 8.18823 14.339
36 4 -1.76621 11.9561 15.7646
37 4 0.504886 9.9233 12.0192
75 1 -0.777141 8.88717 11.062
263 3 2.01427 10.2219 11.2545
102 2 0.461716 8.03207 9.80388
103 2 -2.60092 10.713 14.9353
286 1 -4.02688 9.62051 10.0709
160 2 -0.386062 7.84394 10.8988
161 2 -0.877415 9.4925 10.0872
162 2 -1.67457 8.96294 11.6741
225 3 0.64495 7.31289 15.5483
226 3 2.36325 7.07475 13.3965
227 3 -0.745525 11.0649 16.6631
228 3 -0.934352 12.6414 14.6313
229 3 -2.78223 12.9708 16.554
230 3 0.506914 9.14441 13.3686
231 3 -0.419725 11.4321 12.1866
135 2 -1.67343 12.3994 9.48781
299 2 -3.66181 7.80114 15.9806
272 4 -6.04781 12.9088 13.5513
273 4 -6.36212 11.3777 16.3365
274 2 -3.38582 12.9627 13.1468
276 3 -7.21784 13.3134 12.6323
277 3 -5.15781 11.7558 17.2701
278 3 -6.1899 12.1473 14.9022
326 2 -4.50566 11.5145 12.6034
293 2 -2.80723 9.30616 10.293
292 2 -3.99767 10.7262 10.0143
294 2 -4.69527 9.21435 10.882
349 2 -5.75599 11.9937 9.03802
359 2 -5.28133 8.83492 17.6031
352 2 -6.76178 12.3538 10.3455
325 1 -4.34123 12.7034 12.6849
266 3 2.52174 9.24565 15.0879
132 2 -5.72813 10.6787 10.2972
129 2 -2.09237 8.25193 17.2328
288 2 -5.46605 9.0245 8.98598
65 1 -6.81333 11.2393 10.5294
131 2 -0.552703 9.13618 17.6538
327 2 -4.37705 13.1769 11.564
275 2 -5.94881 9.70882 16.2694
261 3 2.56821 9.51232 8.89794
15 4 7.33002 2.9285 0.867969
18 4 8.32002 2.38085 5.77604
22 4 6.51865 4.93671 2.94369
330 2 15.1318 1.67299 2.7399
39 4 10.2233 2.05422 3.24409
45 4 12.0613 4.24847 1.68593
354 2 13.8979 2.34019 5.46898
48 4 12.0933 3.11116 7.55979
329 1 15.5512 0.686167 2.33034
71 1 5.87427 6.12675 1.53545
76 1 14.9227 1.82511 5.41288
77 1 11.6917 0.873269 3.7832
80 1 12.1114 3.40231 5.71103
94 2 8.90632 3.5885 6.7457
88 2 15.5097 2.28814 1.13426
106 2 12.9855 1.58518 7.44942
109 2 11.6743 6.13457 6.69953
335 2 13.6497 0.447664 6.34795
150 2 5.97299 5.72039 0.500769
163 2 15.2915 1.47793 6.44401
164 2 14.9285 1.06494 4.54743
165 2 12.5972 1.40618 3.3517
167 2 11.7907 0.643515 4.84702
174 2 11.1137 4.02935 5.67099
175 2 11.9515 2.40094 5.08222
176 2 13.0645 3.96285 5.48583
149 2 4.78097 6.13978 1.93503
209 3 7.57118 3.96229 2.0935
232 3 9.50059 1.01947 2.33932
233 3 9.31366 2.26465 4.6115
234 3 13.3817 0.691047 0.628136
248 3 7.18599 5.08328 8.59806
241 3 10.938 3.33564 2.4575
242 3 13.0549 3.28393 0.72835
243 3 12.8835 5.19732 2.66819
244 3 7.20053 5.97711 4.00971
245 3 11.3244 5.32589 0.578037
246 3 10.6484 2.91361 8.18735
247 3 12.9528 4.37287 8.11569
331 2 16.3778 0.821273 1.53204
250 3 9.53469 6.28724 5.26313
204 3 8.22953 1.1504 6.70054
4 4 15.0786 0.915192 9.862
21 4 7.55535 2.2739 11.2916
312 2 9.30338 5.6461 13.4763
42 4 9.9475 1.94503 9.58804
44 4 12.6619 2.33755 10.8056
73 1 7.31151 5.20036 13.5347
236 3 9.35475 0.363709 9.01782
338 2 10.5956 0.870091 12.7756
96 2 7.51245 3.73056 12.2779
104 2 12.4241 4.36175 10.7951
110 2 13.161 2.15682 12.5452
341 2 9.70065 6.17924 15.2525
154 2 7.88549 5.44314 12.511
155 2 8.00428 4.71874 14.2201
156 2 6.97093 6.24867 14.0115
171 2 9.1299 5.01284 11.1833
360 2 8.97955 5.19712 16.8033
193 3 15.6568 0.80957 11.3366
237 3 8.78338 2.71013 10.3785
238 3 8.80614 3.54259 17.5103