ITEM: TIMESTEP
0
ITEM: NUMBER OF ATOMS
362
ITEM: BOX BOUNDS xy xz yz pp pp pp
-8.3819999999999997e+00 1.7202700000000000e+01 -8.3819999999999997e+00
0.0000000000000000e+00 1.3606467000000000e+01 3.0499999999999999e-02
0.0000000000000000e+00 1.7586700000000000e+01 4.7856700000000002e-01
ITEM: ATOMS id type x y z
3 4 4.03408 0.274161 8.33527
2 4 -0.493827 2.80639 5.1512
5 4 2.51257 2.2335 6.46807
7 4 -0.105836 3.67174 2.02364
14 4 4.77128 2.6196 4.42208
88 2 -0.0611089 2.2402 0.997096
125 2 -2.10119 6.01442 3.97954
60 1 -0.826246 4.44002 6.22881
61 1 1.98443 3.569 7.73135
25 4 5.64096 4.42881 7.93844
69 1 0.388744 5.44706 1.67601
87 2 -1.18295 5.22865 1.4294
23 4 2.95906 6.50294 4.26034
93 2 3.51877 5.02972 3.61056
283 4 -3.11372 5.7942 8.42058
116 2 1.86096 1.20471 3.09976
117 2 -1.81074 3.93937 6.66802
118 2 -0.876902 5.3592 5.5199
119 2 0.0359916 4.62123 7.03398
120 2 0.812376 3.65039 7.61181
121 2 2.52174 4.4675 7.26836
70 1 1.1074 6.61349 4.57514
201 3 7.56314 0.875068 1.38538
95 2 6.1261 3.74556 6.4916
142 2 0.838106 6.10445 0.871914
143 2 1.64607 4.16725 1.59925
144 2 0.616402 5.909 2.76574
147 2 0.929002 5.45839 4.50647
350 2 4.52284 5.46254 0.283321
191 3 0.849977 1.92724 5.64405
192 3 3.0085 1.02682 7.34107
194 3 -0.281621 3.32911 3.59893
199 3 4.58731 1.22819 3.60766
200 3 3.70674 2.79661 5.55231
59 1 2.06753 0.161716 2.76933
203 3 6.50556 2.63629 5.31745
208 3 4.54832 3.82515 3.35223
62 1 -3.09002 6.09327 4.60858
212 3 4.52247 5.57666 7.77331
287 2 -1.74867 5.71154 7.4089
347 2 5.67552 0.340989 7.66905
129 2 -1.52179 6.51021 0.181657
123 2 -3.10705 5.22478 5.23058
6 4 0.310838 1.32717 11.9175
9 4 0.864025 4.37351 13.0456
17 4 4.70361 2.50437 10.1298
20 4 4.81692 3.25619 16.399
324 2 -0.694045 2.15295 16.4282
91 2 3.6103 3.83492 17.3091
28 4 0.909624 6.35713 15.4806
29 4 3.91332 6.62973 11.8051
63 1 -0.232677 5.55348 12.0785
67 1 3.3531 3.55648 11.1627
68 1 1.33041 0.926489 10.3154
89 2 2.57032 4.57155 12.6895
328 2 2.61981 1.40844 14.8654
92 2 4.17459 1.78697 15.7751
205 3 6.0101 2.95011 17.2037
98 2 -0.514555 6.69052 16.4592
99 2 3.60645 5.42594 10.5566
126 2 -1.10369 5.00917 11.4957
127 2 0.69476 6.03425 11.4879
128 2 -0.626922 6.34055 12.8299
136 2 2.95465 2.79027 11.7948
137 2 2.54035 3.97551 10.4425
138 2 4.01261 4.35207 11.8186
139 2 1.91441 1.84165 10.0665
140 2 0.598016 0.66087 9.5448
86 2 -1.38444 3.35284 9.56587
195 3 0.590679 2.9147 12.5469
202 3 4.06207 0.777462 9.83482
122 2 2.38846 3.42757 8.86146
206 3 5.93704 2.75159 11.096
207 3 7.66418 1.15381 12.0344
213 3 5.0449 4.27739 15.2397
214 3 0.591818 4.93264 14.7187
215 3 2.2446 6.35401 16.3476
216 3 4.72559 5.80972 12.9486
353 2 6.60181 0.611278 9.09157
297 2 -1.91538 6.2893 14.7384
299 2 -2.90163 6.26859 17.2106
348 2 -2.42078 5.34005 9.9262
326 2 4.67339 1.26296 13.8115
325 1 3.97229 0.6031 14.1719
210 3 5.10741 3.21176 8.80043
322 2 0.0304226 1.55164 14.745
296 4 -3.05079 5.57764 15.6612
27 4 5.59588 5.07499 13.9958
349 2 -4.55794 11.7003 8.19211
1 4 -4.43962 12.9375 2.85889
10 4 -2.4498 8.50267 1.28176
11 4 -3.76921 11.2563 0.28401
101 2 1.12303 9.52408 0.422888
289 2 -3.09624 11.3831 7.22276
318 2 -3.39712 11.8399 4.95335
317 1 -4.25152 11.5918 4.30678
31 4 -1.02622 10.382 3.12168
33 4 2.15308 9.07214 8.02529
34 4 0.634341 10.5768 5.79173
134 2 -2.05942 11.865 8.43113
115 2 -6.74753 12.9679 1.78474
13 4 0.338884 12.9298 1.51546
74 1 2.13949 9.87281 2.0768
100 2 -2.66852 10.9032 3.31669
319 2 -4.21541 10.5324 3.88713
295 3 -3.53769 7.2681 8.68382
290 2 -2.80344 9.70351 6.94533
16 4 0.102687 13.1428 7.66156
288 2 -4.95148 9.86797 8.0161
124 2 -3.13636 7.00898 5.28378
145 2 0.538604 7.24657 3.85622
146 2 1.04516 7.08932 5.63708
114 2 -6.61656 12.5367 3.6234
158 2 1.23103 9.22081 2.02267
196 3 -3.50981 7.60141 2.09647
197 3 -3.06994 9.78803 0.669837
198 3 -3.83475 12.2636 1.58929
320 2 -5.23364 11.8057 4.87798
217 3 3.28759 7.53677 3.16883
218 3 3.37694 7.8783 0.375107
219 3 -1.10307 8.95782 2.29711
220 3 -0.260085 11.5261 2.38146
221 3 3.05051 7.76162 8.15897
222 3 -0.386705 10.374 4.60324
223 3 1.43698 9.15247 6.65686
224 3 0.278859 11.8301 6.83004
285 1 -3.19331 10.3671 7.72793
211 3 3.7417 6.79681 5.69805
291 2 -2.34831 10.2721 8.715
19 4 -0.598692 12.9314 12.8985
32 4 0.806906 11.3232 16.8907
35 4 1.88267 8.24019 13.3491
36 4 -1.88249 11.6218 15.5753
37 4 0.482372 10.419 11.4457
75 1 -0.623236 9.37445 10.205
135 2 -0.744599 12.2926 9.77178
130 2 -0.91459 8.63621 17.0045
103 2 -2.6202 10.2145 14.8757
294 2 -5.16211 8.9331 10.8881
160 2 -0.106413 8.3674 10.1117
161 2 -0.531407 10.0063 9.26362
162 2 -1.66351 9.33694 10.5776
225 3 0.937276 7.42055 14.3576
226 3 2.60323 7.29717 12.2796
227 3 -0.578614 11.0715 16.2372
228 3 -1.4523 12.7266 14.353
229 3 -2.99368 12.4876 16.4937
230 3 0.899235 9.26406 12.4767
231 3 -0.631683 11.557 12.0106
277 3 -5.20716 11.4832 17.4218
102 2 0.910001 8.74301 9.18666
272 4 -6.25709 12.9467 14.0545
273 4 -6.56652 11.2059 16.681
274 2 -4.66661 12.4957 12.9818
131 2 -2.64606 7.75721 16.3925
327 2 -3.90182 13.2465 15.0564
278 3 -6.45778 11.8451 15.183
284 4 -3.94704 8.78257 9.12201
286 1 -3.70668 9.10099 10.9066
292 2 -3.40019 10.2308 10.9336
293 2 -3.12953 8.38441 11.5873
64 1 -1.83992 7.93453 17.277
141 2 -6.31085 13.2752 10.6859
266 3 2.94844 9.24483 14.3035
276 3 -7.57561 13.2917 12.954
151 2 4.17864 7.20149 14.7498
66 1 -1.31292 12.7274 8.8933
24 4 3.55551 7.07765 17.0675
15 4 7.37063 2.43706 0.775872
18 4 8.07109 2.32696 5.7951
22 4 6.39179 4.50162 2.85229
107 2 9.61386 4.69665 8.60003
39 4 10.2742 1.73582 3.41191
45 4 11.6887 4.06991 1.53892
354 2 14.313 2.63106 5.13024
48 4 12.0433 3.53657 7.62874
166 2 12.2293 0.125549 3.82925
71 1 5.97245 5.84269 1.58248
76 1 15.0299 1.7841 5.22512
77 1 11.9469 1.13381 4.22416
80 1 11.9465 3.96269 5.81298
94 2 8.54453 3.78676 6.62016
331 2 16.5679 0.531994 0.835845
106 2 12.7193 1.93203 7.73829
246 3 10.6381 3.48078 8.37278
109 2 11.6086 5.85434 6.38
150 2 6.13711 5.36618 0.572045
335 2 13.1691 0.72714 6.4647
164 2 14.886 1.07262 4.35815
165 2 12.6592 1.97912 3.97286
167 2 11.5298 1.08459 5.30307
174 2 10.7876 4.28943 5.86243
175 2 12.0569 2.90193 5.20043
176 2 12.654 4.77895 5.36592
163 2 15.0815 1.30741 6.25901
209 3 7.13533 3.46917 1.99271
232 3 9.86488 0.487508 2.57681
233 3 9.1635 2.06005 4.6271
334 2 11.6331 0.231563 7.57878
236 3 10.0249 0.65394 8.63239
241 3 10.8934 2.97325 2.52029
242 3 12.6185 3.23996 0.469345
243 3 12.6425 4.99906 2.46797
244 3 7.1371 5.18575 4.16454
245 3 10.7011 5.03195 0.678215
234 3 12.7202 0.530184 0.355017
247 3 13.0123 4.72595 8.07245
248 3 7.00732 5.14469 8.49666
250 3 9.34183 6.40114 5.1339
329 1 15.5983 1.0167 1.26777
330 2 15.2569 1.9273 0.73662
332 2 15.6709 1.15449 2.369
8 4 12.8935 6.4231 3.13991
46 4 7.84045 6.5921 4.53604
204 3 8.05567 1.30536 6.92974
47 4 10.0302 6.5047 0.26991
149 2 4.90229 6.13463 1.81768
4 4 15.0688 1.98899 10.1924
21 4 7.57453 2.51845 11.1709
40 4 12.449 2.38669 17.2121
42 4 9.9539 1.97408 9.42722
44 4 12.2605 2.8766 11.1592
73 1 7.63324 5.1499 13.5076
79 1 8.49644 6.32321 10.7146
298 2 14.5794 4.02417 15.7658
96 2 8.15089 3.7402 12.2321
104 2 12.0095 4.53268 10.2972
110 2 12.1028 3.38928 12.8306
321 1 16.4341 1.42283 15.5429
154 2 7.88472 5.63293 12.5412
155 2 8.54528 4.91949 14.1488
156 2 6.80833 6.37382 14.4532
171 2 9.35072 5.48829 10.9184
172 2 7.34664 6.03004 10.9089
193 3 16.0259 1.23297 11.2135
237 3 8.53913 2.36627 9.90284
235 3 14.826 0.999242 8.97604
239 3 13.6916 2.37992 10.85
240 3 10.9014 2.15595 10.8407
279 4 14.6662 1.49534 14.8754
340 1 8.72903 6.96264 16.5414
281 3 13.7747 2.452 15.8734
97 2 6.68221 3.73139 13.1744
338 2 9.82741 0.954075 12.7573
300 4 9.63091 3.22138 16.3045
301 4 11.1821 5.6655 14.354
302 1 8.4579 2.42953 15.1343
303 1 12.1796 5.15554 11.9255
305 2 8.93075 1.61032 14.4907
306 2 8.04047 3.46409 14.4367
307 2 7.64875 1.96294 15.8128
308 2 11.2185 4.83846 12.7373
309 2 13.1877 4.86556 12.3631
310 2 12.0932 6.29891 11.8922
314 3 10.9281 2.30351 16.4487
315 3 10.0586 4.76783 15.1262
316 3 12.7862 5.68998 14.9856
360 2 8.55222 5.83026 16.6149
280 2 15.8343 2.43675 13.9665
49 4 8.36238 5.87238 8.88883
152 2 5.66872 6.99271 15.9649
238 3 8.65209 3.45688 17.5281
282 3 14.0227 0.409388 13.9225
38 4 5.80207 12.8398 0.920808
261 3 3.20211 10.4768 8.4348
265 3 8.04216 9.507 6.21128
50 4 10.7428 7.01828 5.47435
51 4 8.4981 8.53584 2.22108
52 4 5.32608 10.9182 3.20607
54 4 9.22771 8.78148 7.2901
56 4 7.4154 10.7474 5.53909
78 1 5.81913 8.21032 7.2163
81 1 9.69246 9.82019 2.93923
82 1 2.2136 11.337 4.99441
83 1 8.58722 12.2112 5.41572
105 2 6.92642 7.19709 5.87503
111 2 3.98757 11.3312 4.12821
112 2 7.10927 12.0981 6.67428
362 3 0.942379 12.248 0.146221
148 2 6.69698 6.69528 1.72848
159 2 2.19999 10.6759 1.33228
168 2 5.44104 9.00821 7.9554
180 2 2.83378 10.3543 4.90681
169 2 5.89988 8.65179 6.10407
170 2 6.78882 7.81592 7.57612
30 4 3.58223 8.64199 2.06311
178 2 9.4611 9.70322 4.0829
179 2 1.85763 11.8188 4.00494
355 2 4.56333 12.058 6.8471
181 2 2.71657 12.0693 5.75425
182 2 9.10196 11.8958 4.41674
333 1 4.36039 13.166 7.24874
177 2 9.4875 10.8401 2.53932
249 3 11.7099 7.13469 4.16993
251 3 7.77732 7.71562 3.47586
252 3 9.49218 7.45607 1.39351
253 3 4.8278 9.6407 2.35351
254 3 5.55613 12.2534 2.35942
256 3 7.62451 9.40344 0.942448
184 2 7.82423 13.2404 5.34743
258 3 8.76078 7.44019 8.1002
259 3 10.6128 8.37079 6.29087
260 3 9.5267 10.1048 8.32072
264 3 6.39913 10.7247 4.335
361 2 10.6904 9.3648 2.51596
183 2 9.37865 12.383 6.18045
157 2 2.11562 10.4075 3.17139
359 2 11.7124 8.38904 0.129643
26 4 4.22679 7.05086 7.20059
12 4 8.8949 10.5544 9.74513
43 4 5.0087 12.3809 13.0162
53 4 7.67352 11.0027 17.3465
55 4 3.27881 10.8991 9.98159
57 4 3.1037 10.767 14.8101
58 4 6.00613 10.2021 11.2999
65 1 9.55894 9.39126 11.04
72 1 4.71218 7.56925 15.6596
84 1 4.2613 10.6583 16.3965
85 1 6.48131 8.54293 12.1283
275 2 10.4964 9.51125 16.4632
108 2 4.99829 7.76241 11.1216
132 2 8.72787 8.88133 11.5356
312 2 9.36859 7.22361 13.8144
336 1 1.24315 13.1723 13.371
153 2 4.73287 8.77797 15.7479
173 2 8.86274 7.43858 10.8014
185 2 5.33127 10.4581 15.9857
186 2 3.87525 9.77203 17.0833
187 2 4.19187 11.7062 16.8522
188 2 6.95638 8.03164 11.2287
189 2 5.78153 7.80074 12.6723
190 2 7.34308 9.05747 12.8466
352 2 10.2916 8.62614 10.6689
255 3 9.10727 11.711 17.3451
262 3 4.20583 12.6772 10.0104
133 2 10.0421 10.2014 11.7165
267 3 3.7873 11.6477 13.7117
268 3 1.87273 11.3462 15.6639
269 3 7.36677 10.6213 9.95932
270 3 4.45951 10.066 10.7424
271 3 6.14077 11.2095 12.5539
358 2 12.312 7.15982 17.1375
357 2 11.5079 8.25264 15.8531
304 1 10.4891 7.33247 13.9597
311 2 10.7436 8.23457 14.7087
356 2 1.79144 12.3021 12.9184
313 2 11.0163 7.48553 12.9144
337 2 1.42905 13.3578 14.4607
339 1 11.5654 7.97149 16.9821
257 3 6.44634 12.2035 17.467
343 1 7.29772 10.045 15.7377
344 2 8.29441 9.66246 15.4052
345 2 6.85889 10.653 14.9562
346 2 6.55749 9.2266 16.0387
351 2 4.5296 13.1739 11.6053
113 2 6.46432 11.4072 8.8268
41 4 5.31974 12.7598 8.87732
342 2 7.83378 7.58566 16.7434
263 3 1.79894 10.9968 10.659
341 2 9.25926 7.21809 15.5662
90 2 9.57962 12.125 10.2758
323 2 7.8801 13.3849 15.8886
ITEM: TIMESTEP
100
ITEM: NUMBER OF ATOMS
362
ITEM: BOX BOUNDS xy xz yz pp pp pp
-8.3819999999999997e+00 1.7202700000000000e+01 -8.3819999999999997e+00
0.0000000000000000e+00 1.3606467000000000e+01 3.0499999999999999e-02
0.0000000000000000e+00 1.7586700000000000e+01 4.7856700000000002e-01
ITEM: ATOMS id type x y z
204 3 7.89782 1.08346 6.52687
2 4 -0.589611 2.79336 5.20886
5 4 2.41094 2.28853 6.41985
7 4 -0.0151656 3.6285 2.11511
14 4 4.66948 2.59626 4.37423
88 2 -0.303159 2.28768 1.04084
210 3 5.04964 3.28132 8.62788
60 1 -0.831979 4.3777 6.27582
61 1 2.05308 3.53086 7.73884
25 4 5.71267 4.44985 7.8912
69 1 0.558584 5.42608 1.74462
87 2 -0.798774 5.22699 1.63796
23 4 3.02086 6.5295 4.20079
93 2 3.68971 4.96802 3.8425
283 4 -3.02262 5.69376 8.25225
116 2 1.73379 1.12056 2.94338
117 2 -1.89589 3.96418 6.68042
118 2 -0.964852 5.29759 5.63048
119 2 0.00425755 4.45631 7.0981
120 2 0.872993 3.64527 7.82404
121 2 2.49923 4.46983 7.25311
70 1 1.18383 6.58713 4.69243
201 3 7.52766 0.889002 1.12771
95 2 5.94111 3.62439 6.45552
142 2 0.933409 6.199 0.950616
143 2 1.7847 4.03769 1.75249
144 2 0.794977 5.85304 2.8481
147 2 1.00611 5.39871 4.63404
350 2 4.3305 5.21222 0.463717
191 3 0.827984 2.0456 5.83286
192 3 2.996 0.7551 7.25222
194 3 -0.280137 3.24793 3.60634
199 3 4.46722 1.21527 3.63186
200 3 3.43645 2.93433 5.37671
59 1 2.08523 0.154736 2.49154
203 3 6.34917 2.68214 5.20816
208 3 4.70656 3.78879 3.37386
62 1 -3.16896 6.00415 4.69616
212 3 4.59532 5.49974 7.79804
287 2 -1.99716 5.85975 6.93622
149 2 4.70802 5.71975 1.9942
129 2 -1.2875 6.48112 0.525612
124 2 -3.53731 6.10964 5.77227
115 2 2.27251 0.311013 1.36981
6 4 0.210167 1.25731 12.0077
9 4 0.877109 4.26421 13.2002
17 4 4.70334 2.50053 9.96395
20 4 4.80919 3.18863 16.4804
324 2 -0.589415 2.2624 16.3438
91 2 3.43156 3.39012 17.2711
28 4 0.922255 6.3267 15.4516
29 4 4.05752 6.58148 11.7798
63 1 -0.090689 5.34278 12.0226
67 1 3.32143 3.68182 10.952
68 1 1.19252 1.01064 10.4168
89 2 2.54397 4.42323 12.5912
328 2 2.88686 1.716 14.7986
92 2 4.43143 1.67679 15.752
205 3 6.0172 3.08335 17.471
98 2 -0.377775 6.59021 16.6314
99 2 3.69812 5.55847 10.449
126 2 -0.946633 4.66489 11.6675
127 2 0.575994 5.62388 11.1257
128 2 -0.452603 6.1705 12.7526
136 2 2.86121 2.70844 11.5358
137 2 2.73183 4.13439 10.089
138 2 4.05208 4.28311 11.5941
139 2 1.48121 2.1171 10.2597
140 2 0.703082 0.562281 9.40664
86 2 -1.04902 2.99228 9.39076
195 3 0.579627 2.85892 12.7743
202 3 4.02688 0.957086 9.7255
322 2 0.070429 1.32236 14.8668
206 3 6.03965 2.49537 10.852
207 3 7.62624 1.11 12.0618
213 3 5.04405 4.18534 15.3129
214 3 0.717964 4.80794 14.8389
215 3 2.1904 6.52155 16.3868
216 3 4.82676 5.82401 12.8611
353 2 6.77063 0.884876 9.09432
297 2 -2.0932 6.68877 14.8225
299 2 -3.01035 6.66222 17.2871
348 2 -1.86064 5.16531 9.37897
326 2 4.53312 1.59633 13.4191
325 1 3.92376 0.791943 14.0851
296 4 -3.16538 5.90998 15.7784
24 4 3.63314 6.97086 17.1389
280 2 -1.41886 2.66667 14.118
141 2 2.05347 0.320719 10.791
122 2 2.42749 3.33579 8.87077
349 2 -4.66524 11.5957 8.62417
1 4 -4.50533 12.9689 3.0375
10 4 -2.36729 8.51741 1.43928
11 4 -3.84068 11.1044 0.3539
101 2 1.0839 9.76496 0.369975
289 2 -3.36126 11.2324 7.35405
318 2 -3.22693 11.6474 5.03936
317 1 -4.24086 11.6914 4.55307
31 4 -1.07925 10.4923 3.21592
33 4 2.1793 9.04791 8.06124
34 4 0.706425 10.5594 5.86061
157 2 1.9539 10.283 3.21354
26 4 4.20283 6.96052 7.11595
13 4 0.302797 12.7887 1.5804
74 1 2.03404 9.86109 2.13658
100 2 -2.68162 10.9499 3.54286
319 2 -4.53229 10.6964 4.12832
295 3 -3.64176 7.11091 8.61689
290 2 -2.83919 9.52911 7.21719
16 4 0.201271 13.2779 7.69319
288 2 -5.14928 9.82802 8.11984
277 3 -5.28406 10.725 0.0996078
145 2 0.632886 7.16287 3.84192
146 2 0.962751 7.01362 5.77974
114 2 -6.99325 12.3714 2.70286
158 2 1.21968 9.15444 1.85958
196 3 -3.34816 7.42637 2.2655
197 3 -3.17646 9.67202 0.815384
198 3 -3.78599 12.2134 1.68066
320 2 -5.03377 11.9669 5.31348
217 3 3.32865 7.47096 3.02504
3 4 -4.3651 13.2779 8.35915
219 3 -1.14613 9.09809 2.4669
220 3 -0.361454 11.6131 2.41637
221 3 3.12498 7.75688 8.02134
222 3 -0.442668 10.1736 4.67328
223 3 1.28189 9.2131 6.67626
224 3 0.272644 11.6284 7.01844
285 1 -3.38958 10.2521 7.9177
211 3 3.71739 6.90426 5.6079
347 2 -2.7073 13.235 7.95733
183 2 -7.61453 12.2795 6.51275
125 2 -2.29023 6.74911 4.54592
19 4 -0.575981 12.8658 12.9244
32 4 0.723822 11.451 16.8318
35 4 1.90603 8.36642 13.4445
36 4 -1.93743 11.7961 15.5268
37 4 0.509346 10.3453 11.4831
75 1 -0.515649 9.18203 10.2565
135 2 -0.585776 12.8128 10.1114
130 2 -0.619198 8.67147 17.4734
103 2 -2.62795 10.4538 14.7331
294 2 -4.98552 8.92452 11.1433
160 2 -0.0935012 8.1723 10.5176
161 2 -0.28165 9.67045 9.27816
162 2 -1.69971 9.21214 10.5247
225 3 0.955388 7.49189 14.3824
226 3 2.8058 7.23656 12.3316
227 3 -0.739257 11.1617 16.3727
228 3 -1.47153 12.7619 14.3054
229 3 -3.09079 12.2497 16.587
230 3 1.04214 9.35014 12.5925
231 3 -0.489521 11.51 11.9579
66 1 -1.10048 12.9793 9.09181
102 2 1.06005 8.50136 9.27076
272 4 -6.18627 12.9846 14.0993
273 4 -6.45132 11.0658 16.6554
274 2 -4.81227 12.5064 13.0022
131 2 -1.92264 7.76153 16.5006
327 2 -3.78727 13.3957 14.8103
278 3 -6.25877 11.9209 15.309
284 4 -4.06799 8.69954 9.15161
286 1 -3.77758 9.04309 10.9448
292 2 -3.30663 9.9103 11.4831
293 2 -3.05464 8.08569 11.124
64 1 -1.47873 7.90082 17.5376
276 3 -7.34906 13.3406 13.1184
291 2 -2.56313 10.2664 9.09367
134 2 -1.8386 12.1486 8.81528
15 4 7.28743 2.43075 0.688935
18 4 7.948 2.36433 5.66486
22 4 6.4706 4.51867 2.82676
107 2 9.75448 4.83769 8.65779
39 4 10.2743 1.76672 3.15539
45 4 11.5695 3.98346 1.51046
354 2 14.2264 2.45908 5.45878
48 4 12.0202 3.53589 7.51008
166 2 12.1705 0.37204 3.50914
71 1 5.87859 5.78995 1.54182
76 1 15.0427 1.62305 5.44711
77 1 11.9272 1.27912 4.11411
80 1 11.7109 4.10693 5.77713
94 2 8.46804 3.67487 6.61041
331 2 16.275 0.6012 0.376939
106 2 12.6665 1.94008 7.54645
246 3 10.5941 3.4815 8.39458
109 2 11.5538 5.94747 6.43909
150 2 6.12191 5.36053 0.514761
335 2 12.7469 0.754994 6.34625
164 2 14.797 0.793378 4.65883
165 2 12.5365 2.14393 3.78977
167 2 11.9075 1.11255 5.25496
174 2 10.6309 4.56831 5.82986
175 2 11.7787 2.99867 5.13443
176 2 12.5064 4.84418 5.35144
163 2 15.2266 1.22563 6.51197
209 3 7.25705 3.38592 2.07109
232 3 9.89188 0.403896 2.48522
233 3 9.08614 2.27096 4.50801
123 2 14.1206 4.83113 4.28115
236 3 9.86246 0.742764 8.33554
241 3 10.7011 2.97327 2.30813
242 3 12.6084 3.2276 0.518216
243 3 12.4256 5.0824 2.56093
244 3 7.15457 5.42189 3.98548
245 3 10.6081 5.0004 0.687869
234 3 12.7577 0.470379 0.268806
247 3 13.1128 4.52317 8.03414
248 3 7.14052 5.12688 8.44774
250 3 9.36516 6.35299 5.17435
329 1 15.4866 0.93322 1.10048
330 2 14.9644 1.87129 0.813923
332 2 15.8134 0.886856 2.24774
8 4 12.8209 6.50039 3.26483
47 4 10.025 6.50345 0.143208
235 3 14.6508 0.895016 8.78208
4 4 15.0535 1.84888 10.0803
21 4 7.56826 2.42562 11.1811
40 4 12.4315 2.33781 17.0441
42 4 9.92613 2.09649 9.54017
44 4 12.3407 2.96828 11.1101
73 1 7.68012 5.17588 13.5271
79 1 8.49041 6.44154 10.6376
298 2 14.5855 4.39565 16.1535
96 2 7.98121 3.77962 12.2019
104 2 11.8513 4.58129 10.3
110 2 12.5365 3.27438 12.8146
321 1 16.3604 1.46148 15.585
154 2 7.93352 5.69938 12.5399
155 2 8.59579 4.90999 14.1617
156 2 6.9744 6.34891 14.6083
171 2 9.1306 5.53751 10.9546
172 2 7.35691 6.21701 10.8117
193 3 15.8982 1.23626 11.3309
237 3 8.5159 2.57582 9.88671
27 4 5.66152 5.08398 13.987
239 3 13.7559 2.60005 10.5512
240 3 10.9606 1.84062 10.7414
279 4 14.5757 1.61497 14.9067
340 1 8.62043 6.84356 16.5718
281 3 13.5388 2.35631 15.9085
97 2 6.61942 3.74405 13.2845
338 2 9.83194 1.19348 12.853
300 4 9.69805 3.24393 16.1438
301 4 11.1731 5.65865 14.3286
302 1 8.47067 2.48858 14.972
303 1 12.1541 5.05868 12.0455
305 2 8.99109 1.65303 14.2945
306 2 8.1521 3.47128 14.3472
307 2 7.61352 2.06083 15.6627
308 2 11.3956 4.49034 12.8965
309 2 13.2617 4.96362 12.4691
310 2 11.9937 6.14169 11.9484
314 3 10.9528 2.34236 16.3115
315 3 10.1566 4.81706 15.2091
316 3 12.6658 5.80566 15.087
360 2 8.38067 5.69317 16.8652
238 3 8.68164 3.39415 17.3881
49 4 8.45615 5.96422 8.79362
282 3 14.1205 0.462263 13.9284
341 2 9.11226 6.95939 15.5052
38 4 5.70816 12.6982 0.889597
261 3 2.96593 10.3372 8.55735
265 3 8.04594 9.50115 6.19088
50 4 10.76 7.15446 5.44808
51 4 8.65388 8.56593 2.16707
52 4 5.34965 10.8861 3.29998
54 4 9.23194 8.91177 7.23357
56 4 7.61045 10.7429 5.41115
78 1 5.81571 8.18288 7.29769
81 1 9.76303 9.94362 2.9408
82 1 2.22975 11.3915 4.99053
83 1 8.78909 12.2301 5.66905
105 2 6.87414 7.32873 5.87197
111 2 4.0812 11.3151 4.32365
112 2 7.10638 12.0126 6.58892
362 3 0.853924 12.3413 0.0633425
361 2 10.7815 9.61371 2.50793
159 2 2.28581 10.6321 1.35285
168 2 5.45923 8.81534 8.09057
180 2 2.91079 10.3771 5.09078
169 2 5.64265 8.66442 6.31015
170 2 6.9335 7.82261 7.57675
30 4 3.58064 8.6571 1.96129
178 2 9.72715 9.67196 4.04587
179 2 1.93363 11.6953 3.96451
355 2 4.30033 11.9307 6.84741
181 2 2.54749 12.2703 5.57819
182 2 9.28741 12.1195 4.62503
333 1 4.15609 13.1174 7.21604
177 2 9.31735 10.9166 2.59337
249 3 11.6789 7.3554 4.12689
251 3 7.88848 7.75558 3.45641
252 3 9.57764 7.64089 1.21345
253 3 4.84867 9.57453 2.49834
254 3 5.46307 12.1419 2.3261
256 3 7.58259 9.31494 1.09016
218 3 3.58414 8.00522 0.460013
258 3 8.57934 7.31168 8.04604
259 3 10.5761 8.45521 6.37963
260 3 9.5375 10.044 8.44006
264 3 6.59228 10.719 4.2221
148 2 6.28994 6.83622 1.68932
113 2 6.3063 11.2365 8.73539
41 4 5.33324 12.6862 8.70548
334 2 3.11918 13.2393 7.66975
46 4 7.90421 6.69589 4.57731
184 2 8.04014 13.219 5.5876
12 4 8.84541 10.631 9.83408
43 4 5.00292 12.5903 12.9838
53 4 7.7301 10.9635 17.5088
55 4 3.30326 10.8741 10.1175
57 4 3.10369 10.8233 14.8414
58 4 5.96449 10.2607 11.3541
65 1 9.55234 9.44507 11.0986
72 1 4.81885 7.61098 15.9026
84 1 4.39104 10.8128 16.2418
85 1 6.47546 8.61541 12.0992
275 2 10.6115 9.43401 16.2413
108 2 5.11721 7.63805 10.9137
132 2 8.92803 8.78778 11.8521
312 2 9.20444 7.16064 13.5171
336 1 1.31668 13.232 13.1718
153 2 4.81868 8.82414 15.9596
173 2 8.92186 7.50572 10.8469
185 2 5.51832 10.6361 15.967
186 2 4.00827 9.94633 16.9724
187 2 4.2211 11.9135 16.6972
188 2 6.90113 7.88583 11.324
189 2 5.6772 8.12527 12.758
190 2 7.30207 9 12.7599
352 2 10.2042 8.79816 10.4031
255 3 9.216 11.5879 17.4024
262 3 4.32942 12.5025 9.96393
133 2 10.2227 10.1564 11.6599
267 3 3.71737 11.9611 13.8355
268 3 1.77628 11.301 15.5742
269 3 7.24656 10.5831 9.89395
270 3 4.47599 9.87311 10.8211
271 3 5.98556 11.3974 12.5643
152 2 5.80113 7.06439 16.2921
357 2 11.425 8.0003 15.7038
304 1 10.248 7.28342 13.8902
311 2 10.315 8.07596 14.7289
356 2 1.78881 12.4883 12.5286
313 2 10.9697 7.57204 12.9764
337 2 1.53616 13.0671 14.2381
339 1 11.6167 7.86893 16.8496
257 3 6.52164 12.1307 17.4913
343 1 7.55192 10.2053 15.746
344 2 8.56053 9.86739 15.3988
345 2 6.99902 10.8204 14.9639
346 2 6.97449 9.26005 16.0472
351 2 4.43599 13.2922 11.6217
323 2 7.6298 13.4615 16.1173
359 2 11.71 8.84799 17.382
342 2 7.6955 7.48389 16.6945
263 3 1.92448 11.0057 10.9071
266 3 3.01484 9.27616 14.2393
358 2 12.5198 7.2281 17.0477
90 2 9.4725 12.2628 10.1001
151 2 4.39788 7.21658 14.9256
ITEM: TIMESTEP
200
ITEM: NUMBER OF ATOMS
362
ITEM: BOX BOUNDS xy xz yz pp pp pp
-8.3819999999999997e+00 1.7202700000000000e+01 -8.3819999999999997e+00
0.0000000000000000e+00 1.3606467000000000e+01 3.0499999999999999e-02
0.0000000000000000e+00 1.7586700000000000e+01 4.7856700000000002e-01
ITEM: ATOMS id type x y z
204 3 7.82339 1.06466 6.48071
2 4 -0.420021 2.76889 5.18605
5 4 2.44189 2.16481 6.42454
7 4 0.00934259 3.56241 2.06512
14 4 4.61305 2.59232 4.26258
88 2 -0.509161 2.39837 0.830093
210 3 5.12895 3.26148 8.63406
60 1 -0.717569 4.44724 6.16214
61 1 2.12364 3.46767 7.74077
25 4 5.75907 4.41328 7.75788
69 1 0.756396 5.28182 1.85914
87 2 -0.936147 5.18135 1.76368
23 4 3.03277 6.43433 4.30089
93 2 3.5472 4.90685 3.63233
283 4 -3.006 5.75939 8.23663
116 2 1.75572 1.11114 2.97293
117 2 -1.74654 4.15441 6.41222
118 2 -0.540306 5.32419 5.46646
119 2 -0.0345399 4.40343 7.10353
120 2 1.30916 4.27352 7.36949
121 2 3.12473 3.93095 7.85093
115 2 2.22702 0.0947548 1.37099
201 3 7.48303 0.968057 1.20277
95 2 5.96815 3.83738 6.22516
142 2 1.079 6.01644 1.14984
143 2 1.83522 3.90745 1.79815
144 2 0.934962 5.70552 2.91963
147 2 1.03531 5.44118 4.78113
350 2 4.41811 5.32994 0.523404
191 3 0.845867 2.05027 5.97386
192 3 3.19281 0.640694 7.19445
194 3 -0.213001 3.02769 3.57789
199 3 4.38367 1.21636 3.57987
200 3 3.49103 2.82275 5.4142
59 1 2.1555 0.122105 2.50309
203 3 6.35457 2.6977 5.05798
208 3 4.57522 3.76257 3.23047
62 1 -3.24815 5.8661 4.74531
212 3 4.90659 5.75025 7.7288
287 2 -1.95312 5.83364 6.86524
124 2 -3.52886 6.12159 5.83959
129 2 -1.3336 6.35375 0.524186
125 2 -2.16431 6.22874 4.31611
70 1 1.19807 6.62659 4.70299
353 2 6.5248 0.803735 8.78061
6 4 0.127765 1.07515 12.0594
9 4 1.00071 4.24189 13.2146
17 4 4.77789 2.62235 10.0001
20 4 4.82046 3.37837 16.4514
324 2 -0.376075 2.53918 15.7877
91 2 3.30201 3.72909 17.1541
28 4 1.06915 6.3549 15.5638
29 4 4.03868 6.63431 11.9162
63 1 0.0433956 5.46005 12.1607
67 1 3.434 3.61385 11.0646
68 1 1.24003 0.92669 10.4868
89 2 2.68528 4.00788 12.8428
328 2 2.80896 1.61609 14.869
92 2 4.41904 1.93579 15.691
205 3 5.91664 3.08507 17.5499
98 2 -0.260421 6.78963 16.5911
99 2 3.84915 5.55128 10.6476
126 2 -0.621511 4.86328 11.4783
127 2 0.988878 5.92019 11.6663
128 2 -0.464529 6.2366 12.7473
136 2 2.94303 2.69857 11.5173
137 2 2.72982 4.23866 10.3423
138 2 4.04938 4.28068 11.929
139 2 1.72023 1.93276 10.5478
140 2 0.609385 0.86737 9.6237
86 2 -0.918278 2.82993 9.3964
195 3 0.312969 2.6488 12.7128
202 3 4.14414 0.958555 9.64576
322 2 -0.153811 1.08299 14.5528
206 3 6.01316 2.76394 11.0506
207 3 7.70179 1.05478 12.0378
213 3 5.22188 4.39108 15.3222
214 3 0.831584 4.90197 14.7337
215 3 2.35907 6.4841 16.4091
216 3 4.78872 5.80855 12.9841
298 2 -2.32886 4.79418 16.3314
327 2 4.78992 0.721182 14.6851
299 2 -3.08183 6.79445 17.4996
348 2 -1.85908 5.11722 9.20657
326 2 4.16351 1.47107 13.1701
325 1 3.90744 0.938146 14.0402
296 4 -3.10383 6.23938 15.7888
122 2 1.82905 2.8968 8.85848
183 2 -7.59443 12.21 6.55966
1 4 -4.41812 12.9397 3.03043
10 4 -2.27786 8.48813 1.49556
11 4 -3.8327 11.1026 0.412004
101 2 1.02452 9.64108 0.347412
289 2 -4.28308 10.8828 7.10662
318 2 -3.63325 11.8054 5.34423
317 1 -4.43868 11.6108 4.56005
31 4 -1.1734 10.4731 3.41654
33 4 2.12133 8.94725 8.16254
34 4 0.685476 10.5297 6.0014
64 1 -1.50515 7.37687 0.175771
361 2 -6.44003 10.2155 2.02396
13 4 0.207946 12.8516 1.45712
74 1 1.97253 9.94823 2.07889
100 2 -2.87954 10.7611 3.77284
319 2 -4.37294 10.5827 4.12289
295 3 -3.65998 7.16262 8.75957
290 2 -3.00341 9.55359 7.24058
16 4 0.0378445 13.2092 7.50602
288 2 -5.42055 9.45391 8.2032
277 3 -5.3611 10.7446 0.234131
145 2 0.666912 7.18996 3.9013
146 2 1.25625 7.21714 5.69774
114 2 -6.80763 12.3641 2.9304
158 2 1.01459 9.3473 1.9478
196 3 -3.353 7.40508 2.36938
197 3 -2.96532 9.65894 0.758905
198 3 -3.71668 12.1095 1.74105
320 2 -5.42353 11.7725 5.03717
217 3 3.11249 7.56543 3.10325
3 4 -4.33025 13.2192 8.32523
219 3 -1.13645 9.07607 2.52469
220 3 -0.654303 11.6364 2.52122
221 3 3.10997 7.64949 8.0613
222 3 -0.397858 10.3576 4.80467
223 3 1.13152 9.26634 6.80994
224 3 0.310992 11.7454 6.90191
285 1 -3.73036 10.1919 7.83269
211 3 4.02376 6.85845 5.50565
347 2 -2.80537 12.9452 7.58982
291 2 -3.02092 10.7837 8.55233
134 2 -1.86301 11.9988 8.70282
362 3 0.802165 12.1888 0.120981
130 2 -0.507479 7.87486 0.0532116
19 4 -0.384327 12.8803 12.8994
32 4 0.771893 11.3773 16.8075
35 4 1.98889 8.30807 13.4155
36 4 -1.96983 11.7163 15.5786
37 4 0.524967 10.2974 11.5981
75 1 -0.515489 9.16998 10.3798
135 2 -0.727388 12.8493 9.86427
141 2 -6.29867 13.2541 10.5607
103 2 -2.62425 10.4272 14.7711
294 2 -5.06766 8.81706 11.2265
160 2 -0.0438108 8.13301 10.6818
161 2 -0.363089 9.43287 9.32752
162 2 -1.68649 9.18515 10.6857
225 3 0.982442 7.52012 14.4842
226 3 2.79065 7.36079 12.3226
227 3 -0.750623 11.058 16.3556
228 3 -1.39034 12.6927 14.5406
229 3 -3.09193 12.2829 16.5899
230 3 0.900964 9.28438 12.7137
231 3 -0.546041 11.5084 12.1477
66 1 -1.26185 12.9789 8.88809
102 2 1.11743 8.5103 9.52405
272 4 -6.12285 12.9989 14.1299
273 4 -6.44155 11.1887 16.6918
274 2 -4.65739 12.4234 13.1505
131 2 -2.6326 7.98914 16.4097
151 2 4.0634 7.15314 14.8045
278 3 -6.24703 12.05 15.383
284 4 -4.20832 8.59368 9.25001
286 1 -3.70784 8.93417 10.9375
292 2 -3.3275 10.0123 10.8265
293 2 -3.08272 8.06747 11.4889
276 3 -7.60543 13.1724 13.065
297 2 -2.01533 6.97859 14.6827
349 2 -4.68771 11.6373 8.79938
24 4 3.72647 7.02897 17.0173
263 3 1.8269 10.8724 10.7386
15 4 7.42591 2.492 0.811974
18 4 7.83579 2.31784 5.51246
22 4 6.40645 4.56411 2.84245
107 2 9.6503 4.92548 8.61335
39 4 10.1094 1.69943 3.19375
45 4 11.5387 4.02369 1.47586
354 2 14.5533 2.69049 5.65859
48 4 12.0535 3.47799 7.62888
166 2 11.9092 0.236074 3.50428
71 1 6.00972 5.93244 1.56513
76 1 15.2177 1.67745 5.54834
77 1 11.7902 1.16517 4.12968
80 1 11.6917 3.8113 5.83027
94 2 8.35714 3.58254 6.39466
331 2 16.2599 0.628074 0.892717
106 2 12.6877 1.81912 7.54237
246 3 10.6577 3.6464 8.5117
109 2 11.4759 5.79795 6.09651
150 2 6.19697 5.27937 0.588832
335 2 12.892 0.50825 6.18093
164 2 14.9075 1.06336 4.68176
165 2 12.4924 1.96964 3.81427
167 2 11.8621 0.931114 5.26772
174 2 10.5477 4.24462 5.90934
175 2 11.7277 2.8532 5.21602
176 2 12.5303 4.59931 5.45211
163 2 15.2388 1.06163 6.49208
209 3 7.28565 3.51042 2.07017
232 3 9.74598 0.406206 2.30377
233 3 8.98153 1.91754 4.33035
149 2 4.8894 6.17518 1.81457
236 3 10.0618 0.891861 8.39207
241 3 10.5941 3.02411 2.32069
242 3 12.4967 3.14638 0.517504
243 3 12.3399 5.07105 2.49337
244 3 7.18206 5.4425 3.88659
245 3 10.7581 5.18105 0.642573
234 3 12.8498 0.378981 0.181153
247 3 13.1053 4.64698 7.94076
248 3 7.17252 5.06888 8.14729
250 3 9.31987 6.36662 5.05326
329 1 15.3473 1.10823 1.31195
330 2 14.939 1.99758 0.763516
332 2 15.3678 1.23667 2.45675
8 4 12.9208 6.49834 3.28523
123 2 13.8476 4.78263 4.58795
49 4 8.28093 6.0257 8.68333
334 2 11.4997 0.303821 7.56851
4 4 15.1575 1.71164 10.0852
21 4 7.54725 2.32296 11.1709
40 4 12.4054 2.36581 17.08
42 4 9.85896 2.06319 9.34205
44 4 12.3598 3.11054 10.9606
73 1 7.68923 5.0792 13.3976
79 1 8.20497 6.55022 10.5737
280 2 15.5845 2.89794 14.0644
96 2 8.19396 3.7273 12.0245
104 2 12.0901 4.69687 10.1477
110 2 12.4718 3.2959 12.7355
321 1 16.3476 1.57593 15.3362
154 2 7.90697 5.63212 12.4154
155 2 8.58092 4.89039 14.0134
156 2 7.00898 6.26151 14.5685
171 2 8.81529 5.55713 10.8501
172 2 7.06055 6.47061 10.5941
193 3 15.782 0.953604 11.3272
237 3 8.38343 2.3232 9.83488
27 4 5.67162 5.03751 14.0272
239 3 13.798 2.60709 10.4549
240 3 11.0002 2.31377 10.6449
279 4 14.5269 1.77468 14.9126
340 1 8.6263 6.80907 16.598
281 3 13.6827 2.69758 15.8973
97 2 6.78231 3.67137 13.1805
338 2 10.1527 1.14786 12.9384
300 4 9.69581 3.17248 16.1541
301 4 11.0787 5.58579 14.3149
302 1 8.55432 2.39671 14.9102
303 1 12.3294 5.10865 12.0263