LAMMPS (2 Aug 2023 - Update 2)
  using 2 OpenMP thread(s) per MPI task
Reading data file ...
  triclinic box = (0 0 0) to (17.1722 13.1279 17.5867) with tilt (-8.382 0.0305 0.3027)
WARNING: Triclinic box skew is large. LAMMPS will run inefficiently. (src/domain.cpp:220)
  2 by 1 by 2 MPI processor grid
  reading atoms ...
  362 atoms
Finding 1-2 1-3 1-4 neighbors ...
  special bond factors lj:    0        0        0       
  special bond factors coul:  0        0        0       
     0 = max # of 1-2 neighbors
     0 = max # of 1-3 neighbors
     0 = max # of 1-4 neighbors
     1 = max # of special neighbors
  special bonds CPU = 0.000 seconds
  read_data CPU = 0.006 seconds
WARNING: Van der Waals parameters for element SI indicate inner wall+shielding, but earlier atoms indicate a different van der Waals method. This may cause division-by-zero errors. Keeping van der Waals setting for earlier atoms. (src/REAXFF/reaxff_ffield.cpp:251)
*****Minimization starts.*****

CITE-CITE-CITE-CITE-CITE-CITE-CITE-CITE-CITE-CITE-CITE-CITE-CITE

Your simulation uses code contributions which should be cited:
- pair reaxff command: doi:10.1016/j.parco.2011.08.005
- fix qeq/reaxff command: doi:10.1016/j.parco.2011.08.005
The log file lists these citations in BibTeX format.

CITE-CITE-CITE-CITE-CITE-CITE-CITE-CITE-CITE-CITE-CITE-CITE-CITE

Switching to 'neigh_modify every 1 delay 0 check yes' setting during minimization
WARNING: Fix qeq/reaxff group is not charge neutral, net charge = -7.38 (src/REAXFF/fix_qeq_reaxff.cpp:392)
Neighbor list info ...
  update: every = 1 steps, delay = 0 steps, check = yes
  max neighbors/atom: 2000, page size: 100000
  master list distance cutoff = 12
  ghost atom cutoff = 12
  binsize = 6, bins = 5 3 3
  2 neighbor lists, perpetual/occasional/extra = 2 0 0
  (1) pair reaxff, perpetual
      attributes: half, newton off, ghost
      pair build: half/bin/newtoff/ghost
      stencil: full/ghost/bin/3d
      bin: standard
  (2) fix qeq/reaxff, perpetual, copy from (1)
      attributes: half, newton off
      pair build: copy
      stencil: none
      bin: none
Setting up cg style minimization ...
  Unit style    : real
  Current step  : 0
Per MPI rank memory allocation (min/avg/max) = 160.9 | 162.1 | 163.5 Mbytes
   Step          Temp          Press         Density         Volume         PotEng         TotEng    
         0   0              179799.59      1.6616584      3964.6564     -32369.652     -32369.652    
        39   0             -3711.8956      1.6616584      3964.6564     -35236.953     -35236.953    
Loop time of 8.40913 on 8 procs for 39 steps with 362 atoms

86.2% CPU use with 4 MPI tasks x 2 OpenMP threads

Minimization stats:
  Stopping criterion = energy tolerance
  Energy initial, next-to-last, final = 
     -32369.6516123212  -35236.9335244483  -35236.9529117294
  Force two-norm initial, final = 4319.6543 194.41365
  Force max component initial, final = 572.55529 70.906701
  Final line search alpha, max atom move = 0.0038907978 0.27588364
  Iterations, force evaluations = 39 97

MPI task timing breakdown:
Section |  min time  |  avg time  |  max time  |%varavg| %total
---------------------------------------------------------------
Pair    | 4.7417     | 5.1332     | 5.3831     |  10.7 | 61.04
Bond    | 0.00028342 | 0.00029187 | 0.00029864 |   0.0 |  0.00
Neigh   | 0          | 0          | 0          |   0.0 |  0.00
Comm    | 0.93291    | 1.1951     | 1.603      |  23.1 | 14.21
Output  | 0.015034   | 0.032011   | 0.048344   |   6.7 |  0.38
Modify  | 1.8364     | 1.8364     | 1.8365     |   0.0 | 21.84
Other   |            | 0.2121     |            |       |  2.52

Nlocal:           90.5 ave          96 max          81 min
Histogram: 1 0 0 0 0 0 0 1 1 1
Nghost:        4079.25 ave        4110 max        4040 min
Histogram: 1 0 0 0 0 1 0 1 0 1
Neighs:        56049.2 ave       58901 max       50722 min
Histogram: 1 0 0 0 0 0 0 1 1 1

Total # of neighbors = 224197
Ave neighs/atom = 619.32873
Ave special neighs/atom = 0
Neighbor list builds = 0
Dangerous builds = 0
System init for write_data ...
##### Equilibration starts.##### 
WARNING: Compute rdf cutoff less than neighbor cutoff - forcing a needless neighbor list build (src/compute_rdf.cpp:179)
Neighbor list info ...
  update: every = 10 steps, delay = 0 steps, check = yes
  max neighbors/atom: 2000, page size: 100000
  master list distance cutoff = 12
  ghost atom cutoff = 12
  binsize = 6, bins = 5 3 3
  3 neighbor lists, perpetual/occasional/extra = 2 1 0
  (1) pair reaxff, perpetual
      attributes: half, newton off, ghost
      pair build: half/bin/newtoff/ghost
      stencil: full/ghost/bin/3d
      bin: standard
  (2) compute rdf, occasional
      attributes: half, newton on, cut 7
      pair build: half/bin/newton/tri
      stencil: half/bin/3d/tri
      bin: standard
  (3) fix qeq/reaxff, perpetual, copy from (1)
      attributes: half, newton off
      pair build: copy
      stencil: none
      bin: none
Setting up Verlet run ...
  Unit style    : real
  Current step  : 0
  Time step     : 0.5
Per MPI rank memory allocation (min/avg/max) = 165.4 | 167 | 168.7 Mbytes
   Step          Temp          Press          PotEng         TotEng    
         0   300            10.531065     -35236.953     -34914.131    
       100   203.26422      1036.2669     -35094.527     -34875.8      
       200   272.62764      188.03301     -35107.222     -34813.855    
       300   331.38261      11313.31      -35120.742     -34764.151    
       400   307.91679      8672.9216     -35114.733     -34783.392    
       500   324.16317      5525.6553     -35187.945     -34839.122    
       600   341.43043      4900.1687     -35278.123     -34910.719    
       700   347.7432       12678.657     -35352.722     -34978.525    
       800   302.872        9389.086      -35370.036     -35044.124    
       900   344.14062      4313.2613     -35478.364     -35108.044    
      1000   329.38589     -7557.8146     -35538.401     -35183.957    
      1100   320.128       -1873.8274     -35589.352     -35244.872    
      1200   315.69666      8328.546      -35628.454     -35288.742    
      1300   335.06532      10613.313     -35689.034     -35328.48     
      1400   305.59402      4080.7937     -35696.259     -35367.418    
      1500   278.8996      -1353.1328     -35689.65      -35389.534    
      1600   289.35439      12438.151     -35705.588     -35394.222    
      1700   304.78396     -3061.8662     -35719.662     -35391.692    
      1800   311.45703      5788.5743     -35731.426     -35396.275    
      1900   305.10458      4438.2441     -35736.612     -35408.298    
      2000   310.98828      5704.5049     -35776.457     -35441.811    
      2100   317.11177      8778.6142     -35814.129     -35472.894    
      2200   303.23378      7619.4753     -35839.297     -35512.995    
      2300   329.56058      10665.992     -35902.147     -35547.516    
      2400   294.05237      4353.242      -35898.02      -35581.599    
      2500   288.85734      14817.509     -35905.807     -35594.976    
      2600   278.80341      27203.45      -35912.373     -35612.36     
      2700   292.09626      2627.884      -35940.412     -35626.096    
      2800   305.72757     -4851.1883     -35963.366     -35634.381    
      2900   310.56051      14822.4       -35969.956     -35635.771    
      3000   328.45605      5679.9423     -35971.348     -35617.905    
      3100   315.80271      459.25796     -35964.205     -35624.379    
      3200   323.25929      5436.8179     -36014.829     -35666.978    
      3300   313.33162      9226.2406     -36028.74      -35691.573    
      3400   302.55961      3931.2137     -36047.528     -35721.952    
      3500   287.9569       13176.517     -36052.863     -35743        
      3600   301.43981     -7457.5011     -36076.247     -35751.876    
      3700   267.54923     -16430.848     -36063.076     -35775.174    
      3800   285.47716      8073.6961     -36086.506     -35779.312    
      3900   327.8071       4220.8826     -36093.375     -35740.631    
      4000   324.61979      11233.033     -36079.104     -35729.79     
      4100   330.93637      2231.1865     -36115.932     -35759.82     
      4200   338.53847     -11129.002     -36171.521     -35807.229    
      4300   338.20867     -5535.8007     -36222.712     -35858.775    
      4400   310.61367      11270.053     -36245.168     -35910.926    
      4500   302.36794      15401.044     -36273.183     -35947.813    
      4600   302.98455      4851.2443     -36296.177     -35970.144    
      4700   297.51021     -7812.1708     -36308.62      -35988.478    
      4800   307.74746     -7419.7534     -36349.874     -36018.715    
      4900   285.17945      2693.4415     -36334.027     -36027.154    
      5000   297.33202      579.51982     -36326.264     -36006.313    
      5100   303.24705      8405.154      -36321.425     -35995.109    
      5200   329.82712      5736.3689     -36318.015     -35963.097    
      5300   307.0877      -13477.617     -36280.754     -35950.306    
      5400   332.97396     -2595.9122     -36332.864     -35974.56     
      5500   303.21464      11067.07      -36333.597     -36007.316    
      5600   285.41431     -2905.9269     -36336.499     -36029.372    
      5700   298.55465     -3542.8215     -36365.184     -36043.917    
      5800   292.83833     -5866.7758     -36368.318     -36053.203    
      5900   289.3806      -5449.2424     -36359.769     -36048.375    
      6000   299.02804     -1464.0898     -36340.281     -36018.506    
      6100   324.19109      7393.887      -36349.57      -36000.717    
      6200   322.81419      9701.0322     -36354.865     -36007.494    
      6300   279.63931      16805.614     -36344.657     -36043.745    
      6400   290.35337     -1147.8158     -36370.563     -36058.122    
      6500   290.03693      10348.881     -36359.256     -36047.155    
      6600   282.38077      10416.809     -36335.962     -36032.1      
      6700   319.82709     -3276.8108     -36354.231     -36010.074    
      6800   298.90084      3268.7921     -36344.331     -36022.693    
      6900   285.63855      6690.2789     -36368.016     -36060.648    
      7000   303.94109      9103.7366     -36378.287     -36051.224    
      7100   297.16931      3449.8252     -36353.959     -36034.183    
      7200   306.59857      10819.082     -36351.683     -36021.76     
      7300   304.44075      4392.0894     -36370.829     -36043.228    
      7400   300.34015      4178.6975     -36406.668     -36083.48     
      7500   300.7497      -4667.7749     -36416.859     -36093.231    
      7600   293.02854      9037.8884     -36408.876     -36093.556    
      7700   309.11409      16761.073     -36404.184     -36071.554    
      7800   329.05773     -1394.5172     -36410.8       -36056.71     
      7900   325.01978      447.10063     -36432.851     -36083.106    
      8000   319.16392      2773.1016     -36446.024     -36102.581    
      8100   301.05004      5781.4759     -36456.521     -36132.569    
      8200   281.7759       2769.8996     -36458.129     -36154.917    
      8300   289.80887      7103.5054     -36473.167     -36161.312    
      8400   292.39127      5855.6992     -36470.698     -36156.064    
      8500   345.96022      13630.313     -36496.911     -36124.633    
      8600   335.22516      18744.548     -36518.997     -36158.27     
      8700   301.21951      21194.456     -36519.284     -36195.15     
      8800   314.53498     -1655.8409     -36571.874     -36233.411    
      8900   354.51508      14544.907     -36659.227     -36277.743    
      9000   309.51662     -2902.7747     -36649.687     -36316.625    
      9100   298.43012     -1102.4304     -36662.692     -36341.56     
      9200   298.81631      11828.526     -36679.539     -36357.991    
      9300   302.80998      236.77939     -36670.146     -36344.301    
      9400   283.79615      8196.1886     -36628.259     -36322.874    
      9500   318.18177      11323.935     -36654.795     -36312.408    
      9600   324.02528      13214.463     -36668.297     -36319.622    
      9700   279.64971      1684.717      -36656.355     -36355.431    
      9800   299.08331     -4666.1255     -36691.221     -36369.386    
      9900   284.84312      14293.666     -36656.243     -36349.731    
     10000   311.00186     -2154.1305     -36661.178     -36326.517    
     10100   320.40215      5042.5991     -36667.97      -36323.194    
     10200   297.75052      7498.5527     -36658.291     -36337.89     
     10300   300.44174      12645.259     -36673.346     -36350.049    
     10400   329.85164     -533.06973     -36704.717     -36349.772    
     10500   268.93425     -3063.9875     -36635.169     -36345.776    
     10600   328.20448      3671.5173     -36686.443     -36333.271    
     10700   317.41192     -3849.4105     -36646.875     -36305.317    
     10800   291.91457      14165.727     -36628.993     -36314.872    
     10900   294.9605       11522.883     -36661.839     -36344.44     
     11000   285.42183     -7301.2829     -36652.341     -36345.206    
     11100   314.40829      2406.9227     -36679.205     -36340.879    
     11200   302.31991      1086.706      -36642.381     -36317.063    
     11300   306.30487      20983.779     -36625.334     -36295.728    
     11400   346.69861      13395.096     -36690.411     -36317.338    
     11500   296.67186      3399.2548     -36669.784     -36350.544    
     11600   312.71619     -5048.3147     -36709.29      -36372.785    
     11700   282.54313     -2277.316      -36699.107     -36395.07     
     11800   305.67319      6928.7011     -36742.015     -36413.088    
     11900   291.78145      1213.0702     -36720.177     -36406.199    
     12000   316.88172      11854.756     -36731.699     -36390.711    
     12100   309.16981      18042.464     -36698.387     -36365.697    
     12200   326.86369      7096.7983     -36728.228     -36376.499    
     12300   295.75962      11460.765     -36733.381     -36415.122    
     12400   256.76763      18412.367     -36700.425     -36424.124    
     12500   314.09607      12327.256     -36759.631     -36421.641    
     12600   283.56945      12591.51      -36702.674     -36397.533    
     12700   310.35419      9857.9616     -36720.059     -36386.096    
     12800   333.60965      1208.8064     -36770.772     -36411.784    
     12900   271.10851     -4494.1296     -36729.626     -36437.894    
     13000   291.8371       12117.078     -36744.237     -36430.199    
     13100   310.7616       13103.614     -36745.547     -36411.145    
     13200   300.51202      16978.877     -36722.185     -36398.813    
     13300   360.61024      17505.415     -36797.891     -36409.848    
     13400   291.1505      -3540.2617     -36774.962     -36461.663    
     13500   294.46128     -5311.1822     -36788.334     -36471.472    
     13600   319.15377      1637.1075     -36825.425     -36481.993    
     13700   290.83741      5062.884      -36808.166     -36495.204    
     13800   321.98446     -12603.983     -36837.154     -36490.675    
     13900   304.17775     -7379.4601     -36789.692     -36462.375    
     14000   305.24077      11505.468     -36776.788     -36448.326    
     14100   327.144        11970.045     -36817.218     -36465.188    
     14200   303.8901       10341.941     -36832.346     -36505.338    
     14300   275.10188      1807.6617     -36815.471     -36519.441    
     14400   290.90852      10063.945     -36825.984     -36512.945    
     14500   318.36535      24775.883     -36838.391     -36495.807    
     14600   314.00049      21331.212     -36835.701     -36497.814    
     14700   321.30413      4124.7313     -36882.268     -36536.521    
     14800   290.21026     -2609.4766     -36861.514     -36549.227    
     14900   306.53628     -6208.9523     -36860.052     -36530.197    
     15000   310.04547      410.14328     -36851.492     -36517.861    
     15100   295.30422      1216.0878     -36851.758     -36533.989    
     15200   296.02734     -1838.6675     -36891.358     -36572.811    
     15300   292.27591      2659.142      -36890.144     -36575.634    
     15400   314.72638      1436.1772     -36915.177     -36576.508    
     15500   297.13486     -1787.2963     -36912.08      -36592.342    
     15600   309.9038      -542.6645      -36940.435     -36606.956    
     15700   288.36508      15384.955     -36924.112     -36613.81     
     15800   304.54865      11503.37      -36914.352     -36586.636    
     15900   314.09419      8091.6737     -36906.538     -36568.55     
     16000   310.77224      19028.695     -36918.378     -36583.965    
     16100   288.56696      5411.1099     -36916.771     -36606.252    
     16200   307.0546       5808.4878     -36936.833     -36606.42     
     16300   303.63856      8739.9752     -36908.695     -36581.958    
     16400   339.25767      4605.3152     -36906.339     -36541.274    
     16500   303.59344      1694.1871     -36880.389     -36553.7      
     16600   309.78248      14928.767     -36916.607     -36583.259    
     16700   291.56714     -897.24999     -36918.729     -36604.982    
     16800   303.29543     -3777.2707     -36945.884     -36619.516    
     16900   304.38753      5844.932      -36961.728     -36634.185    
     17000   299.65987      5446.5631     -36952.097     -36629.641    
     17100   320.56091      13624.02      -36934.982     -36590.035    
     17200   313.77539      5459.9277     -36929.206     -36591.561    
     17300   323.69056      742.75452     -36960.907     -36612.592    
     17400   301.85364     -10257.604     -36959.461     -36634.645    
     17500   290.63214     -8122.5541     -36952.384     -36639.643    
     17600   288.41108      8532.7518     -36945.886     -36635.535    
     17700   313.8504      -2960.4675     -36963.259     -36625.533    
     17800   287.51763      14620.764     -36927.96      -36618.57     
     17900   299.72623      9134.518      -36929.799     -36607.272    
     18000   297.63306      1041.9683     -36911.135     -36590.86     
     18100   318.56195     -1387.7059     -36953.747     -36610.952    
     18200   287.28543      5477.2693     -36952.46      -36643.32     
     18300   286.79267     -2610.9953     -36960.185     -36651.575    
     18400   283.3234       9408.5648     -36953.705     -36648.828    
     18500   318.06459      3513.2457     -36955.668     -36613.408    
     18600   305.67808      8853.8476     -36945.58      -36616.648    
     18700   312.67489      2854.6934     -36970.088     -36633.627    
     18800   284.02685      5768.7478     -36949.206     -36643.572    
     18900   304.68902      6747.1386     -36964.018     -36636.15     
     19000   316.83649      6519.0013     -36941.662     -36600.723    
     19100   321.48328      5543.7744     -36946.499     -36600.559    
     19200   280.0972       4887.3883     -36933.105     -36631.7      
     19300   282.51133     -387.981       -36947.477     -36643.474    
     19400   302.30658      6064.4851     -36975.694     -36650.39     
     19500   293.12144      8457.8944     -36988.324     -36672.904    
     19600   296.82567      3433.2168     -37017.729     -36698.323    
     19700   278.34549      10753.54      -37020.85      -36721.33     
     19800   301.14363      4800.9436     -37018.528     -36694.476    
     19900   278.18588      9925.4813     -36963.85      -36664.502    
     20000   309.04013      500.4899      -36976.767     -36644.217    
     20100   290.68229      10599.595     -36953.96      -36641.165    
     20200   307.21949      3837.9663     -36994.986     -36664.396    
     20300   296.99702     -804.87738     -37003.264     -36683.673    
     20400   294.70784      16501.582     -36998.139     -36681.012    
     20500   341.44847     -1398.9601     -37003.329     -36635.905    
     20600   325.80133     -2445.9525     -36994.673     -36644.088    
     20700   292.75361     -15956.179     -36987.439     -36672.415    
     20800   288.7839       9772.8148     -36988.284     -36677.531    
     20900   292.15212      11476.752     -36981.251     -36666.875    
     21000   315.79996     -449.67839     -36982.276     -36642.452    
     21100   334.54289      1284.298      -36980.827     -36620.835    
     21200   306.64852      4295.9091     -36984.086     -36654.11     
     21300   311.14417      362.04104     -37013.14      -36678.327    
     21400   291.39289      510.51495     -36991.951     -36678.391    
     21500   294.08746     -1879.0755     -36995.362     -36678.903    
     21600   293.82014      2812.0798     -36998.691     -36682.52     
     21700   309.06413      12940.037     -37013.134     -36680.559    
     21800   318.64332      7484.4516     -37014.985     -36672.101    
     21900   292.28388      11651.393     -36999.543     -36685.024    
     22000   265.55064     -2887.2204     -36993.744     -36707.992    
     22100   276.93593      11579.421     -37007.612     -36709.609    
     22200   321.62434     -4749.5338     -37017.381     -36671.29     
     22300   322.59321      9591.5834     -37015.035     -36667.902    
     22400   293.44708     -1000.6529     -36999.432     -36683.662    
     22500   297.60294     -4032.0056     -37017.046     -36696.804    
     22600   285.32699      12923.807     -37019.207     -36712.174    
     22700   291.34989      11138.691     -37044.328     -36730.815    
     22800   279.29971     -4118.24       -37042.291     -36741.744    
     22900   292.99543      438.08475     -37026.784     -36711.5      
     23000   281.9625       2335.894      -37000.465     -36697.053    
     23100   319.37492     -3910.2692     -37030.474     -36686.803    
     23200   322.49834      3114.6566     -37035.989     -36688.958    
     23300   306.3667      -2262.1306     -37057.734     -36728.061    
     23400   283.58787      6228.8438     -37041.971     -36736.81     
     23500   283.62365      1480.8309     -37030.456     -36725.257    
     23600   309.49476      15482.491     -37037.8       -36704.761    
     23700   316.99302      4593.6413     -37035.904     -36694.797    
     23800   290.24755     -4509.6515     -37012.044     -36699.717    
     23900   298.14617     -2643.9067     -37058.207     -36737.38     
     24000   281.92393     -13471.947     -37038.406     -36735.036    
     24100   297.56189      5528.6177     -37028.146     -36707.948    
     24200   312.75115      5029.6075     -37029.805     -36693.262    
     24300   316.93266      1862.2976     -37033.235     -36692.193    
     24400   275.87334      6190.6179     -37014.756     -36717.897    
     24500   296.14028      14201.935     -37062.332     -36743.663    
     24600   291.14979      7813.4869     -37041.618     -36728.32     
     24700   282.14702      5045.5542     -37014.166     -36710.555    
     24800   322.68833      1996.9203     -37052.518     -36705.282    
     24900   286.76973      6347.2145     -37024.489     -36715.904    
     25000   292.26007     -3038.9245     -37046.304     -36731.811    
     25100   308.42839      3557.6906     -37107.008     -36775.117    
     25200   269.96431      3850.3542     -37077.991     -36787.49     
     25300   286.35271      5115.5452     -37070.358     -36762.222    
     25400   319.54504      4775.832      -37087.44      -36743.586    
     25500   277.83554      8007.2882     -37044.57      -36745.599    
     25600   314.79141      6267.5029     -37078.267     -36739.528    
     25700   326.61242     -3627.003      -37068.167     -36716.708    
     25800   307.86052      2639.5149     -37047.914     -36716.634    
     25900   300.82035     -2423.7419     -37075.362     -36751.657    
     26000   285.18788     -17204.057     -37071.358     -36764.475    
     26100   300.54565     -5822.1917     -37090.868     -36767.459    
     26200   311.95549     -6243.672      -37095.541     -36759.854    
     26300   307.40431      2651.4611     -37057.663     -36726.874    
     26400   319.54858      7615.3744     -37065.397     -36721.54     
     26500   307.18588      8428.6192     -37080.258     -36749.703    
     26600   290.12238      7212.2097     -37072.167     -36759.974    
     26700   303.94425      12359.691     -37085.132     -36758.066    
     26800   293.17008      3762.4318     -37063.074     -36747.602    
     26900   301.51575      5967.638      -37050.992     -36726.539    
     27000   339.7055       5989.0907     -37078.531     -36712.983    
     27100   302.36612      6703.1129     -37062.255     -36736.887    
     27200   295.11347      7593.7735     -37082.533     -36764.97     
     27300   276.84553      4713.3295     -37060.935     -36763.029    
     27400   325.41743      6420.6054     -37089.796     -36739.624    
     27500   301.02683     -4718.3072     -37056.157     -36732.23     
     27600   285.21265     -12224.869     -37041.268     -36734.358    
     27700   315.87726     -10210.446     -37079.991     -36740.084    
     27800   302.05162      4924.6958     -37077.538     -36752.509    
     27900   292.53578      5203.3918     -37078.749     -36763.959    
     28000   300.14378     -4032.3865     -37095.137     -36772.16     
     28100   267.99845      3482.6919     -37057.389     -36769.003    
     28200   311.94314      8375.8948     -37081.229     -36745.556    
     28300   299.64996     -1451.5764     -37059.317     -36736.872    
     28400   322.63148     -6059.5469     -37087.625     -36740.45     
     28500   296.41495     -4245.3367     -37083.919     -36764.955    
     28600   281.39669      2957.7587     -37086.55      -36783.746    
     28700   300.77531     -1709.9203     -37091.166     -36767.51     
     28800   289.71618      4581.0367     -37055.113     -36743.357    
     28900   315.15317      1381.6302     -37083.768     -36744.64     
     29000   301.2523       16744.914     -37076.687     -36752.517    
     29100   293.48883      1922.7553     -37073.058     -36757.242    
     29200   306.64509      1874.75       -37094.742     -36764.77     
     29300   280.90423      3971.3506     -37072.205     -36769.932    
     29400   321.02909      2874.9112     -37102.982     -36757.532    
     29500   302.96978      11593.805     -37057.002     -36730.984    
     29600   322.62396     -1396.6767     -37079.006     -36731.839    
     29700   283.67892     -1462.4839     -37070.041     -36764.781    
     29800   277.48039     -1580.4031     -37070.102     -36771.513    
     29900   300.41137     -4531.5251     -37083.08      -36759.815    
     30000   303.92113      1640.4073     -37072.116     -36745.075    
     30100   319.20778      4428.47       -37075.264     -36731.773    
     30200   304.33718      17159.387     -37038.817     -36711.328    
     30300   335.2634       20119.97      -37062.745     -36701.977    
     30400   308.2186       5347.2432     -37066.346     -36734.681    
     30500   276.56694      3274.9671     -37058.841     -36761.235    
     30600   289.39173      2295.5564     -37070.904     -36759.498    
     30700   310.38581      5250.9555     -37080.556     -36746.559    
     30800   310.04208      13451.005     -37078.221     -36744.593    
     30900   305.10155      5114.3628     -37065.29      -36736.979    
     31000   308.43998      1010.9803     -37063.574     -36731.67     
     31100   310.59147     -225.13372     -37081.514     -36747.295    
     31200   295.84846     -572.76191     -37091.629     -36773.274    
     31300   297.09889      10623.667     -37089.819     -36770.119    
     31400   303.03752      11303.331     -37076.108     -36750.018    
     31500   309.01793      8362.144      -37078.319     -36745.793    
     31600   307.02637      2974.7655     -37076.318     -36745.935    
     31700   303.20261      822.5781      -37078.64      -36752.372    
     31800   295.01949     -12429.75      -37079.711     -36762.248    
     31900   265.28434     -9663.9315     -37058.427     -36772.962    
     32000   302.63964     -11031.914     -37098.842     -36773.18     
     32100   282.52647     -3438.9763     -37070.317     -36766.298    
     32200   330.21013      4093.3736     -37103.659     -36748.329    
     32300   300.4109       8895.2254     -37079.347     -36756.083    
     32400   303.39784     -2192.4236     -37110.871     -36784.393    
     32500   286.33352     -3224.3999     -37096.482     -36788.366    
     32600   314.65893     -12795.391     -37100.355     -36761.759    
     32700   309.31353     -811.44906     -37056.744     -36723.9      
     32800   318.20841      20266.28      -37075.454     -36733.038    
     32900   315.95494      2174.8675     -37103.924     -36763.934    
     33000   283.08786      733.7491      -37091.151     -36786.528    
     33100   306.24486     -3947.3382     -37120.228     -36790.687    
     33200   293.88786      6716.6155     -37086.357     -36770.112    
     33300   328.48937      18652.761     -37105.472     -36751.993    
     33400   311.44549      2148.5155     -37105.336     -36770.198    
     33500   295.0063      -3659.5721     -37096.145     -36778.697    
     33600   303.34049      1292.6952     -37104.849     -36778.433    
     33700   305.53325     -4915.441      -37112.17      -36783.394    
     33800   273.64439      2341.1899     -37086.048     -36791.587    
     33900   305.35626      4975.6251     -37106.673     -36778.088    
     34000   273.24078      2630.4742     -37049.331     -36755.304    
     34100   326.37851     -11308.848     -37097.5       -36746.293    
     34200   297.23794     -182.72247     -37084.731     -36764.881    
     34300   279.09882      10710.019     -37097.755     -36797.425    
     34400   311.86226      4998.6153     -37131.002     -36795.416    
     34500   275.838        6979.8098     -37078.363     -36781.541    
     34600   307.27551      13599.026     -37087.687     -36757.036    
     34700   320.92932      1624.1462     -37074.506     -36729.163    
     34800   317.79937      2277.1978     -37080.053     -36738.078    
     34900   311.10353      7361.7559     -37095.366     -36760.597    
     35000   283.93306      1239.9451     -37083.062     -36777.529    
     35100   317.40635      4412.3439     -37125.344     -36783.792    
     35200   286.61876      4320.5121     -37107.735     -36799.313    
     35300   288.7077      -5930.7128     -37126.937     -36816.266    
     35400   288.07852     -4354.8912     -37112.852     -36802.858    
     35500   289.98908     -10541.865     -37081.41      -36769.361    
     35600   308.06576      254.40092     -37090.977     -36759.476    
     35700   286.30684      4262.6637     -37076.276     -36768.189    
     35800   322.7251       7001.2705     -37135.454     -36788.178    
     35900   279.30831     -7487.2497     -37114.156     -36813.6      
     36000   285.46232     -14433.289     -37109.498     -36802.32     
     36100   302.16807     -4488.1321     -37093.396     -36768.241    
     36200   310.97599      9889.6114     -37098.417     -36763.784    
     36300   304.36606      17433.162     -37093.441     -36765.921    
     36400   283.36483      4600.2253     -37086.737     -36781.816    
     36500   287.7672      -12141.014     -37112.373     -36802.715    
     36600   280.1954      -3313.0606     -37097.689     -36796.179    
     36700   303.49688     -1559.306      -37081.777     -36755.192    
     36800   293.67063      5755.3112     -37071.282     -36755.271    
     36900   327.08839      7045.4566     -37119.998     -36768.027    
     37000   298.69601     -1436.3128     -37113.217     -36791.798    
     37100   293.18949     -5926.0919     -37114.175     -36798.682    
     37200   284.14215      1615.1314     -37091.931     -36786.174    
     37300   280.4309      -3325.0577     -37080.483     -36778.719    
     37400   301.79968      1042.315      -37087.258     -36762.5      
     37500   303.7768      -12057.596     -37079.523     -36752.637    
     37600   314.27507      9495.3664     -37088.823     -36750.64     
     37700   278.52558      9125.0589     -37087.661     -36787.947    
     37800   289.85852      13390.053     -37101.436     -36789.528    
     37900   289.0052       18179.078     -37080.475     -36769.484    
     38000   322.27983      2700.9038     -37106.852     -36760.056    
     38100   296.21829     -4717.1639     -37096.149     -36777.396    
     38200   289.23634     -4932.6518     -37121.203     -36809.964    
     38300   290.86282     -5068.3339     -37107.096     -36794.107    
     38400   327.90813     -5316.4482     -37127.648     -36774.795    
     38500   303.27238      1379.2689     -37098.373     -36772.03     
     38600   310.47353      3022.1483     -37118.795     -36784.703    
     38700   275.17921     -7469.3135     -37108.586     -36812.474    
     38800   279.78976      2283.1087     -37125.898     -36824.824    
     38900   290.26076     -9780.114      -37109.304     -36796.962    
     39000   299.51874     -19.399198     -37104.501     -36782.197    
     39100   336.99721      4359.4735     -37137.791     -36775.158    
     39200   285.76547     -114.70218     -37086.761     -36779.257    
     39300   297.65795      3812.6267     -37119.298     -36798.996    
     39400   288.05323     -2310.1841     -37125.848     -36815.882    
     39500   290.64786      849.37199     -37121.311     -36808.553    
     39600   287.88183      4443.2284     -37083.117     -36773.336    
     39700   303.38166      6459.4677     -37090.179     -36763.718    
     39800   326.81501      8370.052      -37117.983     -36766.306    
     39900   276.07073     -2376.6412     -37075.319     -36778.247    
     40000   303.27206     -2619.3318     -37113.478     -36787.135    
     40100   280.89044     -624.20503     -37093.022     -36790.764    
     40200   303.77501      10600.77      -37105.825     -36778.941    
     40300   305.27715     -770.05531     -37084.294     -36755.794    
     40400   313.8753       7502.4713     -37076.278     -36738.525    
     40500   309.94221      3486.4541     -37078.562     -36745.042    
     40600   308.14319      2389.0659     -37119.663     -36788.078    
     40700   263.38899      1615.2083     -37078.931     -36795.506    
     40800   300.47275     -3081.4998     -37101.112     -36777.782    
     40900   296.26244      12737.058     -37075.698     -36756.898    
     41000   298.67666      5682.6701     -37070.046     -36748.648    
     41100   313.38538      406.1034      -37096.23      -36759.004    
     41200   311.90003     -684.08565     -37119.537     -36783.91     
     41300   278.09425     -2021.8256     -37094.637     -36795.387    
     41400   287.54686      8247.014      -37096.503     -36787.082    
     41500   309.33428      13488.06      -37100.613     -36767.747    
     41600   302.91246     -283.14672     -37085.483     -36759.527    
     41700   309.8211       7058.2628     -37097.195     -36763.805    
     41800   293.11001      1901.7068     -37114.556     -36799.149    
     41900   266.49086     -208.53689     -37088.51      -36801.747    
     42000   309.69746      1432.7379     -37114.107     -36780.851    
     42100   304.15278      5998.0926     -37098.001     -36770.711    
     42200   293.31542      1925.1682     -37090.937     -36775.309    
     42300   303.34287     -918.56268     -37102.67      -36776.251    
     42400   300.31339      10504.914     -37095.365     -36772.206    
     42500   309.44444      2276.737      -37093.382     -36760.397    
     42600   312.53243      4219.5716     -37093.698     -36757.391    
     42700   298.0814      -1598.7694     -37093.765     -36773.008    
     42800   283.0682      -2398.8114     -37099.401     -36794.799    
     42900   307.23137      6266.2142     -37117.846     -36787.243    
     43000   316.75049      10938.736     -37090.845     -36749.998    
     43100   311.19971      10227.766     -37081.754     -36746.881    
     43200   304.33003      4518.0328     -37095.027     -36767.546    
     43300   292.40145      9850.1685     -37097.502     -36782.857    
     43400   292.28574      5410.7713     -37097.585     -36783.064    
     43500   308.01443     -736.93191     -37098.034     -36766.588    
     43600   316.12204     -4119.1039     -37076.13      -36735.96     
     43700   326.44802      7933.0303     -37112.849     -36761.567    
     43800   301.16231      2968.1663     -37114.922     -36790.85     
     43900   304.75296      3690.6408     -37137.709     -36809.772    
     44000   298.37613      5153.9151     -37146.376     -36825.302    
     44100   281.35811     -6725.9668     -37139.13      -36836.368    
     44200   293.24732     -11982.955     -37129.246     -36813.69     
     44300   303.86444      2677.7046     -37109.117     -36782.137    
     44400   318.79505      5343.5853     -37128.534     -36785.487    
     44500   294.76526      15923.664     -37122.516     -36805.327    
     44600   308.93726      5735.1617     -37149.447     -36817.008    
     44700   302.63833      5881.1281     -37137.154     -36811.493    
     44800   315.90457     -6779.019      -37143.809     -36803.873    
     44900   270.06868     -14243.058     -37092.161     -36801.547    
     45000   317.93802      9344.0829     -37145.082     -36802.957    
     45100   289.228        6607.3648     -37129.802     -36818.572    
     45200   297.98432      11810.007     -37144.804     -36824.151    
     45300   296.7626       6656.2018     -37134         -36814.662    
     45400   305.40812      4625.8418     -37112.83      -36784.188    
     45500   313.15825     -7442.5837     -37114.518     -36777.537    
     45600   307.47516     -10676.802     -37128.732     -36797.867    
     45700   286.99971      8177.5445     -37141.877     -36833.044    
     45800   302.69245      419.00562     -37155.268     -36829.549    
     45900   287.52158      395.08909     -37118.26      -36808.866    
     46000   303.52099     -3961.7172     -37119.726     -36793.116    
     46100   297.77722      10994.317     -37109.315     -36788.885    
     46200   312.04186      8107.249      -37148.13      -36812.351    
     46300   291.98655      6707.3773     -37154.803     -36840.604    
     46400   300.24735     -3598.0469     -37159.783     -36836.695    
     46500   281.38576     -1409.274      -37116.317     -36813.525    
     46600   302.94271      2970.8518     -37115.756     -36789.767    
     46700   310.18041     -8649.3663     -37132.051     -36798.274    
     46800   310.31164      6832.1634     -37147.193     -36813.275    
     46900   293.32178      11501.689     -37145.262     -36829.626    
     47000   282.0862       3679.5641     -37139.726     -36836.181    
     47100   312.36917     -8858.7858     -37136.923     -36800.791    
     47200   319.82265     -9309.5059     -37127.062     -36782.909    
     47300   296.03043     -1589.587      -37121.951     -36803.4      
     47400   307.06648      1339.1352     -37150.462     -36820.036    
     47500   293.95381      284.11819     -37140.514     -36824.198    
     47600   294.0084       5377.4619     -37109.702     -36793.327    
     47700   314.87452      6489.9851     -37109.728     -36770.9      
     47800   299.57527     -6231.6122     -37105.836     -36783.471    
     47900   319.39096     -8253.5265     -37146.669     -36802.981    
     48000   281.94007      7041.7687     -37115.527     -36812.139    
     48100   309.78253      870.9198      -37147.524     -36814.176    
     48200   290.58867      6063.2955     -37112.079     -36799.385    
     48300   324.05037      2738.229      -37126.393     -36777.692    
     48400   297.51638     -5076.5423     -37102.003     -36781.854    
     48500   306.62964     -7983.8506     -37137.24      -36807.284    
     48600   297.38713      793.66614     -37146.693     -36826.683    
     48700   309.44634     -1507.1112     -37158.224     -36825.237    
     48800   292.48544      5576.7652     -37128.146     -36813.411    
     48900   294.26907      2254.2399     -37126.239     -36809.584    
     49000   311.89863      7034.1946     -37149.623     -36813.997    
     49100   285.85394     -4646.8118     -37129.366     -36821.767    
     49200   296.01078      3549.5598     -37136.743     -36818.214    
     49300   336.21307      3049.4218     -37149.795     -36788.006    
     49400   296.05055     -5694.6811     -37106.612     -36788.04     
     49500   308.67491     -5334.3877     -37141.519     -36809.362    
     49600   279.01228     -10363.799     -37135.911     -36835.674    
     49700   288.95877      2578.9241     -37146.462     -36835.522    
     49800   293.46378      9350.5456     -37139.816     -36824.027    
     49900   295.07701     -4060.2111     -37130.682     -36813.157    
     50000   296.49901     -1996.3083     -37119.444     -36800.39     
     50100   322.62632     -7841.6082     -37139.906     -36792.737    
     50200   300.71369      6878.3696     -37101.677     -36778.087    
     50300   325.53872     -4815.5674     -37124.98      -36774.677    
     50400   292.61482      5903.0479     -37123.556     -36808.681    
     50500   300.25001     -6078.8638     -37147.49      -36824.4      
     50600   302.67139      6110.2525     -37153.594     -36827.898    
     50700   274.06655     -1825.6001     -37132.027     -36837.111    
     50800   297.86816     -2548.1809     -37145.36      -36824.832    
     50900   305.85934     -4274.6654     -37122.809     -36793.682    
     51000   325.29552     -8325.5481     -37131.53      -36781.489    
     51100   302.10442     -2308.8767     -37116.52      -36791.434    
     51200   298.79168      13043.336     -37147.149     -36825.628    
     51300   276.97687      6507.9636     -37135.576     -36837.529    
     51400   297.99017      3040.1105     -37145.343     -36824.684    
     51500   291.08478     -16007.181     -37134.353     -36821.124    
     51600   299.56217      1271.5671     -37119.869     -36797.519    
     51700   320.7162       6823.4196     -37117.578     -36772.464    
     51800   317.61721     -3268.6175     -37130.136     -36788.356    
     51900   315.02898     -8356.4305     -37143.629     -36804.635    
     52000   298.25128     -7647.9354     -37136.957     -36816.017    
     52100   303.87714     -5525.7624     -37149.468     -36822.474    
     52200   297.17271      148.37819     -37151.867     -36832.088    
     52300   291.81947      4117.2113     -37138.875     -36824.856    
     52400   300.11803     -10200.057     -37128.54      -36805.591    
     52500   301.55357     -4806.4143     -37132.424     -36807.931    
     52600   277.40672     -3409.2634     -37122.483     -36823.973    
     52700   293.70559     -10194.157     -37149.971     -36833.923    
     52800   303.0639      -4308.952      -37136.002     -36809.883    
     52900   286.80661     -2126.521      -37100.663     -36792.039    
     53000   310.53717     -103.52387     -37131.684     -36797.523    
     53100   291.61387     -5479.7951     -37155.498     -36841.7      
     53200   302.39536     -12923.599     -37169.343     -36843.943    
     53300   284.12525     -4740.4819     -37124.321     -36818.582    
     53400   316.34853     -5630.0414     -37139.624     -36799.21     
     53500   304.48753     -1101.328      -37119.335     -36791.684    
     53600   305.72565      1070.3493     -37136.344     -36807.361    
     53700   280.81001     -1620.2011     -37143.786     -36841.614    
     53800   302.69964     -7783.3098     -37163.1       -36837.373    
     53900   290.51377     -883.92491     -37135.604     -36822.99     
     54000   303.04815      1186.448      -37134.415     -36808.313    
     54100   301.71972     -99.997241     -37120.289     -36795.616    
     54200   321.23628     -3764.8834     -37129.603     -36783.929    
     54300   307.94289     -3329.5232     -37104.742     -36773.373    
     54400   318.04828     -7466.7786     -37145.114     -36802.871    
     54500   292.84153      4598.8697     -37139.269     -36824.15     
     54600   306.22832      5351.9249     -37162.578     -36833.054    
     54700   273.92689      4973.9008     -37117.711     -36822.946    
     54800   335.56697      8517.722      -37148.285     -36787.191    
     54900   311.4774      -3005.0447     -37124.977     -36789.805    
     55000   288.6329      -2528.0432     -37116.381     -36805.791    
     55100   286.21154      5361.3385     -37123.639     -36815.655    
     55200   318.55877      105.62403     -37156.484     -36813.692    
     55300   293.07945      3410.7938     -37129.985     -36814.611    
     55400   299.2638      -11936.198     -37135.787     -36813.757    
     55500   286.81613     -1597.3807     -37132.666     -36824.031    
     55600   284.4307       1603.6245     -37130.916     -36824.848    
     55700   300.38085     -78.17831      -37111.484     -36788.252    
     55800   327.76286      5868.901      -37129.284     -36776.587    
     55900   296.55654      104.56011     -37125.786     -36806.67     
     56000   304.17564     -2137.7006     -37149.217     -36821.902    
     56100   288.98089      2398.7429     -37139.079     -36828.115    
     56200   296.72616      954.69711     -37153.899     -36834.6      
     56300   293.98442     -5289.3293     -37146.654     -36830.305    
     56400   288.64592     -12205.442     -37121.888     -36811.284    
     56500   303.69665      1268.1875     -37119.109     -36792.31     
     56600   315.44115     -5916.8908     -37128.544     -36789.106    
     56700   316.6012       5738.9347     -37161.154     -36820.468    
     56800   293.1449      -304.04407     -37151.776     -36836.331    
     56900   296.38081      7595.1088     -37152.39      -36833.463    
     57000   312.88749     -2294.2884     -37155.294     -36818.604    
     57100   293.51335      6646.9218     -37113.338     -36797.497    
     57200   331.67096      2047.3518     -37115.164     -36758.262    
     57300   314.44057     -6730.517      -37089.336     -36750.975    
     57400   316.56056      1162.8566     -37126.013     -36785.371    
     57500   308.51356     -7130.3891     -37135.506     -36803.523    
     57600   300.30313      8842.8723     -37138.435     -36815.287    
     57700   292.51723      11457.17      -37141.386     -36826.616    
     57800   293.80275     -1519.0011     -37136.284     -36820.131    
     57900   321.52844      2240.499      -37130.303     -36784.316    
     58000   293.44938      7111.0063     -37096.701     -36780.928    
     58100   307.92054     -5933.4807     -37133.823     -36802.479    
     58200   277.42025     -8842.764      -37113.233     -36814.709    
     58300   309.24041      1604.0895     -37143.191     -36810.426    
     58400   288.31966      7050.9145     -37126.851     -36816.598    
     58500   296.68635     -5864.7678     -37128.708     -36809.452    
     58600   317.98753     -3532.3759     -37139.607     -36797.429    
     58700   307.24626      560.80922     -37105.038     -36774.419    
     58800   325.09231     -3916.4639     -37132.243     -36782.421    
     58900   286.63265     -6495.4568     -37122.776     -36814.338    
     59000   281.72181      1963.3532     -37132.404     -36829.251    
     59100   296.98133      1233.5924     -37142.562     -36822.988    
     59200   320.20103     -8482.7165     -37143.804     -36799.245    
     59300   301.94476     -2141.0762     -37122.353     -36797.439    
     59400   303.46403     -6181.1639     -37163.89      -36837.341    
     59500   256.10584      3775.2719     -37127.796     -36852.208    
     59600   310.15149     -5880.9348     -37161.619     -36827.874    
     59700   288.81347     -7103.6764     -37124.773     -36813.989    
     59800   280.85879     -20996.341     -37105.156     -36802.932    
     59900   310.38929     -107.85636     -37118.612     -36784.61     
     60000   326.46209      9791.1828     -37115.398     -36764.101    
     60100   302.74454      4610.3524     -37122.447     -36796.672    
     60200   302.78471      1944.3603     -37145.258     -36819.44     
     60300   291.89738      927.01006     -37139.353     -36825.25     
     60400   292.98895      2712.5758     -37146.149     -36830.872    
     60500   288.68671      9503.044      -37146.679     -36836.031    
     60600   297.44535      2580.2605     -37155.259     -36835.186    
     60700   295.79502      2847.7023     -37129.476     -36811.18     
     60800   311.83219     -3396.4227     -37128.199     -36792.645    
     60900   310.57586      3719.2619     -37133.544     -36799.342    
     61000   293.24534      2985.0459     -37152.076     -36836.523    
     61100   302.15085      17135.101     -37164.865     -36839.729    
     61200   293.68857      3124.5562     -37138.346     -36822.316    
     61300   305.82793      8696.6161     -37131.542     -36802.449    
     61400   303.84026     -6482.7082     -37126.903     -36799.949    
     61500   290.64297      8401.2069     -37129.518     -36816.765    
     61600   309.97618      1268.7246     -37152.098     -36818.541    
     61700   313.85042     -3915.09       -37159.527     -36821.802    
     61800   283.18754     -5841.259      -37124.362     -36819.632    
     61900   313.57224      5639.7389     -37127.474     -36790.048    
     62000   319.08912      3416.4065     -37125.537     -36782.174    
     62100   289.66092      4423.6855     -37129.576     -36817.879    
     62200   297.98144      13692.495     -37154.686     -36834.036    
     62300   291.46914      5453.9047     -37142.045     -36828.403    
     62400   312.97244      6979.4458     -37160.601     -36823.82     
     62500   318.63124      1158.5494     -37151.394     -36808.524    
     62600   319.93133     -1824.3365     -37134.421     -36790.151    
     62700   308.09041      4112.8273     -37131.977     -36800.449    
     62800   286.73847      2058.1487     -37148.242     -36839.69     
     62900   289.27337      6203.4178     -37151.951     -36840.672    
     63000   316.19991      1374.8181     -37164.49      -36824.236    
     63100   298.99179     -2078.2802     -37133.926     -36812.189    
     63200   312.5073       942.785       -37126.595     -36790.315    
     63300   343.05209     -3664.6392     -37135.565     -36766.416    
     63400   304.22677      10336.637     -37126.221     -36798.851    
     63500   298.85495      3090.0702     -37143.047     -36821.457    
     63600   289.14052     -5163.2804     -37146.821     -36835.685    
     63700   301.1161      -189.917       -37165.369     -36841.346    
     63800   302.08194     -4314.0164     -37159.872     -36834.81     
     63900   312.03605      1165.237      -37141.501     -36805.728    
     64000   303.78672      2629.1991     -37115.854     -36788.957    
     64100   305.91541     -987.24007     -37129.412     -36800.225    
     64200   297.44567      6198.9025     -37150.093     -36830.02     
     64300   284.90718     -6292.4311     -37141.083     -36834.502    
     64400   325.8104       215.78343     -37177.664     -36827.069    
     64500   308.72588     -2298.3935     -37151.012     -36818.801    
     64600   314.91578      13807.865     -37147.704     -36808.832    
     64700   313.01507      5307.072      -37140.61      -36803.783    
     64800   311.5833       5110.7052     -37135.276     -36799.99     
     64900   304.67725     -34.452706     -37149.211     -36821.356    
     65000   296.91315     -10718.908     -37173.635     -36854.135    
     65100   299.4376       2935.7659     -37180.936     -36858.719    
     65200   291.50274     -6901.6219     -37164.428     -36850.75     
     65300   310.4578       347.34443     -37154.623     -36820.548    
     65400   316.18867      3168.1162     -37152.659     -36812.417    
     65500   310.28432      116.60367     -37157.713     -36823.824    
     65600   305.9534      -13050.325     -37165.078     -36835.85     
     65700   281.36854     -10592.5       -37153.633     -36850.86     
     65800   293.53928     -10941.741     -37177.462     -36861.593    
     65900   293.84117     -2321.1729     -37175.629     -36859.435    
     66000   316.93371      1178.9624     -37154.878     -36813.835    
     66100   321.79543      4170.4376     -37155.497     -36809.222    
     66200   299.43781     -11863.806     -37154.251     -36832.034    
     66300   294.01719     -5461.9509     -37168.189     -36851.805    
     66400   302.15908     -4396.149      -37178.05      -36852.905    
     66500   294.55406      7004.8401     -37161.434     -36844.472    
     66600   325.60503      12264.176     -37164.694     -36814.319    
     66700   306.33421     -1550.9543     -37138.011     -36808.373    
     66800   312.35929     -9373.0348     -37175.548     -36839.426    
     66900   281.45422     -2036.146      -37163.339     -36860.474    
     67000   308.46754      779.15735     -37185.897     -36853.964    
     67100   304.16858      10656.142     -37163.131     -36835.824    
     67200   319.55488      1037.4292     -37172.211     -36828.346    
     67300   298.4846      -1431.1157     -37176.258     -36855.067    
     67400   286.81616      1387.6668     -37190.88      -36882.245    
     67500   296.12161     -2051.238      -37189.794     -36871.146    
     67600   303.97933      2407.9611     -37177.336     -36850.233    
     67700   316.09944     -12.962902     -37181.196     -36841.05     
     67800   287.61879     -8494.6682     -37162.375     -36852.877    
     67900   312.14713     -15969.383     -37226.784     -36890.891    
     68000   294.89695     -7901.5357     -37214.344     -36897.013    
     68100   298.91487      4162.0084     -37201.332     -36879.678    
     68200   309.00471     -6600.3428     -37184.035     -36851.523    
     68300   315.84644     -2145.1876     -37188.269     -36848.395    
     68400   282.92987     -15126.794     -37162.658     -36858.205    
     68500   314.10932      707.18719     -37196.542     -36858.537    
     68600   305.37833      273.78999     -37188.87      -36860.261    
     68700   315.76725     -4666.8824     -37189.597     -36849.809    
     68800   304.33386      7924.9472     -37181.161     -36853.676    
     68900   307.71197     -9182.3671     -37202.66      -36871.54     
     69000   290.7132      -4202.1609     -37200.087     -36887.259    
     69100   304.91951      11430.974     -37219.081     -36890.966    
     69200   296.49975     -1299.2987     -37172.083     -36853.027    
     69300   315.01819     -8837.6617     -37177.356     -36838.373    
     69400   293.16617     -11353.283     -37160.564     -36845.096    
     69500   306.94498     -10169.713     -37205.82      -36875.525    
     69600   267.92709     -3102.512      -37170.891     -36882.582    
     69700   285.63368      11514.415     -37178.071     -36870.709    
     69800   301.52071     -363.45016     -37180.966     -36856.508    
     69900   301.64314     -14579.005     -37176.101     -36851.511    
     70000   302.03034     -21937.3       -37183.617     -36858.611    
     70100   294.1414      -11621.394     -37193.667     -36877.15     
     70200   293.61538     -7572.3506     -37195.649     -36879.698    
     70300   296.60569     -5638.3223     -37184.303     -36865.133    
     70400   309.50325     -2160.513      -37176.788     -36843.74     
     70500   289.83314     -6176.0386     -37155.935     -36844.054    
     70600   304.71318     -9035.8218     -37192.986     -36865.092    
     70700   284.9358      -1424.7164     -37200.642     -36894.03     
     70800   281.42623      2.9372067     -37195.273     -36892.438    
     70900   288.46466      3466.3698     -37179.8       -36869.391    
     71000   317.33121      2023.7557     -37197.426     -36855.955    
     71100   293.08276     -932.15799     -37167.828     -36852.45     
     71200   297.41216      8710.9723     -37172.385     -36852.348    
     71300   291.81335      5286.8631     -37164.474     -36850.462    
     71400   312.90338      5747.3598     -37188.235     -36851.528    
     71500   290.11039      7084.5177     -37188.124     -36875.944    
     71600   286.58674     -14023.604     -37199.715     -36891.327    
     71700   291.02183     -4571.5576     -37186.184     -36873.023    
     71800   301.27452     -16839.837     -37172.424     -36848.23     
     71900   293.87222     -1023.4399     -37168.229     -36852.001    
     72000   288.85433     -8344.1825     -37164.183     -36853.354    
     72100   310.86246      3728.0901     -37196.262     -36861.751    
     72200   291.1291      -2585.1536     -37210.537     -36897.261    
     72300   282.55131      3654.0811     -37201.762     -36897.717    
     72400   285.32383     -3075.2147     -37178.019     -36870.99     
     72500   298.38489     -400.30129     -37176.469     -36855.386    
     72600   301.75928     -10448.39      -37177.381     -36852.666    
     72700   302.89816      12580         -37186.767     -36860.827    
     72800   292.38897     -286.83157     -37198.698     -36884.066    
     72900   257.8203      -1663.4909     -37180.422     -36902.989    
     73000   298.03507     -11439.907     -37205.403     -36884.695    
     73100   299.28663     -7178.0172     -37175.061     -36853.007    
     73200   306.74069      2559.0113     -37179.587     -36849.512    
     73300   297.26094      2961.7031     -37176.706     -36856.831    
     73400   290.70847     -42.139625     -37189.125     -36876.302    
     73500   286.23723     -15805.757     -37202.892     -36894.88     
     73600   297.64384     -18814.506     -37215.037     -36894.751    
     73700   303.89347     -7193.301      -37185.352     -36858.341    
     73800   308.10378      10091.646     -37173.251     -36841.709    
     73900   300.26399      3776.2657     -37169.27      -36846.165    
     74000   303.23101     -966.88221     -37193.215     -36866.917    
     74100   254.73339      1158.9019     -37172.478     -36898.366    
     74200   280.5968      -2279.6661     -37203.108     -36901.165    
     74300   283.02698      7145.1436     -37189.603     -36885.046    
     74400   326.19908      7996.5791     -37215.277     -36864.263    
     74500   294.5309      -1816.0552     -37169.693     -36852.757    
     74600   327.50417     -4214.116      -37194.381     -36841.963    
     74700   297.71634      8288.5807     -37172.758     -36852.394    
     74800   277.46443      8387.3291     -37181.762     -36883.19     
     74900   296.13271      1549.2453     -37200.863     -36882.203    
     75000   314.54567     -1993.0448     -37195.825     -36857.351    
     75100   298.44253     -7610.0787     -37162.466     -36841.32     
     75200   302.1549      -11762.28      -37169.983     -36844.842    
     75300   334.19192     -4044.0017     -37212.52      -36852.906    
     75400   301.32809      2439.2401     -37188.531     -36864.28     
     75500   307.59206      3756.4225     -37194.035     -36863.043    
     75600   288.41394      3320.6384     -37189.931     -36879.576    
     75700   285.09589      136.0218      -37217.112     -36910.328    
     75800   284.89329      9215.6941     -37203.587     -36897.021    
     75900   299.38797     -10839.439     -37197.466     -36875.303    
     76000   290.85193     -14461.087     -37179.613     -36866.636    
     76100   300.88607     -5772.2563     -37183.482     -36859.706    
     76200   320.88836     -3221.982      -37180.268     -36834.969    
     76300   331.72475      13168.129     -37187.805     -36830.845    
     76400   294.2722      -10428.259     -37185.733     -36869.075    
     76500   301.85479      2728.2385     -37206.503     -36881.686    
     76600   290.85027     -10548.132     -37190.822     -36877.846    
     76700   299.48826      1544.6376     -37180.887     -36858.616    
     76800   301.93704     -8868.0959     -37159.792     -36834.886    
     76900   313.25926     -2728.2687     -37177.052     -36839.962    
     77000   299.90403      3037.5892     -37206.834     -36884.115    
     77100   281.66124     -2549.2798     -37187.219     -36884.132    
     77200   281.49406      12762.743     -37169.803     -36866.895    
     77300   304.62618     -13512.025     -37172.111     -36844.311    
     77400   316.18215     -6764.3281     -37190.223     -36849.989    
     77500   297.55437     -2501.1212     -37191.504     -36871.314    
     77600   298.68476      7404.0128     -37199.415     -36878.009    
     77700   284.70089     -8021.3837     -37179.061     -36872.702    
     77800   291.93993     -14836.651     -37178.435     -36864.286    
     77900   304.44523     -12308.502     -37180.017     -36852.412    
     78000   305.32644     -1106.6526     -37174.602     -36846.048    
     78100   311.09571     -8465.6896     -37186.578     -36851.817    
     78200   271.02246     -5898.672      -37172.663     -36881.023    
     78300   290.8738      -957.889       -37204.797     -36891.796    
     78400   309.32321      1849.8882     -37203.413     -36870.559    
     78500   304.65049     -6486.5506     -37179.038     -36851.212    
     78600   297.32734     -3206.5353     -37171.145     -36851.199    
     78700   303.25741     -9480.8777     -37182.773     -36856.446    
     78800   288.55674     -11390.086     -37173.32      -36862.812    
     78900   313.07359     -13651.646     -37196.157     -36859.267    
     79000   301.00438     -2592.6021     -37176.166     -36852.264    
     79100   323.97615     -1381.5957     -37202.537     -36853.915    
     79200   294.43675      1181.7345     -37192.417     -36875.582    
     79300   295.69056     -1836.4121     -37208.536     -36890.352    
     79400   291.63233      2223.1939     -37195.466     -36881.649    
     79500   300.74555     -5687.6379     -37168.524     -36844.9      
     79600   301.58869     -7536.5577     -37165.572     -36841.04     
     79700   289.41122     -6673.4618     -37167.426     -36855.999    
     79800   284.38353      6095.918      -37178.905     -36872.887    
     79900   306.85928      13289.153     -37202.955     -36872.752    
     80000   308.82894      10511.368     -37191.334     -36859.012    
     80100   316.52098      6742.4864     -37177.914     -36837.315    
     80200   318.45292      2272.2288     -37181.066     -36838.387    
     80300   293.39842     -4493.7025     -37183.831     -36868.113    
     80400   288.58993     -6571.7548     -37190.138     -36879.595    
     80500   302.70325     -14232.628     -37203.195     -36877.464    
     80600   291.55356     -2687.3386     -37187.075     -36873.342    
     80700   326.00553      1441.3864     -37205.107     -36854.301    
     80800   329.43996      4374.0607     -37188.989     -36834.488    
     80900   304.67712     -2907.0697     -37196.889     -36869.035    
     81000   308.21853      174.3226      -37228.103     -36896.437    
     81100   284.93255      2328.8888     -37216.813     -36910.205    
     81200   281.80995     -5538.4601     -37207.171     -36903.923    
     81300   314.96367     -6602.0644     -37214.872     -36875.948    
     81400   315.70631     -11388.687     -37205.523     -36865.8      
     81500   310.68933     -4262.7634     -37213.336     -36879.012    
     81600   294.21245     -7969.341      -37219.226     -36902.632    
     81700   279.43261      6420.7142     -37237.776     -36937.087    
     81800   299.48077     -5761.49       -37247.301     -36925.038    
     81900   301.59686      9817.7825     -37224.395     -36899.855    
     82000   317.25602     -6914.0946     -37224.95      -36883.56     
     82100   296.91026      7064.2142     -37203.515     -36884.019    
     82200   315.29134      3981.3916     -37230.036     -36890.76     
     82300   282.45694     -3511.2616     -37225.072     -36921.128    
     82400   278.07371     -7159.182      -37228.191     -36928.964    
     82500   310.45823      1947.4159     -37235.63      -36901.554    
     82600   304.81415      4750.852      -37217.222     -36889.22     
     82700   305.84374      5716.4191     -37220.683     -36891.573    
     82800   304.23949      8877.7378     -37224.529     -36897.146    
     82900   265.52441     -8838.8163     -37205.895     -36920.172    
     83000   278.78659     -8838.1872     -37239.857     -36939.862    
     83100   280.69214     -12487.082     -37216.415     -36914.37     
     83200   298.20299     -11694.813     -37214.108     -36893.22     
     83300   308.06797     -377.05986     -37221.787     -36890.283    
     83400   297.98481      4236.7515     -37221.434     -36900.78     
     83500   291.65969     -4456.405      -37226.982     -36913.135    
     83600   289.4696      -5830.6999     -37219.032     -36907.541    
     83700   303.19506     -9541.057      -37199.829     -36873.569    
     83800   313.52947     -1700.1714     -37200.539     -36863.158    
     83900   297.63554      3694.1721     -37203.967     -36883.69     
     84000   291.19864      12434.128     -37215.963     -36902.612    
     84100   313.18252      5876.8513     -37241.167     -36904.16     
     84200   308.13866     -845.84977     -37231.2       -36899.62     
     84300   286.56798     -1899.2364     -37209.381     -36901.013    
     84400   282.99267      12083.96      -37203.443     -36898.923    
     84500   320.28286     -3196.1726     -37213.392     -36868.744    
     84600   283.36918      1687.7624     -37163.9       -36858.974    
     84700   295.67744      4163.1362     -37201.372     -36883.201    
     84800   279.87769      3013.8248     -37202.378     -36901.209    
     84900   302.9526      -5137.3128     -37229.083     -36903.084    
     85000   310.3945      -859.90712     -37229.071     -36895.065    
     85100   330.54373      10177.326     -37214.934     -36859.245    
     85200   313.84507     -6894.6848     -37181.267     -36843.547    
     85300   315.27475      470.83341     -37216.148     -36876.89     
     85400   289.03337     -3945.948      -37199.388     -36888.367    
     85500   299.4314      -3517.6087     -37217.752     -36895.542    
     85600   299.51791      4968.4691     -37219.982     -36897.679    
     85700   297.39573      3027.0563     -37214.458     -36894.438    
     85800   319.74668     -7742.6766     -37210.555     -36866.484    
     85900   313.73419     -20690.881     -37204.423     -36866.822    
     86000   284.76536     -4514.9439     -37201.296     -36894.868    
     86100   301.88633     -4676.5346     -37231.083     -36906.232    
     86200   286.40593     -78.728445     -37206.084     -36897.891    
     86300   319.92924     -13151.29      -37232.532     -36888.265    
     86400   313.62829     -10031.588     -37230.685     -36893.198    
     86500   289.89078      6493.5878     -37216.037     -36904.094    
     86600   281.40393      3664.8481     -37218.454     -36915.643    
     86700   290.1756      -4364.9627     -37249.454     -36937.204    
     86800   279.02352     -4194.8746     -37216.425     -36916.176    
     86900   303.01434      4760.5816     -37216.125     -36890.06     
     87000   322.4515       9543.1719     -37221.894     -36874.913    
     87100   290.15026     -2717.82       -37194.196     -36881.973    
     87200   280.45864     -3954.8127     -37206.092     -36904.298    
     87300   283.31592     -2389.1182     -37228.421     -36923.553    
     87400   264.52637      3200.9508     -37216.888     -36932.239    
     87500   288.82933     -2744.59       -37208.489     -36897.687    
     87600   308.42118     -14513.988     -37208.311     -36876.427    
     87700   305.66447     -12425.374     -37200.186     -36871.269    
     87800   298.20705     -5435.9506     -37197.99      -36877.098    
     87900   303.50811      8921.7623     -37232.599     -36906.002    
     88000   279.61744      10307.976     -37221.962     -36921.074    
     88100   304.3996       3601.5619     -37227.552     -36899.996    
     88200   290.68457     -11596.59      -37189.848     -36877.051    
     88300   315.61733     -7522.5422     -37218.8       -36879.173    
     88400   294.75808     -4503.1298     -37206.262     -36889.081    
     88500   285.99716     -6306.1234     -37220.553     -36912.8      
     88600   302.73416     -2402.5583     -37239.293     -36913.529    
     88700   302.66947      5009.8695     -37205.837     -36880.142    
     88800   291.00406     -5179.8526     -37173.931     -36860.789    
     88900   321.04183      5456.4614     -37213.334     -36867.87     
     89000   292.18669      4983.044      -37212.104     -36897.69     
     89100   308.21334      5874.6532     -37233.822     -36902.162    
     89200   310.79822      995.76171     -37231.684     -36897.243    
     89300   295.60587     -10438.201     -37208.401     -36890.308    
     89400   303.06651     -22373.073     -37199.957     -36873.835    
     89500   317.52723     -13288.92      -37196.072     -36854.39     
     89600   307.14273     -3076.6404     -37190.23      -36859.723    
     89700   304.59222      5568.2502     -37225.057     -36897.294    
     89800   289.64564     -2424.3477     -37224.695     -36913.016    
     89900   300.61226     -17120.747     -37229.383     -36905.902    
     90000   299.15761      414.947       -37204.231     -36882.316    
     90100   315.12974      18025.262     -37206.394     -36867.291    
     90200   299.23638     -2719.8808     -37191.107     -36869.107    
     90300   284.24058      10987.535     -37222.109     -36916.245    
     90400   283.47157      3029.2507     -37226.304     -36921.268    
     90500   290.81736      1429.9023     -37214.7       -36901.76     
     90600   302.4577       7723.0395     -37202.647     -36877.18     
     90700   314.86831     -569.06484     -37222.069     -36883.248    
     90800   292.88455      13331.201     -37216.966     -36901.801    
     90900   278.61685      4989.1157     -37227.155     -36927.343    
     91000   273.56733     -9399.3281     -37235.549     -36941.171    
     91100   300.27715     -4082.8093     -37242.403     -36919.283    
     91200   302.81857      2595.2497     -37214.593     -36888.738    
     91300   308.86006      2077.2574     -37209.966     -36877.61     
     91400   306.17118      2316.6779     -37200.553     -36871.091    
     91500   314.6087       2831.259      -37232.879     -36894.337    
     91600   286.38336     -9367.4342     -37224.981     -36916.812    
     91700   291.38671     -10630.104     -37221.798     -36908.245    
     91800   299.10143     -6500.4533     -37215.219     -36893.364    
     91900   310.23991     -6625.7549     -37207.133     -36873.292    
     92000   314.93183     -5380.0348     -37182.018     -36843.129    
     92100   321.51172     -12809.565     -37180.761     -36834.791    
     92200   299.89358      2209.8558     -37196.497     -36873.79     
     92300   296.99518     -8661.9111     -37213.358     -36893.769    
     92400   310.86396      5284.4202     -37242.403     -36907.89     
     92500   296.90528      9859.9847     -37233.259     -36913.767    
     92600   301.24585     -7977.2727     -37219.948     -36895.785    
     92700   322.3721      -7033.4397     -37215.316     -36868.42     
     92800   306.02227     -7952.1727     -37196.086     -36866.783    
     92900   287.61654     -1649.6214     -37212.353     -36902.857    
     93000   288.58883     -3096.6596     -37229.596     -36919.053    
     93100   297.9866      -9640.0107     -37227.985     -36907.33     
     93200   321.1626      -6179.2969     -37232.209     -36886.614    
     93300   297.261        2123.7834     -37197.658     -36877.784    
     93400   293.3944      -9279.4088     -37215.374     -36899.66     
     93500   287.3765       1292.4449     -37233.139     -36923.901    
     93600   272.59819      4954.2311     -37202.054     -36908.719    
     93700   316.06012      2042.6475     -37222.66      -36882.556    
     93800   309.76279     -4590.156      -37216.748     -36883.421    
     93900   305.02999      2942.9172     -37222.383     -36894.149    
     94000   263.48998     -11004.792     -37191.24      -36907.705    
     94100   312.09637     -6361.5203     -37235.945     -36900.107    
     94200   321.47641     -3882.1233     -37210.164     -36864.232    
     94300   311.93268      3815.3736     -37200.563     -36864.901    
     94400   288.31664     -3629.3412     -37195.04      -36884.79     
     94500   314.99533     -1203.1436     -37252.68      -36913.722    
     94600   295.87596     -4634.2532     -37239.809     -36921.425    
     94700   295.64631      255.16103     -37226.424     -36908.287    
     94800   289.67752     -2357.7574     -37200.779     -36889.065    
     94900   304.38216     -6726.7745     -37207.12      -36879.583    
     95000   309.12925      296.53082     -37224.124     -36891.479    
     95100   304.0476       466.57745     -37237.433     -36910.256    
     95200   267.6952      -5688.0559     -37231.371     -36943.312    
     95300   283.38762     -1758.1933     -37256.229     -36951.283    
     95400   280.76492     -3509.0515     -37221.931     -36919.808    
     95500   277.79587      7273.4643     -37199.61      -36900.681    
     95600   295.66135     -966.12425     -37203.56      -36885.407    
     95700   305.87985      4332.4805     -37201.051     -36871.902    
     95800   331.19766     -1106.5446     -37237.425     -36881.032    
     95900   281.68668     -10115.1       -37218.589     -36915.473    
     96000   297.73666     -3040.5664     -37234.537     -36914.151    
     96100   295.9989       13390.418     -37221.968     -36903.451    
     96200   311.67884     -11784.946     -37212.102     -36876.713    
     96300   304.02799     -3201.1085     -37190.729     -36863.573    
     96400   319.48823     -3330.3214     -37209.899     -36866.106    
     96500   312.46032     -2421.9371     -37224.014     -36887.785    
     96600   287.6113      -867.11924     -37219.535     -36910.044    
     96700   296.64996     -11320.381     -37227.147     -36907.93     
     96800   306.88876      236.16505     -37220.9       -36890.665    
     96900   326.00364      2926.7435     -37204.542     -36853.739    
     97000   306.41899      4276.0221     -37197.676     -36867.947    
     97100   278.44404     -7893.0119     -37184.663     -36885.037    
     97200   303.37126     -9793.3802     -37220.191     -36893.741    
     97300   301.59071     -9894.9827     -37231.194     -36906.661    
     97400   278.23931      16959.623     -37226.815     -36927.409    
     97500   276.39709      9492.0561     -37227.778     -36930.355    
     97600   310.88075     -1677.6317     -37231.816     -36897.285    
     97700   297.72578      5386.8556     -37203.173     -36882.799    
     97800   297.84299     -8508.0104     -37203.36      -36882.86     
     97900   274.85774     -6697.1427     -37193.604     -36897.837    
     98000   286.91167     -10720.263     -37235.115     -36926.377    
     98100   290.77935     -12361.371     -37242.988     -36930.088    
     98200   302.37444     -5140.3897     -37223.448     -36898.071    
     98300   311.39195     -517.32807     -37214.917     -36879.836    
     98400   310.30549      3798.0674     -37220.353     -36886.442    
     98500   289.11541     -2918.772      -37211.897     -36900.788    
     98600   292.22612      4402.7641     -37224.986     -36910.53     
     98700   286.60255     -6329.5189     -37230.385     -36921.98     
     98800   268.85865     -5528.8414     -37210.183     -36920.872    
     98900   302.51829     -2511.2019     -37217.93      -36892.399    
     99000   315.3706       4472.0831     -37216.053     -36876.692    
     99100   302.0796      -4199.2581     -37201.644     -36876.585    
     99200   297.06473     -1306.7102     -37225.473     -36905.81     
     99300   277.21507     -75.973669     -37226.615     -36928.311    
     99400   289.1368      -1110.185      -37224.677     -36913.545    
     99500   296.21268     -8512.3126     -37211.572     -36892.826    
     99600   282.95689     -948.9239      -37192.004     -36887.521    
     99700   319.39001      2768.9105     -37226.28      -36882.593    
     99800   299.74257     -9245.2429     -37227.767     -36905.222    
     99900   283.17485     -6195.6945     -37238.693     -36933.977    
    100000   280.61061      5056.3554     -37222.196     -36920.238    
    100100   323.64242      4829.3604     -37243.542     -36895.28     
    100200   282.1883       3326.8936     -37188.373     -36884.718    
    100300   307.76018      5986.933      -37206.778     -36875.606    
    100400   307.21883      1023.0541     -37233.56      -36902.97     
    100500   291.68296     -13619.18      -37244.149     -36930.277    
    100600   286.10288      4385.5206     -37228.372     -36920.505    
    100700   309.70334     -3355.7401     -37227.872     -36894.609    
    100800   313.55738     -1317.1461     -37217.634     -36880.224    
    100900   293.65214     -2315.4536     -37206.406     -36890.415    
    101000   288.08835      670.2209      -37213.173     -36903.169    
    101100   282.27063      8154.8385     -37240.271     -36936.527    
    101200   284.3298      -258.95009     -37241.51      -36935.551    
    101300   300.06306     -8177.0842     -37227.216     -36904.326    
    101400   296.27636     -8721.2607     -37212.372     -36893.557    
    101500   295.68415     -12092.08      -37196.943     -36878.766    
    101600   336.58121      5790.2718     -37227.708     -36865.523    
    101700   312.02322      10795.564     -37236.105     -36900.345    
    101800   275.81352     -7135.7089     -37210.296     -36913.501    
    101900   297.65065      2212.2717     -37217.715     -36897.421    
    102000   301.06304     -6721.9047     -37204.086     -36880.12     
    102100   308.40145     -4047.1609     -37211.422     -36879.559    
    102200   282.90179      3992.333      -37214.034     -36909.611    
    102300   276.25473     -6600.9722     -37223.941     -36926.671    
    102400   282.40356      2034.4619     -37210.487     -36906.601    
    102500   301.88816     -2667.0943     -37211.973     -36887.119    
    102600   308.53357     -14329.628     -37210.879     -36878.875    
    102700   317.93583     -7751.1213     -37229.429     -36887.307    
    102800   278.47565     -9639.9473     -37218.06      -36918.4      
    102900   300.5232      -4821.7055     -37247.356     -36923.971    
    103000   283.31419     -2553.9074     -37215.382     -36910.515    
    103100   290.52634     -6588.6718     -37211.223     -36898.595    
    103200   307.32166     -1793.6984     -37214.11      -36883.41     
    103300   293.86925     -2581.6643     -37186.188     -36869.964    
    103400   308.45646     -2028.1162     -37196.567     -36864.645    
    103500   302.32427      9372.521      -37211.368     -36886.046    
    103600   267.64377      2332.2388     -37203.612     -36915.608    
    103700   299.56724     -2972.9355     -37242.536     -36920.18     
[...]
    174300   302.41829     -3337.094      -37314.988     -36989.564    
    174400   307.61299     -4585.0868     -37341.618     -37010.604    
    174500   295.30152     -526.01888     -37325.489     -37007.723    
    174600   310.3058       612.96657     -37319.046     -36985.135    
    174700   334.56487     -2175.7351     -37326.297     -36966.281    
    174800   317.19542     -7225.0268     -37326.49      -36985.165    
    174900   274.81346     -8414.0292     -37316.763     -37021.043    
    175000   297.17954      9223.6506     -37329.003     -37009.217    
    175100   315.9697      -1329.6232     -37332.283     -36992.277    
    175200   298.25829      9433.4285     -37301.53      -36980.582    
    175300   312.44242     -7113.3764     -37304.791     -36968.581    
    175400   303.78332     -6556.7188     -37288.434     -36961.541    
    175500   314.8339      -14310.456     -37325.097     -36986.313    
    175600   299.23656     -12871.577     -37333.618     -37011.618    
    175700   275.5169      -1582.5994     -37313.741     -37017.265    
    175800   304.35302     -996.58606     -37324.864     -36997.359    
    175900   321.80659      5871.3919     -37320.756     -36974.469    
    176000   313.84312      9392.6938     -37314.719     -36977.001    
    176100   294.78887      3811.3235     -37342.229     -37025.015    
    176200   283.68692      1578.0266     -37337.88      -37032.613    
    176300   296.20551     -4876.8712     -37329.793     -37011.055    
    176400   305.23649      2895.2524     -37315.715     -36987.258    
    176500   313.48119     -3301.1359     -37316.805     -36979.477    
    176600   295.01757      6067.4627     -37299.87      -36982.41     
    176700   298.34142     -1738.136      -37323         -37001.963    
    176800   272.1994      -10750.19      -37315.432     -37022.526    
    176900   310.90998     -5451.1855     -37345.427     -37010.865    
    177000   297.74823      4437.0785     -37303.759     -36983.36     
    177100   308.15512     -8447.4549     -37301.765     -36970.167    
    177200   304.49957      2356.9776     -37306.577     -36978.914    
    177300   299.34998      2206.2513     -37308.117     -36985.994    
    177400   306.99937     -6810.8058     -37328.877     -36998.524    
    177500   278.54823      4809.9557     -37315.246     -37015.507    
    177600   269.74842      4751.5444     -37332.31      -37042.041    
    177700   279.85855     -478.74106     -37337.351     -37036.203    
    177800   293.90199     -4225.5703     -37315.719     -36999.459    
    177900   300.9978       8763.3249     -37310.812     -36986.916    
    178000   293.39258      2560.3677     -37295.172     -36979.461    
    178100   319.33762     -916.35923     -37319.844     -36976.213    
    178200   316.13333     -3021.4412     -37310.573     -36970.39     
    178300   295.26298     -10919.292     -37294.537     -36976.812    
    178400   317.96288      4840.3354     -37333.904     -36991.753    
    178500   284.981       -10479.084     -37323.689     -37017.029    
    178600   276.21555     -2026.6803     -37317.286     -37020.058    
    178700   287.60705     -7163.8972     -37295.691     -36986.205    
    178800   309.09567     -4385.1704     -37304.946     -36972.337    
    178900   313.83734     -1102.7448     -37316.437     -36978.725    
    179000   296.53297      4257.5771     -37312.072     -36992.981    
    179100   300.10161      4426.4043     -37335.316     -37012.385    
    179200   279.4436      -3041.2678     -37333.112     -37032.411    
    179300   277.88071      12249.307     -37316.634     -37017.614    
    179400   296.754        6622.0698     -37302.19      -36982.861    
    179500   310.465        4771.0801     -37311.75      -36977.667    
    179600   310.20267     -1688.0366     -37322.041     -36988.24     
    179700   302.08144     -4591.0524     -37335.654     -37010.592    
    179800   308.29428      286.52884     -37356.599     -37024.852    
    179900   313.82191     -8701.7476     -37342.246     -37004.551    
    180000   284.367       -4155.2723     -37280.945     -36974.945    
    180100   321.74248     -13116.329     -37319.952     -36973.734    
    180200   287.76312     -5894.2752     -37300.408     -36990.754    
    180300   294.88719      838.18852     -37338.101     -37020.781    
    180400   285.45928     -5281.4888     -37335.482     -37028.308    
    180500   296.23469      4087.5797     -37338.951     -37020.181    
    180600   300.36343      10561.421     -37328.375     -37005.162    
    180700   300.04695      715.0993      -37311.22      -36988.348    
    180800   307.34914      879.2226      -37311.246     -36980.517    
    180900   303.26249     -3108.6372     -37318.311     -36991.978    
    181000   285.60088      7978.307      -37311.244     -37003.917    
    181100   299.16929      5436.9236     -37355.668     -37033.741    
    181200   279.05141      8125.3283     -37342.056     -37041.777    
    181300   294.6973       5797.006      -37331.796     -37014.681    
    181400   296.176        4408.4796     -37312.103     -36993.396    
    181500   311.78052      4492.3508     -37319.863     -36984.365    
    181600   308.0001      -2365.0421     -37316.199     -36984.769    
    181700   281.99964      5223.2503     -37300.849     -36997.397    
    181800   293.24943      10259.938     -37340.653     -37025.095    
    181900   289.95583     -1519.4637     -37339.017     -37027.004    
    182000   286.26971      507.83537     -37304.959     -36996.912    
    182100   296.834       -4787.0453     -37298.361     -36978.946    
    182200   287.16802     -12766.112     -37290.36      -36981.347    
    182300   320.92042     -506.56929     -37334.79      -36989.457    
    182400   285.24952      5532.8082     -37325.872     -37018.923    
    182500   283.90986      1400.6539     -37335.583     -37030.075    
    182600   279.18663     -5205.6086     -37312.432     -37012.007    
    182700   312.50009     -3836.5325     -37334.833     -36998.56     
    182800   290.14994      4265.3192     -37305.276     -36993.054    
    182900   300.41278      9595.4646     -37312.934     -36989.668    
    183000   304.04159      5453.589      -37310.878     -36983.707    
    183100   281.11584     -450.15006     -37294.245     -36991.744    
    183200   295.8539      -5738.4106     -37327.903     -37009.543    
    183300   302.71071     -6890.9712     -37345.928     -37020.189    
    183400   281.1227      -10636.591     -37322.105     -37019.597    
    183500   308.18025     -2153.3749     -37320.522     -36988.898    
    183600   308.48642      2055.5144     -37305.019     -36973.065    
    183700   315.06045      1680.3514     -37322.675     -36983.647    
    183800   298.48855      7615.5736     -37330.562     -37009.367    
    183900   275.04849      3468.5961     -37318.87      -37022.898    
    184000   293.12175      714.30796     -37332.528     -37017.108    
    184100   293.21511     -5833.5641     -37322.867     -37007.346    
    184200   323.03091      609.66288     -37338.543     -36990.938    
    184300   306.98707     -4286.0219     -37311.506     -36981.165    
    184400   306.14424      6011.5023     -37317.501     -36988.068    
    184500   281.20423     -16914.714     -37315.219     -37012.623    
    184600   279.76287      1664.4471     -37320.385     -37019.34     
    184700   301.16157      13826.757     -37314.608     -36990.537    
    184800   296.73704      4131.8586     -37298.328     -36979.018    
    184900   303.2378       1065.2227     -37308.635     -36982.329    
    185000   293.02385     -2568.232      -37310.394     -36995.079    
    185100   305.30263      4335.0113     -37334.767     -37006.239    
    185200   277.7772       2004.0438     -37318.388     -37019.48     
    185300   274.28446      4791.8034     -37327.785     -37032.635    
    185400   293.40333      3428.5208     -37332.012     -37016.288    
    185500   296.46538     -1952.0475     -37310.324     -36991.306    
    185600   299.41676      8275.9698     -37310.199     -36988.005    
    185700   294.22367     -417.50041     -37306.885     -36990.279    
    185800   301.12668      9038.0333     -37309.069     -36985.035    
    185900   313.97012      2908.7096     -37315.843     -36977.989    
    186000   286.4126      -868.92614     -37304.312     -36996.111    
    186100   284.98871      3056.8393     -37317.252     -37010.583    
    186200   299.64594      4799.2779     -37324.603     -37002.163    
    186300   312.31071     -5796.531      -37302.864     -36966.795    
    186400   322.04177     -1026.5526     -37305.896     -36959.355    
    186500   316.07431      8564.3354     -37318.547     -36978.429    
    186600   293.76796      1170.4565     -37306.776     -36990.661    
    186700   305.06131      3202.2019     -37321.319     -36993.051    
    186800   294.53825      10099.092     -37308.592     -36991.647    
    186900   311.13817     -3216.0209     -37302.113     -36967.305    
    187000   329.12399      13654.045     -37302.708     -36948.547    
    187100   321.37474     -365.55683     -37323.883     -36978.06     
    187200   296.60449     -6884.9614     -37312.775     -36993.607    
    187300   322.2046      -3650.9775     -37346.138     -36999.422    
    187400   296.99518     -2952.2285     -37331.057     -37011.469    
    187500   292.32982      8607.642      -37327.478     -37012.91     
    187600   314.37063     -1311.0495     -37318.417     -36980.132    
    187700   302.7178       2454.6231     -37288.947     -36963.2      
    187800   326.9293      -3077.4874     -37318.647     -36966.847    
    187900   284.69893     -4235.2949     -37309.742     -37003.385    
    188000   287.56685      1392.973      -37314.873     -37005.43     
    188100   298.99618     -2863.4306     -37317.312     -36995.571    
    188200   304.80271     -1973.3408     -37310.43      -36982.44     
    188300   344.88186      2263.9818     -37325.464     -36954.346    
    188400   318.31294      10218.051     -37307.694     -36965.166    
    188500   296.36391     -2713.3696     -37320.266     -37001.357    
    188600   299.41391      2125.898      -37326.113     -37003.922    
    188700   301.5331       9337.1472     -37321.017     -36996.545    
    188800   322.02462      4269.0248     -37319.557     -36973.036    
    188900   313.92428     -5058.157      -37300.962     -36963.156    
    189000   297.79512     -7805.0774     -37316.561     -36996.112    
    189100   293.18931      64.1345       -37331.812     -37016.319    
    189200   301.30507      6274.4741     -37330.44      -37006.214    
    189300   296.89682      8421.1367     -37300.811     -36981.328    
    189400   311.13418      702.20166     -37305.915     -36971.112    
    189500   307.83902      780.26689     -37299.809     -36968.552    
    189600   299.50176     -5261.8958     -37323.97      -37001.684    
    189700   297.41301     -3164.9643     -37351.187     -37031.149    
    189800   272.76198     -2515.9027     -37316.222     -37022.71     
    189900   327.618       -6658.2571     -37343.774     -36991.233    
    190000   316.08605      5792.5566     -37322.921     -36982.79     
    190100   314.22042     -1250.2745     -37319.956     -36981.832    
    190200   278.394       -11150.251     -37309.229     -37009.657    
    190300   298.14927      8362.339      -37348.698     -37027.868    
    190400   295.2433      -5739.8826     -37335.013     -37017.31     
    190500   299.08961      3734.344      -37320.779     -36998.937    
    190600   304.462        6050.795      -37323.084     -36995.461    
    190700   303.29713     -5268.1577     -37308.431     -36982.062    
    190800   323.12015      8897.246      -37322.477     -36974.776    
    190900   296.30059     -588.32126     -37296.087     -36977.246    
    191000   297.19076      5693.2662     -37324.674     -37004.875    
    191100   279.33454      1445.2859     -37318.494     -37017.909    
    191200   306.13719     -7560.8607     -37332.073     -37002.647    
    191300   315.49109      958.61029     -37313.449     -36973.957    
    191400   299.64057      3874.6137     -37289.601     -36967.166    
    191500   319.75466     -2704.1407     -37318.432     -36974.353    
    191600   282.02483     -5001.237      -37299.92      -36996.441    
    191700   304.18911     -10546.398     -37335.527     -37008.198    
    191800   304.69866      12093.53      -37340.772     -37012.895    
    191900   285.75078      436.70273     -37307.257     -36999.769    
    192000   309.57334      12630.397     -37303.685     -36970.562    
    192100   318.36295     -5709.1425     -37311.539     -36968.958    
    192200   291.2465       3204.8059     -37310.493     -36997.09     
    192300   288.11842     -2003.7825     -37319.854     -37009.818    
    192400   298.27124      5397.0956     -37329.525     -37008.564    
    192500   299.73046      14214.881     -37327.002     -37004.47     
    192600   299.05447     -4481.691      -37305.686     -36983.882    
    192700   309.70219     -8662.3218     -37290.461     -36957.199    
    192800   294.07182      8658.3739     -37278.795     -36962.353    
    192900   319.42407     -1384.8756     -37317.501     -36973.778    
    193000   312.30134     -165.12938     -37324.826     -36988.767    
    193100   303.0651       2710.2874     -37332.937     -37006.817    
    193200   296.74793      7709.2852     -37334.81      -37015.488    
    193300   291.30704     -2571.7043     -37309.859     -36996.391    
    193400   335.11277      2344.5159     -37323.746     -36963.14     
    193500   319.99983      266.86712     -37322.716     -36978.373    
    193600   297.06124     -6040.511      -37319.952     -37000.293    
    193700   286.12701     -6998.1402     -37314.31      -37006.417    
    193800   298.15025     -10.929685     -37316.245     -36995.414    
    193900   330.55061     -4933.4325     -37315.356     -36959.66     
    194000   319.49726      17435.085     -37291.072     -36947.27     
    194100   324.62043      906.23868     -37318.144     -36968.829    
    194200   299.07218      12557.292     -37300.514     -36978.691    
    194300   294.96425     -1865.8716     -37318.73      -37001.327    
    194400   281.22626      4524.0678     -37313.63      -37011.01     
    194500   289.24901      669.34707     -37321.326     -37010.073    
    194600   306.07643     -3557.908      -37306.488     -36977.128    
    194700   315.37838     -15746.823     -37303.816     -36964.446    
    194800   323.54024      11163.244     -37332.033     -36983.881    
    194900   305.31784     -2617.0452     -37328.644     -37000.1      
    195000   288.28428      6608.6083     -37310.117     -36999.902    
    195100   298.75283      5465.4358     -37320.565     -36999.086    
    195200   291.47144      7453.6092     -37304.986     -36991.342    
    195300   315.95907     -8690.9928     -37302.296     -36962.301    
    195400   325.64609      1011.2883     -37313.288     -36962.87     
    195500   300.77975     -12813.335     -37317.483     -36993.822    
    195600   310.22254      1401.3208     -37343.183     -37009.362    
    195700   296.22988      6653.3086     -37326.543     -37007.779    
    195800   291.75605     -2122.58       -37303.995     -36990.045    
    195900   303.15689      4541.3071     -37298.516     -36972.297    
    196000   304.64723      13.562252     -37302.976     -36975.154    
    196100   304.22597     -4933.9741     -37312.613     -36985.244    
    196200   307.78698      408.92225     -37322.379     -36991.178    
    196300   300.66981     -8291.1194     -37322.175     -36998.632    
    196400   304.69139     -564.56101     -37330.686     -37002.816    
    196500   292.71861     -15698.01      -37318.907     -37003.92     
    196600   308.76516      5424.5629     -37331.678     -36999.424    
    196700   310.24342      5036.2375     -37322.046     -36988.202    
    196800   303.52491     -411.66353     -37298.887     -36972.273    
    196900   301.0891       6045.4412     -37295.765     -36971.771    
    197000   305.9536      -18931.75      -37330.154     -37000.926    
    197100   287.87054     -1849.959      -37328.267     -37018.497    
    197200   297.03489     -3419.4748     -37329.724     -37010.093    
    197300   299.2233       3683.4206     -37318.064     -36996.078    
    197400   321.31317     -4246.5312     -37316.052     -36970.296    
    197500   345.14227     -11708.736     -37295.278     -36923.88     
    197600   330.00987      7687.847      -37303.316     -36948.201    
    197700   302.29745      8379.0746     -37298.258     -36972.964    
    197800   295.85619      3774.1735     -37313.64      -36995.277    
    197900   307.53977     -4465.7786     -37342.556     -37011.621    
    198000   285.94155     -6852.5157     -37321.384     -37013.69     
    198100   301.32645     -4396.5637     -37303.579     -36979.33     
    198200   317.60627      3948.3593     -37311.49      -36969.722    
    198300   302.50743      418.07386     -37309.631     -36984.111    
    198400   299.35025     -7695.651      -37320.515     -36998.393    
    198500   307.77141      2504.726      -37333.711     -37002.527    
    198600   299.26637      818.77762     -37326.782     -37004.75     
    198700   305.64        -3102.4918     -37327.913     -36999.023    
    198800   300.62541      3351.6953     -37303.467     -36979.972    
    198900   288.6218       2827.6085     -37276.859     -36966.281    
    199000   302.93936      18067.366     -37294.314     -36968.33     
    199100   310.08688      2068.1494     -37335.247     -37001.571    
    199200   284.70599      1314.5779     -37323.182     -37016.818    
    199300   284.95473     -7670.9863     -37312.845     -37006.213    
    199400   295.88158      1837.5849     -37316.155     -36997.765    
    199500   313.36703      7684.762      -37309.314     -36972.109    
    199600   336.93751      13969.634     -37306.425     -36943.856    
    199700   305.7675       402.38928     -37286.296     -36957.268    
    199800   301.93469     -763.39648     -37304.806     -36979.903    
    199900   312.71823     -184.49169     -37326.96      -36990.453    
    200000   290.39093     -1019.682      -37311.354     -36998.872    
Loop time of 17344.4 on 8 procs for 200000 steps with 362 atoms

Performance: 0.498 ns/day, 48.179 hours/ns, 11.531 timesteps/s, 4.174 katom-step/s
84.5% CPU use with 4 MPI tasks x 2 OpenMP threads

MPI task timing breakdown:
Section |  min time  |  avg time  |  max time  |%varavg| %total
---------------------------------------------------------------
Pair    | 10546      | 10704      | 10901      | 136.7 | 61.71
Bond    | 0.60409    | 0.74203    | 0.8142     |   9.8 |  0.00
Neigh   | 134.45     | 136.58     | 138.63     |  16.7 |  0.79
Comm    | 3708.7     | 3905       | 4064.9     | 229.1 | 22.51
Output  | 5.5785     | 7.5024     | 10.223     |  71.1 |  0.04
Modify  | 2555.7     | 2561.4     | 2568       |   9.1 | 14.77
Other   |            | 29.75      |            |       |  0.17

Nlocal:           90.5 ave          95 max          82 min
Histogram: 1 0 0 0 0 0 1 0 0 2
Nghost:           3972 ave        3981 max        3962 min
Histogram: 1 0 0 1 0 0 0 1 0 1
Neighs:        56075.5 ave       58528 max       51220 min
Histogram: 1 0 0 0 0 0 0 1 0 2

Total # of neighbors = 224302
Ave neighs/atom = 619.61878
Ave special neighs/atom = 0
Neighbor list builds = 3059
Dangerous builds = 0
System init for write_data ...
WARNING: Compute rdf cutoff less than neighbor cutoff - forcing a needless neighbor list build (src/compute_rdf.cpp:179)
Total wall time: 4:49:13
