ITEM: TIMESTEP
0
ITEM: NUMBER OF ATOMS
365
ITEM: BOX BOUNDS xy xz yz pp pp pp
-6.9345999999999997e+00 1.9702400000000001e+01 -6.9345999999999997e+00
0.0000000000000000e+00 1.5863300000000001e+01 2.0880000000000001e+00
0.0000000000000000e+00 1.7464200000000002e+01 8.7949999999999995e-01
ITEM: ATOMS id type q x y z
224 2 0.13747 -1.49089 5.72258 5.35565
2 4 1.20528 1.30888 2.36856 0.934011
4 4 0.999397 2.64772 4.00179 5.51669
8 4 0.819922 -0.880826 4.73643 2.1773
10 4 1.29899 1.51462 5.13642 8.21092
256 2 0.15676 3.53379 4.89871 2.51336
21 4 1.42955 4.75486 2.16505 4.63942
22 4 1.53864 6.51002 2.22683 0.314073
25 4 1.11914 6.87135 2.89575 6.68439
29 4 1.30462 5.86678 4.43749 2.78095
32 4 1.52891 5.96545 5.59798 8.11765
34 4 1.51855 5.01081 7.50327 5.85248
68 1 -0.678851 -0.874154 6.2963 6.10847
74 1 -0.65839 7.83514 0.920312 3.85278
78 1 -0.657598 1.34411 6.90397 3.03035
79 1 -0.69062 4.38673 5.62036 2.75448
102 3 -0.794988 2.19148 1.54531 2.00681
105 3 -0.756815 0.125865 3.67667 1.60026
107 3 -0.844545 2.17014 4.55479 6.84979
353 2 0.1365 -1.18349 7.30024 0.95274
255 2 0.260069 4.09383 6.39947 3.62873
119 3 -0.786524 4.38177 0.924115 3.64802
120 3 -0.809864 3.39644 2.62345 5.50835
121 3 -0.847326 6.8734 0.975467 1.27102
123 3 -0.805861 6.03482 1.82355 6.0537
129 3 -0.874419 5.29456 3.36457 3.73221
130 3 -0.785745 6.42199 3.66336 1.10189
133 3 -0.855497 6.46314 4.23246 7.41887
135 3 -0.816118 3.66711 7.46913 4.86784
136 3 -0.806166 4.9342 6.2969 7.0509
191 2 0.0201034 3.42051 5.11566 4.43469
192 2 -0.0525844 1.31895 3.85535 4.48573
257 2 0.157442 4.6287 6.23963 1.79403
204 2 0.0347483 8.13284 2.0951 7.64118
206 2 -0.00779423 -0.117945 5.67041 3.4351
223 2 0.154826 -0.331298 5.74124 0.226031
67 1 -0.650783 -1.2487 6.18913 0.752699
1 4 1.34123 3.14258 0.319659 2.69127
225 2 0.17509 -1.33553 6.4567 7.10017
226 2 0.145291 0.221194 6.01904 6.13254
242 2 0.223605 7.32168 0.383564 4.73329
260 2 0.183743 3.27845 5.92132 1.00215
195 2 -0.0138068 -0.118488 5.47119 7.74327
252 2 0.112614 1.55026 6.04609 3.84569
253 2 0.173483 1.80324 6.65019 1.91135
254 2 0.164977 0.291399 7.24537 2.91255
331 2 0.17031 0.557328 0.0883266 0.52461
330 1 -0.664149 0.233627 1.10599 0.0778353
80 1 -0.662602 2.64402 6.1383 0.0825465
354 2 0.184499 -2.11826 5.94104 0.14954
240 2 0.210775 7.40724 1.96936 3.68983
342 2 0.00791059 -2.65193 6.91926 1.90092
134 3 -0.836414 1.97104 6.57126 8.69128
259 2 0.167235 1.55651 5.84566 0.181722
3 4 1.17796 1.18373 2.58646 9.97316
5 4 1.37325 4.29755 1.02534 14.3761
7 4 1.52305 3.09035 3.024 12.2606
12 4 1.06786 1.95988 5.50414 13.8114
345 2 0.105224 0.489206 4.70491 14.3079
24 4 1.31654 5.50665 3.5027 10.3007
93 1 -0.655354 7.73024 7.05273 15.4141
27 4 1.34967 5.7354 3.0779 16.2422
28 4 1.24826 8.37695 2.46285 11.3078
155 3 -0.803733 9.27708 1.83366 10.1007
265 2 0.143116 4.34852 7.17399 13.0729
69 1 -0.62819 3.17379 5.6384 15.2952
77 1 -0.684024 6.10295 4.24587 14.7197
106 3 -0.804749 1.5757 4.12839 9.35952
82 1 -0.654513 4.92226 6.67286 12.0933
103 3 -0.786342 1.97268 2.28056 11.4541
104 3 -0.809622 3.38586 2.10969 13.6301
358 2 0.184392 5.63165 1.14005 12.2884
295 2 0.146617 7.19573 5.9499 15.1483
110 3 -0.794127 2.73507 4.57697 12.8347
111 3 -0.810035 1.66858 7.024 13.4326
122 3 -0.857237 4.3785 3.31363 11.2826
124 3 -0.806032 5.23453 1.71195 15.504
125 3 -0.822414 7.06248 2.97866 17.0114
126 3 -0.751602 4.43993 3.75413 17.1275
127 3 -0.859509 6.95728 3.01571 10.7584
128 3 -0.867931 8.31439 1.39522 12.4344
132 3 -0.79107 5.39544 5.01705 9.70452
296 2 0.181208 7.54165 7.4853 16.521
157 3 -0.817535 9.82597 1.52444 14.6996
301 2 0.154195 8.05987 4.90208 12.3107
203 2 -0.0060307 5.10611 2.44986 9.11538
263 2 0.173816 5.98413 6.33208 12.2505
227 2 0.163784 3.22397 6.73722 15.5706
228 2 0.210445 4.22641 5.19853 15.1335
229 2 0.164857 2.4943 5.035 16.0034
332 2 0.208414 2.4272 2.10169 16.4338
249 2 0.167421 7.24799 4.14503 14.6844
250 2 0.155815 5.75905 5.27977 14.6886
251 2 0.190316 5.63805 3.60008 13.8685
258 2 0.175059 5.18051 6.63955 16.5443
264 2 0.282182 4.19417 5.90488 11.5079
216 2 -0.00219566 6.22527 7.53614 13.3411
137 3 -0.845222 3.6302 7.99216 10.1059
190 2 -0.0359259 1.77934 1.25065 9.04606
11 4 1.24102 -0.755993 8.13417 5.49963
14 4 1.04637 -4.98003 12.7374 4.15304
15 4 1.00354 -1.60456 9.89906 8.09489
17 4 1.2009 -2.53361 12.5212 6.14704
23 4 1.07306 1.92583 13.3861 7.87843
30 4 1.26992 2.09728 8.26145 4.06907
36 4 1.21903 3.58751 10.0191 1.98524
37 4 1.25142 0.0139757 12.3272 3.85313
39 4 1.52312 3.74424 9.92546 7.12944
40 4 1.53007 2.95159 12.2261 5.26474
112 3 -0.815282 -4.60274 14.1646 3.40196
72 1 -0.670144 -2.80447 14.1982 6.84185
75 1 -0.675627 0.233066 14.1643 7.52076
113 3 -0.770048 -1.2085 8.90302 6.89758
114 3 -0.738787 -4.05975 12.1045 5.34782
115 3 -0.762991 -2.39893 11.5601 7.49457
131 3 -0.772165 0.841551 8.55344 5.0581
138 3 -0.793192 2.37998 9.41527 2.94597
139 3 -0.766669 3.65767 8.74132 0.886303
140 3 -0.783408 0.00277931 13.44 2.65921
141 3 -0.754538 -1.16818 12.5967 4.94922
142 3 -0.836638 3.17972 11.3803 1.22799
143 3 -0.875477 2.73125 8.98607 7.83051
144 3 -0.78617 5.20332 9.00707 6.42575
145 3 -0.80304 1.38463 12.3062 4.57302
146 3 -0.860094 3.07169 10.8247 6.02661
147 3 -0.792677 2.82203 13.3664 6.56475
181 3 -0.832065 4.47096 10.9716 8.31709
359 2 0.147541 0.84085 9.61377 0.30364
209 2 -0.00323422 -0.20571 10.8343 3.18751
341 2 -0.00430972 1.77656 13.2234 0.22309
108 3 -0.781829 -1.93634 8.11405 4.25455
235 2 0.145711 -2.70132 13.9452 7.96309
236 2 0.170667 -3.89339 14.3537 6.40137
202 2 0.00511135 1.57457 11.6688 8.34691
245 2 0.215467 0.274388 14.3349 6.38037
232 2 0.191961 1.02486 10.1382 8.40723
9 4 0.605296 -3.02229 8.00469 3.15409
329 2 0.155331 -3.3551 13.3336 1.13576
327 1 -0.668664 -3.13877 14.4508 1.08476
20 4 1.14356 0.69602 14.9834 2.22685
349 2 0.232572 -2.04669 14.6542 1.10519
244 2 0.158267 -0.545034 13.4532 7.79292
243 2 0.171058 0.273238 15.1025 8.21575
328 2 0.22205 -3.73636 14.9586 0.259996
356 2 0.241442 -2.03043 14.8861 6.44283
16 4 0.560321 -3.96824 12.174 10.3371
18 4 1.23088 -0.379731 10.6965 14.2047
19 4 0.893315 -1.74459 11.4542 11.4667
31 4 0.99751 4.87342 8.92619 17.1901
324 2 0.163344 -2.15935 12.7446 16.7394
38 4 0.966875 4.81047 12.7596 17.2917
41 4 1.21387 4.8946 10.9151 13.3211
42 4 0.994327 1.36199 13.192 15.1762
43 4 1.20775 3.11496 12.855 12.0548
73 1 -0.639735 -1.52188 10.1194 15.5748
81 1 -0.680421 3.18291 9.75551 16.9526
83 1 -0.702955 1.3247 12.4036 11.6502
116 3 -0.778 0.741022 9.38055 13.8766
117 3 -0.769222 -2.99039 12.4387 11.5331
118 3 -0.789917 -1.16052 11.027 12.8316
238 2 0.16562 -0.820348 9.70246 16.3267
148 3 -0.818539 4.66863 9.63255 12.3285
149 3 -0.787051 0.325679 12.134 14.9184
150 3 -0.789313 0.910105 14.5598 14.5544
151 3 -0.818786 3.51526 11.6214 13.5767
152 3 -0.789888 3.06129 14.4088 12.8691
33 4 1.32299 2.40365 7.99183 9.03356
173 3 -0.791269 5.91919 9.12903 15.452
182 3 -0.793894 4.00658 12.4199 10.8138
334 2 0.216772 -1.98565 14.3269 12.6445
169 3 -0.826291 6.36486 8.31433 10.2864
35 4 1.27791 4.94468 8.15219 10.9923
200 2 -0.011291 -0.469392 11.978 10.4371
335 2 0.298091 -0.469825 15.0136 13.5151
201 2 0.0273464 -2.13342 9.80426 10.7065
208 2 0.0808153 3.24467 9.15054 12.6818
210 2 0.0922558 4.9376 10.2709 14.9468
211 2 0.0827362 2.8687 12.598 14.6814
212 2 -0.0311622 3.76873 11.6114 16.6149
213 2 -0.0670634 1.81199 13.4237 16.7526
13 4 0.953795 1.64383 8.48856 12.9716
237 2 0.17722 -2.14674 11.0264 16.0412
26 4 1.43454 2.04097 15.5727 13.5945
207 2 -0.0142465 0.989663 8.82339 9.62479
262 2 0.159308 2.95402 10.1532 15.9253
266 2 0.17736 1.17369 11.4095 12.0902
267 2 0.163931 1.37117 12.5318 10.524
268 2 0.193649 0.796047 13.2303 12.2005
71 1 -0.678732 0.180213 10.573 9.14658
261 2 0.122287 2.58278 8.63842 17.1921
323 3 -0.783446 -3.55629 14.7996 14.991
333 1 -0.672335 -1.43633 15.2321 13.072
197 2 0.0521319 -3.35355 11.923 8.77254
196 2 -0.0536979 1.09847 8.54448 11.4167
70 1 -0.627542 -2.68918 9.07145 9.23237
233 2 0.127946 0.365013 10.4273 10.2564
154 3 -0.79156 2.53203 14.3376 8.94183
234 2 0.116877 -0.18866 11.6386 8.75972
321 1 -0.65294 -3.30001 12.5036 16.9697
339 3 -0.781337 12.3626 0.226715 0.126637
47 4 0.718848 13.8118 3.72948 5.44417
51 4 1.13972 11.0919 4.27911 0.828806
52 4 1.46813 7.4937 6.71246 3.94613
54 4 0.964084 11.8676 5.58353 7.16771
361 2 0.152849 14.697 0.977837 0.81858
66 1 -0.653671 15.1665 4.08659 2.68905
76 1 -0.660787 8.6854 2.96596 5.97705
85 1 -0.592535 13.3562 2.00708 5.4092
89 1 -0.653428 10.5316 3.97978 2.57767
90 1 -0.657924 10.8977 1.35604 7.6217
91 1 -0.648656 10.4236 4.49742 8.26183
162 3 -0.787033 11.1772 2.6982 0.182511
163 3 -0.747344 13.0387 4.99219 0.918775
164 3 -0.839543 7.1254 5.15737 3.42358
166 3 -0.80966 10.0525 5.37675 0.183113
165 3 -0.829535 6.31958 7.22523 4.88672
167 3 -0.762621 12.8153 4.64226 6.22997
193 2 0.143077 16.8116 1.54315 0.501784
222 2 0.139173 15.4551 2.92543 2.73001
171 3 -0.797989 9.06203 6.72951 4.85602
172 3 -0.768576 12.2984 6.66487 8.22067
241 2 0.143298 8.98994 0.88008 3.92651
214 2 0.0560762 10.0797 5.67041 6.78993
343 2 0.0468293 14.7766 4.48185 4.00301
246 2 0.168772 9.10592 1.93242 5.62663
247 2 0.160137 9.38963 3.58213 6.8028
248 2 0.197437 8.29896 3.64103 5.07113
270 2 -0.0215463 14.7918 2.7911 6.49092
271 2 0.128401 13.0444 2.08205 4.12843
272 2 0.173434 12.421 1.64459 6.07254
282 2 0.179574 11.4543 4.47396 3.10235
283 2 0.17736 10.4612 2.88326 2.8737
284 2 0.213446 9.61118 4.58417 2.77073
170 3 -0.731127 11.535 7.44343 4.35823
286 2 0.124289 11.8256 2.02206 8.08155
287 2 0.174825 10.1451 1.92155 6.97287
346 2 0.0958174 7.44656 4.83666 0.482094
289 2 0.167968 10.5879 3.30787 8.0123
351 2 0.260701 14.2872 4.40881 1.92981
219 2 -0.00179472 14.7904 1.07239 5.88562
290 2 0.191673 9.34338 4.76849 8.12434
168 3 -0.832655 7.23533 6.57206 8.2858
360 2 0.188385 10.1394 0.246703 2.05006
355 2 0.257847 12.5458 7.31368 7.42166
56 4 1.14121 10.2322 7.70831 4.82924
285 2 0.180172 11.2445 0.356799 7.05222
352 2 0.314029 13.1781 4.88327 0.00483542
6 4 1.27244 15.8269 2.4923 14.9285
159 3 -0.855853 9.75356 3.33709 16.7486
46 4 1.11608 10.2425 0.785773 9.37109
350 2 0.213019 17.0882 3.55877 15.8143
49 4 1.31335 10.628 2.5316 15.6064
50 4 1.09329 15.9321 1.77807 10.8871
277 2 0.157129 12.2885 1.59604 10.2693
55 4 1.26312 7.57443 7.70119 9.39537
58 4 1.06248 9.804 6.71855 11.6295
86 1 -0.6866 11.3337 3.64937 14.1846
45 4 1.40302 13.5969 2.30205 16.7241
88 1 -0.630895 14.5108 2.68817 10.5134
94 1 -0.650284 11.3484 5.97849 10.9461
95 1 -0.656175 8.90927 5.44761 12.8757
153 3 -0.828201 14.3404 2.84705 15.2933
156 3 -0.836466 16.2786 1.10717 14.4987
302 2 0.164367 8.48526 6.09582 13.7866
288 2 0.182236 10.8234 4.9375 9.31514
158 3 -0.74758 11.9405 1.65069 16.3341
87 1 -0.650161 11.8782 0.567104 10.4184
160 3 -0.829751 17.2763 2.33584 10.2725
53 4 0.984752 10.711 6.62689 17.1866
174 3 -0.771733 8.65811 7.11291 10.4223
205 2 -0.0205405 9.32873 3.76609 11.9477
273 2 0.224615 12.4374 3.60548 14.1825
274 2 0.138671 10.9658 4.64898 14.6169
275 2 0.165375 10.8799 3.34814 13.2378
176 3 -0.774493 10.3737 8.09067 17.4292
279 2 0.173517 13.5997 2.53346 11.2829
280 2 0.0641801 14.4835 1.75981 9.36372
281 2 0.165113 14.7386 3.76278 10.0772
347 2 -0.0342935 10.3807 6.1669 15.6057
109 3 -0.772827 16.8367 3.78889 14.7936
294 2 0.169032 8.81359 7.13189 15.1017
297 2 0.266552 11.6582 6.24206 9.82923
298 2 0.123333 10.9777 4.84113 11.085
299 2 0.194693 12.1247 6.32221 11.7203
300 2 0.137395 9.82778 4.67789 13.2926
186 3 -0.742416 10.4155 8.05344 12.5264
161 3 -0.824752 15.7631 0.701413 12.0727
44 4 1.30803 6.32161 13.9442 0.926449
59 4 1.22769 8.22977 8.49434 1.34345
60 4 1.33911 5.67845 12.7825 3.86077
310 2 0.194697 5.96673 10.424 4.28698
63 4 0.818425 7.55408 14.2401 6.26061
340 3 -0.745233 9.34749 11.6624 0.334714
325 2 0.152778 11.7537 12.2817 0.458064
92 1 -0.641116 9.88674 9.42022 5.32284
96 1 -0.675702 9.95275 9.15983 1.64511
97 1 -0.61203 11.5203 11.6947 3.59182
98 1 -0.647507 6.61409 11.1175 3.67488
336 1 -0.682514 2.53825 14.5486 1.45785
177 3 -0.792781 5.74669 13.4539 2.32998
363 2 0.250056 9.35401 13.6482 6.17444
179 3 -0.766197 7.39047 9.88179 1.02754
218 2 0.073068 5.23441 13.5206 8.468
183 3 -0.74983 8.7449 13.4751 6.97875
184 3 -0.770043 6.66931 13.4918 4.96827
217 2 0.0269491 5.18998 10.2099 2.74158
178 3 -0.864537 4.20838 12.4759 4.34146
180 3 -0.777704 6.96235 12.6237 0.0830016
220 2 0.00271765 6.58952 14.3918 7.72113
84 1 -0.657727 7.88423 14.9564 1.35024
291 2 0.188733 10.6299 10.396 4.68235
292 2 0.13723 10.2238 9.23802 6.52196
293 2 0.179667 8.76735 9.53186 5.08588
303 2 0.252981 9.8522 10.295 1.14816
304 2 0.173677 10.5327 8.4646 0.986181
305 2 0.187763 10.2018 9.0779 2.72832
306 2 0.155754 11.7514 11.4184 2.46706
307 2 0.135159 10.4179 12.2078 3.94253
308 2 0.18844 7.5639 11.4517 4.29926
309 2 0.260518 6.88454 10.6297 2.52626
175 3 -0.823226 7.759 7.71819 2.70367
311 2 0.235555 7.55139 13.2236 8.57545
269 2 0.18345 8.78565 14.294 1.01439
215 2 -0.00198595 8.27507 8.9413 8.49944
337 2 0.274162 2.61675 14.9242 0.387793
194 2 0.114776 12.9965 7.83947 3.84381
362 2 0.1757 7.65092 15.0759 2.46904
338 2 0.22678 2.81027 13.444 1.56709
319 2 0.209292 7.9197 11.9557 16.2449
48 4 1.22314 8.74846 14.9923 13.4399
64 4 0.910772 10.1535 9.40846 13.2583
65 4 1.27935 6.67723 12.9693 14.4868
187 3 -0.805464 6.08558 12.0659 13.2274
99 1 -0.65235 6.66407 13.1375 9.22461
100 1 -0.640183 10.1854 10.5881 11.8642
101 1 -0.684039 8.20317 11.9543 15.0901
320 4 0.932165 13.3789 13.6018 15.7523
185 3 -0.760257 8.35174 9.22441 13.9841
62 4 1.03988 4.98632 11.9153 9.40343
364 2 0.126104 11.1969 13.5178 15.4021
188 3 -0.756486 7.1978 14.3605 13.9737
199 2 -0.0383759 12.6911 10.77 10.4793
326 2 0.139447 12.0256 11.6549 15.3535
348 2 -0.00128698 10.0009 11.6172 15.8156
365 2 0.168425 12.2665 12.716 13.7442
221 2 -0.0366087 11.2753 9.76899 14.4783
357 2 0.172498 14.0053 11.4711 17.0168
344 2 -0.0282148 9.82943 13.7209 13.355
278 2 0.168278 5.5835 14.5915 9.90919
198 2 -0.0339459 12.4174 13.3249 10.2736
322 1 -0.653172 12.083 12.7203 14.8797
318 2 0.237053 8.19525 10.8517 14.6474
312 2 0.0610195 6.60347 11.4188 9.98451
313 2 0.183963 6.77737 13.7309 10.1531
314 2 0.176032 9.03292 10.8725 11.8603
315 2 0.178065 10.5964 10.2304 10.8728
316 2 0.106349 10.8606 11.4182 12.4399
317 2 0.133242 9.12701 12.5747 14.7684
57 4 1.03363 7.00945 8.54045 14.5066
189 3 -0.785387 5.74328 13.0612 16.042
276 2 0.23799 4.56563 15.269 11.4822
230 2 0.147893 13.8681 9.53793 8.91202
231 2 0.190743 15.0782 7.9639 9.03659
61 4 1.14577 10.1074 12.2484 17.4379
239 2 0.170204 15.4126 9.33269 15.0885
ITEM: TIMESTEP
100
ITEM: NUMBER OF ATOMS
365
ITEM: BOX BOUNDS xy xz yz pp pp pp
-6.9345999999999997e+00 1.9702400000000001e+01 -6.9345999999999997e+00
0.0000000000000000e+00 1.5863300000000001e+01 2.0880000000000001e+00
0.0000000000000000e+00 1.7458378600000003e+01 8.7949999999999995e-01
ITEM: ATOMS id type q x y z
224 2 0.137775 -1.56351 5.62208 5.45256
2 4 1.18382 1.24061 2.47422 0.895928
4 4 0.984157 2.73629 4.00545 5.45479
8 4 0.806815 -0.92463 4.66171 2.05046
10 4 1.29554 1.56297 5.17957 8.06797
256 2 0.151781 3.6709 4.87163 2.69105
21 4 1.41806 4.77169 2.05448 4.6441
22 4 1.49569 6.54098 2.28385 0.130675
25 4 1.10425 6.9748 2.90361 6.48932
29 4 1.26515 5.98067 4.37084 2.84338
32 4 1.48279 6.02994 5.60985 8.07576
34 4 1.49455 5.03145 7.53324 5.98228
68 1 -0.666405 -0.904741 6.25926 6.13828
74 1 -0.672765 7.90103 0.909543 3.84927
78 1 -0.655264 1.39759 6.73336 3.11107
79 1 -0.693939 4.51137 5.61734 2.89307
102 3 -0.732274 2.18905 1.4968 2.18677
105 3 -0.77703 0.152149 3.55826 1.53117
107 3 -0.859389 2.18879 4.60168 6.77823
353 2 0.143006 -0.71118 7.05769 1.08742
255 2 0.262915 4.23583 6.40766 3.67321
119 3 -0.793407 4.40712 0.719669 3.70314
120 3 -0.767708 3.16879 2.52158 5.49207
121 3 -0.812314 6.92631 0.909941 1.11627
123 3 -0.830761 5.97419 1.87563 5.85488
129 3 -0.871789 5.34357 3.20119 3.73595
130 3 -0.785909 6.45843 3.72835 1.05099
133 3 -0.854351 6.5656 4.20614 7.22739
135 3 -0.820442 3.55825 7.59323 4.74821
136 3 -0.835636 4.94411 6.40846 7.08557
191 2 0.0237566 3.93605 4.98085 4.67927
192 2 -0.0246975 1.43486 3.92401 4.33406
257 2 0.150732 4.89266 6.18052 1.88165
204 2 0.0255812 8.10841 1.9868 7.42128
206 2 -0.00403983 -0.157738 5.50322 3.3645
241 2 0.16784 8.95105 0.693166 4.15344
67 1 -0.659034 -1.31535 6.15456 0.817534
1 4 1.30942 3.19959 0.288076 2.73001
225 2 0.162875 -1.37838 6.45121 7.20129
226 2 0.139384 0.273401 5.93148 5.99654
242 2 0.232909 7.10655 0.504085 4.57961
260 2 0.175136 3.3972 6.06841 1.25874
195 2 0.00195938 -0.0780247 5.36514 7.70397
252 2 0.130664 1.41518 5.87473 3.84006
253 2 0.165194 1.93907 6.54713 2.01288
254 2 0.168298 0.357933 7.13714 2.93355
331 2 0.17732 0.360354 0.281148 0.988498
330 1 -0.678546 0.228413 1.10292 0.168518
80 1 -0.647707 2.79825 6.28105 0.199221
354 2 0.172547 -2.43705 6.27324 0.59146
240 2 0.194235 7.72623 1.96694 3.52248
342 2 0.00191114 -2.70846 7.20925 1.70709
134 3 -0.823689 2.05538 6.51254 8.64385
259 2 0.150375 1.64178 6.17471 0.335241
190 2 -0.0101125 1.40916 1.71429 8.66649
3 4 1.23243 1.1179 2.72467 10.0081
5 4 1.38842 4.28871 0.99077 14.3667
7 4 1.49664 3.17035 3.01223 12.1776
12 4 1.04544 1.95278 5.52663 13.9697
345 2 0.107402 0.383314 4.89758 14.3893
24 4 1.29138 5.62045 3.48896 10.2492
93 1 -0.690488 7.73588 6.85736 15.6609
27 4 1.29674 5.75353 3.24764 16.2514
28 4 1.25386 8.33463 2.52811 11.3467
155 3 -0.788627 9.27365 1.90671 10.0796
265 2 0.167223 4.85892 6.80621 13.247
69 1 -0.631673 3.10116 5.71473 15.4717
77 1 -0.68128 5.95374 4.38654 14.7084
106 3 -0.805342 1.44228 4.11375 9.3628
82 1 -0.678279 5.05038 6.77576 12.1627
103 3 -0.822539 2.10767 2.33495 11.2874
104 3 -0.782987 3.37958 2.03207 13.5349
358 2 0.222707 5.74931 1.21384 12.3197
295 2 0.170281 7.25371 5.89577 15.355
110 3 -0.773596 2.61339 4.50376 12.908
111 3 -0.804206 1.83359 7.03921 13.5372
122 3 -0.85264 4.62537 3.16723 11.366
124 3 -0.783613 5.13576 1.88461 15.426
125 3 -0.813623 7.09444 2.92397 16.9847
126 3 -0.746099 4.56275 3.96852 17.2797
127 3 -0.851187 7.1055 3.27647 10.7558
128 3 -0.876252 8.09252 1.46082 12.4562
132 3 -0.775212 5.47527 5.04398 9.6703
296 2 0.186319 7.45972 7.26033 16.7067
157 3 -0.811021 9.8477 1.39511 14.5466
301 2 0.168562 8.0983 4.94737 12.3828
203 2 -0.0234338 5.32301 2.47626 9.00832
263 2 0.19119 6.13845 6.40639 11.9082
227 2 0.173112 3.29104 6.80346 15.7209
228 2 0.20167 4.13327 5.16272 15.1824
229 2 0.162502 2.45692 5.21099 16.2445
332 2 0.206044 2.87561 1.7397 16.6821
249 2 0.168923 7.04158 4.05852 14.4694
250 2 0.140733 5.79126 5.54558 14.7024
251 2 0.208204 5.21092 3.87206 13.9614
258 2 0.202687 5.32812 6.55747 16.8836
264 2 0.247991 4.35827 6.09451 11.5554
216 2 0.0113244 6.46435 7.65834 13.2356
223 2 0.153856 1.30129 6.50725 17.4143
11 4 1.20327 -0.869691 8.01642 5.49729
14 4 1.06231 -5.03079 12.62 4.07459
15 4 1.00268 -1.63594 9.85237 8.11784
17 4 1.24911 -2.56184 12.4419 6.15956
23 4 0.986902 1.86145 13.3222 7.88711
30 4 1.34531 2.21159 8.15858 4.089
36 4 1.24023 3.60427 9.98559 1.9122
37 4 1.24631 0.0249948 12.4007 3.87433
39 4 1.50732 3.90728 9.93519 7.2165
40 4 1.52396 2.8422 12.2773 5.25324
112 3 -0.76284 -4.71447 14.0728 3.54737
72 1 -0.656783 -2.81405 14.2038 6.74049
75 1 -0.680847 0.158477 14.0467 7.45878
113 3 -0.755277 -1.28691 8.90957 6.83591
114 3 -0.739657 -4.01642 12.0247 5.2485
115 3 -0.778842 -2.39381 11.5342 7.36999
131 3 -0.748549 0.771903 8.34017 4.88809
138 3 -0.795463 2.52179 9.42901 2.99911
139 3 -0.788505 3.81629 8.74679 0.792777
140 3 -0.807909 -0.136394 13.5172 2.628
141 3 -0.766514 -1.15482 12.5313 4.9834
142 3 -0.845829 3.33338 11.305 1.04993
143 3 -0.827953 2.63011 8.95734 7.74762
144 3 -0.822671 5.15546 9.01816 6.72528
145 3 -0.84389 1.4856 12.4106 4.39253
146 3 -0.788511 3.23167 10.7518 5.85723
147 3 -0.820227 2.63195 13.3214 6.48817
181 3 -0.872371 4.36241 11.0291 8.37971
359 2 0.152127 1.24783 9.64448 0.506903
209 2 0.00125228 -0.190015 10.9259 3.20302
338 2 0.215712 2.75618 13.4313 1.71805
108 3 -0.76125 -2.12202 8.12841 4.20855
235 2 0.151488 -2.8359 14.1933 7.85491
236 2 0.193412 -3.87249 14.3951 6.24079
202 2 -0.0157398 1.5327 11.7617 8.50521
245 2 0.226756 0.169964 13.9542 6.36161
232 2 0.203459 1.06515 9.91113 8.40375
9 4 0.623366 -3.13808 8.21272 3.09462
329 2 0.159199 -3.05115 13.2255 1.36147
327 1 -0.665775 -3.02509 14.3699 1.21502
20 4 1.16138 0.574312 14.9 2.22848
349 2 0.244422 -1.94406 14.8566 1.20051
244 2 0.14194 -0.526784 13.3103 8.01715
243 2 0.173533 0.0805444 15.0992 7.78853
328 2 0.199995 -3.67829 14.7276 0.356059
356 2 0.228295 -1.88539 14.7332 6.23575
197 2 0.0630523 -3.28825 11.8285 8.69816
234 2 0.111291 -0.172835 11.539 8.54004
16 4 0.587014 -3.98299 12.2112 10.2362
18 4 1.18996 -0.292908 10.7384 14.5941
19 4 0.884867 -1.79662 11.3226 11.5739
31 4 1.03127 5.06496 9.02418 17.1148
324 2 0.172658 -2.14401 12.702 17
38 4 0.961937 4.82732 12.8112 17.2286
41 4 1.26236 4.85113 10.8989 13.3866
42 4 1.00054 1.25997 13.2077 15.2793
43 4 1.29801 3.12282 13.0359 12.0071
73 1 -0.644614 -1.80234 10.1383 15.4396
81 1 -0.689828 3.29584 9.86251 16.9903
83 1 -0.67555 1.33374 12.7054 11.4062
116 3 -0.756081 0.857872 9.46474 14.0169
117 3 -0.789981 -2.9435 12.3709 11.323
118 3 -0.729067 -1.03338 11.2799 12.9616
238 2 0.147903 -1.31656 9.32917 16.1709
148 3 -0.814874 4.7335 9.72025 12.3692
149 3 -0.838663 0.424428 11.9208 15.3832
150 3 -0.832876 0.882278 14.4967 14.5338
151 3 -0.821147 3.4936 11.7525 13.485
152 3 -0.81967 3.07443 14.4693 12.6252
33 4 1.29423 2.42792 8.02004 9.05379
173 3 -0.787884 6.03185 8.92077 15.421
182 3 -0.832386 3.96271 12.5712 10.7916
334 2 0.214341 -2.01428 14.5101 12.4318
169 3 -0.83034 6.2731 8.23511 10.2165
35 4 1.29044 4.90619 8.26071 11.0134
200 2 -0.00650006 -0.718509 11.7161 10.2884
335 2 0.285136 -0.505217 14.9634 13.5988
201 2 0.00882537 -1.93766 9.67733 10.8411
208 2 0.0719561 3.24706 9.19805 12.699
210 2 0.0732122 5.01006 10.062 14.7929
211 2 0.0886268 2.7717 12.5668 14.6533
212 2 -0.0424957 3.40882 11.8524 16.9811
213 2 -0.0433839 1.74785 13.6886 16.7885
13 4 0.934894 1.75577 8.51222 13.0607
237 2 0.169624 -2.31279 11.081 16.0562
26 4 1.41194 1.91795 15.5083 13.4875
207 2 -0.0109954 0.96014 8.70269 9.65664
262 2 0.157032 3.04601 10.3906 16.0061
266 2 0.17723 1.07922 11.9156 12.2652
267 2 0.152814 1.37894 12.2182 10.3818
268 2 0.190728 0.902251 13.7463 11.4724
71 1 -0.663982 0.184587 10.4179 9.06
261 2 0.142153 2.73248 8.86811 17.1106
323 3 -0.797689 -3.37692 14.7734 15.0082
333 1 -0.65983 -1.47797 15.2888 12.9915
321 1 -0.64434 -3.24745 12.5879 17.0443
196 2 -0.0501612 1.24683 8.67033 11.4915
70 1 -0.64851 -2.74239 9.13706 9.29945
233 2 0.120157 0.534544 10.5317 10.1552
154 3 -0.770498 2.62875 14.4399 9.07021
137 3 -0.86993 3.52802 8.18588 10.1656
198 2 -0.0403161 -4.78618 13.6334 9.86829
341 2 -0.0017743 4.05275 14.3224 17.4452
339 3 -0.793677 12.341 0.144787 0.0944148
47 4 0.731461 13.7525 3.6505 5.37971
51 4 1.18787 11.1267 4.15732 0.883914
52 4 1.47519 7.52798 6.70634 4.09599
54 4 0.93083 11.8616 5.48728 7.24484
361 2 0.161803 14.5656 1.16087 1.13416
66 1 -0.639538 15.0208 4.06367 2.66691
76 1 -0.666604 8.8106 2.94242 5.86817
85 1 -0.619881 13.4774 1.96205 5.61246
89 1 -0.652195 10.4281 3.79248 2.57906
90 1 -0.678998 10.9647 1.56217 7.82062
91 1 -0.660485 10.2127 4.64452 8.18119
162 3 -0.772836 11.2404 2.622 0.170406
163 3 -0.746257 12.921 5.10038 1.05129
164 3 -0.829144 7.19443 5.08319 3.51427
166 3 -0.828871 10.0412 5.05556 0.187236
165 3 -0.840715 6.33434 7.24748 5.0213
167 3 -0.766598 12.7991 4.56119 6.26499
193 2 0.159202 16.7704 1.47487 0.0583676
222 2 0.154151 15.1536 2.9307 2.54122
171 3 -0.801976 8.98108 6.64139 4.86699
172 3 -0.76198 12.29 6.75405 8.15531
285 2 0.168079 11.1991 0.525248 7.40281
214 2 0.0661318 10.1715 5.55202 6.57216
343 2 0.0225184 15.0419 4.58212 4.25526
246 2 0.173592 9.48871 2.12223 5.52035
247 2 0.166017 9.32791 3.60189 6.71481
248 2 0.193239 8.38143 3.68949 4.89985
270 2 0.00385389 15.0216 2.71115 6.29391
271 2 0.127775 12.8889 1.86795 4.40948
272 2 0.17803 12.7584 1.85077 6.452
282 2 0.193869 10.8654 4.74822 3.09963
283 2 0.169029 10.7983 2.86043 3.06364
284 2 0.200345 9.28811 3.77429 2.5984
170 3 -0.725802 11.3455 7.47627 3.88626
286 2 0.143451 11.8783 2.17529 8.10945
287 2 0.169577 10.1134 2.06687 7.15508
346 2 0.101129 7.38025 4.95067 0.552635
289 2 0.176144 10.4585 3.48842 8.04369
351 2 0.265421 14.1624 4.5656 2.0139
219 2 0.0191766 14.9801 0.872653 5.7734
290 2 0.208662 9.11061 4.76397 8.11559
168 3 -0.829781 7.23112 6.60424 8.48177
56 4 1.07615 10.2794 7.68996 4.76379
355 2 0.251613 12.393 7.39247 7.33087
176 3 -0.82091 8.42614 7.28934 0.0740566
352 2 0.295644 13.09 4.94165 0.102422
84 1 -0.665429 14.9156 0.0796586 1.27523
360 2 0.166638 9.79542 0.181861 2.55281
6 4 1.26191 15.8442 2.56105 14.8432
159 3 -0.859215 9.64524 3.2878 16.4567
46 4 1.16133 10.2683 0.818121 9.44138
350 2 0.243586 17.1082 3.58974 15.7736
49 4 1.28844 10.6021 2.4491 15.4286
50 4 1.06087 15.8111 1.78037 10.7366
277 2 0.14332 12.2022 1.66071 10.1296
55 4 1.31174 7.59276 7.74591 9.52202
58 4 1.07215 9.83379 6.68784 11.6889
86 1 -0.683036 11.2854 3.75924 14.2595
45 4 1.51973 13.5535 2.15275 16.7175
88 1 -0.618285 14.4212 2.75863 10.3119
94 1 -0.654261 11.3834 5.95151 10.8999
95 1 -0.66397 8.86633 5.45746 12.9987
153 3 -0.849313 14.4339 2.65139 15.4549
156 3 -0.788897 16.4941 1.1517 14.7766
302 2 0.163623 8.38103 6.05142 13.8838
288 2 0.171976 10.6191 5.16722 9.26129
158 3 -0.77503 12.0694 1.59507 16.3643
161 3 -0.840902 15.715 0.888033 12.0578
160 3 -0.82178 17.1556 2.4308 10.1849
53 4 0.988747 10.8088 6.64175 17.276
174 3 -0.794366 8.67426 7.286 10.591
205 2 -0.0193987 9.33983 3.83683 11.941
273 2 0.191709 12.4403 3.74569 14.4663
274 2 0.159333 10.7722 4.71232 14.6687
275 2 0.15027 11.0211 3.57781 13.1753
87 1 -0.654379 11.8124 0.615708 10.4796
279 2 0.159397 13.7392 2.74034 11.3373
280 2 0.0711699 14.1105 1.65004 9.39062
281 2 0.16249 14.739 3.84061 9.82017
347 2 -0.0213218 10.6495 6.26201 15.7053
109 3 -0.798641 16.7947 3.92073 14.8394
294 2 0.148206 8.84005 6.91861 15.4352
297 2 0.25665 11.7479 6.29413 9.84364
298 2 0.118684 10.9452 4.8338 10.9119
299 2 0.180297 12.1808 6.03269 11.7493
300 2 0.151878 9.72928 4.74276 13.3895
186 3 -0.767943 10.3928 7.8193 12.756
44 4 1.34178 6.38461 14.0803 0.896774
59 4 1.28021 8.09892 8.38896 1.31064
60 4 1.32931 5.67963 12.8359 3.8193
310 2 0.19204 5.96798 10.5037 4.23047
63 4 0.858639 7.37338 14.228 6.3034
340 3 -0.738453 9.25759 11.6303 0.260746
194 2 0.116965 12.8665 7.76879 3.63513
92 1 -0.675822 9.93486 9.44634 5.15938
96 1 -0.653892 9.78594 9.11071 1.60423
97 1 -0.63748 11.4787 11.665 3.32675
98 1 -0.674817 6.61969 11.143 3.5664
336 1 -0.652611 2.45729 14.4937 1.62828
177 3 -0.786985 5.82088 13.702 2.40114
363 2 0.286702 8.82061 13.0094 6.2111
179 3 -0.770174 7.31413 9.81308 1.04668
218 2 0.0610493 4.8627 13.6715 8.4051
183 3 -0.779658 8.56517 13.475 7.04964
184 3 -0.783498 6.54189 13.4997 5.06049
217 2 0.0362507 5.05746 10.1797 2.77384
178 3 -0.80991 4.22812 12.5734 4.34342
180 3 -0.757749 6.87331 12.7597 0.0533498
220 2 0.00492997 6.19735 14.4697 7.65745
61 4 1.12088 7.91872 11.3328 0.0116343
291 2 0.195126 10.514 10.2582 4.52197
292 2 0.130728 10.2124 9.38652 6.33431
293 2 0.166621 8.75938 9.41652 5.04423
303 2 0.247024 9.76008 10.1899 1.06364
304 2 0.191959 10.4551 8.33679 1.12203
305 2 0.195417 10.0398 9.23438 2.7149
306 2 0.140431 12.0404 11.2637 2.30421
307 2 0.170189 10.4191 12.0144 3.3561
308 2 0.167983 7.59292 11.4947 4.06353
309 2 0.266265 6.90354 10.6432 2.56454
175 3 -0.804501 7.63244 7.65972 2.73358
311 2 0.239608 7.33975 13.1425 8.45557
269 2 0.185087 8.82911 14.807 0.604785
362 2 0.173945 8.14876 14.6508 2.35126
325 2 0.155091 11.5823 12.4212 0.478803
337 2 0.257318 2.73392 14.9745 0.545173
215 2 -0.0108032 8.25061 9.02496 8.70302
319 2 0.216893 7.80294 11.9396 16.296
48 4 1.16959 8.89379 15.1274 13.4177
64 4 0.920256 10.0748 9.25352 13.381
65 4 1.21024 6.70999 12.8476 14.4922
187 3 -0.790296 6.13542 11.8365 13.2345
99 1 -0.655099 6.47404 13.2096 9.14863
100 1 -0.659028 10.0666 10.5713 12.0316
101 1 -0.695525 8.20926 11.9411 15.1878
320 4 0.918399 13.4731 13.4895 15.7052
185 3 -0.782552 8.37414 9.24387 14.1274
62 4 1.09295 4.75899 12.0961 9.4282
364 2 0.138641 11.2511 13.4708 15.2747
188 3 -0.71544 7.46805 14.4923 13.8791
199 2 -0.0503313 12.4705 11.0392 10.544
326 2 0.142792 12.0904 11.6326 15.0134
348 2 0.00507276 10.0349 11.6328 15.8244
365 2 0.15844 12.3251 12.9156 13.5871
221 2 -0.0365257 11.2564 9.62436 14.497
357 2 0.1474 14.0867 11.4301 17.123
344 2 -0.0262484 10.0391 13.9467 13.3284
278 2 0.167644 5.44249 14.7011 9.89579
239 2 0.169473 15.1322 9.64251 14.7047
322 1 -0.654215 12.1796 12.7305 14.7396
318 2 0.255698 8.37885 10.874 14.7585
312 2 0.0753711 6.49991 11.6384 10.0371
313 2 0.175306 6.69085 13.8076 10.0829
314 2 0.194536 9.05168 11.0409 11.965
315 2 0.17031 10.3606 9.94211 11.129
316 2 0.112908 10.9619 11.2197 12.4902
317 2 0.161892 8.98072 12.6956 15.0116
57 4 1.06473 7.19983 8.34073 14.5872
189 3 -0.804355 5.70008 12.8715 15.8494
276 2 0.240069 4.85695 15.469 11.6068
230 2 0.155229 13.8625 9.55036 9.27687
231 2 0.186936 14.9636 8.01239 9.10977
ITEM: TIMESTEP
200
ITEM: NUMBER OF ATOMS
365
ITEM: BOX BOUNDS xy xz yz pp pp pp
-6.9345999999999997e+00 1.9702400000000001e+01 -6.9345999999999997e+00
0.0000000000000000e+00 1.5863300000000001e+01 2.0880000000000001e+00
0.0000000000000000e+00 1.7452557200000001e+01 8.7949999999999995e-01
ITEM: ATOMS id type q x y z
224 2 0.148914 -1.65174 5.7511 5.16721
2 4 1.25121 1.44314 2.38594 0.974779
4 4 1.00112 2.70073 4.03075 5.37982
8 4 0.827295 -0.918697 4.70837 1.97995
10 4 1.33078 1.59872 5.19779 7.96397
256 2 0.143403 3.73145 4.81082 2.6606
21 4 1.42372 4.72753 2.04611 4.70136
22 4 1.48832 6.52489 2.33905 0.0959058
25 4 1.11418 7.08776 2.89866 6.44135
29 4 1.27973 5.98377 4.36373 2.84868
32 4 1.51381 6.06944 5.50735 8.03299
34 4 1.53543 4.99119 7.5163 6.00548
68 1 -0.678444 -1.01604 6.23374 5.93255
74 1 -0.66553 7.84999 0.875786 3.8112