ITEM: TIMESTEP
0
ITEM: NUMBER OF ATOMS
365
ITEM: BOX BOUNDS xy xz yz pp pp pp
-6.9345999999999997e+00 1.9702400000000001e+01 -6.9345999999999997e+00
0.0000000000000000e+00 1.5863300000000001e+01 2.0880000000000001e+00
0.0000000000000000e+00 1.7464200000000002e+01 8.7949999999999995e-01
ITEM: ATOMS id type q x y z element
2 4 1.02875 2.36461 2.29426 1.04656 Si
4 4 0.687499 3.18577 3.25662 5.38431 Si
8 4 0.267681 0.001197 3.73901 2.03159 Si
10 4 1.11911 2.94405 5.41571 7.39031 Si
68 1 -0.130075 -1.37537 6.69438 5.7159 C
78 1 -0.0965899 1.53564 6.00246 3.69618 C
105 3 -0.667869 1.61384 3.52057 1.77467 O
107 3 -0.731572 2.47066 4.51884 6.08646 O
191 2 0.0923871 2.37825 3.33604 3.75188 H
192 2 0.0094835 2.86655 1.81315 6.24726 H
193 2 -0.0365116 1.28008 0.916913 0.953548 H
224 2 0.0539588 -0.467035 6.35285 6.27144 H
225 2 0.0264763 -1.49616 6.28066 4.71746 H
106 3 -0.757805 2.97865 4.40256 8.64265 O
252 2 0.0392271 0.644131 6.47401 3.31277 H
253 2 0.0877686 1.4627 5.7268 4.74762 H
254 2 0.0972807 1.99509 5.26546 3.08469 H
134 3 -0.747847 1.92758 7.06955 7.51265 O
363 2 0.0105952 0.750859 1.52668 7.37114 H
67 1 -0.102326 -1.14401 5.04099 0.932199 C
66 1 -0.124333 -0.757603 3.36503 3.47343 C
354 2 0.0656743 -1.1545 6.05183 1.29228 H
112 3 -0.748172 2.41339 0.533764 3.91712 O
222 2 0.0319961 -0.89306 4.15448 4.19892 H
30 4 0.79649 2.84126 7.51798 3.76326 Si
139 3 -0.722658 4.07724 7.09882 0.484966 O
23 4 0.551548 9.35888 0.580181 7.98783 Si
240 2 0.114088 8.37638 1.37399 3.26016 H
102 3 -0.739568 3.65316 1.84374 2.01492 O
356 2 0.0526949 4.5103 0.52303 7.14967 H
136 3 -0.693047 4.83459 5.96207 7.08749 O
130 3 -0.683017 7.19389 2.83051 0.894774 O
133 3 -0.71715 7.16384 4.31925 7.31189 O
135 3 -0.77237 4.30069 7.01871 4.19626 O
129 3 -0.736077 7.11599 2.82586 3.80527 O
123 3 -0.723746 6.72158 1.81352 6.2867 O
1 4 1.04015 3.87893 0.681761 3.12725 Si
120 3 -0.720055 4.78573 3.3991 5.08227 O
255 2 0.11823 4.86865 4.97489 3.42602 H
34 4 1.26502 5.36224 6.98281 5.37943 Si
257 2 0.0512947 5.10122 5.24674 1.6827 H
256 2 0.129229 4.593 3.59425 2.26924 H
21 4 1.33292 5.91336 2.20665 4.8167 Si
25 4 0.687989 7.72746 2.83368 7.08176 Si
29 4 0.839074 7.05886 3.82454 2.55087 Si
32 4 1.33722 6.22207 5.2079 8.33235 Si
119 3 -0.783679 5.14144 0.940834 4.09618 O
79 1 -0.0769493 5.10124 4.51994 2.49213 C
204 2 0.0925985 7.88461 2.29798 8.7273 H
3 4 0.999306 1.85709 3.63477 9.55768 Si
7 4 1.14281 3.33116 3.04065 12.1581 Si
12 4 0.805074 1.13215 4.87015 14.4157 Si
13 4 0.582361 -0.451554 7.31462 14.6626 Si
69 1 -0.0809035 2.70742 4.06481 15.5552 C
103 3 -0.736218 2.34041 2.73429 10.8603 O
104 3 -0.714835 2.98427 2.00022 13.5278 O
110 3 -0.681288 2.3184 4.8499 12.7396 O
111 3 -0.645898 0.934766 6.44391 14.8269 O
261 2 0.0405109 4.18392 7.83704 15.3798 H
227 2 0.090095 3.52673 3.93723 14.8768 H
228 2 0.0479223 2.38129 3.1327 15.9685 H
229 2 0.0543571 2.87409 4.74629 16.3666 H
82 1 -0.0867237 4.01787 6.97674 12.1235 C
160 3 -0.716744 0.776207 4.6451 10.1421 O
365 2 0.275137 0.594769 5.40375 9.51507 H
195 2 0.355825 1.64299 4.71742 12.0782 H
353 2 0.0578869 1.43357 5.86133 17.4465 H
263 2 0.0601816 3.30349 7.3961 12.8133 H
265 2 0.115067 3.66395 6.18769 11.4762 H
5 4 0.887377 3.87749 0.787243 14.0686 Si
208 2 0.0261239 -0.8911 6.96845 13.0273 H
196 2 0.0833263 -0.819761 6.8466 16.4304 H
81 1 -0.127058 4.85796 6.99677 15.3993 C
77 1 -0.115084 6.32278 3.71341 14.4178 C
262 2 0.0559039 4.53676 6.18086 16.0191 H
122 3 -0.827916 4.88645 2.90601 11.8273 O
124 3 -0.757039 4.74974 1.20564 15.3083 O
264 2 0.0382428 5.00352 6.82835 12.5352 H
80 1 -0.0970749 7.55733 5.84668 16.7149 C
259 2 0.0732329 6.89753 5.2915 17.3969 H
126 3 -0.783055 5.00655 3.25576 17.0081 O
128 3 -0.77551 8.07557 1.34034 12.9917 O
203 2 -0.00963889 5.17396 1.69995 9.47999 H
251 2 0.0333374 5.57985 4.47936 14.6279 H
127 3 -0.82493 7.33934 2.46637 10.5595 O
250 2 0.033769 7.36877 3.94125 14.5919 H
335 2 0.087784 5.63633 0.765245 12.13 H
125 3 -0.817277 7.13497 1.74849 16.588 O
132 3 -0.781521 5.71518 4.33736 9.59083 O
258 2 0.0241189 7.61798 5.46313 15.6879 H
249 2 0.103571 6.13057 3.1388 13.4957 H
359 2 0.0168581 5.25167 6.67547 14.4527 H
159 3 -0.793963 9.83477 2.13876 16.4709 O
31 4 0.603623 6.51006 7.63779 16.4501 Si
24 4 1.10873 5.82994 2.99061 10.4831 Si
27 4 1.10554 5.79658 2.30994 15.9387 Si
28 4 1.04283 8.45833 2.33258 11.7111 Si
22 4 1.27054 8.55085 1.88827 17.4154 Si
14 4 0.686065 -5.09714 14.2451 4.71482 Si
15 4 0.661728 -2.79638 10.1924 6.80818 Si
17 4 1.02146 -2.6132 13.0699 6.00704 Si
72 1 -0.089973 -1.72774 14.6951 7.19724 C
113 3 -0.661187 -1.36153 9.56586 6.4062 O
114 3 -0.711843 -4.22629 13.4665 5.81963 O
115 3 -0.6785 -2.69046 11.8339 7.07901 O
141 3 -0.809918 -1.60934 12.9011 4.73435 O
9 4 0.304922 -1.08941 10.4201 3.00698 Si
327 1 -0.0892375 -2.72087 13.795 2.0288 C
329 2 0.008557 -3.49952 13.1196 2.31865 H
328 2 0.0713521 -2.81686 14.1763 1.0411 H
349 2 0.133877 -1.72884 13.504 2.3133 H
108 3 -0.624295 -1.48395 9.01037 3.74971 O
235 2 0.128272 -0.816058 14.8005 6.62591 H
194 2 0.0264745 -2.6429 10.9719 2.38124 H
11 4 0.766785 -0.892426 8.60557 5.24331 Si
121 3 -0.742851 -0.282123 14.8197 1.07182 O
326 2 0.00917048 -5.05003 12.5157 0.890814 H
236 2 0.0299677 -1.61096 14.2971 8.20295 H
33 4 1.01034 2.37027 8.207 8.58781 Si
73 1 -0.0652696 0.246025 9.95719 1.5239 C
238 2 0.0936647 0.198152 8.87955 1.53547 H
239 2 0.0286858 -0.176019 10.3501 0.610616 H
142 3 -0.729843 3.43841 9.83118 0.211099 O
310 2 0.0937281 2.99267 11.0769 3.93417 H
350 2 0.339171 1.40402 8.13231 6.16891 H
237 2 0.0939757 1.18072 10.3853 1.8581 H
181 3 -0.751375 4.49796 11.2063 8.1974 O
144 3 -0.712413 5.25862 8.48145 5.85935 O
215 2 0.247659 5.11136 8.54722 7.02264 H
143 3 -0.746831 2.0641 9.77243 8.11673 O
146 3 -0.822714 2.53735 11.7207 6.24985 O
360 2 0.0728357 2.10961 12.2213 0.828227 H
98 1 -0.0788264 4.03858 10.8845 3.68761 C
209 2 0.374229 1.20506 9.60297 6.03257 H
336 1 -0.049994 2.23229 13.2726 0.613533 C
20 4 0.687259 0.932101 14.2107 1.94758 Si
37 4 1.20043 -0.0473088 12.7837 4.41884 Si
145 3 -0.8078 0.932874 13.4654 5.46854 O
36 4 1.03173 3.68167 8.5415 1.20688 Si
39 4 1.08611 3.14562 10.7469 7.38449 Si
40 4 1.18573 2.45423 13.2615 6.00961 Si
140 3 -0.776117 0.416515 13.0185 2.94318 O
131 3 -0.740936 1.2241 8.86115 5.49465 O
138 3 -0.731591 2.69608 8.52132 2.501 O
309 2 0.063687 4.2729 10.5902 2.66216 H
308 2 0.0891733 4.54871 10.293 4.46682 H
18 4 1.01623 0.296469 9.78546 15.8477 Si
201 2 0.0966049 -2.10292 12.7195 16.6306 H
233 2 0.0458414 -2.52199 8.88058 8.91124 H
149 3 -0.69013 -0.0802657 11.3438 15.5627 O
268 2 0.0776575 -0.402087 10.746 12.7137 H
323 3 -0.58955 -4.33521 14.1182 14.3658 O
83 1 -0.0760951 0.202201 11.3489 12.0447 C
150 3 -0.696439 0.192453 14.0613 14.881 O
206 2 0.33915 0.154871 14.7642 15.5634 H
333 1 -0.0918015 -1.82519 14.9189 12.5845 C
322 1 -0.0872038 -2.86178 13.23 17.2113 C
334 2 0.10315 -1.15397 14.2832 13.1323 H
116 3 -0.700753 0.0215946 8.89051 14.5366 O
267 2 0.0493789 -0.285308 12.2108 11.6294 H
118 3 -0.716149 -0.268964 9.33447 17.2961 O
358 2 0.0343463 -2.41029 14.3565 11.8896 H
245 2 0.041853 0.156536 15.334 9.25 H
320 4 0.208984 -4.02846 14.2314 16.3419 Si
232 2 0.0456954 -3.41092 10.4302 9.24806 H
75 1 -0.0950454 1.03903 14.7117 9.27036 C
266 2 0.0801043 0.771321 10.762 11.3402 H
187 3 -0.691456 4.93954 12.0863 12.741 O
244 2 0.047513 0.893046 13.7096 8.87378 H
41 4 0.718383 4.00201 10.7541 12.6086 Si
42 4 0.601303 0.895968 12.6507 15.3393 Si
152 3 -0.634431 2.24525 13.6053 12.8483 O
189 3 -0.667258 5.2434 12.3695 15.5417 O
157 3 -0.749759 3.01285 15.195 14.8124 O
38 4 0.663791 4.91757 10.9058 16.2123 Si
338 2 0.119745 3.89532 14.4426 17.1373 H
169 3 -0.730093 6.21372 8.45247 10.4358 O
148 3 -0.670438 3.49202 10.2798 11.1129 O
182 3 -0.682029 4.09707 12.9747 9.93465 O
62 4 0.80234 4.62773 11.4305 9.78614 Si
35 4 0.716719 4.55594 8.44236 10.6899 Si
243 2 0.0980115 1.58671 14.7749 10.1927 H
341 2 0.0124769 3.20887 10.8483 16.3709 H
43 4 0.414379 1.7396 12.0493 13.2112 Si
151 3 -0.688923 2.7186 10.3928 14.0919 O
26 4 1.16275 1.85626 15.027 13.6736 Si
202 2 0.353114 3.6188 13.0166 10.8184 H
210 2 0.290486 2.06259 9.64799 13.9026 H
213 2 0.0147668 2.09585 12.8773 16.5753 H
212 2 0.00781356 5.36387 9.62496 15.1305 H
137 3 -0.718478 3.83315 8.08278 9.27732 O
207 2 0.0162793 1.25128 8.07923 9.95962 H
51 4 1.00949 10.9291 3.65831 0.611013 Si
52 4 0.730375 7.47417 6.69347 3.35511 Si
54 4 0.596315 10.4395 7.09548 5.58583 Si
89 1 -0.114444 11.217 4.03515 2.66045 C
91 1 -0.0563148 9.40741 6.52515 7.27459 C
162 3 -0.788232 10.8857 2.00123 0.533437 O
164 3 -0.682365 8.26955 4.85633 2.80282 O
176 3 -0.682214 8.27389 7.10919 0.153632 O
248 2 0.10192 9.14792 3.43064 5.01858 H
214 2 0.0530751 9.87026 5.90778 4.46902 H
53 4 0.759855 8.66646 5.62901 0.865569 Si
290 2 0.0525877 10.066 5.84519 7.7888 H
76 1 -0.0813096 9.41757 2.97747 5.95327 C
246 2 0.0494476 9.73569 1.94039 5.89238 H
165 3 -0.722375 6.89011 6.54788 4.8575 O
154 3 -0.653101 10.0887 1.91426 8.58045 O
247 2 0.0610627 10.0733 3.58753 6.57223 H
288 2 0.120219 8.5642 6.05521 6.7863 H
289 2 0.123427 9.12629 7.39156 7.83782 H
282 2 0.046716 11.1225 5.11817 2.74751 H
284 2 0.070189 10.3699 3.46846 3.04882 H
166 3 -0.715456 9.53743 4.41492 0.187395 O
241 2 0.0931249 9.75167 1.05489 2.13927 H
346 2 0.355058 8.19936 2.88605 0.632381 H
217 2 0.275442 5.94361 7.31079 1.51973 H
74 1 -0.079303 9.09844 0.683007 2.90289 C
283 2 0.0315774 12.1861 3.62469 2.84235 H
342 2 0.0293926 16.602 2.30561 3.63146 H
223 2 0.0307027 15.5124 4.60509 0.942787 H
190 2 0.0141425 17.4252 1.64341 7.06773 H
85 1 -0.108831 13.2519 7.39258 3.06312 C
226 2 0.0348983 15.3494 6.68062 6.33668 H
361 2 0.0249135 15.2049 0.23853 1.95129 H
362 2 0.0379976 13.7466 0.810626 2.84372 H
272 2 0.0415412 12.9605 6.34854 3.01052 H
167 3 -0.601159 12.0016 6.75672 5.94824 O
219 2 0.0445027 12.9795 0.348827 6.34156 H
270 2 0.0599586 14.2815 7.58591 2.78952 H
46 4 0.663613 10.888 1.98384 9.98567 Si
49 4 1.08411 10.8372 1.42929 15.457 Si
86 1 -0.104846 11.207 2.9345 13.8892 C
95 1 -0.131111 10.4117 6.8524 10.2211 C
155 3 -0.719861 9.90567 1.77634 11.2818 O
158 3 -0.782787 12.2775 0.999218 16.2499 O
273 2 0.0432514 10.6088 3.78104 14.2153 H
274 2 0.0811302 10.8436 2.41643 13.0037 H
275 2 0.080021 12.2885 3.04092 13.927 H
300 2 0.0138493 11.0818 6.89458 11.0826 H
301 2 0.0238483 10.9006 6.69584 9.26221 H
302 2 0.0698706 9.54169 6.24167 10.3548 H
93 1 -0.123521 8.83505 6.80526 14.0434 C
296 2 0.0670269 9.77954 6.63731 14.5312 H
90 1 -0.134163 12.0753 3.81148 9.99224 C
295 2 0.013246 7.96024 6.31594 14.4405 H
287 2 0.0487271 12.0353 4.17483 8.96291 H
286 2 0.0253029 11.4986 4.37245 10.701 H
294 2 0.0355029 8.88006 6.79656 12.9672 H
87 1 -0.0964669 12.5865 0.851537 10.0481 C
260 2 0.0620919 8.49395 6.1996 17.1412 H
168 3 -0.78191 7.09382 6.48121 8.92798 O
278 2 0.0612372 12.9098 0.999516 11.0503 H
205 2 -0.0311476 8.71838 4.00368 12.2706 H
163 3 -0.755598 14.3239 4.99016 17.2565 O
16 4 0.237958 14.903 7.97724 15.1236 Si
280 2 0.0450926 15.4962 3.91907 10.703 H
198 2 0.0390966 13.7415 6.7024 14.724 H
285 2 0.0162906 13.0483 3.50752 10.3227 H
279 2 0.110104 16.8049 3.17017 11.6144 H
352 2 0.319261 14.3975 6.00816 17.1312 H
281 2 0.0479863 15.9573 2.18805 10.3611 H
45 4 1.25702 13.5002 1.77466 16.9559 Si
332 2 0.0451067 17.1515 3.50902 16.3 H
88 1 -0.0638304 15.9265 3.01166 11.0715 C
109 3 -0.612986 17.3881 4.06671 14.1933 O
6 4 0.640194 15.4581 2.31701 14.7509 Si
153 3 -0.710892 14.138 3.13251 15.3226 O
50 4 -0.0404332 14.5648 2.28715 12.4353 Si
330 1 0.0441172 17.43 3.14293 15.2971 C
331 2 0.069814 18.0702 2.23459 15.2612 H
351 2 0.348169 14.3238 4.03972 15.9532 H
276 2 0.0208373 13.2112 1.33889 9.31467 H
117 3 -0.616315 15.0119 8.04328 16.7018 O
357 2 0.0237511 19.0706 1.24642 17.2746 H
44 4 1.07083 5.95622 13.867 1.29622 Si
60 4 0.99565 4.784 12.9382 3.94117 Si
147 3 -0.69867 3.56742 14.4364 7.6002 O
63 4 0.334835 6.54359 13.6815 6.25893 Si
175 3 -0.689342 6.41328 8.05287 2.08419 O
177 3 -0.769007 4.77054 13.5446 2.42978 O
180 3 -0.727604 6.89994 12.6019 0.895819 O
184 3 -0.651889 6.17808 13.0326 4.8047 O
59 4 0.98936 7.97519 8.47285 1.02321 Si
220 2 0.0968984 5.76705 12.8102 7.5576 H
292 2 0.0871953 6.59413 9.66393 3.86803 H
178 3 -0.73647 3.64424 13.6622 4.90333 O
293 2 0.0995886 7.56247 11.227 4.0087 H
92 1 -0.0760614 7.38801 10.2119 4.36965 C
218 2 0.353797 3.76931 13.7485 8.30352 H
339 3 -0.776812 5.62408 14.8517 0.0546082 O
179 3 -0.717039 8.01801 9.98178 0.420288 O
269 2 0.0927012 7.59261 14.2338 3.32922 H
291 2 0.0863205 7.3939 10.1064 5.42796 H
61 4 0.826036 6.96707 11.2352 0.0265871 Si
337 2 0.114843 3.23387 13.5879 0.760849 H
242 2 0.105517 2.6307 15.0671 3.68126 H
84 1 -0.106549 7.42199 14.9647 2.55414 C
321 1 -0.109165 10.1196 14.3014 0.107318 C
96 1 0.0792682 10.9978 10.2462 1.78285 C
271 2 0.0336226 12.528 8.08683 2.66393 H
325 2 0.015147 10.6443 14.2162 1.05555 H
171 3 -0.697315 9.01075 7.83162 2.82301 O
344 2 0.0606807 12.1328 12.5003 7.82773 H
234 2 0.0142221 13.3237 8.98927 8.54442 H
305 2 0.0969724 10.465 10.7589 1.02464 H
355 2 0.318512 10.4158 11.6895 5.10513 H
345 2 0.0945993 12.8064 12.5101 7.83048 H
97 1 0.0754731 10.8847 13.1557 3.82842 C
306 2 0.0607799 11.4406 12.496 3.08834 H
172 3 -0.63937 10.0088 8.64511 5.20394 O
324 2 0.0741272 9.21855 13.7104 0.109359 H
231 2 0.0719015 12.1021 9.84204 6.28978 H
183 3 -0.565686 10.2592 12.6309 4.91635 O
303 2 0.0493178 11.9168 10.8088 1.91148 H
304 2 0.0728031 11.2614 9.18564 1.48968 H
56 4 0.860071 9.20481 9.13317 3.81785 Si
170 3 -0.558376 10.3457 10.2255 3.12006 O
70 1 -0.110111 13.0071 9.74584 5.71348 C
299 2 0.0559222 11.1096 9.55059 8.0134 H
307 2 0.0557826 10.3637 13.9944 3.29705 H
230 2 0.0617994 13.0613 10.3101 4.80426 H
19 4 0.613514 13.6865 8.24853 0.19037 Si
200 2 -0.0182829 12.8718 9.75846 0.253753 H
47 4 0.311014 13.0241 7.75867 5.18728 Si
71 1 -0.124254 14.2517 9.52928 8.66989 C
173 3 -0.664873 7.33919 8.87001 15.6226 O
65 4 0.818054 5.71082 12.6927 14.0236 Si
156 3 -0.623956 8.49287 15.6329 14.6041 O
99 1 -0.0892907 6.74866 11.4695 10.0658 C
101 1 -0.0876187 7.54076 11.7899 13.8736 C
188 3 -0.640014 5.86086 14.7698 13.6554 O
48 4 0.767758 7.82641 15.004 13.2118 Si
311 2 0.0651243 6.83846 12.275 10.7777 H
312 2 0.0527307 7.05874 11.7292 9.0691 H
313 2 0.107982 6.99421 10.4711 10.4014 H
317 2 0.0884814 7.71107 11.4206 14.8537 H
318 2 0.0724461 8.19065 12.5737 13.5948 H
319 2 0.0522068 7.56966 10.9894 13.1566 H
211 2 0.35329 5.88191 15.046 14.5833 H
57 4 0.649761 8.33458 8.76471 14.3921 Si
161 3 -0.681142 8.88443 14.6965 12.0252 O
186 3 -0.658399 9.2826 9.48888 11.4028 O
174 3 -0.711955 8.38375 8.81743 8.87681 O
55 4 1.11067 6.97065 8.07885 9.07478 Si
216 2 0.0316673 7.38859 8.91161 12.9672 H
348 2 0.0706638 7.4512 11.4102 17.409 H
277 2 0.1061 5.38169 14.8191 9.79572 H
185 3 -0.637907 9.61377 9.77319 14.1734 O
199 2 0.253443 12.312 14.6595 14.2325 H
340 3 -0.680534 9.77604 12.5486 15.511 O
347 2 0.316276 9.93835 11.5399 15.2768 H
197 2 0.0299676 14.0191 9.30209 14.4063 H
314 2 0.0653321 10.0989 12.3653 11.7445 H
343 2 0.286348 9.7446 15.1308 12.212 H
221 2 -0.0125725 11.6994 9.07318 12.7134 H
58 4 0.613454 9.63738 8.80039 9.96136 Si
64 4 0.563665 10.1854 9.97976 12.6324 Si
100 1 -0.0952149 10.7936 11.973 12.4683 C
316 2 0.0968842 10.7739 12.5075 13.4096 H
297 2 0.00109645 11.7092 10.1277 9.65961 H
315 2 0.022855 11.7977 11.8179 12.1064 H
94 1 -0.111222 10.917 10.0982 8.94014 C
364 2 0.295066 10.6633 12.8378 15.7459 H
298 2 0.059541 10.3694 11.0231 8.81772 H
ITEM: TIMESTEP
100
ITEM: NUMBER OF ATOMS
365
ITEM: BOX BOUNDS xy xz yz pp pp pp
-7.0732919999999986e+00 2.0096448000000002e+01 -7.0732919999999986e+00
0.0000000000000000e+00 1.5863300000000001e+01 2.1297600000000010e+00
0.0000000000000000e+00 1.7464200000000002e+01 8.7949999999999995e-01
ITEM: ATOMS id type q x y z element
2 4 1.01552 2.46041 2.31791 1.08278 Si
4 4 0.695434 3.31164 3.19272 5.49941 Si
8 4 0.265494 -0.058886 3.61556 2.00152 Si
10 4 1.18178 3.01959 5.39059 7.4663 Si
68 1 -0.125614 -1.28324 6.73496 5.87354 C
78 1 -0.0975441 1.46879 5.96109 3.6037 C
105 3 -0.654331 1.52432 3.51316 1.62588 O
107 3 -0.73781 2.53158 4.39906 6.31171 O
191 2 0.0816924 1.15749 1.9451 3.4895 H
192 2 0.00238265 2.8243 1.61396 5.99726 H
193 2 -0.0191975 1.65387 0.722027 0.972606 H
224 2 0.0635514 -0.355006 6.35052 6.25365 H
225 2 0.0326917 -1.65684 6.27045 4.95226 H
353 2 0.0835736 -0.466433 5.37823 0.217362 H
252 2 0.0515673 0.82929 6.29338 2.80913 H
253 2 0.0578373 1.04987 5.97037 4.58309 H
254 2 0.0886724 2.035 5.05417 3.37802 H
134 3 -0.752151 1.98702 7.00661 7.47384 O
226 2 0.0323218 -2.01483 6.86153 6.66581 H
67 1 -0.0821337 -1.15904 5.05619 0.969439 C
66 1 -0.135673 -0.665079 3.17531 3.49237 C
354 2 0.0505693 -1.22614 5.70929 1.82113 H
112 3 -0.76075 2.46549 0.319163 3.73865 O
222 2 0.0325555 -0.616601 3.89314 4.28274 H
30 4 0.783876 2.93048 7.31863 3.59662 Si
139 3 -0.743277 4.07692 7.0626 0.542466 O
23 4 0.551387 9.31659 0.596509 7.8497 Si
240 2 0.112877 8.46653 1.25494 3.16535 H
102 3 -0.794742 3.66824 1.87818 2.08487 O
356 2 0.0884509 4.91126 0.696161 6.80434 H
136 3 -0.684436 4.89508 6.05474 7.13639 O
130 3 -0.677814 7.01866 2.92139 0.826559 O
133 3 -0.724534 7.18049 4.28721 7.1761 O
135 3 -0.774331 4.34285 6.81769 4.20315 O
129 3 -0.779559 7.1515 2.70368 3.6996 O
123 3 -0.735537 6.66752 1.97549 6.26018 O
1 4 1.10337 3.92774 0.702617 3.13727 Si
120 3 -0.730632 4.85043 3.40773 5.06193 O
255 2 0.127906 5.05435 4.90408 3.4817 H
34 4 1.29892 5.34888 7.0472 5.42012 Si
257 2 0.0636167 5.05073 5.2449 1.73318 H
256 2 0.13256 4.51972 3.64161 2.32474 H
21 4 1.39894 5.99428 2.23614 4.75579 Si
25 4 0.681154 7.8403 2.86072 6.9467 Si
29 4 0.810562 7.0876 3.86091 2.55608 Si
32 4 1.31459 6.28522 5.0818 8.31285 Si
119 3 -0.809031 5.11107 0.960783 4.23783 O
79 1 -0.0739473 5.13615 4.52648 2.48961 C
204 2 0.0666936 7.98795 2.4487 8.60096 H
22 4 1.27498 6.3687 1.06835 0.0672894 Si
3 4 1.04577 1.95252 3.68675 9.66794 Si
7 4 1.12056 3.35451 3.12264 12.2255 Si
12 4 0.833459 1.09341 4.82638 14.2958 Si
13 4 0.655585 -0.400103 7.31856 14.5091 Si
69 1 -0.07938 2.37454 3.94643 15.7137 C
103 3 -0.699711 2.56016 2.57248 10.6374 O
104 3 -0.736161 3.13118 2.0508 13.3974 O
110 3 -0.693058 2.06722 4.86626 12.6086 O
111 3 -0.687748 0.618809 6.18175 15.0543 O
261 2 0.0294736 4.19534 7.98111 15.4675 H
227 2 0.0846977 3.33008 3.99853 15.167 H
228 2 0.0437626 1.87852 2.98796 15.8435 H
229 2 0.0593043 2.28781 4.58554 16.5806 H
82 1 -0.0992528 4.10073 7.32065 12.2556 C
160 3 -0.75329 0.858703 4.75312 10.2042 O
365 2 0.29212 0.997763 5.64386 9.84501 H
195 2 0.357706 1.3673 4.70142 11.8831 H
260 2 0.0673023 8.29726 5.86669 17.2103 H
263 2 0.0293133 3.43305 7.86883 12.893 H
265 2 0.11339 3.65926 6.43726 11.8338 H
5 4 0.858098 4.04496 0.844038 14.0714 Si
208 2 0.00583945 -0.384568 7.23442 12.8094 H
106 3 -0.759221 3.06283 4.47522 8.78833 O
81 1 -0.120964 4.64236 7.0435 15.7237 C
77 1 -0.110412 6.56804 3.61113 14.2394 C
262 2 0.0740531 4.13387 6.5272 16.5269 H
122 3 -0.820197 4.89537 3.26748 11.7866 O
124 3 -0.720076 4.91507 1.26778 15.3723 O
264 2 0.0404694 5.06238 7.16239 12.6935 H
80 1 -0.100111 7.53823 5.64834 16.4657 C
259 2 0.0713337 6.85121 4.87037 16.7639 H
126 3 -0.734073 4.94013 3.53055 16.9729 O
128 3 -0.812795 8.23292 1.22739 12.9917 O
203 2 -0.0140829 5.16739 1.68524 9.68423 H
251 2 0.032572 6.01582 4.54591 14.2632 H
127 3 -0.864711 7.3684 2.57542 10.7317 O
250 2 0.0393168 7.62059 3.62776 14.539 H
335 2 0.0853986 6.03135 0.794252 12.4206 H
125 3 -0.783309 7.1072 1.73617 16.6229 O
132 3 -0.776891 5.78013 4.40123 9.66901 O
258 2 0.017761 7.80822 5.61963 15.4134 H
249 2 0.0964555 6.35905 2.99614 13.3567 H
359 2 0.0244537 4.79128 6.37698 14.8993 H
159 3 -0.788436 9.74039 2.22977 16.5371 O
31 4 0.60169 6.51737 7.50063 16.4751 Si
24 4 1.18232 5.87002 3.0608 10.5602 Si
27 4 0.978561 5.8181 2.4929 15.9339 Si
28 4 1.1246 8.55533 2.23569 11.7524 Si
207 2 -0.0153269 1.00628 7.85933 9.88255 H
137 3 -0.721966 3.59318 7.82157 9.37343 O
245 2 0.0373691 7.22207 0.564952 9.28616 H
14 4 0.676491 -5.19971 14.2793 4.80652 Si
15 4 0.674755 -2.78385 10.3109 6.94793 Si
17 4 1.01888 -2.59819 13.1892 5.98141 Si
72 1 -0.0846668 -1.62252 14.7803 7.26919 C
113 3 -0.639823 -1.29772 9.73791 6.59233 O
114 3 -0.718283 -4.17753 13.5492 5.77908 O
115 3 -0.665158 -2.51157 11.8999 7.04222 O
141 3 -0.758421 -1.73317 12.8933 4.59795 O
9 4 0.32673 -1.26682 10.346 3.04627 Si
327 1 -0.0794356 -2.64484 13.8649 2.0572 C
329 2 0.0360563 -3.41007 13.2511 2.46705 H
328 2 0.0725298 -2.71296 14.0735 0.992348 H
349 2 0.12306 -1.66887 13.6208 2.38577 H
108 3 -0.637537 -1.58745 9.05013 3.9861 O
235 2 0.0921398 -0.552536 14.6182 7.1066 H
194 2 0.0188621 -2.71984 10.9498 2.2545 H
11 4 0.779394 -0.89105 8.70695 5.41934 Si
121 3 -0.789523 -0.308529 14.9317 1.16501 O
326 2 0.0267258 -4.55927 12.4902 0.479617 H
236 2 0.0270028 -2.02725 14.5643 8.24992 H
33 4 1.07996 2.20949 8.12478 8.58591 Si
73 1 -0.0767569 -0.119461 9.88748 1.34002 C
238 2 0.0834652 -0.0780993 8.80799 1.29015 H
239 2 0.0423616 -0.700941 10.3466 0.556527 H
142 3 -0.745817 3.47957 9.79416 0.140862 O
310 2 0.0893122 3.13149 10.9966 3.10447 H
350 2 0.340273 1.501 8.45659 6.13619 H
237 2 0.0723904 0.806925 10.3849 1.60695 H
181 3 -0.776385 4.4182 10.8946 8.23778 O
144 3 -0.778978 5.51097 8.64791 5.75494 O
215 2 0.349981 5.31346 8.94879 6.4713 H
143 3 -0.812705 2.09076 9.62998 8.08154 O
146 3 -0.825843 2.74542 11.6065 6.17396 O
360 2 0.0774057 2.33467 12.1922 0.897441 H
98 1 -0.0570472 4.12366 10.9372 3.53121 C
209 2 0.345696 1.14628 9.87691 5.75361 H
336 1 -0.0527343 2.22301 13.1789 0.522291 C
20 4 0.692076 0.862245 14.1269 1.85374 Si
37 4 1.07687 -0.111045 12.7582 4.33666 Si
145 3 -0.781152 0.837679 13.4954 5.43145 O
36 4 1.10251 3.54056 8.4727 1.08982 Si
39 4 1.16411 3.11125 10.6478 7.3628 Si
40 4 1.12596 2.35566 13.2335 5.91841 Si
140 3 -0.745189 0.530049 12.8619 2.85631 O
131 3 -0.736895 1.14905 9.00007 5.41188 O
138 3 -0.766147 2.80653 8.45049 2.46754 O
344 2 0.0684162 -4.69065 13.2457 8.13419 H
308 2 0.0997486 4.13917 10.6273 4.56541 H
230 2 0.0648014 -4.04157 10.2575 4.6459 H
218 2 0.318031 3.527 13.7091 8.27377 H
18 4 1.01377 0.290147 9.75124 15.9267 Si
201 2 0.0847099 -2.61773 12.47 16.322 H
233 2 0.0387445 -2.5786 8.76765 9.18579 H
149 3 -0.703169 -0.133501 11.3485 15.7743 O
268 2 0.042396 -0.575235 11.2422 12.3581 H
323 3 -0.590607 -4.3788 14.4744 14.3517 O
83 1 -0.0793047 0.291457 11.4733 11.7656 C
150 3 -0.703612 0.0743409 14.0736 14.8728 O
206 2 0.352033 -0.0629664 14.8579 15.5045 H
333 1 -0.0943555 -1.71085 15.0771 12.5313 C
322 1 -0.0818959 -2.97382 13.2207 17.0443 C
334 2 0.0760155 -1.42318 14.0746 12.8468 H
116 3 -0.739079 0.137471 8.8313 14.6258 O
267 2 0.0622581 0.209335 12.3645 11.1592 H
118 3 -0.692114 -0.221036 9.28629 17.3998 O
358 2 0.0421215 -2.45977 15.0883 11.7298 H
213 2 0.00628397 2.00468 12.857 16.5383 H
320 4 0.166021 -4.12959 14.3322 16.4446 Si
212 2 -0.0030525 5.24442 9.7232 14.9757 H
75 1 -0.101852 1.06207 14.8054 9.27237 C
266 2 0.0713509 0.756767 10.6092 11.3103 H
187 3 -0.68105 4.93236 12.1697 12.7564 O
244 2 0.0374482 0.77494 13.8388 8.90142 H
41 4 0.771382 4.01759 10.8457 12.6643 Si
42 4 0.615608 0.727396 12.6766 15.4064 Si
152 3 -0.673404 2.10692 13.5139 12.9006 O
189 3 -0.653846 5.24382 12.3903 15.4324 O
157 3 -0.753075 3.0312 15.212 14.8534 O
38 4 0.652099 4.91572 10.9608 16.1316 Si
338 2 0.112446 3.83876 14.1093 17.0311 H
169 3 -0.751123 5.9762 8.54252 10.4966 O
148 3 -0.711332 3.49901 10.3813 11.2224 O
182 3 -0.694061 3.9801 12.946 10.0592 O
62 4 0.799349 4.559 11.4459 9.76897 Si
35 4 0.812102 4.37864 8.56463 10.5964 Si
243 2 0.0955997 1.63073 14.7808 10.197 H
341 2 0.0219888 3.20783 10.8735 16.2977 H
43 4 0.427325 1.64035 11.9611 13.2532 Si
151 3 -0.68717 2.74032 10.4355 14.1778 O
26 4 1.22373 1.87603 14.8982 13.7343 Si
202 2 0.366675 3.49415 12.9004 10.9138 H
210 2 0.278029 2.12635 9.68401 13.8705 H
51 4 1.03883 11.046 3.74137 0.630954 Si
52 4 0.747031 7.42316 6.72168 3.28153 Si
54 4 0.624065 10.424 7.03532 5.64151 Si
89 1 -0.11009 11.3014 4.18534 2.6769 C
91 1 -0.0617845 9.43354 6.33182 7.29217 C
162 3 -0.799015 10.85 2.15017 0.546829 O
164 3 -0.706477 8.27506 4.91263 2.72845 O
176 3 -0.674097 8.27042 7.07639 0.16446 O
248 2 0.101225 8.95688 3.91523 4.99443 H
214 2 0.0460431 9.85888 5.85457 4.53435 H
53 4 0.802029 8.69119 5.65501 0.768956 Si
290 2 0.0454485 10.0794 5.57378 7.68346 H
76 1 -0.0888979 9.3382 3.12131 5.63979 C
246 2 0.0551047 9.3515 2.1376 5.16958 H
165 3 -0.726116 6.76088 6.70685 4.77137 O
154 3 -0.666682 10.128 1.89036 8.4213 O
247 2 0.0508301 10.2769 3.33173 6.13086 H
288 2 0.144232 8.44344 6.02363 7.01732 H
289 2 0.0899762 9.42566 7.26899 7.8177 H
282 2 0.0555101 11.1827 5.2525 2.67981 H
284 2 0.0652885 10.4747 3.63402 3.10051 H
166 3 -0.705361 9.8717 4.7215 0.0237187 O
241 2 0.0913941 9.5717 1.0065 1.76439 H
346 2 0.306908 8.07972 2.80866 0.710096 H
363 2 0.0104654 16.9565 2.05651 6.32417 H
74 1 -0.0766301 9.10547 0.590315 2.66545 C
283 2 0.0379315 12.3109 3.82481 2.94495 H
342 2 0.014105 16.5177 2.13863 3.61687 H
223 2 0.0425215 15.5449 4.61798 0.636057 H
190 2 0.0105733 16.4887 2.01166 6.19183 H
357 2 0.0188808 17.3922 0.494269 0.325105 H
167 3 -0.609315 12.0292 6.81913 5.75912 O
361 2 0.0145925 15.0895 0.433477 1.83777 H
362 2 0.0426117 13.7322 0.847832 2.96936 H
272 2 0.0482121 12.8239 6.76876 2.61857 H
217 2 0.284081 5.92407 7.45655 1.66733 H
46 4 0.681192 10.8745 1.83718 9.84982 Si
49 4 1.09049 10.7685 1.4883 15.5827 Si
86 1 -0.0967895 11.2353 2.85629 13.9235 C
95 1 -0.133942 10.6425 7.25681 10.0992 C
155 3 -0.749312 9.96478 1.7736 11.1905 O
158 3 -0.785182 12.1965 1.05378 16.336 O
273 2 0.034213 10.4414 3.58064 14.033 H
274 2 0.0900164 11.174 2.26759 13.0186 H
275 2 0.0812916 12.2218 3.28763 14.0454 H
300 2 0.0209913 10.9739 7.25027 11.1212 H
301 2 0.0168392 11.4109 7.35733 9.35573 H
302 2 0.0609644 9.90177 6.48713 9.86593 H
93 1 -0.121521 8.9725 6.72838 13.7816 C
296 2 0.0526404 9.19099 6.23224 14.7196 H
90 1 -0.124595 11.9478 3.70769 9.97304 C
117 3 -0.581701 15.3045 7.82932 16.7984 O
287 2 0.0441538 12.1895 3.94603 8.96078 H
286 2 0.0368471 11.2254 4.38312 10.4216 H
294 2 0.0439498 9.80651 6.89263 13.1417 H
196 2 0.154227 16.293 5.59599 17.1732 H
276 2 0.0173322 13.2824 1.08484 9.89734 H
295 2 0.0254571 8.15742 6.27775 13.2603 H
168 3 -0.774769 7.21145 6.34001 8.86291 O
351 2 0.325544 14.2659 4.05581 16.0674 H
163 3 -0.757406 14.5663 4.918 17.421 O
16 4 0.167335 15.0272 7.86282 15.1599 Si
280 2 0.0348081 15.2567 3.8237 10.6304 H
198 2 0.044802 13.4273 7.1603 14.7798 H
285 2 0.0191408 12.8079 3.48256 10.6007 H
279 2 0.112424 16.5426 3.60462 11.8903 H
352 2 0.307299 14.4875 5.77024 16.8189 H
281 2 0.0654958 16.1357 2.21349 10.7849 H
45 4 1.26673 13.4708 1.79145 17.0687 Si
332 2 0.0427123 17.0988 3.43745 16.1224 H
88 1 -0.0652021 15.814 3.12046 11.2151 C
109 3 -0.612604 17.5282 3.77112 13.9888 O
6 4 0.60552 15.2938 2.32998 14.7867 Si
153 3 -0.716184 14.0475 3.15577 15.4396 O
50 4 -0.0444036 14.4189 2.42469 12.526 Si
330 1 0.0649387 17.2836 3.01083 15.1371 C
331 2 0.0768723 17.8316 2.07802 15.206 H
55 4 1.11299 6.98643 7.89298 9.3469 Si
205 2 -0.0332835 8.96972 3.73503 12.4709 H
44 4 1.16208 6.08652 13.856 1.31521 Si
60 4 1.01507 4.68549 13.013 3.93215 Si
147 3 -0.696044 3.44232 14.3874 7.53081 O
63 4 0.310564 6.54484 13.5493 6.23229 Si
175 3 -0.661738 6.40941 8.15588 2.2372 O
177 3 -0.786202 4.98589 13.5465 2.39414 O
180 3 -0.746244 6.94751 12.4905 1.01609 O
184 3 -0.641588 6.06892 12.8581 4.81535 O
59 4 0.876758 8.08813 8.53118 1.0466 Si
220 2 0.0777517 5.80555 12.6306 7.54307 H
292 2 0.13866 6.68975 9.38337 4.06357 H
178 3 -0.74063 3.44144 13.7119 4.75656 O
293 2 0.1015 7.51265 11.0075 3.87749 H
92 1 -0.0436696 7.44796 10.0674 4.40373 C
298 2 0.0701475 10.0331 10.9809 8.35828 H
339 3 -0.830565 5.539 14.9247 0.23586 O
179 3 -0.709118 8.18183 10.1241 0.567062 O
269 2 0.0701664 7.78661 14.3657 3.30927 H
291 2 0.106421 7.59781 10.1692 5.48753 H
61 4 0.865083 7.03503 11.1831 0.0990232 Si
337 2 0.104523 3.08864 13.8055 0.666159 H
242 2 0.114675 2.83529 15.0589 3.3555 H
84 1 -0.119615 7.43588 15.0687 2.56854 C
321 1 -0.110651 9.96352 14.532 0.238102 C
96 1 0.0712974 10.969 10.2205 1.7107 C
271 2 0.039259 12.5375 8.57469 2.61324 H
325 2 0.0342753 9.85797 13.9949 1.15501 H
171 3 -0.676959 9.10412 7.80014 2.78335 O
219 2 0.0408584 5.95938 15.1639 6.38285 H
234 2 0.0195116 13.4447 8.71964 8.30878 H
305 2 0.114536 10.3375 11.012 1.23682 H
355 2 0.310446 10.6384 11.4386 5.03671 H
85 1 -0.109402 13.1903 7.75375 2.85164 C
97 1 0.0834217 10.9831 12.901 3.9175 C
306 2 0.0724544 11.4734 12.3752 3.18176 H
172 3 -0.644303 9.83078 8.51949 5.30994 O
309 2 0.0781538 4.88184 10.4816 2.90171 H
231 2 0.0642159 12.3088 10.0466 5.98993 H
183 3 -0.564689 10.3329 12.4114 4.94552 O
303 2 0.0295339 12.0471 10.3847 1.62267 H
304 2 0.0832615 10.765 9.36366 1.14481 H
56 4 0.865144 9.28622 9.09399 3.80898 Si
170 3 -0.573349 10.4088 10.1898 3.14019 O
70 1 -0.110558 13.2722 9.80514 5.58277 C
299 2 0.0347606 11.3918 9.79958 8.26133 H
307 2 0.0630951 10.3916 13.7424 3.60952 H
348 2 0.064157 5.4878 10.389 0.0722781 H
19 4 0.608233 13.6927 8.20657 0.201417 Si
47 4 0.321504 13.1441 7.76125 5.0177 Si
270 2 0.0660672 14.2513 7.94778 2.733 H
345 2 0.0511067 12.5556 12.6141 8.26548 H
173 3 -0.662779 7.36894 8.64991 15.6398 O
65 4 0.789031 5.85834 12.7329 13.9588 Si
156 3 -0.617608 8.42592 15.6246 14.5613 O
99 1 -0.0794585 6.6618 11.4359 10.2026 C
101 1 -0.0974362 7.83201 11.9454 13.7264 C
188 3 -0.621604 5.72981 14.7583 13.515 O
48 4 0.726862 7.72394 15.0174 13.1258 Si
311 2 0.0509746 6.87698 12.4755 10.4186 H
312 2 0.0891472 7.15025 11.0481 9.32461 H
313 2 0.0920797 6.7015 10.7976 11.0692 H
317 2 0.074135 7.74724 11.0332 14.3061 H
318 2 0.100296 8.50035 12.7079 14.1199 H
319 2 0.0440089 7.84644 11.8595 12.6636 H
211 2 0.330095 5.7404 15.1008 14.4663 H
57 4 0.648226 8.34092 8.58119 14.3818 Si
161 3 -0.679914 8.82202 14.6655 12.0284 O
186 3 -0.644451 9.18477 9.52249 11.5139 O
174 3 -0.706239 8.19674 8.90902 9.08872 O