ITEM: TIMESTEP
0
ITEM: NUMBER OF ATOMS
365
ITEM: BOX BOUNDS xy xz yz pp pp pp
-6.9345999999999997e+00 1.9702400000000001e+01 -6.9345999999999997e+00
0.0000000000000000e+00 1.5863300000000001e+01 2.0880000000000001e+00
0.0000000000000000e+00 1.7464200000000002e+01 8.7949999999999995e-01
ITEM: ATOMS id type q x y z
224 2 0.112289 -1.60583 6.01711 4.37789
2 4 1.2443 1.09776 2.05543 0.821746
4 4 1.00267 2.69664 4.15371 5.45913
8 4 0.784988 -0.929912 4.46745 2.08996
10 4 1.35315 1.28942 5.41212 7.89449
256 2 0.147807 3.7378 4.90561 2.46915
21 4 1.4267 4.73164 2.20839 4.63061
22 4 1.49535 6.40667 2.19466 0.191909
25 4 1.12691 6.96746 2.99677 6.43685
29 4 1.27213 6.04278 4.41516 2.83846
32 4 1.52599 5.90759 5.46805 7.98113
34 4 1.51632 5.05972 7.51747 5.92678
68 1 -0.678299 -0.931229 6.29722 5.41029
74 1 -0.648521 8.02586 0.681511 3.84258
78 1 -0.663501 1.61453 6.67381 2.91239
79 1 -0.685892 4.56355 5.66353 2.81497
102 3 -0.78212 1.92158 1.13132 1.9715
105 3 -0.758009 0.0693379 3.25516 1.48595
107 3 -0.859253 2.01501 4.85401 6.6885
353 2 0.147064 -1.51986 6.63512 0.644247
255 2 0.262873 4.19642 6.40199 3.66696
119 3 -0.802394 4.04805 1.02047 3.71383
120 3 -0.786721 3.40896 2.81453 5.70314
121 3 -0.789258 6.74922 0.820204 1.07316
123 3 -0.815549 6.05989 1.92507 5.71101
129 3 -0.865316 5.28704 3.32613 3.6428
130 3 -0.769835 6.63035 3.63823 1.23279
133 3 -0.870158 6.4563 4.29445 7.04615
240 2 0.218448 7.38785 1.59499 3.73411
136 3 -0.829548 4.87172 6.49966 7.18005
191 2 0.029862 3.69084 5.19468 4.55313
192 2 -0.0446149 1.55828 4.00113 4.23864
257 2 0.145945 4.99236 6.21586 1.84837
204 2 0.0142555 8.03267 2.15483 7.4518
206 2 -0.00760963 0.119534 5.45231 3.09422
135 3 -0.843083 3.46657 7.42136 4.82192
67 1 -0.664787 -1.74123 5.55722 0.665293
342 2 -0.0134722 -2.73378 6.7906 1.87757
225 2 0.145347 -1.60365 6.18131 6.38459
226 2 0.139971 0.151069 5.86089 5.46504
1 4 1.37621 3.04516 0.238699 2.65852
260 2 0.163833 3.54208 5.77973 1.03995
195 2 0.00953948 -0.187145 6.01611 7.25633
252 2 0.113771 1.66132 5.84758 3.74543
253 2 0.172699 2.08951 6.35101 1.87719
254 2 0.150496 0.560458 7.06512 2.75216
259 2 0.143968 1.72934 5.89284 0.255735
80 1 -0.65763 2.87318 5.96971 0.0236519
134 3 -0.854142 1.75574 6.68673 8.63276
349 2 0.270854 5.14544 0.157278 1.12625
3 4 1.26081 1.0083 2.91351 9.77807
5 4 1.31757 4.45463 1.16481 14.0295
7 4 1.49491 3.0176 3.36388 12.1643
12 4 1.03555 1.6698 5.42774 14.2467
345 2 0.104921 0.178192 4.81229 14.8522
24 4 1.29923 5.53478 3.54071 10.4738
216 2 0.0046111 6.32458 7.08432 13.4347
27 4 1.32984 5.58613 3.17415 16.1624
28 4 1.2342 8.46281 2.65417 11.3661
258 2 0.187523 5.33816 6.15368 16.7294
265 2 0.147439 4.45846 7.27704 13.5119
69 1 -0.642674 2.82419 5.59941 15.6943
77 1 -0.6881 5.85 4.66934 14.9606
106 3 -0.823988 0.906936 4.24211 8.87893
82 1 -0.658598 4.55672 6.6125 12.5665
103 3 -0.839394 2.01193 3.03872 10.9651
104 3 -0.793356 3.40749 1.96247 13.0569
358 2 0.204256 5.96126 0.888762 12.0732
295 2 0.135624 7.71007 6.1083 15.4432
110 3 -0.808085 2.3646 4.3721 13.2615
111 3 -0.791087 1.53479 6.94753 13.6115
122 3 -0.833156 4.47422 3.90243 11.5662
124 3 -0.807016 5.22185 1.96639 15.2046
125 3 -0.810656 7.0843 2.9901 16.9491
126 3 -0.781698 4.35316 3.53502 17.2044
127 3 -0.847674 7.00522 3.12488 10.9618
128 3 -0.789844 8.21324 1.43919 12.4383
132 3 -0.813094 5.60883 4.73788 9.44042
330 1 -0.65968 2.13443 1.65285 17.3944
157 3 -0.818147 10.055 1.55532 14.3716
264 2 0.24469 3.53427 6.17613 12.2488
203 2 -0.0399322 4.97659 2.2236 9.60234
263 2 0.223639 5.32367 5.81088 12.5742
227 2 0.161728 2.76822 6.73202 15.8481
228 2 0.20221 3.94894 5.19604 15.421
229 2 0.18591 2.39428 4.96757 16.5438
332 2 0.192973 2.45605 1.79236 16.2449
249 2 0.167944 6.91173 4.46778 14.5899
250 2 0.137009 5.699 5.73383 15.4571
251 2 0.193978 5.06 4.40516 14.1934
223 2 0.18041 0.754597 5.97178 17.2447
169 3 -0.815504 6.15527 7.62573 10.6417
35 4 1.32352 4.70247 8.0192 11.2759
137 3 -0.866823 3.42584 7.88183 10.3601
301 2 0.14256 8.2085 5.04857 12.7053
159 3 -0.833137 9.58738 3.18712 16.5071
57 4 0.972336 6.97534 8.13294 14.6162
190 2 -0.0267277 1.53655 1.75143 8.74919
11 4 1.20381 -0.65812 8.12577 5.22117
14 4 1.11381 -4.90624 12.4706 3.84583
15 4 1.00906 -1.36888 9.81361 7.94902
17 4 1.24954 -2.46417 12.1816 5.82161
23 4 1.05751 2.07216 13.6378 7.93763
30 4 1.33299 2.26501 8.10824 4.08179
36 4 1.28137 3.6298 9.78062 1.77518
37 4 1.25195 0.233807 12.1885 3.99087
39 4 1.51942 4.02661 9.86626 7.3149
40 4 1.56431 2.93768 12.1557 5.43678
112 3 -0.81333 -4.49941 13.883 3.34228
72 1 -0.663586 -2.76642 14.0091 6.23034
75 1 -0.652544 0.431792 14.3142 7.23964
113 3 -0.758522 -1.1483 8.77884 6.79187
114 3 -0.714568 -3.93648 11.6002 4.83717
115 3 -0.759815 -2.40743 11.361 7.24221
131 3 -0.80051 0.847123 8.52889 4.85944
138 3 -0.800956 2.64864 9.38427 3.03739
139 3 -0.832424 3.61444 8.5563 0.814607
140 3 -0.807064 0.139336 13.2784 2.7126
141 3 -0.807318 -1.10318 12.2138 4.93376
142 3 -0.848886 3.24359 11.1088 1.01421
143 3 -0.873024 3.02765 8.95814 8.02041
144 3 -0.819767 5.33567 8.98699 6.48268
145 3 -0.869495 1.59023 12.3895 4.78587
146 3 -0.855788 3.22076 10.8084 6.30468
147 3 -0.789211 2.90919 13.344 6.6821
338 2 0.225159 2.79105 13.0847 1.5709
245 2 0.200369 0.53813 14.4102 6.04095
209 2 0.0385846 0.286618 10.6247 3.33623
356 2 0.215629 -1.73903 14.4081 5.8582
108 3 -0.737813 -1.7959 8.51967 3.81395
235 2 0.116921 -2.74521 13.8748 7.39616
236 2 0.215472 -3.58613 14.6462 5.92744
181 3 -0.802465 4.81581 10.8754 8.59449
197 2 0.0718482 -3.02886 12.0925 8.50113
232 2 0.215784 1.13944 10.1135 7.88434
9 4 0.601989 -3.02655 8.01821 3.00797
329 2 0.16548 -2.75206 13.4501 1.57922
327 1 -0.663451 -2.86632 14.56 1.19579
20 4 1.09379 0.718667 14.6875 2.27402
341 2 -0.00193422 1.82484 13.102 0.12056
328 2 0.204403 -3.35943 14.5576 0.211474
331 2 0.176322 -6.69092 14.7271 0.326579
325 2 0.146756 -5.36379 12.9122 0.358171
234 2 0.119079 0.103071 11.6226 8.26761
244 2 0.119436 -0.236596 13.4478 7.66435
242 2 0.193366 0.796513 15.1048 4.8822
243 2 0.157514 0.280586 15.2704 7.76349
359 2 0.141154 0.794008 9.33623 0.0689316
16 4 0.574921 -3.60761 12.9745 9.90705
18 4 1.19669 -0.397502 10.6378 14.3198
19 4 0.869547 -1.8789 11.1758 11.352
31 4 1.05109 4.9294 8.70309 17.1455
324 2 0.172561 -1.83378 12.9136 16.6701
38 4 0.96144 4.74138 12.5594 17.1319
41 4 1.23673 4.79077 10.8442 13.1775
42 4 0.969764 1.5781 13.1344 15.0965
43 4 1.21376 2.90522 12.8463 11.9033
73 1 -0.632903 -1.84006 10.2485 15.4888
81 1 -0.675134 3.18507 9.59056 16.6573
83 1 -0.687816 1.12025 12.5331 11.5376
116 3 -0.805165 0.487188 9.2753 14.1913
117 3 -0.762344 -3.07287 12.3182 11.1926
118 3 -0.759618 -1.22546 10.9652 12.7685
238 2 0.169582 -1.44852 9.45464 16.2006
148 3 -0.827715 4.82888 9.572 12.2253
149 3 -0.789415 0.445861 12.0367 14.9685
150 3 -0.800843 1.23729 14.5406 14.5104
151 3 -0.825427 3.37049 11.6279 13.3244
152 3 -0.819686 3.09086 14.4873 12.5311
320 4 0.909613 -3.89488 13.6337 15.6405
173 3 -0.775656 5.77517 8.77787 15.4382
182 3 -0.816952 3.85626 12.4879 10.5764
334 2 0.189352 -1.90698 14.3381 12.5755
26 4 1.46051 2.2737 15.5052 13.4339
321 1 -0.6498 -2.93318 12.8548 17.0437
200 2 -0.0270802 -0.703807 11.421 10.1123
335 2 0.284348 -0.355088 14.9082 13.5673
201 2 0.0493837 -2.26524 9.59284 10.6678
208 2 -0.00161324 2.90532 9.16178 13.0414
210 2 0.0954139 5.00724 10.0504 14.7311
211 2 0.06335 3.11992 12.508 14.708
212 2 -0.0427265 3.49352 11.5556 16.5987
213 2 -0.0607065 1.96243 13.298 16.6624
13 4 0.950697 1.40607 8.46638 13.2387
237 2 0.175986 -2.23468 11.2364 16.0427
33 4 1.34375 2.41226 8.02809 9.15096
207 2 -0.0139991 1.073 8.96646 9.62849
262 2 0.166303 2.9038 10.0215 15.6682
266 2 0.125192 0.859151 11.5613 10.8435
267 2 0.151199 0.90032 13.5231 10.9147
268 2 0.2033 0.564033 12.5101 12.587
198 2 -0.061218 -2.96642 14.4948 9.62051
154 3 -0.770964 2.69887 14.7339 9.01144
323 3 -0.753275 -3.2966 14.8676 14.9153
333 1 -0.669185 -1.27115 15.2247 12.9167
261 2 0.125575 2.67654 8.5407 16.7992
196 2 -0.050335 0.91745 8.59535 11.6901
70 1 -0.635623 -2.24959 9.01022 9.20611
233 2 0.125183 1.14862 10.8049 9.74059
202 2 0.000858557 1.62671 12.2465 8.83121
231 2 0.157517 -1.64878 7.98618 9.25079
71 1 -0.676545 0.509605 10.6202 8.73498
354 2 0.235422 14.7179 5.3154 0.690233
47 4 0.718899 13.8899 3.76818 5.70874
51 4 1.14112 11.1513 4.15466 1.26302
52 4 1.44886 7.42724 6.84545 3.96909
54 4 0.947143 11.7376 5.75759 7.08354
361 2 0.15167 14.6848 0.869643 1.53838
66 1 -0.634166 15.1075 3.88564 2.79696
76 1 -0.673069 8.84457 3.07563 5.85602
85 1 -0.621827 13.4679 2.1425 5.75926
89 1 -0.662105 10.7456 4.47115 3.12251
90 1 -0.652564 11.0998 1.71878 7.7686
91 1 -0.642973 10.2972 4.83141 8.20195
162 3 -0.784449 11.0151 2.46743 0.92099
163 3 -0.762829 12.9892 4.67478 0.954141
164 3 -0.794669 7.31737 5.01617 3.63976
166 3 -0.806585 10.021 5.10959 0.450209
176 3 -0.832535 8.46463 7.30275 0.0942798
167 3 -0.767546 12.8121 4.77935 6.38273
352 2 0.293417 13.0779 4.05974 0.118361
222 2 0.152725 15.3692 2.73211 2.83498
171 3 -0.805164 9.04451 7.03425 4.72928
172 3 -0.747195 11.9559 7.06656 8.08205
285 2 0.167683 11.6351 0.78968 7.35442
214 2 0.0484345 10.0308 5.57664 6.46969
343 2 0.0234329 15.0438 4.53256 4.34443
246 2 0.175453 9.38035 2.11917 5.50156
247 2 0.158521 9.40307 3.6799 6.71083
248 2 0.219152 8.54149 3.7787 4.95862
270 2 -0.00339497 14.9202 2.93448 6.85979
271 2 0.136355 13.0877 2.05865 4.50779
272 2 0.187862 12.6617 1.92588 6.53293
282 2 0.170606 11.1546 3.50956 3.5182
283 2 0.220807 9.58299 4.57648 3.26218
284 2 0.20465 11.29 5.38916 3.44722
165 3 -0.873717 6.24323 7.15567 4.95736
286 2 0.146627 11.8116 2.54218 8.15643
287 2 0.174724 10.2195 2.18785 7.13683
346 2 0.0769484 7.36167 4.89491 0.356353
289 2 0.165525 10.5463 3.66363 7.97879
351 2 0.242734 14.205 4.25248 2.10137
219 2 0.0434807 14.7758 0.979289 5.94782
290 2 0.226372 9.24259 5.0982 8.05185
168 3 -0.779656 7.30948 6.4668 8.43581
241 2 0.159293 9.16617 0.870048 3.70291
355 2 0.264004 12.3708 7.61212 7.26023
339 3 -0.78498 12.3143 0.281985 0.24165
193 2 0.147208 16.582 1.18872 0.270992
170 3 -0.74558 11.6042 7.65772 4.56971
6 4 1.24284 15.5617 2.88415 15.3443
296 2 0.175638 7.98299 7.32688 16.9001
46 4 1.11579 10.505 1.08833 9.55531
350 2 0.193729 16.6932 3.43156 16.7407
49 4 1.35226 10.6617 2.42776 15.5951
50 4 1.06452 15.7648 2.13412 11.0215
277 2 0.174809 12.911 1.73867 10.5197
55 4 1.30331 7.43612 7.41251 9.7032
58 4 1.08728 9.7733 6.6103 11.6371
86 1 -0.665447 11.4807 3.66903 14.3969
45 4 1.41944 13.4857 2.37138 17.1425
88 1 -0.631847 14.4264 3.21982 10.663
94 1 -0.644014 11.4971 6.25312 10.9269
95 1 -0.688003 9.14151 5.61613 13.1368
153 3 -0.874916 14.0873 3.10508 15.8091
156 3 -0.838761 15.9231 1.41177 14.6906
302 2 0.172773 8.82215 6.19676 13.9966
288 2 0.1891 10.7437 5.25625 9.28293
158 3 -0.7541 11.8197 1.62702 16.5393
161 3 -0.804981 15.437 1.17264 12.2465
160 3 -0.813361 17.168 2.44459 10.3305
300 2 0.143684 9.98532 4.78854 13.5208
174 3 -0.797545 8.70677 6.89391 10.4668
205 2 -0.0134691 9.31006 3.95282 12.0824
273 2 0.229831 12.5808 3.69299 14.5393
274 2 0.138597 11.0767 4.70791 14.7173
275 2 0.163435 11.1897 3.37534 13.2915
93 1 -0.676997 8.07964 7.18057 15.7579
279 2 0.162981 13.5721 3.25165 11.4903
280 2 0.048654 14.4786 1.98465 9.59171
281 2 0.171366 14.7561 4.18822 10.2126
347 2 -0.0252669 10.7638 6.56724 15.7381
109 3 -0.794353 16.6699 3.96003 15.6767
294 2 0.165565 9.09594 7.56751 15.3959
297 2 0.269346 11.6841 6.55498 9.79707
298 2 0.125689 11.3712 5.11807 11.0819
299 2 0.191638 12.2356 6.7427 11.6201
155 3 -0.811557 9.58671 2.24102 10.2803
53 4 0.986905 10.8414 6.65293 17.3788
87 1 -0.650688 12.1574 0.821503 10.4792
44 4 1.32414 6.31219 13.8691 1.02841
59 4 1.29504 8.12761 8.32885 1.36281
60 4 1.32223 5.72997 12.518 3.83993
310 2 0.201956 5.91816 10.0022 4.17912
63 4 0.873913 7.70904 14.0498 6.00025
340 3 -0.73037 9.30062 11.5054 0.274904
362 2 0.198324 8.25255 14.2667 2.57851
92 1 -0.651208 9.82071 9.58536 5.23155
96 1 -0.663906 9.81746 9.19739 1.93464
97 1 -0.618143 11.4515 11.6715 3.16263
98 1 -0.674075 6.53087 10.7692 3.65186
306 2 0.164723 11.778 11.1594 2.13465
177 3 -0.793899 5.73296 13.2353 2.31623
363 2 0.250248 9.01443 12.6873 6.31156
179 3 -0.776585 7.36365 9.72389 1.00513
311 2 0.140544 7.35893 12.71 8.55785
183 3 -0.735056 9.2432 13.6911 6.09818
184 3 -0.779405 6.72984 13.3951 4.91228
217 2 0.0394632 5.21273 10.0497 2.38147
178 3 -0.817252 4.31309 12.381 4.49167
360 2 0.192858 3.16867 14.716 2.42902
220 2 -0.0169303 7.01812 14.0462 7.54625
336 1 -0.660205 2.52217 14.2064 1.60474
291 2 0.180691 10.4832 10.4977 4.35889
292 2 0.147473 10.0671 9.6841 6.3669
293 2 0.16636 8.67213 9.48527 5.02065
303 2 0.258958 9.72081 10.148 1.26475
304 2 0.169817 10.5441 8.40623 1.57813
305 2 0.194465 9.80333 9.37232 3.04579
218 2 0.0536462 5.23798 13.6759 8.47872
307 2 0.181581 10.4261 12.2587 3.23227
308 2 0.163886 7.49343 11.0378 4.26661
309 2 0.262506 6.87035 10.3509 2.52642
180 3 -0.769475 6.9176 12.681 0.169056
269 2 0.184765 8.55491 14.4099 0.740499
337 2 0.263751 2.58237 14.8269 0.568704
194 2 0.109414 13.0815 7.74932 3.91261
56 4 1.13453 10.3071 7.87216 5.03463
175 3 -0.869483 7.42957 7.68135 2.64822
84 1 -0.654947 7.90765 14.7082 1.57336
230 2 0.184116 14.2915 8.98508 8.67381
319 2 0.209178 7.89615 12.0654 16.1627
48 4 1.2793 8.57887 15.3783 13.6438
64 4 0.995612 9.62664 9.44123 13.0962
65 4 1.19516 6.6456 12.9376 14.3735
187 3 -0.785837 5.94172 11.9646 13.1257
99 1 -0.656916 6.74972 13.1963 9.32865
100 1 -0.667953 10.3738 11.1224 12.6109
101 1 -0.678179 8.12391 11.9695 15.0581
186 3 -0.7378 10.1853 8.14676 12.3697
185 3 -0.772348 8.1773 9.22321 13.8203
62 4 1.07806 4.97113 12.1474 9.51577
364 2 0.124651 11.5374 13.4274 15.2009
188 3 -0.754229 7.24759 14.5329 13.8368
199 2 -0.0428917 12.3559 13.1055 9.8598
326 2 0.166365 12.5398 11.618 14.9395
348 2 0.00270582 9.9425 11.7182 15.8088
365 2 0.180795 12.7718 12.9578 13.5932
221 2 0.0102811 10.8397 10.0321 14.1944
239 2 0.177915 15.0183 9.7776 14.7982
344 2 -0.030065 9.89159 14.325 13.5597
278 2 0.172914 5.77978 14.8093 9.98809
215 2 -0.00422428 7.72697 8.90361 8.9762
322 1 -0.647618 12.4777 12.7116 14.7136
318 2 0.234728 8.16592 10.819 14.6671
312 2 0.0889295 6.61254 11.9486 10.4556
313 2 0.16937 7.33215 14.0009 9.81895
314 2 0.160881 10.3293 11.8203 13.4834
315 2 0.132057 9.38766 11.2672 11.8075
316 2 0.172706 11.3535 11.1113 12.0571
317 2 0.1259 8.9445 12.7483 14.6152
189 3 -0.792194 5.58233 12.859 15.851
357 2 0.16095 14.2439 11.821 17.346
276 2 0.238347 4.74394 15.4957 11.5491
61 4 1.11371 10.0578 12.1164 17.4572
ITEM: TIMESTEP
100
ITEM: NUMBER OF ATOMS
365
ITEM: BOX BOUNDS xy xz yz pp pp pp
-6.9345999999999997e+00 1.9702400000000001e+01 -6.9345999999999997e+00
0.0000000000000000e+00 1.5863300000000001e+01 2.0880000000000001e+00
0.0000000000000000e+00 1.7813484000000003e+01 8.7949999999999995e-01
ITEM: ATOMS id type q x y z
224 2 0.128607 -1.26901 5.83172 4.40004
2 4 1.23764 1.01935 2.03847 0.845928
4 4 0.995315 2.78892 4.14242 5.4277
8 4 0.814757 -0.953279 4.32272 2.07613
10 4 1.26822 1.31399 5.31724 7.917
256 2 0.14915 3.67737 5.00593 2.49761
21 4 1.39371 4.69734 2.12465 4.60032
22 4 1.46919 6.40015 2.27138 0.0964644
25 4 1.0627 6.95297 2.84178 6.39639
29 4 1.258 5.98995 4.39811 2.80782
32 4 1.51004 5.92594 5.49815 7.96473
34 4 1.50709 5.01241 7.54363 5.93736
68 1 -0.679259 -0.919886 6.21044 5.47863
74 1 -0.647397 7.75946 0.925487 3.83281
78 1 -0.665287 1.54851 6.87898 2.85558
79 1 -0.693279 4.56713 5.68602 2.7718
102 3 -0.762251 1.83554 1.32728 1.94766
105 3 -0.782865 -0.0594182 3.19033 1.49823
107 3 -0.84163 2.03984 4.73019 6.61433
353 2 0.131421 -1.55565 6.67833 0.936061
255 2 0.242512 4.22507 6.45162 3.55339
119 3 -0.794087 4.22088 0.884811 3.6274
120 3 -0.759707 3.25586 2.6098 5.60006
121 3 -0.758776 6.69712 0.851456 1.05494
123 3 -0.794035 6.0505 1.69896 5.8042
129 3 -0.877413 5.28399 3.2913 3.75228
130 3 -0.763755 6.29791 3.64448 1.07675
133 3 -0.831418 6.46858 4.2872 7.04175
240 2 0.224524 7.19419 1.88646 3.63091
136 3 -0.836773 4.90794 6.43328 7.03044
191 2 0.0186373 3.86685 5.18721 4.55365
192 2 -0.0418238 1.819 4.1744 4.08827
257 2 0.159829 5.02273 6.3205 1.89087
204 2 0.0333996 8.13658 2.17344 7.51285
206 2 -0.00798681 0.138515 5.52808 2.77576
135 3 -0.811866 3.56979 7.6648 4.7375
67 1 -0.651353 -1.84645 5.55801 0.790731
134 3 -0.829617 1.98664 6.57186 8.65749
225 2 0.148911 -1.62452 5.96194 6.32461
226 2 0.153226 0.164835 5.86856 5.57489
1 4 1.32048 3.06473 0.202048 2.75244
260 2 0.179873 3.4816 5.95436 1.07259
195 2 -0.00642617 -0.198139 5.85022 7.31645
252 2 0.126931 1.65238 5.96414 3.557
253 2 0.176774 2.01157 6.62095 1.83196
254 2 0.168474 0.509448 7.26462 2.70034
259 2 0.163152 1.73389 5.76557 0.238885
80 1 -0.66021 2.82934 6.01771 0.0922784
242 2 0.208194 7.51092 0.396183 4.86166
349 2 0.294738 5.09877 0.201439 1.069
3 4 1.26556 0.937583 2.96501 9.92277
5 4 1.35039 4.40783 1.08166 14.1158
7 4 1.44611 3.14361 3.17755 12.2235
12 4 1.06842 1.68201 5.42833 14.1964
345 2 0.111363 0.380898 4.6563 15.0371
24 4 1.26385 5.49594 3.613 10.5114
216 2 0.00417692 6.37457 7.05011 13.3538
27 4 1.35246 5.6179 3.2718 16.174
28 4 1.22802 8.39808 2.6827 11.4552
258 2 0.175478 5.37564 6.22095 16.7194
265 2 0.145826 4.38781 7.34428 13.4111
69 1 -0.619835 2.92503 5.73927 15.5874
77 1 -0.681253 5.94382 4.76673 15.0161
106 3 -0.829971 0.864371 4.18621 9.00024
82 1 -0.650702 4.62962 6.73745 12.4766
103 3 -0.836231 2.13483 2.89907 10.9452
104 3 -0.817157 3.38724 1.88208 13.1511
358 2 0.194789 5.85771 1.0084 12.2568
295 2 0.169914 7.63459 5.9061 15.709
110 3 -0.771118 2.44403 4.36116 13.2333
111 3 -0.825993 1.39448 6.86604 13.7553
122 3 -0.788484 4.70548 3.90487 11.8501
124 3 -0.799619 5.26906 2.16003 15.055
125 3 -0.811728 6.97195 3.09454 17.0902
126 3 -0.758943 4.32308 3.58917 17.0488
127 3 -0.832813 7.00829 3.29326 10.981
128 3 -0.818121 8.20605 1.53053 12.5936
132 3 -0.799173 5.23423 4.70579 9.33316
301 2 0.167993 8.24282 4.85764 12.4392
157 3 -0.8163 10.0702 1.41389 14.4928
264 2 0.249953 3.66573 6.19551 12.0321
203 2 -0.0359928 4.90038 2.22392 9.9123
263 2 0.201623 5.52582 6.01183 12.6883
227 2 0.16583 2.79034 6.89692 15.6121
228 2 0.201147 4.07293 5.34237 15.3308
229 2 0.172761 2.45886 5.17242 16.4724
332 2 0.18717 2.57289 1.62713 16.4461
249 2 0.169671 7.05802 4.53892 14.7055
250 2 0.150876 5.82961 5.79218 15.3878
251 2 0.220384 5.1197 4.45273 14.2212
223 2 0.166844 0.816183 6.02053 17.362
169 3 -0.802925 6.30271 7.83031 10.4961
190 2 -0.0199954 1.28535 1.6544 9.0043
137 3 -0.818485 3.42528 7.94113 10.4006
296 2 0.167872 7.52067 7.6552 16.5368
231 2 0.149808 -1.60151 7.94136 9.43583
330 1 -0.662152 2.04653 1.65826 17.4452
11 4 1.27418 -0.684715 8.05998 5.2286
14 4 1.09414 -4.89849 12.4489 3.91365
15 4 1.03728 -1.37261 9.80123 7.91401
17 4 1.29303 -2.34151 12.2461 5.89173
23 4 1.04216 1.98883 13.6084 7.97099
30 4 1.36552 2.28582 8.29464 3.95363
36 4 1.27094 3.61089 9.8874 1.76239
37 4 1.27962 0.12372 12.2574 3.89088
39 4 1.51739 4.08069 9.96539 7.35933
40 4 1.49848 2.95687 12.1904 5.54501
112 3 -0.804268 -4.51552 13.8961 3.51229
72 1 -0.661714 -2.71898 14.0479 6.12349
75 1 -0.667801 0.479474 14.445 7.15137
113 3 -0.770293 -1.02365 8.98581 6.65339
114 3 -0.707335 -3.80873 11.6753 4.9387
115 3 -0.78239 -2.2247 11.4886 7.3047
131 3 -0.798759 0.81818 8.27524 4.78027
138 3 -0.811209 2.6636 9.59922 3.11899
139 3 -0.833309 3.51509 8.61834 0.821224
140 3 -0.806219 -0.109959 13.4489 2.79652
141 3 -0.810233 -1.11941 12.2686 4.87243
142 3 -0.850009 3.38583 11.1685 0.880937
143 3 -0.869331 3.1466 8.94149 8.16891
144 3 -0.802453 5.19614 9.16211 6.48404
145 3 -0.813113 1.5091 12.2594 4.63232
146 3 -0.799673 3.02145 10.737 6.21373
147 3 -0.799867 3.04919 13.2811 6.83351
338 2 0.219976 2.72772 13.2643 1.53947
245 2 0.204302 0.516166 14.6709 6.04378
209 2 0.00560178 0.107346 10.8385 2.97804
356 2 0.260135 -2.00762 14.6414 5.49752
108 3 -0.762202 -1.92496 8.22373 4.06898
235 2 0.124451 -2.39232 14.1698 7.21941
236 2 0.204061 -3.78031 14.4237 6.0458
181 3 -0.838671 4.78509 11.06 8.48102
197 2 0.0666915 -2.92919 12.2223 8.51068
232 2 0.202311 1.2658 10.2802 8.04013
9 4 0.601697 -3.17243 7.908 3.1718
329 2 0.161175 -2.85545 13.4987 1.43056
327 1 -0.65143 -2.92208 14.6282 1.22497
20 4 1.06986 0.674629 14.7601 2.35315
359 2 0.14131 0.702878 9.47628 0.0757771
244 2 0.129106 -0.255908 13.6121 7.37517
234 2 0.114984 -0.118515 11.6492 8.45095
243 2 0.165858 0.435362 15.3565 7.7904
328 2 0.185961 -3.58804 14.9364 0.354298
324 2 0.151218 -4.23007 11.9218 0.0617029
16 4 0.548393 -3.4552 13.0302 9.96763
18 4 1.20177 -0.640271 10.5067 14.3236
19 4 0.872987 -1.70786 11.3041 11.2541
31 4 1.01487 4.95805 8.77785 17.0703
35 4 1.29005 4.82617 8.11798 11.241
38 4 0.993622 4.87498 12.5546 16.9983
41 4 1.24571 4.86927 10.9029 13.1666
42 4 1.00092 1.39917 13.0784 15.0688
43 4 1.24484 3.06565 12.9305 11.9415
73 1 -0.640631 -2.03297 10.2424 15.495
81 1 -0.666674 3.21815 9.54446 16.9047
83 1 -0.704349 1.2514 12.6348 11.4944
116 3 -0.806419 0.183571 9.16861 14.3038
117 3 -0.749326 -2.93426 12.3077 11.2936
118 3 -0.751519 -1.22314 10.948 12.7282
238 2 0.173571 -1.55403 9.39432 16.1471
148 3 -0.812653 4.95778 9.68074 12.1816
149 3 -0.777154 0.445187 11.9792 14.8804
150 3 -0.812945 1.045 14.4373 14.4204
151 3 -0.822376 3.41986 11.6172 13.2961
152 3 -0.816593 3.16951 14.4294 12.6456
320 4 0.927306 -3.86201 13.6058 15.6346
173 3 -0.783456 5.91073 8.99193 15.2947
182 3 -0.837187 3.93841 12.6145 10.5327
334 2 0.196437 -1.76212 14.2686 12.3506
26 4 1.42375 2.19306 15.5159 13.5216
321 1 -0.643463 -3.21348 12.7574 17.186
200 2 -0.0398848 -0.541541 11.739 10.1349
335 2 0.296283 -0.370288 14.7951 13.4944
201 2 0.0758747 -2.04026 9.73657 10.414
208 2 -0.0150597 2.54583 9.08694 12.9635
210 2 0.0911589 5.0675 10.189 14.6888
211 2 0.065206 2.90203 12.4797 14.616
212 2 -0.0344382 3.73323 11.3707 16.4347
213 2 -0.0681328 1.83289 13.2107 16.7095
13 4 0.951639 1.09851 8.33209 13.3325
237 2 0.169768 -2.40678 11.1883 16.1312
33 4 1.34438 2.44495 7.99561 9.10417
207 2 -0.0217799 0.991567 8.85178 9.53448
262 2 0.1411 3.05659 9.77363 15.8052
266 2 0.138304 1.21867 11.7012 10.8432
267 2 0.156429 0.998836 13.5929 10.9568
268 2 0.209282 0.624854 12.5309 12.437
198 2 -0.0618959 -2.83337 14.5198 9.86803
154 3 -0.749024 2.62653 14.7544 8.88037
323 3 -0.795859 -3.22449 14.8026 14.9081
333 1 -0.660403 -1.33919 15.1339 12.9127
261 2 0.116956 2.68447 8.43113 17.1622
196 2 -0.0427968 0.406147 8.30656 11.8365
70 1 -0.675597 -2.14417 8.97956 9.30046
233 2 0.108903 0.799392 10.5891 9.9003
202 2 -0.00391631 1.65176 12.1466 8.8466
71 1 -0.667948 0.389216 10.5918 8.78549
341 2 -0.0106441 3.99345 13.9849 17.389
354 2 0.24475 14.6044 5.30059 0.810642
47 4 0.710022 14.105 3.74074 5.77651
51 4 1.20098 11.1479 4.14918 1.09124
52 4 1.45442 7.56598 6.70719 4.06722
54 4 0.918726 11.8208 5.77344 7.24746
361 2 0.146782 14.7232 0.752319 1.05367
66 1 -0.660445 15.1555 3.69529 2.97784
76 1 -0.659585 8.7836 2.94988 5.84345
85 1 -0.605124 13.5348 2.112 5.83849
89 1 -0.644778 10.742 4.56512 2.87358
90 1 -0.643276 11.0751 1.73906 7.87299
91 1 -0.656467 10.2116 4.80167 8.17074
162 3 -0.751329 10.881 2.54464 0.974364
163 3 -0.774154 12.9322 4.76395 1.00614
164 3 -0.818663 7.27686 5.10462 3.48475
166 3 -0.789636 9.95731 5.00705 0.293616
176 3 -0.834729 8.49995 7.19739 0.217797
167 3 -0.724094 13.0363 4.74592 6.45982
342 2 -0.00351466 14.7502 6.58555 2.14509
222 2 0.173451 15.3825 2.61177 2.96412
171 3 -0.836093 9.11732 6.82131 4.67012
172 3 -0.754256 12.0913 7.16974 8.04187
285 2 0.164629 11.7613 1.0186 7.32416
214 2 0.0757454 10.1667 5.67188 6.52043
343 2 0.0596612 15.1008 4.2957 4.22402
246 2 0.170625 9.47729 2.12467 5.53696
247 2 0.156119 9.33441 3.70408 6.75745
248 2 0.194621 8.4454 3.60128 4.8748
270 2 -0.000938249 15.1365 2.71286 6.72511
271 2 0.137703 13.0623 2.0503 4.65173
272 2 0.17619 12.5922 2.02362 6.52999
282 2 0.194277 9.9365 3.80826 3.139
283 2 0.21632 10.3926 5.64331 2.96102
284 2 0.179029 11.7209 4.34291 3.33189
165 3 -0.818057 6.33535 7.30867 5.04423
286 2 0.136847 11.7859 2.55599 8.34574
287 2 0.17522 10.332 2.20289 7.11705
346 2 0.0808282 7.17988 4.8913 0.334437
289 2 0.171813 10.4322 3.62982 8.13404
351 2 0.216869 14.3081 4.02212 2.25336
219 2 0.0397381 14.8266 0.875057 6.09038
290 2 0.218447 9.05961 4.92157 8.21937
168 3 -0.813786 7.24734 6.54346 8.38464
241 2 0.135282 8.93215 1.07152 3.74085
355 2 0.293406 12.2234 7.60119 7.05399
339 3 -0.800624 12.0995 0.0417284 0.240264
175 3 -0.809777 7.50896 7.60672 2.69849
170 3 -0.762646 11.6561 7.46631 4.90515
193 2 0.141067 16.5316 1.42124 0.00815088
352 2 0.314395 13.0978 4.368 0.0763961
6 4 1.24417 15.5919 2.82201 15.4888
159 3 -0.829462 9.60503 3.44215 16.3757
46 4 1.07769 10.4679 1.04808 9.55358
350 2 0.182733 17.0754 3.13525 16.5204
49 4 1.30223 10.72 2.58692 15.4587
50 4 1.06849 15.6596 2.05827 10.9902
277 2 0.182602 12.9201 1.54485 10.5863
55 4 1.27535 7.61259 7.26856 9.73736
58 4 1.10895 9.87238 6.61434 11.641
86 1 -0.687875 11.566 3.92985 14.4008
45 4 1.41415 13.3946 2.20473 17.1588
88 1 -0.629389 14.2391 3.0705 10.7523
94 1 -0.652406 11.5409 6.07793 10.8266
95 1 -0.678124 9.10983 5.49261 13.0489
153 3 -0.828738 14.2034 3.27913 16.0608
156 3 -0.847192 15.915 1.49498 14.7268
302 2 0.167017 8.71099 6.0689 13.9144
288 2 0.178372 10.7109 5.30785 9.17587
158 3 -0.781086 12.0078 1.85495 16.3356
161 3 -0.814909 15.3505 1.05391 12.1938
160 3 -0.810429 17.0426 2.61776 10.5927
300 2 0.147608 9.87474 4.75929 13.4849
174 3 -0.826294 8.69123 6.46443 10.6409
205 2 -0.0089684 9.50588 3.87292 12.0046
273 2 0.231895 12.6328 4.00689 14.6774
274 2 0.147519 11.0073 4.93071 14.7
275 2 0.152068 11.4575 3.71878 13.3457
93 1 -0.69431 7.90856 7.04256 15.5856
279 2 0.162776 13.3452 3.00995 11.488
280 2 0.0279081 14.4352 1.86444 9.51925
281 2 0.171588 14.5143 4.09509 10.4699
347 2 -0.0291899 10.58 6.53233 15.7405
109 3 -0.766772 16.7492 3.93888 15.7108
294 2 0.132621 9.00267 7.17339 15.319
297 2 0.245902 11.7953 6.55184 9.69473
298 2 0.145407 11.4934 4.98798 10.8519
299 2 0.175312 12.3268 6.4895 11.5703
155 3 -0.786901 9.35912 2.15633 10.2624
53 4 1.00115 10.7008 6.58613 17.3597
87 1 -0.668107 12.1743 0.678658 10.4313
44 4 1.32275 6.2745 13.7783 0.935807
59 4 1.22306 8.19726 8.31761 1.39082
60 4 1.28875 5.67925 12.5831 3.88783
310 2 0.211467 5.78209 10.2144 4.21344
63 4 0.858065 7.89356 13.9914 6.03786
340 3 -0.73606 9.3661 11.5074 0.0958556
362 2 0.201731 7.41436 14.9511 2.63256
92 1 -0.676485 9.8859 9.56084 5.19668
96 1 -0.66825 9.8493 9.13649 1.76547
97 1 -0.637599 11.4566 11.6685 3.19163
98 1 -0.648562 6.50541 10.8934 3.65642
306 2 0.170956 11.657 11.7031 2.01156
177 3 -0.770914 5.63454 13.2234 2.31011
363 2 0.254861 9.28079 12.7161 6.34729
179 3 -0.765267 7.43278 9.97555 0.992277
311 2 0.131615 7.45266 12.5063 8.56178
183 3 -0.737871 9.45125 13.7074 6.15477
184 3 -0.766145 6.91803 13.4219 4.87788
217 2 0.0434575 5.20477 10.0207 2.43562
178 3 -0.82202 4.2856 12.4033 4.5509
360 2 0.178478 2.97648 14.8819 2.27875
220 2 -0.0132988 7.10973 13.9215 7.65449
336 1 -0.686121 2.40614 14.3051 1.461
291 2 0.176351 10.5405 10.3589 4.41641
292 2 0.142472 10.2007 9.53023 6.40167
293 2 0.171938 8.80655 9.63902 5.07956
303 2 0.257961 9.7384 10.1437 1.14654
304 2 0.16404 10.6358 8.44449 1.3794
305 2 0.162502 9.94027 9.3312 2.91401
218 2 0.0671776 5.38486 13.6588 8.40588
307 2 0.178162 10.4516 12.0681 3.62184
308 2 0.167629 7.43697 11.1235 4.40328
309 2 0.268467 6.85191 10.5789 2.46991
325 2 0.126836 11.4673 12.833 0.356358
269 2 0.193784 8.63718 14.1035 1.50773
337 2 0.242741 2.49099 14.7475 0.435543
84 1 -0.67205 7.75266 14.7626 1.58706
56 4 1.12904 10.3058 7.81395 4.88191
331 2 0.15776 10.5958 14.7085 0.567351
194 2 0.117274 12.9308 7.77544 4.07416
180 3 -0.772053 6.91749 12.6738 0.0226213
319 2 0.210207 7.97628 11.9938 16.039
48 4 1.26053 8.46393 15.3871 13.6608
64 4 0.976275 9.60575 9.36641 13.0063
65 4 1.29891 6.60789 13.0371 14.4636
187 3 -0.769284 5.97675 12.064 12.9894
99 1 -0.649298 6.81094 13.0856 9.33796
100 1 -0.641923 10.3307 11.0091 12.4414
101 1 -0.685099 8.22865 12.0156 14.9585
230 2 0.196429 14.4401 8.83983 8.97216
185 3 -0.811627 8.02334 9.24642 13.6393
62 4 1.14085 4.99972 12.182 9.52367
364 2 0.1222 11.6384 13.1641 15.1118
188 3 -0.801064 7.22548 14.4796 14.1602
199 2 -0.0425364 12.5162 13.1973 9.90769
326 2 0.161733 12.9305 11.5579 14.797
348 2 0.00103698 9.88276 11.364 15.7051
365 2 0.202126 12.7053 12.9212 13.4435
221 2 0.00879481 10.7155 10.1525 14.1497
239 2 0.17079 14.7547 9.86424 14.7579
344 2 -0.0215685 9.72563 14.3193 13.6042
278 2 0.178476 5.7898 14.6963 9.93726
215 2 -0.00656425 8.51237 8.64252 9.36751
322 1 -0.632161 12.6643 12.6565 14.5074
318 2 0.227049 8.14293 11.0025 14.4287
312 2 0.100816 6.62019 11.8417 10.5526
313 2 0.161694 7.41903 13.9317 9.73781
314 2 0.151159 10.3112 11.8626 13.2156
315 2 0.127688 9.28663 11.0482 11.5847
316 2 0.170889 11.3777 10.9886 11.9279
317 2 0.14186 9.09492 12.6966 14.5803
189 3 -0.868149 5.69024 12.8457 15.7334
61 4 1.13907 10.0902 12.1127 17.3658
276 2 0.227981 4.6808 15.4105 11.4328
357 2 0.169352 13.9956 11.7109 17.2447
57 4 1.02685 7.05652 8.28574 14.4056
186 3 -0.787608 10.2364 8.12152 12.2636
ITEM: TIMESTEP
200
ITEM: NUMBER OF ATOMS
365
ITEM: BOX BOUNDS xy xz yz pp pp pp
-6.9345999999999997e+00 1.9702400000000001e+01 -6.9345999999999997e+00
0.0000000000000000e+00 1.5863300000000001e+01 2.0880000000000001e+00
0.0000000000000000e+00 1.8162768000000003e+01 8.7949999999999995e-01
ITEM: ATOMS id type q x y z
224 2 0.131355 -1.27832 5.73102 4.98786
2 4 1.27803 1.09379 2.08507 0.676664
4 4 0.968782 2.5783 4.07353 5.3137
8 4 0.754275 -0.970365 4.47477 2.06864
10 4 1.30665 1.50039 5.34392 8.08792
256 2 0.139026 3.62712 4.9267 2.48016
21 4 1.45426 4.7209 2.15437 4.66755
349 2 0.281775 5.08089 0.366312 0.955917
25 4 1.09874 6.99262 2.79434 6.58362
29 4 1.2727 5.89585 4.37297 2.74413
32 4 1.53704 5.89999 5.40661 7.95257
34 4 1.53645 5.15167 7.53762 5.8099
68 1 -0.679779 -0.724983 6.25061 5.87741
74 1 -0.641642 8.02345 0.774325 3.76848
78 1 -0.664352 1.4725 6.9551 2.6635