ITEM: TIMESTEP
0
ITEM: NUMBER OF ATOMS
365
ITEM: BOX BOUNDS xy xz yz pp pp pp
-6.9345999999999997e+00 1.9702400000000001e+01 -6.9345999999999997e+00
0.0000000000000000e+00 1.5863300000000001e+01 2.0880000000000001e+00
0.0000000000000000e+00 1.7464200000000002e+01 8.7949999999999995e-01
ITEM: ATOMS id type q x y z
224 2 0.112289 -1.60583 6.01711 4.37789
2 4 1.2443 1.09776 2.05543 0.821746
4 4 1.00267 2.69664 4.15371 5.45913
8 4 0.784988 -0.929912 4.46745 2.08996
10 4 1.35315 1.28942 5.41212 7.89449
256 2 0.147807 3.7378 4.90561 2.46915
21 4 1.4267 4.73164 2.20839 4.63061
22 4 1.49535 6.40667 2.19466 0.191909
25 4 1.12691 6.96746 2.99677 6.43685
29 4 1.27213 6.04278 4.41516 2.83846
32 4 1.52599 5.90759 5.46805 7.98113
34 4 1.51632 5.05972 7.51747 5.92678
68 1 -0.678299 -0.931229 6.29722 5.41029
74 1 -0.648521 8.02586 0.681511 3.84258
78 1 -0.663501 1.61453 6.67381 2.91239
79 1 -0.685892 4.56355 5.66353 2.81497
102 3 -0.78212 1.92158 1.13132 1.9715
105 3 -0.758009 0.0693379 3.25516 1.48595
107 3 -0.859253 2.01501 4.85401 6.6885
353 2 0.147064 -1.51986 6.63512 0.644247
255 2 0.262873 4.19642 6.40199 3.66696
119 3 -0.802394 4.04805 1.02047 3.71383
120 3 -0.786721 3.40896 2.81453 5.70314
121 3 -0.789258 6.74922 0.820204 1.07316
123 3 -0.815549 6.05989 1.92507 5.71101
129 3 -0.865316 5.28704 3.32613 3.6428
130 3 -0.769835 6.63035 3.63823 1.23279
133 3 -0.870158 6.4563 4.29445 7.04615
240 2 0.218448 7.38785 1.59499 3.73411
136 3 -0.829548 4.87172 6.49966 7.18005
191 2 0.029862 3.69084 5.19468 4.55313
192 2 -0.0446149 1.55828 4.00113 4.23864
257 2 0.145945 4.99236 6.21586 1.84837
204 2 0.0142555 8.03267 2.15483 7.4518
206 2 -0.00760963 0.119534 5.45231 3.09422
135 3 -0.843083 3.46657 7.42136 4.82192
67 1 -0.664787 -1.74123 5.55722 0.665293
342 2 -0.0134722 -2.73378 6.7906 1.87757
225 2 0.145347 -1.60365 6.18131 6.38459
226 2 0.139971 0.151069 5.86089 5.46504
1 4 1.37621 3.04516 0.238699 2.65852
260 2 0.163833 3.54208 5.77973 1.03995
195 2 0.00953948 -0.187145 6.01611 7.25633
252 2 0.113771 1.66132 5.84758 3.74543
253 2 0.172699 2.08951 6.35101 1.87719
254 2 0.150496 0.560458 7.06512 2.75216
259 2 0.143968 1.72934 5.89284 0.255735
80 1 -0.65763 2.87318 5.96971 0.0236519
134 3 -0.854142 1.75574 6.68673 8.63276
349 2 0.270854 5.14544 0.157278 1.12625
3 4 1.26081 1.0083 2.91351 9.77807
5 4 1.31757 4.45463 1.16481 14.0295
7 4 1.49491 3.0176 3.36388 12.1643
12 4 1.03555 1.6698 5.42774 14.2467
345 2 0.104921 0.178192 4.81229 14.8522
24 4 1.29923 5.53478 3.54071 10.4738
216 2 0.0046111 6.32458 7.08432 13.4347
27 4 1.32984 5.58613 3.17415 16.1624
28 4 1.2342 8.46281 2.65417 11.3661
258 2 0.187523 5.33816 6.15368 16.7294
265 2 0.147439 4.45846 7.27704 13.5119
69 1 -0.642674 2.82419 5.59941 15.6943
77 1 -0.6881 5.85 4.66934 14.9606
106 3 -0.823988 0.906936 4.24211 8.87893
82 1 -0.658598 4.55672 6.6125 12.5665
103 3 -0.839394 2.01193 3.03872 10.9651
104 3 -0.793356 3.40749 1.96247 13.0569
358 2 0.204256 5.96126 0.888762 12.0732
295 2 0.135624 7.71007 6.1083 15.4432
110 3 -0.808085 2.3646 4.3721 13.2615
111 3 -0.791087 1.53479 6.94753 13.6115
122 3 -0.833156 4.47422 3.90243 11.5662
124 3 -0.807016 5.22185 1.96639 15.2046
125 3 -0.810656 7.0843 2.9901 16.9491
126 3 -0.781698 4.35316 3.53502 17.2044
127 3 -0.847674 7.00522 3.12488 10.9618
128 3 -0.789844 8.21324 1.43919 12.4383
132 3 -0.813094 5.60883 4.73788 9.44042
330 1 -0.65968 2.13443 1.65285 17.3944
157 3 -0.818147 10.055 1.55532 14.3716
264 2 0.24469 3.53427 6.17613 12.2488
203 2 -0.0399322 4.97659 2.2236 9.60234
263 2 0.223639 5.32367 5.81088 12.5742
227 2 0.161728 2.76822 6.73202 15.8481
228 2 0.20221 3.94894 5.19604 15.421
229 2 0.18591 2.39428 4.96757 16.5438
332 2 0.192973 2.45605 1.79236 16.2449
249 2 0.167944 6.91173 4.46778 14.5899
250 2 0.137009 5.699 5.73383 15.4571
251 2 0.193978 5.06 4.40516 14.1934
223 2 0.18041 0.754597 5.97178 17.2447
169 3 -0.815504 6.15527 7.62573 10.6417
35 4 1.32352 4.70247 8.0192 11.2759
137 3 -0.866823 3.42584 7.88183 10.3601
301 2 0.14256 8.2085 5.04857 12.7053
159 3 -0.833137 9.58738 3.18712 16.5071
57 4 0.972336 6.97534 8.13294 14.6162
190 2 -0.0267277 1.53655 1.75143 8.74919
11 4 1.20381 -0.65812 8.12577 5.22117
14 4 1.11381 -4.90624 12.4706 3.84583
15 4 1.00906 -1.36888 9.81361 7.94902
17 4 1.24954 -2.46417 12.1816 5.82161
23 4 1.05751 2.07216 13.6378 7.93763
30 4 1.33299 2.26501 8.10824 4.08179
36 4 1.28137 3.6298 9.78062 1.77518
37 4 1.25195 0.233807 12.1885 3.99087
39 4 1.51942 4.02661 9.86626 7.3149
40 4 1.56431 2.93768 12.1557 5.43678
112 3 -0.81333 -4.49941 13.883 3.34228
72 1 -0.663586 -2.76642 14.0091 6.23034
75 1 -0.652544 0.431792 14.3142 7.23964
113 3 -0.758522 -1.1483 8.77884 6.79187
114 3 -0.714568 -3.93648 11.6002 4.83717
115 3 -0.759815 -2.40743 11.361 7.24221
131 3 -0.80051 0.847123 8.52889 4.85944
138 3 -0.800956 2.64864 9.38427 3.03739
139 3 -0.832424 3.61444 8.5563 0.814607
140 3 -0.807064 0.139336 13.2784 2.7126
141 3 -0.807318 -1.10318 12.2138 4.93376
142 3 -0.848886 3.24359 11.1088 1.01421
143 3 -0.873024 3.02765 8.95814 8.02041
144 3 -0.819767 5.33567 8.98699 6.48268
145 3 -0.869495 1.59023 12.3895 4.78587
146 3 -0.855788 3.22076 10.8084 6.30468
147 3 -0.789211 2.90919 13.344 6.6821
338 2 0.225159 2.79105 13.0847 1.5709
245 2 0.200369 0.53813 14.4102 6.04095
209 2 0.0385846 0.286618 10.6247 3.33623
356 2 0.215629 -1.73903 14.4081 5.8582
108 3 -0.737813 -1.7959 8.51967 3.81395
235 2 0.116921 -2.74521 13.8748 7.39616
236 2 0.215472 -3.58613 14.6462 5.92744
181 3 -0.802465 4.81581 10.8754 8.59449
197 2 0.0718482 -3.02886 12.0925 8.50113
232 2 0.215784 1.13944 10.1135 7.88434
9 4 0.601989 -3.02655 8.01821 3.00797
329 2 0.16548 -2.75206 13.4501 1.57922
327 1 -0.663451 -2.86632 14.56 1.19579
20 4 1.09379 0.718667 14.6875 2.27402
341 2 -0.00193422 1.82484 13.102 0.12056
328 2 0.204403 -3.35943 14.5576 0.211474
331 2 0.176322 -6.69092 14.7271 0.326579
325 2 0.146756 -5.36379 12.9122 0.358171
234 2 0.119079 0.103071 11.6226 8.26761
244 2 0.119436 -0.236596 13.4478 7.66435
242 2 0.193366 0.796513 15.1048 4.8822
243 2 0.157514 0.280586 15.2704 7.76349
359 2 0.141154 0.794008 9.33623 0.0689316
16 4 0.574921 -3.60761 12.9745 9.90705
18 4 1.19669 -0.397502 10.6378 14.3198
19 4 0.869547 -1.8789 11.1758 11.352
31 4 1.05109 4.9294 8.70309 17.1455
324 2 0.172561 -1.83378 12.9136 16.6701
38 4 0.96144 4.74138 12.5594 17.1319
41 4 1.23673 4.79077 10.8442 13.1775
42 4 0.969764 1.5781 13.1344 15.0965
43 4 1.21376 2.90522 12.8463 11.9033
73 1 -0.632903 -1.84006 10.2485 15.4888
81 1 -0.675134 3.18507 9.59056 16.6573
83 1 -0.687816 1.12025 12.5331 11.5376
116 3 -0.805165 0.487188 9.2753 14.1913
117 3 -0.762344 -3.07287 12.3182 11.1926
118 3 -0.759618 -1.22546 10.9652 12.7685
238 2 0.169582 -1.44852 9.45464 16.2006
148 3 -0.827715 4.82888 9.572 12.2253
149 3 -0.789415 0.445861 12.0367 14.9685
150 3 -0.800843 1.23729 14.5406 14.5104
151 3 -0.825427 3.37049 11.6279 13.3244
152 3 -0.819686 3.09086 14.4873 12.5311
320 4 0.909613 -3.89488 13.6337 15.6405
173 3 -0.775656 5.77517 8.77787 15.4382
182 3 -0.816952 3.85626 12.4879 10.5764
334 2 0.189352 -1.90698 14.3381 12.5755
26 4 1.46051 2.2737 15.5052 13.4339
321 1 -0.6498 -2.93318 12.8548 17.0437
200 2 -0.0270802 -0.703807 11.421 10.1123
335 2 0.284348 -0.355088 14.9082 13.5673
201 2 0.0493837 -2.26524 9.59284 10.6678
208 2 -0.00161324 2.90532 9.16178 13.0414
210 2 0.0954139 5.00724 10.0504 14.7311
211 2 0.06335 3.11992 12.508 14.708
212 2 -0.0427265 3.49352 11.5556 16.5987
213 2 -0.0607065 1.96243 13.298 16.6624
13 4 0.950697 1.40607 8.46638 13.2387
237 2 0.175986 -2.23468 11.2364 16.0427
33 4 1.34375 2.41226 8.02809 9.15096
207 2 -0.0139991 1.073 8.96646 9.62849
262 2 0.166303 2.9038 10.0215 15.6682
266 2 0.125192 0.859151 11.5613 10.8435
267 2 0.151199 0.90032 13.5231 10.9147
268 2 0.2033 0.564033 12.5101 12.587
198 2 -0.061218 -2.96642 14.4948 9.62051
154 3 -0.770964 2.69887 14.7339 9.01144
323 3 -0.753275 -3.2966 14.8676 14.9153
333 1 -0.669185 -1.27115 15.2247 12.9167
261 2 0.125575 2.67654 8.5407 16.7992
196 2 -0.050335 0.91745 8.59535 11.6901
70 1 -0.635623 -2.24959 9.01022 9.20611
233 2 0.125183 1.14862 10.8049 9.74059
202 2 0.000858557 1.62671 12.2465 8.83121
231 2 0.157517 -1.64878 7.98618 9.25079
71 1 -0.676545 0.509605 10.6202 8.73498
354 2 0.235422 14.7179 5.3154 0.690233
47 4 0.718899 13.8899 3.76818 5.70874
51 4 1.14112 11.1513 4.15466 1.26302
52 4 1.44886 7.42724 6.84545 3.96909
54 4 0.947143 11.7376 5.75759 7.08354
361 2 0.15167 14.6848 0.869643 1.53838
66 1 -0.634166 15.1075 3.88564 2.79696
76 1 -0.673069 8.84457 3.07563 5.85602
85 1 -0.621827 13.4679 2.1425 5.75926
89 1 -0.662105 10.7456 4.47115 3.12251
90 1 -0.652564 11.0998 1.71878 7.7686
91 1 -0.642973 10.2972 4.83141 8.20195
162 3 -0.784449 11.0151 2.46743 0.92099
163 3 -0.762829 12.9892 4.67478 0.954141
164 3 -0.794669 7.31737 5.01617 3.63976
166 3 -0.806585 10.021 5.10959 0.450209
176 3 -0.832535 8.46463 7.30275 0.0942798
167 3 -0.767546 12.8121 4.77935 6.38273
352 2 0.293417 13.0779 4.05974 0.118361
222 2 0.152725 15.3692 2.73211 2.83498
171 3 -0.805164 9.04451 7.03425 4.72928
172 3 -0.747195 11.9559 7.06656 8.08205
285 2 0.167683 11.6351 0.78968 7.35442
214 2 0.0484345 10.0308 5.57664 6.46969
343 2 0.0234329 15.0438 4.53256 4.34443
246 2 0.175453 9.38035 2.11917 5.50156
247 2 0.158521 9.40307 3.6799 6.71083
248 2 0.219152 8.54149 3.7787 4.95862
270 2 -0.00339497 14.9202 2.93448 6.85979
271 2 0.136355 13.0877 2.05865 4.50779
272 2 0.187862 12.6617 1.92588 6.53293
282 2 0.170606 11.1546 3.50956 3.5182
283 2 0.220807 9.58299 4.57648 3.26218
284 2 0.20465 11.29 5.38916 3.44722
165 3 -0.873717 6.24323 7.15567 4.95736
286 2 0.146627 11.8116 2.54218 8.15643
287 2 0.174724 10.2195 2.18785 7.13683
346 2 0.0769484 7.36167 4.89491 0.356353
289 2 0.165525 10.5463 3.66363 7.97879
351 2 0.242734 14.205 4.25248 2.10137
219 2 0.0434807 14.7758 0.979289 5.94782
290 2 0.226372 9.24259 5.0982 8.05185
168 3 -0.779656 7.30948 6.4668 8.43581
241 2 0.159293 9.16617 0.870048 3.70291
355 2 0.264004 12.3708 7.61212 7.26023
339 3 -0.78498 12.3143 0.281985 0.24165
193 2 0.147208 16.582 1.18872 0.270992
170 3 -0.74558 11.6042 7.65772 4.56971
6 4 1.24284 15.5617 2.88415 15.3443
296 2 0.175638 7.98299 7.32688 16.9001
46 4 1.11579 10.505 1.08833 9.55531
350 2 0.193729 16.6932 3.43156 16.7407
49 4 1.35226 10.6617 2.42776 15.5951
50 4 1.06452 15.7648 2.13412 11.0215
277 2 0.174809 12.911 1.73867 10.5197
55 4 1.30331 7.43612 7.41251 9.7032
58 4 1.08728 9.7733 6.6103 11.6371
86 1 -0.665447 11.4807 3.66903 14.3969
45 4 1.41944 13.4857 2.37138 17.1425
88 1 -0.631847 14.4264 3.21982 10.663
94 1 -0.644014 11.4971 6.25312 10.9269
95 1 -0.688003 9.14151 5.61613 13.1368
153 3 -0.874916 14.0873 3.10508 15.8091
156 3 -0.838761 15.9231 1.41177 14.6906
302 2 0.172773 8.82215 6.19676 13.9966
288 2 0.1891 10.7437 5.25625 9.28293
158 3 -0.7541 11.8197 1.62702 16.5393
161 3 -0.804981 15.437 1.17264 12.2465
160 3 -0.813361 17.168 2.44459 10.3305
300 2 0.143684 9.98532 4.78854 13.5208
174 3 -0.797545 8.70677 6.89391 10.4668
205 2 -0.0134691 9.31006 3.95282 12.0824
273 2 0.229831 12.5808 3.69299 14.5393
274 2 0.138597 11.0767 4.70791 14.7173
275 2 0.163435 11.1897 3.37534 13.2915
93 1 -0.676997 8.07964 7.18057 15.7579
279 2 0.162981 13.5721 3.25165 11.4903
280 2 0.048654 14.4786 1.98465 9.59171
281 2 0.171366 14.7561 4.18822 10.2126
347 2 -0.0252669 10.7638 6.56724 15.7381
109 3 -0.794353 16.6699 3.96003 15.6767
294 2 0.165565 9.09594 7.56751 15.3959
297 2 0.269346 11.6841 6.55498 9.79707
298 2 0.125689 11.3712 5.11807 11.0819
299 2 0.191638 12.2356 6.7427 11.6201
155 3 -0.811557 9.58671 2.24102 10.2803
53 4 0.986905 10.8414 6.65293 17.3788
87 1 -0.650688 12.1574 0.821503 10.4792
44 4 1.32414 6.31219 13.8691 1.02841
59 4 1.29504 8.12761 8.32885 1.36281
60 4 1.32223 5.72997 12.518 3.83993
310 2 0.201956 5.91816 10.0022 4.17912
63 4 0.873913 7.70904 14.0498 6.00025
340 3 -0.73037 9.30062 11.5054 0.274904
362 2 0.198324 8.25255 14.2667 2.57851
92 1 -0.651208 9.82071 9.58536 5.23155
96 1 -0.663906 9.81746 9.19739 1.93464
97 1 -0.618143 11.4515 11.6715 3.16263
98 1 -0.674075 6.53087 10.7692 3.65186
306 2 0.164723 11.778 11.1594 2.13465
177 3 -0.793899 5.73296 13.2353 2.31623
363 2 0.250248 9.01443 12.6873 6.31156
179 3 -0.776585 7.36365 9.72389 1.00513
311 2 0.140544 7.35893 12.71 8.55785
183 3 -0.735056 9.2432 13.6911 6.09818
184 3 -0.779405 6.72984 13.3951 4.91228
217 2 0.0394632 5.21273 10.0497 2.38147
178 3 -0.817252 4.31309 12.381 4.49167
360 2 0.192858 3.16867 14.716 2.42902
220 2 -0.0169303 7.01812 14.0462 7.54625
336 1 -0.660205 2.52217 14.2064 1.60474
291 2 0.180691 10.4832 10.4977 4.35889
292 2 0.147473 10.0671 9.6841 6.3669
293 2 0.16636 8.67213 9.48527 5.02065
303 2 0.258958 9.72081 10.148 1.26475
304 2 0.169817 10.5441 8.40623 1.57813
305 2 0.194465 9.80333 9.37232 3.04579
218 2 0.0536462 5.23798 13.6759 8.47872
307 2 0.181581 10.4261 12.2587 3.23227
308 2 0.163886 7.49343 11.0378 4.26661
309 2 0.262506 6.87035 10.3509 2.52642
180 3 -0.769475 6.9176 12.681 0.169056
269 2 0.184765 8.55491 14.4099 0.740499
337 2 0.263751 2.58237 14.8269 0.568704
194 2 0.109414 13.0815 7.74932 3.91261
56 4 1.13453 10.3071 7.87216 5.03463
175 3 -0.869483 7.42957 7.68135 2.64822
84 1 -0.654947 7.90765 14.7082 1.57336
230 2 0.184116 14.2915 8.98508 8.67381
319 2 0.209178 7.89615 12.0654 16.1627
48 4 1.2793 8.57887 15.3783 13.6438
64 4 0.995612 9.62664 9.44123 13.0962
65 4 1.19516 6.6456 12.9376 14.3735
187 3 -0.785837 5.94172 11.9646 13.1257
99 1 -0.656916 6.74972 13.1963 9.32865
100 1 -0.667953 10.3738 11.1224 12.6109
101 1 -0.678179 8.12391 11.9695 15.0581
186 3 -0.7378 10.1853 8.14676 12.3697
185 3 -0.772348 8.1773 9.22321 13.8203
62 4 1.07806 4.97113 12.1474 9.51577
364 2 0.124651 11.5374 13.4274 15.2009
188 3 -0.754229 7.24759 14.5329 13.8368
199 2 -0.0428917 12.3559 13.1055 9.8598
326 2 0.166365 12.5398 11.618 14.9395
348 2 0.00270582 9.9425 11.7182 15.8088
365 2 0.180795 12.7718 12.9578 13.5932
221 2 0.0102811 10.8397 10.0321 14.1944
239 2 0.177915 15.0183 9.7776 14.7982
344 2 -0.030065 9.89159 14.325 13.5597
278 2 0.172914 5.77978 14.8093 9.98809
215 2 -0.00422428 7.72697 8.90361 8.9762
322 1 -0.647618 12.4777 12.7116 14.7136
318 2 0.234728 8.16592 10.819 14.6671
312 2 0.0889295 6.61254 11.9486 10.4556
313 2 0.16937 7.33215 14.0009 9.81895
314 2 0.160881 10.3293 11.8203 13.4834
315 2 0.132057 9.38766 11.2672 11.8075
316 2 0.172706 11.3535 11.1113 12.0571
317 2 0.1259 8.9445 12.7483 14.6152
189 3 -0.792194 5.58233 12.859 15.851
357 2 0.16095 14.2439 11.821 17.346
276 2 0.238347 4.74394 15.4957 11.5491
61 4 1.11371 10.0578 12.1164 17.4572
ITEM: TIMESTEP
100
ITEM: NUMBER OF ATOMS
365
ITEM: BOX BOUNDS xy xz yz pp pp pp
-6.9345999999999997e+00 1.9702400000000001e+01 -6.9345999999999997e+00
0.0000000000000000e+00 1.6215588000000000e+01 2.0880000000000001e+00
0.0000000000000000e+00 1.7464200000000002e+01 1.2317879999999999e+00
ITEM: ATOMS id type q x y z
224 2 0.12862 -1.26903 5.83165 4.40008
2 4 1.23558 1.01912 2.03848 0.845475
4 4 0.995244 2.78892 4.14243 5.4277
8 4 0.814706 -0.953263 4.32293 2.07618
10 4 1.26816 1.31399 5.31724 7.91702
256 2 0.149196 3.6773 5.00615 2.49715
21 4 1.39366 4.69739 2.12465 4.6003
22 4 1.46921 6.40023 2.27139 0.0964985
25 4 1.0626 6.95297 2.84178 6.3964
29 4 1.25821 5.98994 4.39813 2.80783
32 4 1.50989 5.92593 5.49816 7.96472
34 4 1.50723 5.01241 7.54365 5.93735
68 1 -0.679226 -0.919896 6.21045 5.47862
74 1 -0.647361 7.75954 0.925134 3.83233
78 1 -0.66522 1.54856 6.8794 2.85595
79 1 -0.693259 4.56707 5.68601 2.7715
102 3 -0.760591 1.83511 1.32664 1.94785
105 3 -0.782892 -0.0590211 3.19033 1.49834
107 3 -0.841652 2.03983 4.7302 6.61432
353 2 0.131303 -1.55503 6.67845 0.935791
255 2 0.242543 4.22519 6.45144 3.55311
119 3 -0.794163 4.22088 0.884843 3.62742
120 3 -0.759629 3.25583 2.6098 5.60006
121 3 -0.758852 6.69712 0.851563 1.05466
123 3 -0.794057 6.05057 1.69893 5.80414
129 3 -0.877512 5.28399 3.29132 3.75225
130 3 -0.763703 6.29785 3.64441 1.07676
133 3 -0.831479 6.46859 4.28719 7.04176
240 2 0.224452 7.19389 1.88622 3.63022
136 3 -0.836819 4.90794 6.43329 7.03045
191 2 0.0186255 3.86683 5.18724 4.55354
192 2 -0.0417855 1.81905 4.17447 4.08825
257 2 0.159861 5.02262 6.32059 1.89076
204 2 0.0334049 8.13659 2.17339 7.51282
206 2 -0.00800648 0.138485 5.5282 2.77529
135 3 -0.811647 3.56971 7.66498 4.7374
67 1 -0.651016 -1.84604 5.5581 0.79068
134 3 -0.829594 1.98663 6.57187 8.65745
225 2 0.148915 -1.62445 5.9619 6.32465
226 2 0.153203 0.164949 5.86862 5.57486
1 4 1.32056 3.06482 0.201852 2.75257
260 2 0.179681 3.4816 5.95444 1.07362
195 2 -0.0064612 -0.198123 5.85019 7.31641
252 2 0.126999 1.65266 5.96458 3.55728
253 2 0.176777 2.01132 6.62127 1.83228
254 2 0.168563 0.50938 7.2647 2.70085
259 2 0.163154 1.7329 5.7661 0.238115
80 1 -0.659952 2.82875 6.01889 0.0920812
242 2 0.208181 7.51077 0.395395 4.86102
349 2 0.294725 5.09881 0.20165 1.06895
330 1 -0.658707 -0.042711 0.751219 0.00934398
3 4 1.26549 0.937622 2.96501 9.92279
5 4 1.35063 4.40805 1.08064 14.1166
7 4 1.44568 3.14361 3.17746 12.2236
12 4 1.06794 1.68237 5.42846 14.1962
345 2 0.111051 0.381806 4.65667 15.0371
24 4 1.26401 5.49592 3.61299 10.5114
216 2 0.00423188 6.37456 7.05007 13.354
27 4 1.35221 5.61792 3.27171 16.1739
28 4 1.22806 8.39807 2.68273 11.4552
258 2 0.175479 5.37591 6.22301 16.719
265 2 0.145921 4.38771 7.34405 13.4109
69 1 -0.620036 2.92519 5.73931 15.5876
77 1 -0.68124 5.94391 4.76687 15.016
106 3 -0.829799 0.864381 4.18621 9.00024
82 1 -0.650657 4.62958 6.7374 12.4766
103 3 -0.836245 2.13483 2.89906 10.9452
104 3 -0.816944 3.3872 1.8817 13.1514
358 2 0.194841 5.8591 1.00875 12.2575
295 2 0.16995 7.63479 5.90589 15.709
110 3 -0.771264 2.44408 4.36117 13.2332
111 3 -0.826066 1.39453 6.86604 13.7552
122 3 -0.788421 4.70541 3.90482 11.85
124 3 -0.799685 5.26855 2.15965 15.055
125 3 -0.811615 6.97199 3.09451 17.0901
126 3 -0.759865 4.32385 3.58951 17.0492
127 3 -0.83283 7.00827 3.29326 10.981
128 3 -0.818142 8.20592 1.53054 12.5936
132 3 -0.799113 5.23424 4.70579 9.33317
301 2 0.16802 8.24276 4.85761 12.4392
157 3 -0.816151 10.0701 1.41384 14.4928
264 2 0.250048 3.66575 6.19558 12.032
203 2 -0.0359254 4.90038 2.22391 9.91228
263 2 0.201684 5.52569 6.01175 12.6883
227 2 0.165869 2.7906 6.89689 15.6127
228 2 0.201056 4.073 5.34256 15.3308
229 2 0.172063 2.45907 5.17202 16.4724
332 2 0.18357 2.57572 1.61865 16.473
249 2 0.16976 7.05749 4.53973 14.705
250 2 0.150971 5.82937 5.79204 15.388
251 2 0.220253 5.11915 4.45216 14.2217
223 2 0.166523 0.816166 6.02028 17.3616
169 3 -0.802992 6.3027 7.8303 10.4961
190 2 -0.0200128 1.28543 1.6544 9.00432
137 3 -0.81848 3.42529 7.94113 10.4006
296 2 0.16789 7.52087 7.65503 16.5366
231 2 0.149845 -1.60146 7.94139 9.43586
11 4 1.27402 -0.684628 8.06 5.22857
14 4 1.09406 -4.89843 12.4489 3.91366
15 4 1.03729 -1.37261 9.80122 7.91402
17 4 1.29288 -2.34148 12.2461 5.8917
23 4 1.04225 1.98883 13.6084 7.97096
30 4 1.36561 2.28595 8.29487 3.95304
36 4 1.27217 3.6087 9.89135 1.75985
37 4 1.27965 0.123714 12.2574 3.89082
39 4 1.51764 4.08069 9.96539 7.35932
40 4 1.49847 2.95686 12.1904 5.54502
112 3 -0.804152 -4.51552 13.8961 3.5123
72 1 -0.661719 -2.71898 14.0479 6.12351
75 1 -0.667791 0.479529 14.4451 7.15131
113 3 -0.770319 -1.02364 8.98579 6.65338
114 3 -0.70743 -3.80869 11.6753 4.93871
115 3 -0.782361 -2.22468 11.4886 7.30469
131 3 -0.798566 0.818396 8.27542 4.78011
138 3 -0.811073 2.66378 9.59935 3.11764
139 3 -0.833381 3.51506 8.62062 0.820776
140 3 -0.806234 -0.110038 13.4488 2.7964
141 3 -0.810269 -1.11939 12.2687 4.87242
142 3 -0.852618 3.3835 11.1686 0.88225
143 3 -0.869375 3.14659 8.94149 8.16891
144 3 -0.802356 5.19615 9.1621 6.48405
145 3 -0.813081 1.50908 12.2595 4.6323
146 3 -0.799592 3.02145 10.737 6.21371
147 3 -0.799758 3.0492 13.2811 6.83349
338 2 0.219899 2.7296 13.2619 1.531
245 2 0.204355 0.516384 14.6712 6.04389
209 2 0.00563146 0.107351 10.8385 2.97835
356 2 0.260102 -2.00758 14.6414 5.49751
108 3 -0.762195 -1.92493 8.22377 4.06897
235 2 0.124452 -2.39232 14.1697 7.21942
236 2 0.204146 -3.78027 14.4237 6.04581
181 3 -0.838563 4.78509 11.06 8.48103
197 2 0.066747 -2.92923 12.2223 8.51065
232 2 0.202319 1.26589 10.2802 8.04017
9 4 0.601562 -3.17237 7.90795 3.17179
329 2 0.161342 -2.85527 13.4988 1.43031
327 1 -0.651356 -2.92213 14.6281 1.22493
20 4 1.06981 0.674386 14.7599 2.35299
359 2 0.141249 0.707726 9.4828 0.0758159
244 2 0.129112 -0.255815 13.6121 7.37489
234 2 0.114979 -0.118569 11.6493 8.45091
243 2 0.165844 0.435244 15.3565 7.79041
328 2 0.186346 -3.588 14.9361 0.354518
324 2 0.150926 -4.24274 11.8869 0.10513
16 4 0.548294 -3.45522 13.0302 9.9676
18 4 1.20179 -0.640536 10.5065 14.3238
19 4 0.873017 -1.70774 11.3042 11.2542
31 4 1.01481 4.95812 8.77907 17.0706
35 4 1.29022 4.82616 8.11791 11.241
38 4 0.993031 4.87479 12.5555 16.9978
41 4 1.24521 4.86888 10.9022 13.1663
42 4 1.00153 1.39895 13.0783 15.0688
43 4 1.24478 3.06549 12.9306 11.9413
73 1 -0.641853 -2.03247 10.2437 15.496
81 1 -0.666297 3.22054 9.54926 16.9047
83 1 -0.704536 1.25125 12.6347 11.4944
116 3 -0.806404 0.183703 9.16857 14.3037
117 3 -0.749388 -2.93427 12.3076 11.2936
118 3 -0.751609 -1.2231 10.9478 12.7281
238 2 0.17339 -1.55578 9.39317 16.1457
148 3 -0.812819 4.95767 9.68035 12.1814
149 3 -0.77688 0.445177 11.9793 14.8809
150 3 -0.812873 1.04516 14.4374 14.4204
151 3 -0.822284 3.41969 11.6171 13.2961
152 3 -0.816474 3.16955 14.4293 12.6457
320 4 0.927533 -3.86273 13.6056 15.6354
173 3 -0.78352 5.91081 8.99178 15.2952
182 3 -0.837294 3.93839 12.6145 10.5327
334 2 0.196262 -1.76441 14.2694 12.3515
26 4 1.42396 2.19298 15.5158 13.5216
321 1 -0.642939 -3.20899 12.7546 17.1839
200 2 -0.0398875 -0.54141 11.739 10.1349
335 2 0.296267 -0.370649 14.7942 13.4947
201 2 0.0758728 -2.04023 9.73675 10.414
208 2 -0.0149457 2.54602 9.08668 12.9634
210 2 0.0905668 5.06664 10.1887 14.6877
211 2 0.0653182 2.90206 12.4797 14.616
212 2 -0.034474 3.73555 11.3724 16.4292
213 2 -0.0679613 1.83292 13.2113 16.7095
13 4 0.951815 1.09869 8.33209 13.3324
237 2 0.171157 -2.4023 11.1843 16.129
33 4 1.34428 2.44495 7.9956 9.10419
207 2 -0.021832 0.991596 8.85172 9.5345
262 2 0.140744 3.06634 9.78146 15.8031
266 2 0.138455 1.22011 11.7024 10.8432
267 2 0.156364 0.99974 13.5932 10.9566
268 2 0.209308 0.622644 12.5304 12.4356
198 2 -0.0619093 -2.83339 14.5198 9.868
154 3 -0.74906 2.62652 14.7544 8.88039
323 3 -0.79554 -3.22324 14.8021 14.9092
333 1 -0.66045 -1.33991 15.1346 12.914
261 2 0.11704 2.68143 8.43779 17.1612
196 2 -0.0427234 0.406339 8.30652 11.8366
70 1 -0.675541 -2.14417 8.97957 9.30045
233 2 0.109015 0.798631 10.5881 9.89944
202 2 -0.00399486 1.65172 12.1466 8.84656
71 1 -0.668109 0.389214 10.5918 8.78544
341 2 -0.00960111 4.01283 13.9901 17.3781
354 2 0.244507 14.6003 5.29961 0.812201
47 4 0.710137 14.105 3.74079 5.77648
51 4 1.2003 11.148 4.15131 1.08687
52 4 1.45474 7.56596 6.70722 4.06721
54 4 0.91871 11.8208 5.77344 7.24746
361 2 0.148621 14.7254 0.753825 1.05643
66 1 -0.660062 15.1558 3.69477 2.97813
76 1 -0.659518 8.78363 2.94988 5.84345
85 1 -0.605077 13.5349 2.112 5.83854
89 1 -0.643717 10.742 4.56583 2.87445
90 1 -0.643223 11.0751 1.73906 7.87299
91 1 -0.656511 10.2116 4.80168 8.17075
162 3 -0.751092 10.8825 2.5446 0.973953
163 3 -0.771492 12.9326 4.76995 1.01024
164 3 -0.818505 7.27683 5.10464 3.48478
166 3 -0.7913 9.95527 5.00614 0.296301
176 3 -0.834571 8.50017 7.19737 0.217676
167 3 -0.724125 13.0363 4.74586 6.45987
342 2 -0.00348503 14.7506 6.58561 2.14475
222 2 0.173829 15.3833 2.61139 2.96498
171 3 -0.835945 9.11727 6.82136 4.67016
172 3 -0.754276 12.0913 7.16974 8.04186
285 2 0.164634 11.7613 1.0186 7.32417
214 2 0.075738 10.1667 5.67186 6.52043
343 2 0.0597226 15.1002 4.29611 4.22371
246 2 0.170695 9.47737 2.12475 5.53693
247 2 0.156115 9.33443 3.70407 6.75745
248 2 0.194657 8.44542 3.60131 4.87482
270 2 -0.00091031 15.1366 2.71297 6.72479
271 2 0.137723 13.0623 2.05044 4.65148
272 2 0.176184 12.5922 2.02363 6.52995
282 2 0.194697 9.93841 3.80877 3.13568
283 2 0.216696 10.3946 5.6427 2.96302
284 2 0.178909 11.7229 4.34337 3.33553
165 3 -0.818 6.33534 7.30864 5.04425
286 2 0.136842 11.7859 2.55597 8.34576
287 2 0.175242 10.332 2.20289 7.11704
346 2 0.0809074 7.17878 4.89213 0.333625
289 2 0.17181 10.4322 3.62983 8.13403
351 2 0.217279 14.3075 4.02149 2.25158
219 2 0.0397981 14.8267 0.875074 6.09043
290 2 0.218406 9.05962 4.92155 8.21941
168 3 -0.813803 7.24734 6.54344 8.38464
241 2 0.13527 8.93245 1.07106 3.7401
355 2 0.293398 12.2234 7.6012 7.05397
339 3 -0.799038 12.099 0.0419407 0.240947
175 3 -0.809721 7.50902 7.6067 2.6985
170 3 -0.762602 11.6561 7.4663 4.90509
352 2 0.309721 13.0885 4.3966 0.0572458
6 4 1.24531 15.592 2.82239 15.4891
159 3 -0.829592 9.60506 3.44208 16.3758
46 4 1.07764 10.4679 1.04809 9.55358
350 2 0.182676 17.0723 3.13843 16.5245
49 4 1.30235 10.7199 2.58699 15.4584
50 4 1.06849 15.6596 2.05824 10.9902
277 2 0.182607 12.9201 1.54485 10.5863
55 4 1.2753 7.61258 7.26857 9.73737
58 4 1.10905 9.87234 6.61434 11.641
86 1 -0.688083 11.5659 3.92998 14.4007
45 4 1.41457 13.3947 2.20463 17.1589
88 1 -0.629434 14.2391 3.07049 10.7523
94 1 -0.652351 11.5409 6.07794 10.8266
95 1 -0.678033 9.10977 5.49265 13.0488
153 3 -0.828824 14.2022 3.27858 16.0583
156 3 -0.845569 15.9153 1.49519 14.7267
302 2 0.16707 8.71093 6.06894 13.9145
288 2 0.178373 10.7109 5.30786 9.17588
158 3 -0.780786 12.0078 1.85514 16.3349
161 3 -0.815083 15.3505 1.05386 12.1939
160 3 -0.810519 17.0426 2.61775 10.5927
300 2 0.147544 9.87463 4.75935 13.4848
174 3 -0.8263 8.69122 6.46444 10.6409
205 2 -0.00899097 9.50586 3.87295 12.0046
273 2 0.231833 12.6326 4.00683 14.677
274 2 0.147285 11.0074 4.93093 14.6996
275 2 0.152031 11.4573 3.71888 13.3457
93 1 -0.6942 7.9085 7.04255 15.5857
279 2 0.162783 13.3452 3.00996 11.488
280 2 0.0278043 14.4352 1.86442 9.51926
281 2 0.171549 14.5143 4.09506 10.4698
347 2 -0.0293982 10.5817 6.53158 15.7406
109 3 -0.767329 16.7501 3.93821 15.7087
294 2 0.132557 9.00308 7.17346 15.3189
297 2 0.24594 11.7953 6.55183 9.69472
298 2 0.145388 11.4933 4.98797 10.8519
299 2 0.175218 12.3269 6.48944 11.5702
155 3 -0.786943 9.35911 2.15631 10.2624
53 4 1.00152 10.7006 6.58576 17.3599
87 1 -0.668163 12.1743 0.678664 10.4313
193 2 0.138996 18.6416 2.32439 17.4431
44 4 1.33092 6.27401 13.7795 0.934655
59 4 1.22258 8.19719 8.31764 1.39084
60 4 1.28819 5.67919 12.5831 3.88783
310 2 0.211585 5.7811 10.2143 4.21233
63 4 0.858001 7.89355 13.9914 6.03789
340 3 -0.735383 9.36357 11.5073 0.0957015
362 2 0.201153 7.41705 14.952 2.63353
92 1 -0.676549 9.88562 9.5607 5.19707
96 1 -0.668347 9.84926 9.13633 1.76559
97 1 -0.637658 11.4562 11.6686 3.19231
98 1 -0.648982 6.50451 10.8932 3.65568
306 2 0.170481 11.6564 11.702 2.01223
177 3 -0.774235 5.63517 13.222 2.30934
363 2 0.254857 9.2808 12.7162 6.34766
179 3 -0.766952 7.43232 9.97766 0.991614
311 2 0.131642 7.45264 12.5063 8.56178
183 3 -0.737769 9.45125 13.7074 6.1547
184 3 -0.766256 6.91811 13.4218 4.87786
217 2 0.0431069 5.20363 10.0278 2.43124
178 3 -0.82214 4.28559 12.4033 4.55092
360 2 0.178519 2.97702 14.8793 2.2764
220 2 -0.0133289 7.1097 13.9215 7.65449
336 1 -0.686255 2.40568 14.3035 1.45913
291 2 0.176318 10.5402 10.3588 4.41697
292 2 0.142551 10.2005 9.52993 6.40208
293 2 0.171936 8.80624 9.6387 5.07982
303 2 0.257984 9.73759 10.1421 1.14784
304 2 0.163882 10.6363 8.44509 1.37898
305 2 0.162405 9.94045 9.33118 2.91409
218 2 0.067253 5.38486 13.6588 8.4059
307 2 0.178164 10.4514 12.0692 3.62229
308 2 0.167474 7.43613 11.1229 4.40286
309 2 0.266948 6.85148 10.5781 2.46932
325 2 0.125748 11.4814 12.8403 0.354347
269 2 0.194842 8.63664 14.1025 1.50837
337 2 0.242586 2.48844 14.7508 0.435442
84 1 -0.669551 7.75268 14.763 1.5883
56 4 1.12918 10.3058 7.81394 4.88195
331 2 0.161041 10.5886 14.6757 0.572768
194 2 0.117294 12.9308 7.77528 4.07411
319 2 0.207758 7.97767 11.9956 16.0405
48 4 1.26191 8.46392 15.3872 13.661
64 4 0.976231 9.60583 9.36637 13.0061
65 4 1.29816 6.61011 13.0348 14.462
187 3 -0.769467 5.97705 12.0636 12.9888
99 1 -0.649327 6.81095 13.0856 9.33798
100 1 -0.641879 10.331 11.0092 12.4415
101 1 -0.684799 8.23059 12.0146 14.9583
230 2 0.196466 14.4401 8.83979 8.97213
185 3 -0.811688 8.02335 9.24621 13.6393
62 4 1.14083 4.99972 12.182 9.52366
364 2 0.123339 11.6404 13.1634 15.1172
188 3 -0.799437 7.22556 14.4796 14.1599
199 2 -0.0426895 12.5162 13.1973 9.90766
326 2 0.161564 12.9367 11.5563 14.7972
348 2 0.00151435 9.88536 11.3627 15.709
365 2 0.201114 12.7001 12.9211 13.4371
221 2 0.00900633 10.7157 10.1525 14.1499
239 2 0.170413 14.7541 9.86927 14.7578
344 2 -0.0208363 9.72536 14.3191 13.6042
278 2 0.178441 5.78979 14.6963 9.93725
215 2 -0.00657393 8.51233 8.64255 9.36749
322 1 -0.630754 12.6618 12.6535 14.5069
318 2 0.226831 8.14435 11.001 14.4309
312 2 0.100769 6.62019 11.8417 10.5526
313 2 0.161591 7.41904 13.9317 9.73779
314 2 0.151329 10.3117 11.8624 13.216
315 2 0.127538 9.28633 11.0484 11.5849
316 2 0.1709 11.3776 10.9889 11.9276
317 2 0.142925 9.09885 12.6934 14.5806
189 3 -0.86717 5.68833 12.851 15.7339
61 4 1.12632 10.0913 12.1132 17.3656
276 2 0.228023 4.6808 15.4105 11.4328
357 2 0.169218 13.9861 11.7151 17.2324
180 3 -0.769361 9.00561 13.6192 17.4539
57 4 1.02683 7.0565 8.28573 14.4057
186 3 -0.787616 10.2365 8.12149 12.2636
ITEM: TIMESTEP
200
ITEM: NUMBER OF ATOMS
365
ITEM: BOX BOUNDS xy xz yz pp pp pp
-6.9345999999999997e+00 1.9702400000000001e+01 -6.9345999999999997e+00
0.0000000000000000e+00 1.6567875999999998e+01 2.0880000000000001e+00
0.0000000000000000e+00 1.7464200000000002e+01 1.5840759999999996e+00
ITEM: ATOMS id type q x y z
224 2 0.13568 -1.31594 5.76863 4.96237
2 4 1.19389 1.07677 1.97117 0.847185
4 4 0.990463 2.59392 4.08637 5.39204
8 4 0.764999 -0.989496 4.48742 2.04375
10 4 1.32701 1.49098 5.33715 8.09105
256 2 0.129229 3.63518 4.95109 2.3797
21 4 1.44343 4.70885 2.12566 4.71781
22 4 1.4844 6.2934 2.24079 0.107384
25 4 1.10217 7.00197 2.79537 6.59479
29 4 1.32003 5.92596 4.26922 2.7413
32 4 1.53249 5.90289 5.4008 7.95883
34 4 1.53901 5.16111 7.55626 5.85234
68 1 -0.676736 -0.759524 6.23359 5.87376
74 1 -0.648212 8.0226 0.791025 3.8488
78 1 -0.689763 1.43409 6.90021 2.81792