ITEM: TIMESTEP
0
ITEM: NUMBER OF ATOMS
243
ITEM: BOX BOUNDS xy xz yz pp pp pp
-7.3456000000000001e+00 1.4691300000000000e+01 -7.3456000000000001e+00
0.0000000000000000e+00 1.2723000000000001e+01 0.0000000000000000e+00
0.0000000000000000e+00 1.5963100000000001e+01 0.0000000000000000e+00
ITEM: ATOMS id type x y z
134 1 3.79307 5.62945 1.22538
139 1 2.84915 6.14883 4.03709
31 2 7.1154 0.0202689 7.01734
6 2 1.47918 2.35454 5.33539
10 2 -0.0397982 4.28614 1.74312
13 2 -0.226776 4.28715 7.03388
93 1 -2.03386 6.11276 4.04481
29 2 3.84138 2.10353 3.50832
140 1 3.86572 5.4476 6.45084
1 2 2.28378 0.111152 1.7336
37 2 4.71626 4.40254 1.76119
40 2 4.7212 4.31541 7.12148
82 1 1.30205 1.24783 1.14951
83 1 0.450221 1.81378 4.21593
84 1 1.7057 1.24249 6.47239
88 1 -0.805621 3.10124 2.39925
89 1 0.947866 3.68999 0.660708
90 1 -0.840433 5.50469 1.12237
91 1 -1.17304 3.24337 7.77253
92 1 0.683064 3.57576 5.9709
135 1 3.85207 3.21437 7.89294
94 1 -0.998675 5.44752 6.26287
118 1 3.24665 0.689869 2.90145
119 1 2.9307 2.67339 4.71555
120 1 6.14964 1.13728 0.99193
123 1 5.35975 2.02117 4.06932
124 1 6.23364 1.17901 6.38083
130 1 3.73735 3.23321 2.31805
132 1 0.870275 4.93765 2.9555
2 2 -0.971043 2.00379 3.51177
28 2 7.11339 0.138599 1.76996
41 2 1.33094 6.20177 8.846
9 2 1.28535 2.29902 10.5993
16 2 -0.113228 4.29919 12.33
32 2 3.80474 1.98873 8.89948
14 2 -3.60765 6.28635 8.75149
35 2 3.7977 2.01186 14.0514
7 2 2.3043 0.0266733 12.3447
43 2 4.7196 4.31198 12.4145
44 2 1.41777 6.28958 14.1171
85 1 0.423599 1.77005 14.7745
86 1 0.359343 1.8024 9.31302
87 1 1.33269 1.24002 11.7668
95 1 -0.872473 3.07583 13.0059
96 1 0.700623 3.6887 11.0735
97 1 -2.06682 5.97449 14.9366
98 1 -2.17584 6.06799 9.42475
99 1 -1.1044 5.4504 11.8429
121 1 3.37457 0.630868 8.23926
122 1 2.71462 2.2906 9.98211
125 1 3.30334 0.58557 13.4423
126 1 5.29299 2.04174 14.6171
127 1 2.84508 2.44179 15.2737
128 1 5.24001 1.87744 9.53915
129 1 6.37677 1.25187 11.7438
137 1 0.671913 4.9351 8.16817
141 1 3.8052 3.09644 12.8823
143 1 0.885619 4.98094 13.4033
144 1 2.81938 6.17145 14.8795
146 1 2.77117 5.96173 9.53323
147 1 3.87161 5.4212 11.6584
8 2 -1.01657 1.90294 14.1568
17 2 -3.44049 6.202 14.178
3 2 1.33886 2.30422 15.9009
5 2 -1.14784 2.01703 8.80078
34 2 7.2301 0.0925119 12.4616
21 2 -3.63304 10.6784 0.0339124
15 2 -1.01732 6.55497 5.14261
19 2 -2.49187 8.56542 1.75997
161 1 1.36464 9.53316 6.38498
22 2 -2.55325 8.48645 7.02775
24 2 -3.47355 10.8004 5.22823
46 2 2.24911 8.63884 1.76037
47 2 -1.03715 10.4938 3.57017
49 2 2.38873 8.43724 7.00953
100 1 -3.48564 7.42181 2.31197
101 1 -1.77145 8.03501 0.412366
102 1 -6.00812 11.6662 2.30429
103 1 -3.54019 9.69505 1.31053
104 1 -4.1373 12.0472 0.698388
105 1 -3.38465 7.27254 7.5125
106 1 -1.53592 7.86851 5.91095
107 1 -5.77274 11.5417 7.57468
108 1 -4.57613 10.5183 4.11155
109 1 -3.33675 9.64002 6.26704
110 1 -3.94196 12.0916 5.91862
133 1 0.44416 6.84609 4.60779
148 1 1.27581 7.49101 2.32503
150 1 -1.61252 9.16953 2.88099
151 1 -0.898418 11.5344 2.32216
152 1 -2.03981 11.0115 4.6431
153 1 1.39901 9.80813 1.14974
155 1 1.46139 7.2792 7.6779
158 1 -1.06086 11.5626 7.73267
160 1 0.424757 10.3241 4.17914
20 2 -5.9679 10.4673 3.32957
11 2 -3.48941 6.36419 3.48466
38 2 1.39914 6.37368 3.43182
4 2 -4.85785 12.7082 7.03774
18 2 -1.19876 6.48842 10.5757
25 2 -2.58852 8.47673 12.4405
27 2 -3.55583 10.7994 10.6603
50 2 -1.17025 10.4492 8.8847
12 2 -1.03557 6.59072 15.9075
53 2 -1.14763 10.4827 14.1866
111 1 -3.39818 7.34713 13.0513
112 1 -1.71646 7.8434 11.2775
113 1 -4.62177 10.1757 14.8834
114 1 -5.91824 11.5765 13.082
115 1 -4.45487 10.2618 9.4199
116 1 -3.44582 9.73001 11.8316
117 1 -4.25115 12.1999 11.0991
138 1 0.278299 6.74299 9.99282
145 1 0.419802 6.86366 15.3117
157 1 -1.87182 9.06553 8.36018
159 1 -2.01305 10.9971 10.1204
163 1 1.56164 7.31479 12.9244
165 1 -1.61869 9.12109 13.539
166 1 0.282247 10.2795 14.88
167 1 -1.07273 11.6753 13.1519
168 1 -2.10768 10.8411 15.3834
169 1 0.333325 10.2182 9.44422
170 1 1.42972 9.66796 11.8265
26 2 -6.03512 10.4988 14.2541
23 2 -5.98069 10.478 8.76788
196 1 8.69591 5.38976 1.09168
204 1 8.75436 5.36499 6.489
203 1 7.7609 6.06229 4.15714
193 1 5.66288 4.90407 2.90069
198 1 10.6765 3.62179 5.90755
56 2 8.70055 2.08712 3.5295
197 1 8.98136 3.08419 7.78139
136 1 5.73027 3.6327 6.10163
60 2 11.1406 2.2454 5.21253
64 2 9.67467 4.30037 1.75998
65 2 6.29863 6.17906 3.59156
67 2 9.74409 4.25975 7.05663
131 1 5.64271 3.5789 0.653458
33 2 6.29852 2.36119 5.35981
172 1 13.0822 0.58076 3.0388
173 1 8.01159 0.799415 2.88417
174 1 7.7367 2.5658 4.70567
176 1 11.2173 1.2478 1.25296
180 1 12.5741 2.49354 4.53073
181 1 10.1916 1.86487 4.05362
182 1 11.2662 1.02903 6.22285
190 1 8.77704 3.06482 2.26755
191 1 10.7099 3.69387 0.683174
192 1 10.5101 5.04869 2.90425
55 2 12.0952 0.0823296 1.90038
57 2 11.2015 2.33043 0.0344504
71 2 6.15191 6.28049 14.163
213 1 8.73625 5.45058 11.8713
212 1 7.63687 6.00516 9.57115
209 1 7.61578 5.88884 14.6486
36 2 6.31482 2.39018 10.5855
59 2 8.73147 1.98483 8.84366
208 1 5.48888 4.99892 13.6074
62 2 8.7512 1.9903 14.2549
63 2 11.0908 2.13959 10.6528
68 2 6.25467 6.18391 8.82243
70 2 9.64973 4.18554 12.3711
30 2 6.27769 2.33267 15.9001
142 1 5.77395 3.73825 11.2885
175 1 12.6919 2.57337 15.295
207 1 10.6258 4.84035 13.4934
178 1 8.02402 0.77784 8.08276
179 1 7.84147 2.40303 10.0806
183 1 13.0872 0.501276 13.5534
184 1 8.20576 0.660715 13.6173
185 1 10.2102 1.84393 14.8186
186 1 7.79612 2.44886 15.3964
187 1 12.5685 2.45674 10.0595
188 1 10.1374 1.6184 9.4554
189 1 11.235 1.10288 11.8973
199 1 10.608 4.90929 8.16254
177 1 13.0467 0.617699 8.08536
205 1 8.80837 3.08265 13.1217
206 1 10.45 3.51983 11.1781
200 1 5.65488 4.86587 8.27795
232 1 5.84738 12.0178 5.99876
227 1 3.83971 11.5116 7.75212
42 2 3.8299 6.51099 5.29446
229 1 7.68583 10.7966 4.61284
51 2 1.39307 10.7915 5.35978
230 1 5.19048 10.3327 4.15234
69 2 8.75989 6.50691 5.35957
73 2 7.2339 8.41563 1.6819
74 2 3.7388 10.5061 3.53875
231 1 6.29809 9.52486 6.45788
76 2 7.31212 8.44161 7.05473
78 2 6.26017 10.622 5.31156
149 1 3.34138 8.03664 0.715085
154 1 0.770856 12.3037 0.650796
156 1 3.318 7.90939 5.82076
162 1 0.761227 12.0724 5.99569
194 1 5.29437 6.64766 4.76072
202 1 10.2539 6.74917 4.69995
214 1 6.32796 7.31073 2.46661
215 1 8.06652 7.73263 0.512663
216 1 8.19566 9.10967 2.73827
217 1 3.12621 9.10326 3.0023
218 1 3.88145 11.5882 2.44167
219 1 2.81424 11.1122 4.74136
221 1 6.28714 9.56635 1.09102
222 1 5.68742 12.0737 0.76573
223 1 6.37717 7.24615 7.59042
224 1 8.24352 7.92271 5.85564
75 2 6.25785 10.7246 0.0448067
58 2 4.74524 12.5801 6.98702
39 2 3.85203 6.67125 0.0428902
48 2 1.25687 10.8774 0.0339623
242 1 6.59578 9.78086 11.7203
243 1 5.58288 11.9803 11.2139
45 2 3.82105 6.56981 10.5408
54 2 1.28959 10.7324 10.6212
72 2 8.67963 6.46965 10.6482
77 2 3.8233 10.42 8.82468
79 2 7.29722 8.48774 12.4018
80 2 3.75262 10.4873 14.285
81 2 6.30996 10.7699 10.5554
164 1 3.38571 7.99475 11.1982
171 1 0.656725 12.1136 11.2441
195 1 10.0948 6.61982 15.2183
201 1 5.22673 6.81358 9.83581
210 1 5.28629 6.81613 15.4108
211 1 9.99731 6.71439 9.79312
220 1 7.65254 10.991 15.3622
225 1 8.15306 9.07939 8.19469
226 1 3.32003 9.10983 8.09925
228 1 2.76975 10.8337 9.97432
233 1 6.31896 7.33454 12.9863
234 1 8.24214 7.80949 11.2944
235 1 8.14021 9.07737 13.5998
236 1 3.26379 9.16208 13.5449
237 1 5.23669 10.3318 14.8235
238 1 3.78582 11.594 13.101
239 1 2.72232 11.0018 15.3634
240 1 7.71766 11.0942 9.87169
241 1 5.34192 10.2867 9.41228
61 2 4.79509 12.6417 12.4491
66 2 8.60121 6.40163 15.8535
52 2 2.42617 8.56078 12.4006
ITEM: TIMESTEP
100
ITEM: NUMBER OF ATOMS
243
ITEM: BOX BOUNDS xy xz yz pp pp pp
-7.3456000000000001e+00 1.4691300000000000e+01 -7.3456000000000001e+00
0.0000000000000000e+00 1.2716638500000000e+01 0.0000000000000000e+00
0.0000000000000000e+00 1.5963100000000001e+01 0.0000000000000000e+00
ITEM: ATOMS id type x y z
134 1 3.87305 5.54806 1.26678
139 1 2.90381 5.99361 4.13614
31 2 7.17595 0.00490901 7.09237
6 2 1.43583 2.37367 5.28041
10 2 -0.0538924 4.26954 1.69246
13 2 -0.233631 4.25491 7.00277
93 1 -1.96501 6.17596 4.03905
29 2 3.88818 2.12885 3.55881
140 1 3.83444 5.46828 6.4824
1 2 2.31462 0.110737 1.74616
37 2 4.77887 4.31546 1.77552
40 2 4.67915 4.26538 7.16172
82 1 1.51566 1.3987 1.14112
83 1 0.494198 1.79241 4.16731
84 1 1.52789 1.16683 6.36318
88 1 -0.926558 3.13721 2.38203
89 1 0.853606 3.7267 0.46974
90 1 -0.944558 5.53416 1.28259
91 1 -1.05495 3.11019 7.69392
92 1 0.735498 3.68282 5.87749
135 1 3.75399 3.1599 7.90927
94 1 -1.13599 5.43383 6.39198
118 1 3.27043 0.759837 2.89414
119 1 2.90574 2.66977 4.72202
120 1 6.10975 1.23215 1.02048
123 1 5.36887 1.97231 4.08048
124 1 6.25462 1.13078 6.47604
130 1 3.80221 3.12086 2.29092
132 1 0.937112 4.82125 2.86879
2 2 -1.01551 2.05608 3.54681
28 2 7.15968 0.108561 1.64239
11 2 -3.47875 6.2794 3.62705
38 2 1.46218 6.26107 3.51587
4 2 2.50324 0.0891514 7.07273
41 2 1.22584 6.22671 8.80242
9 2 1.25768 2.22922 10.6213
16 2 -0.00582917 4.2914 12.4427
32 2 3.90025 2.05083 9.07361
17 2 -3.47916 6.15456 14.0422
35 2 3.87589 2.02317 14.0123
7 2 2.21134 0.0392574 12.3838
43 2 4.70281 4.39218 12.4087
3 2 1.42016 2.39476 15.9036
85 1 0.458734 1.77059 14.803
86 1 0.327233 1.74176 9.413
87 1 1.2908 1.18065 11.8568
95 1 -0.970479 3.13274 13.0416
96 1 0.771974 3.60239 11.2176
97 1 -1.98645 6.16712 14.702
98 1 -2.0755 6.16252 9.46729
99 1 -0.919471 5.45009 11.7687
121 1 3.35657 0.701448 8.3316
122 1 2.83401 2.43174 10.2128
125 1 3.4302 0.62438 13.3467
126 1 5.36842 1.91709 14.606
127 1 2.85343 2.4226 15.1818
128 1 5.4239 1.86639 9.62447
129 1 6.3956 1.15795 11.8527
137 1 0.685487 4.8992 8.15591
141 1 3.75881 3.25287 12.9411
143 1 0.793629 5.02455 13.5875
144 1 2.82432 6.10942 14.8892
146 1 2.66341 6.15115 9.50756
147 1 3.87356 5.5386 11.6761
8 2 -0.975342 1.98468 14.106
5 2 -1.1358 1.97083 8.82331
20 2 -5.83616 10.4284 3.31506
15 2 -1.00057 6.61017 5.20957
19 2 -2.58021 8.51639 1.79255
161 1 1.47557 9.77163 6.59283
22 2 -2.58454 8.45217 7.01086
24 2 -3.52403 10.8133 5.21371
46 2 2.30467 8.6556 1.81283
47 2 -1.07895 10.5385 3.45752
12 2 -1.04683 6.53188 0.00907457
100 1 -3.56601 7.44798 2.47704
101 1 -1.66035 7.88872 0.657096
102 1 -5.92006 11.6152 2.28609
103 1 -3.50976 9.67215 1.14777
104 1 -4.11837 12.1953 0.588201
105 1 -3.546 7.27006 7.70064
106 1 -1.46874 7.87281 6.03973
107 1 -5.66575 11.5215 7.66121
108 1 -4.43587 10.3828 3.97986
109 1 -3.41829 9.59187 6.27305
110 1 -4.02144 12.1401 5.8798
133 1 0.507307 6.81881 4.7038
148 1 1.56155 7.38572 2.40627
150 1 -1.66681 9.15698 2.92417
151 1 -1.07118 11.6225 2.26086
152 1 -2.05967 11.0701 4.54465
153 1 1.46427 9.91975 1.29635
155 1 1.49198 7.32985 7.64982
158 1 -1.08263 11.5699 7.72894
160 1 0.361404 10.3203 4.14532
21 2 -3.60637 10.7743 0.00383529
18 2 -1.14646 6.5527 10.6363
25 2 -2.64884 8.4464 12.3609
27 2 -3.53884 10.7745 10.6705
50 2 -1.17386 10.4973 8.90428
44 2 1.39134 6.38675 14.2766
53 2 -1.14147 10.3949 14.1631
111 1 -3.52047 7.26656 12.9321
112 1 -1.6438 7.84505 11.2927
113 1 -4.52107 10.1591 14.8266
114 1 -5.82048 11.5136 13.056
115 1 -4.47534 10.0517 9.48623
116 1 -3.49975 9.64072 11.7387
117 1 -4.25313 12.0841 11.2257
138 1 0.261749 6.79297 9.91538
145 1 0.404143 6.80752 15.484
157 1 -1.79322 9.14061 8.16666
159 1 -2.09262 10.9147 10.1261
163 1 1.41194 7.38314 12.9887
165 1 -1.75745 9.0594 13.498
166 1 0.373228 10.3224 14.8539
167 1 -1.08419 11.5093 13.0127
168 1 -2.16591 10.9202 15.3273
169 1 0.274038 10.1948 9.48052
170 1 1.50568 9.69699 11.7175
52 2 2.30674 8.54059 12.4074
23 2 -5.88758 10.4137 8.81828
34 2 -0.0976274 12.6466 12.4728
26 2 -5.95596 10.4558 14.2235
196 1 8.78781 5.46404 1.09835
204 1 8.80884 5.40461 6.58652
203 1 7.74313 5.91764 4.22544
193 1 5.68397 4.84393 2.90774
198 1 10.609 3.56333 5.87607
56 2 8.67635 2.10481 3.50716
197 1 8.8982 3.07408 7.77092
136 1 5.58526 3.56123 6.06392
60 2 11.188 2.26657 5.16483
64 2 9.67914 4.31718 1.75572
65 2 6.25384 6.10477 3.6143
67 2 9.78368 4.20022 7.04966
131 1 5.59827 3.74114 0.504727
33 2 6.33303 2.31027 5.39701
172 1 13.2188 0.59842 3.02847
173 1 8.03398 0.82677 2.78706
174 1 7.78655 2.46132 4.79052
176 1 11.5976 1.30838 1.22318
180 1 12.683 2.62236 4.6641
181 1 10.1757 1.69506 4.03109
182 1 11.3178 1.0583 6.22191
190 1 8.74018 3.25729 2.41734
191 1 10.7593 3.62708 0.6862
192 1 10.6035 5.00659 2.8179
55 2 12.3157 0.0324306 1.87146
71 2 6.15822 6.28914 14.2164
213 1 8.80619 5.37112 11.8782
212 1 7.56437 6.04199 9.53581
209 1 7.73455 6.07835 14.7153
36 2 6.39326 2.38306 10.7634
59 2 8.76025 1.97067 8.9314
208 1 5.57245 4.91987 13.6163
62 2 8.73303 1.94893 14.3489
63 2 11.1426 2.12919 10.6791
68 2 6.12159 6.27887 8.81144
70 2 9.66623 4.15247 12.4442
30 2 6.23297 2.33664 15.8847
142 1 5.8169 3.7805 11.4231
175 1 12.683 2.44835 15.2842
207 1 10.7754 4.72392 13.4339
178 1 8.05529 0.6316 8.33386
179 1 7.83066 2.54173 10.0272
183 1 13.1259 0.612198 13.4413
184 1 8.13806 0.585576 13.6342
185 1 10.1014 1.68345 15.0549
186 1 7.703 2.55775 15.3808
187 1 12.6316 2.36173 10.0597
188 1 10.1686 1.63109 9.53674
189 1 11.2407 1.09285 11.8097
199 1 10.6831 4.8174 8.2002
177 1 12.8866 0.670061 8.16118
205 1 8.74758 3.09868 13.1461
206 1 10.5592 3.51004 11.2801
200 1 5.51809 4.84389 8.40787
57 2 11.2433 2.31155 15.9334
14 2 11.1304 6.15412 8.90582
232 1 5.88343 12.0146 5.97126
227 1 4.03891 11.5047 7.68143
42 2 3.83689 6.55024 5.35353
229 1 7.83539 10.9834 4.50126
51 2 1.37976 10.7438 5.33297
230 1 5.30105 10.3107 4.10459
69 2 8.73421 6.42298 5.35554
73 2 7.13919 8.47536 1.72601
74 2 3.8039 10.5539 3.53203
231 1 6.64906 9.57573 6.26444
76 2 7.36013 8.42309 7.03701
78 2 6.39539 10.6984 5.21793
149 1 3.13405 8.07753 0.589543
154 1 0.829498 12.3595 0.422871
156 1 3.25156 7.91916 5.84417
162 1 0.763457 12.0957 5.96095
194 1 5.32346 6.6771 4.87143
202 1 10.2229 6.59536 4.79544
214 1 6.35185 7.24842 2.50843
215 1 8.09373 7.88992 0.565496
216 1 8.22123 9.10463 2.70206
217 1 3.37416 9.0964 2.9539
218 1 3.89851 11.7401 2.45912
219 1 2.83973 10.8452 4.69728
221 1 6.25072 9.65389 1.15222
222 1 5.81764 12.0535 0.722625
223 1 6.40049 7.20537 7.5248
224 1 8.37257 7.87956 5.88807
48 2 1.38988 10.8928 0.0141585
58 2 4.83645 12.6482 6.95171
39 2 3.86392 6.66803 0.132329
49 2 2.44177 8.54518 7.03526
242 1 6.26882 9.71581 11.7916
243 1 5.69578 12.0557 11.1579
45 2 3.73663 6.69555 10.5528
54 2 1.29699 10.7718 10.553
72 2 8.58597 6.49211 10.702
77 2 3.89745 10.4468 8.87904
79 2 7.21484 8.55297 12.4456
80 2 3.84587 10.4315 14.1673
81 2 6.31377 10.7312 10.5696
164 1 3.21405 8.04139 11.2281
171 1 0.729321 12.0775 11.2283
195 1 10.2638 6.64785 15.273
201 1 5.15336 6.88476 9.9239
210 1 5.23063 6.82339 15.3785
211 1 10.0631 6.58398 9.99023
220 1 7.80237 10.8983 15.3974
225 1 8.09585 9.12699 8.20251
226 1 3.31951 9.05163 8.24531
228 1 2.80893 10.9406 9.91424
233 1 6.25468 7.34752 13.0241
234 1 8.17454 7.89296 11.3293
235 1 8.05593 9.10481 13.6366
236 1 3.08118 9.10959 13.6533
237 1 5.32469 10.4189 14.7281
238 1 3.90208 11.4909 12.9554
239 1 2.82499 11.1101 15.2521
240 1 7.83412 10.9452 9.95593
241 1 5.30417 10.1132 9.52407
61 2 4.82558 12.6426 12.3737
66 2 8.73148 6.59602 15.9021
75 2 6.36065 10.7672 15.9501
ITEM: TIMESTEP
200
ITEM: NUMBER OF ATOMS
243
ITEM: BOX BOUNDS xy xz yz pp pp pp
-7.3456000000000001e+00 1.4691300000000000e+01 -7.3456000000000001e+00
0.0000000000000000e+00 1.2710277000000001e+01 0.0000000000000000e+00
0.0000000000000000e+00 1.5963100000000001e+01 0.0000000000000000e+00
ITEM: ATOMS id type x y z
134 1 4.017 5.65621 1.1858
139 1 2.88135 6.00846 4.22067
31 2 7.1564 0.0461672 7.08988
6 2 1.41714 2.3802 5.34564
10 2 -0.113232 4.30792 1.65419
13 2 -0.20379 4.23717 7.02386
93 1 -1.95073 6.07653 4.04158
29 2 3.76879 2.05172 3.58514
140 1 3.81531 5.44229 6.58253
1 2 2.47021 0.144172 1.71954
37 2 4.74443 4.38881 1.81597
40 2 4.77886 4.27375 7.22424
82 1 1.53125 1.3285 1.12833
83 1 0.558876 1.95493 4.08156
84 1 1.56837 1.30569 6.50044
88 1 -1.01942 3.06053 2.16631
89 1 0.814717 3.63227 0.54399
90 1 -1.10164 5.38863 0.915993
91 1 -1.04746 3.07824 7.56385
92 1 0.806033 3.66701 5.9781
4 2 2.40315 0.0629229 7.07554
94 1 -1.12787 5.39739 6.42912
118 1 3.07 0.714369 3.09365
119 1 2.83874 2.72751 4.74859
120 1 6.08364 1.16896 0.975878
123 1 5.27912 1.89038 4.30158
124 1 6.2045 1.29203 6.6211
130 1 3.85138 3.1624 2.38129
132 1 0.803059 4.94699 2.76521
2 2 -0.937161 2.01489 3.39426
28 2 7.1522 0.166836 1.65562
11 2 -3.48633 6.21875 3.57927
38 2 1.48315 6.26132 3.48863
135 1 3.80059 3.08672 7.78202
41 2 1.20798 6.29749 8.81239
9 2 1.33087 2.25018 10.7033
16 2 -0.0186466 4.26813 12.4616
32 2 3.77631 1.96349 8.95796
17 2 -3.54764 6.21326 14.1098
35 2 3.77592 2.08516 14.0471
5 2 -1.07645 1.97159 8.78887
43 2 4.71758 4.40331 12.4258
3 2 1.34577 2.30741 15.8727
85 1 0.300798 1.73492 14.8439
86 1 0.404807 1.85378 9.46708
87 1 1.25554 0.986516 11.6899
95 1 -0.819921 3.00657 13.0452
96 1 0.935339 3.62051 11.3703
97 1 -1.98283 6.12652 14.5932
98 1 -2.19293 6.03738 9.66578
99 1 -0.990345 5.41726 11.838
121 1 3.34976 0.526079 8.27944
122 1 2.88535 2.36444 10.265
125 1 3.03458 0.769082 13.4382
126 1 5.31521 1.99733 14.5497
127 1 2.92382 2.43958 15.3652
128 1 5.25986 1.89335 9.5828
129 1 6.31335 1.24891 11.9209
137 1 0.612679 4.94594 8.24114
141 1 3.69151 3.32225 12.9905
143 1 0.722636 4.91307 13.7543
144 1 2.92196 6.11403 14.7578
146 1 2.67339 6.0584 9.47827
147 1 3.91138 5.63665 11.7524
8 2 -1.07984 1.95559 14.2207
44 2 1.38236 6.30603 14.1808
34 2 7.25768 0.0356128 12.3632
20 2 -5.81208 10.4888 3.43507
15 2 -1.06994 6.49052 5.32805
19 2 -2.61775 8.56414 1.78793
161 1 1.40573 9.68095 6.29801
22 2 -2.70311 8.49205 7.07597
24 2 -3.50041 10.8139 5.25867
21 2 -3.52741 10.7515 0.00372629
47 2 -1.06505 10.5596 3.51832
49 2 2.34791 8.52295 7.03243
100 1 -3.53281 7.43459 2.51274
101 1 -1.78841 7.83265 0.601852
102 1 -5.85084 11.6466 2.28148
103 1 -3.53531 9.72434 1.19738
104 1 -3.92421 12.2102 0.581427
105 1 -3.50336 7.25084 7.7395
106 1 -1.78749 7.84701 5.94167
107 1 -5.88794 11.5832 7.69269
108 1 -4.38066 10.3904 4.00162
109 1 -3.41467 9.70342 6.36913
110 1 -3.96248 12.1177 5.97592
133 1 0.377337 6.60519 4.63852
148 1 1.6022 7.46378 2.43844
150 1 -1.63987 9.20754 2.87601
151 1 -1.04016 11.6996 2.36047
152 1 -1.97739 11.0589 4.75122
153 1 1.57574 9.71017 1.07513
155 1 1.38923 7.38272 7.54465
158 1 -0.978431 11.5224 7.79461
160 1 0.429472 10.3137 4.07629
18 2 -1.10384 6.60377 10.6822
25 2 -2.65664 8.46053 12.4095
27 2 -3.58145 10.7318 10.6268
50 2 -1.1687 10.474 8.93252
26 2 -5.94747 10.3876 14.1486
53 2 -1.10187 10.5033 14.1893
111 1 -3.46391 7.14918 12.7901
112 1 -1.69325 8.01691 11.245
113 1 -4.47614 10.2388 14.7386
114 1 -5.90393 11.4442 12.933
115 1 -4.41708 10.2255 9.37081
116 1 -3.67707 9.52859 11.8147
117 1 -4.14292 12.109 11.1867
138 1 0.298949 6.90336 9.96404
145 1 0.452367 6.90667 15.3396
157 1 -1.75595 9.0976 8.34153
159 1 -2.09694 10.9652 10.1324
163 1 1.37365 7.33671 12.9255
165 1 -1.76225 9.16821 13.6082
166 1 0.384355 10.2447 14.8066
167 1 -0.968711 11.5773 13.0258
168 1 -1.9603 11.0234 15.4534
169 1 0.367 10.2483 9.38832
170 1 1.45989 9.7653 11.809
52 2 2.24321 8.57656 12.4962
23 2 -5.88144 10.4687 8.77798
12 2 -1.0542 6.61991 15.8464
7 2 -5.12316 12.6338 12.2944
196 1 9.02306 5.52199 1.18752
204 1 8.7503 5.30014 6.60362
203 1 7.77781 5.92601 4.25717
193 1 5.72969 4.93038 2.98297
198 1 10.5674 3.54446 5.96728
56 2 8.66612 2.09046 3.53605
197 1 8.82256 3.0571 7.77049
136 1 5.78152 3.73048 6.13215
60 2 11.1338 2.27139 5.18495
64 2 9.80261 4.30158 1.79206
65 2 6.32975 6.24184 3.63116
67 2 9.75796 4.13672 7.11556
131 1 5.61324 3.84126 0.528248
33 2 6.24322 2.33792 5.39968
172 1 13.2552 0.610894 2.9197
173 1 8.13038 0.906727 2.67671
174 1 7.69003 2.34587 4.78784
176 1 11.402 1.21717 1.20723
180 1 12.6528 2.41932 4.59994
181 1 10.2213 1.93367 3.89777
182 1 11.2391 1.09223 6.25581
190 1 8.77775 3.38075 2.62119
191 1 10.432 3.52716 0.539757
192 1 10.8386 4.86779 2.83735
55 2 12.2669 0.0294393 1.772
57 2 11.1707 2.19621 0.0244965
58 2 12.1609 0.0164458 6.99073
71 2 6.24834 6.23741 14.2233
213 1 8.7785 5.27931 11.8843
212 1 7.63527 5.89717 9.6326
209 1 7.75319 5.97072 14.8188
36 2 6.23364 2.33753 10.707
59 2 8.69242 1.92671 8.95571
208 1 5.52819 4.95107 13.6966
62 2 8.71661 1.96502 14.2745
63 2 11.1587 2.26107 10.6064
68 2 6.23819 6.33098 8.87665
70 2 9.7664 4.15405 12.4479
30 2 6.14557 2.39031 15.8951
142 1 5.72321 3.76593 11.3159
175 1 12.499 2.43569 15.1714
207 1 10.6677 4.84545 13.58
178 1 8.18484 0.585218 8.2331
179 1 7.70477 2.48157 10.1431
183 1 13.1267 0.597317 13.5308
184 1 8.1425 0.674864 13.5291
185 1 10.1549 1.5863 14.9414
186 1 7.70851 2.33177 15.4655
187 1 12.6055 2.45435 9.95278
188 1 10.2388 1.74171 9.385
189 1 11.2733 1.2125 11.7235
199 1 10.7334 4.78785 8.16938
177 1 13.0429 0.634486 8.1289
205 1 8.96932 3.03916 13.1628
206 1 10.5136 3.57823 11.1917
200 1 5.65539 4.9188 8.36305
61 2 12.2053 0.0753007 12.2812
14 2 11.1192 6.1481 8.89507
232 1 5.87608 12.0783 5.97006
227 1 3.9596 11.5316 7.53765
42 2 3.81827 6.49885 5.38501
229 1 7.88769 10.8915 4.64258
51 2 1.38986 10.8158 5.2314
230 1 5.45186 10.41 4.00599
69 2 8.82463 6.36483 5.42331
73 2 7.29967 8.42265 1.75082
74 2 3.87109 10.4754 3.54925
231 1 6.43629 9.48767 6.24434
76 2 7.3271 8.42792 7.0171
78 2 6.4036 10.7252 5.2778
149 1 3.22746 7.95854 0.565475
154 1 0.776704 12.2441 0.518066
156 1 3.33468 7.893 5.95336
162 1 0.694796 12.1072 5.87961
194 1 5.30187 6.63292 4.75376
202 1 10.2858 6.40894 4.81316
214 1 6.47586 7.38072 2.53432
215 1 8.19418 7.90967 0.512378
216 1 8.33145 9.09079 2.8174
217 1 3.46826 9.08714 2.90716
218 1 3.92491 11.6386 2.34204
219 1 2.88218 11.0197 4.63796
221 1 6.50701 9.5942 1.01078
222 1 5.71196 12.0538 0.599224
223 1 6.48916 7.32665 7.6869
224 1 8.33364 7.7971 5.9477
46 2 2.44843 8.58895 1.77696
242 1 6.43521 9.65217 11.826
243 1 5.82781 12.161 11.1646
45 2 3.71153 6.67725 10.5575
54 2 1.28988 10.71 10.5733
72 2 8.61496 6.43257 10.7003
77 2 3.83202 10.4743 8.7726
79 2 7.19347 8.41827 12.4829
80 2 3.88635 10.5026 14.0618
81 2 6.28978 10.7443 10.6339
164 1 3.10827 7.97728 11.2299
171 1 0.734256 12.0938 11.127
195 1 10.2181 6.8524 15.3309
201 1 5.06203 6.98927 9.73952
210 1 5.40818 6.87609 15.4293
211 1 10.0751 6.62419 9.95911
220 1 7.84957 10.8983 15.2644
225 1 8.31385 9.12857 8.03281
226 1 3.29355 9.04327 8.26182
228 1 2.74236 10.9346 9.93105
233 1 6.2604 7.29496 13.0671
234 1 8.07699 7.83122 11.3009
235 1 8.23677 8.98268 13.561
236 1 3.31546 9.08245 13.5232
237 1 5.33901 10.3447 14.8339
238 1 3.98007 11.4745 12.8466
239 1 2.85862 10.9719 15.2029
240 1 7.67561 10.8803 9.8828
241 1 5.25908 10.2734 9.49352
48 2 1.42012 10.8297 15.9237
66 2 8.77331 6.53403 15.9304
75 2 6.37067 10.7852 15.9018
39 2 3.89301 6.69179 15.9292
ITEM: TIMESTEP
300
ITEM: NUMBER OF ATOMS
243
ITEM: BOX BOUNDS xy xz yz pp pp pp
-7.3456000000000001e+00 1.4691300000000000e+01 -7.3456000000000001e+00
0.0000000000000000e+00 1.2703915500000001e+01 0.0000000000000000e+00
0.0000000000000000e+00 1.5963100000000001e+01 0.0000000000000000e+00
ITEM: ATOMS id type x y z
134 1 3.96927 5.44346 1.01503
139 1 2.83703 5.98468 4.19966
31 2 7.22769 0.0601513 7.05353
6 2 1.40314 2.34685 5.30551
10 2 -0.109888 4.30172 1.59004
13 2 -0.154246 4.26678 7.13
93 1 -1.98192 6.1761 4.07126
29 2 3.87179 2.13043 3.57026
140 1 3.73931 5.45898 6.60615
1 2 2.47237 0.0766698 1.90325
135 1 3.85837 3.25731 7.87808
40 2 4.79542 4.30408 7.14215
82 1 1.70269 1.29144 1.25093
83 1 0.375472 1.87014 4.18634
84 1 1.47627 1.26268 6.47795
88 1 -0.935628 3.062 2.12228
89 1 0.923762 3.75226 0.49173
90 1 -1.07975 5.39805 0.969563
91 1 -1.12981 3.04153 7.56258
92 1 0.792342 3.62946 5.97042
4 2 2.40362 0.0727975 6.99397
94 1 -1.05948 5.43787 6.37883
118 1 3.46322 0.792001 2.91661
119 1 2.89144 2.48062 4.71385
120 1 6.21396 1.13697 0.982138
123 1 5.29199 1.86899 4.31196
124 1 6.23605 1.17739 6.5817
130 1 3.99436 3.30153 2.48457
132 1 0.743523 5.01635 2.79719
2 2 -0.970086 2.04281 3.34178
28 2 7.15729 0.0597918 1.58276
11 2 -3.41166 6.25104 3.43647
38 2 1.37751 6.29014 3.52393
3 2 1.4421 2.29966 0.0113915
41 2 1.26722 6.25406 8.9219
9 2 1.2895 2.18947 10.6902
16 2 -0.0884332 4.20274 12.4419
32 2 3.83074 1.99097 8.91209
17 2 -3.4399 6.17455 13.9698
35 2 3.70908 2.12693 14.0593
5 2 -1.11891 2.02342 8.83048
43 2 4.7618 4.38881 12.4017
34 2 7.09712 0.0930843 12.3265
85 1 0.324248 1.82977 14.942
86 1 0.407228 1.839 9.37343
87 1 1.26468 1.05871 11.8473
95 1 -1.12761 3.15075 13.0653
96 1 0.74279 3.53099 11.2989
97 1 -2.01907 6.11372 14.7182
98 1 -2.20108 6.27047 9.56719
99 1 -0.951754 5.4007 11.7761
121 1 3.32447 0.685767 8.23899
122 1 2.73568 2.38499 10.0255
125 1 3.15104 0.736093 13.4667
126 1 5.17203 1.8379 14.6087
127 1 2.84266 2.64818 15.255
128 1 5.22544 1.90551 9.5863
129 1 6.20521 1.30662 11.8026
137 1 0.560367 4.97191 8.32808
141 1 3.83458 3.16487 12.8862
143 1 0.935017 4.87916 13.5429
144 1 2.92049 6.13987 14.7083
146 1 2.75798 6.12933 9.44281
147 1 3.94353 5.58073 11.7079
8 2 -1.05849 1.99331 14.2764
44 2 1.40291 6.28496 14.1518
20 2 -5.85551 10.4733 3.57797
15 2 -1.07241 6.58444 5.31534
19 2 -2.62421 8.59793 1.76736
161 1 1.53513 9.69162 6.33461
22 2 -2.65355 8.43275 7.16699
24 2 -3.49203 10.7211 5.32816
160 1 0.460647 10.335 4.02168
47 2 -1.05101 10.5511 3.5002
49 2 2.2226 8.42073 7.01346
100 1 -3.48174 7.42019 2.3919
101 1 -1.828 7.95738 0.552817
102 1 -5.78562 11.6216 2.46556
103 1 -3.54296 9.67789 1.09552
104 1 -4.01755 12.1609 0.666808
105 1 -3.6079 7.27718 7.72106
106 1 -1.68219 7.85318 6.04275
107 1 -5.84653 11.5891 7.56795
108 1 -4.36469 10.2212 4.11426
109 1 -3.49195 9.63567 6.48622
110 1 -4.09853 12.1545 5.80605
133 1 0.430062 6.76284 4.76976
148 1 1.50297 7.42317 2.37535
150 1 -1.62926 9.2305 2.80919
151 1 -1.06548 11.7038 2.39441
152 1 -1.98781 10.8145 4.77283
153 1 1.66626 9.75204 1.14361
155 1 1.31986 7.23958 7.63703
158 1 -0.986332 11.6543 7.81084
21 2 -3.41398 10.8545 0.0323407
18 2 -1.1349 6.50345 10.6787
25 2 -2.57819 8.54173 12.3559
27 2 -3.5393 10.7281 10.6213
50 2 -1.10756 10.4575 8.89515
26 2 -5.86709 10.3555 14.2152
53 2 -1.0828 10.5588 14.1423
111 1 -3.47334 7.31628 12.8766
112 1 -1.51369 7.8694 11.4305
113 1 -4.38254 10.4207 14.7791
114 1 -5.83528 11.4777 13.0814
115 1 -4.45162 10.4467 9.36049
116 1 -3.58601 9.63275 11.7466
117 1 -4.01791 12.0449 11.3602
138 1 0.297317 6.77626 10.0794
145 1 0.370282 6.85009 15.3274
157 1 -1.80956 9.10925 8.35157
159 1 -2.04352 10.8736 10.1152
163 1 1.37769 7.31472 12.974
165 1 -1.72404 9.24721 13.5126
166 1 0.401174 10.2744 14.7385
167 1 -1.11961 11.7357 13.0961
168 1 -1.94966 10.9925 15.4345
169 1 0.409443 10.2078 9.44518
170 1 1.52219 9.78054 11.7733
52 2 2.22816 8.53799 12.4056
23 2 -5.96539 10.4939 8.75002
12 2 -1.11348 6.62878 15.9123
7 2 -5.05496 12.657 12.3773
196 1 9.01618 5.6607 1.21153
204 1 8.73665 5.4115 6.63541
203 1 7.74616 5.88473 4.22064
193 1 5.7584 4.96501 2.87423
198 1 10.5254 3.51842 5.91752
56 2 8.70982 2.00671 3.43478
197 1 8.65283 3.08268 7.77054
136 1 5.76592 3.67591 5.99301
60 2 11.147 2.27778 5.22278
64 2 9.77589 4.33487 1.75341
65 2 6.36267 6.27461 3.55184
67 2 9.68211 4.1761 7.13228
131 1 5.69797 3.59524 0.48915
33 2 6.32484 2.39153 5.42438
172 1 13.2126 0.613139 2.8535
173 1 8.07687 0.810057 2.60445
174 1 7.79482 2.45267 4.74012
176 1 11.2426 1.03884 1.21087
180 1 12.6031 2.47276 4.46941
181 1 10.0971 1.73308 4.06146
182 1 11.4171 1.09612 6.28996
190 1 8.83894 3.29891 2.54802
191 1 10.4397 3.51179 0.568838
192 1 10.9353 4.89174 2.65579
37 2 4.92362 4.36348 1.70046
57 2 11.1806 2.10696 0.0136893
71 2 6.34705 6.23022 14.2026
213 1 8.75192 5.49256 11.9489
212 1 7.55692 5.78471 9.66364
209 1 7.77301 5.88319 14.836
36 2 6.22375 2.40414 10.6682
59 2 8.67765 1.89182 8.90733
208 1 5.59068 4.99438 13.6193
62 2 8.67354 1.90307 14.1498
63 2 11.1608 2.34297 10.7516
14 2 11.0942 6.17518 8.87285
70 2 9.65342 4.21683 12.4367
30 2 6.18488 2.2099 15.7548
142 1 5.72568 3.74089 11.3581
175 1 12.5716 2.50257 15.3276
207 1 10.7285 4.79776 13.5139
178 1 8.29571 0.521521 8.17387
179 1 7.67288 2.38792 10.0878
183 1 13.0948 0.585912 13.5864
184 1 8.08492 0.627782 13.4429
185 1 10.102 1.67068 14.7974
186 1 7.6683 2.41699 15.1969
187 1 12.5489 2.55524 9.95822
188 1 10.1292 1.83007 9.53603
189 1 11.208 1.14903 11.7717
199 1 10.6108 4.70077 8.35269
177 1 13.019 0.69303 8.18207
205 1 8.82034 3.00976 13.0361
206 1 10.6425 3.69729 11.3375
200 1 5.48966 4.98827 8.40344
61 2 12.2481 0.0334435 12.2862
68 2 6.24708 6.34903 8.89775
72 2 8.61265 6.32739 10.6763
232 1 5.78109 12.0611 5.96147
227 1 3.98902 11.5026 7.61411
42 2 3.84695 6.48301 5.35731
229 1 7.94591 11.0018 4.73883
51 2 1.40929 10.8099 5.21687
230 1 5.35097 10.4009 4.17421
46 2 2.46657 8.56834 1.74658
73 2 7.38144 8.52245 1.72012
74 2 3.83406 10.5243 3.52582
231 1 6.49132 9.60939 6.3846
76 2 7.38232 8.43003 6.94389
78 2 6.44543 10.7549 5.28722
149 1 3.3859 7.93389 0.597339
154 1 0.741618 12.0952 0.468046
156 1 3.28849 7.83872 5.91848
162 1 0.706053 12.1289 5.79943
194 1 5.37335 6.67393 4.76431
202 1 10.2447 6.45285 4.5924
214 1 6.51905 7.46422 2.45597
215 1 8.24388 7.95206 0.447857
216 1 8.24275 9.18516 2.87659
217 1 3.33103 9.11998 2.96674
218 1 4.01768 11.4954 2.30375
219 1 2.88926 11.2358 4.61275
221 1 6.3963 9.6542 1.2175
222 1 5.80006 12.0893 0.539236
223 1 6.61485 7.26788 7.67879
224 1 8.28471 7.86214 5.7612
55 2 4.92684 12.6651 1.73373
58 2 4.83944 12.6738 7.08979
69 2 8.81607 6.39044 5.3438
242 1 6.52758 9.69235 11.7668
243 1 5.81367 12.1857 11.1363
45 2 3.73528 6.64912 10.5595
54 2 1.36236 10.7932 10.5958
39 2 3.94006 6.59062 15.8689
77 2 3.76425 10.4923 8.81829
79 2 7.33412 8.49409 12.3999
80 2 3.8281 10.5171 14.1018
81 2 6.34293 10.731 10.532
164 1 3.08342 7.93621 11.1962
171 1 0.633443 12.1165 11.1679
195 1 10.1827 6.5775 15.132
201 1 5.19966 6.98748 9.90698
210 1 5.40657 6.7892 15.3784
211 1 10.0131 6.5387 9.89259
220 1 7.79075 10.8759 15.2882
225 1 8.18933 9.09151 8.12479
226 1 3.0367 9.18523 8.15861
228 1 2.74455 11.1662 9.86614
233 1 6.43332 7.25164 12.9988
234 1 8.02668 7.8067 11.1858
235 1 8.18038 9.02246 13.659
236 1 3.2065 9.09138 13.5527
237 1 5.29181 10.2116 14.7861