LAMMPS (2 Aug 2023 - Update 2)
  using 2 OpenMP thread(s) per MPI task
# Initialization
units           real
dimension       3
boundary        p p p
atom_style      full

variable       timestep equal 0.5   # fs
variable       T equal 300.0   # low temperature
variable       Td equal 100*${timestep}  # damping time
variable       Td equal 100*0.5  
# variable       P equal 1.0  # pressure
# variable       Pd equal 10*${Td}  # pressure

variable       nevery equal 1000
variable       nrepeat equal 1
variable       nfreq equal ${nevery}*${nrepeat}
variable       nfreq equal 1000*${nrepeat}
variable       nfreq equal 1000*1
variable       nthermo equal ${nfreq}/10
variable       nthermo equal 1000/10
variable       nequil equal 2000*${nthermo}  # 2000: 100 ps
variable       nequil equal 2000*100  

variable       seed string 123456
variable       structure string 333U-50C-48
variable       FF string "* * SiOCHN_2018.ff C H O Si"          # force field args for pair_coeff
# pair_coeff * * CHONSSi.ff C H O Si
# pair_coeff * * CHOSiNa.ff C H O Si
# pair_coeff * * SiOCHN_2018.ff C H O Si
# pair_coeff * * PDMSDecomp.ff C H O Si
# pair_coeff * * CHONSi.ff C H O Si
# pair_coeff * * CHOFe.ff O Si

timestep        ${timestep}
timestep        0.5

# box tilt large
# Read the initial sctructure
read_data       ${structure}.data
read_data       333U-50C-48.data
Reading data file ...
  triclinic box = (0 0 0) to (16.7222 13.589 17.3161) with tilt (-7.3464 -0.3071 -0.018)
WARNING: Triclinic box skew is large. LAMMPS will run inefficiently. (src/domain.cpp:220)
  2 by 1 by 2 MPI processor grid
  reading atoms ...
  386 atoms
Finding 1-2 1-3 1-4 neighbors ...
  special bond factors lj:    0        0        0       
  special bond factors coul:  0        0        0       
     0 = max # of 1-2 neighbors
     0 = max # of 1-3 neighbors
     0 = max # of 1-4 neighbors
     1 = max # of special neighbors
  special bonds CPU = 0.000 seconds
  read_data CPU = 0.007 seconds

# Assign the force field
pair_style reaxff NULL safezone 3.0 mincap 150
pair_coeff ${FF}
pair_coeff * * SiOCHN_2018.ff C H O Si
WARNING: Van der Waals parameters for element SI indicate inner wall+shielding, but earlier atoms indicate a different van der Waals method. This may cause division-by-zero errors. Keeping van der Waals setting for earlier atoms. (src/REAXFF/reaxff_ffield.cpp:251)
# Charge equilibration for ReaxFF
fix myqeq all qeq/reaxff 1 0.0 10.0 1.0e-6 reaxff maxiter 400

neighbor        2 bin
neigh_modify    every 10 delay 0 check yes

# Energy minimization
print "*****Minimization starts.*****"
*****Minimization starts.*****
# Print system info
thermo          ${nthermo}
thermo          100
thermo_style    custom step temp press density vol pe etotal
dump dump_opt all custom 1 dump/dump_opt.lammpstrj id type q x y z
minimize 1.0e-6 1.0e-6 100 1000

CITE-CITE-CITE-CITE-CITE-CITE-CITE-CITE-CITE-CITE-CITE-CITE-CITE

Your simulation uses code contributions which should be cited:

- pair reaxff command: doi:10.1016/j.parco.2011.08.005

@Article{Aktulga12,
 author = {H. M. Aktulga and J. C. Fogarty and S. A. Pandit and A. Y. Grama},
 title = {Parallel Reactive Molecular Dynamics: {N}umerical Methods and Algorithmic Techniques},
 journal = {Parallel Computing},
 year =    2012,
 volume =  38,
 number =  {4--5},
 pages =   {245--259}
}

- fix qeq/reaxff command: doi:10.1016/j.parco.2011.08.005

@Article{Aktulga12,
 author = {H. M. Aktulga and J. C. Fogarty and S. A. Pandit and A. Y. Grama},
 title = {Parallel Reactive Molecular Dynamics: {N}umerical Methods and Algorithmic Techniques},
 journal = {Parallel Computing},
 year =    2012,
 volume =  38,
 pages =   {245--259}
}

CITE-CITE-CITE-CITE-CITE-CITE-CITE-CITE-CITE-CITE-CITE-CITE-CITE

Switching to 'neigh_modify every 1 delay 0 check yes' setting during minimization
WARNING: Fix qeq/reaxff group is not charge neutral, net charge = -0.82 (src/REAXFF/fix_qeq_reaxff.cpp:392)
Neighbor list info ...
  update: every = 1 steps, delay = 0 steps, check = yes
  max neighbors/atom: 2000, page size: 100000
  master list distance cutoff = 12
  ghost atom cutoff = 12
  binsize = 6, bins = 5 3 3
  2 neighbor lists, perpetual/occasional/extra = 2 0 0
  (1) pair reaxff, perpetual
      attributes: half, newton off, ghost
      pair build: half/bin/newtoff/ghost
      stencil: full/ghost/bin/3d
      bin: standard
  (2) fix qeq/reaxff, perpetual, copy from (1)
      attributes: half, newton off
      pair build: copy
      stencil: none
      bin: none
Per MPI rank memory allocation (min/avg/max) = 164.6 | 166.5 | 168.5 Mbytes
   Step          Temp          Press         Density         Volume         PotEng         TotEng    
         0   0              191465.71      1.7215889      3934.8755     -35522.347     -35522.347    
        21   0              29399.619      1.7215889      3934.8755     -38002.156     -38002.156    
Loop time of 6.3985 on 8 procs for 21 steps with 386 atoms

78.1% CPU use with 4 MPI tasks x 2 OpenMP threads

Minimization stats:
  Stopping criterion = energy tolerance
  Energy initial, next-to-last, final = 
     -35522.3470973834  -38002.1510517603  -38002.1563268602
  Force two-norm initial, final = 4367.2495 510.79514
  Force max component initial, final = 823.44362 214.80031
  Final line search alpha, max atom move = 0.0003507811 0.075347889
  Iterations, force evaluations = 21 48

MPI task timing breakdown:
Section |  min time  |  avg time  |  max time  |%varavg| %total
---------------------------------------------------------------
Pair    | 2.86       | 3.1025     | 3.4037     |  11.1 | 48.49
Bond    | 0.00012431 | 0.00013093 | 0.00013759 |   0.0 |  0.00
Neigh   | 0          | 0          | 0          |   0.0 |  0.00
Comm    | 1.2465     | 1.5212     | 1.7902     |  15.7 | 23.77
Output  | 0.012489   | 0.015403   | 0.019485   |   2.0 |  0.24
Modify  | 1.6603     | 1.6603     | 1.6604     |   0.0 | 25.95
Other   |            | 0.09885    |            |       |  1.54

Nlocal:           96.5 ave         107 max          90 min
Histogram: 1 1 0 1 0 0 0 0 0 1
Nghost:           4182 ave        4231 max        4146 min
Histogram: 2 0 0 0 0 0 1 0 0 1
Neighs:        64325.2 ave       70744 max       60487 min
Histogram: 1 1 0 1 0 0 0 0 0 1

Total # of neighbors = 257301
Ave neighs/atom = 666.5829
Ave special neighs/atom = 0
Neighbor list builds = 0
Dangerous builds = 0
min_style cg
# Save the optimized structure
write_data ${structure}_opt.data
write_data 333U-50C-48_opt.data
System init for write_data ...
undump dump_opt
reset_timestep 0

velocity        all create ${T} ${seed} dist gaussian
velocity        all create 300 ${seed} dist gaussian
velocity        all create 300 123456 dist gaussian
# equilibration at low T
print "##### Equilibration starts.##### "
##### Equilibration starts.##### 
velocity        all create ${T} 12345
velocity        all create 300 12345
fix             equil1 all nvt temp ${T} ${T} ${Td}
fix             equil1 all nvt temp 300 ${T} ${Td}
fix             equil1 all nvt temp 300 300 ${Td}
fix             equil1 all nvt temp 300 300 50
# fix             equil1 all npt temp ${T} ${T} ${Td} tri ${P} ${P} ${Pd}

# out put bonds and species information
fix bondinfo all reaxff/bonds ${nthermo} bonds/bonds.reaxff
fix bondinfo all reaxff/bonds 100 bonds/bonds.reaxff
# fix speciesinfo all reaxff/species ${nevery} ${nrepeat} ${nthermo} bonds/species.out

# compute MSD and RDF
compute msd1 all msd
fix myMSD all ave/time 10 10 ${nthermo} c_msd1[1] c_msd1[2] c_msd1[3] c_msd1[4] c_thermo_temp     file msd.out     title2 "# TimeStep MSD_X MSD_Y MSD_Z MSD_Total Temperture"
fix myMSD all ave/time 10 10 100 c_msd1[1] c_msd1[2] c_msd1[3] c_msd1[4] c_thermo_temp     file msd.out     title2 "# TimeStep MSD_X MSD_Y MSD_Z MSD_Total Temperture"
# C-C C-Si Si-O C-H Si-Si
compute rdf1 all rdf 200 1 1 1 4 3 4 1 2 4 4 cutoff 5.0
fix myRDF all ave/time ${nevery} ${nrepeat} ${nfreq} c_rdf1[*]     file rdf.out mode vector     title3 "# Row r g1(r) coor1(r) ..."
fix myRDF all ave/time 1000 ${nrepeat} ${nfreq} c_rdf1[*]     file rdf.out mode vector     title3 "# Row r g1(r) coor1(r) ..."
fix myRDF all ave/time 1000 1 ${nfreq} c_rdf1[*]     file rdf.out mode vector     title3 "# Row r g1(r) coor1(r) ..."
fix myRDF all ave/time 1000 1 1000 c_rdf1[*]     file rdf.out mode vector     title3 "# Row r g1(r) coor1(r) ..."

thermo_style    custom step temp press pe etotal
# Save trajectory
dump dump_eq all custom/gz ${nthermo} dump/dump_eq.lammpstrj.gz id type x y z q
dump dump_eq all custom/gz 100 dump/dump_eq.lammpstrj.gz id type x y z q

run ${nequil}
run 200000
WARNING: Compute rdf cutoff less than neighbor cutoff - forcing a needless neighbor list build (src/compute_rdf.cpp:179)
Neighbor list info ...
  update: every = 10 steps, delay = 0 steps, check = yes
  max neighbors/atom: 2000, page size: 100000
  master list distance cutoff = 12
  ghost atom cutoff = 12
  binsize = 6, bins = 5 3 3
  3 neighbor lists, perpetual/occasional/extra = 2 1 0
  (1) pair reaxff, perpetual
      attributes: half, newton off, ghost
      pair build: half/bin/newtoff/ghost
      stencil: full/ghost/bin/3d
      bin: standard
  (2) compute rdf, occasional
      attributes: half, newton on, cut 7
      pair build: half/bin/newton/tri
      stencil: half/bin/3d/tri
      bin: standard
  (3) fix qeq/reaxff, perpetual, copy from (1)
      attributes: half, newton off
      pair build: copy
      stencil: none
      bin: none
Per MPI rank memory allocation (min/avg/max) = 169.8 | 171.8 | 173.8 Mbytes
   Step          Temp          Press          PotEng         TotEng    
         0   300            33398.564     -38002.157     -37657.873    
       100   254.2043       13311.469     -37907.274     -37615.547    
       200   318.87005     -6175.8665     -37931.841     -37565.902    
       300   338.26989      21089.629     -37947.766     -37559.563    
       400   313.95764      7443.5198     -37981.755     -37621.454    
       500   296.42268      13585.805     -38018.319     -37678.141    
       600   306.16651      2578.4538     -38073.883     -37722.523    
       700   302.84051     -2492.0209     -38100.537     -37752.994    
       800   298.08582     -2767.4865     -38121.231     -37779.144    
       900   295.02585      2114.3388     -38139.541     -37800.966    
      1000   362.00214      1720.6907     -38250.707     -37835.269    
      1100   327.25255      10134.78      -38274.589     -37899.03     
      1200   308.91966      1751.5089     -38302.744     -37948.225    
      1300   331.41959      18053.129     -38377.784     -37997.443    
      1400   298.51849      9192.5287     -38388.572     -38045.989    
      1500   285.29086      2142.3305     -38414.097     -38086.694    
      1600   308.56236      2727.3162     -38458.713     -38104.603    
      1700   374.84111      1885.3052     -38572.008     -38141.836    
      1800   317.67917     -3179.6541     -38574.198     -38209.626    
      1900   332.70243     -1163.8436     -38659.491     -38277.678    
      2000   339.36818      19887.35      -38729.109     -38339.646    
      2100   291.80971      18396.471     -38708.521     -38373.636    
      2200   331.06171      8389.1803     -38779.616     -38399.685    
      2300   293.66773      16038.368     -38781.085     -38444.069    
      2400   304.93124      2451.0088     -38829.187     -38479.245    
      2500   281.48329     -8419.5217     -38822.722     -38499.689    
      2600   310.11048      3608.0298     -38839.927     -38484.041    
      2700   327.74572      9713.9388     -38839.284     -38463.159    
      2800   312.19938      6122.8832     -38838.875     -38480.591    
      2900   323.34233      10784.309     -38880.962     -38509.89     
      3000   307.39786      6172.5889     -38875.165     -38522.392    
      3100   316.81402      3518.6607     -38921.425     -38557.845    
      3200   303.90779     -761.11632     -38924.773     -38576.005    
      3300   318.52031      6686.7607     -38965.273     -38599.736    
      3400   333.22768      4496.717      -38997.051     -38614.635    
      3500   284.17641      6075.1096     -38986.248     -38660.124    
      3600   341.20559      2915.29       -39100.223     -38708.652    
      3700   330.47111      1542.4778     -39130.944     -38751.691    
      3800   284.5846       17929.708     -39098.563     -38771.97     
      3900   281.65339      6904.242      -39102.643     -38779.414    
      4000   266.72851      558.81522     -39078.306     -38772.205    
      4100   326.25792      1113.8962     -39128.212     -38753.794    
      4200   297.04327     -2710.7618     -39071.571     -38730.68     
      4300   323.25814     -276.02622     -39102.92      -38731.945    
      4400   272.44788      5875.1656     -39089.538     -38776.873    
      4500   259.45311     -5892.7774     -39087.723     -38789.972    
      4600   316.85794     -4111.7605     -39148.238     -38784.608    
      4700   274.97856     -4544.0089     -39075.542     -38759.973    
      4800   382.10769      2813.8031     -39183.825     -38745.313    
      4900   290.29002      10495.754     -39083.586     -38750.446    
      5000   246.42982     -5851.0194     -39072.39      -38789.585    
      5100   319.30894      2904.7374     -39164.322     -38797.879    
      5200   333.26594     -6441.3887     -39177.23      -38794.77     
      5300   267.71548      953.61334     -39074.024     -38766.791    
      5400   279.4212       379.50926     -39065.76      -38745.093    
      5500   333.92397     -7127.2497     -39139.398     -38756.183    
      5600   314.36748      5246.4369     -39139.781     -38779.009    
      5700   319.67254      10495.059     -39158.234     -38791.374    
      5800   247.31454      6579.4837     -39079.719     -38795.898    
      5900   330.31665      6095.046      -39159.281     -38780.206    
      6000   342.01884      4897.3086     -39135.795     -38743.29     
      6100   286.31858     -4469.6801     -39067.869     -38739.286    
      6200   327.50165      3016.6424     -39140.161     -38764.316    
      6300   277.10054      6180.8613     -39098.438     -38780.434    
      6400   292.54239     -9100.4515     -39124.253     -38788.528    
      6500   287.31778      3415.8548     -39098.059     -38768.33     
      6600   321.22751     -10435.802     -39104.053     -38735.408    
      6700   300.29294     -9845.0008     -39098.538     -38753.919    
      6800   296.38915      4886.9239     -39131.951     -38791.811    
      6900   278.12654      234.9415      -39113.726     -38794.545    
      7000   269.97306      13644.123     -39103.494     -38793.669    
      7100   278.5538       5983.7185     -39103.946     -38784.274    
      7200   336.38199      11804.577     -39156.018     -38769.982    
      7300   339.07354      6517.6618     -39149.166     -38760.042    
      7400   265.09647      9169.5651     -39086.616     -38782.388    
      7500   278.48078      4490.4571     -39127.374     -38807.787    
      7600   306.2008       2564.0184     -39155.717     -38804.318    
      7700   288.79767      20164.727     -39121.851     -38790.423    
      7800   287.46539     -138.18205     -39090.286     -38760.387    
      7900   342.05974      48.721874     -39157.058     -38764.506    
      8000   340.2133       11616.518     -39199.59      -38809.157    
      8100   302.01105     -3296.3377     -39155.959     -38809.367    
      8200   304.21935      4802.7992     -39147.903     -38798.777    
      8300   289.27922     -4257.9173     -39109.626     -38777.646    
      8400   296.84055     -2788.9238     -39100.364     -38759.707    
      8500   327.16189      2135.4903     -39123.721     -38748.267    
      8600   304.96113      8515.9807     -39121.952     -38771.975    
      8700   293.47822     -12181.31      -39141.268     -38804.469    
      8800   268.13876     -1717.7898     -39121.244     -38813.525    
      8900   280.63373      1879.5807     -39120.052     -38797.993    
      9000   278.77716      7162.2911     -39089.328     -38769.4      
      9100   353.2228       8626.585      -39175.445     -38770.082    
      9200   331.74973     -4089.2521     -39162.485     -38781.765    
      9300   257.70406     -3214.3684     -39092.361     -38796.617    
      9400   248.3462      -3517.2626     -39079.641     -38794.636    
      9500   293.72358      14934.454     -39124.138     -38787.058    
      9600   327.56997      4872.0261     -39156.028     -38780.105    
      9700   333.18006      4114.7178     -39134.663     -38752.302    
      9800   280.86139     -52.548995     -39062.996     -38740.676    
      9900   320.90571      2977.5314     -39150.996     -38782.721    
     10000   328.83475      7123.5781     -39179.956     -38802.581    
     10100   276.48858      3986.2166     -39110.187     -38792.886    
     10200   278.12547      9178.3915     -39090.585     -38771.405    
     10300   311.67301      888.54205     -39121.962     -38764.282    
     10400   355.83317     -7996.3322     -39221.855     -38813.497    
     10500   336.547        5854.6199     -39217.364     -38831.139    
     10600   310.50714     -2051.3894     -39209.308     -38852.966    
     10700   274.71279     -4366.1561     -39177.941     -38862.677    
     10800   290.69799     -1178.9955     -39183.638     -38850.03     
     10900   296.07487     -916.49054     -39155.426     -38815.647    
     11000   303.82472      985.99177     -39164.17      -38815.497    
     11100   293.31375      17417.538     -39166.533     -38829.923    
     11200   316.21484      3733.9334     -39210.888     -38847.996    
     11300   306.78195     -5867.7844     -39201.468     -38849.401    
     11400   271.86152      3385.1736     -39155.998     -38844.006    
     11500   253.94108      7186.5957     -39128.51      -38837.084    
     11600   289.62429      6718.4578     -39164.115     -38831.739    
     11700   335.83666      13491.32      -39223.22      -38837.81     
     11800   330.91793      2420.8534     -39239.154     -38859.388    
     11900   258.56212     -3519.2778     -39172.045     -38875.317    
     12000   302.85725     -4049.6247     -39211.892     -38864.329    
     12100   311.97603     -323.62646     -39182.585     -38824.557    
     12200   297.51957      157.62582     -39157.257     -38815.82     
     12300   277.60719      8338.5742     -39147.205     -38828.619    
     12400   266.86548     -5673.629      -39158.572     -38852.314    
     12500   317.92513      792.52678     -39241.459     -38876.605    
     12600   282.09629      13876.222     -39224.943     -38901.206    
     12700   271.55002     -84.123261     -39219.314     -38907.68     
     12800   273.94469     -12676.888     -39180.43      -38866.048    
     12900   318.38042      1717.4874     -39208.472     -38843.095    
     13000   334.15463     -3564.0958     -39210.021     -38826.541    
     13100   283.58818      2099.0712     -39159.676     -38834.227    
     13200   308.22492      6400.4446     -39214.566     -38860.843    
     13300   260.70563     -5963.0678     -39166.465     -38867.276    
     13400   322.02085      2854.3327     -39226.348     -38856.793    
     13500   262.79077     -14625.529     -39110.65      -38809.069    
     13600   314.59744     -7951.6422     -39176.591     -38815.555    
     13700   302.57169      11267.818     -39190.62      -38843.385    
     13800   301.12849      1398.7163     -39206.132     -38860.553    
     13900   273.13872      6829.8404     -39180.896     -38867.438    
     14000   300.43931      2547.6081     -39223.778     -38878.99     
     14100   294.51648      3518.6577     -39247         -38909.009    
     14200   256.92653      13533.547     -39209.581     -38914.729    
     14300   312.92454      14026.778     -39241.515     -38882.399    
     14400   310.31895     -3987.9982     -39222.973     -38866.847    
     14500   277.95106      1954.7201     -39186.2       -38867.22     
     14600   318.16548      3179.151      -39242.456     -38877.325    
     14700   254.5981       5754.853      -39199.907     -38907.728    
     14800   307.18838      1429.2809     -39255.087     -38902.554    
     14900   303.79133      8454.3226     -39233.49      -38884.855    
     15000   291.02692      9835.906      -39212.242     -38878.257    
     15100   333.43538      14613.851     -39258.404     -38875.75     
     15200   301.24884      7556.8499     -39223.737     -38878.02     
     15300   314.42266     -3351.5811     -39258.506     -38897.671    
     15400   282.77138      5323.9728     -39241.958     -38917.447    
     15500   282.29618      2329.6154     -39217.646     -38893.679    
     15600   329.80753      1936.8289     -39243.48      -38864.989    
     15700   293.33076     -3277.3808     -39198.165     -38861.535    
     15800   312.70976     -2960.3756     -39243.437     -38884.567    
     15900   279.37715     -5747.0301     -39218.401     -38897.785    
     16000   274.5239      -4671.9945     -39199.123     -38884.076    
     16100   304.97435      5892.4639     -39194         -38844.008    
     16200   320.14495      7386.891      -39243.137     -38875.735    
     16300   273.22286      5189.6271     -39211.355     -38897.801    
     16400   300.93714     -6586.3249     -39252.285     -38906.926    
     16500   288.25684     -10434.685     -39255.083     -38924.276    
     16600   275.62433     -5088.8561     -39240.921     -38924.611    
     16700   351.82552      1698.1531     -39296.354     -38892.595    
     16800   302.1102       5902.4798     -39220.619     -38873.914    
     16900   320.02063     -3237.1784     -39256.784     -38889.525    
     17000   325.90896      5571.8232     -39288.626     -38914.609    
     17100   283.06223      5015.6464     -39241.062     -38916.217    
     17200   297.62149      8015.8756     -39255.483     -38913.929    
     17300   284.13977      8059.5259     -39238.488     -38912.406    
     17400   301.88941      7404.7127     -39238.224     -38891.772    
     17500   325.08397     -3580.4791     -39234.633     -38861.563    
     17600   262.63778     -6286.7552     -39179.09      -38877.684    
     17700   292.57724     -7074.1174     -39233.965     -38898.2      
     17800   319.24194     -456.72551     -39273.258     -38906.892    
     17900   291.52143      1249.2717     -39240.419     -38905.865    
     18000   293.44056      4717.6776     -39216.206     -38879.45     
     18100   330.91568     -636.3284      -39247.847     -38868.084    
     18200   305.87161      1320.0327     -39265.949     -38914.927    
     18300   296.9157      -2163.4619     -39270.731     -38929.987    
     18400   301.72973      5045.918      -39267.504     -38921.235    
     18500   304.73948      1464.7285     -39249.214     -38899.492    
     18600   298.03173      191.62022     -39227.184     -38885.159    
     18700   281.36191     -10065.476     -39215.821     -38892.927    
     18800   270.92906     -8230.2858     -39242.634     -38931.713    
     18900   266.93817      796.02863     -39243.974     -38937.633    
     19000   271.66756      18921.135     -39228.816     -38917.047    
     19100   296.35582     -7147.8525     -39237.577     -38897.475    
     19200   276.75377     -4995.8536     -39216.664     -38899.058    
     19300   310.71344      11048.773     -39256.305     -38899.726    
     19400   288.93028     -13146.031     -39234.328     -38902.749    
     19500   253.9254      -3344.7438     -39219.955     -38928.547    
     19600   248.38793     -5155.1273     -39246.009     -38960.956    
     19700   288.54208      9665.3543     -39282.03      -38950.895    
     19800   296.84792      4670.8618     -39270.158     -38929.492    
     19900   296.54626      2489.6031     -39248.225     -38907.905    
     20000   304.54853      7600.6189     -39242.629     -38893.125    
     20100   304.2622       14962.816     -39250.252     -38901.078    
     20200   280.01185      9900.6231     -39257.987     -38936.642    
     20300   268.87917     -626.42977     -39246.94      -38938.371    
     20400   278.37249      14161.385     -39239.301     -38919.837    
     20500   295.38538      2646.694      -39240.737     -38901.749    
     20600   303.34679     -2044.1186     -39250.489     -38902.364    
     20700   304.61605     -9672.1904     -39264.481     -38914.9      
     20800   279.47858      2559.6234     -39229.424     -38908.691    
     20900   334.94248     -9936.5012     -39267.048     -38882.664    
     21000   325.30473      624.45092     -39257.218     -38883.895    
     21100   314.38857      5760.9354     -39278.093     -38917.296    
     21200   289.362        8844.9894     -39263.777     -38931.701    
     21300   274.49613      35.496101     -39241.117     -38926.102    
     21400   294.96568      9244.4483     -39242.259     -38903.752    
     21500   306.42232      9029.525      -39242.785     -38891.131    
     21600   322.07541      3936.8179     -39273.125     -38903.507    
     21700   306.32093      14507.168     -39270.93      -38919.392    
     21800   292.86804      347.71051     -39256.502     -38920.403    
     21900   312.78321      12510.369     -39259.832     -38900.878    
     22000   348.90211      9244.815      -39273.467     -38873.063    
     22100   312.72063     -10379.473     -39262.609     -38903.727    
     22200   317.27034      15456.567     -39294.788     -38930.685    
     22300   286.63323      7174.0066     -39277.922     -38948.979    
     22400   285.27439      8279.0653     -39295.13      -38967.746    
     22500   305.81745      15075.911     -39311.705     -38960.745    
     22600   297.62185      2749.0138     -39264.169     -38922.614    
     22700   273.75476      2923.5418     -39241.912     -38927.747    
     22800   293.53383      7163.743      -39286.29      -38949.427    
     22900   310.99921     -2702.7323     -39315.024     -38958.117    
     23000   282.01073      16609.168     -39283.865     -38960.227    
     23100   272.25668      2670.5297     -39303.489     -38991.044    
     23200   283.41364      4332.1414     -39321.579     -38996.33     
     23300   280.03128      6857.7468     -39287.522     -38966.154    
     23400   287.72718     -1035.8582     -39286.6       -38956.401    
     23500   304.62304      16888.882     -39319.808     -38970.219    
     23600   295.5447       16143.709     -39328.834     -38989.664    
     23700   287.8672       23779.944     -39334.24      -39003.88     
     23800   289.39985      1920.4844     -39332.638     -39000.519    
     23900   272.29547      8555.8016     -39301.683     -38989.194    
     24000   347.48245     -3005.1795     -39371.185     -38972.41     
     24100   307.49515      21088.145     -39339.472     -38986.587    
     24200   287.87459     -304.40994     -39351.655     -39021.287    
     24300   300.54329      822.46641     -39371.927     -39027.02     
     24400   319.02959      14319.821     -39387.854     -39021.732    
     24500   324.20616      15531.234     -39377.681     -39005.618    
     24600   299.73484      8788.7107     -39321.188     -38977.208    
     24700   328.99593      3508.7669     -39349.575     -38972.015    
     24800   299.15866      25134.564     -39352.129     -39008.811    
     24900   281.51942     -8914.5168     -39350.563     -39027.488    
     25000   286.5962      -1506.991      -39352.933     -39024.032    
     25100   287.67339      22881.882     -39337.67      -39007.532    
     25200   320.17272      10787.621     -39351.363     -38983.929    
     25300   278.5854       13054.179     -39293.779     -38974.071    
     25400   304.22237      12396.846     -39366.907     -39017.777    
     25500   275.49482      8235.3337     -39351.082     -39034.921    
     25600   288.67308     -5348.7486     -39358.284     -39026.999    
     25700   308.43706     -3950.1486     -39355.831     -39001.865    
     25800   304.18576      6443.4708     -39338.604     -38989.517    
     25900   330.93067      2190.5916     -39381.668     -39001.888    
     26000   297.57189      4748.2109     -39378.829     -39037.332    
     26100   313.72086      6556.4405     -39402.961     -39042.932    
     26200   280.2808       6335.5347     -39342.123     -39020.469    
     26300   305.4744      -2081.0916     -39355.275     -39004.709    
     26400   298.30409      11875.38      -39343.979     -39001.642    
     26500   300.11922      1782.475      -39355.865     -39011.445    
     26600   312.89975      5872.4532     -39358.11      -38999.022    
     26700   311.84765      7393.8208     -39321.478     -38963.597    
     26800   325.70406      8403.1564     -39350.882     -38977.1      
     26900   313.17194      8306.9481     -39365.785     -39006.385    
     27000   292.37879      13909.253     -39356.891     -39021.354    
     27100   319.44871     -2788.7761     -39390.497     -39023.894    
     27200   329.45583      6489.8657     -39381.343     -39003.256    
     27300   336.52634      7202.1183     -39370.323     -38984.122    
     27400   316.0367       5560.929      -39328.346     -38965.658    
     27500   291.05864      7801.9458     -39325.031     -38991.009    
     27600   306.02386      9091.2882     -39371.994     -39020.798    
     27700   283.83615      10574.66      -39349.114     -39023.381    
     27800   298.45443      13335.334     -39353.983     -39011.474    
     27900   321.7253       12661.79      -39369.654     -39000.438    
     28000   280.9407       14889.896     -39309.466     -38987.055    
     28100   313.98404      8631.549      -39352.179     -38991.847    
     28200   318.67881      5020.1221     -39385.187     -39019.467    
     28300   283.07016     -10952.251     -39359.823     -39034.968    
     28400   311.12672     -4214.902      -39377         -39019.947    
     28500   309.56313     -6794.1492     -39355.035     -38999.776    
     28600   274.38256     -10601.323     -39314.083     -38999.198    
     28700   304.99693      4398.744      -39358.952     -39008.934    
     28800   265.43199      2831.145      -39325.277     -39020.664    
     28900   287.66839     -9870.8527     -39361.411     -39031.279    
     29000   289.67238      2157.2358     -39371.133     -39038.701    
     29100   278.18764      14271.902     -39334.345     -39015.093    
     29200   331.70935     -7236.7892     -39374.727     -38994.053    
     29300   301.69184     -6054.7338     -39339.043     -38992.818    
     29400   286.22876      308.11964     -39347.746     -39019.267    
     29500   311.20526     -17921.014     -39392.852     -39035.709    
     29600   289.99119      17944.115     -39365.937     -39033.139    
     29700   327.63933      8397.4282     -39373.533     -38997.53     
     29800   292.74059      1987.309      -39311.753     -38975.8      
     29900   290.04319     -750.2125      -39329.578     -38996.721    
     30000   295.47977     -1876.0629     -39361.468     -39022.372    
     30100   278.13222      12134.297     -39345.791     -39026.603    
     30200   312.25671      1334.5031     -39369.31      -39010.961    
     30300   306.72435     -901.21061     -39325.165     -38973.164    
     30400   348.41782      15786.266     -39373.83      -38973.982    
     30500   295.76181      17052.194     -39350.647     -39011.227    
     30600   325.628        8935.7804     -39392.057     -39018.362    
     30700   274.092       -3152.6674     -39339.021     -39024.47     
     30800   321.0242       2244.8781     -39381.978     -39013.567    
     30900   303.02345      9664.6511     -39333.422     -38985.669    
     31000   342.33118      9910.5673     -39370.355     -38977.492    
     31100   311.95891      794.23535     -39356.967     -38998.959    
     31200   294.8181      -1009.159      -39344.45      -39006.113    
     31300   306.56814     -6031.9615     -39365.051     -39013.229    
     31400   286.58564      361.30428     -39340.013     -39011.124    
     31500   330.62244      5924.8124     -39369.561     -38990.135    
     31600   324.7097       8470.5703     -39344.223     -38971.583    
     31700   282.20335      905.98709     -39313.259     -38989.399    
     31800   301.07962      1431.5205     -39365.69      -39020.168    
     31900   270.57799     -1520.0749     -39335.076     -39024.558    
     32000   328.77726      5433.4957     -39383.633     -39006.325    
     32100   310.13406      709.63123     -39336.193     -38980.28     
     32200   310.66614      992.48492     -39311.158     -38954.634    
     32300   301.481        15046.989     -39302.059     -38956.076    
     32400   310.19819      17108.16      -39354.831     -38998.844    
     32500   313.76274      3523.7156     -39385.38      -39025.302    
     32600   274.79628      5476.4011     -39352.151     -39036.792    
     32700   304.37789      10458.68      -39366.653     -39017.346    
     32800   304.3398      -3541.2045     -39345.861     -38996.597    
     32900   306.42747      8254.9669     -39347.003     -38995.343    
     33000   304.50936     -8436.4036     -39353.091     -39003.633    
     33100   302.23273      1517.8287     -39378.991     -39032.145    
     33200   285.95128     -5692.7857     -39369.08      -39040.919    
     33300   311.40204     -1629.7151     -39374.005     -39016.636    
     33400   295.61917      7286.1806     -39332.922     -38993.666    
     33500   276.79129      6641.2037     -39311.795     -38994.147    
     33600   318.59488     -1563.8093     -39373.087     -39007.464    
     33700   274.80052     -7457.3008     -39351.558     -39036.194    
     33800   302.174       -5777.5771     -39392.728     -39045.949    
     33900   275.80922     -2069.9175     -39349.129     -39032.607    
     34000   313.13047      6074.1389     -39379.32      -39019.968    
     34100   291.23332      6554.5391     -39336.465     -39002.243    
     34200   292.74684      339.93786     -39324.995     -38989.035    
     34300   312.74867     -5146.352      -39356.629     -38997.715    
     34400   258.24094     -17323.403     -39326.404     -39030.043    
     34500   313.91084      20094.197     -39396.978     -39036.73     
     34600   288.16125     -2125.5204     -39355.488     -39024.79     
     34700   337.45022     -7756.3097     -39371.619     -38984.357    
     34800   295.89746      2298.7198     -39319.975     -38980.4      
     34900   287.16153      11802.804     -39322.813     -38993.263    
     35000   301.85715     -3431.6964     -39362.053     -39015.639    
     35100   296.82723      5275.0109     -39363.466     -39022.824    
     35200   297.46832      5185.0892     -39359.625     -39018.246    
     35300   308.84861      210.83793     -39373.041     -39018.602    
     35400   303.16642     -1449.2659     -39367.669     -39019.752    
     35500   315.96572      146.41208     -39375.99      -39013.384    
     35600   286.90476      7797.689      -39323.691     -38994.436    
     35700   302.66281      16320.986     -39334.274     -38986.935    
     35800   301.58687      9127.6416     -39341.845     -38995.74     
     35900   309.3571      -3321.1414     -39381.706     -39026.685    
     36000   282.54317     -665.459       -39352.459     -39028.209    
     36100   307.31387      3841.3384     -39373.793     -39021.116    
     36200   296.6224       9501.4562     -39349.996     -39009.589    
     36300   303.25909     -187.64857     -39339.163     -38991.14     
     36400   316.83291      1936.0356     -39368.088     -39004.487    
     36500   290.28164     -525.64405     -39362.173     -39029.043    
     36600   291.02464     -1454.2412     -39369.573     -39035.589    
     36700   285.84954      2648.8739     -39338.893     -39010.848    
     36800   313.45036      5228.3779     -39338.934     -38979.214    
     36900   326.2679       3960.1293     -39366.396     -38991.967    
     37000   278.30653      9702.2757     -39336.9       -39017.512    
     37100   299.15732      509.39442     -39373.638     -39030.322    
     37200   299.5657       11131.625     -39356.236     -39012.45     
     37300   297.95084     -1180.1012     -39336.462     -38994.53     
     37400   309.84127     -207.62773     -39362.282     -39006.705    
     37500   265.2787       16125.099     -39359.709     -39055.272    
     37600   295.48649      6206.6251     -39393.331     -39054.228    
     37700   316.48168     -3908.9261     -39392.342     -39029.144    
     37800   286.62022      3272.0436     -39336.229     -39007.3      
     37900   324.1795       1256.1672     -39368.734     -38996.702    
     38000   277.01311     -3655.2077     -39318.897     -39000.994    
     38100   289.72679      10913.638     -39366.114     -39033.62     
     38200   305.12639      684.49108     -39401.218     -39051.052    
     38300   277.5617       1655.3479     -39346.777     -39028.244    
     38400   317.96038      691.18579     -39371.055     -39006.16     
     38500   290.56964      1143.7733     -39327.651     -38994.19     
     38600   296.03826      3505.5227     -39334.666     -38994.929    
     38700   280.187       -2774.5719     -39336.784     -39015.238    
     38800   264.31968      2135.0869     -39350.218     -39046.881    
     38900   313.13222     -2708.7586     -39398.627     -39039.273    
     39000   292.60923      2018.0997     -39352.857     -39017.055    
     39100   317.20169     -1660.1697     -39372.789     -39008.765    
     39200   311.32727      2932.7225     -39358.9       -39001.617    
     39300   316.4746       14316.809     -39375.5       -39012.31     
     39400   295.93515      2666.0814     -39367.68      -39028.062    
     39500   263.42072      13316.627     -39362.698     -39060.393    
     39600   313.12828      18668.897     -39425.8       -39066.451    
     39700   300.6182       10554.446     -39379.817     -39034.824    
     39800   279.9655       9241.4562     -39336.501     -39015.209    
     39900   326.66461      5408.3218     -39383.555     -39008.671    
     40000   274.24316     -2884.7659     -39327.287     -39012.562    
     40100   310.31011      11765.943     -39379.306     -39023.19     
     40200   284.4299       16740.6       -39351.315     -39024.9      
     40300   306.15441      2784.5012     -39368.708     -39017.361    
     40400   307.17994      3031.9853     -39346.811     -38994.287    
     40500   297.3702       10630.143     -39321.477     -38980.211    
     40600   318.26625      3598.4255     -39347.107     -38981.861    
     40700   297.18254     -269.34293     -39359.405     -39018.355    
     40800   311.51244     -185.76372     -39391.224     -39033.729    
     40900   276.51055      7241.124      -39345.788     -39028.461    
     41000   307.95519      3447.3813     -39357.719     -39004.306    
     41100   300.37013      7135.1611     -39326.598     -38981.89     
     41200   308.80274      2653.1711     -39329.065     -38974.68     
     41300   281.34976      1236.578      -39326.667     -39003.787    
     41400   287.89989      2797.1865     -39360.145     -39029.747    
     41500   301.07851      4719.7972     -39383.288     -39037.766    
     41600   286.9349       9682.812      -39343.213     -39013.923    
     41700   316.16392      8239.2405     -39353.633     -38990.799    
     41800   298.5862       4635.4219     -39336.747     -38994.086    
     41900   305.41938      8097.8623     -39361.608     -39011.105    
     42000   306.87029     -3391.4271     -39373.162     -39020.994    
     42100   288.57294     -17307.744     -39355.975     -39024.806    
     42200   297.77099      1812.1326     -39359.442     -39017.717    
     42300   277.57792      7740.7225     -39332.92      -39014.369    
     42400   293.85296      12009.226     -39361.683     -39024.454    
     42500   297.41642      2831.5028     -39382.455     -39041.136    
     42600   278.63334      4159.236      -39385.893     -39066.13     
     42700   253.50743      7172.8496     -39379.303     -39088.375    
     42800   294.91303      14097.093     -39410.504     -39072.058    
     42900   299.47098      1824.1006     -39378.312     -39034.636    
     43000   292.16837     -945.77671     -39358.613     -39023.317    
     43100   300.40771      7142.4149     -39371.897     -39027.146    
     43200   278.26187      9684.9814     -39362.863     -39043.527    
     43300   283.81454      2951.4601     -39395.019     -39069.311    
     43400   315.01406     -183.47244     -39423.813     -39062.299    
     43500   309.65369     -372.68475     -39379.787     -39024.424    
     43600   286.52026      10613.597     -39353.215     -39024.401    
     43700   314.97314      16513.572     -39388.984     -39027.518    
     43800   288.67845      1046.3827     -39379.507     -39048.216    
     43900   287.44154      23.947535     -39392.365     -39062.494    
     44000   314.68895     -898.0923      -39405.807     -39044.667    
     44100   297.07898      6016.5699     -39345.762     -39004.831    
     44200   325.86128      7316.9746     -39384.847     -39010.885    
     44300   297.91526     -7951.1212     -39367.307     -39025.416    
     44400   312.0631       5551.589      -39408.617     -39050.49     
     44500   281.45132      4751.8382     -39384.006     -39061.009    
     44600   292.89225      3144.0395     -39375.533     -39039.406    
     44700   294.25161      11122.54      -39338.117     -39000.431    
     44800   303.03913     -2857.2555     -39356.611     -39008.839    
     44900   307.63707     -68.574831     -39383.65      -39030.602    
     45000   284.86947      5567.1092     -39377.293     -39050.373    
     45100   290.29051      7202.4609     -39395.242     -39062.101    
     45200   272.06232      3134.8699     -39365.691     -39053.469    
     45300   321.68839      12294.963     -39383.113     -39013.94     
     45400   323.88769      16987.861     -39380.091     -39008.394    
     45500   307.51645      5847.1377     -39388.355     -39035.445    
     45600   310.66994     -3614.2968     -39400.553     -39044.024    
     45700   281.96681     -6140.6809     -39376.297     -39052.709    
     45800   308.70879      9643.2753     -39411.268     -39056.99     
     45900   306.51001      6925.236      -39391.923     -39040.168    
     46000   282.86858      12566.643     -39337.722     -39013.099    
     46100   325.00623     -3309.3706     -39384.063     -39011.082    
     46200   287.20843     -3085.0338     -39369.345     -39039.742    
     46300   288.9373      -2712.3479     -39385.893     -39054.305    
     46400   310.07252      5985.0566     -39409.116     -39053.273    
     46500   299.47434      11924.037     -39381.745     -39038.065    
     46600   284.47663      5891.76       -39356.846     -39030.377    
     46700   314.70085     -2292.305      -39390.55      -39029.396    
     46800   313.00896      6819.3586     -39401.99      -39042.777    
     46900   287.63837      1831.9374     -39382.831     -39052.734    
     47000   296.93504      10064.743     -39386.342     -39045.576    
     47100   313.07237      4744.9612     -39379.499     -39020.213    
     47200   296.35536      4933.1502     -39350.893     -39010.792    
     47300   310.15304      8355.1963     -39396.301     -39040.366    
     47400   303.3065       8393.2159     -39411.329     -39063.251    
     47500   265.92475      10637.847     -39358.091     -39052.913    
     47600   284.34517      2164.7207     -39355.005     -39028.688    
     47700   302.00199      2683.7184     -39372.286     -39025.705    
     47800   320.25981     -4389.0535     -39409.674     -39042.14     
     47900   269.70053     -2311.8391     -39386.604     -39077.092    
     48000   262.99672      12648.521     -39376.804     -39074.986    
     48100   275.45314      12296.119     -39378.308     -39062.195    
     48200   311.46365      12172.804     -39406.479     -39049.04     
     48300   320.26911      36.891172     -39394.604     -39027.06     
     48400   298.7963       11680.565     -39348.953     -39006.051    
     48500   331.52883      1148.2058     -39384.333     -39003.867    
     48600   316.67182      5053.0441     -39385.258     -39021.841    
     48700   306.21948      7913.2123     -39384.26      -39032.839    
     48800   276.50408      785.30933     -39364.202     -39046.882    
     48900   302.26622      4680.8966     -39398.04      -39051.156    
     49000   330.82696     -2614.3992     -39400.534     -39020.873    
     49100   308.63117     -2643.5149     -39368.297     -39014.108    
     49200   289.35815      6250.8632     -39371.031     -39038.961    
     49300   288.55494      13333.758     -39408.543     -39077.394    
     49400   287.52478     -1329.8778     -39398.258     -39068.292    
     49500   282.78525      4122.0212     -39366.752     -39042.224    
     49600   336.8479       7769.2368     -39410.978     -39024.408    
     49700   296.06033      12082.097     -39367.247     -39027.484    
     49800   280.32529     -1863.398      -39372.271     -39050.566    
     49900   307.1863       15570.253     -39428.588     -39076.057    
     50000   282.23861      4438.7069     -39420.58      -39096.679    
     50100   268.1833       3520.4785     -39394.126     -39086.355    
     50200   294.73996      6298.1575     -39386.777     -39048.53     
     50300   304.76542     -118.50345     -39382.633     -39032.881    
     50400   294.1845       3946.2398     -39360.238     -39022.629    
     50500   319.41282      10583.328     -39395.093     -39028.532    
     50600   283.17629      8661.2694     -39371.876     -39046.9      
     50700   276.25797      5482.9326     -39378.163     -39061.126    
     50800   307.26476      3753.2808     -39399.85      -39047.229    
     50900   315.24298      4261.2011     -39373.919     -39012.142    
     51000   301.08178      16185.265     -39351.82      -39006.295    
     51100   313.9437      -2570.8273     -39384.652     -39024.366    
     51200   286.50456      1445.7857     -39367.376     -39038.58     
     51300   289.1905       5002.6944     -39369.167     -39037.289    
     51400   317.89834      12395.798     -39406.403     -39041.579    
     51500   294.47253      4949.5899     -39384.409     -39046.469    
     51600   272.77812      6765.3431     -39388.908     -39075.865    
     51700   289.9615       10733.214     -39411.908     -39079.145    
     51800   290.52898      14672.606     -39378.211     -39044.796    
     51900   306.29809      8056.3514     -39375.011     -39023.5      
     52000   313.09097      11819.893     -39384.563     -39025.256    
     52100   275.57084      3333.6588     -39350.835     -39034.587    
     52200   298.60056      11846.372     -39403.701     -39061.023    
     52300   296.39689      6339.642      -39419.35      -39079.202    
     52400   268.9578       179.60314     -39397.315     -39088.656    
     52500   267.47186      1922.5815     -39362.45      -39055.496    
     52600   302.96694      210.06775     -39381.134     -39033.446    
     52700   322.89863      2799.2983     -39396.578     -39026.016    
     52800   278.00174      2239.3511     -39356.67      -39037.632    
     52900   299.83059      10371.016     -39401.993     -39057.904    
     53000   278.48618      933.12087     -39392.89      -39073.296    
     53100   301.33983      1291.265      -39396.097     -39050.276    
     53200   291.95233      2513.153      -39354.384     -39019.336    
     53300   315.14591      6941.1953     -39377.592     -39015.927    
     53400   305.07161      5386.0152     -39385.411     -39035.307    
     53500   259.13967      7683.6983     -39361.797     -39064.405    
     53600   301.14296      8218.5584     -39404.708     -39059.112    
     53700   305.43532      1028.6087     -39396.036     -39045.515    
     53800   314.8728       1336.7135     -39383.953     -39022.601    
     53900   315.77762      317.32895     -39382.434     -39020.044    
     54000   317.88297      5160.1083     -39395.77      -39030.963    
     54100   286.90396      647.93067     -39362.117     -39032.863    
     54200   317.62453      12457.572     -39394.599     -39030.089    
     54300   305.21252      16948.623     -39395.105     -39044.84     
     54400   278.98417      17004.682     -39396.256     -39076.091    
     54500   296.02788     -3565.0627     -39419.045     -39079.32     
     54600   304.74308      1053.2431     -39395.413     -39045.686    
     54700   304.95702      5383.7776     -39379.502     -39029.53     
     54800   279.54481      10553.195     -39348.425     -39027.616    
     54900   333.26347      24128.316     -39410.529     -39028.072    
     55000   302.63117      8659.8305     -39392.897     -39045.593    
     55100   278.69706      8737.5659     -39386.825     -39066.989    
     55200   292.89298      4771.8649     -39397.816     -39061.688    
     55300   321.98812      5677.8926     -39390.575     -39021.058    
     55400   297.56923      9553.5412     -39349.398     -39007.904    
     55500   304.77906      2165.7083     -39375.203     -39025.434    
     55600   321.20576      9372.5754     -39416.574     -39047.954    
     55700   309.30509      11589.637     -39408.531     -39053.568    
     55800   273.41803      3168.0215     -39361.853     -39048.075    
     55900   312.66772     -1282.795      -39391.772     -39032.95     
     56000   316.70924     -1378.2436     -39388.452     -39024.993    
     56100   305.77575      229.07964     -39379.941     -39029.029    
     56200   312.82014      5169.369      -39398.545     -39039.549    
     56300   293.21448      1523.9381     -39395.125     -39058.628    
     56400   277.88499      1416.3025     -39391.971     -39073.067    
     56500   304.60463      5146.1586     -39401.64      -39052.072    
     56600   317.95628      9696.3408     -39385.712     -39020.822    
     56700   292.72019      4779.3997     -39355.063     -39019.134    
     56800   303.4893       2674.5834     -39387.161     -39038.873    
     56900   292.2265      -9076.7952     -39398.917     -39063.554    
     57000   288.94602     -508.62071     -39404.011     -39072.413    
     57100   279.72337      1038.7072     -39381.053     -39060.039    
     57200   312.23573     -1505.8579     -39381.703     -39023.377    
     57300   290.3326      -888.94645     -39344.153     -39010.963    
     57400   323.36298     -1022.4975     -39396.352     -39025.257    
     57500   289.61694      5066.3628     -39379.911     -39047.544    
     57600   279.14812      5804.4035     -39381.477     -39061.123    
     57700   283.3266       3001.8726     -39389.989     -39064.84     
     57800   321.0819      -1943.6937     -39406.337     -39037.86     
     57900   292.38788     -7457.0956     -39350.682     -39015.134    
     58000   313.97683     -895.9386      -39363.407     -39003.084    
     58100   285.61331      9870.6599     -39349.126     -39021.353    
     58200   288.59222     -7585.7901     -39377.474     -39046.282    
     58300   302.16728      3036.6147     -39401.809     -39055.038    
     58400   324.21855      8523.1068     -39428.089     -39056.012    
     58500   281.32055      7467.5002     -39374.563     -39051.716    
     58600   278.45376      13582.925     -39363.147     -39043.59     
     58700   297.61566      6279.0965     -39368.808     -39027.261    
     58800   303.4843      -6202.2218     -39370.3       -39022.018    
     58900   318.91357      3130.453      -39393.057     -39027.068    
     59000   300.09989      12279.192     -39379.9       -39035.502    
     59100   280.82175     -8490.5058     -39367.369     -39045.095    
     59200   313.34533      8192.5673     -39423.819     -39064.22     
     59300   294.25209      9905.1136     -39409.573     -39071.886    
     59400   306.36645     -350.28004     -39384.647     -39033.057    
     59500   301.50581      15098.708     -39363.394     -39017.382    
     59600   308.23126      15158.612     -39370.414     -39016.684    
     59700   299.67589      6423.6408     -39369.725     -39025.813    
     59800   290.75017     -6127.6868     -39390.867     -39057.198    
     59900   288.66902     -10312.24      -39401.239     -39069.959    
     60000   300.57892      2543.5707     -39401.612     -39056.664    
     60100   295.70536      4164.3917     -39377.453     -39038.098    
     60200   281.79609      1515.3174     -39357.617     -39034.224    
     60300   329.21615      10895.456     -39404.961     -39027.149    
     60400   284.2954      -13896.418     -39354.411     -39028.151    
     60500   262.5937      -1212.0331     -39348.766     -39047.41     
     60600   293.59737     -7108.8836     -39408.746     -39071.81     
     60700   299.252        10560.408     -39401.56      -39058.135    
     60800   287.95885      3029.6568     -39360.245     -39029.78     
     60900   279.97033      1892.2065     -39350.72      -39029.423    
     61000   320.20769      17229.007     -39393.133     -39025.659    
     61100   313.91003      15766.119     -39388.523     -39028.277    
     61200   296.99046      3064.8902     -39380.763     -39039.934    
     61300   292.99304      6494.9957     -39398.297     -39062.054    
     61400   283.92326     -1435.4022     -39384.17      -39058.336    
     61500   294.93157     -2430.1488     -39364.912     -39026.445    
     61600   317.78855      16811.708     -39383.419     -39018.721    
     61700   316.76687      15966.499     -39389.898     -39026.373    
     61800   267.808        12725.548     -39343.403     -39036.063    
     61900   306.56979      925.41789     -39385.365     -39033.542    
     62000   321.64075     -1389.9587     -39405.535     -39036.416    
     62100   295.51839      8439.2363     -39379.883     -39040.742    
     62200   300.54132      15083.184     -39400.285     -39055.38     
     62300   301.53463      11364.328     -39439.763     -39093.718    
     62400   283.57978      6082.7228     -39416.946     -39091.507    
     62500   286.24418      957.22911     -39405.272     -39076.775    
     62600   283.85049      6790.9103     -39387.112     -39061.362    
     62700   291.85513      3496.7904     -39386.582     -39051.646    
     62800   299.63234      15029.932     -39391.757     -39047.895    
     62900   285.17526     -43.391892     -39378.309     -39051.039    
     63000   309.19276      7256.1467     -39417.073     -39062.24     
     63100   324.8396      -9310.5819     -39437.831     -39065.041    
     63200   292.31791      7059.5283     -39396.168     -39060.7      
     63300   299.90174      6796.9095     -39395.701     -39051.53     
     63400   304.20344      5181.3266     -39402.802     -39053.694    
     63500   270.25904      12105.039     -39393.772     -39083.62     
     63600   293.39244     -7660.9919     -39421.214     -39084.513    
     63700   311.14938      1533.6977     -39410.537     -39053.458    
     63800   311.87099     -3222.6117     -39404.176     -39046.269    
     63900   312.54372      3491.209      -39409.14      -39050.461    
     64000   279.10596      6150.726      -39384.534     -39064.229    
     64100   288.40564      9692.4231     -39412.124     -39081.146    
     64200   279.10467      7446.8016     -39428.721     -39108.418    
     64300   310.83022      7807.715      -39453.151     -39096.439    
     64400   297.82159      9047.5369     -39403.372     -39061.588    
     64500   286.18453      254.48344     -39379.124     -39050.695    
     64600   294.11357     -1987.2354     -39388.22      -39050.691    
     64700   329.70708      2211.729      -39435.084     -39056.708    
     64800   295.89253     -10854.394     -39425.595     -39086.025    
     64900   289.61841      2490.7036     -39426.575     -39094.206    
     65000   276.59645      13838.923     -39390.515     -39073.09     
     65100   306.42502      19014.009     -39398.295     -39046.638    
     65200   308.88239     -558.86314     -39407.104     -39052.627    
     65300   307.78627     -5721.7553     -39421.159     -39067.94     
     65400   279.42069      11911.53      -39407.312     -39086.645    
     65500   284.45933      3465.4282     -39404.533     -39078.084    
     65600   318.36367      6212.3306     -39399.313     -39033.955    
     65700   327.88376      14060.352     -39406.778     -39030.495    
     65800   283.69227     -8641.9081     -39382.382     -39056.813    
     65900   282.43108      8061.5218     -39395.691     -39071.57     
     66000   304.73517      14893.641     -39417.112     -39067.394    
     66100   309.93417     -1181.1209     -39415.025     -39059.341    
     66200   300.71362      7561.4518     -39378.251     -39033.149    
     66300   310.77785     -405.98725     -39372.911     -39016.259    
     66400   314.68387     -1325.6959     -39406.795     -39045.66     
     66500   304.23584      7706.465      -39410.421     -39061.277    
     66600   296.08647      7559.5472     -39402.649     -39062.857    
     66700   308.67503      5467.1648     -39410.051     -39055.812    
     66800   336.65218      2966.1552     -39416.759     -39030.413    
     66900   311.89468      5020.0299     -39373.686     -39015.752    
     67000   278.04394      10457.614     -39366.17      -39047.084    
     67100   298.9442       4449.2632     -39412.367     -39069.295    
     67200   302.31137      6526.7444     -39416.952     -39070.016    
     67300   277.32436      7174.103      -39378.303     -39060.043    
     67400   304.87017     -3903.2971     -39391.024     -39041.152    
     67500   330.04963      9798.8042     -39395.57      -39016.801    
     67600   317.52585      5710.6907     -39391.543     -39027.147    
     67700   293.02596     -4224.2615     -39402.694     -39066.414    
     67800   297.80314      18982.479     -39413.522     -39071.76     
     67900   317.89179      10863.545     -39423.162     -39058.346    
     68000   316.37129     -8995.4046     -39413.021     -39049.949    
     68100   268.9909       15688.355     -39369.273     -39060.576    
     68200   275.08732      6340.9355     -39396.351     -39080.657    
     68300   310.95452      560.04092     -39443.32      -39086.465    
     68400   311.90441      1227.1201     -39414.701     -39056.756    
     68500   284.50471     -911.1124      -39365.022     -39038.521    
     68600   299.47229     -1300.4769     -39394.267     -39050.589    
     68700   314.97106     -3640.5014     -39430.16      -39068.696    
     68800   312.10473      3521.0713     -39427.302     -39069.127    
     68900   290.19002      5790.4191     -39395.217     -39062.192    
     69000   293.28779     -56.717604     -39397.785     -39061.204    
     69100   302.5894      -7818.8939     -39420.727     -39073.472    
     69200   300.06922      2468.5899     -39427.771     -39083.408    
     69300   296.30258      403.85008     -39431.805     -39091.765    
     69400   298.34031      422.17678     -39425.324     -39082.945    
     69500   299.61898      9260.314      -39398.644     -39054.798    
     69600   301.7218       5810.3373     -39383.868     -39037.609    
     69700   316.08903     -1489.5381     -39409.468     -39046.721    
     69800   278.31658     -807.19908     -39383.73      -39064.33     
     69900   288.78885      4589.5594     -39416.902     -39085.485    
     70000   276.57835      4660.124      -39440.246     -39122.842    
     70100   287.22996      64.31203      -39431.114     -39101.486    
     70200   307.26683     -7333.9657     -39426.712     -39074.089    
     70300   307.5858       8177.6996     -39407.76      -39054.771    
     70400   276.33185      10262.979     -39371.955     -39054.833    
     70500   300.21551     -2864.4257     -39410.597     -39066.066    
     70600   281.14955      3076.81       -39415.52      -39092.87     
     70700   278.11662      1689.5383     -39419.549     -39100.379    
     70800   319.66211      2372.1464     -39442.66      -39075.812    
     70900   336.88638     -5743.3566     -39432.997     -39046.382    
     71000   322.56251      3608.3595     -39434.644     -39064.468    
     71100   298.22123     -1940.4914     -39428.252     -39086.01     
     71200   303.20176      5489.324      -39442.547     -39094.589    
     71300   300.56605      9596.1636     -39445.224     -39100.291    
     71400   297.52557      31971.643     -39420.244     -39078.8      
     71500   299.53864      6830.355      -39395.103     -39051.349    
     71600   301.79935      8240.6715     -39406.186     -39059.838    
     71700   291.75871      15657.194     -39426.935     -39092.109    
     71800   271.63729     -2314.4717     -39413.153     -39101.418    
     71900   282.27857      3138.6257     -39415.476     -39091.53     
     72000   284.23616      10630.371     -39408.895     -39082.703    
     72100   294.13025      3378.9245     -39421.364     -39083.817    
     72200   291.31686      210.80563     -39455.876     -39121.558    
     72300   277.70121      6765.0434     -39452.404     -39133.711    
     72400   285.76277      11450.105     -39441.342     -39113.397    
     72500   298.17243      12506.137     -39441.429     -39099.243    
     72600   312.15781      3811.8917     -39454.829     -39096.593    
     72700   268.8374       4265.604      -39407.519     -39098.998    
     72800   284.04648      7981.2176     -39426.63      -39100.655    
     72900   311.32175      9924.4635     -39455.701     -39098.424    
     73000   273.12584      12311.456     -39409.888     -39096.445    
     73100   318.71064      348.00746     -39450.94      -39085.184    
     73200   315.06189      8244.5385     -39446.283     -39084.715    
     73300   301.35171      14378.859     -39444.805     -39098.97     
     73400   294.31066      5663.8423     -39460.6       -39122.846    
     73500   302.5359       1305.2257     -39471.707     -39124.513    
     73600   291.43484     -5932.4297     -39427.677     -39093.223    
     73700   309.14645     -558.35476     -39422.765     -39067.984    
     73800   295.84918      5260.8416     -39426.479     -39086.959    
     73900   290.99869      10048.528     -39442.076     -39108.123    
     74000   307.18473      7176.5321     -39469.767     -39117.238    
     74100   297.38101     -10586.096     -39459.76      -39118.482    
     74200   320.38133     -3814.4842     -39460.323     -39092.649    
     74300   325.89747      8250.2091     -39449.237     -39075.233    
     74400   297.04312     -2513.3237     -39420.405     -39079.515    
     74500   291.66887      2014.6415     -39448.022     -39113.299    
     74600   268.7943       1177.7402     -39427.836     -39119.364    
     74700   277.11005      1299.2118     -39426.913     -39108.899    
     74800   295.79417      400.7011      -39437.61      -39098.153    
     74900   310.24193      26863.516     -39446.652     -39090.615    
     75000   295.87112     -2891.1671     -39432.202     -39092.657    
     75100   305.31301     -2141.3651     -39446.397     -39096.016    
     75200   324.27619      11888.041     -39466.515     -39094.372    
     75300   298.14587      12758.35      -39447.976     -39105.82     
     75400   285.72042      5039.0304     -39452.048     -39124.152    
     75500   287.1232       6001.92       -39453.446     -39123.94     
     75600   286.47082      5532.3891     -39412.912     -39084.155    
     75700   287.23936     -8291.3054     -39404.759     -39075.12     
     75800   307.36575     -6746.7185     -39443.113     -39090.376    
     75900   308.85016      4592.6571     -39459.223     -39104.783    
     76000   306.23956      9556.6309     -39472.056     -39120.612    
     76100   297.51515      25008.942     -39488.48      -39147.049    
     76200   285.77202      18802.797     -39462.804     -39134.848    
     76300   292.68208     -975.28924     -39437.247     -39101.361    
     76400   296.31734      6199.2852     -39432.146     -39092.089    
     76500   287.93658     -540.21581     -39427.32      -39096.881    
     76600   296.97106     -1954.5689     -39456.706     -39115.898    
     76700   283.0699       2345.9105     -39463.435     -39138.58     
     76800   298.892        10378.172     -39478.489     -39135.477    
     76900   324.85362      2361.9153     -39467.866     -39095.06     
     77000   307.85768      462.00803     -39439.624     -39086.323    
     77100   285.31939     -87.534427     -39424.585     -39097.149    
     77200   281.26765     -11858.11      -39440.387     -39117.601    
     77300   284.90286     -11931.802     -39460.846     -39133.888    
     77400   293.68175      7417.6856     -39459.873     -39122.841    
     77500   301.73927      12546.823     -39433.921     -39087.642    
     77600   322.12421      16927.667     -39446.621     -39076.947    
     77700   320.84521      2323.5173     -39461.322     -39093.117    
     77800   299.2616       8379.8803     -39463.684     -39120.247    
     77900   283.6287      -7165.7561     -39448.654     -39123.159    
     78000   269.85078     -2812.3644     -39419.566     -39109.882    
     78100   289.9219       7128.3155     -39434.024     -39101.306    
     78200   271.44113      6558.6348     -39407.452     -39095.943    
     78300   330.94571      15009.99      -39467.189     -39087.392    
     78400   321.58193      9229.8224     -39467.032     -39097.98     
     78500   310.06522      5049.9255     -39484.214     -39128.379    
     78600   297.56782      12595.084     -39475.016     -39133.523    
     78700   293.46775     -1982.5139     -39450.718     -39113.931    
     78800   293.33583     -1859.5876     -39419.714     -39083.078    
     78900   292.98618      5462.6235     -39419.68      -39083.446    
     79000   294.6034       12343.112     -39434.771     -39096.681    
     79100   292.68448      3721.8759     -39442.339     -39106.451    
     79200   314.23993      12892.615     -39475.266     -39114.641    
     79300   322.12358      10443.449     -39478.732     -39109.059    
     79400   321.62946     -4920.0188     -39458.4       -39089.295    
     79500   313.13435     -2751.9379     -39437.533     -39078.176    
     79600   307.07487      9324.9586     -39435.846     -39083.443    
     79700   272.86282      2379.6384     -39426.426     -39113.285    
     79800   276.4338       2688.4202     -39442.144     -39124.905    
     79900   291.83653      5269.3592     -39448.591     -39113.676    
     80000   286.6325       3706.4164     -39421.664     -39092.722    
     80100   323.10498      11584.472     -39420.847     -39050.048    
     80200   316.27457      1220.523      -39428.609     -39065.648    
     80300   314.50003      5125.9654     -39450.384     -39089.46     
     80400   286.28599      12553.746     -39439.84      -39111.295    
     80500   283.39158      1340.4417     -39439.217     -39113.993    
     80600   286.16615      102.02175     -39434.517     -39106.109    
     80700   325.54006      7613.2687     -39440.749     -39067.155    
     80800   325.67949     -1082.7338     -39445.344     -39071.59     
     80900   311.12495      7823.8354     -39454.692     -39097.641    
     81000   301.84516     -8773.9668     -39459.289     -39112.888    
     81100   275.26003      15593.175     -39432.699     -39116.808    
     81200   289.99635      6455.9826     -39441.914     -39109.111    
     81300   296.6737      -4265.0287     -39412.311     -39071.845    
     81400   309.32302      6983.2188     -39423.737     -39068.754    
     81500   304.97965      137.14527     -39444.77      -39094.772    
     81600   306.82124      9821.7625     -39462.907     -39110.795    
     81700   279.92865      9359.2716     -39439.951     -39118.701    
     81800   314.31896      9315.0317     -39459.485     -39098.769    
     81900   320.00642     -2432.3613     -39445.531     -39078.288    
     82000   309.46207      4425.8997     -39446.366     -39091.223    
     82100   286.94172      9366.3043     -39462.595     -39133.297    
     82200   312.63175      11911.956     -39487.026     -39128.246    
     82300   301.40979      11102.609     -39456.452     -39110.551    
     82400   301.2672      -1591.7972     -39435.587     -39089.849    
     82500   322.03509     -2963.1084     -39454.531     -39084.959    
     82600   289.30245      6398.7651     -39451.88      -39119.873    
     82700   269.95771     -9662.1674     -39445.78      -39135.973    
     82800   297.33223     -7284.7355     -39467.584     -39126.362    
     82900   295.79608      2445.2455     -39445.35      -39105.891    
     83000   295.26758     -4424.0235     -39445.458     -39106.606    
     83100   324.14979     -8238.3068     -39480.218     -39108.22     
     83200   292.84634      14149.263     -39448.847     -39112.773    
     83300   307.1292       6477.5764     -39463.896     -39111.431    
     83400   316.66214     -4401.171      -39443.765     -39080.359    
     83500   310.92042      4273.6094     -39411.628     -39054.812    
     83600   300.96219      10482.36      -39426.28      -39080.892    
     83700   302.35097      11785.333     -39447.038     -39100.057    
     83800   286.81643     -6867.3145     -39446.575     -39117.421    
     83900   277.8083       6739.5406     -39445.969     -39127.153    
     84000   309.83789      6157.1128     -39467.03      -39111.457    
     84100   332.22891      1938.0002     -39452.53      -39071.261    
     84200   333.42962      3758.4622     -39452.877     -39070.23     
     84300   308.22024     -4752.0775     -39441.654     -39087.937    
     84400   281.96184     -6677.3571     -39424.168     -39100.585    
     84500   289.09882      154.57992     -39443.401     -39111.628    
     84600   287.29232     -2215.4457     -39446.301     -39116.601    
     84700   284.16551      10661.144     -39463.456     -39137.344    
     84800   303.82103      12179.531     -39497.07      -39148.401    
     84900   306.33471      15714.817     -39472.666     -39121.112    
     85000   303.61993      11246.256     -39446.7       -39098.262    
     85100   310.19133     -10965.618     -39456.404     -39100.425    
     85200   282.49608      136.6166      -39434.725     -39110.529    
     85300   282.11294      13016.05      -39455.257     -39131.5      
     85400   279.31149     -1681.5359     -39472.067     -39151.526    
     85500   261.15184     -7977.2501     -39434.722     -39135.021    
     85600   309.46488      6949.7753     -39462.206     -39107.061    
     85700   297.8791       15346.853     -39444.789     -39102.939    
     85800   320.61424      8832.9137     -39467.737     -39099.797    
     85900   296.45773      4077.983      -39449.277     -39109.059    
     86000   283.27665      8435.5452     -39448.206     -39123.114    
     86100   275.29364      5858.3349     -39441.18      -39125.25     
     86200   288.33211      11766.81      -39435.099     -39104.206    
     86300   331.04273      10436.805     -39462.41      -39082.501    
     86400   318.94365     -1226.1357     -39478.441     -39112.418    
     86500   303.33915     -2641.6741     -39475.236     -39127.121    
     86600   275.55422      8409.7372     -39452.059     -39135.83     
     86700   305.75171      3449.8402     -39487.772     -39136.888    
     86800   304.99101      4628.307      -39464.417     -39114.405    
     86900   307.26797      393.29374     -39442.445     -39089.82     
     87000   338.20828      10138.085     -39482.919     -39094.787    
     87100   295.94527      18519.965     -39478.723     -39139.093    
     87200   282.60802      7926.5592     -39461.183     -39136.858    
     87300   312.22647      10405.418     -39476.682     -39118.367    
     87400   319.81766     -1200.1938     -39467.884     -39100.858    
     87500   300.88266     -5033.921      -39461.759     -39116.463    
     87600   293.66722      4397.3364     -39490.272     -39153.256    
     87700   291.58208      9241.2439     -39484.223     -39149.6      
     87800   308.18664      9597.7343     -39484.901     -39131.222    
     87900   313.03942      12271.702     -39476.711     -39117.463    
     88000   301.99105     -123.63804     -39454.74      -39108.172    
     88100   317.27702      262.70649     -39471.726     -39107.615    
     88200   258.04815      4203.9824     -39442.453     -39146.314    
     88300   287.66041      16106.246     -39486.338     -39156.216    
     88400   283.17955      214.30523     -39471.805     -39146.825    
     88500   285.96198      17583.993     -39442.385     -39114.212    
     88600   327.43595      12148.138     -39485.314     -39109.544    
     88700   303.91579      4355.5133     -39474.871     -39126.093    
     88800   307.94104      2914.8373     -39496.44      -39143.043    
     88900   294.07528      12151.986     -39483.929     -39146.444    
     89000   319.40049      4079.1002     -39478.863     -39112.315    
     89100   306.54661      764.81619     -39434.851     -39083.055    
     89200   299.37317     -6993.2241     -39449.102     -39105.538    
     89300   301.3043       6470.3452     -39480.155     -39134.374    
     89400   297.68661      13032.973     -39491.306     -39149.677    
     89500   314.47764      17272.774     -39506.491     -39145.592    
     89600   326.43272      7874.3033     -39493.702     -39119.084    
     89700   322.83022      15720.381     -39463.542     -39093.058    
     89800   288.84216      9428.7647     -39432.019     -39100.541    
     89900   303.80526      12836.602     -39461.035     -39112.385    
     90000   282.95654     -5516.4518     -39454.133     -39129.409    
     90100   292.47321      6205.7824     -39471.799     -39136.154    
     90200   295.13336      4689.726      -39474.744     -39136.045    
     90300   289.05206     -2028.0378     -39458.651     -39126.932    
     90400   320.74925      14182.14      -39461.752     -39093.657    
     90500   315.98069      11697.545     -39451.207     -39088.583    
     90600   301.41636      10437.244     -39464.461     -39118.552    
     90700   303.58753     -3909.4003     -39479.952     -39131.551    
     90800   301.48718     -2051.3896     -39473.319     -39127.329    
     90900   308.98457     -9850.5708     -39481.478     -39126.883    
     91000   315.36622      15590.247     -39473.571     -39111.653    
     91100   310.25289      766.08191     -39445.571     -39089.521    
     91200   309.92074      3506.3318     -39464.984     -39109.315    
     91300   275.80067      4699.6467     -39457.131     -39140.619    
     91400   300.34643      16205.96      -39493.492     -39148.81     
     91500   297.35325      1666.9198     -39483.778     -39142.532    
     91600   306.99637      3050.5829     -39473.572     -39121.259    
     91700   330.30052      13044.983     -39471.501     -39092.444    
     91800   309.11567      4702.7771     -39458.654     -39103.91     
     91900   337.72647      13279.472     -39504.24      -39116.661    
     92000   293.15586      12495.665     -39461.695     -39125.266    
     92100   315.0004       6386.2757     -39490.289     -39128.791    
     92200   297.94252     -11998.409     -39478.556     -39136.634    
     92300   282.49504     -2190.617      -39471.915     -39147.72     
     92400   280.53416      7401.5571     -39458.787     -39136.843    
     92500   301.83225      22507.788     -39456.453     -39110.067    
     92600   312.74609      11273.002     -39464.737     -39105.826    
     92700   316.70277      8653.8312     -39501.269     -39137.817    
     92800   280.58676     -9158.1715     -39472.122     -39150.117    
     92900   298.38494      4020.5288     -39484.765     -39142.335    
     93000   317.05019      19420.036     -39492.661     -39128.81     
     93100   301.98888      542.37321     -39468.114     -39121.548    
     93200   316.22178      3345.4468     -39470.395     -39107.495    
     93300   301.18352      3548.9303     -39426.351     -39080.709    
     93400   311.65357      11077.96      -39447.776     -39090.118    
     93500   306.80651      13697.219     -39477.673     -39125.579    
     93600   302.11137      13863.827     -39484.315     -39137.608    
     93700   289.87579      4741.4351     -39472.792     -39140.127    
     93800   298.84188      3616.6489     -39466.443     -39123.489    
     93900   322.1914      -1365.2687     -39461.501     -39091.75     
     94000   304.64841     -2246.5677     -39441.679     -39092.061    
     94100   284.33956      9864.9145     -39458.084     -39131.772    
     94200   280.88253      2636.3824     -39472.103     -39149.758    
     94300   303.05834     -7733.9305     -39484.536     -39136.743    
     94400   283.14289     -2939.556      -39440.742     -39115.804    
     94500   312.87236     -3162.7992     -39462.525     -39103.469    
     94600   303.90941      8998.9216     -39469.353     -39120.583    
     94700   305.39957      2854.6828     -39512.075     -39161.595    
     94800   291.06041      8843.2176     -39485.508     -39151.483    
     94900   311.50722      363.0368      -39483.239     -39125.75     
     95000   320.69998      7659.349      -39480.841     -39112.802    
     95100   285.04335      4070.9487     -39445.963     -39118.844    
     95200   268.80318      824.34672     -39467.198     -39158.716    
     95300   278.07578      2257.7859     -39484.24      -39165.117    
     95400   308.18872      3893.2751     -39499.459     -39145.778    
     95500   268.55831      5121.0645     -39436.547     -39128.346    
     95600   306.3369      -13.108797     -39464.149     -39112.593    
     95700   295.16296      13723.791     -39453.436     -39114.703    
     95800   275.04158      5952.8836     -39455.151     -39139.51     
     95900   286.86526      14357.747     -39503.499     -39174.29     
     96000   273.85866      10272.412     -39473.974     -39159.691    
     96100   314.0743       1864.0482     -39491.967     -39131.532    
     96200   306.84702      9499.4548     -39474.094     -39121.953    
     96300   289.27202      9595.5251     -39445.643     -39113.671    
     96400   310.84772      12203.072     -39458.794     -39102.061    
     96500   325.696       -4523.3644     -39460.284     -39086.511    
     96600   321.54886      13204.999     -39474.83      -39105.817    
     96700   299.09666      270.96136     -39480.881     -39137.634    
     96800   297.94443      10517.424     -39483.342     -39141.417    
     96900   300.17886      13609.841     -39479.414     -39134.926    
     97000   314.99805      8043.429      -39484.647     -39123.151    
     97100   308.49058      8392.8372     -39450.722     -39096.695    
     97200   304.58936      7215.086      -39447.174     -39097.624    
     97300   281.17842      8507.5461     -39455.114     -39132.43     
     97400   287.22217     -9582.7227     -39466.35      -39136.73     
     97500   294.10749     -11249.667     -39471.425     -39133.904    
     97600   319.1816      -8218.415      -39495.583     -39129.286    
[...]
    174500   292.26071      7246.9952     -39638.249     -39302.847    
    174600   293.55882      5350.0557     -39619.855     -39282.963    
    174700   313.25121      12968.763     -39608.032     -39248.541    
    174800   314.2232      -3081.4728     -39618.531     -39257.924    
    174900   286.26638      3117.9456     -39612.741     -39284.218    
    175000   286.86605      8782.6102     -39622.323     -39293.112    
    175100   311.78287      5263.3807     -39647.907     -39290.102    
    175200   286.57748      6701.9937     -39621.688     -39292.809    
    175300   286.73117      2669.2828     -39621.904     -39292.848    
    175400   305.3849      -1658.6279     -39633.697     -39283.233    
    175500   313.52661      12818.355     -39631.908     -39272.101    
    175600   293.26877      8399.8496     -39607.673     -39271.115    
    175700   301.92029     -1114.3288     -39625.302     -39278.815    
    175800   291.29315      2267.8916     -39637.906     -39303.614    
    175900   295.98521      3401.4082     -39659.937     -39320.261    
    176000   301.89173      24766.238     -39654.215     -39307.761    
    176100   283.40033     -2434.5308     -39591.931     -39266.697    
    176200   302.74458      417.09275     -39604.165     -39256.732    
    176300   318.87074     -2854.7636     -39636.353     -39270.413    
    176400   273.15958     -6505.5879     -39605.525     -39292.043    
    176500   292.43168      480.86344     -39640.071     -39304.473    
    176600   284.78855     -218.63539     -39653.067     -39326.241    
    176700   254.07437      2560.6054     -39646.135     -39354.556    
    176800   278.4477       7103.0805     -39650.225     -39330.675    
    176900   301.62082      9713.8981     -39653.53      -39307.386    
    177000   309.26469      13995.472     -39646.958     -39292.043    
    177100   306.2895      -3535.4903     -39638.221     -39286.72     
    177200   298.57223      9105.0148     -39629.932     -39287.287    
    177300   303.57143      3521.7096     -39640.759     -39292.377    
    177400   287.70945      6210.1043     -39632.859     -39302.68     
    177500   277.02963      13206.348     -39631.144     -39313.221    
    177600   309.77322      10894.317     -39650.766     -39295.267    
    177700   300.27175     -9148.7423     -39609.769     -39265.174    
    177800   322.92658     -2255.5632     -39637.927     -39267.333    
    177900   310.07227     -3947.9772     -39643.018     -39287.176    
    178000   293.92492      8108.6851     -39631.652     -39294.34     
    178100   297.55027      9436.9247     -39639.42      -39297.947    
    178200   309.29154     -2688.5346     -39643.231     -39288.285    
    178300   316.62669      219.28179     -39611.373     -39248.008    
    178400   300.17577      8861.2559     -39589.39      -39244.905    
    178500   311.10651      2748.4968     -39623.821     -39266.792    
    178600   319.52866      2679.4907     -39648.54      -39281.845    
    178700   288.47272      9229.0344     -39629.752     -39298.697    
    178800   293.48367      5383.4289     -39642.23      -39305.425    
    178900   317.52948      2288.0154     -39651.422     -39287.021    
    179000   331.10458      18561.125     -39624.724     -39244.744    
    179100   313.31721      6740.7288     -39598.587     -39239.021    
    179200   307.14756      20765.537     -39620.716     -39268.23     
    179300   321.89032      15470.455     -39661.773     -39292.367    
    179400   303.13168     -7552.3037     -39650.439     -39302.561    
    179500   289.25628      1971.7129     -39630.998     -39299.044    
    179600   301.40357     -12025.534     -39613.184     -39267.289    
    179700   332.46429     -3173.5349     -39636.663     -39255.123    
    179800   306.0641       1385.9962     -39632.548     -39281.305    
    179900   288.52141     -1645.856      -39624.268     -39293.158    
    180000   280.81359      1195.5688     -39620.356     -39298.091    
    180100   290.80921      3958.211      -39624.86      -39291.124    
    180200   311.19437     -2907.3907     -39625.887     -39268.756    
    180300   319.07944      20895.59      -39621         -39254.82     
    180400   299.84181      9634.7919     -39631.684     -39287.582    
    180500   299.32853      3151.8797     -39646.824     -39303.311    
    180600   283.83231     -1119.7562     -39629.766     -39304.037    
    180700   305.17605     -4559.8234     -39640.103     -39289.88     
    180800   323.6668      -1253.1286     -39629.039     -39257.595    
    180900   314.88969      20175.651     -39617.499     -39256.128    
    181000   303.24228      8059.6042     -39630.651     -39282.647    
    181100   294.78232      1221.1059     -39634.375     -39296.08     
    181200   299.51401     -2731.8255     -39634.386     -39290.661    
    181300   322.38388      349.93758     -39656.869     -39286.897    
    181400   275.99537     -5991.3873     -39616.234     -39299.498    
    181500   289.89006      9476.5357     -39651.306     -39318.625    
    181600   308.73657      4396.5138     -39677.119     -39322.809    
    181700   295.04612     -6001.3806     -39625.107     -39286.508    
    181800   313.91365      1487.1365     -39633.435     -39273.184    
    181900   311.11848      5162.2348     -39635.106     -39278.063    
    182000   293.59302      2935.3379     -39633.695     -39296.764    
    182100   275.26511      6086.2658     -39632.634     -39316.736    
    182200   308.29816      6166.3764     -39660.731     -39306.925    
    182300   300.31654      8312.111      -39634.7       -39290.053    
    182400   316.9349       18036.086     -39603.909     -39240.19     
    182500   321.06471      14835.885     -39611.852     -39243.394    
    182600   313.13538      1056.15       -39635.968     -39276.61     
    182700   300.56274     -3314.9617     -39640.713     -39295.784    
    182800   273.70981     -5524.2301     -39617.272     -39303.159    
    182900   292.69806      8683.5899     -39644.144     -39308.241    
    183000   299.36556      6435.1211     -39643.509     -39299.954    
    183100   319.46324      1076.8212     -39637.478     -39270.858    
    183200   318.95584     -1691.0032     -39625.592     -39259.554    
    183300   303.00919      3946.279      -39623.899     -39276.162    
    183400   292.07516      3756.6545     -39646.547     -39311.358    
    183500   288.95273      5555.1172     -39645.277     -39313.672    
    183600   294.84881     -7404.7488     -39641.27      -39302.898    
    183700   287.30984     -14742.563     -39624.447     -39294.727    
    183800   319.36809     -1155.1907     -39649.681     -39283.17     
    183900   310.58786      2687.463      -39635.026     -39278.592    
    184000   292.60379      361.46945     -39621.913     -39286.117    
    184100   298.53168      5858.2366     -39631.899     -39289.3      
    184200   298.99397      4827.1664     -39639.94      -39296.811    
    184300   288.31862     -452.5112      -39626.802     -39295.924    
    184400   301.24338     -6971.2986     -39634.591     -39288.88     
    184500   303.3689       18698.825     -39621.319     -39273.169    
    184600   312.53603      161.53019     -39629.571     -39270.901    
    184700   315.00429      9105.5905     -39650.196     -39288.693    
    184800   279.51861      8970.2598     -39635.302     -39314.523    
    184900   287.37733      8288.1872     -39647.308     -39317.51     
    185000   307.74214     -5758.0294     -39639.219     -39286.05     
    185100   307.04404     -7641.1879     -39616.601     -39264.234    
    185200   274.27999     -7102.2272     -39585.325     -39270.558    
    185300   293.76688      14462.256     -39630.426     -39293.296    
    185400   302.22018     -3804.4306     -39657.885     -39311.054    
    185500   273.95627      1758.8842     -39618.508     -39304.113    
    185600   294.67584     -165.34672     -39625.473     -39287.299    
    185700   307.03852     -396.18947     -39635.975     -39283.614    
    185800   284.61704      11533.774     -39611.484     -39284.854    
    185900   294.92929      12295.105     -39633.39      -39294.926    
    186000   280.29481      7064.5803     -39630.382     -39308.713    
    186100   287.24595      8767.9479     -39631.861     -39302.214    
    186200   322.28175      13226.324     -39641.833     -39271.979    
    186300   329.8512       10317.351     -39643.843     -39265.302    
    186400   297.82345      1091.5969     -39631.346     -39289.56     
    186500   276.26231      7443.0712     -39629.35      -39312.308    
    186600   294.94411      4556.2055     -39648.303     -39309.822    
    186700   304.20332     -1997.4779     -39651.543     -39302.435    
    186800   298.03734     -4390.6926     -39635.096     -39293.065    
    186900   305.17742      11433.782     -39633.258     -39283.032    
    187000   320.90054      3218.1113     -39622.976     -39254.706    
    187100   333.69568     -4834.6016     -39619.58      -39236.627    
    187200   305.30317      5182.505      -39622.564     -39272.195    
    187300   294.00891      8165.3277     -39627.77      -39290.361    
    187400   301.22464      7196.2456     -39641.283     -39295.594    
    187500   304.88567      4811.4606     -39648.692     -39298.802    
    187600   288.58298      3222.9697     -39632.441     -39301.26     
    187700   280.8228      -2890.9741     -39621.35      -39299.074    
    187800   314.07541      4258.9595     -39640.337     -39279.901    
    187900   307.66646      12586.457     -39621.253     -39268.172    
    188000   298.81976     -15137.036     -39629.973     -39287.044    
    188100   287.71059      15085.64      -39648.161     -39317.981    
    188200   298.62684     -4358.3163     -39656.059     -39313.351    
    188300   299.78004     -1175.9718     -39643.114     -39299.082    
    188400   324.93084     -11451.973     -39642.089     -39269.195    
    188500   314.5802       11375.4       -39628.23      -39267.214    
    188600   300.77084      8120.4815     -39623.948     -39278.78     
    188700   294.13964      651.91759     -39636.732     -39299.174    
    188800   294.02761      10341.546     -39644.124     -39306.695    
    188900   286.36358      21055.864     -39631.031     -39302.397    
    189000   322.0648       708.61973     -39641.608     -39272.002    
    189100   298.01885      5274.1602     -39600.638     -39258.628    
    189200   310.14086     -290.62518     -39629.652     -39273.731    
    189300   297.77463      2420.0322     -39655.281     -39313.552    
    189400   278.2207       786.83318     -39626.894     -39307.605    
    189500   282.49933      869.53651     -39609.874     -39285.674    
    189600   317.92794      960.58957     -39636.48      -39271.622    
    189700   298.32794     -2629.1202     -39629.689     -39287.324    
    189800   284.50368      6609.1419     -39644.338     -39317.838    
    189900   298.3681      -917.38009     -39660.846     -39318.435    
    190000   309.00086      6041.0252     -39662.838     -39308.225    
    190100   284.4412       6179.8347     -39623.076     -39296.648    
    190200   325.34064      2069.3288     -39638.324     -39264.959    
    190300   310.01651      6367.0834     -39619.618     -39263.84     
    190400   291.81219      374.33413     -39636.391     -39301.504    
    190500   284.6396       3488.6487     -39648.228     -39321.572    
    190600   290.3227       7420.5638     -39643.165     -39309.987    
    190700   300.23901      2175.3825     -39625.127     -39280.569    
    190800   313.07779      5113.8502     -39630.032     -39270.74     
    190900   324.20042     -1189.0834     -39668.825     -39296.768    
    191000   283.33279      14602.906     -39638.369     -39313.213    
    191100   282.22778      2710.1528     -39632.282     -39308.394    
    191200   306.46674      12766.791     -39651.448     -39299.743    
    191300   314.58841      5542.6288     -39650.882     -39289.857    
    191400   285.0037       7038.0358     -39628.526     -39301.453    
    191500   266.91895      11680.971     -39648.876     -39342.557    
    191600   299.36849     -779.01941     -39682.074     -39338.515    
    191700   285.58307     -4525.4014     -39640.646     -39312.908    
    191800   308.26819      67.138157     -39650.671     -39296.899    
    191900   304.72321      9716.1078     -39638.717     -39289.013    
    192000   302.42551      1343.5981     -39626.882     -39279.815    
    192100   309.45365     -703.74807     -39626.591     -39271.458    
    192200   300.01235      1071.4981     -39625.84      -39281.543    
    192300   298.2665       1376.5818     -39648.894     -39306.599    
    192400   275.63171     -1223.5442     -39629.761     -39313.443    
    192500   307.96786     -704.755       -39641.558     -39288.131    
    192600   312.86145      12383.951     -39624.94      -39265.896    
    192700   309.39584     -5089.8317     -39624.325     -39269.258    
    192800   293.71273     -7196.6456     -39621.351     -39284.283    
    192900   305.77026      5335.2701     -39647.885     -39296.979    
    193000   312.4752       2395.2948     -39660.774     -39302.174    
    193100   298.91878     -2396.513      -39642.301     -39299.258    
    193200   274.04117      4123.7204     -39604.178     -39289.685    
    193300   300.49798     -5559.1488     -39625.811     -39280.955    
    193400   318.74971      14328.162     -39630.481     -39264.68     
    193500   328.82651      12850.573     -39598.575     -39221.21     
    193600   317.37357      10710.389     -39608.514     -39244.292    
    193700   299.98287      1180.7483     -39619.206     -39274.942    
    193800   291.31763      4914.8061     -39627.4       -39293.08     
    193900   285.98846      1124.8261     -39628.175     -39299.971    
    194000   295.78878     -1047.5138     -39647.34      -39307.889    
    194100   305.49763     -4498.133      -39652.724     -39302.131    
    194200   305.06501     -5716.4656     -39624.368     -39274.272    
    194300   285.52296     -2443.8474     -39592.48      -39264.81     
    194400   306.89839      12776.967     -39634.561     -39282.361    
    194500   304.97315      18230.006     -39670.599     -39320.608    
    194600   280.9859       9385.377      -39646.232     -39323.769    
    194700   291.19541      21125.996     -39636.387     -39302.208    
    194800   306.02239      10448.692     -39630.752     -39279.557    
    194900   295.90737     -473.45314     -39620.896     -39281.309    
    195000   322.64686     -5463.2574     -39658.399     -39288.126    
    195100   296.27931      2511.6447     -39644.939     -39304.925    
    195200   280.27749      13509.089     -39662.736     -39341.086    
    195300   279.49386      19762.432     -39658.618     -39337.867    
    195400   305.89209      3847.8973     -39660.287     -39309.242    
    195500   297.55906     -6122.7215     -39644.206     -39302.724    
    195600   321.03607      3687.3423     -39658.256     -39289.831    
    195700   295.25787      9278.2162     -39620.459     -39281.618    
    195800   301.24891      5836.2919     -39604.165     -39258.448    
    195900   316.05425      8261.8424     -39612.942     -39250.235    
    196000   299.72721      10269.125     -39632.235     -39288.264    
    196100   293.31042      549.72522     -39638.821     -39302.214    
    196200   298.18767      2806.9031     -39643.828     -39301.624    
    196300   312.78764      8089.1057     -39655.209     -39296.25     
    196400   305.46269      1524.9359     -39623.217     -39272.664    
    196500   295.52818      4815.2083     -39588.11      -39248.958    
    196600   309.22867      3997.9108     -39618.83      -39263.956    
    196700   299.7294      -15647.577     -39637.665     -39293.692    
    196800   295.94134      2931.4858     -39639.64      -39300.014    
    196900   298.15163      17629.484     -39639.027     -39296.865    
    197000   318.30389      11889.606     -39635.204     -39269.914    
    197100   310.79343      5143.4845     -39613.636     -39256.966    
    197200   301.31276     -5458.0611     -39617.427     -39271.637    
    197300   298.98659      14009.175     -39625.088     -39281.967    
    197400   302.61675      3072.7148     -39626.632     -39279.345    
    197500   310.34097      14641.989     -39629.055     -39272.904    
    197600   282.50638      5785.8935     -39618.543     -39294.336    
    197700   287.11104     -11453.776     -39647.022     -39317.53     
    197800   279.38421     -4321.0081     -39625.106     -39304.482    
    197900   301.39825     -3964.8172     -39618.537     -39272.649    
    198000   309.93688     -8644.3659     -39625.367     -39269.68     
    198100   310.56474      9725.722      -39632.221     -39275.814    
    198200   288.23684      6524.4344     -39622.306     -39291.522    
    198300   285.72732      7691.7897     -39638.973     -39311.069    
    198400   287.28107     -10915.926     -39669.726     -39340.039    
    198500   270.77779      11464.731     -39642.418     -39331.67     
    198600   308.21207      3909.0921     -39644.854     -39291.146    
    198700   300.26109      4075.6983     -39629.693     -39285.11     
    198800   309.27117     -790.08919     -39632.233     -39277.31     
    198900   282.09374     -1289.4872     -39612.359     -39288.624    
    199000   281.13906      220.2863      -39626.448     -39303.81     
    199100   300.2517      -5657.6284     -39660.226     -39315.654    
    199200   281.04513      8321.8143     -39626.062     -39303.532    
    199300   308.53448      6716.2518     -39627.016     -39272.938    
    199400   321.03429      5339.2726     -39629.191     -39260.768    
    199500   294.05934     -9915.8565     -39607.372     -39269.906    
    199600   284.748       -4588.3918     -39632.35      -39305.569    
    199700   290.55717      5729.0073     -39650.838     -39317.391    
    199800   297.22776      10404.26      -39640.426     -39299.324    
    199900   289.02307      1637.8736     -39617.335     -39285.649    
    200000   308.49374      1365.3122     -39631.172     -39277.141    
Loop time of 18211.7 on 8 procs for 200000 steps with 386 atoms

Performance: 0.474 ns/day, 50.588 hours/ns, 10.982 timesteps/s, 4.239 katom-step/s
84.9% CPU use with 4 MPI tasks x 2 OpenMP threads

MPI task timing breakdown:
Section |  min time  |  avg time  |  max time  |%varavg| %total
---------------------------------------------------------------
Pair    | 11427      | 11482      | 11565      |  53.8 | 63.05
Bond    | 0.67812    | 0.72059    | 0.76187    |   3.5 |  0.00
Neigh   | 141.4      | 143.5      | 147.16     |  18.7 |  0.79
Comm    | 3842.1     | 3921.1     | 3980.9     |  93.1 | 21.53
Output  | 6.638      | 8.6904     | 11.537     |  68.2 |  0.05
Modify  | 2619.6     | 2627.7     | 2634.5     |  11.8 | 14.43
Other   |            | 28.11      |            |       |  0.15

Nlocal:           96.5 ave         102 max          93 min
Histogram: 1 0 1 1 0 0 0 0 0 1
Nghost:         4184.5 ave        4235 max        4132 min
Histogram: 1 0 0 1 0 0 1 0 0 1
Neighs:          64236 ave       67651 max       62197 min
Histogram: 1 0 2 0 0 0 0 0 0 1

Total # of neighbors = 256944
Ave neighs/atom = 665.65803
Ave special neighs/atom = 0
Neighbor list builds = 3082
Dangerous builds = 0
# Save the equilibrated structure
write_data ${structure}_eq.data
write_data 333U-50C-48_eq.data
System init for write_data ...
WARNING: Compute rdf cutoff less than neighbor cutoff - forcing a needless neighbor list build (src/compute_rdf.cpp:179)
undump dump_eq
unfix myMSD
unfix myRDF
Total wall time: 5:03:38
