LAMMPS (2 Aug 2023 - Update 2)
  using 6 OpenMP thread(s) per MPI task
Reading data file ...
  triclinic box = (0 0 0) to (14.6913 12.723 15.9631) with tilt (-7.3456 0 0)
WARNING: Triclinic box skew is large. LAMMPS will run inefficiently. (src/domain.cpp:220)
  1 by 1 by 2 MPI processor grid
  reading atoms ...
  243 atoms
Finding 1-2 1-3 1-4 neighbors ...
  special bond factors lj:    0        0        0       
  special bond factors coul:  0        0        0       
     0 = max # of 1-2 neighbors
     0 = max # of 1-3 neighbors
     0 = max # of 1-4 neighbors
     1 = max # of special neighbors
  special bonds CPU = 0.000 seconds
  read_data CPU = 0.008 seconds
WARNING: Van der Waals parameters for element SI indicate inner wall+shielding, but earlier atoms indicate a different van der Waals method. This may cause division-by-zero errors. Keeping van der Waals setting for earlier atoms. (src/REAXFF/reaxff_ffield.cpp:251)
WARNING: Van der Waals parameters for element AL indicate inner wall+shielding, but earlier atoms indicate a different van der Waals method. This may cause division-by-zero errors. Keeping van der Waals setting for earlier atoms. (src/REAXFF/reaxff_ffield.cpp:251)
WARNING: Changed valency_val to valency_boc for X (src/REAXFF/reaxff_ffield.cpp:296)

CITE-CITE-CITE-CITE-CITE-CITE-CITE-CITE-CITE-CITE-CITE-CITE-CITE

Your simulation uses code contributions which should be cited:
- pair reaxff command: doi:10.1016/j.parco.2011.08.005
- fix qeq/reaxff command: doi:10.1016/j.parco.2011.08.005
The log file lists these citations in BibTeX format.

CITE-CITE-CITE-CITE-CITE-CITE-CITE-CITE-CITE-CITE-CITE-CITE-CITE

Neighbor list info ...
  update: every = 10 steps, delay = 0 steps, check = yes
  max neighbors/atom: 2000, page size: 100000
  master list distance cutoff = 12
  ghost atom cutoff = 12
  binsize = 6, bins = 4 3 3
  2 neighbor lists, perpetual/occasional/extra = 2 0 0
  (1) pair reaxff, perpetual
      attributes: half, newton off, ghost
      pair build: half/bin/newtoff/ghost
      stencil: full/ghost/bin/3d
      bin: standard
  (2) fix qeq/reaxff, perpetual, copy from (1)
      attributes: half, newton off
      pair build: copy
      stencil: none
      bin: none
Setting up Verlet run ...
  Unit style    : real
  Current step  : 0
  Time step     : 0.5
Per MPI rank memory allocation (min/avg/max) = 161.9 | 161.9 | 162 Mbytes
   Step          Temp          Press         Density         Volume         PotEng         TotEng    
         0   300            21554.574      2.8878482      2983.7813     -36881.566     -36665.159    
       100   151.59702     -27189.659      2.7755857      3104.4645     -36737.727     -36628.372    
       200   219.71574      26345.595      2.9022201      2969.0055     -36766.953     -36608.46     
       300   267.95665     -8057.2832      2.799834       3077.578      -36744.55      -36551.258    
       400   289.12643     -3517.853       2.8016692      3075.562      -36711.417     -36502.854    
       500   332.24244      8152.6397      2.8115777      3064.7232     -36711.834     -36472.168    
       600   307.38849     -12586.923      2.7756511      3104.3914     -36689.537     -36467.8      
       700   304.4875       19549.972      2.8528301      3020.4068     -36710.201     -36490.557    
       800   267.32864     -17673.432      2.7777996      3101.9903     -36690.844     -36498.005    
       900   303.75502      18764.798      2.8511         3022.2396     -36726.456     -36507.341    
      1000   293.55997     -16514.752      2.7730449      3107.309      -36702.143     -36490.382    
      1100   308.26105      8407.1352      2.854507       3018.6324     -36705.717     -36483.351    
      1200   320.7489      -5637.4159      2.8017563      3075.4665     -36703.298     -36471.924    
      1300   291.91064      10204.819      2.8309855      3043.713      -36691.972     -36481.4      
      1400   285.64941     -3241.7992      2.7869449      3091.8112     -36706.53      -36500.475    
      1500   306.96751      1455.0833      2.8273403      3047.6371     -36731.272     -36509.839    
      1600   278.24941     -97.1679        2.8164723      3059.3972     -36703.187     -36502.47     
      1700   319.67048     -3991.5665      2.8161405      3059.7577     -36705.566     -36474.97     
      1800   322.54862      3958.5224      2.8156755      3060.2629     -36708.32      -36475.647    
      1900   309.44333      4220.7324      2.8114741      3064.8361     -36707.424     -36484.205    
      2000   296.39125      451.10737      2.8151452      3060.8394     -36705.854     -36492.051    
      2100   310.6364      -7494.0371      2.8040263      3072.9766     -36714.742     -36490.662    
      2200   299.72641      6458.9189      2.837354       3036.8813     -36710.899     -36494.69     
      2300   303.87561     -7277.1259      2.8015343      3075.7101     -36713.277     -36494.074    
      2400   289.02582      3086.7034      2.8227203      3052.6253     -36705.431     -36496.941    
      2500   282.28565     -9323.8613      2.7886786      3089.8891     -36700.1       -36496.472    
      2600   290.97094      6804.575       2.833007       3041.5411     -36704.163     -36494.269    
      2700   285.05217     -6861.4718      2.8018834      3075.3269     -36692.037     -36486.413    
      2800   317.83008      6315.4058      2.8325027      3042.0826     -36700.396     -36471.128    
      2900   319.78846     -3858.2803      2.8006838      3076.6442     -36687.616     -36456.935    
      3000   314.96123      593.78914      2.8129641      3063.2127     -36707.398     -36480.199    
      3100   288.88595      1878.6919      2.7998834      3077.5236     -36713.73      -36505.34     
      3200   294.44087     -4816.7693      2.7970579      3080.6325     -36717.001     -36504.604    
      3300   309.76938     -2292.9107      2.8159805      3059.9314     -36720.228     -36496.774    
      3400   305.81736     -619.85118      2.8250185      3050.142      -36698.087     -36477.483    
      3500   349.51712      9769.0977      2.8418551      3032.0713     -36711.852     -36459.725    
      3600   320.8907      -8543.5208      2.7808647      3098.5713     -36704.194     -36472.718    
      3700   312.3048      -501.20321      2.7976589      3079.9707     -36715.176     -36489.893    
      3800   287.85144      987.59949      2.788238       3090.3772     -36703.248     -36495.605    
      3900   300.71681      4135.276       2.8191132      3056.5312     -36712.699     -36495.776    
      4000   298.61409     -5691.767       2.8104533      3065.9493     -36715.02      -36499.613    
      4100   298.11308     -1970.9237      2.8220018      3053.4026     -36726.002     -36510.957    
      4200   282.71556     -788.72318      2.8153133      3060.6567     -36724.494     -36520.555    
      4300   311.84493      1855.3748      2.8258353      3049.2603     -36719.619     -36494.667    
      4400   304.68789     -7488.1268      2.8084093      3068.1808     -36700.838     -36481.049    
      4500   321.70617     -774.65371      2.8102675      3066.152      -36714.496     -36482.431    
      4600   299.79161     -1476.3316      2.8000221      3077.3712     -36719.583     -36503.327    
      4700   297.42404      1599.8842      2.820531       3054.9947     -36734.614     -36520.065    
      4800   282.12231     -3814.0383      2.8288216      3046.0413     -36712.842     -36509.331    
      4900   292.50315      1356.7266      2.8212429      3054.2238     -36713.4       -36502.401    
      5000   300.3932       1143.0115      2.8091351      3067.3881     -36709.342     -36492.651    
Loop time of 138.596 on 12 procs for 5000 steps with 243 atoms

Performance: 1.558 ns/day, 15.400 hours/ns, 36.076 timesteps/s, 8.767 katom-step/s
98.4% CPU use with 2 MPI tasks x 6 OpenMP threads

MPI task timing breakdown:
Section |  min time  |  avg time  |  max time  |%varavg| %total
---------------------------------------------------------------
Pair    | 116.3      | 118.21     | 120.11     |  17.5 | 85.29
Bond    | 0.0082999  | 0.0088533  | 0.0094067  |   0.6 |  0.01
Neigh   | 0          | 0          | 0          |   0.0 |  0.00
Comm    | 0.56465    | 2.4675     | 4.3704     | 121.1 |  1.78
Output  | 0.0019062  | 0.0029674  | 0.0040286  |   1.9 |  0.00
Modify  | 17.849     | 17.849     | 17.849     |   0.0 | 12.88
Other   |            | 0.05844    |            |       |  0.04

Nlocal:          121.5 ave         126 max         117 min
Histogram: 1 0 0 0 0 0 0 0 0 1
Nghost:         3928.5 ave        3933 max        3924 min
Histogram: 1 0 0 0 0 0 0 0 0 1
Neighs:          66020 ave       68259 max       63781 min
Histogram: 1 0 0 0 0 0 0 0 0 1

Total # of neighbors = 132040
Ave neighs/atom = 543.37449
Ave special neighs/atom = 0
Neighbor list builds = 0
Dangerous builds = 0
Setting up Verlet run ...
  Unit style    : real
  Current step  : 5000
  Time step     : 0.5
Per MPI rank memory allocation (min/avg/max) = 161.9 | 161.9 | 161.9 Mbytes
   Step          Temp          Press         Density         Volume         PotEng         TotEng    
      5000   300.3932       1142.7409      2.8091351      3067.3881     -36709.342     -36492.651    
      5100   298.77432     -2078.6047      2.7908463      3087.489      -36700.006     -36484.484    
      5200   286.6708       1449.5007      2.8208055      3054.6974     -36687.717     -36480.926    
      5300   307.7548      -6077.0553      2.8090448      3067.4866     -36699.059     -36477.058    
      5400   300.35524      7394.6285      2.8280528      3046.8694     -36708.196     -36491.533    
      5500   280.24196     -850.84726      2.803598       3073.4461     -36709.614     -36507.459    
      5600   297.10673      2305.437       2.8172805      3058.5195     -36725.753     -36511.433    
      5700   290.94038     -369.92413      2.8062605      3070.5301     -36708.576     -36498.704    
      5800   315.33381      1103.6068      2.8223585      3053.0166     -36696.376     -36468.908    
      5900   309.73427     -4038.7933      2.8051969      3071.6943     -36693.462     -36470.033    
      6000   300.2747      -342.97697      2.8137566      3062.35       -36708.081     -36491.476    
Loop time of 27.1832 on 12 procs for 1000 steps with 243 atoms

Performance: 1.589 ns/day, 15.102 hours/ns, 36.787 timesteps/s, 8.939 katom-step/s
98.7% CPU use with 2 MPI tasks x 6 OpenMP threads

MPI task timing breakdown:
Section |  min time  |  avg time  |  max time  |%varavg| %total
---------------------------------------------------------------
Pair    | 23.343     | 23.487     | 23.631     |   3.0 | 86.40
Bond    | 0.0016665  | 0.0017462  | 0.0018259  |   0.2 |  0.01
Neigh   | 0          | 0          | 0          |   0.0 |  0.00
Comm    | 0.11096    | 0.25496    | 0.39896    |  28.5 |  0.94
Output  | 0.00033831 | 0.00054529 | 0.00075226 |   0.0 |  0.00
Modify  | 3.4274     | 3.4274     | 3.4274     |   0.0 | 12.61
Other   |            | 0.01173    |            |       |  0.04

Nlocal:          121.5 ave         122 max         121 min
Histogram: 1 0 0 0 0 0 0 0 0 1
Nghost:         3919.5 ave        3929 max        3910 min
Histogram: 1 0 0 0 0 0 0 0 0 1
Neighs:        64283.5 ave       64532 max       64035 min
Histogram: 1 0 0 0 0 0 0 0 0 1

Total # of neighbors = 128567
Ave neighs/atom = 529.0823
Ave special neighs/atom = 0
Neighbor list builds = 0
Dangerous builds = 0
  using 6 OpenMP thread(s) per MPI task
Reading data file ...
  triclinic box = (0 0 0) to (14.6913 12.723 15.9631) with tilt (-7.3456 0 0)
WARNING: Triclinic box skew is large. LAMMPS will run inefficiently. (src/domain.cpp:220)
  1 by 1 by 2 MPI processor grid
  reading atoms ...
  243 atoms
Finding 1-2 1-3 1-4 neighbors ...
  special bond factors lj:    0        0        0       
  special bond factors coul:  0        0        0       
     0 = max # of 1-2 neighbors
     0 = max # of 1-3 neighbors
     0 = max # of 1-4 neighbors
     1 = max # of special neighbors
  special bonds CPU = 0.000 seconds
  read_data CPU = 0.003 seconds
WARNING: Van der Waals parameters for element SI indicate inner wall+shielding, but earlier atoms indicate a different van der Waals method. This may cause division-by-zero errors. Keeping van der Waals setting for earlier atoms. (src/REAXFF/reaxff_ffield.cpp:251)
WARNING: Van der Waals parameters for element AL indicate inner wall+shielding, but earlier atoms indicate a different van der Waals method. This may cause division-by-zero errors. Keeping van der Waals setting for earlier atoms. (src/REAXFF/reaxff_ffield.cpp:251)
WARNING: Changed valency_val to valency_boc for X (src/REAXFF/reaxff_ffield.cpp:296)
Neighbor list info ...
  update: every = 10 steps, delay = 0 steps, check = yes
  max neighbors/atom: 2000, page size: 100000
  master list distance cutoff = 12
  ghost atom cutoff = 12
  binsize = 6, bins = 4 3 3
  2 neighbor lists, perpetual/occasional/extra = 2 0 0
  (1) pair reaxff, perpetual
      attributes: half, newton off, ghost
      pair build: half/bin/newtoff/ghost
      stencil: full/ghost/bin/3d
      bin: standard
  (2) fix qeq/reaxff, perpetual, copy from (1)
      attributes: half, newton off
      pair build: copy
      stencil: none
      bin: none
Setting up Verlet run ...
  Unit style    : real
  Current step  : 0
  Time step     : 0.5
Per MPI rank memory allocation (min/avg/max) = 161.9 | 161.9 | 162 Mbytes
   Step          Temp          Press         Density         Volume         PotEng         TotEng    
         0   400            22659.71       2.8878482      2983.7813     -36881.566     -36593.024    
       100   197.80127     -27439.957      2.7708403      3109.7813     -36686.356     -36543.671    
       200   299.3263       37979.914      2.894301       2977.129      -36726.507     -36510.586    
       300   334.97622     -12310.588      2.7577281      3124.5675     -36677.222     -36435.585    
       400   399.43667     -2555.2005      2.7796744      3099.898      -36658.043     -36369.907    
       500   450.07352      583.1953       2.7813913      3097.9845     -36645.986     -36321.323    
       600   439.46118     -1995.187       2.7796129      3099.9667     -36626.952     -36309.944    
       700   430.36738      9500.7204      2.8347216      3039.7015     -36643.934     -36333.486    
       800   368.10531     -19418.599      2.7618116      3119.9475     -36620.78      -36355.245    
       900   384.10663      22888.353      2.831587       3043.0665     -36647.977     -36370.899    
      1000   389.99247     -14468.025      2.7381909      3146.8615     -36642.954     -36361.631    
      1100   412.85864      6461.1494      2.8060643      3070.7448     -36639.813     -36341.995    
      1200   402.79153     -13061.544      2.7772873      3102.5625     -36614.569     -36324.013    
      1300   381.26992      3035.9547      2.7973685      3080.2904     -36608.394     -36333.363    
      1400   420.32073     -1572.0289      2.7947596      3083.1658     -36657.28      -36354.079    
      1500   376.58208     -5484.2458      2.7849426      3094.0341     -36643.055     -36371.406    
      1600   372.21801      4892.4611      2.7966625      3081.068      -36630.501     -36362        
      1700   404.11543     -5475.2177      2.7776785      3102.1255     -36625.298     -36333.787    
      1800   422.35648      7749.4543      2.8145237      3061.5153     -36621.608     -36316.939    
      1900   421.85743     -2012.655       2.7868919      3091.8699     -36633.97      -36329.66     
      2000   392.81968     -1731.1028      2.7905064      3087.8651     -36657.565     -36374.202    
      2100   363.6685       5791.7658      2.7919825      3086.2326     -36629.389     -36367.055    
      2200   431.75452     -8541.084       2.7650246      3116.3221     -36646.096     -36334.647    
      2300   457.18655      2491.1681      2.8163808      3059.4966     -36654.907     -36325.112    
      2400   403.23913     -8131.4403      2.8014317      3075.8227     -36635.127     -36344.248    
      2500   388.75726      10988.626      2.8276789      3047.2723     -36653.711     -36373.279    
      2600   364.32091     -11003.805      2.7616966      3120.0774     -36629.211     -36366.406    
      2700   432.44545      5202.0787      2.7961231      3081.6624     -36629.547     -36317.6      
      2800   418.07344     -5071.471       2.7726778      3107.7204     -36618.464     -36316.884    
      2900   413.70755      7751.5305      2.8058573      3070.9713     -36640.239     -36341.809    
      3000   392.98212     -7206.1007      2.7899898      3088.4369     -36639.792     -36356.312    
      3100   375.80863     -3262.8761      2.798191       3079.385      -36644.998     -36373.906    
      3200   368.35638      6653.1343      2.8112697      3065.059      -36662.161     -36396.445    
      3300   343.32866     -3840.7821      2.7915786      3086.6791     -36653.463     -36405.801    
      3400   389.22495      1188.1962      2.8162078      3059.6845     -36649.085     -36368.315    
      3500   410.55454     -4001.013       2.8050922      3071.8089     -36642.707     -36346.551    
      3600   403.92504      3226.2514      2.8141543      3061.9172     -36631.548     -36340.174    
      3700   417.61982     -6743.5853      2.7633352      3118.2273     -36637.339     -36336.087    
      3800   398.10357     -6921.5977      2.7621863      3119.5244     -36643.98      -36356.806    
      3900   372.8621       8645.8538      2.796812       3080.9033     -36645.627     -36376.661    
      4000   409.38152     -798.35335      2.7905442      3087.8233     -36647.917     -36352.607    
      4100   408.19476      640.60243      2.8037178      3073.3148     -36615.932     -36321.478    
      4200   440.00717      2510.4747      2.8131042      3063.0601     -36644.396     -36326.994    
      4300   403.71498      3536.3796      2.8026885      3074.4435     -36630.186     -36338.963    
      4400   393.17893     -915.45299      2.7847493      3094.2488     -36627.023     -36343.401    
      4500   393.06774     -7281.6479      2.7645592      3116.8468     -36630.064     -36346.522    
      4600   378.91552      3454.1196      2.7972131      3080.4616     -36638.234     -36364.901    
      4700   364.81467     -4074.4919      2.7949081      3083.002      -36644.622     -36381.461    
      4800   386.96084      6682.9947      2.8198215      3055.7634     -36649.686     -36370.549    
      4900   404.25307     -2354.4353      2.8029656      3074.1395     -36623.466     -36331.855    
      5000   443.80566      1274.6854      2.7866831      3092.1016     -36644.939     -36324.797    
Loop time of 137.344 on 12 procs for 5000 steps with 243 atoms

Performance: 1.573 ns/day, 15.260 hours/ns, 36.405 timesteps/s, 8.846 katom-step/s
98.4% CPU use with 2 MPI tasks x 6 OpenMP threads

MPI task timing breakdown:
Section |  min time  |  avg time  |  max time  |%varavg| %total
---------------------------------------------------------------
Pair    | 115.71     | 117.45     | 119.19     |  16.0 | 85.52
Bond    | 0.00762    | 0.0082201  | 0.0088202  |   0.7 |  0.01
Neigh   | 0          | 0          | 0          |   0.0 |  0.00
Comm    | 0.52064    | 2.255      | 3.9893     | 115.5 |  1.64
Output  | 0.0017601  | 0.0027705  | 0.003781   |   1.9 |  0.00
Modify  | 17.566     | 17.568     | 17.57      |   0.0 | 12.79
Other   |            | 0.05716    |            |       |  0.04

Nlocal:          121.5 ave         126 max         117 min
Histogram: 1 0 0 0 0 0 0 0 0 1
Nghost:         3928.5 ave        3933 max        3924 min
Histogram: 1 0 0 0 0 0 0 0 0 1
Neighs:          66020 ave       68259 max       63781 min
Histogram: 1 0 0 0 0 0 0 0 0 1

Total # of neighbors = 132040
Ave neighs/atom = 543.37449
Ave special neighs/atom = 0
Neighbor list builds = 0
Dangerous builds = 0
Setting up Verlet run ...
  Unit style    : real
  Current step  : 5000
  Time step     : 0.5
Per MPI rank memory allocation (min/avg/max) = 161.8 | 161.9 | 161.9 Mbytes
   Step          Temp          Press         Density         Volume         PotEng         TotEng    
      5000   443.80566      1271.4165      2.7866831      3092.1016     -36644.94      -36324.798    
      5100   396.65601     -3854.5291      2.7788063      3100.8664     -36627.522     -36341.392    
      5200   392.87103     -5264.3374      2.7809625      3098.4623     -36639.152     -36355.752    
      5300   368.52839      461.65331      2.7864579      3092.3515     -36627.933     -36362.093    
      5400   415.88087     -5701.8657      2.7773936      3102.4438     -36638.877     -36338.878    
      5500   427.03184      5918.1199      2.8098701      3066.5857     -36629.507     -36321.465    
      5600   401.31385      1657.0133      2.8077166      3068.9377     -36627.222     -36337.732    
      5700   413.59297      2423.481       2.8029671      3074.1379     -36664.708     -36366.361    
      5800   391.57549     -5552.9869      2.7739025      3106.3483     -36645.323     -36362.858    
      5900   411.63486      1370.1041      2.7879028      3090.7488     -36636.673     -36339.738    
      6000   396.55974     -2757.1315      2.7954335      3082.4226     -36590.957     -36304.896    
Loop time of 26.7436 on 12 procs for 1000 steps with 243 atoms

Performance: 1.615 ns/day, 14.858 hours/ns, 37.392 timesteps/s, 9.086 katom-step/s
98.7% CPU use with 2 MPI tasks x 6 OpenMP threads

MPI task timing breakdown:
Section |  min time  |  avg time  |  max time  |%varavg| %total
---------------------------------------------------------------
Pair    | 23.135     | 23.248     | 23.361     |   2.3 | 86.93
Bond    | 0.0015517  | 0.0016636  | 0.0017754  |   0.3 |  0.01
Neigh   | 0          | 0          | 0          |   0.0 |  0.00
Comm    | 0.1053     | 0.21762    | 0.32995    |  24.1 |  0.81
Output  | 0.00032546 | 0.00053289 | 0.00074032 |   0.0 |  0.00
Modify  | 3.2642     | 3.2644     | 3.2647     |   0.0 | 12.21
Other   |            | 0.01146    |            |       |  0.04

Nlocal:          121.5 ave         123 max         120 min
Histogram: 1 0 0 0 0 0 0 0 0 1
Nghost:           3912 ave        3918 max        3906 min
Histogram: 1 0 0 0 0 0 0 0 0 1
Neighs:          63790 ave       64534 max       63046 min
Histogram: 1 0 0 0 0 0 0 0 0 1

Total # of neighbors = 127580
Ave neighs/atom = 525.02058
Ave special neighs/atom = 0
Neighbor list builds = 0
Dangerous builds = 0
  using 6 OpenMP thread(s) per MPI task
Reading data file ...
  triclinic box = (0 0 0) to (14.6913 12.723 15.9631) with tilt (-7.3456 0 0)
WARNING: Triclinic box skew is large. LAMMPS will run inefficiently. (src/domain.cpp:220)
  1 by 1 by 2 MPI processor grid
  reading atoms ...
  243 atoms
Finding 1-2 1-3 1-4 neighbors ...
  special bond factors lj:    0        0        0       
  special bond factors coul:  0        0        0       
     0 = max # of 1-2 neighbors
     0 = max # of 1-3 neighbors
     0 = max # of 1-4 neighbors
     1 = max # of special neighbors
  special bonds CPU = 0.000 seconds
  read_data CPU = 0.002 seconds
WARNING: Van der Waals parameters for element SI indicate inner wall+shielding, but earlier atoms indicate a different van der Waals method. This may cause division-by-zero errors. Keeping van der Waals setting for earlier atoms. (src/REAXFF/reaxff_ffield.cpp:251)
WARNING: Van der Waals parameters for element AL indicate inner wall+shielding, but earlier atoms indicate a different van der Waals method. This may cause division-by-zero errors. Keeping van der Waals setting for earlier atoms. (src/REAXFF/reaxff_ffield.cpp:251)
WARNING: Changed valency_val to valency_boc for X (src/REAXFF/reaxff_ffield.cpp:296)
Neighbor list info ...
  update: every = 10 steps, delay = 0 steps, check = yes
  max neighbors/atom: 2000, page size: 100000
  master list distance cutoff = 12
  ghost atom cutoff = 12
  binsize = 6, bins = 4 3 3
  2 neighbor lists, perpetual/occasional/extra = 2 0 0
  (1) pair reaxff, perpetual
      attributes: half, newton off, ghost
      pair build: half/bin/newtoff/ghost
      stencil: full/ghost/bin/3d
      bin: standard
  (2) fix qeq/reaxff, perpetual, copy from (1)
      attributes: half, newton off
      pair build: copy
      stencil: none
      bin: none
Setting up Verlet run ...
  Unit style    : real
  Current step  : 0
  Time step     : 0.5
Per MPI rank memory allocation (min/avg/max) = 161.9 | 161.9 | 162 Mbytes
   Step          Temp          Press         Density         Volume         PotEng         TotEng    
         0   500            23764.845      2.8878482      2983.7813     -36881.566     -36520.888    
       100   240.32424     -30166.627      2.7729019      3107.4692     -36635.839     -36462.48     
       200   370.11189      34092.278      2.8730134      2999.1881     -36679.852     -36412.87     
       300   403.13982     -9209.2249      2.7391569      3145.7516     -36618.62      -36327.813    
       400   492.21031     -3718.5246      2.7330911      3152.7333     -36592.989     -36237.93     
       500   508.3198       9338.176       2.764197       3117.2551     -36538.837     -36172.158    
       600   571.74749     -12485.152      2.7297022      3156.6474     -36556.95      -36144.516    
       700   521.61997      10598.738      2.8219852      3053.4205     -36556.151     -36179.878    
       800   500.30522     -7497.8161      2.7655221      3115.7615     -36589.08      -36228.181    
       900   493.13114      2999.4471      2.7745671      3105.6043     -36593.329     -36237.606    
      1000   499.15444      2439.9408      2.7611307      3120.7169     -36589.52      -36229.452    
      1100   495.86019     -12702.793      2.71291        3176.1863     -36546.895     -36189.203    
      1200   532.27843      16977.469      2.7866913      3092.0925     -36546.093     -36162.131    
      1300   537.08639     -11876.634      2.7592776      3122.8128     -36550.28      -36162.849    
      1400   485.06312     -2019.9511      2.7846592      3094.349      -36548.759     -36198.856    
      1500   484.3289       1951.8221      2.7769524      3102.9367     -36582.392     -36233.018    
      1600   461.48311     -1976.0212      2.7713347      3109.2266     -36572.413     -36239.519    
      1700   455.98323     -2164.0638      2.7726973      3107.6985     -36534.492     -36205.566    
      1800   509.79404     -5906.0701      2.7678641      3113.1252     -36548.037     -36180.294    
      1900   509.86928      13612.493      2.7910231      3087.2934     -36552.044     -36184.247    
      2000   542.72111     -4328.1917      2.7603153      3121.6388     -36589.774     -36198.279    
      2100   487.40314     -5922.7441      2.7601269      3121.8519     -36571.241     -36219.65     
      2200   509.99708      6511.5714      2.7795944      3099.9873     -36585.22      -36217.331    
      2300   494.43419     -3894.0907      2.7543001      3128.4562     -36545.768     -36189.104    
      2400   526.6892       5489.6314      2.7873579      3091.353      -36549.898     -36169.968    
      2500   516.51105     -4992.044       2.7781358      3101.6149     -36559.809     -36187.22     
      2600   454.63864      11917.706      2.8029493      3074.1575     -36552.639     -36224.683    
      2700   498.22018      4141.7576      2.770853       3109.7671     -36582.111     -36222.717    
      2800   514.67734     -3284.7114      2.7530079      3129.9246     -36563.35      -36192.084    
      2900   551.37714      6.392823       2.7643699      3117.0602     -36542.302     -36144.562    
      3000   483.63188      1249.0885      2.764752       3116.6294     -36508.418     -36159.547    
      3100   518.11104      10664.142      2.7826392      3096.5952     -36548.788     -36175.046    
      3200   497.64684     -3960.3563      2.7569204      3125.4828     -36549.716     -36190.735    
      3300   485.09998     -4346.853       2.7561633      3126.3414     -36560.008     -36210.078    
      3400   456.88797      7631.8451      2.7750108      3105.1077     -36569.224     -36239.645    
      3500   464.26184     -4130.1761      2.7540295      3128.7636     -36564.535     -36229.637    
      3600   546.83398      359.97957      2.7608142      3121.0746     -36574.656     -36180.194    
      3700   519.00473     -1432.8555      2.752467       3130.5397     -36549.715     -36175.328    
      3800   486.80625      9017.9235      2.7808207      3098.6203     -36541.989     -36190.829    
      3900   497.98548     -8724.8429      2.7568715      3125.5383     -36562.729     -36203.504    
      4000   446.65949     -423.48812      2.7712421      3109.3305     -36569.468     -36247.267    
      4100   458.04801      4197.7763      2.7967368      3080.9861     -36594.285     -36263.869    
      4200   469.31442     -6113.0398      2.8005428      3076.799      -36562.784     -36224.241    
      4300   524.02923      3951.3542      2.8032942      3073.7792     -36568.914     -36190.902    
      4400   514.2212       93.197575      2.7655758      3115.701      -36571.336     -36200.399    
      4500   483.46665     -847.34568      2.7404837      3144.2286     -36562.242     -36213.49     
      4600   457.47661      1726.3894      2.7394682      3145.3942     -36545.896     -36215.893    
      4700   542.6155      -3774.1727      2.7488868      3134.617      -36571.084     -36179.665    
      4800   531.88011      8407.1317      2.7880695      3090.564      -36542.21      -36158.535    
      4900   529.17898     -6261.1564      2.7613922      3120.4214     -36560.842     -36179.115    
      5000   511.58276      39.071644      2.7782833      3101.4502     -36586.044     -36217.01     
Loop time of 132.835 on 12 procs for 5000 steps with 243 atoms

Performance: 1.626 ns/day, 14.759 hours/ns, 37.641 timesteps/s, 9.147 katom-step/s
98.6% CPU use with 2 MPI tasks x 6 OpenMP threads

MPI task timing breakdown:
Section |  min time  |  avg time  |  max time  |%varavg| %total
---------------------------------------------------------------
Pair    | 113.73     | 114.73     | 115.73     |   9.4 | 86.37
Bond    | 0.0085153  | 0.008657   | 0.0087987  |   0.2 |  0.01
Neigh   | 0.063277   | 0.064163   | 0.065049   |   0.3 |  0.05
Comm    | 0.51912    | 1.5212     | 2.5233     |  81.2 |  1.15
Output  | 0.0017364  | 0.0027482  | 0.00376    |   1.9 |  0.00
Modify  | 16.454     | 16.454     | 16.454     |   0.0 | 12.39
Other   |            | 0.05682    |            |       |  0.04

Nlocal:          121.5 ave         122 max         121 min
Histogram: 1 0 0 0 0 0 0 0 0 1
Nghost:         3898.5 ave        3899 max        3898 min
Histogram: 1 0 0 0 0 0 0 0 0 1
Neighs:          62727 ave       62917 max       62537 min
Histogram: 1 0 0 0 0 0 0 0 0 1

Total # of neighbors = 125454
Ave neighs/atom = 516.2716
Ave special neighs/atom = 0
Neighbor list builds = 3
Dangerous builds = 0
Setting up Verlet run ...
  Unit style    : real
  Current step  : 5000
  Time step     : 0.5
Per MPI rank memory allocation (min/avg/max) = 161.8 | 161.9 | 161.9 Mbytes
   Step          Temp          Press         Density         Volume         PotEng         TotEng    
      5000   511.58276      38.328704      2.7782833      3101.4502     -36586.044     -36217.011    
      5100   460.46903      5319.5072      2.777531       3102.2902     -36553.658     -36221.496    
      5200   527.14724      350.64441      2.7496813      3133.7113     -36578.597     -36198.336    
      5300   460.68227     -4158.959       2.7428367      3141.5313     -36508.236     -36175.92     
      5400   559.83272      3360.8874      2.7655923      3115.6825     -36550.615     -36146.776    
      5500   498.73773      3955.4536      2.7742015      3106.0135     -36539.497     -36179.73     
      5600   490.31625     -3545.1562      2.7632692      3118.3018     -36578.63      -36224.937    
      5700   497.22473     -1942.5987      2.7861109      3092.7367     -36585.751     -36227.075    
      5800   506.63914      5687.5641      2.7872968      3091.4209     -36570.963     -36205.496    
      5900   520.74824     -2341.7166      2.7665471      3114.6071     -36549.527     -36173.882    
      6000   518.5935       580.79594      2.7606331      3121.2795     -36546.202     -36172.112    
Loop time of 26.7349 on 12 procs for 1000 steps with 243 atoms

Performance: 1.616 ns/day, 14.853 hours/ns, 37.404 timesteps/s, 9.089 katom-step/s
98.8% CPU use with 2 MPI tasks x 6 OpenMP threads

MPI task timing breakdown:
Section |  min time  |  avg time  |  max time  |%varavg| %total
---------------------------------------------------------------
Pair    | 23.257     | 23.276     | 23.296     |   0.4 | 87.06
Bond    | 0.0017281  | 0.0017348  | 0.0017414  |   0.0 |  0.01
Neigh   | 0          | 0          | 0          |   0.0 |  0.00
Comm    | 0.12821    | 0.14757    | 0.16693    |   5.0 |  0.55
Output  | 0.00032539 | 0.00051333 | 0.00070128 |   0.0 |  0.00
Modify  | 3.2969     | 3.2972     | 3.2975     |   0.0 | 12.33
Other   |            | 0.0115     |            |       |  0.04

Nlocal:          121.5 ave         124 max         119 min
Histogram: 1 0 0 0 0 0 0 0 0 1
Nghost:           3921 ave        3928 max        3914 min
Histogram: 1 0 0 0 0 0 0 0 0 1
Neighs:        63616.5 ave       64763 max       62470 min
Histogram: 1 0 0 0 0 0 0 0 0 1

Total # of neighbors = 127233
Ave neighs/atom = 523.59259
Ave special neighs/atom = 0
Neighbor list builds = 0
Dangerous builds = 0
  using 6 OpenMP thread(s) per MPI task
Reading data file ...
  triclinic box = (0 0 0) to (14.6913 12.723 15.9631) with tilt (-7.3456 0 0)
WARNING: Triclinic box skew is large. LAMMPS will run inefficiently. (src/domain.cpp:220)
  1 by 1 by 2 MPI processor grid
  reading atoms ...
  243 atoms
Finding 1-2 1-3 1-4 neighbors ...
  special bond factors lj:    0        0        0       
  special bond factors coul:  0        0        0       
     0 = max # of 1-2 neighbors
     0 = max # of 1-3 neighbors
     0 = max # of 1-4 neighbors
     1 = max # of special neighbors
  special bonds CPU = 0.000 seconds
  read_data CPU = 0.002 seconds
WARNING: Van der Waals parameters for element SI indicate inner wall+shielding, but earlier atoms indicate a different van der Waals method. This may cause division-by-zero errors. Keeping van der Waals setting for earlier atoms. (src/REAXFF/reaxff_ffield.cpp:251)
WARNING: Van der Waals parameters for element AL indicate inner wall+shielding, but earlier atoms indicate a different van der Waals method. This may cause division-by-zero errors. Keeping van der Waals setting for earlier atoms. (src/REAXFF/reaxff_ffield.cpp:251)
WARNING: Changed valency_val to valency_boc for X (src/REAXFF/reaxff_ffield.cpp:296)
Neighbor list info ...
  update: every = 10 steps, delay = 0 steps, check = yes
  max neighbors/atom: 2000, page size: 100000
  master list distance cutoff = 12
  ghost atom cutoff = 12
  binsize = 6, bins = 4 3 3
  2 neighbor lists, perpetual/occasional/extra = 2 0 0
  (1) pair reaxff, perpetual
      attributes: half, newton off, ghost
      pair build: half/bin/newtoff/ghost
      stencil: full/ghost/bin/3d
      bin: standard
  (2) fix qeq/reaxff, perpetual, copy from (1)
      attributes: half, newton off
      pair build: copy
      stencil: none
      bin: none
Setting up Verlet run ...
  Unit style    : real
  Current step  : 0
  Time step     : 0.5
Per MPI rank memory allocation (min/avg/max) = 161.9 | 161.9 | 162 Mbytes
   Step          Temp          Press         Density         Volume         PotEng         TotEng    
         0   600            24869.981      2.8878482      2983.7813     -36881.566     -36448.752    
       100   281.62134     -30799.09       2.7733642      3106.9512     -36584.876     -36381.726    
       200   441.61165      32706.463      2.8455525      3028.1315     -36633.729     -36315.17     
       300   455.15283     -7145.0149      2.7278504      3158.7903     -36548.101     -36219.774    
       400   547.60918     -15137.648      2.6745466      3221.7451     -36496.068     -36101.047    
       500   601.1018       16425.689      2.746463       3137.3833     -36458.164     -36024.555    
       600   640.00986      5985.6822      2.7342471      3151.4004     -36454.98      -35993.305    
       700   650.91365     -3462.1301      2.7499161      3133.4437     -36478.202     -36008.662    
       800   543.11075      8634.9162      2.7629683      3118.6414     -36460.484     -36068.708    
       900   607.11314     -12717.875      2.7273259      3159.3977     -36522.379     -36084.434    
      1000   600.77811      11292.948      2.7587908      3123.3639     -36529.225     -36095.85     
      1100   586.69164     -11566.136      2.7338998      3151.8008     -36492.263     -36069.05     
      1200   635.93994      812.65037      2.7488314      3134.6802     -36492.769     -36034.03     
      1300   595.84922      3169.3923      2.750607       3132.6566     -36456.247     -36026.428    
      1400   616.73968     -5418.6003      2.7344068      3151.2163     -36479.982     -36035.093    
      1500   574.73922      4572.3844      2.7389242      3146.0189     -36489.824     -36075.232    
      1600   561.72791      2744.5045      2.738414       3146.6051     -36497.461     -36092.256    
      1700   586.87587     -4952.9879      2.7201638      3167.7164     -36479.055     -36055.708    
      1800   631.37077     -2719.09        2.7349416      3150.6001     -36477.999     -36022.555    
      1900   641.94604      7190.9002      2.7471444      3136.6051     -36483.801     -36020.729    
      2000   577.32132     -1045.134       2.7461503      3137.7406     -36463.194     -36046.74     
      2100   588.86059      7277.4691      2.72734        3159.3814     -36487.672     -36062.894    
      2200   598.71888      5902.1399      2.715083       3173.6442     -36498.823     -36066.934    
      2300   582.66766      1301.3955      2.7471371      3136.6135     -36485.905     -36065.594    
      2400   619.61144      1882.0714      2.7515864      3131.5417     -36481.888     -36034.927    
      2500   632.623       -9846.6044      2.7384273      3146.5898     -36469.77      -36013.423    
      2600   609.11655      15460.244      2.7678543      3113.1362     -36463.171     -36023.781    
      2700   602.0135      -10560.023      2.7237028      3163.6004     -36510.173     -36075.907    
      2800   553.44774      4028.5059      2.768571       3112.3302     -36492.541     -36093.309    
      2900   611.82093      2078.711       2.7528446      3130.1104     -36501.447     -36060.106    
      3000   612.52236     -6199.2626      2.7027494      3188.1267     -36469.491     -36027.644    
      3100   578.62016      2853.7888      2.747009       3136.7598     -36461.821     -36044.43     
      3200   561.81555      3463.6102      2.7464622      3137.3843     -36500.67      -36095.401    
      3300   575.99078     -6417.8346      2.7116774      3177.6299     -36532.02      -36116.525    
      3400   583.95217      6828.1418      2.7288583      3157.6235     -36495.365     -36074.128    
      3500   619.16384     -4954.9733      2.7289513      3157.516      -36491.472     -36044.835    
      3600   633.20218     -2224.3813      2.7723779      3108.0566     -36511.874     -36055.11     
      3700   566.89711      7650.2121      2.7921191      3086.0816     -36489.19      -36080.256    
      3800   592.40168      1392.2665      2.747302       3136.4252     -36523.867     -36096.534    
      3900   613.13397      1493.4501      2.7145104      3174.3136     -36513.486     -36071.198    
      4000   593.09903     -3744.2821      2.7000191      3191.3505     -36453.563     -36025.727    
      4100   614.09886      6140.6252      2.7262398      3160.6565     -36451.142     -36008.158    
      4200   594.23847      3677.552       2.719953       3167.9619     -36448.631     -36019.973    
      4300   571.37174     -1846.8046      2.6974094      3194.4381     -36481.77      -36069.608    
      4400   597.62827      6971.1312      2.7052617      3185.1659     -36527.625     -36096.522    
      4500   551.49023      899.22301      2.6888639      3204.5904     -36468.682     -36070.862    
      4600   594.3435      -1608.0713      2.7222023      3165.3442     -36461.634     -36032.901    
      4700   599.72184      9087.2136      2.7763498      3103.6102     -36464.204     -36031.591    
      4800   612.86377     -2618.7837      2.7703208      3110.3645     -36498.6       -36056.507    
      4900   561.9677      -2138.2432      2.7712441      3109.3282     -36487.053     -36081.675    
      5000   568.1649       2996.3931      2.7561126      3126.3989     -36501.709     -36091.859    
Loop time of 132.712 on 12 procs for 5000 steps with 243 atoms

Performance: 1.628 ns/day, 14.746 hours/ns, 37.676 timesteps/s, 9.155 katom-step/s
98.9% CPU use with 2 MPI tasks x 6 OpenMP threads

MPI task timing breakdown:
Section |  min time  |  avg time  |  max time  |%varavg| %total
---------------------------------------------------------------
Pair    | 113.58     | 114.66     | 115.74     |  10.1 | 86.40
Bond    | 0.0075726  | 0.0080902  | 0.0086078  |   0.6 |  0.01
Neigh   | 0.14979    | 0.15003    | 0.15026    |   0.1 |  0.11
Comm    | 0.5143     | 1.5919     | 2.6696     |  85.4 |  1.20
Output  | 0.0017338  | 0.0027305  | 0.0037273  |   1.9 |  0.00
Modify  | 16.238     | 16.239     | 16.24      |   0.0 | 12.24
Other   |            | 0.05947    |            |       |  0.04

Nlocal:          121.5 ave         123 max         120 min
Histogram: 1 0 0 0 0 0 0 0 0 1
Nghost:           3906 ave        3912 max        3900 min
Histogram: 1 0 0 0 0 0 0 0 0 1
Neighs:        63557.5 ave       64221 max       62894 min
Histogram: 1 0 0 0 0 0 0 0 0 1

Total # of neighbors = 127115
Ave neighs/atom = 523.107
Ave special neighs/atom = 0
Neighbor list builds = 7
Dangerous builds = 0
Setting up Verlet run ...
  Unit style    : real
  Current step  : 5000
  Time step     : 0.5
Per MPI rank memory allocation (min/avg/max) = 161.8 | 161.8 | 161.9 Mbytes
   Step          Temp          Press         Density         Volume         PotEng         TotEng    
      5000   568.1649       2997.0757      2.7561126      3126.3989     -36501.708     -36091.859    
      5100   557.82135     -7128.5861      2.7364237      3148.8937     -36481.354     -36078.966    
      5200   601.62293      12015.607      2.7506444      3132.6141     -36465.238     -36031.254    
      5300   609.79276     -2533.883       2.6999991      3191.3741     -36452.027     -36012.149    
      5400   645.82198      745.92482      2.6983519      3193.3224     -36487.029     -36021.162    
      5500   522.60406      1584.985       2.7135006      3175.4949     -36456.911     -36079.927    
      5600   583.56214     -1082.6777      2.7431685      3141.1513     -36505.71      -36084.754    
      5700   617.05531      4607.5853      2.7751959      3104.9006     -36505.727     -36060.61     
      5800   656.59841     -4558.7037      2.7602997      3121.6564     -36511.374     -36037.733    
      5900   562.71069      1243.2981      2.7647227      3116.6624     -36463.345     -36057.43     
      6000   562.39433     -1522.9647      2.7648154      3116.558      -36515.531     -36109.845    
Loop time of 26.6055 on 12 procs for 1000 steps with 243 atoms

Performance: 1.624 ns/day, 14.781 hours/ns, 37.586 timesteps/s, 9.133 katom-step/s
98.6% CPU use with 2 MPI tasks x 6 OpenMP threads

MPI task timing breakdown:
Section |  min time  |  avg time  |  max time  |%varavg| %total
---------------------------------------------------------------
Pair    | 22.955     | 23.067     | 23.179     |   2.3 | 86.70
Bond    | 0.0015353  | 0.0016313  | 0.0017274  |   0.2 |  0.01
Neigh   | 0.042403   | 0.043481   | 0.04456    |   0.5 |  0.16
Comm    | 0.10288    | 0.21477    | 0.32665    |  24.1 |  0.81
Output  | 0.00033119 | 0.00053502 | 0.00073885 |   0.0 |  0.00
Modify  | 3.2654     | 3.2663     | 3.2672     |   0.1 | 12.28
Other   |            | 0.01203    |            |       |  0.05

Nlocal:          121.5 ave         123 max         120 min
Histogram: 1 0 0 0 0 0 0 0 0 1
Nghost:         3901.5 ave        3912 max        3891 min
Histogram: 1 0 0 0 0 0 0 0 0 1
Neighs:        63268.5 ave       63969 max       62568 min
Histogram: 1 0 0 0 0 0 0 0 0 1

Total # of neighbors = 126537
Ave neighs/atom = 520.7284
Ave special neighs/atom = 0
Neighbor list builds = 2
Dangerous builds = 0
  using 6 OpenMP thread(s) per MPI task
Total wall time: 0:10:49
