LAMMPS (2 Aug 2023 - Update 2)
  using 2 OpenMP thread(s) per MPI task
# Initialization
units           real
dimension       3
boundary        p p p
atom_style      full

variable       timestep equal 0.5   # fs
variable       T equal 300.0   # low temperature
variable       Td equal 100*${timestep}  # damping time
variable       Td equal 100*0.5  
# variable       P equal 1.0  # pressure
# variable       Pd equal 10*${Td}  # pressure

variable       nevery equal 1000
variable       nrepeat equal 1
variable       nfreq equal ${nevery}*${nrepeat}
variable       nfreq equal 1000*${nrepeat}
variable       nfreq equal 1000*1
variable       nthermo equal ${nfreq}/10
variable       nthermo equal 1000/10
variable       nequil equal 2000*${nthermo}  # 2000: 100 ps
variable       nequil equal 2000*100  

variable       seed string 123456
variable       structure string 333-EXP-6
variable       FF string "* * SiOCHN_2018.ff C H O Si"          # force field args for pair_coeff
# pair_coeff * * CHONSSi.ff C H O Si
# pair_coeff * * CHOSiNa.ff C H O Si
# pair_coeff * * SiOCHN_2018.ff C H O Si
# pair_coeff * * PDMSDecomp.ff C H O Si
# pair_coeff * * CHONSi.ff C H O Si
# pair_coeff * * CHOFe.ff O Si

timestep        ${timestep}
timestep        0.5

# box tilt large
# Read the initial sctructure
read_data       ${structure}.data
read_data       333-EXP-6.data
Reading data file ...
  triclinic box = (0 0 0) to (15.4861 14.0699 16.771) with tilt (-7.3915 0.9919 1.0308)
WARNING: Triclinic box skew is large. LAMMPS will run inefficiently. (src/domain.cpp:220)
  1 by 2 by 2 MPI processor grid
  reading atoms ...
  274 atoms
Finding 1-2 1-3 1-4 neighbors ...
  special bond factors lj:    0        0        0       
  special bond factors coul:  0        0        0       
     0 = max # of 1-2 neighbors
     0 = max # of 1-3 neighbors
     0 = max # of 1-4 neighbors
     1 = max # of special neighbors
  special bonds CPU = 0.000 seconds
  read_data CPU = 0.007 seconds

# Assign the force field
pair_style reaxff NULL safezone 3.0 mincap 150
pair_coeff ${FF}
pair_coeff * * SiOCHN_2018.ff C H O Si
WARNING: Van der Waals parameters for element SI indicate inner wall+shielding, but earlier atoms indicate a different van der Waals method. This may cause division-by-zero errors. Keeping van der Waals setting for earlier atoms. (src/REAXFF/reaxff_ffield.cpp:251)
# Charge equilibration for ReaxFF
fix myqeq all qeq/reaxff 1 0.0 10.0 1.0e-6 reaxff maxiter 400

neighbor        2 bin
neigh_modify    every 10 delay 0 check yes

# Energy minimization
print "*****Minimization starts.*****"
*****Minimization starts.*****
# Print system info
thermo          ${nthermo}
thermo          100
thermo_style    custom step temp press density vol pe etotal
dump dump_opt all custom 1 dump/dump_opt.lammpstrj id type q x y z
minimize 1.0e-6 1.0e-6 100 1000

CITE-CITE-CITE-CITE-CITE-CITE-CITE-CITE-CITE-CITE-CITE-CITE-CITE

Your simulation uses code contributions which should be cited:

- pair reaxff command: doi:10.1016/j.parco.2011.08.005

@Article{Aktulga12,
 author = {H. M. Aktulga and J. C. Fogarty and S. A. Pandit and A. Y. Grama},
 title = {Parallel Reactive Molecular Dynamics: {N}umerical Methods and Algorithmic Techniques},
 journal = {Parallel Computing},
 year =    2012,
 volume =  38,
 number =  {4--5},
 pages =   {245--259}
}

- fix qeq/reaxff command: doi:10.1016/j.parco.2011.08.005

@Article{Aktulga12,
 author = {H. M. Aktulga and J. C. Fogarty and S. A. Pandit and A. Y. Grama},
 title = {Parallel Reactive Molecular Dynamics: {N}umerical Methods and Algorithmic Techniques},
 journal = {Parallel Computing},
 year =    2012,
 volume =  38,
 pages =   {245--259}
}

CITE-CITE-CITE-CITE-CITE-CITE-CITE-CITE-CITE-CITE-CITE-CITE-CITE

Switching to 'neigh_modify every 1 delay 0 check yes' setting during minimization
WARNING: Fix qeq/reaxff group is not charge neutral, net charge = -8.2 (src/REAXFF/fix_qeq_reaxff.cpp:392)
Neighbor list info ...
  update: every = 1 steps, delay = 0 steps, check = yes
  max neighbors/atom: 2000, page size: 100000
  master list distance cutoff = 12
  ghost atom cutoff = 12
  binsize = 6, bins = 4 3 3
  2 neighbor lists, perpetual/occasional/extra = 2 0 0
  (1) pair reaxff, perpetual
      attributes: half, newton off, ghost
      pair build: half/bin/newtoff/ghost
      stencil: full/ghost/bin/3d
      bin: standard
  (2) fix qeq/reaxff, perpetual, copy from (1)
      attributes: half, newton off
      pair build: copy
      stencil: none
      bin: none
Per MPI rank memory allocation (min/avg/max) = 130.3 | 130.7 | 131 Mbytes
   Step          Temp          Press         Density         Volume         PotEng         TotEng    
         0   0              120366.14      1.3867102      3654.1976     -22642.034     -22642.034    
        95   0             -8087.5372      1.3867102      3654.1976     -26889.011     -26889.011    
Loop time of 8.60428 on 8 procs for 95 steps with 274 atoms

92.7% CPU use with 4 MPI tasks x 2 OpenMP threads

Minimization stats:
  Stopping criterion = energy tolerance
  Energy initial, next-to-last, final = 
      -22642.033973857  -26889.0105394013  -26889.0106518096
  Force two-norm initial, final = 3974.6545 66.987432
  Force max component initial, final = 534.07164 35.125234
  Final line search alpha, max atom move = 0.0043055204 0.15123241
  Iterations, force evaluations = 95 200

MPI task timing breakdown:
Section |  min time  |  avg time  |  max time  |%varavg| %total
---------------------------------------------------------------
Pair    | 5.3502     | 5.6385     | 5.955      |   9.4 | 65.53
Bond    | 0.00048805 | 0.00050811 | 0.0005361  |   0.0 |  0.01
Neigh   | 0.021033   | 0.022513   | 0.026642   |   1.6 |  0.26
Comm    | 0.71818    | 1.0222     | 1.3005     |  21.2 | 11.88
Output  | 0.02154    | 0.029896   | 0.035216   |   3.0 |  0.35
Modify  | 1.8322     | 1.8351     | 1.8378     |   0.1 | 21.33
Other   |            | 0.05561    |            |       |  0.65

Nlocal:           68.5 ave          73 max          64 min
Histogram: 1 0 1 0 0 0 0 1 0 1
Nghost:           3231 ave        3246 max        3217 min
Histogram: 1 0 0 1 0 1 0 0 0 1
Neighs:        35023.2 ave       37110 max       32908 min
Histogram: 1 1 0 0 0 0 0 0 1 1

Total # of neighbors = 140093
Ave neighs/atom = 511.28832
Ave special neighs/atom = 0
Neighbor list builds = 1
Dangerous builds = 0
min_style cg
# Save the optimized structure
write_data ${structure}_opt.data
write_data 333-EXP-6_opt.data
System init for write_data ...
undump dump_opt
reset_timestep 0

velocity        all create ${T} ${seed} dist gaussian
velocity        all create 300 ${seed} dist gaussian
velocity        all create 300 123456 dist gaussian
# equilibration at low T
print "##### Equilibration starts.##### "
##### Equilibration starts.##### 
velocity        all create ${T} 12345
velocity        all create 300 12345
fix             equil1 all nvt temp ${T} ${T} ${Td}
fix             equil1 all nvt temp 300 ${T} ${Td}
fix             equil1 all nvt temp 300 300 ${Td}
fix             equil1 all nvt temp 300 300 50
# fix             equil1 all npt temp ${T} ${T} ${Td} tri ${P} ${P} ${Pd}

# out put bonds and species information
fix bondinfo all reaxff/bonds ${nthermo} bonds/bonds.reaxff
fix bondinfo all reaxff/bonds 100 bonds/bonds.reaxff
# fix speciesinfo all reaxff/species ${nevery} ${nrepeat} ${nthermo} bonds/species.out

# compute MSD and RDF
compute msd1 all msd
fix myMSD all ave/time 10 10 ${nthermo} c_msd1[1] c_msd1[2] c_msd1[3] c_msd1[4] c_thermo_temp     file msd.out     title2 "# TimeStep MSD_X MSD_Y MSD_Z MSD_Total Temperture"
fix myMSD all ave/time 10 10 100 c_msd1[1] c_msd1[2] c_msd1[3] c_msd1[4] c_thermo_temp     file msd.out     title2 "# TimeStep MSD_X MSD_Y MSD_Z MSD_Total Temperture"
# C-C C-Si Si-O C-H Si-Si
compute rdf1 all rdf 200 1 1 1 4 3 4 1 2 4 4 cutoff 5.0
fix myRDF all ave/time ${nevery} ${nrepeat} ${nfreq} c_rdf1[*]     file rdf.out mode vector     title3 "# Row r g1(r) coor1(r) ..."
fix myRDF all ave/time 1000 ${nrepeat} ${nfreq} c_rdf1[*]     file rdf.out mode vector     title3 "# Row r g1(r) coor1(r) ..."
fix myRDF all ave/time 1000 1 ${nfreq} c_rdf1[*]     file rdf.out mode vector     title3 "# Row r g1(r) coor1(r) ..."
fix myRDF all ave/time 1000 1 1000 c_rdf1[*]     file rdf.out mode vector     title3 "# Row r g1(r) coor1(r) ..."

thermo_style    custom step temp press pe etotal
# Save trajectory
dump dump_eq all custom/gz ${nthermo} dump/dump_eq.lammpstrj.gz id type x y z q
dump dump_eq all custom/gz 100 dump/dump_eq.lammpstrj.gz id type x y z q

run ${nequil}
run 200000
WARNING: Compute rdf cutoff less than neighbor cutoff - forcing a needless neighbor list build (src/compute_rdf.cpp:179)
Neighbor list info ...
  update: every = 10 steps, delay = 0 steps, check = yes
  max neighbors/atom: 2000, page size: 100000
  master list distance cutoff = 12
  ghost atom cutoff = 12
  binsize = 6, bins = 4 3 3
  3 neighbor lists, perpetual/occasional/extra = 2 1 0
  (1) pair reaxff, perpetual
      attributes: half, newton off, ghost
      pair build: half/bin/newtoff/ghost
      stencil: full/ghost/bin/3d
      bin: standard
  (2) compute rdf, occasional
      attributes: half, newton on, cut 7
      pair build: half/bin/newton/tri
      stencil: half/bin/3d/tri
      bin: standard
  (3) fix qeq/reaxff, perpetual, copy from (1)
      attributes: half, newton off
      pair build: copy
      stencil: none
      bin: none
Per MPI rank memory allocation (min/avg/max) = 135.2 | 135.4 | 135.6 Mbytes
   Step          Temp          Press          PotEng         TotEng    
         0   300           -5033.7461     -26889.011     -26644.882    
       100   198.22404      1012.6841     -26776.369     -26615.062    
       200   277.95176     -2593.3057     -26793.326     -26567.139    
       300   314.19488      1555.6189     -26785.77      -26530.09     
       400   315.19828     -2115.0196     -26798.378     -26541.882    
       500   302.49434     -710.1663      -26807.673     -26561.515    
       600   305.91115      2935.661      -26828.415     -26579.476    
       700   290.87731     -3349.2231     -26833.504     -26596.799    
       800   290.19574     -3784.0921     -26839.124     -26602.974    
       900   313.87638     -4639.3976     -26852.671     -26597.25     
      1000   302.97096     -4014.5747     -26858.146     -26611.6      
      1100   301.02513      1401.7082     -26887.078     -26642.115    
      1200   292.64961      5901.7459     -26896.929     -26658.782    
      1300   309.84787      4236.5195     -26925.144     -26673.002    
      1400   334.66757     -8565.2129     -26969.801     -26697.461    
      1500   311.52937     -8707.1855     -26974.559     -26721.048    
      1600   341.89686      2226.1727     -27022.466     -26744.244    
      1700   346.32588     -9045.9256     -27061.07      -26779.244    
      1800   301.45407     -103.98282     -27063.767     -26818.455    
      1900   327.04524      2411.0363     -27116.681     -26850.544    
      2000   329.23949     -6633.7199     -27147.718     -26879.795    
      2100   316.538       -5125.8437     -27173.047     -26915.46     
      2200   279.29622     -13143.027     -27164.843     -26937.562    
      2300   342.39614      8937.276      -27241.078     -26962.449    
      2400   359.26458      3081.2166     -27306.013     -27013.657    
      2500   312.22224      2133.9364     -27310.625     -27056.55     
      2600   315.55786     -11272.63      -27356.025     -27099.237    
      2700   297.06327     -13285.122     -27374.1       -27132.361    
      2800   289.24312     -13315.611     -27391.927     -27156.553    
      2900   293.48948     -2187.7779     -27409.2       -27170.369    
      3000   324.11825      4351.9031     -27424.667     -27160.912    
      3100   328.07469     -4924.533      -27411.798     -27144.824    
      3200   325.16372      6462.0468     -27409.157     -27144.551    
      3300   276.41889     -2085.7874     -27402.573     -27177.634    
      3400   292.51295      12705.697     -27431.898     -27193.862    
      3500   315.05043     -18.318337     -27463.766     -27207.39     
      3600   296.33246     -7359.6921     -27491.411     -27250.267    
      3700   371.65682     -8034.4651     -27589.505     -27287.065    
      3800   267.22319      605.51733     -27534.804     -27317.348    
      3900   346.55086     -7337.3554     -27631.042     -27349.033    
      4000   316.23323     -10852.127     -27645.477     -27388.139    
      4100   332.8545       2805.6304     -27689.674     -27418.81     
      4200   320.54717      1761.9691     -27702.133     -27441.284    
      4300   323.21839     -3935.6324     -27703.846     -27440.823    
      4400   328.84185     -2510.7735     -27687.197     -27419.599    
      4500   259.50436     -13655.592     -27613.365     -27402.19     
      4600   262.03121     -13666.022     -27609.703     -27396.472    
      4700   270.43244      6187.1132     -27650.769     -27430.702    
      4800   326.56048      199.41705     -27719.393     -27453.65     
      4900   311.47786     -18183.576     -27714.808     -27461.34     
      5000   315.03221     -1220.4828     -27717.94      -27461.579    
      5100   344.8622      -7287.4981     -27727.476     -27446.84     
      5200   357.35851      1214.8116     -27714.369     -27423.564    
      5300   327.4086      -14545.194     -27702.971     -27436.538    
      5400   322.22382     -5770.5271     -27724.27      -27462.057    
      5500   331.17462     -7095.2063     -27732.928     -27463.431    
      5600   325.99756     -7841.2049     -27725.523     -27460.239    
      5700   329.78375     -5821.8494     -27728.132     -27459.767    
      5800   265.40203      4184.1898     -27692.901     -27476.927    
      5900   284.08782      5657.6349     -27720.77      -27489.59     
      6000   284.52846      2391.4654     -27717.609     -27486.071    
      6100   275.58541      1222.0455     -27683.149     -27458.888    
      6200   324.59194      1063.2259     -27712.261     -27448.121    
      6300   300.37059     -2608.4014     -27706.558     -27462.128    
      6400   281.38295     -5592.7092     -27721.129     -27492.15     
      6500   291.41007     -1219.0916     -27727.837     -27490.698    
      6600   345.48786     -10165.526     -27759.154     -27478.009    
      6700   354.25435     -1.8225291     -27760.283     -27472.005    
      6800   324.39786     -9529.639      -27726.835     -27462.852    
      6900   317.65273     -15492.121     -27715.07      -27456.576    
      7000   278.26207     -17636.825     -27705.982     -27479.543    
      7100   266.16878     -15344.085     -27713.669     -27497.071    
      7200   292.79309     -5394.452      -27736.705     -27498.441    
      7300   317.84026     -11947.452     -27748.508     -27489.862    
      7400   337.93045     -13174.019     -27734.71      -27459.715    
      7500   317.90003      8987.0966     -27710.359     -27451.665    
      7600   324.68363     -253.46792     -27735.722     -27471.507    
      7700   314.70257     -7147.4022     -27742.502     -27486.41     
      7800   261.67158     -12970.546     -27700.945     -27488.007    
      7900   289.53194     -12982.604     -27715.424     -27479.814    
      8000   348.28265     -5979.0961     -27754.585     -27471.167    
      8100   299.34675      10020.139     -27720.229     -27476.633    
      8200   345.63074      1939.6659     -27807.322     -27526.061    
      8300   299.52882     -5370.0538     -27799.983     -27556.238    
      8400   290.75387     -3874.3844     -27821.337     -27584.733    
      8500   281.64687     -13013.61      -27822.103     -27592.91     
      8600   319.94097     -11728.391     -27868.121     -27607.766    
      8700   303.65546     -9159.0666     -27868.797     -27621.694    
      8800   309.77636     -15243.515     -27879.322     -27627.238    
      8900   306.64626     -12734.472     -27903.84      -27654.303    
      9000   242.85873      2423.5251     -27868.18      -27670.551    
      9100   314.89846     -12708.928     -27925.333     -27669.081    
      9200   340.07061     -11626.765     -27926.12      -27649.384    
      9300   274.45583     -9532.8644     -27859.535     -27636.194    
      9400   320.86751     -5576.3184     -27902.022     -27640.913    
      9500   305.93659     -10734.599     -27897.317     -27648.357    
      9600   308.25806      5336.4693     -27911.413     -27660.565    
      9700   282.28585     -6425.5503     -27900.417     -27670.704    
      9800   282.50552     -8659.2035     -27890.485     -27660.593    
      9900   317.39996     -13184.121     -27892.275     -27633.987    
     10000   334.06087      3215.7499     -27911.448     -27639.602    
     10100   270.12773     -7903.3601     -27880.642     -27660.822    
     10200   307.02497      2283.8506     -27917.578     -27667.733    
     10300   285.42181     -6875.3338     -27890.743     -27658.477    
     10400   269.95648     -13287.913     -27872.195     -27652.515    
     10500   317.6673      -12371.23      -27915.267     -27656.762    
     10600   294.11891     -7844.995      -27896.478     -27657.136    
     10700   315.53431     -7920.205      -27905.947     -27649.178    
     10800   331.84756      1042.9513     -27906.616     -27636.572    
     10900   318.83049     -2604.0842     -27904.259     -27644.807    
     11000   263.4927      -4621.1607     -27880.436     -27666.016    
     11100   305.06452     -6026.6162     -27920.223     -27671.974    
     11200   320.21072     -7.4636351     -27918.938     -27658.363    
     11300   286.06891     -1156.776      -27857.925     -27625.134    
     11400   305.4774      -3456.7211     -27875.811     -27627.225    
     11500   311.31546     -1230.4364     -27899.788     -27646.452    
     11600   308.1815      -4330.4522     -27908.397     -27657.611    
     11700   316.41668     -10303.55      -27920.685     -27663.197    
     11800   287.78368     -282.14425     -27901.381     -27667.194    
     11900   303.63865     -5757.357      -27906.365     -27659.275    
     12000   341.98703      157.59603     -27909.611     -27631.315    
     12100   282.81181     -10242.646     -27865.478     -27635.337    
     12200   313.33968     -2885.8398     -27916.325     -27661.341    
     12300   298.6285      -2389.4604     -27911.779     -27668.767    
     12400   289.75961     -15646.168     -27907.599     -27671.804    
     12500   301.84375     -12041.855     -27902.485     -27656.856    
     12600   309.10702     -8525.1527     -27884.712     -27633.173    
     12700   311.69834     -8338.4571     -27890.757     -27637.109    
     12800   316.34505     -12627.686     -27916.918     -27659.489    
     12900   261.40306     -13625.583     -27880.765     -27668.045    
     13000   312.59617      4186.3073     -27921.987     -27667.608    
     13100   321.29837     -5576.8111     -27929.074     -27667.614    
     13200   281.46694     -8778.9476     -27894.005     -27664.958    
     13300   306.33454      13156.344     -27907.088     -27657.805    
     13400   312.37715     -15341.762     -27887.741     -27633.54     
     13500   351.15699     -6024.0173     -27907.183     -27621.425    
     13600   311.87856     -4534.1377     -27904.683     -27650.888    
     13700   299.2098      -1493.2419     -27908.789     -27665.304    
     13800   306.72657      1616.1325     -27912.145     -27662.543    
     13900   300.1728      -5479.2514     -27903.141     -27658.872    
     14000   303.96073      3796.0938     -27905.007     -27657.656    
     14100   277.93593      788.42656     -27891.532     -27665.359    
     14200   302.0266      -2404.4761     -27914.967     -27669.189    
     14300   317.54744     -5425.3708     -27940.265     -27681.857    
     14400   283.34817     -4779.8679     -27924.843     -27694.266    
     14500   270.68308      1413.0811     -27905.648     -27685.377    
     14600   310.5983       8547.3813     -27908.817     -27656.064    
     14700   340.67186     -7255.8661     -27930.117     -27652.891    
     14800   312.41212     -7319.0377     -27926.097     -27671.868    
     14900   289.04702     -5616.8384     -27911.837     -27676.622    
     15000   292.68219      2891.5466     -27912.086     -27673.913    
     15100   325.72935      4193.8037     -27928.134     -27663.068    
     15200   323.35351     -174.75747     -27924.712     -27661.579    
     15300   293.17117     -10098.118     -27906.906     -27668.335    
     15400   282.40036     -12427.093     -27919.484     -27689.678    
     15500   278.98404     -790.62774     -27942.706     -27715.68     
     15600   261.34091      610.36509     -27906.076     -27693.406    
     15700   299.47304     -5808.4486     -27915.182     -27671.482    
     15800   332.7157      -1648.8463     -27936.168     -27665.417    
     15900   289.89175     -15389.534     -27905.397     -27669.494    
     16000   302.99441     -2072.92       -27935.584     -27689.019    
     16100   284.87339     -678.78313     -27937.085     -27705.266    
     16200   268.42059     -4600.4288     -27904.8       -27686.37     
     16300   309.45005     -1149.2297     -27915.262     -27663.444    
     16400   295.11927     -2024.9861     -27900.842     -27660.686    
     16500   310.71345     -14172.63      -27915.484     -27662.637    
     16600   311.87315     -6655.6052     -27910.559     -27656.769    
     16700   324.90348     -11947.607     -27956.128     -27691.734    
     16800   294.27296     -2015.6948     -27946.807     -27707.339    
     16900   275.29272     -8078.5649     -27938.859     -27714.836    
     17000   297.94872     -1013.9468     -27962.408     -27719.949    
     17100   305.08756      1307.0294     -27943.841     -27695.573    
     17200   310.66804     -15232.581     -27935.711     -27682.902    
     17300   299.76128      2905.1102     -27938.601     -27694.667    
     17400   279.21699     -10830.057     -27943.513     -27716.297    
     17500   306.26513     -17764.2       -27961.028     -27711.801    
     17600   300.57734      7350.0315     -27947.526     -27702.927    
     17700   312.89622      7712.1421     -27948.706     -27694.083    
     17800   293.65644     -13654.468     -27920.265     -27681.299    
     17900   315.39506     -4679.8774     -27942.624     -27685.967    
     18000   313.94696     -7427.1016     -27959.757     -27704.28     
     18100   294.20827     -12725.699     -27969.122     -27729.707    
     18200   279.83731     -10092.858     -27957.333     -27729.612    
     18300   288.26151     -255.80021     -27943.77      -27709.194    
     18400   309.77888      1359.2772     -27942.834     -27690.748    
     18500   304.3866      -4964.551      -27942.346     -27694.648    
     18600   282.25781     -5983.1279     -27942.062     -27712.371    
     18700   288.05463     -2147.2645     -27953.215     -27718.808    
     18800   321.01841     -2280.4256     -27961.325     -27700.092    
     18900   341.93251     -4703.4923     -27949.957     -27671.705    
     19000   311.55926     -14308.249     -27945.94      -27692.405    
     19100   283.7229      -6051.8427     -27931.225     -27700.343    
     19200   306.89261     -13788.372     -27953.475     -27703.737    
     19300   294.77434     -8968.4157     -27946.957     -27707.081    
     19400   297.88872     -3094.6331     -27959.285     -27716.875    
     19500   281.0537      -13546.487     -27954.573     -27725.863    
     19600   304.45075     -2392.2505     -27979.558     -27731.808    
     19700   317.24724     -2339.5802     -27986.5       -27728.336    
     19800   292.58189     -4981.7836     -27981.545     -27743.453    
     19900   274.9375      -10877.412     -27987.557     -27763.823    
     20000   307.57393     -1017.6013     -28002.895     -27752.603    
     20100   277.88252     -3941.376      -27958.122     -27731.992    
     20200   330.65818     -5295.7722     -27995.713     -27726.636    
     20300   292.21893      1028.2155     -27971.274     -27733.477    
     20400   317.48769      3227.6308     -28008.64      -27750.28     
     20500   285.62059     -3886.5629     -28009.872     -27777.445    
     20600   301.81127      729.84182     -28024.187     -27778.584    
     20700   287.24788      748.26637     -28001.778     -27768.027    
     20800   292.65417     -292.99152     -27993.6       -27755.449    
     20900   349.97427     -273.36987     -28021.184     -27736.389    
     21000   303.25628     -10811.717     -27972.455     -27725.677    
     21100   311.821       -5005.0014     -27998.649     -27744.901    
     21200   319.85592      2866.9844     -28033.071     -27772.785    
     21300   290.8628       5693.88       -28018.26      -27781.567    
     21400   304.44366     -16150.455     -28028.408     -27780.664    
     21500   296.28953     -2200.7464     -28000.605     -27759.496    
     21600   348.1833      -81.044497     -28019.846     -27736.508    
     21700   289.19176      4013.7821     -27989.796     -27754.463    
     21800   319.53733     -2755.5811     -28026.387     -27766.359    
     21900   297.60509      3446.0762     -28011.257     -27769.077    
     22000   301.90075     -2026.389      -28023.975     -27778.3      
     22100   257.16317     -779.77469     -28002.764     -27793.494    
     22200   298.15711     -1749.1018     -28026.249     -27783.62     
     22300   325.53658     -8569.7512     -28020.764     -27755.855    
     22400   303.13037      3721.6493     -28004.033     -27757.358    
     22500   281.51954     -8830.1486     -28001.231     -27772.142    
     22600   273.72094     -14696.124     -28016.206     -27793.463    
     22700   286.79664     -3236.0873     -28048.745     -27815.361    
     22800   264.17789     -7087.4949     -28042.644     -27827.667    
     22900   295.79058     -17370.727     -28035.591     -27794.888    
     23000   279.04063     -17053.741     -27999.528     -27772.456    
     23100   297.5135      -14022.748     -28000.355     -27758.25     
     23200   299.58972     -7423.2684     -27993.26      -27749.465    
     23300   365.19936     -961.61904     -28065.051     -27767.866    
     23400   338.63722     -846.67767     -28081.919     -27806.349    
     23500   283.29164      4701.8809     -28059.879     -27829.347    
     23600   264.44709      1658.1519     -28056.565     -27841.368    
     23700   296.99603     -2283.6791     -28080.251     -27838.567    
     23800   309.4255      -7541.541      -28074.74      -27822.942    
     23900   305.38783     -15676.502     -28051.073     -27802.561    
     24000   293.02278     -1566.5627     -28034.924     -27796.473    
     24100   313.44627     -2726.6251     -28085.269     -27830.199    
     24200   282.28419     -3077.1739     -28073.905     -27844.193    
     24300   288.45087     -8336.9676     -28069.486     -27834.756    
     24400   275.43423     -109.69758     -28035.333     -27811.195    
     24500   310.973       -3623.9699     -28052.313     -27799.255    
     24600   324.88955     -4271.1498     -28069.81      -27805.427    
     24700   290.67839      570.24626     -28057.624     -27821.081    
     24800   288.96055     -13134.828     -28063.548     -27828.403    
     24900   296.32457      5134.6333     -28072.333     -27831.195    
     25000   295.26984      7798.8733     -28067.86      -27827.581    
     25100   277.15276     -5841.2888     -28043.454     -27817.918    
     25200   315.09513     -10571.046     -28061.785     -27805.372    
     25300   301.47149     -6362.3626     -28051.474     -27806.148    
     25400   285.65934     -10454.416     -28059.543     -27827.084    
     25500   307.72665      823.22342     -28093.45      -27843.034    
     25600   295.87087      1237.352      -28086.465     -27845.697    
     25700   299.95317      458.0301      -28078.519     -27834.429    
     25800   324.94792     -4432.4328     -28070.254     -27805.824    
     25900   309.3299      -5678.5372     -28051.991     -27800.27     
     26000   298.42723     -7757.4545     -28061.999     -27819.151    
     26100   305.68553      5394.7021     -28075.063     -27826.308    
     26200   306.20567     -4278.0934     -28078.675     -27829.497    
     26300   308.57399     -4583.8152     -28082.411     -27831.305    
     26400   267.64353     -17614.528     -28074.232     -27856.434    
     26500   296.13255     -17588.855     -28106.605     -27865.624    
     26600   297.97023     -4355.993      -28088.606     -27846.129    
     26700   303.46867     -9790.0976     -28077.226     -27830.275    
     26800   296.53027      261.52382     -28066.401     -27825.097    
     26900   294.94428     -1706.263      -28061.68      -27821.666    
     27000   319.69144     -13926.512     -28082.716     -27822.564    
     27100   260.87101     -2620.5476     -28070.205     -27857.918    
     27200   279.39132     -4970.7025     -28090.476     -27863.118    
     27300   302.58985     -5507.347      -28090.091     -27843.855    
     27400   307.80911     -3542.4373     -28075.096     -27824.613    
     27500   297.77147     -1846.5636     -28065.644     -27823.329    
     27600   308.12954     -13419.817     -28087.258     -27836.514    
     27700   305.64415     -10863.756     -28107.554     -27858.833    
     27800   260.42636      3472.2192     -28091.618     -27879.693    
     27900   279.38929      5268.6515     -28092.386     -27865.03     
     28000   304.62405     -1446.2211     -28080.12      -27832.229    
     28100   290.81807     -13319.263     -28055.781     -27819.125    
     28200   314.00645      276.37401     -28065.628     -27810.101    
     28300   302.94185     -9399.0901     -28063.66      -27817.138    
     28400   307.08424     -2910.3032     -28075.88      -27825.987    
     28500   269.92584     -6069.6896     -28068.843     -27849.188    
     28600   304.24317     -9853.1814     -28101.829     -27854.248    
     28700   290.00007     -8187.8176     -28061.682     -27825.691    
     28800   301.76262     -856.73855     -28061.245     -27815.683    
     28900   302.57979     -1020.5369     -28070.778     -27824.55     
     29000   300.75563      811.91423     -28083.787     -27839.044    
     29100   300.21559     -3862.4249     -28109.855     -27865.551    
     29200   300.39632     -11583.237     -28120.542     -27876.091    
     29300   317.91566     -121.15911     -28138.221     -27879.514    
     29400   293.68443     -5060.2926     -28121.323     -27882.334    
     29500   291.90072     -1798.5383     -28125.382     -27887.845    
     29600   300.14665      2217.4448     -28140.669     -27896.422    
     29700   304.1379       1035.9743     -28141.757     -27894.261    
     29800   332.91777     -2579.2792     -28148.054     -27877.138    
     29900   322.51333      4495.7336     -28123.572     -27861.123    
     30000   303.68153     -1843.4415     -28130.612     -27883.488    
     30100   290.22671      758.32112     -28136.739     -27900.563    
     30200   295.11428      1004.4156     -28135.257     -27895.104    
     30300   323.08683     -5465.0891     -28142.893     -27879.977    
     30400   315.31472     -17138.001     -28127.198     -27870.608    
     30500   316.11008     -22940.493     -28146.332     -27889.094    
     30600   252.64053     -10861.162     -28122.451     -27916.862    
     30700   289.60517      242.48001     -28139.637     -27903.968    
     30800   317.25189     -14627.378     -28145.494     -27887.327    
     30900   289.73424     -14273.504     -28116.452     -27880.677    
     31000   315.68779     -4679.6574     -28153.101     -27896.207    
     31100   303.54059     -12940.718     -28170.247     -27923.238    
     31200   262.20092     -1214.2037     -28133.648     -27920.279    
     31300   310.85142     -11257.928     -28157.016     -27904.058    
     31400   276.40423     -4986.9203     -28109.878     -27884.951    
     31500   316.46283     -4327.1774     -28132.389     -27874.864    
     31600   311.41582     -4331.8727     -28142.253     -27888.835    
     31700   285.45521     -10661.293     -28136.734     -27904.442    
     31800   273.03579     -6688.1799     -28135.523     -27913.337    
     31900   285.46936      3131.7622     -28151.363     -27919.059    
     32000   295.5695      -1945.9491     -28139.081     -27898.558    
     32100   321.73423     -11123.978     -28145.091     -27883.276    
     32200   314.5168       4842.341      -28167.245     -27911.304    
     32300   312.58334     -5701.7179     -28193.731     -27939.363    
     32400   301.58483     -16698.997     -28194.313     -27948.895    
     32500   283.21539     -13648.519     -28165.232     -27934.762    
     32600   321.02111     -4829.1991     -28174.294     -27913.059    
     32700   316.04954      2821.9182     -28181.027     -27923.838    
     32800   305.85093     -9204.4087     -28194.32      -27945.431    
     32900   283.67842     -5150.291      -28185.014     -27954.168    
     33000   311.55592     -3393.3571     -28204.703     -27951.171    
     33100   299.61806     -11659.573     -28185.281     -27941.464    
     33200   301.36427     -13312.149     -28178.637     -27933.398    
     33300   309.0816       655.54981     -28164.296     -27912.777    
     33400   315.52498     -3918.6762     -28157.989     -27901.227    
     33500   309.39684      8014.9757     -28178.124     -27926.349    
     33600   309.74146      11288.153     -28201.123     -27949.067    
     33700   317.2296      -10728.849     -28217.469     -27959.32     
     33800   315.94763     -10459.043     -28224.617     -27967.511    
     33900   268.99864      2284.9357     -28204.817     -27985.917    
     34000   281.7782       4617.4478     -28224.691     -27995.391    
     34100   298.94774      9524.3342     -28225.835     -27982.563    
     34200   301.66765     -9357.3237     -28200.214     -27954.728    
     34300   318.19941     -17564.35      -28203.53      -27944.592    
     34400   305.8991      -12641.159     -28185.274     -27936.345    
     34500   341.12873     -8416.0269     -28211.01      -27933.413    
     34600   307.12147     -13289.075     -28219.284     -27969.36     
     34700   292.00829     -7054.7031     -28220.228     -27982.603    
     34800   288.37262     -19984.773     -28205.942     -27971.276    
     34900   305.41462      9512.1062     -28197.792     -27949.258    
     35000   327.58503     -11966.463     -28217.6       -27951.024    
     35100   295.23474     -10047.106     -28202.114     -27961.863    
     35200   308.08382     -5361.4983     -28228.938     -27978.231    
     35300   271.17694      3695.7506     -28229.459     -28008.785    
     35400   269.75923     -13701.731     -28214.658     -27995.139    
     35500   292.09783     -8620.4459     -28209.893     -27972.195    
     35600   288.02128     -9895.5261     -28190.625     -27956.245    
     35700   321.77855     -3194.4068     -28211.691     -27949.841    
     35800   296.90555      1.1293624     -28213.848     -27972.238    
     35900   258.96065      5794.4209     -28195.601     -27984.869    
     36000   290.54629     -5121.005      -28218.623     -27982.188    
     36100   319.92634     -3333.1199     -28211.159     -27950.816    
     36200   336.74327     -7555.0612     -28202.577     -27928.548    
     36300   317.32194     -7778.2393     -28217.171     -27958.947    
     36400   297.04942     -7832.2515     -28218.954     -27977.227    
     36500   288.07774      9454.2976     -28210.06      -27975.633    
     36600   289.52195     -5108.5557     -28202.182     -27966.58     
     36700   313.48553      5817.0641     -28201.531     -27946.428    
     36800   310.27074     -11721.756     -28190.147     -27937.661    
     36900   331.3447      -4160.042      -28214.873     -27945.237    
     37000   275.63314     -75.589548     -28202.111     -27977.811    
     37100   294.75433      2495.3505     -28219.605     -27979.745    
     37200   296.99305     -7920.7174     -28216.819     -27975.137    
     37300   297.04848      3010.0993     -28202.808     -27961.081    
     37400   309.58188      411.92581     -28184.611     -27932.685    
     37500   309.17076     -2573.344      -28185.938     -27934.347    
     37600   299.60272      5959.8428     -28194.089     -27950.284    
     37700   275.89832     -9733.9427     -28197.827     -27973.312    
     37800   294.1717      -5503.2353     -28230.384     -27990.999    
     37900   277.81699     -8659.4541     -28245.914     -28019.838    
     38000   272.58791     -2642.7539     -28225.18      -28003.359    
     38100   289.68802     -16368.723     -28214.519     -27978.782    
     38200   291.32666     -3424.0795     -28196.227     -27959.157    
     38300   333.22763     -8527.8792     -28222.841     -27951.673    
     38400   292.14785     -3465.3553     -28206.718     -27968.979    
     38500   281.01481      2906.6718     -28217.901     -27989.222    
     38600   286.88657      2907.4558     -28219.066     -27985.609    
     38700   314.32029     -1809.2478     -28206.709     -27950.928    
     38800   341.181       -8888.3127     -28229.514     -27951.874    
     38900   284.86886     -13520.955     -28198.608     -27966.793    
     39000   349.68075     -6190.1381     -28262.659     -27978.103    
     39100   320.92001     -7550.5825     -28285.128     -28023.975    
     39200   291.19635      60.469743     -28285.748     -28048.784    
     39300   295.16019     -9310.573      -28311.699     -28071.509    
     39400   279.7328      -10805.005     -28294.593     -28066.958    
     39500   317.11454      8684.4419     -28308.745     -28050.69     
     39600   296.32817     -3394.0371     -28275.047     -28033.907    
     39700   328.86593     -17047.28      -28299.185     -28031.567    
     39800   299.60929      3002.1156     -28305.69      -28061.879    
     39900   291.19452     -3365.4804     -28321.511     -28084.548    
     40000   321.41181     -13378.891     -28374.503     -28112.95     
     40100   284.7732      -10333.119     -28350.293     -28118.556    
     40200   304.60056     -6038.7758     -28368.695     -28120.823    
     40300   293.7335      -12326.876     -28381.609     -28142.581    
     40400   274.31013     -7853.8635     -28387.575     -28164.352    
     40500   300.81        -19445.279     -28402.626     -28157.839    
     40600   302.64406      6206.4065     -28398.264     -28151.984    
     40700   311.66366     -9231.9434     -28414.68      -28161.06     
     40800   301.84217      2514.7781     -28429.934     -28184.306    
     40900   338.02063     -14911.962     -28469.035     -28193.967    
     41000   336.0027      -8615.9454     -28490.351     -28216.925    
     41100   302.21389     -15858.032     -28481.179     -28235.249    
     41200   304.39925     -9978.3035     -28489.516     -28241.808    
     41300   311.49767     -3606.5129     -28514.706     -28261.222    
     41400   258.42343     -17502.733     -28486.396     -28276.101    
     41500   278.94228     -8699.3856     -28478.19      -28251.198    
     41600   300.14731     -13395.235     -28473.087     -28228.839    
     41700   335.1339      -2475.9305     -28515.288     -28242.569    
     41800   316.50368     -9467.5575     -28534.278     -28276.72     
     41900   316.01661     -12717.828     -28539.707     -28282.545    
     42000   305.75964     -4832.091      -28530.853     -28282.038    
     42100   309.32006     -9633.9041     -28536.817     -28285.105    
     42200   284.90864     -8976.4589     -28543.4       -28311.552    
     42300   297.64772     -6909.0776     -28568.885     -28326.671    
     42400   289.97745     -10787.136     -28558.902     -28322.93     
     42500   316.64119     -8063.2961     -28557.254     -28299.584    
     42600   340.50943     -3379.2381     -28568.866     -28291.773    
     42700   307.01059     -20776.691     -28550.589     -28300.756    
     42800   289.93806     -17607.985     -28554.845     -28318.904    
     42900   287.48345     -16945.81      -28565.787     -28331.844    
     43000   289.32746     -6314.0767     -28566.771     -28331.327    
     43100   298.03656     -4094.9286     -28563.398     -28320.867    
     43200   327.39317     -78.635166     -28548.274     -28281.854    
     43300   299.49571     -20786.279     -28531.481     -28287.763    
     43400   323.46869     -24169.131     -28568.577     -28305.351    
     43500   301.3433      -4620.5403     -28569.448     -28324.226    
     43600   276.51436     -8838.6137     -28553.46      -28328.444    
     43700   304.42838     -25844.161     -28565.176     -28317.444    
     43800   333.0578      -20926.062     -28556.622     -28285.593    
     43900   341.23971     -13365.453     -28551.597     -28273.91     
     44000   311.08819      5310.6474     -28555.957     -28302.805    
     44100   294.32977     -16153.071     -28562.425     -28322.911    
     44200   307.49744     -5387.5514     -28574.633     -28324.404    
     44300   304.53042     -7051.6572     -28558.723     -28310.908    
     44400   334.48095      153.87515     -28559.654     -28287.466    
     44500   336.12136     -2569.4212     -28547.763     -28274.24     
     44600   289.57047     -907.35516     -28544.824     -28309.183    
     44700   311.49706     -4950.5536     -28585.194     -28331.71     
     44800   297.28565     -13570.662     -28578.82      -28336.9      
     44900   288.1272      -10901.644     -28560.868     -28326.401    
     45000   345.81452     -6280.5056     -28583.692     -28302.282    
     45100   303.24692      9352.3105     -28549.568     -28302.798    
     45200   294.39178     -1744.4016     -28551.942     -28312.377    
     45300   274.54938     -13060.331     -28557.162     -28333.745    
     45400   271.99857     -8617.0487     -28579.184     -28357.842    
     45500   303.70178      1558.4916     -28592.773     -28345.632    
     45600   309.95702     -12515.71      -28580.09      -28327.859    
     45700   314.52354     -14202.564     -28568.522     -28312.575    
     45800   337.45685     -5226.2811     -28575.414     -28300.805    
     45900   319.19698     -217.71827     -28564.545     -28304.795    
     46000   315.01598     -16107.15      -28598.369     -28342.022    
     46100   279.63333      1868.4483     -28571.461     -28343.907    
     46200   321.26        -16955.201     -28584.991     -28323.562    
     46300   326.01019     -9788.8748     -28575.37      -28310.076    
     46400   299.9434      -15445.984     -28549.364     -28305.281    
     46500   308.99171     -14333.654     -28559.582     -28308.136    
     46600   298.04338     -4674.0146     -28583.449     -28340.913    
     46700   279.58824     -22870.268     -28579.691     -28352.173    
     46800   282.01394     -22964.357     -28559.362     -28329.87     
     46900   302.9962      -6975.8956     -28563.045     -28316.478    
     47000   331.80657     -11618.859     -28581.048     -28311.037    
     47100   294.73776     -12279.744     -28560.217     -28320.371    
     47200   284.9209      -7465.9123     -28578.36      -28346.502    
     47300   307.04416     -6617.3877     -28591.924     -28342.064    
     47400   335.34371     -5804.7934     -28587.966     -28315.076    
     47500   303.31406     -11586.44      -28558.741     -28311.916    
     47600   307.18793     -26289.472     -28561.42      -28311.442    
     47700   272.54662     -3700.6373     -28539.691     -28317.903    
     47800   285.81455     -1583.6087     -28568.344     -28335.76     
     47900   269.53074     -14746.98      -28562.819     -28343.486    
     48000   301.92931     -8759.0585     -28569.143     -28323.444    
     48100   296.91352     -5446.1781     -28541.009     -28299.392    
     48200   359.12661     -1147.4404     -28584.605     -28292.362    
     48300   302.67756     -8591.3216     -28558.243     -28311.936    
     48400   295.43939     -5161.1015     -28562.099     -28321.682    
     48500   319.12008     -13510.073     -28581.377     -28321.689    
     48600   297.10973     -8398.5576     -28568.697     -28326.921    
     48700   300.87073     -17236.553     -28567.81      -28322.973    
     48800   310.51268     -18288.148     -28541.199     -28288.515    
     48900   320.51045     -20317.647     -28550.919     -28290.1      
     49000   306.27702     -12134.015     -28559.024     -28309.787    
     49100   310.73334     -1397.0134     -28577.136     -28324.273    
     49200   268.72741     -18550.232     -28549.605     -28330.926    
     49300   295.44268     -1490.1801     -28558.6       -28318.18     
     49400   327.93334     -10089.155     -28558.056     -28291.196    
     49500   336.10608     -8243.3172     -28550.718     -28277.208    
     49600   334.9092      -10446.224     -28580.511     -28307.975    
     49700   315.04643     -6896.7781     -28574.181     -28317.808    
     49800   317.15966     -13964.381     -28575.307     -28317.215    
     49900   300.98851     -12878.991     -28579.383     -28334.45     
     50000   271.558       -16431.378     -28568.683     -28347.7      
     50100   321.38577     -20530.851     -28594.042     -28332.511    
     50200   315.08049      5111.7383     -28565.356     -28308.956    
     50300   308.18494     -4907.51       -28558.146     -28307.357    
     50400   301.25571     -7002.715      -28554.648     -28309.498    
     50500   291.20986     -12728.91      -28561.631     -28324.656    
     50600   288.04639     -10382.445     -28582.402     -28348.001    
     50700   285.64957     -20627.995     -28585.737     -28353.287    
     50800   299.32929     -16303.675     -28562.098     -28318.515    
     50900   300.43343      1772.2571     -28545.566     -28301.085    
     51000   306.41979     -6000.077      -28555.714     -28306.361    
     51100   312.01475     -5065.3571     -28574.556     -28320.651    
     51200   304.64569     -12728.302     -28583.505     -28335.596    
     51300   288.28138     -14392.454     -28573.625     -28339.033    
     51400   291.57117     -6844.1123     -28565.396     -28328.127    
     51500   330.06387      2216.0161     -28570.682     -28302.089    
     51600   319.22349      6196.9581     -28559.892     -28300.12     
     51700   281.82949     -19704.086     -28552.296     -28322.954    
     51800   285.74004     -6399.8315     -28566.547     -28334.023    
     51900   305.97252     -11244.309     -28571.078     -28322.089    
     52000   332.0196      -10887.798     -28590.406     -28320.221    
     52100   310.75652     -15514.594     -28574.36      -28321.478    
     52200   280.37266     -5107.9735     -28552.541     -28324.385    
     52300   286.75283     -8470.4462     -28567.442     -28334.094    
     52400   308.44576     -12529.635     -28581.727     -28330.726    
     52500   301.78413     -7703.3644     -28554.578     -28308.998    
     52600   331.54635     -10451.999     -28571.171     -28301.372    
     52700   287.03354     -12429.523     -28550.423     -28316.846    
     52800   257.21541     -6880.1467     -28553.682     -28344.37     
     52900   294.95135     -6398.3312     -28582.48      -28342.46     
     53000   276.3375      -10122.241     -28559.683     -28334.811    
     53100   304.62031     -11667.459     -28576.076     -28328.188    
     53200   318.32332      5405.2129     -28578.651     -28319.612    
     53300   325.34786     -8590.6992     -28573.723     -28308.967    
     53400   308.75403     -8947.4833     -28552.756     -28301.504    
     53500   292.04518     -3397.9713     -28545.142     -28307.487    
     53600   284.31687     -9791.9246     -28560.019     -28328.653    
     53700   312.02135     -1985.7535     -28595.479     -28341.568    
     53800   306.59517     -13278.936     -28591.619     -28342.124    
     53900   290.99473     -5223.2262     -28546.544     -28309.743    
     54000   314.9689      -27273.762     -28551         -28294.691    
     54100   297.40284     -18398.404     -28551.672     -28309.657    
     54200   304.61312     -2567.773      -28572.519     -28324.637    
     54300   306.9641      -11465.704     -28588.082     -28338.286    
     54400   271.60199     -3917.9813     -28571.465     -28350.446    
     54500   267.29225     -3971.0246     -28565.126     -28347.614    
     54600   321.8921      -8313.5237     -28580.051     -28318.108    
     54700   315.55482     -12494.099     -28560.582     -28303.796    
     54800   294.10538     -10324.578     -28551.002     -28311.671    
     54900   294.34949     -7037.6769     -28566.175     -28326.645    
     55000   270.09741     -11360.761     -28564.479     -28344.685    
     55100   272.74563     -16249.96      -28581.701     -28359.751    
     55200   299.52711     -3002.1793     -28573.796     -28330.052    
     55300   300.7842      -22402.575     -28557.07      -28312.303    
     55400   313.74842     -13730.309     -28563.542     -28308.226    
     55500   302.9439      -9605.5098     -28552.496     -28305.972    
     55600   285.6834      -9498.1829     -28544.439     -28311.961    
     55700   304.57897     -7251.9423     -28583.782     -28335.927    
     55800   318.48715     -4030.2185     -28601.56      -28342.387    
     55900   282.87881     -13259.118     -28553.408     -28323.212    
     56000   309.37513     -7670.585      -28555.223     -28303.465    
     56100   289.73711     -3516.1144     -28551.727     -28315.951    
     56200   308.05361     -5708.4029     -28565.989     -28315.307    
     56300   280.4844      -11968.284     -28546.928     -28318.681    
     56400   317.8422      -7236.5333     -28570.825     -28312.178    
     56500   287.15177     -1547.2539     -28531.097     -28297.424    
     56600   314.53338     -8825.8057     -28546.309     -28290.354    
     56700   323.86049     -18253.548     -28562.856     -28299.311    
     56800   273.95183     -11451.481     -28551.82      -28328.889    
     56900   295.07434     -8358.0023     -28567.612     -28327.492    
     57000   317.19969     -135.14729     -28572.039     -28313.914    
     57100   274.01642     -14205.564     -28535.801     -28312.817    
     57200   289.15041     -12389.089     -28584.288     -28348.988    
     57300   290.98191     -10243.957     -28583.953     -28347.163    
     57400   287.04585     -10216.553     -28557.259     -28323.672    
     57500   306.2988      -2567.7671     -28558.497     -28309.243    
     57600   292.79842     -10887.797     -28543.462     -28305.194    
     57700   302.8334      -8083.2954     -28556.413     -28309.979    
     57800   284.82068     -21023.676     -28575.55      -28343.774    
     57900   280.98734     -12451.467     -28575.098     -28346.442    
     58000   308.34677     -2916.3255     -28581.063     -28330.142    
     58100   282.64731     -314.47704     -28546.566     -28316.559    
     58200   316.92115     -14175.316     -28570.752     -28312.853    
     58300   262.75583     -5319.6662     -28536.498     -28322.678    
     58400   297.67094     -14508.41      -28563.292     -28321.059    
     58500   306.41499     -16631.403     -28565.692     -28316.343    
     58600   320.10325     -5817.4508     -28575.444     -28314.956    
     58700   300.44597     -6267.4217     -28558.531     -28314.04     
     58800   283.62447     -3789.6843     -28551.041     -28320.239    
     58900   294.87447     -15451.493     -28565.34      -28325.383    
     59000   281.39206     -10757.766     -28558.764     -28329.778    
     59100   301.45684     -11563.394     -28568.84      -28323.526    
     59200   304.50096     -14802.179     -28550.835     -28303.044    
     59300   298.75289     -3233.1902     -28539.541     -28296.427    
     59400   305.69049     -12410.819     -28559.505     -28310.746    
     59500   283.62594     -12386.864     -28568.547     -28337.743    
     59600   291.86053     -22582.282     -28579.525     -28342.02     
     59700   286.49208     -21154.265     -28569.604     -28336.468    
     59800   289.19543     -14789.227     -28564.102     -28328.766    
     59900   315.21066     -22670.905     -28573.808     -28317.302    
     60000   298.04316     -12818.422     -28551.202     -28308.666    
     60100   320.14653      782.21731     -28561.336     -28300.813    
     60200   305.21648      467.00477     -28550.123     -28301.75     
     60300   285.62797     -14897.536     -28550.446     -28318.013    
     60400   287.9633      -12775.71      -28565.115     -28330.782    
     60500   278.93935     -8472.7549     -28564.734     -28337.744    
     60600   299.73635      4480.4083     -28559.006     -28315.092    
     60700   316.49608      5309.3776     -28555.654     -28298.102    
     60800   283.5658      -3265.1178     -28540.788     -28310.033    
     60900   300.57231     -1271.9382     -28560.73      -28316.136    
     61000   285.18915     -7400.722      -28554.772     -28322.696    
     61100   300.05454     -4420.0198     -28575.462     -28331.29     
     61200   312.21856     -8355.0247     -28568.815     -28314.743    
     61300   302.55444      976.04274     -28541.869     -28295.662    
     61400   295.68747     -7313.3811     -28538.212     -28297.593    
     61500   296.94855      1524.9121     -28562.276     -28320.631    
     61600   281.97107      4938.2453     -28572.11      -28342.653    
     61700   293.33341     -5434.6946     -28580.481     -28341.778    
     61800   281.02565     -6419.4234     -28556.948     -28328.261    
     61900   314.28286     -3050.3436     -28565.876     -28310.125    
     62000   311.05164      5201.2052     -28557.511     -28304.389    
     62100   312.26113     -4748.4162     -28561.597     -28307.491    
     62200   302.68819      1677.5137     -28559.183     -28312.867    
     62300   293.24358     -11969.593     -28553.904     -28315.274    
     62400   303.54107      5986.2997     -28568.14      -28321.13     
     62500   293.6981      -4896.9467     -28569.957     -28330.956    
     62600   289.35056      2097.701      -28585.816     -28350.354    
     62700   254.93182     -13392.183     -28569.229     -28361.775    
     62800   293.84825      5194.378      -28568.095     -28328.973    
     62900   309.85128     -11129.903     -28563.992     -28311.847    
     63000   328.7736      -11149.469     -28575.342     -28307.799    
     63100   284.82328      1155.6372     -28548.929     -28317.15     
     63200   306.29657     -3589.4749     -28585.815     -28336.562    
     63300   278.35613     -11228.014     -28577.237     -28350.721    
     63400   297.88717     -22549.515     -28585.24      -28342.831    
     63500   314.82965      1632.8917     -28567.833     -28311.637    
     63600   306.20073     -8769.3056     -28555.3       -28306.126    
     63700   310.19002     -6311.5559     -28567.858     -28315.438    
     63800   285.28032     -2268.3223     -28572.188     -28340.038    
     63900   282.24729     -4232.4701     -28583.657     -28353.975    
     64000   282.20917      182.7396      -28566.528     -28336.877    
     64100   289.1673      -6438.1417     -28561.804     -28326.491    
     64200   291.7245      -19096.983     -28555.106     -28317.712    
     64300   292.86585     -2046.5186     -28559.036     -28320.713    
     64400   309.73918      1825.3521     -28566.518     -28314.465    
     64500   315.79777      18.316487     -28549.646     -28292.662    
     64600   305.05794     -2212.6372     -28544.373     -28296.129    
     64700   310.2375       2820.9811     -28573.282     -28320.823    
     64800   291.75343     -8434.0294     -28565.925     -28328.507    
     64900   279.93362     -20856.79      -28551.849     -28324.05     
     65000   307.19089     -18926.149     -28564.051     -28314.071    
     65100   308.97302     -5690.3733     -28548.362     -28296.932    
     65200   333.54031     -1108.8786     -28554.439     -28283.017    
     65300   332.90904     -2305.2471     -28570.946     -28300.038    
     65400   294.65561      567.09064     -28568.5       -28328.721    
     65500   272.69122      1209.4237     -28555.83      -28333.925    
     65600   310.24013      9465.3207     -28576.563     -28324.102    
     65700   323.25236     -9578.8996     -28566.811     -28303.76     
     65800   297.15302     -15641.884     -28556.096     -28314.284    
     65900   295.28769     -11866.289     -28582.645     -28342.352    
     66000   283.07486     -26707.444     -28574.381     -28344.026    
     66100   259.56262     -8758.5598     -28549.176     -28337.954    
     66200   294.82461     -18309.049     -28563.707     -28323.79     
     66300   309.73136     -2113.3598     -28571.89      -28319.843    
     66400   302.723       -6977.5768     -28566.056     -28319.712    
     66500   294.62685     -4229.1616     -28568.125     -28328.369    
     66600   294.70208     -1357.7545     -28589.411     -28349.594    
     66700   278.27856     -236.6666      -28587.211     -28360.759    
     66800   301.48843     -3806.2973     -28576.352     -28331.013    
     66900   288.14726     -6094.1049     -28553.527     -28319.044    
     67000   305.86057     -4249.248      -28554.927     -28306.03     
     67100   305.88874     -19482.351     -28552.573     -28303.653    
     67200   289.4998      -2368.1712     -28545.107     -28309.523    
     67300   283.22438      677.40441     -28565.845     -28335.368    
     67400   273.33495     -9269.7444     -28556.874     -28334.444    
     67500   310.78123     -8463.9791     -28565.335     -28312.433    
     67600   303.01992     -11091.675     -28557.322     -28310.736    
     67700   294.28122     -10007.006     -28554.17      -28314.696    
     67800   297.716       -5755.7124     -28559.514     -28317.244    
     67900   286.94731     -7478.8229     -28541.578     -28308.071    
     68000   330.40592     -5586.4221     -28573.713     -28304.841    
     68100   301.19415     -6728.7266     -28561.809     -28316.709    
     68200   286.68771     -17163.606     -28572.341     -28339.045    
     68300   271.67589     -9127.1993     -28564.03      -28342.951    
     68400   303.90658     -8936.8293     -28568.725     -28321.418    
     68500   314.45965     -4644.3263     -28557.855     -28301.96     
     68600   325.92375     -3173.4394     -28572.191     -28306.967    
     68700   297.98982     -3508.5477     -28558.485     -28315.993    
     68800   299.61475     -8228.8292     -28564.589     -28320.774    
     68900   297.07039     -20127.781     -28580.36      -28338.616    
     69000   278.99246     -5684.0236     -28594.534     -28367.5      
     69100   311.03945     -7008.4926     -28602.775     -28349.663    
     69200   279.01617     -10561.965     -28555.242     -28328.189    
     69300   299.00605     -5834.5369     -28556.861     -28313.542    
     69400   317.82178     -8989.7845     -28567.154     -28308.523    
     69500   289.32317      950.52468     -28558.076     -28322.636    
     69600   289.64407     -9439.3262     -28585.54      -28349.839    
     69700   273.41334     -5469.2056     -28571.223     -28348.73     
     69800   317.24471     -19534.612     -28589.08      -28330.918    
     69900   296.5493      -3057.3141     -28564.986     -28323.665    
     70000   297.15432     -8490.8668     -28556.559     -28314.746    
     70100   309.52774     -766.42501     -28560.655     -28308.774    
     70200   310.77213     -10319.562     -28562.482     -28309.588    
     70300   307.93953     -4910.9109     -28583.619     -28333.03     
     70400   295.33584     -2633.2399     -28582.222     -28341.89     
     70500   283.91285     -7311.3741     -28555.006     -28323.968    
     70600   311.71622     -4536.5611     -28559.245     -28305.582    
     70700   300.25763     -9593.175      -28549.34      -28305.002    
     70800   308.81785     -16709.018     -28558.076     -28306.772    
     70900   307.82458     -3471.3652     -28568.584     -28318.089    
     71000   302.77899     -5881.9249     -28567.008     -28320.618    
     71100   277.85748     -8410.4634     -28560.855     -28334.745    
     71200   277.311       -4748.5186     -28585.165     -28359.5      
     71300   279.32641      1481.1397     -28574.684     -28347.379    
     71400   299.2932      -11734.119     -28563.699     -28320.145    
     71500   291.04493     -9804.5455     -28548.331     -28311.49     
     71600   309.77704      342.75356     -28557.492     -28305.408    
     71700   312.28206     -3305.8196     -28566.947     -28312.824    
     71800   287.83894      11556.178     -28568.367     -28334.135    
     71900   277.52221     -6824.0755     -28562.172     -28336.335    
     72000   303.1844      -2361.3711     -28560.36      -28313.64     
     72100   297.32937     -3820.7292     -28533.836     -28291.88     
     72200   304.92912     -6739.2133     -28549.226     -28301.087    
     72300   298.13974     -8822.7089     -28556.81      -28314.195    
     72400   310.46836     -11149.364     -28571.735     -28319.088    
     72500   285.33625     -6431.448      -28560.536     -28328.34     
     72600   284.81229     -7745.0695     -28577.354     -28345.585    
     72700   279.18831     -6811.7402     -28596.216     -28369.023    
     72800   279.33384     -4714.9776     -28581.064     -28353.753    
     72900   301.11231     -8686.1566     -28574.598     -28329.564    
     73000   275.3819      -10935.659     -28541.953     -28317.858    
     73100   297.64632     -3200.1677     -28541.569     -28299.356    
     73200   320.4233      -18090.627     -28548.068     -28287.32     
     73300   301.05703      2262.4441     -28549.661     -28304.673    
     73400   288.8755      -10578.327     -28559.388     -28324.312    
     73500   304.77736     -4025.595      -28567.675     -28319.659    
     73600   297.52973     -9957.676      -28549.492     -28307.374    
     73700   295.64568     -13259.566     -28547.616     -28307.031    
     73800   283.40941     -4920.3561     -28557.244     -28326.617    
     73900   260.31073     -6739.3956     -28559.979     -28348.149    
     74000   299.68509     -86.385062     -28587.828     -28343.956    
     74100   313.24641     -11332.193     -28567.763     -28312.856    
     74200   322.80485     -5107.7248     -28560.15      -28297.464    
     74300   313.71181     -14617.346     -28562.311     -28307.025    
     74400   298.02495     -21586.13      -28567.355     -28324.834    
     74500   284.3207      -5262.7338     -28565.177     -28333.808    
     74600   304.73241     -7685.3524     -28569.452     -28321.473    
     74700   309.12804     -16831.863     -28541.96      -28290.403    
     74800   324.32377     -23930.301     -28554.797     -28290.875    
     74900   298.36997     -8139.7125     -28559.363     -28316.561    
     75000   295.82126      230.33072     -28564.651     -28323.923    
     75100   280.43956     -2372.2522     -28549.713     -28321.502    
     75200   324.34174     -10548.733     -28578.346     -28314.409    
     75300   299.6912      -8786.1519     -28556.153     -28312.276    
     75400   288.63253     -5574.7333     -28560.895     -28326.018    
     75500   275.69101     -350.82141     -28568.557     -28344.21     
     75600   305.43335     -3915.4839     -28581.05      -28332.5      
     75700   289.88784     -15738.952     -28546.885     -28310.986    
     75800   310.4064      -8483.4877     -28558.275     -28305.678    
     75900   298.91556     -9209.8813     -28559.3       -28316.054    
     76000   312.70581     -2290.7704     -28572.634     -28318.166    
     76100   299.28089      5559.9754     -28567.065     -28323.522    
     76200   320.70579     -11046.682     -28589.567     -28328.59     
     76300   302.05223     -5871.8879     -28578.654     -28332.856    
     76400   276.55058     -8764.8395     -28561.504     -28336.458    
     76500   290.29927     -9973.4206     -28556.06      -28319.826    
     76600   321.96238     -10422.719     -28564.8       -28302.799    
     76700   301.02249     -12346.969     -28553.402     -28308.441    
     76800   313.64428     -2090.6951     -28592.204     -28336.972    
     76900   279.74639     -1475.5931     -28583.435     -28355.789    
     77000   300.54067     -17202.616     -28587.515     -28342.946    
     77100   316.57648     -6242.521      -28581.451     -28323.833    
     77200   320.01239      633.71333     -28582.752     -28322.338    
     77300   284.0767       1154.5962     -28554.897     -28323.726    
     77400   302.84357     -13774.829     -28566.437     -28319.995    
     77500   308.06785     -9292.894      -28557.282     -28306.589    
     77600   299.05682     -8088.6194     -28550.364     -28307.003    
     77700   286.74261     -19915.093     -28557.256     -28323.916    
     77800   272.44783     -7169.2604     -28561.192     -28339.485    
     77900   297.18089     -9050.7465     -28570.728     -28328.894    
     78000   295.25887     -5236.5314     -28533.824     -28293.554    
     78100   323.6797      -4471.5617     -28557.161     -28293.763    
     78200   289.51965     -979.8618      -28544.866     -28309.266    
     78300   306.32338     -11876.064     -28570.011     -28320.737    
     78400   290.15491     -2418.5936     -28557.45      -28321.333    
     78500   320.53559     -15178.988     -28577.791     -28316.952    
     78600   308.924       -16405.672     -28558.931     -28307.54     
     78700   317.6557      -7349.1632     -28560.407     -28301.911    
     78800   289.40773     -10367.967     -28540.112     -28304.603    
     78900   310.89783     -15715.86      -28564.238     -28311.242    
     79000   296.21604     -7333.0548     -28573.163     -28332.114    
     79100   280.33442     -2566.9587     -28571.09      -28342.965    
     79200   290.20115      3158.6978     -28553.703     -28317.548    
     79300   298.10116     -465.17423     -28546.972     -28304.389    
     79400   310.55774      1068.0764     -28561.213     -28308.493    
     79500   283.07172     -5327.2682     -28556.377     -28326.024    
     79600   279.23565     -3217.2261     -28569.887     -28342.656    
     79700   293.91638     -5246.0175     -28575.306     -28336.128    
     79800   313.04292     -7898.1428     -28552.276     -28297.534    
     79900   312.85203     -9640.294      -28549.937     -28295.35     
     80000   282.64087     -10004.094     -28537.374     -28307.372    
     80100   296.59728     -12166.303     -28566.266     -28324.907    
     80200   305.86729     -6078.5566     -28581.322     -28332.419    
     80300   295.99127     -15485.412     -28577.188     -28336.321    
     80400   292.31811     -4744.9557     -28576.034     -28338.157    
     80500   302.30856     -5976.0318     -28569.658     -28323.652    
     80600   321.15097     -9910.9933     -28567.796     -28306.456    
     80700   311.42455      3304.1612     -28555.781     -28302.356    
     80800   304.72435     -3677.5364     -28569.349     -28321.376    
     80900   283.7948      -20414.603     -28574.08      -28343.138    
     81000   272.95379     -6536.2915     -28562.231     -28340.112    
     81100   300.0329      -4585.1679     -28558.797     -28314.642    
     81200   314.93637      14353.094     -28561.031     -28304.748    
     81300   296.4478       4900.0511     -28548.532     -28307.295    
     81400   323.27182     -19531.318     -28579.904     -28316.838    
     81500   286.2297      -17802.293     -28567.224     -28334.301    
     81600   293.88991     -846.29498     -28583.842     -28344.686    
     81700   283.9257      -1155.1067     -28592.714     -28361.666    
     81800   266.37485     -15762.86      -28582.13      -28365.364    
     81900   288.15058     -7760.1172     -28571.028     -28336.542    
     82000   288.33452     -1458.2886     -28551.308     -28316.673    
     82100   313.71135     -17779.89      -28565.085     -28309.799    
     82200   311.77692      1903.6739     -28576.944     -28323.232    
     82300   268.9187      -2791.8692     -28564.236     -28345.4      
     82400   287.66066     -8294.9398     -28581.809     -28347.722    
     82500   319.71005     -15853.114     -28568.11      -28307.942    
     82600   299.75448     -2997.893      -28548.582     -28304.653    
     82700   293.6074      -17879.111     -28557.515     -28318.589    
     82800   298.21725     -5660.2897     -28575.26      -28332.582    
     82900   285.16473     -6251.6096     -28582.083     -28350.027    
     83000   268.89553     -8063.1125     -28574.568     -28355.751    
     83100   295.9358      -15645.213     -28566.734     -28325.913    
     83200   305.2796      -9927.9324     -28559.338     -28310.913    
     83300   307.52865     -13086.593     -28565.54      -28315.285    
     83400   280.72688     -4684.4163     -28561.541     -28333.096    
     83500   290.48219     -16726.726     -28584.08      -28347.696    
     83600   281.27798     -4500.5964     -28582.08      -28353.187    
     83700   288.70047     -3828.8286     -28563.888     -28328.955    
     83800   310.35609     -11524.736     -28556.744     -28304.188    
     83900   309.935       -4332.5313     -28546.397     -28294.184    
     84000   313.80503     -24564.407     -28543.256     -28287.893    
     84100   307.97019     -6325.8279     -28559.023     -28308.409    
     84200   290.02498     -8876.0076     -28569.738     -28333.727    
     84300   295.30135     -4758.0791     -28575.491     -28335.186    
     84400   280.25077     -2824.9128     -28546.935     -28318.878    
     84500   288.10852      1652.6304     -28532.538     -28298.087    
     84600   344.50468      3363.5        -28557.713     -28277.368    
     84700   328.49496     -2026.6886     -28550.847     -28283.53     
     84800   296.17883     -13923.57      -28560.492     -28319.473    
     84900   296.51813     -9768.8036     -28579.586     -28338.291    
     85000   288.20597      1611.077      -28584.136     -28349.605    
     85100   283.74716     -6523.9162     -28576.506     -28345.604    
     85200   310.77797     -9897.4937     -28571.376     -28318.477    
     85300   312.53701     -7893.3803     -28565.557     -28311.226    
     85400   314.16254      386.43361     -28570.076     -28314.423    
     85500   302.37707     -7892.0504     -28574.158     -28328.096    
     85600   290.09931     -5710.493      -28602.453     -28366.382    
     85700   268.11681     -3209.0206     -28588.476     -28370.293    
     85800   291.78374     -2857.3338     -28588.841     -28351.398    
     85900   302.55397     -123.52551     -28586.637     -28340.43     
     86000   285.33054     -4388.3977     -28563.898     -28331.707    
     86100   303.25522     -6321.2738     -28553.319     -28306.541    
     86200   317.69976     -6840.368      -28542.571     -28284.04     
     86300   309.51438     -12026.168     -28556.246     -28304.376    
     86400   289.18081     -10494.707     -28554.582     -28319.258    
     86500   305.03875     -12190.34      -28569.666     -28321.437    
     86600   303.89912      6923.1307     -28575.81      -28328.509    
     86700   260.70188     -17482.915     -28563.996     -28351.847    
     86800   280.618       -8844.0477     -28592.205     -28363.849    
     86900   290.7332       250.93975     -28573.642     -28337.055    
     87000   307.67586     -3001.6176     -28569.125     -28318.75     
     87100   288.44767     -12127.363     -28566.37      -28331.642    
     87200   278.33762     -4753.5739     -28572.889     -28346.389    
     87300   285.39824     -4689.8887     -28575.022     -28342.776    
     87400   302.19104      4157.864      -28555.681     -28309.77     
     87500   302.05439      1379.9783     -28546.882     -28301.082    
     87600   288.59199      10873.918     -28541.068     -28306.223    
     87700   329.52583     -7603.601      -28597.944     -28329.789    
     87800   297.13679     -18428.105     -28594.211     -28352.413    
     87900   302.58087     -23628.862     -28614.458     -28368.23     
     88000   278.97901     -7139.0692     -28600.915     -28373.893    
     88100   302.58924     -17241.292     -28599.528     -28353.292    
     88200   331.66178     -11817.415     -28612.565     -28342.672    
     88300   307.97296      1477.1727     -28606.036     -28355.42     
     88400   286.12047     -5098.5812     -28597.675     -28364.841    
     88500   290.91041     -14829.038     -28606.766     -28370.034    
     88600   304.40366     -14498.498     -28617.097     -28369.385    
     88700   287.02314     -2618.8346     -28607.906     -28374.338    
     88800   289.07379     -9195.215      -28615.015     -28379.778    
     88900   280.51845     -8389.4442     -28611.706     -28383.431    
     89000   299.03983      7402.7512     -28627.158     -28383.811    
     89100   278.8548       12188.552     -28604.842     -28377.921    
     89200   312.34147      5803.138      -28603.196     -28349.025    
     89300   321.053       -9493.3284     -28602.775     -28341.514    
     89400   320.21355     -3525.5694     -28615.619     -28355.042    
     89500   292.78034     -18288.607     -28617.452     -28379.199    
     89600   277.51952     -7705.5615     -28611.983     -28386.148    
     89700   313.70306     -6550.9025     -28631.301     -28376.022    
     89800   303.06325     -9092.3517     -28607.833     -28361.212    
     89900   307.27061     -7810.3756     -28611.066     -28361.021    
     90000   278.7674      -12388.966     -28611.906     -28385.056    
     90100   259.82813     -5437.7318     -28618.253     -28406.815    
     90200   298.15384     -9229.0667     -28638.341     -28395.715    
     90300   283.70502     -1083.6913     -28613.875     -28383.006    
     90400   307.95704     -17022.709     -28619.408     -28368.805    
     90500   307.60278     -4069.837      -28611.82      -28361.505    
     90600   317.37392     -3510.0306     -28609.683     -28351.416    
     90700   327.68656      4615.375      -28619.932     -28353.274    
     90800   280.21605      5694.1211     -28611.762     -28383.733    
     90900   289.21146     -5432.6936     -28621.628     -28386.279    
     91000   305.7632      -11909.958     -28635.313     -28386.495    
     91100   285.89246     -8699.4562     -28635.065     -28402.417    
     91200   266.66851     -9776.9048     -28616.79      -28399.786    
     91300   307.28007     -984.44712     -28617.585     -28367.532    
     91400   328.22413     -9835.8595     -28623.081     -28355.985    
     91500   279.6933      -14990.418     -28577.002     -28349.398    
     91600   312.28398     -5912.2605     -28594.874     -28340.75     
     91700   314.28151     -7348.693      -28606.384     -28350.633    
     91800   302.78823     -4106.1894     -28628.373     -28381.976    
     91900   285.80199     -14210.71      -28621.914     -28389.339    
     92000   305.77381     -10365.487     -28626.205     -28377.378    
     92100   317.15809     -10277.419     -28621.685     -28363.594    
     92200   319.90603     -2140.5628     -28597.371     -28337.044    
     92300   350.28066     -13587.716     -28605.105     -28320.06     
     92400   306.46082     -6036.2287     -28595.094     -28345.708    
     92500   298.95465     -10921.43      -28600.396     -28357.119    
     92600   279.20801     -4370.8207     -28598.431     -28371.222    
     92700   296.9623       2543.4166     -28624.412     -28382.756    
     92800   281.56466     -3056.3511     -28619.883     -28390.756    
     92900   308.37247     -10150.969     -28635.297     -28384.355    
     93000   333.59354     -10228.282     -28630.592     -28359.126    
     93100   301.9668      -4160.8372     -28597.975     -28352.246    
     93200   286.97006     -1613.1603     -28604.438     -28370.912    
     93300   304.83467      12912.99      -28637.226     -28389.164    
     93400   291.15619     -14253.733     -28623.925     -28386.994    
     93500   281.85939     -8672.8693     -28609.03      -28379.664    
     93600   293.54646     -4208.2065     -28609.944     -28371.067    
     93700   310.92914     -9130.6908     -28619.063     -28366.041    
     93800   304.22042     -4292.1973     -28615.594     -28368.032    
     93900   292.23304     -6339.3099     -28628.591     -28390.783    
     94000   291.8491      -11455.021     -28636.544     -28399.049    
     94100   299.68866     -15033.762     -28622.888     -28379.013    
     94200   311.51824     -642.68016     -28609.332     -28355.83     
     94300   295.94461      1780.0233     -28597.497     -28356.668    
     94400   302.30451      10952.806     -28607.802     -28361.798    
     94500   292.43635     -5766.3094     -28627.44      -28389.466    
     94600   287.75548     -15540.466     -28630.736     -28396.572    
     94700   311.00625     -1805.3541     -28641.855     -28388.77     
     94800   298.34367     -6059.8535     -28619.693     -28376.913    
     94900   302.95264     -12342.67      -28612.355     -28365.824    
     95000   303.64756     -7122.0227     -28587.53      -28340.433    
     95100   342.75196     -6233.0656     -28603.6       -28324.682    
     95200   296.56654     -1714.1293     -28595.417     -28354.083    
     95300   300.33166     -5456.8602     -28616.544     -28372.145    
     95400   318.65917      1620.4534     -28643.189     -28383.876    
     95500   288.98576     -1565.292      -28621.193     -28386.027    
     95600   303.5364      -8515.1666     -28615.097     -28368.091    
     95700   314.80305     -9819.3508     -28602.317     -28346.142    
     95800   323.38339     -12013.774     -28620.967     -28357.81     
     95900   288.60196     -18120.178     -28610.704     -28375.851    
     96000   291.92272     -17552.983     -28613.68      -28376.125    
     96100   315.59939     -8079.505      -28629.135     -28372.312    
     96200   294.25562     -12939.188     -28615.722     -28376.269    
     96300   286.69136     -4598.2969     -28625.444     -28392.145    
     96400   285.66242     -11387.071     -28636.043     -28403.582    
     96500   291.79266     -14153.808     -28634.44      -28396.99     
     96600   316.28594     -8157.5789     -28625.598     -28368.217    
     96700   327.78984     -9614.2104     -28636.907     -28370.165    
     96800   299.56192      2232.3285     -28635.452     -28391.681    
     96900   298.15379     -8318.3313     -28635.193     -28392.567    
     97000   343.59453     -1967.802      -28691.339     -28411.735    
     97100   328.21232     -1215.4085     -28704.342     -28437.255    
     97200   290.00738     -14557.978     -28693.373     -28457.376    
     97300   288.45615     -13793.617     -28706.567     -28471.833    
     97400   296.37234     -1817.3363     -28715.089     -28473.913    
     97500   300.62667     -8472.4397     -28691.509     -28446.871    
     97600   286.71465      4187.7965     -28664.399     -28431.082    
[...]
    174500   303.51803      6461.4372     -28694.715     -28447.724    
    174600   311.71505     -5016.3295     -28708.734     -28455.072    
    174700   290.80702     -3906.8296     -28705.044     -28468.396    
    174800   283.75399     -19959.549     -28682.888     -28451.98     
    174900   319.50299      262.2986      -28690.172     -28430.173    
    175000   291.82456     -4662.7827     -28680.892     -28443.416    
    175100   308.22433     -6491.2018     -28708.881     -28458.06     
    175200   307.65978     -18536.588     -28715.836     -28465.475    
    175300   302.41263     -11693.632     -28705.59      -28459.498    
    175400   304.3853      -9529.9594     -28696.109     -28448.412    
    175500   313.17064     -11673.029     -28705.401     -28450.555    
    175600   290.96489      6223.7513     -28688.945     -28452.169    
    175700   293.94608     -8322.4652     -28688.798     -28449.596    
    175800   300.79348     -8848.1088     -28696.707     -28451.933    
    175900   310.28686     -9012.9836     -28727.743     -28475.243    
    176000   276.11619     -8051.8899     -28709.747     -28485.054    
    176100   269.36523     -9419.4978     -28685.542     -28466.343    
    176200   297.90686     -1792.5119     -28692.106     -28449.681    
    176300   321.88146     -9091.6544     -28712.234     -28450.3      
    176400   305.45608     -11369.493     -28704.375     -28455.807    
    176500   280.20828     -4610.5642     -28688.442     -28460.42     
    176600   292.45106      1606.3701     -28695.322     -28457.337    
    176700   294.22133      4758.8734     -28686.979     -28447.553    
    176800   338.0119      -2344.0335     -28713.778     -28438.717    
    176900   337.93744     -14675.556     -28717.443     -28442.443    
    177000   288.05434     -3667.4471     -28705.284     -28470.877    
    177100   267.69418     -9927.2685     -28695.758     -28477.919    
    177200   296.80911     -6893.509      -28703.419     -28461.887    
    177300   313.63353     -7364.0998     -28703.432     -28448.209    
    177400   314.19849      1760.968      -28707.303     -28451.62     
    177500   300.7779      -11525.276     -28702.954     -28458.193    
    177600   263.90775      6544.9468     -28684.315     -28469.557    
    177700   276.63587      2133.3949     -28714.04      -28488.925    
    177800   263.96962      15504.895     -28715.856     -28501.048    
    177900   322.66674     -13156.353     -28733.71      -28471.136    
    178000   306.11463     -10645.56      -28705.688     -28456.584    
    178100   292.77681     -4156.9377     -28685.473     -28447.223    
    178200   285.23679     -10796.691     -28675.59      -28443.476    
    178300   278.80516     -15322.327     -28672.476     -28445.596    
    178400   311.92231     -12249.866     -28692.675     -28438.845    
    178500   303.61705     -7331.7835     -28682.87      -28435.798    
    178600   316.61418     -14777.778     -28691.844     -28434.195    
    178700   305.22195      699.79051     -28698.33      -28449.952    
    178800   267.00738     -4581.8735     -28685.952     -28468.672    
    178900   295.28537     -4041.9103     -28703.345     -28463.054    
    179000   318.66571     -8996.9353     -28694.347     -28435.029    
    179100   306.85343     -2835.4659     -28668.545     -28418.839    
    179200   325.21924      3738.4576     -28696.232     -28431.581    
    179300   317.16274     -1493.7835     -28704.891     -28446.797    
    179400   309.36955     -920.82376     -28706.975     -28455.222    
    179500   272.08878     -7035.517      -28683.752     -28462.336    
    179600   287.23677      4856.9652     -28691.69      -28457.948    
    179700   300.46329     -4426.6413     -28678.051     -28433.546    
    179800   320.98197     -8077.7692     -28684.192     -28422.99     
    179900   317.32019      983.02194     -28700.821     -28442.599    
    180000   288.32105     -5470.0041     -28699.512     -28464.888    
    180100   299.30031      9002.6483     -28705.304     -28461.745    
    180200   303.09962     -8798.765      -28703.793     -28457.142    
    180300   289.03937     -18866.801     -28693.497     -28458.288    
    180400   300.02237     -11780.131     -28701.543     -28457.396    
    180500   329.46804     -6779.6948     -28718.992     -28450.884    
    180600   321.43118     -2210.6371     -28702.839     -28441.271    
    180700   284.51828     -11259.552     -28669.608     -28438.078    
    180800   288.91773     -6673.1255     -28689.274     -28454.164    
    180900   296.75073     -15831.702     -28714.243     -28472.759    
    181000   303.30292     -2884.4413     -28727.115     -28480.299    
    181100   300.32164      5758.1373     -28700.286     -28455.896    
    181200   314.10717     -8969.8189     -28685.452     -28429.844    
    181300   305.35939     -14475.908     -28685.96      -28437.47     
    181400   308.18916     -10260.738     -28708.121     -28457.329    
    181500   278.83942      340.3319      -28700.018     -28473.109    
    181600   281.29581     -17710.708     -28700.746     -28471.838    
    181700   319.18456      1078.8003     -28695.833     -28436.093    
    181800   305.10954     -19316.725     -28679.845     -28431.559    
    181900   293.04347     -4898.8756     -28688.166     -28449.699    
    182000   286.54538     -7083.286      -28699.09      -28465.911    
    182100   304.29294      3042.0182     -28709.057     -28461.435    
    182200   314.89944      3881.4752     -28691.723     -28435.47     
    182300   294.92877      611.05186     -28661.036     -28421.034    
    182400   310.23339     -7505.093      -28707.947     -28455.491    
    182500   282.76724     -15264.803     -28700.335     -28470.23     
    182600   313.46144      9330.6087     -28715.309     -28460.226    
    182700   297.81164     -2562.8169     -28686.463     -28444.115    
    182800   321.78824      3582.404      -28694.532     -28432.673    
    182900   314.57888     -7637.8327     -28695.038     -28439.046    
    183000   288.97434      150.91719     -28705.933     -28470.776    
    183100   281.85565      8974.2778     -28702.118     -28472.754    
    183200   301.06418      6551.9817     -28698.179     -28453.184    
    183300   307.16009     -11720.89      -28686.432     -28436.477    
    183400   306.26475     -15726.754     -28687.666     -28438.44     
    183500   286.51179     -6528.5911     -28685.09      -28451.938    
    183600   312.49945     -3093.2327     -28714.148     -28459.848    
    183700   286.34467     -4569.8568     -28688.452     -28455.436    
    183800   305.44921      3641.091      -28699.154     -28450.592    
    183900   323.73601      12553.605     -28708.81      -28445.367    
    184000   316.29908     -7183.8784     -28682.033     -28424.641    
    184100   310.6774      -4010.0676     -28656.416     -28403.599    
    184200   331.73559      5224.6927     -28698.503     -28428.549    
    184300   310.8274      -12112.024     -28703.633     -28450.694    
    184400   287.64119      1498.6998     -28685.091     -28451.02     
    184500   293.38287     -6133.8795     -28690.029     -28451.285    
    184600   299.7529      -6296.7812     -28693.082     -28449.155    
    184700   293.34507     -18402.363     -28685.953     -28447.24     
    184800   296.39763     -6545.9263     -28694.387     -28453.19     
    184900   288.45881     -4546.9093     -28696.235     -28461.499    
    185000   306.81479     -9785.1371     -28711.182     -28461.508    
    185100   311.59368     -7860.0142     -28696.413     -28442.85     
    185200   326.24015     -2587.9616     -28703.463     -28437.981    
    185300   283.78744     -880.3775      -28691.133     -28460.197    
    185400   289.61291     -8285.7055     -28713.573     -28477.897    
    185500   290.98005      3891.5682     -28704.077     -28467.289    
    185600   290.02759     -12219.31      -28691.592     -28455.579    
    185700   273.53243     -11567.619     -28670.988     -28448.398    
    185800   313.85662     -7864.7214     -28693.824     -28438.419    
    185900   312.73448      2261.2113     -28695.555     -28441.064    
    186000   282.96655     -10263.357     -28707.062     -28476.794    
    186100   294.76133     -16235.061     -28714.454     -28474.589    
    186200   303.3531       2584.1556     -28704.83      -28457.973    
    186300   314.30603     -3548.3666     -28698.188     -28442.418    
    186400   294.62638     -7557.4412     -28679.663     -28439.908    
    186500   315.10946      1636.5584     -28704.579     -28448.155    
    186600   295.33532     -3490.3789     -28721.071     -28480.739    
    186700   269.63452     -583.0269      -28717.193     -28497.775    
    186800   303.41317     -3385.3342     -28720.647     -28473.741    
    186900   331.48864     -6167.2675     -28721.305     -28451.553    
    187000   280.01393     -5738.4872     -28670.126     -28442.261    
    187100   313.22159     -14717.326     -28692.429     -28437.542    
    187200   286.94906     -18442.78      -28685.814     -28452.306    
    187300   290.46038     -5063.6573     -28716.214     -28479.849    
    187400   278.00036     -275.74301     -28705.79      -28479.564    
    187500   297.20752     -5185.0224     -28702.42      -28460.564    
    187600   286.8706       1434.5641     -28684.288     -28450.844    
    187700   303.31424     -2961.5051     -28693.549     -28446.723    
    187800   306.66587     -13277.433     -28695.736     -28446.184    
    187900   296.03293     -10772.955     -28699.484     -28458.584    
    188000   291.71388     -12516.879     -28720.292     -28482.907    
    188100   284.06478     -3336.7984     -28711.788     -28480.627    
    188200   292.32493     -14663.307     -28691.601     -28453.718    
    188300   318.05372     -14739.113     -28702.415     -28443.595    
    188400   312.3131      -2623.6282     -28703.096     -28448.947    
    188500   285.56694     -13462.742     -28694.422     -28462.039    
    188600   274.41267     -7934.0318     -28702.135     -28478.829    
    188700   278.56752      7905.5844     -28723.806     -28497.118    
    188800   278.9893      -6746.2497     -28712.379     -28485.348    
    188900   294.88005     -12404.221     -28696.478     -28456.517    
    189000   308.34151     -10078.168     -28700.241     -28449.325    
    189100   284.45119     -12389.189     -28687.734     -28456.259    
    189200   286.35793      2948.2261     -28674.451     -28441.424    
    189300   332.40064     -3159.1122     -28688.686     -28418.191    
    189400   311.58324      5357.7481     -28679.514     -28425.96     
    189500   299.33927     -5453.6113     -28694.396     -28450.806    
    189600   291.70926     -479.01385     -28694.301     -28456.919    
    189700   299.30963      3567.1852     -28700.265     -28456.699    
    189800   303.51392     -9343.2418     -28694.428     -28447.44     
    189900   315.42617     -75.044566     -28699.303     -28442.622    
    190000   308.84858     -1628.6754     -28686.498     -28435.169    
    190100   292.07834     -3303.7446     -28672.475     -28434.793    
    190200   327.04872     -4710.2394     -28723.06      -28456.92     
    190300   273.41341     -304.19381     -28691.681     -28469.187    
    190400   306.96635     -8049.937      -28702.265     -28452.468    
    190500   283.27295     -13408.956     -28683.718     -28453.202    
    190600   303.72317     -9721.1773     -28699.177     -28452.019    
    190700   315.74158      2426.7179     -28696.245     -28439.307    
    190800   319.91338     -3242.3436     -28664.918     -28404.585    
    190900   315.17025     -2170.0929     -28675.06      -28418.587    
    191000   306.68396      2884.0187     -28697.729     -28448.162    
    191100   297.76621     -7929.0391     -28701.095     -28458.785    
    191200   319.51833     -6875.4783     -28717.745     -28457.733    
    191300   292.76021     -17746.349     -28683.011     -28444.774    
    191400   332.40315     -2500.8435     -28690.109     -28419.612    
    191500   311.94119     -3943.4647     -28681.175     -28427.329    
    191600   307.27681     -8063.7143     -28707.721     -28457.671    
    191700   293.39959     -22997.604     -28703.659     -28464.902    
    191800   286.68416     -7655.0586     -28696.278     -28462.986    
    191900   288.95655     -5870.2896     -28684.245     -28449.104    
    192000   328.3992      -7998.3865     -28698.614     -28431.376    
    192100   317.8226       6161.2079     -28689.419     -28430.787    
    192200   298.75067     -8756.8445     -28707.678     -28464.566    
    192300   283.28998     -1421.0964     -28708.515     -28477.984    
    192400   306.97059     -3393.0768     -28719.914     -28470.114    
    192500   293.84306     -8452.4361     -28689.367     -28450.249    
    192600   325.11647     -1027.0702     -28706.705     -28442.138    
    192700   295.03257     -10234.427     -28671.074     -28430.988    
    192800   316.50427     -3471.6708     -28678.959     -28421.4      
    192900   306.44776      4234.3919     -28685.548     -28436.172    
    193000   295.00462      8661.8471     -28702.98      -28462.917    
    193100   302.21383     -7016.3386     -28713.701     -28467.771    
    193200   287.51713     -13026.356     -28691.707     -28457.737    
    193300   322.20399     -4958.2797     -28701.857     -28439.659    
    193400   319.77352     -270.90207     -28677.051     -28416.831    
    193500   298.74002      3636.4326     -28673.597     -28430.494    
    193600   281.17844     -13918.42      -28688.667     -28459.855    
    193700   278.01705     -10311.349     -28691.255     -28465.016    
    193800   315.35661     -5195.574      -28714.023     -28457.398    
    193900   296.54081     -20401.35      -28683.524     -28442.21     
    194000   311.79659     -8115.9977     -28679.956     -28426.228    
    194100   325.79162     -16556.952     -28688.895     -28423.778    
    194200   302.20907      10017.358     -28702.762     -28456.836    
    194300   278.89313     -4381.0283     -28699.067     -28472.114    
    194400   284.31362     -7542.9687     -28699.696     -28468.332    
    194500   320.58542     -8574.5874     -28704.149     -28443.269    
    194600   302.22837      1106.7815     -28683.958     -28438.017    
    194700   312.35346     -11003.859     -28705.354     -28451.172    
    194800   297.88321     -2131.6805     -28700.332     -28457.926    
    194900   300.39362      2121.1877     -28701.558     -28457.109    
    195000   298.65489     -12257.323     -28701.612     -28458.578    
    195100   312.5321      -4747.2126     -28713.995     -28459.669    
    195200   311.35887     -7506.6823     -28706.461     -28453.09     
    195300   300.22276     -9445.5775     -28683.356     -28439.047    
    195400   294.52169      486.49275     -28675.562     -28435.891    
    195500   295.46967     -12883.574     -28686.98      -28446.539    
    195600   303.46124     -2596.4959     -28714.272     -28467.328    
    195700   283.05029     -8588.8827     -28711.905     -28481.569    
    195800   303.55125     -7677.0939     -28714.171     -28467.153    
    195900   297.98269      433.58699     -28679.181     -28436.694    
    196000   299.96681     -10659.926     -28685.126     -28441.024    
    196100   315.81362     -8108.5776     -28716.225     -28459.229    
    196200   272.52278     -15403.433     -28691.784     -28470.016    
    196300   301.104       -22480.425     -28707.649     -28462.622    
    196400   324.18        -12904.782     -28697.592     -28433.787    
    196500   322.54172     -8469.127      -28692.367     -28429.895    
    196600   302.01588      2819.6696     -28695.975     -28450.207    
    196700   291.82532     -1855.7143     -28697.63      -28460.153    
    196800   303.49645     -5909.1896     -28704.18      -28457.206    
    196900   279.25841      5473.9179     -28674.325     -28447.076    
    197000   297.49111      5441.0819     -28676.996     -28434.909    
    197100   324.26974     -11278.33      -28685.047     -28421.168    
    197200   299.22786     -2854.1895     -28686.11      -28442.61     
    197300   309.42373      4113.7593     -28715.829     -28464.032    
    197400   287.01253      1810.134      -28701.63      -28468.07     
    197500   283.79022     -9941.5552     -28688.431     -28457.494    
    197600   308.15627     -366.67685     -28680.023     -28429.258    
    197700   337.41095      852.08046     -28692.897     -28418.325    
    197800   303.43572      2632.6597     -28681.836     -28434.912    
    197900   303.25825     -5473.4202     -28697.931     -28451.151    
    198000   290.10444     -12914.302     -28700.109     -28464.033    
    198100   274.44593     -3776.5442     -28689.557     -28466.224    
    198200   302.21358     -5198.3409     -28690.9       -28444.971    
    198300   304.26462     -6399.4016     -28671.213     -28423.614    
    198400   326.72516     -7909.5324     -28691.595     -28425.719    
    198500   290.46584      2288.6403     -28696.288     -28459.918    
    198600   292.88773     -5267.1152     -28708.423     -28470.083    
    198700   282.88576     -905.28554     -28693.467     -28463.265    
    198800   291.52412      787.56952     -28681.125     -28443.894    
    198900   318.84598     -16203.583     -28695.468     -28436.003    
    199000   300.39378     -11559.675     -28706.992     -28462.543    
    199100   278.20572     -11205.86      -28711.492     -28485.099    
    199200   298.7583      -7870.6486     -28714.401     -28471.283    
    199300   300.63639     -7234.545      -28695.145     -28450.499    
    199400   317.36373     -15033.455     -28697.253     -28438.995    
    199500   320.8551       1973.0842     -28703.63      -28442.53     
    199600   294.11967     -10734.844     -28712.238     -28472.895    
    199700   283.92357     -4008.1063     -28717.101     -28486.056    
    199800   291.55924     -9236.1506     -28707.089     -28469.83     
    199900   304.55898     -6623.9344     -28694.851     -28447.013    
    200000   313.74632     -1287.2249     -28691.336     -28436.021    
Loop time of 14144.8 on 8 procs for 200000 steps with 274 atoms

Performance: 0.611 ns/day, 39.291 hours/ns, 14.140 timesteps/s, 3.874 katom-step/s
81.4% CPU use with 4 MPI tasks x 2 OpenMP threads

MPI task timing breakdown:
Section |  min time  |  avg time  |  max time  |%varavg| %total
---------------------------------------------------------------
Pair    | 7559.7     | 7862.5     | 8092.3     | 234.9 | 55.59
Bond    | 0.71056    | 0.78266    | 0.84484    |   5.7 |  0.01
Neigh   | 130.72     | 131.92     | 133.86     |  10.9 |  0.93
Comm    | 3464.9     | 3706       | 4015.6     | 349.6 | 26.20
Output  | 7.8223     | 9.469      | 11.487     |  52.2 |  0.07
Modify  | 2389.8     | 2396.1     | 2402.8     |  10.7 | 16.94
Other   |            | 38.04      |            |       |  0.27

Nlocal:           68.5 ave          80 max          59 min
Histogram: 1 1 0 0 0 0 1 0 0 1
Nghost:         3222.5 ave        3285 max        3162 min
Histogram: 1 0 0 0 1 1 0 0 0 1
Neighs:          34893 ave       40273 max       30572 min
Histogram: 1 1 0 0 0 0 1 0 0 1

Total # of neighbors = 139572
Ave neighs/atom = 509.38686
Ave special neighs/atom = 0
Neighbor list builds = 3709
Dangerous builds = 0
# Save the equilibrated structure
write_data ${structure}_eq.data
write_data 333-EXP-6_eq.data
System init for write_data ...
WARNING: Compute rdf cutoff less than neighbor cutoff - forcing a needless neighbor list build (src/compute_rdf.cpp:179)
undump dump_eq
unfix myMSD
unfix myRDF
Total wall time: 3:55:53
