LAMMPS data file via write_data, version 2 Aug 2023, timestep = 20000, units = real

274 atoms
4 atom types

0.41613648371363965 15.069963516286474 xlo xhi
0.46074026481532115 13.609159735184697 ylo yhi
-0.2134780489346273 16.98447804893469 zlo zhi
-6.879296685292064 -1.0080632503885805 1.9222146783459875 xy xz yz

Masses

1 12.0107
2 1.00794
3 15.9994
4 28.0855

Atoms # full

13 2 4 1.38593107805592 1.14625199348569 2.78022217918438 5.851018799902054 0 0 0
15 2 4 0.8791417408660469 -0.14127792121243732 4.603768849116896 2.019600597456365 0 0 0
17 2 4 1.076920856190027 -0.7579655702021371 4.828758075949366 7.286747811090092 0 0 0
18 2 4 1.043102178151006 -1.7538728090866877 6.577428956238689 5.017746002579011 0 0 0
34 2 4 0.621577633366914 1.1440716107257218 6.192979319937946 4.08214560652483 0 0 0
56 2 1 -0.07926385830924376 1.0444853913580427 3.167671130058803 1.06041014722105 0 0 0
85 2 3 -0.8497124783057796 0.11535188230067217 3.9174067470795824 6.2998409030856966 0 0 0
86 2 3 -0.7631666807299233 -1.8236798377799222 5.590178095998667 6.315765723564085 0 0 0
105 2 3 -0.6921742552422754 0.8870913437328567 5.69351624046061 2.5607654490761687 0 0 0
172 2 2 0.0537203865422772 0.31454330899956934 2.426827962834336 0.8221362897754207 0 0 0
79 2 3 -0.6758051168414478 0.30212022327805677 1.340599347378845 4.619209796750582 0 0 0
171 2 2 0.1028381644517345 1.5661472469708666 3.672468608397595 0.22879552215778992 0 0 0
170 2 2 0.07691242295130482 1.7405089330729921 2.8647785104197907 1.859155736908797 0 0 0
80 2 3 -0.8450990467935313 1.4647923227604362 1.7158892105864996 6.985231287127048 0 0 0
82 2 3 -0.742779190203211 -0.9779311465788836 3.859046756133821 3.128669782926587 0 0 0
83 2 3 -0.6842721883360704 -1.6593126874041162 5.0355831986369095 0.6676480654389046 0 0 0
106 2 3 -0.6896401529779151 -0.19420399414599365 6.875100020409686 4.727975101344952 0 0 0
96 2 3 -0.8187013928370255 2.354597382306973 3.3982174421308957 5.043828636880704 0 0 0
155 2 2 0.2949716601105784 0.9865551571299069 1.0498609574370465 3.8819490679784554 0 1 0
178 2 2 0.0642226189657506 1.2750036730227285 5.9059682709191454 8.378748969181297 0 0 0
165 2 2 0.02483664102953214 6.948580663611448 7.72191307741592 6.79557652788194 0 0 0
8 1 2 0.1061232910081014 12.614340098402332 2.4349403850594515 6.32140134905573 0 0 0
16 2 4 0.8071839304948287 -0.7990508801263319 6.702762518233825 -0.08686429056252237 0 0 0
27 2 4 0.7931203255430457 3.19833544551168 4.677602813843476 4.479957184865827 0 0 0
33 2 4 1.17583967913477 4.274955472058513 5.575960314811312 1.7697903724755981 0 0 0
65 2 1 -0.06505418110451962 4.53959375667247 1.9522416503227054 5.592809687057834 0 0 0
100 2 3 -0.6650975344761126 4.62431118028794 5.515051989906284 5.698190994265326 0 0 0
103 2 3 -0.7439717291923097 3.7203624367682693 4.599157068990374 2.946156849812456 0 0 0
104 2 3 -0.6749986633629667 6.115169036555561 4.567577470591109 1.6555349661233056 0 0 0
107 2 3 -0.7798114190815176 3.6080498159090033 5.390135136772085 0.24852425680671247 0 0 0
163 2 2 0.3378382823937848 5.1281812333843835 6.016861313392118 5.04963762046206 0 0 0
195 2 2 0.1387016878938976 3.741515023409275 2.0899941990322817 6.3170168657125485 0 0 0
194 2 2 0.06001937476518256 4.2467221436792455 2.0635686833209688 4.569167513230231 0 0 0
30 2 4 0.7447130575154403 5.73582478847293 3.7074616408213754 5.78588724166498 0 0 0
28 2 4 0.9396589292697098 6.485794922074588 3.0029559287446665 0.5139579723706711 0 0 0
97 2 3 -0.8054105857646346 5.771867880390356 1.8349607973277793 1.423187221745479 0 0 0
148 2 2 0.3236650045384475 5.986869650878643 4.09016021119009 2.5113715541453976 0 0 0
43 2 4 1.041066485515143 8.05914894362136 2.9376668515077107 4.206703350775787 0 0 0
109 2 3 -0.6412808585979946 6.55965732508496 3.63783212190309 7.221910685248616 0 0 0
123 2 3 -0.7226388592815404 6.892999292146335 3.9661698386335766 4.632791356944238 0 0 0
162 2 2 0.05236443921580837 8.399836504250372 5.983860057293174 3.461975156278269 0 0 0
122 2 3 -0.8066937984101462 7.444653859082984 1.579654725569232 3.5025899196819914 0 0 0
257 6 1 -0.08211769046204151 8.552039736961325 2.583093498625596 0.2557942338760833 0 0 1
259 6 2 0.03309935930143216 8.63081027308991 1.5648181858990928 -0.0042841020509534755 0 0 1
160 2 2 0.2922431867987758 9.611841014568896 4.3087414858465465 8.284211311804617 0 0 0
260 6 2 0.1159199985503196 8.97549904099294 2.848727971009349 1.211536486192676 0 0 1
206 2 2 0.03609885549482861 2.562636495793938 7.898048373596465 8.21357790536087 0 0 0
26 2 4 1.098077091888669 6.0526592214249515 1.1888642860942964 2.817584800832378 0 1 0
49 2 4 0.9982758735104066 8.89671267237018 6.17436922008586 0.14837265400735905 0 0 0
58 2 1 -0.08985094138855194 0.4417301140456635 6.428509741584978 8.01753047618716 0 0 0
161 2 2 0.2881240478343396 12.255914222246377 5.4023472056959525 1.1108523631109113 0 0 0
2 1 4 0.6814943800206277 11.506365292947118 1.2618635145669737 2.0028682284757857 0 0 0
3 1 1 -0.07740429762234705 12.035195158954787 2.735261401182529 5.468520620972211 0 0 0
186 2 2 0.06129205003933598 10.077322976098676 7.5413184813570355 7.403939431418532 -1 0 0
7 1 2 0.072523451469756 11.976099812918351 3.780983687252677 5.250142069721537 0 0 0
128 2 3 -0.7236239834502348 9.374951775712987 3.489473246456377 3.4903638185017423 0 0 0
5 1 3 -0.6456323497534907 12.969165339456547 1.268434147374489 2.78075207065954 0 0 0
47 2 4 0.6191415657347163 9.531729569702923 4.962845046435832 2.801582910209968 0 0 0
271 17 2 0.09472950954117927 11.988899055283683 3.108740248259868 0.5681165689981045 0 1 0
130 2 3 -0.695351927662648 9.19343956483781 4.966305449067641 1.1922873074319653 0 0 0
129 2 3 -0.7365335069620979 4.540636268710534 7.230582048217227 2.1013598085076146 0 0 0
4 1 1 -0.1031647534271702 11.716569795970624 2.1394568080320786 0.23231064612884905 0 0 0
179 2 2 0.03490156795083769 11.607963076129309 6.367458257691799 2.4749748709082535 -1 0 0
1 1 4 0.7985342713638167 13.45666686908611 2.42274247772977 3.8683957930675366 0 0 0
180 2 2 0.02621948169207821 10.737276044916145 6.5729805411497315 4.055985777271593 -1 0 0
263 9 2 0.0566453500866507 11.758108343970022 4.88080997862221 3.587422988377127 0 0 0
9 1 2 0.06439702685549004 11.096529482289684 2.21576402162558 5.176798789192286 0 0 0
177 2 2 0.07398290754755679 0.5897907168542742 6.976874271129198 7.0831424844618915 0 0 0
168 2 2 0.2800086424078395 10.536890268473794 2.1271476154882927 7.5877143396514635 0 1 0
59 2 1 -0.1439741832561388 11.377630067757247 5.912726565152843 3.425248362624301 -1 0 0
212 2 2 0.05892953170142393 9.255734355971592 1.379307516800501 6.038490421447295 0 1 0
274 20 2 0.04680067051546974 6.9174065804608675 6.984736135458911 0.9107590420440224 0 0 1
14 2 4 0.793150809485627 1.0351946260609712 3.9000327742405103 11.42717777261299 0 0 0
19 2 4 0.5349766397644268 -0.6717989677058722 5.740729220296126 12.964362788746575 0 0 0
38 2 4 1.004750503201476 0.11303751833684317 7.5518078965284925 15.011508122977812 0 0 0
81 2 3 -0.7699611464430812 -0.3360778948896256 3.138980293601194 10.967464216756554 0 0 0
87 2 3 -0.6501911061454398 1.0967897446606585 5.872085506817557 12.052926527697407 0 0 0
88 2 3 -0.6395229564937012 -1.9021200397786502 6.676827687406387 12.48714866828776 0 0 0
112 2 3 -0.7007296839811527 -0.17760546069616512 5.9272191126532565 15.160542090791049 0 0 0
144 2 2 0.00619171320593506 1.5752008369461725 2.961370793006223 12.781639163885579 0 0 0
149 2 2 0.2493532772993451 0.7782594107131132 5.474692858544002 15.132720215516555 0 0 0
153 2 2 0.3359813999719745 1.8276211975316279 5.98969619590936 12.724643521804664 0 0 0
20 2 4 0.641624977003906 -2.349388999618829 6.808441470206514 10.931604084036884 0 0 0
113 2 3 -0.7490456581520277 1.7890002341805498 7.55047358912838 14.77946085014739 0 0 0
114 2 3 -0.7042932291162819 -0.3981062707967159 8.382424093536866 16.28841470006754 0 0 0
84 2 3 -0.7984360852890674 -1.360810065293216 4.039375979281843 8.634082190542715 0 0 0
182 2 2 0.03256658572055629 -0.7136068123445378 3.201927440152562 13.184772217300663 0 0 0
181 2 2 0.08942734137838911 12.41462600445756 3.9122419188958997 12.567270975504984 -1 0 0
12 2 4 1.13662819790915 -0.7676215007499687 2.7812577764583466 9.455905252847408 0 0 0
93 2 3 -0.6153129097710534 -1.57023910511522 7.939211348230479 10.111010721967801 0 0 0
196 2 2 0.0242952148620318 1.3962128701166039 3.6737334201462772 16.103155409177504 0 0 0
188 2 2 0.1027090883028593 0.7539831307107693 8.240993569214318 11.853722302042494 0 0 0
145 2 2 0.08825518028442457 -1.884582787513355 5.304489357280669 10.211311861095988 0 0 0
183 2 2 0.1073568631435487 10.044057450833053 8.002989630943002 11.0201133289842 -1 0 0
124 2 3 -0.7119628738482509 6.630250565973663 1.9107213379258445 11.139071872171032 0 0 0
267 13 2 0.03171140950190267 2.6006512721033275 2.585383657787083 15.191340512532529 0 1 0
66 2 1 -0.1238166231301698 2.434732574799284 3.347926556043463 15.940706088909058 0 0 0
99 2 3 -0.712364416560724 2.218567820953882 3.7954079663973586 10.261132242740548 0 0 0
10 1 2 0.03273492524662568 9.755762892634843 3.9814076526344273 16.93893145361153 0 0 -1
36 2 4 0.6588080447373591 5.8433294866950005 3.672660873029368 8.70258670703651 0 0 0
29 2 4 1.281864795250927 3.252204200283515 2.5703465072266622 9.90617108524685 0 0 0
31 2 4 0.6351664474112687 3.605411992945707 4.98550576077543 15.441615766914328 0 0 0
35 2 4 1.055011335338363 2.997280649039387 7.536209146573537 15.883258297231665 0 0 0
37 2 4 1.094510855918543 5.053774277853263 5.355962533417739 13.09627203493621 0 0 0
134 2 3 -0.7741011110630958 4.502732862846375 8.078540502699784 15.488737936591919 0 0 0
110 2 3 -0.7300267270734275 3.597446472902655 5.132136814133049 13.80232173304125 0 0 0
32 2 4 1.001452398093122 5.4688976599086745 2.6144969313571726 12.040220018035676 0 0 0
111 2 3 -0.7891565559564699 5.863921565786667 3.9521691054542654 12.880947236970437 0 0 0
202 2 2 0.04712166504676743 5.917752605595423 6.292272226836279 9.01282334764501 0 0 0
68 2 1 -0.1088879672576379 6.033107155981497 5.496227645117038 9.73036713759455 0 0 0
101 2 3 -0.7260479670942583 5.012311022488732 5.027886257916586 16.225713019135007 0 0 0
147 2 2 0.09974703346801397 7.006134652938944 4.289200041882937 15.037988920095067 0 1 0
203 2 2 0.04005880803723324 7.045265586959849 5.328071890819729 10.11896502924647 0 0 0
51 2 4 1.091810483584619 5.956859370299503 7.60690438073286 14.910862763209796 0 0 0
132 2 3 -0.7876208035897623 5.9554218306447195 6.521782001003011 13.637407920059095 0 0 0
133 2 3 -0.7473381677859932 7.146366573666978 7.4180385604734855 16.00750505570032 0 0 0
6 1 2 0.1259581698887631 6.988281140700369 3.6383259648165627 14.657677064515005 0 0 -1
201 2 2 0.02950731254263966 5.237893576422955 5.366452573801242 10.454993568153752 0 0 0
108 2 3 -0.7654513275938544 4.3933215572274715 3.0293071246736436 8.840614551572852 0 0 0
102 2 3 -0.7429670814819034 3.9383867186763726 2.2066144748573473 11.60909543226376 0 0 0
264 10 2 0.04860015179065397 12.795235849660221 4.06252181490652 14.346666208309248 0 0 0
215 2 2 0.05460449010175732 8.460788633927036 4.7007089478881685 11.646990321597132 0 0 0
237 3 2 0.0581304229210289 9.87575106975128 6.164338429775178 15.556601610496129 0 0 0
158 2 2 0.3007437033197419 11.128860169258735 4.228920537540569 8.690685924646697 0 0 0
176 2 2 0.1192328688349015 -0.09583307607281444 7.009170865569759 8.736880419495431 0 0 0
125 2 3 -0.6909471598261592 10.16323379665039 4.409559957590337 9.104936875675541 0 0 0
60 2 1 -0.0948854638165971 13.169737292001004 3.940485313935434 13.340329927713631 -1 0 0
231 3 4 0.6987585711946427 10.265119432888849 8.651968850093008 15.723938785587741 0 0 0
127 2 3 -0.710635097198948 11.360893641512986 2.2156332419606493 11.168278076195058 0 0 0
73 2 1 -0.06989889637454785 8.895542610331617 3.7420539077516186 11.972172814584145 0 0 0
126 2 3 -0.6388309433356182 8.52303679678587 2.1415345635695906 9.136599183813663 0 0 0
236 3 2 0.05169795481859427 9.112401058754992 7.066629631479653 14.172786714044793 0 0 0
214 2 2 0.1329653112205248 8.269691654595253 3.021532913765549 12.485913184304268 0 0 0
185 2 2 0.05657845754456216 9.984547047611464 6.724285307325088 9.842078930316157 -1 0 0
46 2 4 0.5992056611463846 9.614540849269867 2.718655539691036 10.221308109648888 0 0 0
184 2 2 0.03585560320517017 9.721667350824658 6.427616422937749 11.572007200322 -1 0 0
61 2 1 -0.09297421455112462 10.259342449058739 6.980955508092077 10.830022698228616 -1 0 0
216 2 2 0.04027873629075299 9.917867847251104 3.783407700121575 12.379124618189456 0 0 0
232 3 1 -0.09787549545599203 10.008367569665142 6.87758030079404 14.74666696914233 0 0 0
235 3 2 0.08475542231103893 10.867762446297396 6.66077931524603 14.143025541478469 0 0 0
44 2 4 0.5893458351451629 7.012336334655663 1.6514983213090508 9.563962047039476 0 0 0
233 3 3 -0.7189980503203302 9.22981127368556 8.89174480708592 16.94207748259511 0 0 0
187 2 2 0.07179907078236382 -3.3373514260057706 7.797390856080285 8.760485788866948 0 0 0
258 6 2 0.09209270525868946 7.778743242255708 5.176964205471045 16.64284549218263 0 0 0
197 2 2 0.05375069671828045 2.9175845038855734 3.1219479948369724 16.868031285656173 0 0 0
270 16 2 0.0429383037168708 11.493877500726297 3.526222940431469 16.907477736219434 0 0 0
21 2 4 0.846538778621915 -2.521963378678401 9.046984212661766 6.691224196552419 0 0 0
23 2 4 1.150615625592531 -2.623922579971953 12.022976346406018 6.565458641801711 0 0 0
91 2 3 -0.7017183448567356 -3.2051053835841996 10.529949792833873 6.246903951803493 0 0 0
92 2 3 -0.8333233739833681 -3.4138409680838757 13.218177471067738 7.260217945759014 0 0 0
116 2 3 -0.8275412451450832 -1.1492469599608284 12.18105289074908 5.953779429718943 0 0 0
11 2 4 1.405985849185806 -4.811995519464717 13.714896686247789 7.940784631369924 0 -1 0
115 2 3 -0.7922428781450664 -1.4172404551768707 12.927887228660772 3.358194675135234 0 0 0
118 2 3 -0.6229716329506649 -0.9021327064031077 9.317832525357288 7.777990167517389 0 0 0
89 2 3 -0.6885837863934496 -2.313952101198001 8.075945877516101 5.374274189949176 0 0 0
175 2 2 0.05929895449761062 -1.323269726484797 8.980194322082783 0.650192544353725 0 0 0
167 2 2 0.1032938151837105 3.2207467480173926 7.438717094817687 0.2922787425389808 0 0 0
200 2 2 0.05009131097863827 3.310431462006665 7.583267485086857 4.2025223100742695 0 0 0
57 2 1 -0.09713135111462207 -0.5992552656136729 8.398384401746798 1.2067174227989583 0 0 0
174 2 2 0.06750962964055754 -0.8699057935323786 8.112734292177635 2.2187420307583112 0 0 0
151 2 2 0.04951926048926397 -3.1641351428621505 12.721085835973472 1.0282220620405946 0 0 0
245 4 2 0.07567606350199566 -2.3105788079353666 12.75056596642326 1.0340609809301107 0 0 1
131 2 3 -0.6505392924843344 6.329404906080458 7.549630064664038 4.165945527869703 0 0 0
39 2 4 1.069035104321281 -0.6850653341501003 11.899528264366117 4.377994379191871 0 0 0
173 2 2 0.04607341889910412 0.4293491830206006 8.647688113585918 1.0745383721882191 0 0 0
156 2 2 0.2314193720687351 -0.285976676040432 9.919410221007286 7.0823333043524 0 0 0
139 2 3 -0.6526261462529757 3.5202718695735182 11.562595914269394 7.903488998361519 0 0 0
120 2 3 -0.7464308178940205 0.8872837376876054 11.781312323232711 4.05624716262465 0 0 0
121 2 3 -0.6697995807427211 1.8805337808941425 10.153173821968704 6.021734749719328 0 0 0
157 2 2 0.2225121926159927 0.8180183454807679 10.179122326830425 6.545675985781636 0 0 0
211 2 2 0.06159228702548075 0.7135467054040279 13.788767655855075 6.253725871301976 0 0 0
42 2 4 0.8132968923360904 2.1540527524884006 12.073639706279472 5.077474833129843 0 0 0
40 2 4 0.5647314817854446 2.976422579024276 10.183233420660413 7.236475204552776 0 0 0
52 2 4 0.6671865594878865 3.836591041184719 11.85423874163576 2.8157958899701283 0 0 0
70 2 1 -0.1253862506196397 4.590092212464825 8.881736861130957 6.417244356302043 0 0 0
71 2 1 -0.07164285593998163 1.7788981791838852 13.7075246566172 6.3468759622051865 0 0 0
135 2 3 -0.678816284597195 3.7814839128587163 13.083880701637058 1.7459707903237403 0 0 0
136 2 3 -0.689786720859406 3.5656123562413957 12.274582198833848 4.336990178239958 0 0 0
210 2 2 0.1019913610885659 2.0107032301555083 13.33500571917653 7.300548058081125 0 0 0
208 2 2 0.04410649005003248 5.1356114208570816 8.984059309587602 7.33131242003447 0 0 0
76 2 1 -0.1324802895738388 5.324875499951248 10.223783206634115 2.460688618165866 0 0 0
227 2 2 0.1260415408494254 5.246152898228381 12.369991342466506 6.628875265462935 0 0 0
207 2 2 0.0549459401120377 4.093193986035363 7.8751609673453835 6.359683169162553 0 0 0
199 2 2 0.06940615469379507 2.246427070129825 8.07105115973635 2.8611645534776313 0 0 0
209 2 2 0.03656643316447276 4.421516354097271 9.523442161801645 5.545970564152271 0 0 0
164 2 2 0.178365986606965 1.3759010409861427 12.894645062228552 2.5433871102348227 0 0 0
225 2 2 0.1099605833898524 5.964352693007508 12.532932782237342 4.9038600495640665 0 0 0
198 2 2 0.1196781949024678 1.7860329713725576 8.585127808149219 4.564627661063808 0 0 0
223 2 2 0.03897948694844028 5.2185980860351515 10.087318317325819 3.5676478689290225 0 0 0
67 2 1 -0.07808724387540009 2.3186511886819305 7.909012738281815 3.9042753856750414 0 0 0
62 2 1 -0.07259292740999651 10.66490233503666 8.241530952672244 8.020840546204647 -1 0 0
265 11 2 0.1046610498401636 10.200009074814702 9.187031498655514 8.282921328486953 0 0 0
222 2 2 0.01323544140099509 4.579266107952199 9.841633499927664 1.74765139334324 0 0 0
218 2 2 0.03381789402238123 8.180392870945557 7.890730010275778 1.9688516025601155 0 0 0
137 2 3 -0.6580010307168369 7.379327484689244 9.965660488818271 5.245259021117987 0 0 0
48 2 4 0.6355689729735877 5.863972399828181 8.003226716537622 2.624080895673907 0 0 0
226 2 2 0.1190297423372536 6.785461787182371 13.33659141647625 6.288046942129021 0 0 0
138 2 3 -0.6548379873749571 6.8507953111881505 10.311985645834586 8.209794840426184 0 0 0
77 2 1 -0.03829599215389171 6.096600498722318 12.560866152795809 5.995791119793483 0 0 0
50 2 4 0.6471839512159011 6.550336058359029 8.611931360278582 5.374060897898768 0 0 0
217 2 2 0.02976406751237475 7.396437555834996 8.665010446989418 0.4803636102861001 0 0 0
53 2 4 0.6615926195349832 7.445514544386369 11.033414171759178 6.4332481821074206 0 0 0
90 2 3 -0.7072373752467066 8.6878699402604 12.039256963033925 7.955175677491882 -1 0 0
74 2 1 -0.1342774223045857 7.467114769347296 7.86286891926923 1.1968438237529944 0 0 0
224 2 2 0.04859895786606332 6.250929886336787 10.593172824400916 2.01729690133948 0 0 0
140 2 3 -0.6001347900970837 4.054470163457803 14.38298660475722 7.752680943669664 0 0 0
262 8 2 0.09110417309203529 2.5212989967693145 7.586721391770563 0.1258231489249534 0 0 0
193 2 2 0.08966227977580774 -1.7214062770259888 14.252646359879554 5.784357145066685 0 -1 0
25 2 4 0.6296446738269934 -3.8879097952735044 10.96302006747421 10.77115702544517 0 0 0
64 2 1 -0.06902821669025075 -4.190800941321331 12.782141805816092 11.801787530353725 0 0 0
95 2 3 -0.6182811031051876 -3.039271316304088 9.806015409691625 12.12353247633147 0 0 0
119 2 3 -0.642235263099096 -3.124867081065874 11.227593545370006 9.438240686323814 0 0 0
191 2 2 0.126771177492658 -3.280609032529618 13.368324614624635 11.63674787825309 0 0 0
192 2 2 0.03615591746786014 -4.389572123809567 12.483889400292064 12.801806656799103 0 0 0
41 2 4 0.3674594557006366 -1.592279368155738 10.811596233842302 9.065630272906164 0 0 0
234 3 2 0.2931945630384086 -2.520018269451808 10.45245829284827 12.632717444150407 1 0 0
266 12 2 0.1020192684167961 -5.115835514572972 13.114433688883283 11.30908035285264 0 -1 0
98 2 3 -0.8206250205782605 -4.564143150630072 14.405965079857136 9.363288230889887 0 -1 0
240 4 1 -0.1107142604663447 -2.072726684765574 14.354687072106094 15.662448462008589 0 0 0
268 14 2 0.03811608828716994 -2.7008607635773023 13.475610788403246 15.69262143310921 0 0 -1
269 15 2 0.04699689046321195 -1.4874792563225592 14.457684003588927 16.55951721762952 0 0 -1
246 4 2 0.04103846368188988 -2.5594517548635993 15.281541741440485 15.405148303574098 0 0 0
24 2 4 0.4324540589659743 -1.3749241839393527 9.316240277726948 10.922006887877393 0 0 0
254 5 3 -0.7213122905519643 6.791278764619103 14.501273826033964 8.679880902487941 0 -1 0
204 2 2 0.05810446353692006 1.3646770625006817 9.088453248916828 8.819064476352057 0 0 0
69 2 1 -0.1228000981926845 2.4118700021814226 8.874586330461888 8.69274599920492 0 0 0
253 5 4 0.4470491673092548 4.571958681780265 14.283631905119195 9.291349306361798 0 -1 0
150 2 2 0.2471155555467603 -0.5204593863204064 12.498653145133684 12.173422605501639 0 -1 0
154 2 2 0.2535314938514212 -0.5162536183607757 11.737970781842042 13.564884096868257 0 0 0
272 18 2 0.01615695933346359 -0.24186139740010626 12.53829285718636 10.161014274828796 0 0 0
63 2 1 -0.08938583895308737 0.3574979194702185 9.17876289839064 12.19235347722377 0 0 0
238 4 4 0.4165982678888087 -0.8758848285101202 14.123827747112166 13.97975003547075 0 0 0
117 2 3 -0.6853393500830378 -1.1314155463636462 12.281655606795056 13.014498652876942 0 0 -1
228 2 2 0.07890626962376421 1.675863903691997 12.667567079281921 10.97139977850512 0 0 0
230 2 2 0.001328447321266418 1.2270818720207828 11.038171040271346 10.198205659574636 0 0 0
229 2 2 0.06275952099381726 2.4507752398242784 11.230181264040482 11.552463291761391 0 0 0
78 2 1 -0.1224492484910446 1.9681604849128305 11.6707865978632 10.695605937573239 0 0 0
72 2 1 -0.1270357257969295 -0.42883379136611044 12.70923106101022 9.05843938346151 0 -1 0
243 4 3 -0.7016118550918525 2.7580942768136008 13.670973687444047 12.675884029215533 0 0 0
242 4 1 -0.1224444241892668 3.253554510279006 14.186386098673779 15.719046372606467 0 0 0
45 2 4 0.9652262997265704 4.25360829148959 14.268267571104102 12.295336095837587 0 -1 0
249 4 2 0.03455031845564226 0.7173780831638321 11.62039585712116 15.05754111803519 0 0 0
247 4 2 0.01769614151165225 2.4195997520680272 11.639861003788933 15.523917176542703 0 0 0
54 2 4 0.62052723101993 3.581728978337616 11.939544756659513 9.497115382401352 0 0 0
239 4 4 0.615278483249967 2.023497560923019 13.639172423664734 14.131144430003415 0 0 0
241 4 1 -0.1279574004537476 1.7430209058840258 11.696107129038595 14.689807073912435 0 0 0
244 4 3 -0.6235114792837877 0.6769004610098524 14.561498241448664 14.11992072389789 0 0 0
248 4 2 0.05110530857371332 2.054446346168166 11.143353805047656 13.818849047006585 0 0 0
251 4 2 0.06914010171101155 2.448807060170398 14.42780118685906 16.41798267637452 0 0 0
190 2 2 0.02179543514616282 0.984168582802624 10.064316802707406 12.037129645118414 0 0 0
205 2 2 0.04045263519152026 2.992738498963206 9.11629567347023 9.5816921414206 0 0 0
250 4 2 0.0301802441460455 3.958717510651551 13.419223313807308 15.995777217013439 0 0 0
252 4 2 0.01732281723808985 3.7325924618230735 15.038106324526835 15.25006632572007 0 0 0
221 2 2 0.03563592902292595 6.989706781787325 10.101289588182526 14.486463170593312 0 0 0
261 7 3 -0.6470680826390575 -2.864420779872135 9.165864033616511 15.961416438044834 0 0 0
55 2 4 1.021746542693724 5.993207835402567 12.150295646485013 11.155689084147939 0 0 0
255 5 2 0.3082385115053174 6.015949185358797 10.796936969290808 8.586469131852319 0 -1 0
159 2 2 0.06992807709491579 6.754333631261104 8.388777590598407 9.673273376225332 0 0 0
94 2 3 -0.6594119043030358 8.99394059687855 9.97870771579746 10.619563009317838 -1 0 0
220 2 2 0.03979050473132581 7.107620734278078 8.985001643136313 13.067226634456116 0 0 0
75 2 1 -0.1157057709569271 6.490525641918994 9.405230541052763 13.853083563359284 0 0 0
146 2 2 0.3352067403925408 7.152446673971376 13.64389448283557 9.11944796981804 -1 0 -1
22 2 4 0.9191225015299692 8.24355822447744 11.38883777344967 9.374528007244857 -1 0 0
219 2 2 0.05091154158502869 5.538660802291561 9.76022264576346 13.500611546358938 0 0 0
143 2 3 -0.778536556583533 5.398778990081118 13.121329877890155 12.323078773286133 0 0 0
142 2 3 -0.7478203000772463 4.899642202592387 11.384000653310578 10.22363589507374 0 0 0
141 2 3 -0.7932433242606783 7.460921829438391 12.342316071716683 10.544721480107818 0 0 0
169 2 2 0.240004189488978 8.605691399296497 10.2745111877109 11.557845068555539 0 0 0
189 2 2 0.04277133122369974 -0.1400663954620327 9.185222374144594 13.151777757682376 0 0 0
152 2 2 0.06277990754390385 -6.767252390583685 14.424973767226408 12.406069662413007 1 0 0
256 5 2 0.09994581552858212 7.125887869953305 14.392337367828455 12.508593840878197 0 0 0
273 19 2 0.02412044916792547 0.4651505592275693 12.401527016571553 8.426843237250054 0 0 0
166 2 2 0.06059171972831584 6.909919423972417 8.435055225057148 10.29332307979387 0 0 0
213 2 2 0.06842694935923924 -1.3801947036522348 13.124414116012668 8.765109052425013 0 -1 0

Velocities

13 -0.0019355611289978054 -0.0025919080734476347 0.0013944228391541702
15 -0.0003299795107316404 0.0016276786630482543 -0.004921732981027202
17 0.0022503280836314076 0.00029232700726415824 -0.0005116535498026777
18 0.005632446761683162 -0.004862208850079861 -0.00314549611404749
34 -0.0018317978151419778 -2.4153707075918213e-05 -0.002162439930807292
56 0.003924056885976345 0.0022499772523413447 0.003904117812734914
85 -0.006245527294875753 -0.005889562306097469 0.0014575805871217152
86 0.001076170431430045 -0.0030849329494596575 -0.002650007054688142
105 0.0013783056267799426 0.001374514916231033 0.00047587891690420686
172 -0.024147895581693838 0.006458810894822374 0.023799329347622633
79 -0.0021611748283304724 -0.0019247775028989281 -0.000791420884091322
171 -0.01624061126559378 -0.02184928441662063 0.0037965425153595423
170 -0.0006038105601656428 -0.010650475891760902 0.0022569332744316003
80 0.0024109830541115393 -0.0023799433194876727 0.004781453693018419
82 0.0028891811155877926 -0.0034237968992052365 -0.008942699636910141
83 -0.0005260273748018408 0.006615649318682982 0.003108243435469663
106 0.006534035050156786 -0.0015059150796960523 -0.004704725956286126
96 0.0016218784651751156 0.0061403692491012185 -0.0012546717588504932
155 0.02958778543081688 0.008264200643257606 -0.023948039758625892
178 0.001485683797690383 0.01190774402412074 -0.0004467712912769136
165 -0.010271765511396897 0.0028956472707864452 0.018059947989782534
8 -0.011984505724152642 -0.0015786822974515461 0.004503639667198327
16 -0.001811801746298903 -0.0016599222084609858 0.006294281490246135
27 -0.003502015354960108 -0.001254734122109101 -0.00037311333379936494
33 0.0018258533791077817 -0.005443593797442012 0.005232506912817147
65 0.011695764965344847 0.00038123524135764167 -0.003640403526216164
100 0.002065208352488641 -0.0012955426777895769 0.00042222923557304646
103 -0.005590348381788359 0.005595231555674826 -0.0002953143619177098
104 0.003657048986764716 -0.0013579968010927423 0.004537128970547932
107 -0.0036758186154817 -0.0019330182292282409 -0.00425417381995252
163 0.0029420779565374764 0.0034586525627340226 0.021636281445802836
195 0.00504993921602094 0.015062115019002186 0.01217508537157855
194 -0.0038091716412618003 0.0129223470230642 -0.004144406529962474
30 0.006121762857339519 -0.0036537619466321886 -0.0020945823348883356
28 0.0014543771211830796 -0.0011370934541659941 0.0025567424728640113
97 -0.006796299319193254 -0.003582527018271878 -0.0005501824174099539
148 0.028009499572992338 0.0018673112662598319 -0.0031517398226180793
43 -0.00097964948393214 0.0015653342382165563 0.0029894150186322963
109 -0.00031308417511867036 -0.0011159555842833598 -0.0005868714610724969
123 0.005653939344357376 0.002739607990001625 8.176612960952621e-05
162 0.009610154547761244 -0.0054915209952611154 -0.002985320798063166
122 0.005897556925226475 0.0003655822499234304 0.0003320524875901923
257 0.00046217374433548417 -0.004715088084334072 -0.00549725535204969
259 -0.012399033563749554 0.004145456498620088 -0.005671397280760348
160 0.017979270050748262 0.0007864897588491283 0.011111155104482535
260 0.019817744137687967 0.01024390329646676 -0.009398518782831234
206 -0.012981822139285469 0.0201709216950307 -0.01863042297262744
26 0.005749933899720872 -0.00047386290387694207 0.005783897501099041
49 0.0010928519932355812 -0.0022804604814195147 0.0006909430013606571
58 0.001426884507041037 0.002138597361665378 0.0016713939128874123
161 0.001336359334644188 -0.01913969509553777 -0.018140631657527908
2 -0.006213930676789388 -0.0016500410749881547 -0.006033453151735542
3 0.0038847213940242705 0.005623233983963353 0.0014376350639558509
186 0.013436952551717085 -0.027646885935381085 0.0033046244396324116
7 -0.0005673375381847691 0.011939905588972424 0.009695552814638879
128 0.007193598592869483 -0.0046437651295555505 0.005185789853736508
5 -0.0019798834787717714 0.006922014892385825 0.0031178729638973233
47 -0.0003663843806945719 0.00209651941829771 0.00042481307292756087
271 0.01394318868019532 -0.004252139053170151 -0.014933850083179417
130 0.00027392031918404777 -0.0002021929253050126 0.004731893832254817
129 0.003558347773018464 -0.004927450941027124 0.010851297108251508
4 0.001322874357946481 -0.003293589930297646 0.0011232287190851863
179 0.026698101571030936 0.011245439552861409 -0.001042102065456827
1 -0.0005215670956455198 0.00012421974615663573 -0.0009398119687123447
180 0.014153631297275121 0.012773033332608754 0.003915903776147693
263 0.0062075937142577016 0.005232777068754298 -0.0032216026733312346
9 -0.010742852694446256 -0.0029061521615901414 0.0036924895461301543
177 0.027044624226230867 -0.015130911064758069 -0.0035216855420490364
168 0.019152080705910807 0.008821858437635995 0.018097951585722423
59 0.006530257941349357 0.005351422242959216 0.001093981245033292
212 0.02278953680297206 0.00760923985639567 -0.012706317106198881
274 0.004952162736683387 -0.021931478347833426 -0.03789144373890656
14 -0.00029050892259426095 0.0028745438166748556 -0.0001299468142242191
19 -0.0015513780655442711 0.0016186905964523295 -8.670721843141465e-05
38 -0.00024414086768936253 -0.0004792981447565837 0.003744524648624234
81 -0.00040079335680812947 0.001676197112120852 0.009045353886544918