LAMMPS (2 Aug 2023 - Update 2)
  using 2 OpenMP thread(s) per MPI task
# Initialization
units           real
dimension       3
boundary        p p p
atom_style      full
timestep        0.5   # fs

variable       nevery equal 1000
variable       nrepeat equal 1
variable       nfreq equal ${nevery}*${nrepeat}
variable       nfreq equal 1000*${nrepeat}
variable       nfreq equal 1000*1
variable       nthermo equal ${nfreq}/10
variable       nthermo equal 1000/10
variable       nrun equal 1200*${nthermo}          # stpes of equilibrated run 1000 (30 min)
variable       nrun equal 1200*100          

variable temp equal 300.0                # temperature of initial sample
variable tdamp equal 50.0                 # time constant for thermostat
variable seed equal 123456                # seed for thermostat
variable ufac equal 1.01325e-4         # pressure unit conversion, from atm to Gpa
variable up equal .6                  # the deformation magnitude 0.01

variable FF string "SiOCHN_2018.ff C H O Si"   # force field args for pair_coeff
# pair_coeff * * CHONSSi.ff O Si
# pair_coeff * * CHOSiNa.ff O Si
# 2019: pair_coeff * * SiOCHN_2018.ff C H O Si
# pair_coeff * * PDMSDecomp.ff Si O
# 2020: pair_coeff * * CHONSi.ff C H O Si
# pair_coeff * * CHOFe.ff O Si
variable structure string 333U-50C-5_eq

# Read the initial sctructure
# box tilt large
read_data       ${structure}.data
read_data       333U-50C-5_eq.data
Reading data file ...
  triclinic box = (0 0 0) to (15.6782 14.2194 17.6383) with tilt (-7.0409 -1.0144 0.675)
  2 by 2 by 2 MPI processor grid
  reading atoms ...
  350 atoms
  reading velocities ...
  350 velocities
Finding 1-2 1-3 1-4 neighbors ...
  special bond factors lj:    0        0        0       
  special bond factors coul:  0        0        0       
     0 = max # of 1-2 neighbors
     0 = max # of 1-3 neighbors
     0 = max # of 1-4 neighbors
     1 = max # of special neighbors
  special bonds CPU = 0.001 seconds
  read_data CPU = 0.010 seconds

# Assign the force field
pair_style reaxff NULL safezone 3.0 mincap 150
pair_coeff * * ${FF}
pair_coeff * * SiOCHN_2018.ff C H O Si
WARNING: Van der Waals parameters for element SI indicate inner wall+shielding, but earlier atoms indicate a different van der Waals method. This may cause division-by-zero errors. Keeping van der Waals setting for earlier atoms. (src/REAXFF/reaxff_ffield.cpp:251)
# charge method for reaxff
fix myqeq all qeq/reaxff 1 0.0 10.0 1.0e-6 reaxff maxiter 400

# # Energy minimization
# print "*****Minimization starts.*****"
# dump dump_opt all custom 1 dump/dump_opt.lammpstrj id type q x y z
# minimize 1.0e-6 1.0e-6 100 1000
# min_style cg
# # Save the optimized structure
# write_data ${structure}_opt.data
# undump dump_opt
# unfix bondinfo

velocity        all create ${temp} ${seed} dist gaussian
velocity        all create 300 ${seed} dist gaussian
velocity        all create 300 123456 dist gaussian

# # Equilibration
# variable       nequil equal 10*${nthermo}  # 2000: 100 ps
# include ff.mod.lmp
# if "$(is_defined(fix,avgp))" then "unfix avgp"
# if "$(is_defined(fix,avgl))" then "unfix avgl"
# thermo_style custom step temp pe press density vol
# dump dump_eq all custom ${nthermo} dump/dump_eq.lammpstrj id type q x y z

# run ${nequil}
# # Save the equilibrated structure
# write_data ${structure}_eq.data
# undump dump_eq

# use tmp to save initial length and tilt
variable tmp equal lx
variable lx0 equal ${tmp}
variable lx0 equal 15.6782
variable tmp equal ly
variable ly0 equal ${tmp}
variable ly0 equal 14.2194
variable tmp equal lz
variable lz0 equal ${tmp}
variable lz0 equal 17.6383

variable tmp equal yz
variable yz0 equal ${tmp}
variable yz0 equal 0.675
variable tmp equal xz
variable xz0 equal ${tmp}
variable xz0 equal -1.0144
variable tmp equal xy
variable xy0 equal ${tmp}
variable xy0 equal -7.0409

# velocity all create ${temp} ${seed} dist gaussian
# Write restart
write_restart equil.res
System init for write_restart ...
Neighbor list info ...
  update: every = 1 steps, delay = 0 steps, check = yes
  max neighbors/atom: 2000, page size: 100000
  master list distance cutoff = 12
  ghost atom cutoff = 12
  binsize = 6, bins = 4 3 3
  2 neighbor lists, perpetual/occasional/extra = 2 0 0
  (1) pair reaxff, perpetual
      attributes: half, newton off, ghost
      pair build: half/bin/newtoff/ghost
      stencil: full/ghost/bin/3d
      bin: standard
  (2) fix qeq/reaxff, perpetual, copy from (1)
      attributes: half, newton off
      pair build: copy
      stencil: none
      bin: none

# uzz Perturbation
variable dir equal 3
include displace.mod.lmp
# Find which length (epsilon) to calculate
if "${dir} == 1" then    "variable len0 equal ${lx0}"    "variable dlen equal lx-${len0}"
if "${dir} == 2" then    "variable len0 equal ${ly0}"    "variable dlen equal ly-${len0}"
if "${dir} == 3" then    "variable len0 equal ${lz0}"    "variable dlen equal lz-${len0}"
variable len0 equal ${lz0}
variable len0 equal 17.6383
variable dlen equal lz-${len0}
variable dlen equal lz-17.6383
if "${dir} == 4" then    "variable len0 equal ${lx0}"    "variable dlen equal 2*(yz-${yz0})"
if "${dir} == 5" then    "variable len0 equal ${ly0}"    "variable dlen equal 2*(xz-${xz0})"
if "${dir} == 6" then    "variable len0 equal ${lz0}"    "variable dlen equal 2*(xy-${xy0})"

# strain vector (epsilon)
variable eps equal v_dlen/v_len0

# stress vector (sigma)
variable sig1 equal -f_avgp[1]*${ufac}
variable sig1 equal -f_avgp[1]*0.000101325
variable sig2 equal -f_avgp[2]*${ufac}
variable sig2 equal -f_avgp[2]*0.000101325
variable sig3 equal -f_avgp[3]*${ufac}
variable sig3 equal -f_avgp[3]*0.000101325
variable sig4 equal -f_avgp[6]*${ufac}
variable sig4 equal -f_avgp[6]*0.000101325
variable sig5 equal -f_avgp[5]*${ufac}
variable sig5 equal -f_avgp[5]*0.000101325
variable sig6 equal -f_avgp[4]*${ufac}
variable sig6 equal -f_avgp[4]*0.000101325

# Reset box and simulation parameters
clear
  using 2 OpenMP thread(s) per MPI task
# box tilt large
read_restart equil.res
Reading restart file ...
  restart file = 2 Aug 2023, LAMMPS = 2 Aug 2023
  restoring atom style full from restart
  triclinic box = (0 0 0) to (15.6782 14.2194 17.6383) with tilt (-7.0409 -1.0144 0.675)
  2 by 2 by 2 MPI processor grid
  pair style reaxff stores no restart info
  350 atoms
Finding 1-2 1-3 1-4 neighbors ...
  special bond factors lj:    0        0        0       
  special bond factors coul:  0        0        0       
     0 = max # of 1-2 neighbors
     0 = max # of 1-3 neighbors
     0 = max # of 1-4 neighbors
     1 = max # of special neighbors
  special bonds CPU = 0.000 seconds
  read_restart CPU = 0.004 seconds

# Positive deformation
variable delta equal ${up}*${len0}
variable delta equal 0.6*${len0}
variable delta equal 0.6*17.6383
variable deltaxy equal ${up}*xy
variable deltaxy equal 0.6*xy
variable deltaxz equal ${up}*xz
variable deltaxz equal 0.6*xz
variable deltayz equal ${up}*yz
variable deltayz equal 0.6*yz
if "${dir} == 1" then    "fix deform_p all deform ${nthermo} x delta 0 ${delta} xy delta ${deltaxy} xz delta ${deltaxz} remap v units box flip no"
if "${dir} == 2" then    "fix deform_p all deform ${nthermo} y delta 0 ${delta} yz delta ${deltayz} remap v units box flip no"
if "${dir} == 3" then    "fix deform_p all deform ${nthermo} z delta 0 ${delta} remap v units box"
fix deform_p all deform ${nthermo} z delta 0 ${delta} remap v units box
fix deform_p all deform 100 z delta 0 ${delta} remap v units box
fix deform_p all deform 100 z delta 0 10.58298 remap v units box
if "${dir} == 4" then    "fix deform_p all deform ${nthermo} yz delta ${delta} remap v units box flip no"
if "${dir} == 5" then    "fix deform_p all deform ${nthermo} xz delta ${delta} remap v units box flip no"
if "${dir} == 6" then    "fix deform_p all deform ${nthermo} xy delta ${delta} remap v units box flip no"

# Run deformation MD
print "*****Positive-deform ${dir} starts.*****"
*****Positive-deform 3 starts.*****
# Save bond information
fix bondinfo all reaxff/bonds ${nthermo} bonds/bonds.pos${dir}.reaxff
fix bondinfo all reaxff/bonds 100 bonds/bonds.pos${dir}.reaxff
fix bondinfo all reaxff/bonds 100 bonds/bonds.pos3.reaxff
# Reset neighbor style
neighbor        2 bin
neigh_modify    every 10 delay 0 check no

include ff.mod.lmp
# Setup forcefield, system
# undefine any fix ave/* fix before using reset_timestep
if "$(is_defined(fix,avgp))" then "unfix avgp"
if "$(is_defined(fix,avgl))" then "unfix avgl"
reset_timestep 0

# Assign the force field
pair_style reaxff NULL safezone 3.0 mincap 150
pair_coeff * * ${FF}
pair_coeff * * SiOCHN_2018.ff C H O Si
WARNING: Van der Waals parameters for element SI indicate inner wall+shielding, but earlier atoms indicate a different van der Waals method. This may cause division-by-zero errors. Keeping van der Waals setting for earlier atoms. (src/REAXFF/reaxff_ffield.cpp:251)

# charge method for reaxff
fix myqeq all qeq/reaxff 1 0.0 10.0 1.0e-6 reaxff maxiter 400
# fix bondinfo all reaxff/bonds ${nthermo} bonds.reaxff
# Setup neighbor style
neighbor        2 bin
neigh_modify    every 10 delay 0 check no

# Setup output
thermo		${nthermo}
thermo		100
thermo_style custom step temp press vol lz density
# thermo_style custom step vol lx ly lz yz xz xy
thermo_modify norm no
# thermo_modify line multi

# Sample pressure (and length vector)
fix avgp all ave/time  ${nevery} ${nrepeat} ${nfreq} c_thermo_press mode vector
fix avgp all ave/time  1000 ${nrepeat} ${nfreq} c_thermo_press mode vector
fix avgp all ave/time  1000 1 ${nfreq} c_thermo_press mode vector
fix avgp all ave/time  1000 1 1000 c_thermo_press mode vector
# fix avgp all ave/time  10 10 ${nthermo} c_thermo_press mode vector
# variable lx equal lx
# variable ly equal ly
# variable lz equal lz
# fix avgl all ave/time  ${nevery} ${nrepeat} ${nfreq} v_lx v_ly v_lz

# nvt
fix fnvt all nvt temp ${temp} ${temp} ${tdamp}
fix fnvt all nvt temp 300 ${temp} ${tdamp}
fix fnvt all nvt temp 300 300 ${tdamp}
fix fnvt all nvt temp 300 300 50


# Save stress, strain to "./stress_strain/stress_strain.pos${dir}.out"
print "# Stress and strain vectors, ${structure}, positive deformation ${dir}"       file stress_strain/stress_strain.pos${dir}.out screen no
print "# Stress and strain vectors, ${structure}, positive deformation ${dir}"       file stress_strain/stress_strain.pos3.out screen no
fix data all print ${nfreq} "${eps} ${sig1} ${sig2} ${sig3} ${sig4} ${sig5} ${sig6}"       append stress_strain/stress_strain.pos${dir}.out screen no       title "# eps sig1 sig2 sig3 sig4 sig5 sig6"
fix data all print 1000 "${eps} ${sig1} ${sig2} ${sig3} ${sig4} ${sig5} ${sig6}"       append stress_strain/stress_strain.pos${dir}.out screen no       title "# eps sig1 sig2 sig3 sig4 sig5 sig6"
fix data all print 1000 "${eps} ${sig1} ${sig2} ${sig3} ${sig4} ${sig5} ${sig6}"       append stress_strain/stress_strain.pos3.out screen no       title "# eps sig1 sig2 sig3 sig4 sig5 sig6"

# compute MSD and RDF
compute msd1 all msd
fix myMSD all ave/time 10 10 ${nthermo} c_msd1[1] c_msd1[2] c_msd1[3] c_msd1[4] c_thermo_temp     file msd.out     title2 "# TimeStep MSD_X MSD_Y MSD_Z MSD_Total Temperture"
fix myMSD all ave/time 10 10 100 c_msd1[1] c_msd1[2] c_msd1[3] c_msd1[4] c_thermo_temp     file msd.out     title2 "# TimeStep MSD_X MSD_Y MSD_Z MSD_Total Temperture"
# C-C C-Si Si-O C-H Si-Si
compute rdf1 all rdf 100  1 1  1 4  3 4  1 2 cutoff 5.0
fix myRDF all ave/time ${nevery} ${nrepeat} ${nfreq} c_rdf1[*]     file rdf.out mode vector     title3 "# Row r g1(r) coor1(r) ..."
fix myRDF all ave/time 1000 ${nrepeat} ${nfreq} c_rdf1[*]     file rdf.out mode vector     title3 "# Row r g1(r) coor1(r) ..."
fix myRDF all ave/time 1000 1 ${nfreq} c_rdf1[*]     file rdf.out mode vector     title3 "# Row r g1(r) coor1(r) ..."
fix myRDF all ave/time 1000 1 1000 c_rdf1[*]     file rdf.out mode vector     title3 "# Row r g1(r) coor1(r) ..."

# save trajectory
# if "$(is_defined(dump,dump_pos${dir1}))" then "undump dump_pos${dir1}"
dump dump_pos${dir} all custom ${nthermo} dump/pos${dir}_deform.lammpstrj id type q x y z element
dump dump_pos3 all custom ${nthermo} dump/pos${dir}_deform.lammpstrj id type q x y z element
dump dump_pos3 all custom 100 dump/pos${dir}_deform.lammpstrj id type q x y z element
dump dump_pos3 all custom 100 dump/pos3_deform.lammpstrj id type q x y z element
dump_modify dump_pos${dir} element C H O Si
dump_modify dump_pos3 element C H O Si
run ${nrun}
run 120000

CITE-CITE-CITE-CITE-CITE-CITE-CITE-CITE-CITE-CITE-CITE-CITE-CITE

Your simulation uses code contributions which should be cited:

- pair reaxff command: doi:10.1016/j.parco.2011.08.005

@Article{Aktulga12,
 author = {H. M. Aktulga and J. C. Fogarty and S. A. Pandit and A. Y. Grama},
 title = {Parallel Reactive Molecular Dynamics: {N}umerical Methods and Algorithmic Techniques},
 journal = {Parallel Computing},
 year =    2012,
 volume =  38,
 number =  {4--5},
 pages =   {245--259}
}

- fix qeq/reaxff command: doi:10.1016/j.parco.2011.08.005

@Article{Aktulga12,
 author = {H. M. Aktulga and J. C. Fogarty and S. A. Pandit and A. Y. Grama},
 title = {Parallel Reactive Molecular Dynamics: {N}umerical Methods and Algorithmic Techniques},
 journal = {Parallel Computing},
 year =    2012,
 volume =  38,
 pages =   {245--259}
}

CITE-CITE-CITE-CITE-CITE-CITE-CITE-CITE-CITE-CITE-CITE-CITE-CITE

WARNING: Compute rdf cutoff less than neighbor cutoff - forcing a needless neighbor list build (src/compute_rdf.cpp:179)
Neighbor list info ...
  update: every = 10 steps, delay = 0 steps, check = no
  max neighbors/atom: 2000, page size: 100000
  master list distance cutoff = 12
  ghost atom cutoff = 12
  binsize = 6, bins = 4 3 3
  3 neighbor lists, perpetual/occasional/extra = 2 1 0
  (1) pair reaxff, perpetual
      attributes: half, newton off, ghost
      pair build: half/bin/newtoff/ghost
      stencil: full/ghost/bin/3d
      bin: standard
  (2) compute rdf, occasional
      attributes: half, newton on, cut 7
      pair build: half/bin/newton/tri
      stencil: half/bin/3d/tri
      bin: standard
  (3) fix qeq/reaxff, perpetual, copy from (1)
      attributes: half, newton off
      pair build: copy
      stencil: none
      bin: none
Per MPI rank memory allocation (min/avg/max) = 126.5 | 127.7 | 128.7 Mbytes
   Step          Temp          Press          Volume           Lz          Density    
         0   300            8014.9173      3932.1873      17.6383        1.6516858    
       100   305.67883     -10860.923      3934.1534      17.647119      1.6508604    
       200   314.54572      8061.0484      3936.1195      17.655938      1.6500358    
       300   314.56392      11334.066      3938.0856      17.664757      1.649212     
       400   299.76796      5661.9673      3940.0517      17.673577      1.648389     
       500   278.29913      17393.616      3942.0178      17.682396      1.6475669    
       600   303.38845     -1197.6393      3943.9839      17.691215      1.6467456    
       700   306.95901     -11438.183      3945.95        17.700034      1.6459251    
       800   303.74122     -5479.7575      3947.9161      17.708853      1.6451054    
       900   312.00549      11240.159      3949.8821      17.717672      1.6442865    
      1000   290.16784      6552.0167      3951.8482      17.726492      1.6434685    
      1100   288.10307     -935.56276      3953.8143      17.735311      1.6426512    
      1200   297.3944      -4970.4159      3955.7804      17.74413       1.6418348    
      1300   278.83419      8211.0409      3957.7465      17.752949      1.6410192    
      1400   314.95722      11286.691      3959.7126      17.761768      1.6402044    
      1500   300.47892      9460.1704      3961.6787      17.770587      1.6393904    
      1600   309.0621      -1448.4125      3963.6448      17.779406      1.6385772    
      1700   286.41746      1004.9571      3965.6109      17.788226      1.6377648    
      1800   280.42884      13787.176      3967.577       17.797045      1.6369532    
      1900   304.38682     -8730.8231      3969.5431      17.805864      1.6361424    
      2000   313.20552     -856.40202      3971.5092      17.814683      1.6353325    
      2100   301.60116     -1795.2511      3973.4753      17.823502      1.6345233    
      2200   303.58186      12508.403      3975.4414      17.832321      1.6337149    
      2300   287.65798      18406.468      3977.4075      17.84114       1.6329074    
      2400   279.64879     -13294.581      3979.3736      17.84996       1.6321006    
      2500   290.02559     -7726.4347      3981.3396      17.858779      1.6312946    
      2600   319.94317      4135.4811      3983.3057      17.867598      1.6304894    
      2700   294.40434     -5471.0826      3985.2718      17.876417      1.629685     
      2800   290.11978     -4174.513       3987.2379      17.885236      1.6288815    
      2900   304.19801     -2169.1325      3989.204       17.894055      1.6280787    
      3000   312.71442     -16197.333      3991.1701      17.902874      1.6272766    
      3100   289.03944     -6560.5163      3993.1362      17.911694      1.6264754    
      3200   306.57127     -4287.7591      3995.1023      17.920513      1.625675     
      3300   319.58798     -1851.2687      3997.0684      17.929332      1.6248754    
      3400   301.0934      -4105.6666      3999.0345      17.938151      1.6240765    
      3500   291.78945     -11843.632      4001.0006      17.94697       1.6232784    
      3600   304.73835      6507.0243      4002.9667      17.955789      1.6224811    
      3700   300.18919      280.90115      4004.9328      17.964609      1.6216846    
      3800   266.28327     -4409.142       4006.8989      17.973428      1.6208889    
      3900   288.18574      5512.7147      4008.865       17.982247      1.620094     
      4000   317.99979      3428.918       4010.831       17.991066      1.6192998    
      4100   292.49337     -6197.4437      4012.7971      17.999885      1.6185064    
      4200   317.33331     -453.43443      4014.7632      18.008704      1.6177138    
      4300   298.14753     -1042.723       4016.7293      18.017523      1.616922     
      4400   272.36822     -2840.459       4018.6954      18.026343      1.6161309    
      4500   281.53509      6111.8876      4020.6615      18.035162      1.6153406    
      4600   272.58622      10789.141      4022.6276      18.043981      1.6145511    
      4700   316.4276      -7245.7184      4024.5937      18.0528        1.6137624    
      4800   281.19603     -1682.0953      4026.5598      18.061619      1.6129744    
      4900   292.14611     -1735.5586      4028.5259      18.070438      1.6121872    
      5000   274.37667     -3529.9214      4030.492       18.079258      1.6114008    
      5100   303.02069     -11832.546      4032.4581      18.088077      1.6106151    
      5200   303.31585      2057.5374      4034.4242      18.096896      1.6098302    
      5300   319.54018      3453.418       4036.3903      18.105715      1.6090461    
      5400   316.68203     -3150.4218      4038.3564      18.114534      1.6082627    
      5500   278.66283      10028.486      4040.3225      18.123353      1.6074801    
      5600   284.65771      617.78345      4042.2885      18.132172      1.6066982    
      5700   306.08263     -18192.915      4044.2546      18.140992      1.6059172    
      5800   307.04336      13477.405      4046.2207      18.149811      1.6051368    
      5900   302.21055      12415.364      4048.1868      18.15863       1.6043573    
      6000   294.0918      -9834.6229      4050.1529      18.167449      1.6035784    
      6100   282.03245      4987.7427      4052.119       18.176268      1.6028004    
      6200   288.71671     -6871.7457      4054.0851      18.185087      1.6020231    
      6300   283.74446      5863.0216      4056.0512      18.193906      1.6012465    
      6400   304.74891     -6580.776       4058.0173      18.202726      1.6004707    
      6500   283.4652      -4063.3068      4059.9834      18.211545      1.5996957    
      6600   305.4392       2583.3089      4061.9495      18.220364      1.5989214    
      6700   291.72549      3460.5002      4063.9156      18.229183      1.5981478    
      6800   283.64955      11024.037      4065.8817      18.238002      1.597375     
      6900   282.22583     -5083.0606      4067.8478      18.246821      1.596603     
      7000   302.79646     -8355.8248      4069.8139      18.255641      1.5958317    
      7100   318.54616      1466.6226      4071.78        18.26446       1.5950611    
      7200   304.05834      7810.793       4073.746       18.273279      1.5942913    
      7300   298.00139     -5625.5922      4075.7121      18.282098      1.5935222    
      7400   288.85743     -317.90879      4077.6782      18.290917      1.5927539    
      7500   287.74971     -9814.1749      4079.6443      18.299736      1.5919863    
      7600   310.89894     -7159.2268      4081.6104      18.308555      1.5912195    
      7700   299.78768      4920.9959      4083.5765      18.317375      1.5904533    
      7800   303.60141      8812.352       4085.5426      18.326194      1.589688     
      7900   325.08696     -1793.9073      4087.5087      18.335013      1.5889233    
      8000   311.18843     -2798.3721      4089.4748      18.343832      1.5881594    
      8100   287.15231      26.116749      4091.4409      18.352651      1.5873962    
      8200   292.79233      4417.7431      4093.407       18.36147       1.5866338    
      8300   295.92343      4076.6902      4095.3731      18.370289      1.5858721    
      8400   283.25403     -6726.844       4097.3392      18.379109      1.5851111    
      8500   314.47861     -1321.7681      4099.3053      18.387928      1.5843509    
      8600   309.41312     -3577.8308      4101.2714      18.396747      1.5835914    
      8700   266.05735      7797.7885      4103.2375      18.405566      1.5828326    
      8800   303.26086     -14849.291      4105.2035      18.414385      1.5820745    
      8900   292.67235      4242.8642      4107.1696      18.423204      1.5813172    
      9000   306.85856      1171.7594      4109.1357      18.432023      1.5805606    
      9100   315.80169     -4364.8772      4111.1018      18.440843      1.5798047    
      9200   264.6112       7526.4775      4113.0679      18.449662      1.5790495    
      9300   271.77787     -8904.5228      4115.034       18.458481      1.5782951    
      9400   289.93548      1149.2431      4117.0001      18.4673        1.5775414    
      9500   298.2806      -2867.8653      4118.9662      18.476119      1.5767884    
      9600   320.84137      3676.8069      4120.9323      18.484938      1.5760361    
      9700   300.06614     -13403.344      4122.8984      18.493758      1.5752845    
      9800   283.14528     -11840.197      4124.8645      18.502577      1.5745336    
      9900   284.24837      2073.3291      4126.8306      18.511396      1.5737835    
     10000   305.77478     -6675.3013      4128.7967      18.520215      1.5730341    
     10100   296.44905      1398.044       4130.7628      18.529034      1.5722854    
     10200   302.91022     -2850.3324      4132.7289      18.537853      1.5715374    
     10300   311.10064     -2588.8947      4134.6949      18.546672      1.5707901    
     10400   289.25508     -12290.305      4136.661       18.555492      1.5700435    
     10500   289.36957      4069.1368      4138.6271      18.564311      1.5692977    
     10600   286.86481     -14320.373      4140.5932      18.57313       1.5685525    
     10700   293.22711     -301.46193      4142.5593      18.581949      1.5678081    
     10800   323.68443     -4816.9687      4144.5254      18.590768      1.5670643    
     10900   300.61487     -11621.141      4146.4915      18.599587      1.5663213    
     11000   305.68372     -7883.7362      4148.4576      18.608407      1.565579     
     11100   279.80546      306.61697      4150.4237      18.617226      1.5648373    
     11200   293.09687     -2835.1453      4152.3898      18.626045      1.5640964    
     11300   302.31449     -1915.0848      4154.3559      18.634864      1.5633562    
     11400   299.41032     -12543.559      4156.322       18.643683      1.5626166    
     11500   305.88838      2371.9701      4158.2881      18.652502      1.5618778    
     11600   276.34569      38.976402      4160.2542      18.661321      1.5611397    
     11700   291.42308      2011.1148      4162.2203      18.670141      1.5604023    
     11800   291.08798      5847.1154      4164.1864      18.67896       1.5596655    
     11900   309.26317     -11779.285      4166.1524      18.687779      1.5589295    
     12000   299.2915      -4016.7583      4168.1185      18.696598      1.5581941    
     12100   312.38644     -8644.0197      4170.0846      18.705417      1.5574595    
     12200   286.58218     -12315.718      4172.0507      18.714236      1.5567255    
     12300   278.96065     -15108.416      4174.0168      18.723055      1.5559923    
     12400   299.46381     -17058.82       4175.9829      18.731875      1.5552597    
     12500   310.73273     -2303.7791      4177.949       18.740694      1.5545278    
     12600   304.81708     -16614.356      4179.9151      18.749513      1.5537966    
     12700   313.44733      5730.6832      4181.8812      18.758332      1.5530661    
     12800   303.24499      1976.1184      4183.8473      18.767151      1.5523363    
     12900   268.52015     -7542.3982      4185.8134      18.77597       1.5516071    
     13000   285.70191      6485.7634      4187.7795      18.78479       1.5508787    
     13100   284.46529     -467.62787      4189.7456      18.793609      1.5501509    
     13200   291.59743     -9010.6466      4191.7117      18.802428      1.5494238    
     13300   304.22055     -2998.6039      4193.6778      18.811247      1.5486974    
     13400   301.84979     -15067.038      4195.6439      18.820066      1.5479717    
     13500   313.39203     -21121.353      4197.6099      18.828885      1.5472466    
     13600   306.06627     -23419.703      4199.576       18.837704      1.5465223    
     13700   319.82636     -7899.7897      4201.5421      18.846524      1.5457986    
     13800   294.39882     -2617.9643      4203.5082      18.855343      1.5450756    
     13900   305.01411     -10681.143      4205.4743      18.864162      1.5443532    
     14000   287.49537     -4340.4914      4207.4404      18.872981      1.5436316    
     14100   308.67286     -8178.5743      4209.4065      18.8818        1.5429106    
     14200   291.66762     -8262.6676      4211.3726      18.890619      1.5421903    
     14300   329.29224     -6593.8182      4213.3387      18.899438      1.5414706    
     14400   325.77882      1953.806       4215.3048      18.908258      1.5407517    
     14500   311.867       -10364.119      4217.2709      18.917077      1.5400334    
     14600   289.15151     -11886.422      4219.237       18.925896      1.5393157    
     14700   287.7527       781.1046       4221.2031      18.934715      1.5385988    
     14800   297.90649     -26496.264      4223.1692      18.943534      1.5378825    
     14900   332.32315     -2824.3343      4225.1353      18.952353      1.5371669    
     15000   308.50769      1202.8842      4227.1014      18.961172      1.5364519    
     15100   309.84994      985.98742      4229.0674      18.969992      1.5357376    
     15200   288.97839     -968.8729       4231.0335      18.978811      1.535024     
     15300   299.11257     -10763.979      4232.9996      18.98763       1.534311     
     15400   298.77421      2106.6366      4234.9657      18.996449      1.5335987    
     15500   301.93229      6219.9512      4236.9318      19.005268      1.5328871    
     15600   314.41702     -5486.6457      4238.8979      19.014087      1.5321761    
     15700   296.98894     -14191.242      4240.864       19.022907      1.5314657    
     15800   297.96851     -9052.791       4242.8301      19.031726      1.5307561    
     15900   295.94684     -13197.029      4244.7962      19.040545      1.5300471    
     16000   278.51741     -2476.5135      4246.7623      19.049364      1.5293387    
     16100   322.2506      -11623.042      4248.7284      19.058183      1.528631     
     16200   303.8656      -1412.5406      4250.6945      19.067002      1.527924     
     16300   308.57067     -3505.0867      4252.6606      19.075821      1.5272176    
     16400   291.2781      -4241.6268      4254.6267      19.084641      1.5265118    
     16500   316.26118     -4676.6635      4256.5928      19.09346       1.5258067    
     16600   306.18171      10025.291      4258.5588      19.102279      1.5251023    
     16700   297.13548     -5432.3811      4260.5249      19.111098      1.5243985    
     16800   289.3884      -5190.7866      4262.491       19.119917      1.5236954    
     16900   297.20339     -712.80589      4264.4571      19.128736      1.5229929    
     17000   308.6522      -2383.984       4266.4232      19.137556      1.5222911    
     17100   327.75498     -13576.264      4268.3893      19.146375      1.5215899    
     17200   292.63604     -11329.065      4270.3554      19.155194      1.5208893    
     17300   301.00098     -9905.6635      4272.3215      19.164013      1.5201894    
     17400   298.40795     -10502.981      4274.2876      19.172832      1.5194902    
     17500   290.92827     -9354.6213      4276.2537      19.181651      1.5187915    
     17600   313.25365     -299.50038      4278.2198      19.19047       1.5180936    
     17700   296.11933      4578.1753      4280.1859      19.19929       1.5173962    
     17800   310.05791     -3265.771       4282.152       19.208109      1.5166995    
     17900   292.7535      -19015.733      4284.1181      19.216928      1.5160035    
     18000   262.80524     -24205.18       4286.0842      19.225747      1.5153081    
     18100   305.78581     -13763.584      4288.0503      19.234566      1.5146133    
     18200   304.73957     -6806.4727      4290.0163      19.243385      1.5139192    
     18300   301.32725     -12094.131      4291.9824      19.252204      1.5132257    
     18400   303.19784     -8173.1958      4293.9485      19.261024      1.5125328    
     18500   288.53072     -22473.934      4295.9146      19.269843      1.5118405    
     18600   308.9821      -11814.206      4297.8807      19.278662      1.5111489    
     18700   297.32921     -7671.1026      4299.8468      19.287481      1.510458     
     18800   315.09789     -17879.483      4301.8129      19.2963        1.5097676    
     18900   304.64515     -9257.0733      4303.779       19.305119      1.5090779    
     19000   284.34051     -9044.3328      4305.7451      19.313938      1.5083889    
     19100   285.77968     -16861.894      4307.7112      19.322758      1.5077004    
     19200   269.1352      -9648.0101      4309.6773      19.331577      1.5070126    
     19300   302.56936     -14583.204      4311.6434      19.340396      1.5063254    
     19400   298.60277     -12577          4313.6095      19.349215      1.5056388    
     19500   309.55781     -7953.6162      4315.5756      19.358034      1.5049529    
     19600   293.22412     -111.33715      4317.5417      19.366853      1.5042676    
     19700   297.41726     -5463.3261      4319.5078      19.375673      1.5035829    
     19800   297.48486     -7984.6204      4321.4738      19.384492      1.5028988    
     19900   288.27765     -10797.8        4323.4399      19.393311      1.5022154    
     20000   319.43895     -17377.943      4325.406       19.40213       1.5015325    
     20100   300.56401     -1656.5204      4327.3721      19.410949      1.5008503    
     20200   298.6285      -4673.401       4329.3382      19.419768      1.5001688    
     20300   316.68777     -4179.028       4331.3043      19.428587      1.4994878    
     20400   294.1324      -8282.5945      4333.2704      19.437407      1.4988074    
     20500   286.75735     -4707.1393      4335.2365      19.446226      1.4981277    
     20600   315.0893       1385.6951      4337.2026      19.455045      1.4974486    
     20700   308.35785     -9070.6305      4339.1687      19.463864      1.4967701    
     20800   309.34155     -12769.639      4341.1348      19.472683      1.4960922    
     20900   301.33419     -4580.2994      4343.1009      19.481502      1.4954149    
     21000   297.03392     -9698.3634      4345.067       19.490322      1.4947383    
     21100   293.15045      4378.9166      4347.0331      19.499141      1.4940622    
     21200   327.37438     -2348.3056      4348.9992      19.50796       1.4933868    
     21300   318.25768      5774.9699      4350.9653      19.516779      1.492712     
     21400   325.09909     -11340.294      4352.9313      19.525598      1.4920378    
     21500   278.64738     -8158.5092      4354.8974      19.534417      1.4913642    
     21600   307.72741     -1281.7116      4356.8635      19.543236      1.4906912    
     21700   285.8031      -13299.571      4358.8296      19.552056      1.4900188    
     21800   301.52328     -27752.842      4360.7957      19.560875      1.489347     
     21900   308.87006     -13977.627      4362.7618      19.569694      1.4886758    
     22000   311.67194      3871.1052      4364.7279      19.578513      1.4880052    
     22100   286.03628     -1430.8499      4366.694       19.587332      1.4873353    
     22200   316.02376     -4713.679       4368.6601      19.596151      1.4866659    
     22300   290.9729      -20073.412      4370.6262      19.60497       1.4859971    
     22400   298.3098      -5338.9995      4372.5923      19.61379       1.485329     
     22500   306.67132     -3704.1554      4374.5584      19.622609      1.4846614    
     22600   314.25095      309.41952      4376.5245      19.631428      1.4839944    
     22700   297.87863     -6585.0546      4378.4906      19.640247      1.4833281    
     22800   296.30955     -2226.2263      4380.4567      19.649066      1.4826623    
     22900   304.17542     -6003.3228      4382.4227      19.657885      1.4819971    
     23000   305.51704     -12457.429      4384.3888      19.666705      1.4813326    
     23100   297.48611     -14076.736      4386.3549      19.675524      1.4806686    
     23200   282.50141     -19672.139      4388.321       19.684343      1.4800052    
     23300   308.44258     -17149.013      4390.2871      19.693162      1.4793424    
     23400   312.34685      9203.5856      4392.2532      19.701981      1.4786802    
     23500   303.49475      11787.316      4394.2193      19.7108        1.4780186    
     23600   287.25925     -9567.6546      4396.1854      19.719619      1.4773576    
     23700   296.59853     -8017.0803      4398.1515      19.728439      1.4766972    
     23800   302.8759      -9367.7049      4400.1176      19.737258      1.4760374    
     23900   318.6621       1615.0642      4402.0837      19.746077      1.4753781    
     24000   291.02074     -5848.8491      4404.0498      19.754896      1.4747195    
     24100   309.7416      -18873.154      4406.0159      19.763715      1.4740614    
     24200   295.60446     -4466.9156      4407.982       19.772534      1.4734039    
     24300   296.51426     -10700.301      4409.9481      19.781353      1.472747     
     24400   286.24217      9481.3055      4411.9142      19.790173      1.4720907    
     24500   326.81418      6360.5276      4413.8802      19.798992      1.471435     
     24600   295.9017      -10332.35       4415.8463      19.807811      1.4707799    
     24700   297.3454      -10558.368      4417.8124      19.81663       1.4701253    
     24800   299.55561     -8598.7156      4419.7785      19.825449      1.4694713    
     24900   319.46698     -7956.8197      4421.7446      19.834268      1.468818     
     25000   300.4214       1646.2156      4423.7107      19.843088      1.4681652    
     25100   285.82        -3876.3692      4425.6768      19.851907      1.4675129    
     25200   274.48208     -14391.737      4427.6429      19.860726      1.4668613    
     25300   299.35234     -14301.881      4429.609       19.869545      1.4662102    
     25400   282.50131     -5662.4411      4431.5751      19.878364      1.4655597    
     25500   310.51445     -6960.7539      4433.5412      19.887183      1.4649098    
     25600   303.0091      -23674.462      4435.5073      19.896002      1.4642605    
     25700   303.89833     -19278.61       4437.4734      19.904822      1.4636117    
     25800   270.51902     -7617.5449      4439.4395      19.913641      1.4629635    
     25900   301.44428     -11474.192      4441.4056      19.92246       1.4623159    
     26000   298.64377     -12937.493      4443.3717      19.931279      1.4616688    
     26100   313.91216     -9021.6737      4445.3377      19.940098      1.4610224    
     26200   298.58951     -4177.6405      4447.3038      19.948917      1.4603765    
     26300   299.90513     -8830.8287      4449.2699      19.957736      1.4597312    
     26400   289.36204     -865.55519      4451.236       19.966556      1.4590864    
     26500   279.28372     -10226.378      4453.2021      19.975375      1.4584422    
     26600   277.40767     -2905.8049      4455.1682      19.984194      1.4577986    
     26700   302.23272     -10854.885      4457.1343      19.993013      1.4571555    
     26800   305.95427     -14773.499      4459.1004      20.001832      1.456513     
     26900   298.26788     -16876.859      4461.0665      20.010651      1.4558711    
     27000   279.89233     -2310.7513      4463.0326      20.019471      1.4552298    
     27100   278.92636      6032.3709      4464.9987      20.02829       1.454589     
     27200   307.07469      704.46802      4466.9648      20.037109      1.4539488    
     27300   289.86473     -8403.1153      4468.9309      20.045928      1.4533091    
     27400   294.50098     -6318.0242      4470.897       20.054747      1.45267      
     27500   309.04412     -16022.222      4472.8631      20.063566      1.4520315    
     27600   298.05737     -1408.4209      4474.8292      20.072385      1.4513935    
     27700   323.59905     -10648.059      4476.7952      20.081205      1.4507561    
     27800   300.89716     -13567.819      4478.7613      20.090024      1.4501192    
     27900   308.13169     -15854.751      4480.7274      20.098843      1.4494829    
     28000   304.66395     -12649.478      4482.6935      20.107662      1.4488472    
     28100   299.65519     -11148.301      4484.6596      20.116481      1.448212     
     28200   302.9041      -10099.347      4486.6257      20.1253        1.4475774    
     28300   283.57316     -16707.834      4488.5918      20.134119      1.4469433    
     28400   297.80611     -16447.74       4490.5579      20.142939      1.4463098    
     28500   282.68373      242.18827      4492.524       20.151758      1.4456768    
     28600   309.67332     -1708.2296      4494.4901      20.160577      1.4450444    
     28700   299.32401     -12670.876      4496.4562      20.169396      1.4444126    
     28800   295.58941     -14504.227      4498.4223      20.178215      1.4437813    
     28900   291.93547     -19886.465      4500.3884      20.187034      1.4431505    
     29000   286.3665      -6241.6727      4502.3545      20.195854      1.4425203    
     29100   293.29663      8161.5518      4504.3206      20.204673      1.4418907    
     29200   322.25787     -408.77061      4506.2867      20.213492      1.4412616    
     29300   295.92907     -20351.651      4508.2527      20.222311      1.4406331    
     29400   301.28057     -16081.318      4510.2188      20.23113       1.4400051    
     29500   294.71719     -3537.8278      4512.1849      20.239949      1.4393776    
     29600   328.46718     -2906.5664      4514.151       20.248768      1.4387507    
     29700   298.1316      -15571.078      4516.1171      20.257588      1.4381243    
     29800   294.5829      -16724.347      4518.0832      20.266407      1.4374985    
     29900   313.95189     -8484.86        4520.0493      20.275226      1.4368732    
     30000   290.75819     -11414.846      4522.0154      20.284045      1.4362485    
     30100   290.89719     -6212.7053      4523.9815      20.292864      1.4356243    
     30200   303.6376      -11574.168      4525.9476      20.301683      1.4350007    
     30300   316.53472     -11010.759      4527.9137      20.310502      1.4343776    
     30400   291.6411       2264.4822      4529.8798      20.319322      1.433755     
     30500   272.87346      1640.4836      4531.8459      20.328141      1.433133     
     30600   283.56898     -10609.518      4533.812       20.33696       1.4325115    
     30700   307.61825     -2103.9372      4535.7781      20.345779      1.4318906    
     30800   291.03421     -15893.749      4537.7441      20.354598      1.4312702    
     30900   309.45641     -5836.7061      4539.7102      20.363417      1.4306503    
     31000   289.39809     -4312.4558      4541.6763      20.372236      1.430031     
     31100   267.80805     -4252.8075      4543.6424      20.381056      1.4294122    
     31200   288.21519     -5912.6239      4545.6085      20.389875      1.4287939    
     31300   297.49537     -3629.2844      4547.5746      20.398694      1.4281762    
     31400   308.87232     -3132.6794      4549.5407      20.407513      1.427559     
     31500   290.19791     -17568.669      4551.5068      20.416332      1.4269424    
     31600   326.28891     -7101.6123      4553.4729      20.425151      1.4263262    
     31700   291.97112     -8260.8856      4555.439       20.433971      1.4257107    
     31800   293.15742     -9107.6745      4557.4051      20.44279       1.4250956    
     31900   310.16149     -5356.1015      4559.3712      20.451609      1.4244811    
     32000   307.39219     -7312.7479      4561.3373      20.460428      1.4238671    
     32100   310.06674     -7401.5919      4563.3034      20.469247      1.4232536    
     32200   319.52509      2665.8458      4565.2695      20.478066      1.4226407    
     32300   298.75028     -13016.187      4567.2356      20.486885      1.4220282    
     32400   321.31541     -8541.1894      4569.2016      20.495705      1.4214163    
     32500   286.34285      2.5667102      4571.1677      20.504524      1.420805     
     32600   289.21867     -4312.3569      4573.1338      20.513343      1.4201942    
     32700   309.89068     -9232.2121      4575.0999      20.522162      1.4195838    
     32800   322.50633     -11585.835      4577.066       20.530981      1.4189741    
     32900   298.46488     -4809.8379      4579.0321      20.5398        1.4183648    
     33000   286.96945      4068.0546      4580.9982      20.54862       1.417756     
     33100   302.07016     -1564.3315      4582.9643      20.557439      1.4171478    
     33200   311.96061      5428.429       4584.9304      20.566258      1.4165401    
     33300   309.94541     -3172.1844      4586.8965      20.575077      1.415933     
     33400   322.72423     -7821.4213      4588.8626      20.583896      1.4153263    
     33500   314.61523     -14772.512      4590.8287      20.592715      1.4147202    
     33600   298.08351     -10840.214      4592.7948      20.601534      1.4141146    
     33700   302.7505      -16688.302      4594.7609      20.610354      1.4135095    
     33800   289.88281     -15826.468      4596.727       20.619173      1.4129049    
     33900   322.35668     -3639.1634      4598.6931      20.627992      1.4123008    
     34000   307.10169     -11430.257      4600.6591      20.636811      1.4116973    
     34100   298.36488     -13708.551      4602.6252      20.64563       1.4110942    
     34200   302.54717     -16327.683      4604.5913      20.654449      1.4104917    
     34300   300.30358     -6313.1104      4606.5574      20.663268      1.4098897    
     34400   290.42998     -8255.8106      4608.5235      20.672088      1.4092882    
     34500   300.74068     -10560.547      4610.4896      20.680907      1.4086872    
     34600   316.67014      1019.7081      4612.4557      20.689726      1.4080868    
     34700   290.42389     -7116.6503      4614.4218      20.698545      1.4074868    
     34800   297.99465     -15861.377      4616.3879      20.707364      1.4068874    
     34900   299.72852     -12976.25       4618.354       20.716183      1.4062885    
     35000   320.06004     -1597.9563      4620.3201      20.725003      1.40569      
     35100   272.70561     -13646.6        4622.2862      20.733822      1.4050921    
     35200   294.73753     -3177.1816      4624.2523      20.742641      1.4044947    
     35300   291.33198     -2081.5461      4626.2184      20.75146       1.4038978    
     35400   299.66605     -11455.675      4628.1845      20.760279      1.4033014    
     35500   305.39252     -7595.4694      4630.1506      20.769098      1.4027056    
     35600   315.0762      -15138.28       4632.1166      20.777917      1.4021102    
     35700   276.66706     -11057.191      4634.0827      20.786737      1.4015153    
     35800   292.67787     -10449.726      4636.0488      20.795556      1.4009209    
     35900   271.05495     -10689.769      4638.0149      20.804375      1.4003271    
     36000   299.99792     -14257.485      4639.981       20.813194      1.3997337    
     36100   309.89154     -18150.986      4641.9471      20.822013      1.3991409    
     36200   303.30117     -6145.9272      4643.9132      20.830832      1.3985485    
     36300   296.99111     -5586.0288      4645.8793      20.839651      1.3979567    
     36400   298.23714     -14488.948      4647.8454      20.848471      1.3973653    
     36500   272.83984     -19789.936      4649.8115      20.85729       1.3967745    
     36600   281.9611      -6500.9913      4651.7776      20.866109      1.3961841    
     36700   318.81862     -19290.865      4653.7437      20.874928      1.3955943    
     36800   302.74227     -11071.021      4655.7098      20.883747      1.3950049    
     36900   307.92791     -9328.8901      4657.6759      20.892566      1.394416     
     37000   317.458       -2413.4483      4659.642       20.901385      1.3938277    
     37100   285.04218     -10747.542      4661.608       20.910205      1.3932398    
     37200   284.7713      -18030.306      4663.5741      20.919024      1.3926524    
     37300   288.37313     -10274.452      4665.5402      20.927843      1.3920656    
     37400   306.56771     -17747.595      4667.5063      20.936662      1.3914792    
     37500   308.85411     -3241.8827      4669.4724      20.945481      1.3908933    
     37600   316.75447      3500.1872      4671.4385      20.9543        1.3903079    
     37700   294.52937     -104.56837      4673.4046      20.96312       1.389723     
     37800   285.77133     -17567.919      4675.3707      20.971939      1.3891386    
     37900   298.16868     -7600.3077      4677.3368      20.980758      1.3885547    
     38000   298.55839     -14262.791      4679.3029      20.989577      1.3879713    
     38100   323.43834     -6308.1183      4681.269       20.998396      1.3873883    
     38200   308.45732     -10485.742      4683.2351      21.007215      1.3868059    
     38300   289.05535     -11465.562      4685.2012      21.016034      1.3862239    
     38400   304.5037      -10471.984      4687.1673      21.024854      1.3856424    
     38500   291.81239     -5870.1054      4689.1334      21.033673      1.3850615    
     38600   328.98848     -18601.283      4691.0995      21.042492      1.384481     
     38700   307.4392      -16294.077      4693.0655      21.051311      1.383901     
     38800   292.57312     -4752.2888      4695.0316      21.06013       1.3833214    
     38900   328.22008     -8332.847       4696.9977      21.068949      1.3827424    
     39000   299.60006     -12738.168      4698.9638      21.077769      1.3821638    
     39100   296.57758     -16787.746      4700.9299      21.086588      1.3815858    
     39200   283.6373      -5402.2232      4702.896       21.095407      1.3810082    
     39300   295.60537     -13377.491      4704.8621      21.104226      1.3804311    
     39400   307.2512      -9474.2162      4706.8282      21.113045      1.3798545    
     39500   296.50221     -4771.4598      4708.7943      21.121864      1.3792783    
     39600   294.35243     -16587.598      4710.7604      21.130683      1.3787027    
     39700   292.65545     -19858.434      4712.7265      21.139503      1.3781275    
     39800   274.41875     -15928.72       4714.6926      21.148322      1.3775528    
     39900   295.94307     -12133.504      4716.6587      21.157141      1.3769786    
     40000   296.28175     -13257.006      4718.6248      21.16596       1.3764048    
     40100   312.47001     -7721.6286      4720.5909      21.174779      1.3758316    
     40200   292.45848     -12070.029      4722.557       21.183598      1.3752588    
     40300   300.37618     -14800.958      4724.523       21.192417      1.3746865    
     40400   285.71766     -14440.46       4726.4891      21.201237      1.3741146    
     40500   290.48064     -11008.945      4728.4552      21.210056      1.3735433    
     40600   306.69997     -21331.498      4730.4213      21.218875      1.3729724    
     40700   306.30093     -7554.9478      4732.3874      21.227694      1.372402     
     40800   290.0679      -11442.741      4734.3535      21.236513      1.3718321    
     40900   294.32865     -10978.632      4736.3196      21.245332      1.3712626    
     41000   296.98752     -6513.7876      4738.2857      21.254151      1.3706936    
     41100   284.82676     -11568.241      4740.2518      21.262971      1.3701251    
     41200   315.71115     -17319.953      4742.2179      21.27179       1.369557     
     41300   299.02855     -10615.108      4744.184       21.280609      1.3689895    
     41400   298.61516     -22517.316      4746.1501      21.289428      1.3684224    
     41500   302.50318     -12584.814      4748.1162      21.298247      1.3678557    
     41600   307.46921     -18765.451      4750.0823      21.307066      1.3672896    
     41700   317.06737     -14893.773      4752.0484      21.315886      1.3667239    
     41800   312.67108     -21198.855      4754.0145      21.324705      1.3661586    
     41900   309.75743     -8406.949       4755.9805      21.333524      1.3655939    
     42000   295.60968     -16307.742      4757.9466      21.342343      1.3650296    
     42100   306.36581     -21035.17       4759.9127      21.351162      1.3644658    
     42200   286.25129     -12759.784      4761.8788      21.359981      1.3639024    
     42300   314.40483     -10731.431      4763.8449      21.3688        1.3633395    
     42400   317.76426     -10276.256      4765.811       21.37762       1.3627771    
     42500   309.82683     -13017.933      4767.7771      21.386439      1.3622151    
     42600   294.08737     -13344.272      4769.7432      21.395258      1.3616536    
     42700   304.96108     -5857.7944      4771.7093      21.404077      1.3610925    
     42800   297.52507     -11312.406      4773.6754      21.412896      1.360532     
     42900   318.00703     -28554.147      4775.6415      21.421715      1.3599718    
     43000   334.11302     -16711.618      4777.6076      21.430535      1.3594122    
     43100   296.53185     -14698.848      4779.5737      21.439354      1.358853     
     43200   287.13533     -14657.824      4781.5398      21.448173      1.3582942    
     43300   306.70137     -14396.111      4783.5059      21.456992      1.357736     
     43400   308.73503     -13202.638      4785.4719      21.465811      1.3571781    
     43500   299.92246     -14557.952      4787.438       21.47463       1.3566208    
     43600   308.45714     -19800.341      4789.4041      21.483449      1.3560639    
     43700   294.61467     -18006.218      4791.3702      21.492269      1.3555074    
     43800   310.16939     -16861.371      4793.3363      21.501088      1.3549514    
     43900   287.93685     -20779.233      4795.3024      21.509907      1.3543959    
     44000   303.57043     -14837.146      4797.2685      21.518726      1.3538408    
     44100   282.76755     -29274.186      4799.2346      21.527545      1.3532862    
     44200   306.82153     -8453.0758      4801.2007      21.536364      1.352732     
     44300   303.86008     -10960.135      4803.1668      21.545183      1.3521783    
     44400   328.90223     -12543.112      4805.1329      21.554003      1.351625     
     44500   322.65197     -16026.455      4807.099       21.562822      1.3510722    
     44600   309.77498     -13880.351      4809.0651      21.571641      1.3505199    
     44700   310.70878     -18820.769      4811.0312      21.58046       1.349968     
     44800   301.17026     -20015.801      4812.9973      21.589279      1.3494165    
     44900   273.40494     -21354.23       4814.9634      21.598098      1.3488655    
     45000   290.09054     -17959.942      4816.9294      21.606918      1.3483149    
     45100   277.23901     -14776.461      4818.8955      21.615737      1.3477648    
     45200   283.65482     -8748.0467      4820.8616      21.624556      1.3472152    
     45300   289.81099     -21351.773      4822.8277      21.633375      1.346666     
     45400   316.89644     -13623.438      4824.7938      21.642194      1.3461172    
     45500   307.66965     -10080.837      4826.7599      21.651013      1.3455689    
     45600   295.90371     -307.83494      4828.726       21.659832      1.345021     
     45700   288.36543     -13306.622      4830.6921      21.668652      1.3444736    
     45800   312.12696     -13649.852      4832.6582      21.677471      1.3439266    
     45900   320.61112     -3722.6504      4834.6243      21.68629       1.3433801    
     46000   320.37505     -7248.8166      4836.5904      21.695109      1.342834     
     46100   304.34556     -9243.4621      4838.5565      21.703928      1.3422883    
     46200   303.73975     -8031.6709      4840.5226      21.712747      1.3417431    
     46300   297.95231     -9983.6409      4842.4887      21.721566      1.3411984    
     46400   303.77947     -7155.7131      4844.4548      21.730386      1.3406541    
     46500   317.19276     -14933.774      4846.4209      21.739205      1.3401102    
     46600   313.45565     -14593.499      4848.3869      21.748024      1.3395667    
     46700   291.89113     -7409.157       4850.353       21.756843      1.3390238    
     46800   314.786       -12346.595      4852.3191      21.765662      1.3384812    
     46900   285.90212     -19731.193      4854.2852      21.774481      1.3379391    
     47000   291.52773     -9702.2079      4856.2513      21.7833        1.3373974    
     47100   298.26986     -5069.0851      4858.2174      21.79212       1.3368562    
     47200   306.71252     -16864.726      4860.1835      21.800939      1.3363154    
     47300   318.43389     -2736.3836      4862.1496      21.809758      1.335775     
     47400   291.05114     -18390.838      4864.1157      21.818577      1.3352351    
     47500   294.87648     -2513.4449      4866.0818      21.827396      1.3346956    
     47600   295.16004     -10861.411      4868.0479      21.836215      1.3341565    
     47700   316.41227     -9566.29        4870.014       21.845035      1.3336179    
     47800   332.97842      629.46614      4871.9801      21.853854      1.3330797    
     47900   311.23347     -11092.244      4873.9462      21.862673      1.332542     
     48000   290.64302     -23414.17       4875.9123      21.871492      1.3320047    
     48100   294.7002      -9709.0494      4877.8784      21.880311      1.3314678    
     48200   290.59054     -6810.1913      4879.8444      21.88913       1.3309313    
     48300   296.8133      -7913.9676      4881.8105      21.897949      1.3303953    
     48400   322.29567      4781.4728      4883.7766      21.906769      1.3298597    
     48500   303.62766     -19003.549      4885.7427      21.915588      1.3293246    
     48600   291.32666     -22662.443      4887.7088      21.924407      1.3287899    
     48700   286.26196     -2961.9816      4889.6749      21.933226      1.3282556    
     48800   297.47439     -5550.8479      4891.641       21.942045      1.3277217    
     48900   315.37555     -23020.318      4893.6071      21.950864      1.3271883    
     49000   296.64128     -1726.7419      4895.5732      21.959684      1.3266553    
     49100   309.99129      3550.4271      4897.5393      21.968503      1.3261227    
     49200   308.56886     -9649.43        4899.5054      21.977322      1.3255905    
     49300   296.44351     -10279.967      4901.4715      21.986141      1.3250588    
     49400   308.96224     -11560.335      4903.4376      21.99496       1.3245275    
     49500   275.95235     -11991.046      4905.4037      22.003779      1.3239966    
     49600   286.97446      7025.5311      4907.3698      22.012598      1.3234662    
     49700   310.46693     -10768.646      4909.3358      22.021418      1.3229362    
     49800   326.25807     -11063.634      4911.3019      22.030237      1.3224066    
     49900   300.91521     -10727.49       4913.268       22.039056      1.3218774    
     50000   293.18388     -13050.643      4915.2341      22.047875      1.3213486    
     50100   295.12908     -1059.2095      4917.2002      22.056694      1.3208203    
     50200   293.49851     -11448.842      4919.1663      22.065513      1.3202924    
     50300   317.1659      -21621.798      4921.1324      22.074332      1.3197649    
     50400   307.01517     -7537.1323      4923.0985      22.083152      1.3192379    
     50500   281.75048     -7883.4466      4925.0646      22.091971      1.3187112    
     50600   288.84793     -5712.8004      4927.0307      22.10079       1.318185     
     50700   301.06803     -12329.165      4928.9968      22.109609      1.3176592    
     50800   300.61822      358.58227      4930.9629      22.118428      1.3171338    
     50900   300.61816     -12752.037      4932.929       22.127247      1.3166088    
     51000   334.28937     -16413.147      4934.8951      22.136066      1.3160843    
     51100   312.33671     -14621.339      4936.8612      22.144886      1.3155602    
     51200   297.53916     -6956.3407      4938.8273      22.153705      1.3150365    
     51300   269.90935     -13204.738      4940.7933      22.162524      1.3145132    
     51400   293.89825     -10483.943      4942.7594      22.171343      1.3139903    
     51500   329.9815      -7177.0064      4944.7255      22.180162      1.3134678    
     51600   290.7287      -1320.3957      4946.6916      22.188981      1.3129458    
     51700   303.22454     -11217.215      4948.6577      22.197801      1.3124242    
     51800   324.15669     -19617.509      4950.6238      22.20662       1.3119029    
     51900   299.18043     -7861.5878      4952.5899      22.215439      1.3113821    
     52000   290.22754     -15450.758      4954.556       22.224258      1.3108617    
     52100   308.10865     -13147.347      4956.5221      22.233077      1.3103418    
     52200   338.93115     -7139.0527      4958.4882      22.241896      1.3098222    
     52300   318.61949     -13189.857      4960.4543      22.250715      1.309303     
     52400   301.84607     -14085.361      4962.4204      22.259535      1.3087843    
     52500   305.63688     -14543.354      4964.3865      22.268354      1.308266     
     52600   299.02351     -14686.096      4966.3526      22.277173      1.3077481    
     52700   292.22539     -11139.283      4968.3187      22.285992      1.3072305    
     52800   318.58283     -15960.954      4970.2848      22.294811      1.3067134    
     52900   306.50156     -19276.173      4972.2508      22.30363       1.3061968    
     53000   315.08975     -18498.765      4974.2169      22.312449      1.3056805    
     53100   297.30708     -18570.186      4976.183       22.321269      1.3051646    
     53200   294.51806     -23595.884      4978.1491      22.330088      1.3046491    
     53300   297.25317     -21814.353      4980.1152      22.338907      1.3041341    
     53400   311.6122      -17287.897      4982.0813      22.347726      1.3036194    
     53500   303.37073     -9374.3594      4984.0474      22.356545      1.3031052    
     53600   316.82826     -14553.234      4986.0135      22.365364      1.3025913    
     53700   292.18643     -13300.289      4987.9796      22.374184      1.3020779    
     53800   302.09457     -8985.7943      4989.9457      22.383003      1.3015649    
     53900   299.13495     -7994.7533      4991.9118      22.391822      1.3010522    
     54000   292.82054     -19382.421      4993.8779      22.400641      1.30054      
     54100   326.57705     -19330.138      4995.844       22.40946       1.3000282    
     54200   305.55878     -21352.714      4997.8101      22.418279      1.2995168    
     54300   296.76276     -14481.753      4999.7762      22.427098      1.2990057    
     54400   279.09523     -9246.6906      5001.7423      22.435918      1.2984951    
     54500   292.21359     -17259.533      5003.7083      22.444737      1.2979849    
     54600   317.2418      -17972.728      5005.6744      22.453556      1.2974751    
     54700   288.66598     -12104.693      5007.6405      22.462375      1.2969657    
     54800   273.26121     -17959.097      5009.6066      22.471194      1.2964567    
     54900   272.30838     -22038.855      5011.5727      22.480013      1.2959481    
     55000   304.26625     -10435.611      5013.5388      22.488833      1.2954398    
     55100   299.90639     -4206.8103      5015.5049      22.497652      1.294932     
     55200   317.29233     -14699.726      5017.471       22.506471      1.2944246    
     55300   309.17801     -5204.0137      5019.4371      22.51529       1.2939176    
     55400   283.03037     -3263.9611      5021.4032      22.524109      1.293411     
     55500   312.02142     -19294.874      5023.3693      22.532928      1.2929047    
     55600   289.52449     -9701.6686      5025.3354      22.541747      1.2923989    
     55700   296.18738     -12873.584      5027.3015      22.550567      1.2918935    
     55800   292.53715     -22096.169      5029.2676      22.559386      1.2913884    
     55900   280.02921     -14045.153      5031.2337      22.568205      1.2908838    
     56000   286.41774     -16810.097      5033.1997      22.577024      1.2903795    
     56100   306.80908     -17304.459      5035.1658      22.585843      1.2898757    
     56200   306.43492     -19496.517      5037.1319      22.594662      1.2893722    
     56300   305.21441     -24114.946      5039.098       22.603481      1.2888691    
     56400   300.09316     -24830.259      5041.0641      22.612301      1.2883665    
     56500   286.08137     -12655.08       5043.0302      22.62112       1.2878642    
     56600   281.74042     -13306.973      5044.9963      22.629939      1.2873623    
     56700   291.89664     -12762.985      5046.9624      22.638758      1.2868608    
     56800   287.91606     -13717.262      5048.9285      22.647577      1.2863597    
     56900   283.40068     -18155.618      5050.8946      22.656396      1.2858589    
     57000   315.56505     -19858.687      5052.8607      22.665216      1.2853586    
     57100   327.55365     -8537.0694      5054.8268      22.674035      1.2848587    
     57200   301.59771     -11382.09       5056.7929      22.682854      1.2843591    
     57300   306.54809     -9186.2195      5058.759       22.691673      1.2838599    
     57400   305.68518     -12312.694      5060.7251      22.700492      1.2833611    
     57500   276.31202     -14811.33       5062.6912      22.709311      1.2828628    
     57600   317.31414     -17585.874      5064.6572      22.71813       1.2823647    
     57700   304.41541     -4899.0955      5066.6233      22.72695       1.2818671    
     57800   316.05035     -15524.802      5068.5894      22.735769      1.2813699    
     57900   302.99382     -12966.028      5070.5555      22.744588      1.280873     
     58000   289.82356     -7058.701       5072.5216      22.753407      1.2803766    
     58100   294.45277     -12821.212      5074.4877      22.762226      1.2798805    
     58200   314.7257      -17011.386      5076.4538      22.771045      1.2793848    
     58300   311.25601     -20098.667      5078.4199      22.779864      1.2788895    
     58400   283.72368     -27662.031      5080.386       22.788684      1.2783946    
     58500   308.03341     -22015.222      5082.3521      22.797503      1.2779       
     58600   307.89708     -11691.868      5084.3182      22.806322      1.2774059    
     58700   326.61348     -18622.432      5086.2843      22.815141      1.2769121    
     58800   283.72951     -10051.696      5088.2504      22.82396       1.2764187    
     58900   293.9072      -11076.3        5090.2165      22.832779      1.2759257    
     59000   295.71864     -9871.7417      5092.1826      22.841598      1.275433     
     59100   310.55634     -16376.869      5094.1487      22.850418      1.2749408    
     59200   317.52513     -27414.601      5096.1147      22.859237      1.2744489    
     59300   303.08902     -14759.94       5098.0808      22.868056      1.2739574    
     59400   287.45474     -18934.065      5100.0469      22.876875      1.2734663    
     59500   303.07031     -7465.6599      5102.013       22.885694      1.2729756    
     59600   312.33145     -15789.475      5103.9791      22.894513      1.2724852    
     59700   299.56068     -20106.609      5105.9452      22.903333      1.2719952    
     59800   293.30311     -17122.143      5107.9113      22.912152      1.2715056    
     59900   297.9234      -14393.788      5109.8774      22.920971      1.2710164    
     60000   317.81114     -17244.156      5111.8435      22.92979       1.2705275    
     60100   291.26127     -18854.362      5113.8096      22.938609      1.2700391    
     60200   314.40718     -9215.5002      5115.7757      22.947428      1.269551     
     60300   305.91279     -5710.9234      5117.7418      22.956247      1.2690632    
     60400   324.55734     -12930.119      5119.7079      22.965067      1.2685759    
     60500   287.01587     -10171.184      5121.674       22.973886      1.2680889    
     60600   288.45857     -14289.203      5123.6401      22.982705      1.2676023    
     60700   289.68826     -20251.03       5125.6062      22.991524      1.2671161    
     60800   311.47186     -24261.683      5127.5722      23.000343      1.2666302    
     60900   312.11164     -20898.164      5129.5383      23.009162      1.2661447    
     61000   310.0602      -18763.015      5131.5044      23.017982      1.2656596    
     61100   294.45784     -18340.41       5133.4705      23.026801      1.2651749    
     61200   290.36401     -24200.754      5135.4366      23.03562       1.2646905    
     61300   301.52596     -11308.058      5137.4027      23.044439      1.2642065    
     61400   287.56664     -19767.573      5139.3688      23.053258      1.2637229    
     61500   287.42277     -19933.264      5141.3349      23.062077      1.2632396    
     61600   302.66812     -10070.023      5143.301       23.070896      1.2627567    
     61700   309.89167     -12724.902      5145.2671      23.079716      1.2622742    
     61800   314.63224     -18083.993      5147.2332      23.088535      1.2617921    
     61900   288.46162     -15812.049      5149.1993      23.097354      1.2613103    
     62000   286.45332     -16937.644      5151.1654      23.106173      1.2608289    
     62100   290.01128     -16708.323      5153.1315      23.114992      1.2603478    
     62200   320.74392     -18333.821      5155.0976      23.123811      1.2598671    
     62300   317.7902      -13142.168      5157.0636      23.13263       1.2593868    
     62400   301.93197     -17375.075      5159.0297      23.14145       1.2589069    
     62500   298.76279     -21420.897      5160.9958      23.150269      1.2584273    
     62600   278.44094     -17135.071      5162.9619      23.159088      1.2579481    
     62700   295.6306      -19654.532      5164.928       23.167907      1.2574692    
     62800   294.07216     -20582.712      5166.8941      23.176726      1.2569907    
     62900   278.12514     -20161.166      5168.8602      23.185545      1.2565126    
     63000   307.02784     -7357.1076      5170.8263      23.194364      1.2560348    
     63100   303.20357     -22482.33       5172.7924      23.203184      1.2555574    
     63200   311.60152      1312.221       5174.7585      23.212003      1.2550804    
     63300   280.41432     -14194.793      5176.7246      23.220822      1.2546037    
     63400   302.1936      -16937.2        5178.6907      23.229641      1.2541274    
     63500   308.15606     -31743.702      5180.6568      23.23846       1.2536515    
     63600   315.11039     -27403.033      5182.6229      23.247279      1.2531759    
     63700   298.19323     -15275.565      5184.589       23.256099      1.2527006    
     63800   293.13254     -5692.5692      5186.5551      23.264918      1.2522258    
     63900   308.45115     -19912.517      5188.5211      23.273737      1.2517513    
     64000   274.36418     -10878.573      5190.4872      23.282556      1.2512771    
     64100   310.35314     -22103.59       5192.4533      23.291375      1.2508033    
     64200   309.73219     -18778.695      5194.4194      23.300194      1.2503299    
     64300   310.61833     -9125.9933      5196.3855      23.309013      1.2498568    
     64400   296.65992     -18245.588      5198.3516      23.317833      1.2493841    
     64500   299.73308     -8683.8649      5200.3177      23.326652      1.2489118    
     64600   287.77335     -22691.439      5202.2838      23.335471      1.2484398    
     64700   308.38484     -26250.964      5204.2499      23.34429       1.2479681    
     64800   318.58922     -10671.142      5206.216       23.353109      1.2474968    
     64900   309.77701     -12103.015      5208.1821      23.361928      1.2470259    
     65000   291.08175     -14619.335      5210.1482      23.370748      1.2465553    
     65100   279.10912     -20051.173      5212.1143      23.379567      1.2460851    
     65200   325.05283     -16612.216      5214.0804      23.388386      1.2456152    
     65300   279.17651     -12472.686      5216.0465      23.397205      1.2451457    
     65400   319.55629     -13930.046      5218.0126      23.406024      1.2446766    
     65500   315.88514     -23236.505      5219.9786      23.414843      1.2442078    
     65600   288.35698     -18709.584      5221.9447      23.423662      1.2437393    
     65700   291.02682     -18139.098      5223.9108      23.432482      1.2432712    
     65800   286.84791     -16131.233      5225.8769      23.441301      1.2428035    
     65900   312.28993     -12183.079      5227.843       23.45012       1.2423361    
     66000   316.82772     -14941.767      5229.8091      23.458939      1.241869     
     66100   308.18905     -14107.75       5231.7752      23.467758      1.2414023    
     66200   297.5427      -20117.904      5233.7413      23.476577      1.240936     
     66300   293.46534     -30620.383      5235.7074      23.485396      1.24047      
     66400   329.93933     -13544.334      5237.6735      23.494216      1.2400044    
     66500   342.80751     -17320.138      5239.6396      23.503035      1.2395391    
     66600   329.02065     -22421.797      5241.6057      23.511854      1.2390741    
     66700   299.24997     -16561.295      5243.5718      23.520673      1.2386095    
     66800   312.77588     -5480.6563      5245.5379      23.529492      1.2381453    
     66900   273.44494     -17239.998      5247.504       23.538311      1.2376814    
     67000   279.0866      -18599.51       5249.4701      23.547131      1.2372178    
     67100   317.45498     -8171.4952      5251.4361      23.55595       1.2367546    
     67200   322.39945     -10348.876      5253.4022      23.564769      1.2362918    
     67300   308.83832     -15833.279      5255.3683      23.573588      1.2358293    
     67400   290.89918     -15191.71       5257.3344      23.582407      1.2353671    
     67500   305.15336     -8066.8709      5259.3005      23.591226      1.2349053    
     67600   308.98652     -6364.5148      5261.2666      23.600045      1.2344438    
     67700   336.14934     -13268.642      5263.2327      23.608865      1.2339827    
     67800   315.34564     -11734.921      5265.1988      23.617684      1.2335219    
     67900   336.35928     -16371.992      5267.1649      23.626503      1.2330614    
     68000   292.74279     -18831.977      5269.131       23.635322      1.2326013    
     68100   310.24798     -10827.53       5271.0971      23.644141      1.2321416    
     68200   300.26686     -9516.8815      5273.0632      23.65296       1.2316822    
     68300   283.93245     -16203.205      5275.0293      23.661779      1.2312231    
     68400   303.22429     -15525.194      5276.9954      23.670599      1.2307644    
     68500   299.32276     -9111.2241      5278.9615      23.679418      1.230306     
     68600   298.64126     -11688.499      5280.9275      23.688237      1.229848     
     68700   300.60636     -8007.1917      5282.8936      23.697056      1.2293902    
     68800   306.95114     -15635.745      5284.8597      23.705875      1.2289329    
     68900   303.50983     -15995.99       5286.8258      23.714694      1.2284759    
     69000   309.33237     -12200.328      5288.7919      23.723513      1.2280192    
     69100   303.21431     -13369.146      5290.758       23.732333      1.2275628    
     69200   288.83745     -19543.546      5292.7241      23.741152      1.2271068    
     69300   280.20352     -9591.4225      5294.6902      23.749971      1.2266512    
     69400   305.27407     -11645.205      5296.6563      23.75879       1.2261958    
     69500   315.62202     -13612.286      5298.6224      23.767609      1.2257409    
     69600   304.95193     -12717.971      5300.5885      23.776428      1.2252862    
     69700   264.7823      -13444.229      5302.5546      23.785248      1.2248319    
     69800   283.92105     -12165.082      5304.5207      23.794067      1.2243779    
     69900   319.27892     -10298.629      5306.4868      23.802886      1.2239243    
     70000   307.37402     -13357.983      5308.4529      23.811705      1.223471     
     70100   279.41213     -15840.299      5310.419       23.820524      1.223018     
     70200   298.8761      -14640.43       5312.385       23.829343      1.2225654    
     70300   267.38657     -13640.626      5314.3511      23.838162      1.2221131    
     70400   263.41113     -9576.4504      5316.3172      23.846982      1.2216611    
     70500   272.47693     -9899.4577      5318.2833      23.855801      1.2212095    
     70600   317.47401     -17631.286      5320.2494      23.86462       1.2207582    
     70700   288.75403     -17661.08       5322.2155      23.873439      1.2203072    
     70800   296.98895     -25618.056      5324.1816      23.882258      1.2198566    
     70900   302.86254     -13803.82       5326.1477      23.891077      1.2194063    
     71000   276.8608      -28867.243      5328.1138      23.899897      1.2189563    
     71100   300.6336      -11547.533      5330.0799      23.908716      1.2185067    
     71200   307.10624     -7849.4142      5332.046       23.917535      1.2180574    
     71300   299.41592     -20738.796      5334.0121      23.926354      1.2176084    
     71400   304.1555      -10414.683      5335.9782      23.935173      1.2171598    
     71500   291.08048     -23853.114      5337.9443      23.943992      1.2167115    
     71600   286.9862      -15666.223      5339.9104      23.952811      1.2162635    
     71700   307.61505     -9359.5359      5341.8765      23.961631      1.2158158    
     71800   293.43841     -10172.49       5343.8425      23.97045       1.2153685    
     71900   304.93584     -21283.71       5345.8086      23.979269      1.2149215    
     72000   300.00173     -5666.5828      5347.7747      23.988088      1.2144749    
     72100   274.1777      -3162.7575      5349.7408      23.996907      1.2140285    
     72200   277.10613     -8689.9964      5351.7069      24.005726      1.2135825    
     72300   289.44158     -25879.907      5353.673       24.014545      1.2131368    
     72400   304.8256      -18481.945      5355.6391      24.023365      1.2126915    
     72500   300.3683      -19529.141      5357.6052      24.032184      1.2122465    
     72600   303.27052     -17986.735      5359.5713      24.041003      1.2118018    
     72700   273.63617     -10781.094      5361.5374      24.049822      1.2113574    
     72800   276.36686     -19767.902      5363.5035      24.058641      1.2109133    
     72900   294.44272     -19034.962      5365.4696      24.06746       1.2104696    
     73000   301.02109     -16911.579      5367.4357      24.076279      1.2100262    
     73100   315.5238      -21421.791      5369.4018      24.085099      1.2095832    
     73200   288.29617     -22901.522      5371.3679      24.093918      1.2091404    
     73300   289.84391     -12450.427      5373.334       24.102737      1.208698     
     73400   315.895       -15369.654      5375.3         24.111556      1.2082559    
     73500   329.25542     -22199.171      5377.2661      24.120375      1.2078141    
     73600   328.63796     -16663.897      5379.2322      24.129194      1.2073727    
     73700   306.81784     -12932.347      5381.1983      24.138014      1.2069315    
     73800   301.21792     -17889.051      5383.1644      24.146833      1.2064907    
     73900   297.04701     -8819.2939      5385.1305      24.155652      1.2060502    
     74000   296.2537      -12407.544      5387.0966      24.164471      1.2056101    
     74100   305.34195     -17211.105      5389.0627      24.17329       1.2051702    
     74200   313.89272     -19731.786      5391.0288      24.182109      1.2047307    
     74300   309.32793     -15964.21       5392.9949      24.190928      1.2042915    
     74400   280.10919     -7668.8466      5394.961       24.199748      1.2038526    
     74500   277.45936     -11690.554      5396.9271      24.208567      1.2034141    
     74600   295.47656     -14237.369      5398.8932      24.217386      1.2029758    
     74700   311.57062     -23754.773      5400.8593      24.226205      1.2025379    
     74800   298.1015      -25987.025      5402.8254      24.235024      1.2021003    
     74900   301.79895     -12694.394      5404.7914      24.243843      1.201663     
     75000   304.04293     -14858.999      5406.7575      24.252662      1.201226     
     75100   312.90044     -12977.169      5408.7236      24.261482      1.2007894    
     75200   302.78409     -11589.149      5410.6897      24.270301      1.2003531    
     75300   278.18592     -12206.715      5412.6558      24.27912       1.199917     
[...]
     98700   314.19601     -9955.9989      5872.7217      26.342801      1.1059162    
     98800   302.79419     -10817.176      5874.6878      26.35162       1.105546     
     98900   301.15452     -4772.3198      5876.6539      26.360439      1.1051762    
     99000   282.20009     -1722.5754      5878.62        26.369259      1.1048066    
     99100   333.82153     -11622.059      5880.5861      26.378078      1.1044372    
     99200   302.25542     -16831.786      5882.5522      26.386897      1.104068     
     99300   329.61369     -16951.875      5884.5183      26.395716      1.1036992    
     99400   295.88612     -7520.7907      5886.4844      26.404535      1.1033305    
     99500   294.0063      -14863.573      5888.4505      26.413354      1.1029621    
     99600   303.61192     -7074.6829      5890.4166      26.422173      1.102594     
     99700   303.7084      -14053.154      5892.3827      26.430993      1.1022261    
     99800   299.17698     -19105.132      5894.3488      26.439812      1.1018584    
     99900   281.69107     -14409.211      5896.3149      26.448631      1.101491     
    100000   306.12562     -12112.909      5898.281       26.45745       1.1011239    
    100100   303.83442     -7761.017       5900.247       26.466269      1.1007569    
    100200   298.62317     -19550.846      5902.2131      26.475088      1.1003903    
    100300   307.47747     -6932.0411      5904.1792      26.483907      1.1000238    
    100400   305.38952     -11487.564      5906.1453      26.492727      1.0996577    
    100500   295.03347     -11618.898      5908.1114      26.501546      1.0992917    
    100600   306.52753     -19238.636      5910.0775      26.510365      1.098926     
    100700   315.20819     -10670.594      5912.0436      26.519184      1.0985606    
    100800   304.05591     -11414.671      5914.0097      26.528003      1.0981953    
    100900   278.53701     -24108.07       5915.9758      26.536822      1.0978304    
    101000   319.7918      -10721.425      5917.9419      26.545642      1.0974656    
    101100   303.81676     -17803.213      5919.908       26.554461      1.0971012    
    101200   270.69285     -16604.292      5921.8741      26.56328       1.0967369    
    101300   282.94483     -18291.717      5923.8402      26.572099      1.0963729    
    101400   291.99593     -23684.332      5925.8063      26.580918      1.0960092    
    101500   312.96961     -14552.179      5927.7724      26.589737      1.0956456    
    101600   313.82864     -21462.751      5929.7385      26.598556      1.0952824    
    101700   302.95079     -20074.885      5931.7045      26.607376      1.0949193    
    101800   303.5264      -13626.3        5933.6706      26.616195      1.0945565    
    101900   308.1386      -11941.02       5935.6367      26.625014      1.094194     
    102000   328.933       -13168.922      5937.6028      26.633833      1.0938317    
    102100   303.89176     -15826.031      5939.5689      26.642652      1.0934696    
    102200   296.32605     -11591.865      5941.535       26.651471      1.0931077    
    102300   293.40277     -17733.708      5943.5011      26.66029       1.0927461    
    102400   287.50636     -20322.227      5945.4672      26.66911       1.0923848    
    102500   306.72567     -7451.9628      5947.4333      26.677929      1.0920237    
    102600   329.73649     -18292.833      5949.3994      26.686748      1.0916628    
    102700   307.27478     -20945.879      5951.3655      26.695567      1.0913021    
    102800   294.25216     -12085.481      5953.3316      26.704386      1.0909417    
    102900   312.07097     -19536.658      5955.2977      26.713205      1.0905816    
    103000   303.42686     -23764.715      5957.2638      26.722024      1.0902216    
    103100   304.1173      -21348.644      5959.2299      26.730844      1.089862     
    103200   302.77072     -12160.004      5961.196       26.739663      1.0895025    
    103300   325.51389     -16090.865      5963.162       26.748482      1.0891433    
    103400   306.47848     -17255.74       5965.1281      26.757301      1.0887843    
    103500   300.3097      -17536.992      5967.0942      26.76612       1.0884256    
    103600   311.1498      -23399.917      5969.0603      26.774939      1.0880671    
    103700   304.90305     -11564.006      5971.0264      26.783759      1.0877088    
    103800   316.16189     -15259.954      5972.9925      26.792578      1.0873508    
    103900   307.55367     -21329.683      5974.9586      26.801397      1.086993     
    104000   278.39283     -14341.58       5976.9247      26.810216      1.0866354    
    104100   288.99877     -20852.846      5978.8908      26.819035      1.0862781    
    104200   278.81654     -19961.792      5980.8569      26.827854      1.085921     
    104300   306.13381     -17160.956      5982.823       26.836673      1.0855641    
    104400   319.96372     -16299.75       5984.7891      26.845493      1.0852075    
    104500   299.82506     -20191.332      5986.7552      26.854312      1.0848511    
    104600   309.24469     -12373.833      5988.7213      26.863131      1.0844949    
    104700   303.53389     -21670.539      5990.6874      26.87195       1.084139     
    104800   284.17832     -15307.45       5992.6535      26.880769      1.0837833    
    104900   316.1959      -6320.4272      5994.6195      26.889588      1.0834279    
    105000   315.79666     -14753.983      5996.5856      26.898408      1.0830727    
    105100   335.08822     -21842.982      5998.5517      26.907227      1.0827177    
    105200   295.4606      -2602.7926      6000.5178      26.916046      1.0823629    
    105300   318.21934     -14445.664      6002.4839      26.924865      1.0820084    
    105400   298.74981     -16082.35       6004.45        26.933684      1.0816541    
    105500   277.70093     -16019.304      6006.4161      26.942503      1.0813       
    105600   255.55259     -12094.017      6008.3822      26.951322      1.0809462    
    105700   289.49063     -11109.621      6010.3483      26.960142      1.0805926    
    105800   296.47424     -7085.0155      6012.3144      26.968961      1.0802392    
    105900   297.64098     -17152.652      6014.2805      26.97778       1.0798861    
    106000   304.52804     -12503.087      6016.2466      26.986599      1.0795332    
    106100   310.59227     -22336.312      6018.2127      26.995418      1.0791805    
    106200   287.35662     -14050.928      6020.1788      27.004237      1.0788281    
    106300   299.38716     -23507.424      6022.1449      27.013056      1.0784759    
    106400   282.55928     -18589.019      6024.1109      27.021876      1.0781239    
    106500   310.28353     -21642.846      6026.077       27.030695      1.0777721    
    106600   319.14573     -14456.583      6028.0431      27.039514      1.0774206    
    106700   301.86875     -8433.5077      6030.0092      27.048333      1.0770693    
    106800   312.71137     -6824.1851      6031.9753      27.057152      1.0767183    
    106900   287.45888     -10922.772      6033.9414      27.065971      1.0763674    
    107000   285.13342     -12787.438      6035.9075      27.07479       1.0760168    
    107100   287.26726     -12887.122      6037.8736      27.08361       1.0756664    
    107200   294.38133     -11055.521      6039.8397      27.092429      1.0753163    
    107300   298.92135     -13605.294      6041.8058      27.101248      1.0749664    
    107400   313.84406     -15416.26       6043.7719      27.110067      1.0746167    
    107500   320.14339     -21440.662      6045.738       27.118886      1.0742672    
    107600   301.12276     -16549.054      6047.7041      27.127705      1.0739179    
    107700   305.84457     -16110.963      6049.6702      27.136525      1.0735689    
    107800   297.19507     -22295.487      6051.6363      27.145344      1.0732201    
    107900   295.44774     -19919.726      6053.6024      27.154163      1.0728716    
    108000   276.4629      -13421.546      6055.5684      27.162982      1.0725232    
    108100   307.87352     -16080.576      6057.5345      27.171801      1.0721751    
    108200   307.88199     -18471.791      6059.5006      27.18062       1.0718273    
    108300   304.50344     -15377.764      6061.4667      27.189439      1.0714796    
    108400   298.72775     -24084.931      6063.4328      27.198259      1.0711322    
    108500   279.93305     -23078.743      6065.3989      27.207078      1.070785     
    108600   288.33407     -22448.612      6067.365       27.215897      1.070438     
    108700   299.10349     -15569.801      6069.3311      27.224716      1.0700912    
    108800   304.17918     -15337.642      6071.2972      27.233535      1.0697447    
    108900   314.15552     -16732.705      6073.2633      27.242354      1.0693984    
    109000   288.42039     -20040.926      6075.2294      27.251174      1.0690523    
    109100   294.73111     -15587.115      6077.1955      27.259993      1.0687064    
    109200   303.93326     -16733.31       6079.1616      27.268812      1.0683608    
    109300   322.61282     -15693.427      6081.1277      27.277631      1.0680154    
    109400   322.93987     -16099.363      6083.0938      27.28645       1.0676702    
    109500   307.62591     -13932.866      6085.0599      27.295269      1.0673252    
    109600   305.85142     -14163.435      6087.0259      27.304088      1.0669805    
    109700   293.79644     -19333.566      6088.992       27.312908      1.066636     
    109800   284.67099     -19979.328      6090.9581      27.321727      1.0662917    
    109900   316.83755     -16068.293      6092.9242      27.330546      1.0659476    
    110000   319.4904      -17240.603      6094.8903      27.339365      1.0656037    
    110100   274.67216     -14634.876      6096.8564      27.348184      1.0652601    
    110200   319.10977     -11105.545      6098.8225      27.357003      1.0649167    
    110300   295.03691     -16053.198      6100.7886      27.365822      1.0645735    
    110400   304.58602     -22610.07       6102.7547      27.374642      1.0642305    
    110500   287.00225     -13841.613      6104.7208      27.383461      1.0638878    
    110600   276.29288     -5780.8264      6106.6869      27.39228       1.0635453    
    110700   285.77597     -7535.3111      6108.653       27.401099      1.063203     
    110800   297.34872     -18108.29       6110.6191      27.409918      1.0628609    
    110900   320.94409     -15311.75       6112.5852      27.418737      1.062519     
    111000   299.44301     -10254.646      6114.5513      27.427557      1.0621774    
    111100   290.70298     -13784.548      6116.5174      27.436376      1.0618359    
    111200   293.5109      -9097.5091      6118.4834      27.445195      1.0614947    
    111300   311.1288      -16918.562      6120.4495      27.454014      1.0611537    
    111400   308.02554     -3655.3071      6122.4156      27.462833      1.060813     
    111500   318.76007     -15133.167      6124.3817      27.471652      1.0604724    
    111600   293.08701     -18316.891      6126.3478      27.480471      1.0601321    
    111700   280.49312     -17910.925      6128.3139      27.489291      1.059792     
    111800   273.569       -19623.811      6130.28        27.49811       1.0594521    
    111900   299.06038     -11997.958      6132.2461      27.506929      1.0591124    
    112000   312.40753     -20479.159      6134.2122      27.515748      1.0587729    
    112100   307.90354     -12949.456      6136.1783      27.524567      1.0584337    
    112200   309.63117     -9437.8496      6138.1444      27.533386      1.0580947    
    112300   294.19165     -21825.44       6140.1105      27.542205      1.0577559    
    112400   247.42118     -20617.931      6142.0766      27.551025      1.0574173    
    112500   261.22913     -19282.041      6144.0427      27.559844      1.0570789    
    112600   289.90625     -15763.177      6146.0088      27.568663      1.0567408    
    112700   292.16479     -14852.369      6147.9748      27.577482      1.0564028    
    112800   301.93045     -19354.855      6149.9409      27.586301      1.0560651    
    112900   309.47347     -23492.453      6151.907       27.59512       1.0557276    
    113000   302.24827     -16063.715      6153.8731      27.603939      1.0553903    
    113100   328.99848     -11180.653      6155.8392      27.612759      1.0550532    
    113200   348.89214     -4163.45        6157.8053      27.621578      1.0547163    
    113300   311.47352     -852.98769      6159.7714      27.630397      1.0543797    
    113400   318.89172     -4207.6283      6161.7375      27.639216      1.0540433    
    113500   311.48306     -11432.384      6163.7036      27.648035      1.053707     
    113600   282.02928     -2501.2846      6165.6697      27.656854      1.053371     
    113700   298.24459     -6819.9686      6167.6358      27.665674      1.0530353    
    113800   286.52155     -9231.8185      6169.6019      27.674493      1.0526997    
    113900   296.46186      496.47015      6171.568       27.683312      1.0523643    
    114000   271.63734     -6243.0421      6173.5341      27.692131      1.0520292    
    114100   315.11665     -2685.8737      6175.5002      27.70095       1.0516942    
    114200   293.6673      -6732.1312      6177.4663      27.709769      1.0513595    
    114300   305.56645     -7664.3616      6179.4323      27.718588      1.051025     
    114400   299.11134     -3541.2611      6181.3984      27.727408      1.0506907    
    114500   306.69365     -2816.7757      6183.3645      27.736227      1.0503566    
    114600   319.32587     -10472.089      6185.3306      27.745046      1.0500228    
    114700   269.11874     -7076.3147      6187.2967      27.753865      1.0496891    
    114800   294.53694     -7878.2075      6189.2628      27.762684      1.0493557    
    114900   294.21379     -9000.5863      6191.2289      27.771503      1.0490224    
    115000   312.86797     -8901.0339      6193.195       27.780323      1.0486894    
    115100   316.57314     -4991.3975      6195.1611      27.789142      1.0483566    
    115200   323.68448     -7178.5855      6197.1272      27.797961      1.048024     
    115300   307.24317     -121.36307      6199.0933      27.80678       1.0476916    
    115400   288.52273      3473.2283      6201.0594      27.815599      1.0473594    
    115500   291.7868      -5571.1821      6203.0255      27.824418      1.0470274    
    115600   317.28331     -6465.6722      6204.9916      27.833237      1.0466957    
    115700   318.62269     -11408.872      6206.9577      27.842057      1.0463641    
    115800   318.94738     -48.447425      6208.9238      27.850876      1.0460328    
    115900   283.12893      2888.9824      6210.8898      27.859695      1.0457017    
    116000   284.71271     -648.19264      6212.8559      27.868514      1.0453708    
    116100   314.17184     -2646.6629      6214.822       27.877333      1.04504      
    116200   316.46875      772.9548       6216.7881      27.886152      1.0447095    
    116300   312.03877     -336.92891      6218.7542      27.894971      1.0443793    
    116400   309.54816     -4192.6658      6220.7203      27.903791      1.0440492    
    116500   293.29235     -3756.355       6222.6864      27.91261       1.0437193    
    116600   289.73331     -7177.7579      6224.6525      27.921429      1.0433896    
    116700   301.36565     -5593.7242      6226.6186      27.930248      1.0430602    
    116800   283.70239     -6945.4752      6228.5847      27.939067      1.0427309    
    116900   310.77785     -14163.734      6230.5508      27.947886      1.0424019    
    117000   303.82471     -6831.5501      6232.5169      27.956705      1.0420731    
    117100   277.30023     -4149.7628      6234.483       27.965525      1.0417444    
    117200   309.60406     -11464.561      6236.4491      27.974344      1.041416     
    117300   305.55982     -1506.9088      6238.4152      27.983163      1.0410878    
    117400   329.78099     -4635.2141      6240.3813      27.991982      1.0407598    
    117500   282.89263     -2225.6713      6242.3473      28.000801      1.040432     
    117600   294.10323     -3772.0529      6244.3134      28.00962       1.0401044    
    117700   301.08749     -1421.9577      6246.2795      28.01844       1.039777     
    117800   308.97348     -955.79657      6248.2456      28.027259      1.0394498    
    117900   325.96299      4637.8613      6250.2117      28.036078      1.0391229    
    118000   307.12868     -514.70501      6252.1778      28.044897      1.0387961    
    118100   300.70189     -110.28132      6254.1439      28.053716      1.0384695    
    118200   315.95228     -1121.7345      6256.11        28.062535      1.0381432    
    118300   302.72942     -7515.1618      6258.0761      28.071354      1.037817     
    118400   282.53189     -10325.865      6260.0422      28.080174      1.0374911    
    118500   296.22543     -12825.167      6262.0083      28.088993      1.0371653    
    118600   332.87161     -5811.5768      6263.9744      28.097812      1.0368398    
    118700   292.23265     -6182.4229      6265.9405      28.106631      1.0365145    
    118800   275.6922      -1454.295       6267.9066      28.11545       1.0361893    
    118900   302.71949     -3129.5897      6269.8727      28.124269      1.0358644    
    119000   312.04353     -4714.4728      6271.8387      28.133088      1.0355397    
    119100   298.78568      6080.8997      6273.8048      28.141908      1.0352152    
    119200   265.94431     -7983.7721      6275.7709      28.150727      1.0348909    
    119300   287.12372      5539.252       6277.737       28.159546      1.0345667    
    119400   299.74886      2085.4731      6279.7031      28.168365      1.0342428    
    119500   294.73185      122.71969      6281.6692      28.177184      1.0339191    
    119600   311.51419      773.76584      6283.6353      28.186003      1.0335956    
    119700   286.9114      -5487.3973      6285.6014      28.194823      1.0332723    
    119800   287.71781     -6919.5481      6287.5675      28.203642      1.0329492    
    119900   300.25706     -4934.6635      6289.5336      28.212461      1.0326263    
    120000   326.07541     -3532.5573      6291.4997      28.22128       1.0323036    
Loop time of 2150.73 on 16 procs for 120000 steps with 350 atoms

Performance: 2.410 ns/day, 9.957 hours/ns, 55.795 timesteps/s, 19.528 katom-step/s
100.4% CPU use with 8 MPI tasks x 2 OpenMP threads

MPI task timing breakdown:
Section |  min time  |  avg time  |  max time  |%varavg| %total
---------------------------------------------------------------
Pair    | 1515.6     | 1569.7     | 1645.4     | 116.3 | 72.99
Bond    | 0.20991    | 0.22698    | 0.26142    |   3.5 |  0.01
Neigh   | 165.08     | 173.64     | 181.44     |  53.8 |  8.07
Comm    | 34.307     | 109.45     | 163.28     | 437.2 |  5.09
Output  | 0.27846    | 0.30752    | 0.33684    |   3.4 |  0.01
Modify  | 286.87     | 294.31     | 302.59     |  39.4 | 13.68
Other   |            | 3.067      |            |       |  0.14

Nlocal:          43.75 ave          66 max          13 min
Histogram: 1 1 1 1 0 0 0 0 0 4
Nghost:        2204.62 ave        2613 max        1802 min
Histogram: 3 1 0 0 0 0 0 0 1 3
Neighs:        18402.4 ave       30297 max        4811 min
Histogram: 2 2 0 0 0 0 0 0 0 4

Total # of neighbors = 147219
Ave neighs/atom = 420.62571
Ave special neighs/atom = 0
Neighbor list builds = 12000
Dangerous builds not checked
unfix deform_p
unfix data
undump dump_pos${dir}
undump dump_pos3

# Delete dir to make sure it is not reused
variable dir delete



Total wall time: 0:35:50
