LAMMPS (2 Aug 2023 - Update 2)
  using 2 OpenMP thread(s) per MPI task
Reading data file ...
  triclinic box = (0 0 0) to (15.6782 14.2194 17.6383) with tilt (-7.0409 -1.0144 0.675)
  2 by 2 by 2 MPI processor grid
  reading atoms ...
  350 atoms
  reading velocities ...
  350 velocities
Finding 1-2 1-3 1-4 neighbors ...
  special bond factors lj:    0        0        0       
  special bond factors coul:  0        0        0       
     0 = max # of 1-2 neighbors
     0 = max # of 1-3 neighbors
     0 = max # of 1-4 neighbors
     1 = max # of special neighbors
  special bonds CPU = 0.001 seconds
  read_data CPU = 0.014 seconds
WARNING: Van der Waals parameters for element SI indicate inner wall+shielding, but earlier atoms indicate a different van der Waals method. This may cause division-by-zero errors. Keeping van der Waals setting for earlier atoms. (src/REAXFF/reaxff_ffield.cpp:251)
System init for write_restart ...
Neighbor list info ...
  update: every = 1 steps, delay = 0 steps, check = yes
  max neighbors/atom: 2000, page size: 100000
  master list distance cutoff = 12
  ghost atom cutoff = 12
  binsize = 6, bins = 4 3 3
  2 neighbor lists, perpetual/occasional/extra = 2 0 0
  (1) pair reaxff, perpetual
      attributes: half, newton off, ghost
      pair build: half/bin/newtoff/ghost
      stencil: full/ghost/bin/3d
      bin: standard
  (2) fix qeq/reaxff, perpetual, copy from (1)
      attributes: half, newton off
      pair build: copy
      stencil: none
      bin: none
  using 2 OpenMP thread(s) per MPI task
Reading restart file ...
  restart file = 2 Aug 2023, LAMMPS = 2 Aug 2023
  restoring atom style full from restart
  triclinic box = (0 0 0) to (15.6782 14.2194 17.6383) with tilt (-7.0409 -1.0144 0.675)
  2 by 2 by 2 MPI processor grid
  pair style reaxff stores no restart info
  350 atoms
Finding 1-2 1-3 1-4 neighbors ...
  special bond factors lj:    0        0        0       
  special bond factors coul:  0        0        0       
     0 = max # of 1-2 neighbors
     0 = max # of 1-3 neighbors
     0 = max # of 1-4 neighbors
     1 = max # of special neighbors
  special bonds CPU = 0.000 seconds
  read_restart CPU = 0.004 seconds
*****Positive-deform 3 starts.*****
WARNING: Van der Waals parameters for element SI indicate inner wall+shielding, but earlier atoms indicate a different van der Waals method. This may cause division-by-zero errors. Keeping van der Waals setting for earlier atoms. (src/REAXFF/reaxff_ffield.cpp:251)

CITE-CITE-CITE-CITE-CITE-CITE-CITE-CITE-CITE-CITE-CITE-CITE-CITE

Your simulation uses code contributions which should be cited:
- pair reaxff command: doi:10.1016/j.parco.2011.08.005
- fix qeq/reaxff command: doi:10.1016/j.parco.2011.08.005
The log file lists these citations in BibTeX format.

CITE-CITE-CITE-CITE-CITE-CITE-CITE-CITE-CITE-CITE-CITE-CITE-CITE

WARNING: Compute rdf cutoff less than neighbor cutoff - forcing a needless neighbor list build (src/compute_rdf.cpp:179)
Neighbor list info ...
  update: every = 10 steps, delay = 0 steps, check = no
  max neighbors/atom: 2000, page size: 100000
  master list distance cutoff = 12
  ghost atom cutoff = 12
  binsize = 6, bins = 4 3 3
  3 neighbor lists, perpetual/occasional/extra = 2 1 0
  (1) pair reaxff, perpetual
      attributes: half, newton off, ghost
      pair build: half/bin/newtoff/ghost
      stencil: full/ghost/bin/3d
      bin: standard
  (2) compute rdf, occasional
      attributes: half, newton on, cut 7
      pair build: half/bin/newton/tri
      stencil: half/bin/3d/tri
      bin: standard
  (3) fix qeq/reaxff, perpetual, copy from (1)
      attributes: half, newton off
      pair build: copy
      stencil: none
      bin: none
Setting up Verlet run ...
  Unit style    : real
  Current step  : 0
  Time step     : 0.5
Per MPI rank memory allocation (min/avg/max) = 126.9 | 128.1 | 129.4 Mbytes
   Step          Temp          Press          Volume           Lz          Density    
         0   300            7984.4262      3932.1873      17.6383        1.6516858    
       100   289.23079     -254.39802      3936.1195      17.655938      1.6500358    
       200   306.64825      18951.621      3940.0517      17.673577      1.648389     
       300   287.23371      198.21194      3943.9839      17.691215      1.6467456    
       400   306.71194      4992.3975      3947.9161      17.708853      1.6451054    
       500   296.82406     -2405.6746      3951.8482      17.726492      1.6434685    
       600   276.04331      18787.202      3955.7804      17.74413       1.6418348    
       700   283.02553     -283.34615      3959.7126      17.761768      1.6402044    
       800   284.5869      -1637.6564      3963.6448      17.779406      1.6385772    
       900   312.83097      5795.4837      3967.577       17.797045      1.6369532    
      1000   305.46021     -1468.5652      3971.5092      17.814683      1.6353325    
      1100   315.65074      5851.0778      3975.4414      17.832321      1.6337149    
      1200   290.69108     -6070.6952      3979.3736      17.84996       1.6321006    
      1300   277.36656      15469.826      3983.3057      17.867598      1.6304894    
      1400   264.70533     -531.96965      3987.2379      17.885236      1.6288815    
      1500   283.48697      6763.5106      3991.1701      17.902874      1.6272766    
      1600   304.0428      -16820.431      3995.1023      17.920513      1.625675     
      1700   301.06926     -1093.1449      3999.0345      17.938151      1.6240765    
      1800   308.67689     -1501.8114      4002.9667      17.955789      1.6224811    
      1900   300.21065     -13271.717      4006.8989      17.973428      1.6208889    
      2000   278.79281      1818.2808      4010.831       17.991066      1.6192998    
      2100   271.88296     -7906.6197      4014.7632      18.008704      1.6177138    
      2200   286.63795      3058.133       4018.6954      18.026343      1.6161309    
      2300   291.68585     -2256.9139      4022.6276      18.043981      1.6145511    
      2400   304.51461      652.17204      4026.5598      18.061619      1.6129744    
      2500   321.11592      5501.2012      4030.492       18.079258      1.6114008    
      2600   298.82916     -15546.092      4034.4242      18.096896      1.6098302    
      2700   292.0699      -5408.6068      4038.3564      18.114534      1.6082627    
      2800   299.7441      -10643.184      4042.2885      18.132172      1.6066982    
      2900   325.20112      1418.8168      4046.2207      18.149811      1.6051368    
      3000   311.24524     -13287.131      4050.1529      18.167449      1.6035784    
      3100   288.9035       2439.7952      4054.0851      18.185087      1.6020231    
      3200   305.9098      -728.86761      4058.0173      18.202726      1.6004707    
      3300   307.49501     -5951.9336      4061.9495      18.220364      1.5989214    
      3400   292.52135     -8243.8489      4065.8817      18.238002      1.597375     
      3500   294.39772     -11038.222      4069.8139      18.255641      1.5958317    
      3600   306.10923     -15528.433      4073.746       18.273279      1.5942913    
      3700   324.16802      2330.2541      4077.6782      18.290917      1.5927539    
      3800   301.85247     -11568.136      4081.6104      18.308555      1.5912195    
      3900   278.73731     -7625.445       4085.5426      18.326194      1.589688     
      4000   291.24745     -17857.024      4089.4748      18.343832      1.5881594    
      4100   328.89162     -4597.2823      4093.407       18.36147       1.5866338    
      4200   307.41292     -10130.631      4097.3392      18.379109      1.5851111    
      4300   298.58804      1357.9078      4101.2714      18.396747      1.5835914    
      4400   279.59046     -8732.5223      4105.2035      18.414385      1.5820745    
      4500   314.90163     -9662.7222      4109.1357      18.432023      1.5805606    
      4600   311.33411     -7799.6456      4113.0679      18.449662      1.5790495    
      4700   312.08343      3464.1035      4117.0001      18.4673        1.5775414    
      4800   283.05353     -1796.7693      4120.9323      18.484938      1.5760361    
      4900   285.65042     -272.17107      4124.8645      18.502577      1.5745336    
      5000   306.85107      11859.229      4128.7967      18.520215      1.5730341    
      5100   307.37748     -1171.6977      4132.7289      18.537853      1.5715374    
      5200   307.74668     -4066.351       4136.661       18.555492      1.5700435    
      5300   305.92358     -2299.2413      4140.5932      18.57313       1.5685525    
      5400   278.03709      3342.7017      4144.5254      18.590768      1.5670643    
      5500   297.99307     -2886.8933      4148.4576      18.608407      1.565579     
      5600   296.04581     -253.43975      4152.3898      18.626045      1.5640964    
      5700   298.12284     -16890.476      4156.322       18.643683      1.5626166    
      5800   319.05628      5169.5609      4160.2542      18.661321      1.5611397    
      5900   304.27088     -7754.8632      4164.1864      18.67896       1.5596655    
      6000   294.88891      1178.8874      4168.1185      18.696598      1.5581941    
      6100   292.9414      -5018.2864      4172.0507      18.714236      1.5567255    
      6200   305.33912     -8842.9886      4175.9829      18.731875      1.5552597    
      6300   299.90248     -3752.2754      4179.9151      18.749513      1.5537966    
      6400   317.47499     -5864.1606      4183.8473      18.767151      1.5523363    
      6500   326.41384     -14332.97       4187.7795      18.78479       1.5508787    
      6600   308.90334     -9409.0292      4191.7117      18.802428      1.5494238    
      6700   312.88286     -3081.4354      4195.6439      18.820066      1.5479717    
      6800   292.28784      8739.3287      4199.576       18.837704      1.5465223    
      6900   276.19887     -3539.7127      4203.5082      18.855343      1.5450756    
      7000   318.283        694.74189      4207.4404      18.872981      1.5436316    
      7100   323.8884      -11043.053      4211.3726      18.890619      1.5421903    
      7200   317.46104     -8735.0981      4215.3048      18.908258      1.5407517    
      7300   296.77105     -11602.32       4219.237       18.925896      1.5393157    
      7400   274.95992     -10435.59       4223.1692      18.943534      1.5378825    
      7500   319.68043     -8172.0184      4227.1014      18.961172      1.5364519    
      7600   302.80373     -4766.7907      4231.0335      18.978811      1.535024     
      7700   310.92517     -9527.2025      4234.9657      18.996449      1.5335987    
      7800   283.79475     -4117.303       4238.8979      19.014087      1.5321761    
      7900   272.64377     -2010.44        4242.8301      19.031726      1.5307561    
      8000   291.8743      -7735.1856      4246.7623      19.049364      1.5293387    
      8100   300.76307     -15654.733      4250.6945      19.067002      1.527924     
      8200   308.3756      -17111.357      4254.6267      19.084641      1.5265118    
      8300   305.02615     -5466.8208      4258.5588      19.102279      1.5251023    
      8400   285.56168     -9998.8481      4262.491       19.119917      1.5236954    
      8500   286.77007     -2500.2076      4266.4232      19.137556      1.5222911    
      8600   300.79552     -8275.6139      4270.3554      19.155194      1.5208893    
      8700   327.09938     -6007.1705      4274.2876      19.172832      1.5194902    
      8800   278.23616     -5630.4655      4278.2198      19.19047       1.5180936    
      8900   297.57824     -2634.6483      4282.152       19.208109      1.5166995    
      9000   292.47727     -5410.8931      4286.0842      19.225747      1.5153081    
      9100   286.54367     -8302.6847      4290.0163      19.243385      1.5139192    
      9200   295.15126     -3306.2196      4293.9485      19.261024      1.5125328    
      9300   313.60786     -17453.796      4297.8807      19.278662      1.5111489    
      9400   310.68082      2985.1467      4301.8129      19.2963        1.5097676    
      9500   280.73695     -2290.0176      4305.7451      19.313939      1.5083889    
      9600   306.97544     -19664.121      4309.6773      19.331577      1.5070126    
      9700   305.53357     -12653.964      4313.6095      19.349215      1.5056388    
      9800   305.67471     -10416.575      4317.5417      19.366853      1.5042676    
      9900   308.21851      1243.4672      4321.4738      19.384492      1.5028988    
     10000   281.43698     -7874.9059      4325.406       19.40213       1.5015325    
     10100   298.54241     -18990.433      4329.3382      19.419768      1.5001688    
     10200   302.04595     -3920.6819      4333.2704      19.437407      1.4988074    
     10300   315.47564     -6146.7045      4337.2026      19.455045      1.4974486    
     10400   302.53102     -14317.502      4341.1348      19.472683      1.4960922    
     10500   311.41296     -10267.053      4345.067       19.490322      1.4947383    
     10600   295.51552      4235.799       4348.9992      19.50796       1.4933868    
     10700   276.45206      1260.1621      4352.9313      19.525598      1.4920378    
     10800   295.80071     -7873.435       4356.8635      19.543236      1.4906912    
     10900   302.59033     -5173.0845      4360.7957      19.560875      1.489347     
     11000   289.5289      -2452.1676      4364.7279      19.578513      1.4880052    
     11100   310.42688     -15133.203      4368.6601      19.596151      1.4866659    
     11200   301.25346     -6857.6686      4372.5923      19.61379       1.485329     
     11300   293.6562      -9823.8899      4376.5245      19.631428      1.4839944    
     11400   296.11051     -7016.4801      4380.4567      19.649066      1.4826623    
     11500   300.95665     -4415.3373      4384.3888      19.666705      1.4813326    
     11600   263.72478     -7969.4578      4388.321       19.684343      1.4800052    
     11700   298.52779     -13680.686      4392.2532      19.701981      1.4786802    
     11800   288.69405     -16015.053      4396.1854      19.719619      1.4773576    
     11900   307.83176      680.89095      4400.1176      19.737258      1.4760374    
     12000   330.74073     -8600.3762      4404.0498      19.754896      1.4747195    
     12100   288.49088     -7131.7267      4407.982       19.772534      1.4734039    
     12200   277.488       -1301.4448      4411.9142      19.790173      1.4720907    
     12300   279.21471      2087.6208      4415.8463      19.807811      1.4707799    
     12400   312.29859     -8613.0223      4419.7785      19.825449      1.4694713    
     12500   308.08699     -8671.9267      4423.7107      19.843088      1.4681652    
     12600   313.82474     -15415.125      4427.6429      19.860726      1.4668613    
     12700   305.69591     -11333.432      4431.5751      19.878364      1.4655597    
     12800   284.87581     -3465.2571      4435.5073      19.896002      1.4642605    
     12900   299.77801     -6695.2502      4439.4395      19.913641      1.4629635    
     13000   320.60348     -2065.2667      4443.3717      19.931279      1.4616688    
     13100   283.08281     -4519.7902      4447.3038      19.948917      1.4603765    
     13200   281.56848     -8041.6644      4451.236       19.966556      1.4590864    
     13300   285.40323     -5178.2343      4455.1682      19.984194      1.4577986    
     13400   291.29941     -4003.6062      4459.1004      20.001832      1.456513     
     13500   296.92117      400.03395      4463.0326      20.019471      1.4552298    
     13600   310.88682     -1804.9138      4466.9648      20.037109      1.4539488    
     13700   297.92251      7690.1616      4470.897       20.054747      1.45267      
     13800   298.88767     -8306.3864      4474.8292      20.072385      1.4513935    
     13900   282.39958     -10549.291      4478.7613      20.090024      1.4501192    
     14000   281.23523     -7718.1104      4482.6935      20.107662      1.4488472    
     14100   300.54876     -15519.221      4486.6257      20.1253        1.4475774    
     14200   311.67974     -4908.0613      4490.5579      20.142939      1.4463098    
     14300   291.8127       326.72837      4494.4901      20.160577      1.4450444    
     14400   290.63582     -300.66014      4498.4223      20.178215      1.4437813    
     14500   286.89777     -10443.165      4502.3545      20.195854      1.4425203    
     14600   285.95822      11102.986      4506.2867      20.213492      1.4412616    
     14700   293.61968     -3808.5094      4510.2188      20.23113       1.4400051    
     14800   293.11234     -6545.9012      4514.151       20.248768      1.4387507    
     14900   294.44283     -12607.931      4518.0832      20.266407      1.4374985    
     15000   296.4352      -10563.821      4522.0154      20.284045      1.4362485    
     15100   293.58709     -4591.5066      4525.9476      20.301683      1.4350007    
     15200   283.65767     -5825.4377      4529.8798      20.319322      1.433755     
     15300   290.7018      -4974.2384      4533.812       20.33696       1.4325115    
     15400   310.76126     -207.37947      4537.7441      20.354598      1.4312702    
     15500   329.55003     -2355.8589      4541.6763      20.372236      1.430031     
     15600   305.61965      191.87937      4545.6085      20.389875      1.4287939    
     15700   299.63181     -5675.4442      4549.5407      20.407513      1.427559     
     15800   300.31142     -3754.4445      4553.4729      20.425151      1.4263262    
     15900   298.65615     -16664.25       4557.4051      20.44279       1.4250956    
     16000   306.74113      2113.9996      4561.3373      20.460428      1.4238671    
     16100   321.39259     -16438.022      4565.2695      20.478066      1.4226407    
     16200   312.76002     -7647.2983      4569.2016      20.495705      1.4214163    
     16300   318.0018      -2367.4399      4573.1338      20.513343      1.4201942    
     16400   303.06993     -5163.9843      4577.066       20.530981      1.4189741    
     16500   286.83446     -4836.6449      4580.9982      20.54862       1.417756     
     16600   274.96472     -22088.211      4584.9304      20.566258      1.4165401    
     16700   317.94148     -12719.402      4588.8626      20.583896      1.4153263    
     16800   303.90836     -14906.669      4592.7948      20.601534      1.4141146    
     16900   321.33481     -7065.227       4596.727       20.619173      1.4129049    
     17000   288.19977     -8121.2165      4600.6591      20.636811      1.4116973    
     17100   288.42032     -5979.1634      4604.5913      20.654449      1.4104917    
     17200   313.30696     -8621.002       4608.5235      20.672088      1.4092882    
     17300   308.0961      -4144.1267      4612.4557      20.689726      1.4080868    
     17400   311.27146     -6929.1865      4616.3879      20.707364      1.4068874    
     17500   293.72724     -4246.2475      4620.3201      20.725003      1.40569      
     17600   299.03023     -17312.052      4624.2523      20.742641      1.4044947    
     17700   293.91808     -16393.784      4628.1845      20.760279      1.4033014    
     17800   283.68811     -13730.206      4632.1166      20.777917      1.4021102    
     17900   292.48275     -10851.577      4636.0488      20.795556      1.4009209    
     18000   316.89461      2433.3032      4639.981       20.813194      1.3997337    
     18100   320.20649     -11831.743      4643.9132      20.830832      1.3985485    
     18200   286.96296     -7936.5621      4647.8454      20.848471      1.3973653    
     18300   289.19125     -6546.9193      4651.7776      20.866109      1.3961841    
     18400   290.4071      -10587.405      4655.7098      20.883747      1.3950049    
     18500   309.33699     -12980.364      4659.642       20.901385      1.3938277    
     18600   292.10597     -9745.9308      4663.5741      20.919024      1.3926524    
     18700   307.03837     -6427.5527      4667.5063      20.936662      1.3914792    
     18800   313.4564      -1254.3444      4671.4385      20.9543        1.3903079    
     18900   299.13942     -6427.224       4675.3707      20.971939      1.3891386    
     19000   367.49136     -15834.119      4679.3029      20.989577      1.3879713    
     19100   309.34182     -16177.903      4683.2351      21.007215      1.3868059    
     19200   314.58216     -7823.3124      4687.1673      21.024854      1.3856424    
     19300   310.60572     -3235.2731      4691.0995      21.042492      1.384481     
     19400   296.47583     -11374.505      4695.0316      21.06013       1.3833214    
     19500   280.02553     -17085.101      4698.9638      21.077769      1.3821638    
     19600   305.2528      -7013.0753      4702.896       21.095407      1.3810082    
     19700   308.86041     -10457.998      4706.8282      21.113045      1.3798545    
     19800   276.47423     -6092.7446      4710.7604      21.130683      1.3787027    
     19900   321.75736     -14574.984      4714.6926      21.148322      1.3775528    
     20000   305.63223     -8880.2708      4718.6248      21.16596       1.3764048    
     20100   283.08888     -8161.2898      4722.557       21.183598      1.3752588    
     20200   305.90276     -10219.218      4726.4891      21.201237      1.3741146    
     20300   296.89096     -15549.152      4730.4213      21.218875      1.3729724    
     20400   299.53091     -6860.0384      4734.3535      21.236513      1.3718321    
     20500   284.11908     -17151.289      4738.2857      21.254151      1.3706936    
     20600   306.1657      -3879.2497      4742.2179      21.27179       1.369557     
     20700   287.11633     -3680.5171      4746.1501      21.289428      1.3684224    
     20800   310.06117     -5492.5001      4750.0823      21.307066      1.3672896    
     20900   285.50149      421.88553      4754.0145      21.324705      1.3661586    
     21000   290.57226     -8293.3351      4757.9466      21.342343      1.3650296    
     21100   299.23986     -652.93873      4761.8788      21.359981      1.3639024    
     21200   284.17824     -11865.614      4765.811       21.37762       1.3627771    
     21300   291.90723     -2087.5812      4769.7432      21.395258      1.3616536    
     21400   305.68103     -14099.713      4773.6754      21.412896      1.360532     
     21500   288.57049     -21491.033      4777.6076      21.430535      1.3594122    
     21600   284.29313     -23348.475      4781.5398      21.448173      1.3582942    
     21700   296.0778      -8109.3794      4785.4719      21.465811      1.3571781    
     21800   283.74013     -5882.7166      4789.4041      21.483449      1.3560639    
     21900   285.85261     -16669.819      4793.3363      21.501088      1.3549514    
     22000   273.23752     -17877.252      4797.2685      21.518726      1.3538408    
     22100   302.28459     -10663.886      4801.2007      21.536364      1.352732     
     22200   305.17841     -9654.7526      4805.1329      21.554003      1.351625     
     22300   280.40656     -13126.88       4809.0651      21.571641      1.3505199    
     22400   288.55342     -18131.796      4812.9973      21.589279      1.3494165    
     22500   291.42251     -6527.6608      4816.9294      21.606918      1.3483149    
     22600   284.11015     -16862.345      4820.8616      21.624556      1.3472152    
     22700   286.37938     -20235.538      4824.7938      21.642194      1.3461172    
     22800   317.52363     -22368.327      4828.726       21.659832      1.345021     
     22900   274.17576     -11445.512      4832.6582      21.677471      1.3439266    
     23000   312.37269     -1809.5371      4836.5904      21.695109      1.342834     
     23100   292.32243     -6404.2773      4840.5226      21.712747      1.3417431    
     23200   280.09331     -8831.5182      4844.4548      21.730386      1.3406541    
     23300   299.44717     -14920.878      4848.3869      21.748024      1.3395667    
     23400   292.28184     -19708.858      4852.3191      21.765662      1.3384812    
     23500   322.60518     -11748.11       4856.2513      21.783301      1.3373974    
     23600   287.40878     -27376.983      4860.1835      21.800939      1.3363154    
     23700   305.08531     -8698.3887      4864.1157      21.818577      1.3352351    
     23800   267.88251     -14160.391      4868.0479      21.836215      1.3341565    
     23900   305.58367     -16696.236      4871.9801      21.853854      1.3330797    
     24000   316.98742     -26160.259      4875.9123      21.871492      1.3320047    
     24100   292.94669     -8663.6851      4879.8444      21.88913       1.3309313    
     24200   293.75768     -17329.211      4883.7766      21.906769      1.3298597    
     24300   283.5965      -11087.724      4887.7088      21.924407      1.3287899    
     24400   318.63346     -12084.623      4891.641       21.942045      1.3277217    
     24500   299.77147     -22642.962      4895.5732      21.959684      1.3266553    
     24600   346.24575     -16512.103      4899.5054      21.977322      1.3255905    
     24700   282.40331     -14282.506      4903.4376      21.99496       1.3245275    
     24800   297.17888     -24918.95       4907.3698      22.012598      1.3234662    
     24900   304.6949      -20197.39       4911.3019      22.030237      1.3224066    
     25000   306.52174     -10775.109      4915.2341      22.047875      1.3213486    
     25100   300.09135     -13598.556      4919.1663      22.065513      1.3202924    
     25200   311.88532     -16966.792      4923.0985      22.083152      1.3192379    
     25300   285.23035     -13586.539      4927.0307      22.10079       1.318185     
     25400   290.62042     -17446.768      4930.9629      22.118428      1.3171338    
     25500   309.56575     -11990.456      4934.8951      22.136067      1.3160843    
     25600   291.90562     -22359.068      4938.8273      22.153705      1.3150365    
     25700   322.31612     -15013.596      4942.7594      22.171343      1.3139903    
     25800   313.75297     -17834.881      4946.6916      22.188981      1.3129458    
     25900   287.06542     -14558.71       4950.6238      22.20662       1.3119029    
     26000   304.37653     -23785.86       4954.556       22.224258      1.3108617    
     26100   294.91239     -14640.813      4958.4882      22.241896      1.3098222    
     26200   288.59476     -26012.021      4962.4204      22.259535      1.3087843    
     26300   304.24077     -13632.57       4966.3526      22.277173      1.3077481    
     26400   305.34304     -3312.6384      4970.2848      22.294811      1.3067134    
     26500   309.47017     -11989.426      4974.2169      22.312449      1.3056805    
     26600   290.41995     -17355.782      4978.1491      22.330088      1.3046491    
     26700   290.82999     -4981.8825      4982.0813      22.347726      1.3036194    
     26800   273.61279     -19640.202      4986.0135      22.365364      1.3025913    
     26900   301.40952     -15801.112      4989.9457      22.383003      1.3015649    
     27000   319.71593     -21147.79       4993.8779      22.400641      1.30054      
     27100   298.29734     -14762.842      4997.8101      22.418279      1.2995168    
     27200   312.25963     -13955.917      5001.7423      22.435918      1.2984951    
     27300   306.09198     -17369.261      5005.6744      22.453556      1.2974751    
     27400   289.91773     -19027.104      5009.6066      22.471194      1.2964567    
     27500   315.28754     -10425.345      5013.5388      22.488833      1.2954398    
     27600   331.89216     -6359.5438      5017.471       22.506471      1.2944246    
     27700   305.68098     -21480.23       5021.4032      22.524109      1.293411     
     27800   320.78662     -19797.139      5025.3354      22.541747      1.2923989    
     27900   310.79321     -16835.198      5029.2676      22.559386      1.2913884    
     28000   292.43495     -8534.0096      5033.1997      22.577024      1.2903795    
     28100   284.04878     -14268.51       5037.1319      22.594662      1.2893722    
     28200   281.33458     -5813.2171      5041.0641      22.612301      1.2883665    
     28300   295.18932     -8733.8105      5044.9963      22.629939      1.2873623    
     28400   298.9691      -16206.224      5048.9285      22.647577      1.2863597    
     28500   322.91065     -14225.485      5052.8607      22.665216      1.2853586    
     28600   322.6888      -22502.671      5056.7929      22.682854      1.2843591    
     28700   292.34536     -7969.698       5060.7251      22.700492      1.2833611    
     28800   289.67112     -15460.784      5064.6572      22.71813       1.2823647    
     28900   280.78052     -14856.121      5068.5894      22.735769      1.2813699    
     29000   315.27065     -14558.434      5072.5216      22.753407      1.2803766    
     29100   327.42619     -21241.908      5076.4538      22.771045      1.2793848    
     29200   295.87763     -21696.832      5080.386       22.788684      1.2783946    
     29300   266.36274     -8875.5707      5084.3182      22.806322      1.2774059    
     29400   263.3953      -9192.0718      5088.2504      22.82396       1.2764187    
     29500   314.27978     -14801.081      5092.1826      22.841598      1.275433     
     29600   308.57477     -24258.839      5096.1147      22.859237      1.2744489    
     29700   289.32433     -21446.992      5100.0469      22.876875      1.2734663    
     29800   308.91415     -23131.404      5103.9791      22.894513      1.2724852    
     29900   328.20589     -20007.44       5107.9113      22.912152      1.2715056    
     30000   341.66654     -12805.539      5111.8435      22.92979       1.2705275    
     30100   301.54317     -16626.829      5115.7757      22.947428      1.269551     
     30200   311.66997     -8835.8106      5119.7079      22.965067      1.2685759    
     30300   292.06323     -6015.3987      5123.6401      22.982705      1.2676023    
     30400   311.91033     -16724.14       5127.5722      23.000343      1.2666302    
     30500   317.4287      -17668.593      5131.5044      23.017982      1.2656596    
     30600   321.81189     -24885.161      5135.4366      23.03562       1.2646905    
     30700   305.75397     -21807.102      5139.3688      23.053258      1.2637229    
     30800   286.71836     -21209.148      5143.301       23.070896      1.2627567    
     30900   290.9795      -20178.561      5147.2332      23.088535      1.2617921    
     31000   324.40691     -21201.844      5151.1654      23.106173      1.2608289    
     31100   313.9635      -16376.096      5155.0976      23.123811      1.2598671    
     31200   288.17633     -24423.331      5159.0297      23.14145       1.2589069    
     31300   286.08536     -28406.179      5162.9619      23.159088      1.2579481    
     31400   292.35839     -25491.993      5166.8941      23.176726      1.2569907    
     31500   307.10609     -6879.6831      5170.8263      23.194365      1.2560348    
     31600   319.28739     -15069.976      5174.7585      23.212003      1.2550804    
     31700   303.84798     -21510.801      5178.6907      23.229641      1.2541274    
     31800   299.94658     -15884.623      5182.6229      23.247279      1.2531759    
     31900   312.78382     -15181.785      5186.5551      23.264918      1.2522258    
     32000   322.40972     -21871.04       5190.4872      23.282556      1.2512771    
     32100   295.72034     -18820.737      5194.4194      23.300194      1.2503299    
     32200   298.34544     -21428.222      5198.3516      23.317833      1.2493841    
     32300   308.60733     -24874.049      5202.2838      23.335471      1.2484398    
     32400   304.08059     -13603.135      5206.216       23.353109      1.2474968    
     32500   312.01026     -13414.073      5210.1482      23.370748      1.2465553    
     32600   294.33736     -22596.532      5214.0804      23.388386      1.2456152    
     32700   266.60747     -18986.509      5218.0126      23.406024      1.2446766    
     32800   290.63962     -29803.806      5221.9447      23.423662      1.2437393    
     32900   306.61232     -21490.69       5225.8769      23.441301      1.2428035    
     33000   310.64091     -9391.2101      5229.8091      23.458939      1.241869     
     33100   317.67681     -11771.055      5233.7413      23.476577      1.240936     
     33200   313.20293     -19093.178      5237.6735      23.494216      1.2400044    
     33300   291.979       -18932.251      5241.6057      23.511854      1.2390741    
     33400   292.32164     -15751.355      5245.5379      23.529492      1.2381453    
     33500   290.28318     -17112.218      5249.4701      23.547131      1.2372178    
     33600   287.17463     -12293.779      5253.4022      23.564769      1.2362918    
     33700   324.11115     -26075.841      5257.3344      23.582407      1.2353671    
     33800   324.6324      -17613.752      5261.2666      23.600045      1.2344438    
     33900   314.24689     -22794.277      5265.1988      23.617684      1.2335219    
     34000   313.38336     -9048.5239      5269.131       23.635322      1.2326013    
     34100   303.593       -20206.705      5273.0632      23.65296       1.2316822    
     34200   310.65615     -22556.267      5276.9954      23.670599      1.2307644    
     34300   334.11225     -16868.151      5280.9275      23.688237      1.229848     
     34400   324.71709     -11969.551      5284.8597      23.705875      1.2289329    
     34500   301.17364     -18648.187      5288.7919      23.723514      1.2280192    
     34600   281.80489     -21081.446      5292.7241      23.741152      1.2271068    
     34700   275.75396     -20739.121      5296.6563      23.75879       1.2261958    
     34800   280.49661     -17721.139      5300.5885      23.776428      1.2252862    
     34900   309.51859     -22436.481      5304.5207      23.794067      1.2243779    
     35000   332.28591     -21514.305      5308.4529      23.811705      1.223471     
     35100   320.66741     -21625.717      5312.385       23.829343      1.2225654    
     35200   316.7189      -21528.75       5316.3172      23.846982      1.2216611    
     35300   290.86861     -19983.654      5320.2494      23.86462       1.2207582    
     35400   302.4371      -19396.641      5324.1816      23.882258      1.2198566    
     35500   298.94688     -19367.581      5328.1138      23.899897      1.2189563    
     35600   285.1169      -21590.481      5332.046       23.917535      1.2180574    
     35700   302.35744     -28267.546      5335.9782      23.935173      1.2171598    
     35800   284.22541     -17306.675      5339.9104      23.952811      1.2162635    
     35900   278.36954     -20064.374      5343.8425      23.97045       1.2153685    
     36000   281.50042     -19088.328      5347.7747      23.988088      1.2144749    
     36100   286.83154     -20972.153      5351.7069      24.005726      1.2135825    
     36200   298.47702     -18958.389      5355.6391      24.023365      1.2126915    
     36300   282.30198     -21241.832      5359.5713      24.041003      1.2118018    
     36400   317.17153     -19778.963      5363.5035      24.058641      1.2109133    
     36500   325.43265     -21471.308      5367.4357      24.07628       1.2100262    
     36600   341.05916     -18744.618      5371.3679      24.093918      1.2091404    
     36700   288.17586     -23566.208      5375.3         24.111556      1.2082559    
     36800   289.31686     -20705.165      5379.2322      24.129194      1.2073727    
     36900   295.9407      -23603.587      5383.1644      24.146833      1.2064907    
     37000   307.07663     -26592.524      5387.0966      24.164471      1.2056101    
     37100   311.93813     -21150.588      5391.0288      24.182109      1.2047307    
     37200   290.9352      -23265.479      5394.961       24.199748      1.2038526    
     37300   288.56965     -18913.88       5398.8932      24.217386      1.2029758    
     37400   278.58387     -9711.1787      5402.8254      24.235024      1.2021003    
     37500   296.01577     -23078.888      5406.7575      24.252662      1.201226     
     37600   289.72302     -29048.558      5410.6897      24.270301      1.2003531    
     37700   306.33125     -12155.637      5414.6219      24.287939      1.1994813    
     37800   329.83282     -13230.566      5418.5541      24.305577      1.1986109    
     37900   318.84721     -14807.373      5422.4863      24.323216      1.1977417    
     38000   312.42899     -19828.949      5426.4185      24.340854      1.1968738    
     38100   316.6957      -23446.184      5430.3507      24.358492      1.1960071    
     38200   286.03894     -16456.49       5434.2829      24.376131      1.1951417    
     38300   288.49819     -16678.173      5438.215       24.393769      1.1942775    
     38400   276.60722     -25688.85       5442.1472      24.411407      1.1934146    
     38500   268.96362     -21356.76       5446.0794      24.429046      1.1925529    
     38600   310.01677     -23451.194      5450.0116      24.446684      1.1916925    
     38700   303.12931     -26001.155      5453.9438      24.464322      1.1908333    
     38800   275.78344     -13763.775      5457.876       24.48196       1.1899754    
     38900   293.00233     -23565.613      5461.8082      24.499599      1.1891186    
     39000   292.8444      -20157.595      5465.7404      24.517237      1.1882632    
     39100   298.32703     -22757.029      5469.6725      24.534875      1.1874089    
     39200   269.49975     -26683.063      5473.6047      24.552514      1.1865559    
     39300   291.575       -20061.216      5477.5369      24.570152      1.1857041    
     39400   284.10106     -18087.834      5481.4691      24.58779       1.1848535    
     39500   314.55517     -23191.442      5485.4013      24.605429      1.1840042    
     39600   308.88801     -22345.805      5489.3335      24.623067      1.183156     
     39700   288.12898     -24215.259      5493.2657      24.640705      1.1823091    
     39800   320.05569     -15940.124      5497.1979      24.658343      1.1814634    
     39900   290.95906     -26146.261      5501.13        24.675982      1.1806189    
     40000   283.15788     -8810.7729      5505.0622      24.69362       1.1797756    
     40100   270.63795     -17931.158      5508.9944      24.711258      1.1789335    
     40200   286.0962      -11459.674      5512.9266      24.728897      1.1780926    
     40300   298.78473     -23923.962      5516.8588      24.746535      1.1772529    
     40400   306.30591     -15113.281      5520.791       24.764173      1.1764144    
     40500   316.93163     -24795.959      5524.7232      24.781812      1.1755771    
     40600   288.55823     -20898.719      5528.6553      24.79945       1.174741     
     40700   325.59846     -19830.388      5532.5875      24.817088      1.173906     
     40800   301.74503     -23098.437      5536.5197      24.834726      1.1730723    
     40900   305.45368     -15156.896      5540.4519      24.852365      1.1722397    
     41000   293.22028     -22773.768      5544.3841      24.870003      1.1714084    
     41100   272.92314     -23399.582      5548.3163      24.887641      1.1705782    
     41200   287.35033     -21844.477      5552.2485      24.90528       1.1697491    
     41300   292.08267     -25810.881      5556.1807      24.922918      1.1689213    
     41400   322.32515     -16642.374      5560.1128      24.940556      1.1680946    
     41500   292.79667     -17225.065      5564.045       24.958195      1.1672691    
     41600   311.87281     -12225.728      5567.9772      24.975833      1.1664448    
     41700   260.70043     -21147.236      5571.9094      24.993471      1.1656216    
     41800   287.40801     -12465.521      5575.8416      25.011109      1.1647996    
     41900   298.91168     -21511.335      5579.7738      25.028748      1.1639787    
     42000   320.36012     -18593.269      5583.706       25.046386      1.163159     
     42100   301.00785     -17775.633      5587.6382      25.064024      1.1623405    
     42200   303.75648     -17410.659      5591.5703      25.081663      1.1615231    
     42300   326.48444     -19200.227      5595.5025      25.099301      1.1607068    
     42400   268.72029     -23815.269      5599.4347      25.116939      1.1598917    
     42500   288.5447      -40054.568      5603.3669      25.134578      1.1590778    
     42600   295.2079      -26129.053      5607.2991      25.152216      1.1582649    
     42700   324.14707     -17810.471      5611.2313      25.169854      1.1574533    
     42800   304.44332     -18638.977      5615.1635      25.187492      1.1566427    
     42900   305.98614     -13862.815      5619.0957      25.205131      1.1558333    
     43000   281.43305     -19526.666      5623.0278      25.222769      1.155025     
     43100   280.52239     -28690.278      5626.96        25.240407      1.1542179    
     43200   298.2589      -9559.0946      5630.8922      25.258046      1.1534119    
     43300   298.01232     -22628.748      5634.8244      25.275684      1.152607     
     43400   303.69096     -18584.883      5638.7566      25.293322      1.1518032    
     43500   317.94907     -20279.078      5642.6888      25.310961      1.1510006    
     43600   297.05896     -27162.142      5646.621       25.328599      1.150199     
     43700   310.70098     -25680.103      5650.5532      25.346237      1.1493986    
     43800   300.58909     -23790.424      5654.4853      25.363875      1.1485993    
     43900   326.47065     -17726.717      5658.4175      25.381514      1.1478011    
     44000   285.08158     -22746.104      5662.3497      25.399152      1.147004     
     44100   278.70105     -20232.953      5666.2819      25.41679       1.146208     
     44200   290.63874     -29827.235      5670.2141      25.434429      1.1454132    
     44300   315.79267     -23927.988      5674.1463      25.452067      1.1446194    
     44400   332.43138     -21022.9        5678.0785      25.469705      1.1438267    
     44500   326.88065     -21132.415      5682.0107      25.487344      1.1430352    
     44600   294.02339     -17037          5685.9428      25.504982      1.1422447    
     44700   276.13796     -25920.277      5689.875       25.52262       1.1414553    
     44800   284.69749     -23056.053      5693.8072      25.540258      1.140667     
     44900   330.39093     -23144.995      5697.7394      25.557897      1.1398798    
     45000   316.90314     -29752.827      5701.6716      25.575535      1.1390937    
     45100   303.33157     -16895.676      5705.6038      25.593173      1.1383086    
     45200   294.01605     -26069.846      5709.536       25.610812      1.1375247    
     45300   308.19643     -17214.928      5713.4682      25.62845       1.1367418    
     45400   304.63731     -27082.259      5717.4003      25.646088      1.13596      
     45500   292.95529     -26439.122      5721.3325      25.663727      1.1351792    
     45600   287.58606     -25211.05       5725.2647      25.681365      1.1343996    
     45700   287.91762     -18527.807      5729.1969      25.699003      1.133621     
     45800   297.46837     -17445.142      5733.1291      25.716641      1.1328435    
     45900   317.44002     -25923.808      5737.0613      25.73428       1.132067     
     46000   294.78489     -8778.0121      5740.9935      25.751918      1.1312916    
     46100   309.51231     -24282.317      5744.9257      25.769556      1.1305173    
     46200   284.64142     -23512.324      5748.8578      25.787195      1.129744     
     46300   305.27049     -22050.62       5752.79        25.804833      1.1289718    
     46400   284.10957     -21587.781      5756.7222      25.822471      1.1282007    
     46500   314.28696     -16743.447      5760.6544      25.84011       1.1274306    
     46600   298.82795     -23133.881      5764.5866      25.857748      1.1266615    
     46700   311.45432     -18385.269      5768.5188      25.875386      1.1258935    
     46800   295.91715     -20425.587      5772.451       25.893024      1.1251266    
     46900   296.38011     -33105.659      5776.3831      25.910663      1.1243607    
     47000   280.72462     -28687.696      5780.3153      25.928301      1.1235958    
     47100   298.46727     -21138.787      5784.2475      25.945939      1.1228319    
     47200   287.65166     -21683.958      5788.1797      25.963578      1.1220692    
     47300   296.93004     -22053.474      5792.1119      25.981216      1.1213074    
     47400   313.05942     -25221.866      5796.0441      25.998854      1.1205467    
     47500   291.73983     -18180.102      5799.9763      26.016493      1.119787     
     47600   289.90855     -27036.985      5803.9085      26.034131      1.1190283    
     47700   309.08651     -29908.705      5807.8406      26.051769      1.1182707    
     47800   309.2938      -15599.545      5811.7728      26.069407      1.1175141    
     47900   315.44762     -24711.145      5815.705       26.087046      1.1167585    
     48000   302.0756      -24066.524      5819.6372      26.104684      1.1160039    
     48100   299.78627     -22096.6        5823.5694      26.122322      1.1152504    
     48200   284.8635      -23641.952      5827.5016      26.139961      1.1144978    
     48300   303.94907     -21986.273      5831.4338      26.157599      1.1137463    
     48400   326.68812     -21108.554      5835.366       26.175237      1.1129958    
     48500   302.61704     -22966.01       5839.2981      26.192875      1.1122463    
     48600   290.2975      -23762.911      5843.2303      26.210514      1.1114978    
     48700   291.34784     -24000.63       5847.1625      26.228152      1.1107504    
     48800   314.94699     -35194.649      5851.0947      26.24579       1.1100039    
     48900   277.53152     -20660.657      5855.0269      26.263429      1.1092584    
     49000   298.93671     -23428.147      5858.9591      26.281067      1.108514     
     49100   288.51481     -29298.679      5862.8913      26.298705      1.1077705    
     49200   287.97519     -23766.527      5866.8235      26.316344      1.107028     
     49300   304.50647     -34461.299      5870.7556      26.333982      1.1062865    
     49400   304.38925     -25092.168      5874.6878      26.35162       1.105546     
     49500   322.42634     -25371.842      5878.62        26.369259      1.1048066    
     49600   305.97659     -22435.668      5882.5522      26.386897      1.104068     
     49700   284.67221     -30569.33       5886.4844      26.404535      1.1033305    
     49800   303.96113     -24709.783      5890.4166      26.422173      1.102594     
     49900   308.69678     -21171.099      5894.3488      26.439812      1.1018584    
     50000   288.4527      -29407.761      5898.281       26.45745       1.1011239    
     50100   285.27516     -24390.008      5902.2131      26.475088      1.1003903    
     50200   297.87682     -19782.611      5906.1453      26.492727      1.0996577    
     50300   275.46678     -32883.277      5910.0775      26.510365      1.098926     
     50400   305.3041      -17838.581      5914.0097      26.528003      1.0981953    
     50500   309.34087     -25472.473      5917.9419      26.545642      1.0974656    
     50600   306.06467     -25769.961      5921.8741      26.56328       1.0967369    
     50700   292.74075     -21520.651      5925.8063      26.580918      1.0960092    
     50800   301.64276     -30369.97       5929.7385      26.598556      1.0952824    
     50900   298.12226     -33626.396      5933.6706      26.616195      1.0945565    
     51000   320.16021     -34586.651      5937.6028      26.633833      1.0938317    
     51100   326.65041     -27574.352      5941.535       26.651471      1.0931077    
     51200   306.19324     -24680.252      5945.4672      26.66911       1.0923848    
     51300   286.62001     -22751.345      5949.3994      26.686748      1.0916628    
     51400   306.68405     -29298.674      5953.3316      26.704386      1.0909417    
     51500   321.81313     -20460.142      5957.2638      26.722025      1.0902216    
     51600   318.23197     -27848.06       5961.196       26.739663      1.0895025    
     51700   316.82644     -25536.332      5965.1281      26.757301      1.0887843    
     51800   301.28467     -29266.899      5969.0603      26.774939      1.0880671    
     51900   279.21057     -22317.531      5972.9925      26.792578      1.0873508    
     52000   302.94728     -24495.066      5976.9247      26.810216      1.0866354    
     52100   289.25097     -23291.079      5980.8569      26.827854      1.085921     
     52200   317.91365     -22996.229      5984.7891      26.845493      1.0852075    
     52300   312.37553     -28295.923      5988.7213      26.863131      1.0844949    
     52400   306.70745     -23392.325      5992.6535      26.880769      1.0837833    
     52500   332.34042     -15564.288      5996.5856      26.898408      1.0830727    
     52600   323.34257     -26443.817      6000.5178      26.916046      1.0823629    
     52700   294.64128     -31798.787      6004.45        26.933684      1.0816541    
     52800   309.77954     -39316.937      6008.3822      26.951322      1.0809462    
     52900   307.76256     -21580.551      6012.3144      26.968961      1.0802392    
     53000   315.2826      -27528.015      6016.2466      26.986599      1.0795332    
     53100   318.61345     -24664.262      6020.1788      27.004237      1.0788281    
     53200   312.51317     -17362.459      6024.1109      27.021876      1.0781239    
     53300   346.44464     -13941.61       6028.0431      27.039514      1.0774206    
     53400   314.83864     -13338.097      6031.9753      27.057152      1.0767183    
     53500   328.16073     -18705.993      6035.9075      27.074791      1.0760168    
     53600   305.12905     -20729.722      6039.8397      27.092429      1.0753163    
     53700   291.46268     -20889.029      6043.7719      27.110067      1.0746167    
     53800   305.91752     -18049.924      6047.7041      27.127705      1.0739179    
     53900   305.79123     -20786.135      6051.6363      27.145344      1.0732201    
     54000   303.01714     -16823.697      6055.5684      27.162982      1.0725232    
     54100   304.92626     -20319.648      6059.5006      27.18062       1.0718273    
     54200   317.62264     -19113.876      6063.4328      27.198259      1.0711322    
     54300   286.08658     -18135.251      6067.365       27.215897      1.070438     
     54400   295.37704     -19730.372      6071.2972      27.233535      1.0697447    
     54500   296.7129      -11867.213      6075.2294      27.251174      1.0690523    
     54600   301.36614     -15448.622      6079.1616      27.268812      1.0683608    
     54700   305.36025     -24535.156      6083.0938      27.28645       1.0676702    
     54800   330.37821     -13551.624      6087.0259      27.304088      1.0669805    
     54900   307.28968     -22749.889      6090.9581      27.321727      1.0662917    
     55000   295.60936     -5520.5636      6094.8903      27.339365      1.0656037    
     55100   282.54701     -13725.292      6098.8225      27.357003      1.0649167    
     55200   307.2537      -17534.575      6102.7547      27.374642      1.0642305    
     55300   277.08214     -22955.607      6106.6869      27.39228       1.0635453    
     55400   323.62234     -20048.788      6110.6191      27.409918      1.0628609    
     55500   310.97873     -17024.109      6114.5513      27.427557      1.0621774    
     55600   308.48232     -25582.105      6118.4834      27.445195      1.0614947    
     55700   301.90727     -18348.046      6122.4156      27.462833      1.060813     
     55800   300.73591     -23223.516      6126.3478      27.480471      1.0601321    
     55900   292.66496     -23897.659      6130.28        27.49811       1.0594521    
     56000   299.53364     -15214.318      6134.2122      27.515748      1.0587729    
     56100   320.72945     -25654.072      6138.1444      27.533386      1.0580947    
     56200   320.26696     -17906.315      6142.0766      27.551025      1.0574173    
     56300   305.83847     -15807.656      6146.0088      27.568663      1.0567408    
     56400   307.24538     -22295.529      6149.9409      27.586301      1.0560651    
     56500   277.28259     -16310.033      6153.8731      27.60394       1.0553903    
     56600   280.94498     -18306.175      6157.8053      27.621578      1.0547163    
     56700   353.81919     -7693.1126      6161.7375      27.639216      1.0540433    
     56800   307.98559     -15265.907      6165.6697      27.656854      1.053371     
     56900   317.33213     -14460.495      6169.6019      27.674493      1.0526997    
     57000   296.7476      -15843.675      6173.5341      27.692131      1.0520292    
     57100   282.58061     -13406.282      6177.4663      27.709769      1.0513595    
     57200   324.14031     -19343.763      6181.3984      27.727408      1.0506907    
     57300   285.03557     -23064.258      6185.3306      27.745046      1.0500228    
     57400   254.77261     -17644.606      6189.2628      27.762684      1.0493557    
     57500   311.52815     -21079.681      6193.195       27.780323      1.0486894    
     57600   326.19489     -16041.606      6197.1272      27.797961      1.048024     
     57700   298.44371     -8587.9477      6201.0594      27.815599      1.0473594    
     57800   301.57953     -16516.493      6204.9916      27.833237      1.0466957    
     57900   299.76838     -16634.449      6208.9238      27.850876      1.0460328    
     58000   306.35005     -13378.771      6212.8559      27.868514      1.0453708    
     58100   261.60005     -23975.04       6216.7881      27.886152      1.0447095    
     58200   283.87387     -20158.68       6220.7203      27.903791      1.0440492    
     58300   293.51762     -17658.72       6224.6525      27.921429      1.0433896    
     58400   306.84968     -13429.714      6228.5847      27.939067      1.0427309    
     58500   316.91979     -13889.034      6232.5169      27.956706      1.0420731    
     58600   321.16922     -13908.323      6236.4491      27.974344      1.041416     
     58700   277.77504     -19063.171      6240.3813      27.991982      1.0407598    
     58800   289.61211     -18842.599      6244.3134      28.00962       1.0401044    
     58900   287.06595     -19948.324      6248.2456      28.027259      1.0394498    
     59000   310.6759      -25072.646      6252.1778      28.044897      1.0387961    
     59100   315.44783     -21450.678      6256.11        28.062535      1.0381432    
     59200   296.95084     -15949.514      6260.0422      28.080174      1.0374911    
     59300   286.3777      -13609.214      6263.9744      28.097812      1.0368398    
     59400   293.1779      -17179.727      6267.9066      28.11545       1.0361893    
     59500   310.27991     -14406.441      6271.8387      28.133088      1.0355397    
     59600   317.73093     -22461.281      6275.7709      28.150727      1.0348909    
     59700   318.12829     -13947.656      6279.7031      28.168365      1.0342428    
     59800   296.41888     -8704.2658      6283.6353      28.186003      1.0335956    
     59900   289.0019      -10097.759      6287.5675      28.203642      1.0329492    
     60000   298.16709     -21797.536      6291.4997      28.22128       1.0323036    
     60100   296.60044     -18700.737      6295.4319      28.238918      1.0316588    
     60200   303.90757     -23869.939      6299.3641      28.256557      1.0310149    
     60300   299.95987     -20254.945      6303.2962      28.274195      1.0303717    
     60400   306.10317     -11178.01       6307.2284      28.291833      1.0297293    
     60500   301.15276     -13941.217      6311.1606      28.309472      1.0290877    
     60600   290.21466     -19194.087      6315.0928      28.32711       1.0284469    
     60700   295.091       -8051.7861      6319.025       28.344748      1.027807     
     60800   327.57678     -17059.036      6322.9572      28.362386      1.0271678    
     60900   306.98424     -23839.141      6326.8894      28.380025      1.0265294    
     61000   309.98027     -19414.273      6330.8216      28.397663      1.0258918    
     61100   312.05912     -19805.694      6334.7537      28.415301      1.025255     
     61200   280.55845     -11363.684      6338.6859      28.43294       1.024619     
     61300   319.27206     -20304.769      6342.6181      28.450578      1.0239838    
     61400   319.25213     -16102.382      6346.5503      28.468216      1.0233493    
     61500   332.89043     -19446.134      6350.4825      28.485855      1.0227157    
     61600   296.67905     -14134.343      6354.4147      28.503493      1.0220828    
     61700   301.41586     -10823.335      6358.3469      28.521131      1.0214507    
     61800   313.35739     -17534.26       6362.2791      28.538769      1.0208194    
     61900   292.24669     -18000.589      6366.2112      28.556408      1.0201889    
     62000   282.38803     -19027.73       6370.1434      28.574046      1.0195591    
     62100   293.19127     -20252.834      6374.0756      28.591684      1.0189302    
     62200   302.56        -15078.711      6378.0078      28.609323      1.018302     
     62300   319.33155     -17322.847      6381.94        28.626961      1.0176746    
     62400   292.20931     -21277.589      6385.8722      28.644599      1.0170479    
     62500   323.85687     -15130.201      6389.8044      28.662238      1.016422     
     62600   294.91749     -13620.93       6393.7366      28.679876      1.0157969    
     62700   314.07142     -12310.843      6397.6687      28.697514      1.0151726    
     62800   288.5302      -16125.013      6401.6009      28.715152      1.014549     
     62900   287.23563     -19555.923      6405.5331      28.732791      1.0139262    
     63000   280.24768     -25458.054      6409.4653      28.750429      1.0133042    
     63100   287.62641     -18926.83       6413.3975      28.768067      1.0126829    
     63200   288.26831     -20769.246      6417.3297      28.785706      1.0120624    
     63300   319.90997     -15652.705      6421.2619      28.803344      1.0114426    
     63400   304.30012     -22115.043      6425.1941      28.820982      1.0108236    
     63500   291.60665     -18606.881      6429.1262      28.838621      1.0102054    
     63600   291.42165     -19369.084      6433.0584      28.856259      1.0095879    
     63700   275.75908     -22871.598      6436.9906      28.873897      1.0089712    
     63800   297.85572     -21860.737      6440.9228      28.891535      1.0083552    
     63900   300.57665     -24860.998      6444.855       28.909174      1.00774      
     64000   312.70247     -22357.475      6448.7872      28.926812      1.0071255    
     64100   292.05073     -20908.306      6452.7194      28.94445       1.0065118    
     64200   299.06749     -27686.857      6456.6516      28.962089      1.0058988    
     64300   294.43358     -27604.5        6460.5837      28.979727      1.0052865    
     64400   285.25861     -16961.948      6464.5159      28.997365      1.0046751    
     64500   305.7947      -18642.549      6468.4481      29.015004      1.0040643    
     64600   284.68332     -14163.74       6472.3803      29.032642      1.0034543    
     64700   306.30727     -12151.348      6476.3125      29.05028       1.002845     
     64800   314.81481     -19775.096      6480.2447      29.067918      1.0022365    
     64900   285.16201     -14562.807      6484.1769      29.085557      1.0016287    
     65000   305.57694     -26331.443      6488.1091      29.103195      1.0010217    
     65100   308.09494     -16892.945      6492.0412      29.120833      1.0004154    
     65200   299.47457     -20075.739      6495.9734      29.138472      0.9998098    
     65300   316.80659     -19855.655      6499.9056      29.15611       0.99920496   
     65400   310.01348     -20233.219      6503.8378      29.173748      0.99860084   
     65500   293.17534     -14053.94       6507.77        29.191387      0.99799746   
     65600   302.9324      -21477.936      6511.7022      29.209025      0.9973948    
     65700   292.09656     -23962.224      6515.6344      29.226663      0.99679288   
     65800   290.19822     -16691.248      6519.5665      29.244301      0.99619167   
     65900   316.98962     -21842.921      6523.4987      29.26194       0.9955912    
     66000   305.51844     -22097.628      6527.4309      29.279578      0.99499144   
     66100   304.68459     -18941.892      6531.3631      29.297216      0.99439241   
     66200   312.89252     -11995.038      6535.2953      29.314855      0.9937941    
     66300   306.63935     -8015.4352      6539.2275      29.332493      0.99319651   
     66400   287.29503     -22743.325      6543.1597      29.350131      0.99259964   
     66500   307.4549      -20963.151      6547.0919      29.36777       0.99200348   
     66600   300.95255     -20367.655      6551.024       29.385408      0.99140804   
     66700   275.76293     -19479.42       6554.9562      29.403046      0.99081332   
     66800   286.76668     -21928.215      6558.8884      29.420684      0.9902193    
     66900   314.93502     -25614.172      6562.8206      29.438323      0.989626     
     67000   309.85525     -13238.185      6566.7528      29.455961      0.98903341   
     67100   275.50013     -23386.763      6570.685       29.473599      0.98844153   
     67200   289.49829     -14792.75       6574.6172      29.491238      0.98785036   
     67300   275.45079     -19026.879      6578.5494      29.508876      0.98725989   
     67400   284.78093     -21691.465      6582.4815      29.526514      0.98667013   
     67500   293.60725     -19122.693      6586.4137      29.544153      0.98608107   
     67600   295.41897     -18571.109      6590.3459      29.561791      0.98549272   
     67700   315.33031     -19794.141      6594.2781      29.579429      0.98490507   
     67800   328.05569     -25594.798      6598.2103      29.597067      0.98431812   
     67900   291.64278     -19426.516      6602.1425      29.614706      0.98373186   
     68000   302.67651     -24041.131      6606.0747      29.632344      0.98314631   
     68100   283.93491     -18227.237      6610.0069      29.649982      0.98256145   
     68200   317.43762     -13061.453      6613.939       29.667621      0.98197729   
     68300   321.21025     -15037.796      6617.8712      29.685259      0.98139382   
     68400   316.24839     -16943.142      6621.8034      29.702897      0.98081104   
     68500   320.09265     -19692.453      6625.7356      29.720536      0.98022896   
     68600   319.73866     -22453.041      6629.6678      29.738174      0.97964757   
     68700   295.26077     -8318.3432      6633.6         29.755812      0.97906686   
     68800   279.81698     -9442.1324      6637.5322      29.77345       0.97848685   
     68900   274.27994     -12954.289      6641.4644      29.791089      0.97790752   
     69000   278.94706     -6274.7967      6645.3965      29.808727      0.97732887   
     69100   311.70352     -21131.532      6649.3287      29.826365      0.97675091   
     69200   304.63255     -16712.16       6653.2609      29.844004      0.97617364   
     69300   301.33723     -20386.492      6657.1931      29.861642      0.97559704   
     69400   292.95203     -18089.969      6661.1253      29.87928       0.97502113   
     69500   302.80867     -18587.821      6665.0575      29.896918      0.9744459    
     69600   310.89684     -16036.517      6668.9897      29.914557      0.97387134   
     69700   321.1163      -18647.559      6672.9219      29.932195      0.97329746   
     69800   313.98904     -18374.183      6676.854       29.949833      0.97272426   
     69900   293.53332     -13660.009      6680.7862      29.967472      0.97215173   
     70000   304.85843     -20708.249      6684.7184      29.98511       0.97157988   
     70100   296.90755     -12813.371      6688.6506      30.002748      0.9710087    
     70200   274.39407     -14143.804      6692.5828      30.020387      0.97043819   
     70300   296.75766     -28574.828      6696.515       30.038025      0.96986835   
     70400   282.06492     -20986.281      6700.4472      30.055663      0.96929918   
     70500   286.33342     -16943.88       6704.3794      30.073301      0.96873067   
     70600   312.35534     -14688.082      6708.3115      30.09094       0.96816284   
     70700   325.06429     -11982.469      6712.2437      30.108578      0.96759566   
     70800   301.41485     -17119.445      6716.1759      30.126216      0.96702916   
     70900   316.84664     -15475.032      6720.1081      30.143855      0.96646331   
     71000   315.14324     -13995.852      6724.0403      30.161493      0.96589813   
     71100   296.64033     -18522.032      6727.9725      30.179131      0.9653336    
     71200   302.36124     -19950.203      6731.9047      30.19677       0.96476974   
     71300   291.65975     -15328.403      6735.8369      30.214408      0.96420654   
     71400   291.70196     -13332.743      6739.769       30.232046      0.96364399   
     71500   318.42783     -10461.524      6743.7012      30.249685      0.9630821    
     71600   308.3174      -9547.8219      6747.6334      30.267323      0.96252086   
     71700   298.71911     -13079.053      6751.5656      30.284961      0.96196028   
     71800   296.18964     -16086.515      6755.4978      30.302599      0.96140035   
     71900   279.78227     -22878.555      6759.43        30.320238      0.96084107   
     72000   278.12308     -13792.863      6763.3622      30.337876      0.96028244   
     72100   281.61146     -12812.334      6767.2943      30.355514      0.95972446   
     72200   320.58802     -19562.59       6771.2265      30.373153      0.95916713   
     72300   293.52398     -12405.456      6775.1587      30.390791      0.95861045   
     72400   307.69733     -14057.604      6779.0909      30.408429      0.95805441   
     72500   294.26679     -13267.989      6783.0231      30.426068      0.95749901   
     72600   278.52122     -16900.223      6786.9553      30.443706      0.95694426   
     72700   277.90814     -13718.456      6790.8875      30.461344      0.95639015   
     72800   296.26161     -9592.906       6794.8197      30.478982      0.95583669   
     72900   305.87088     -9738.8496      6798.7518      30.496621      0.95528386   
     73000   326.62066     -17782.316      6802.684       30.514259      0.95473167   
     73100   304.43763     -14166.198      6806.6162      30.531897      0.95418013   
     73200   282.36303     -13804.311      6810.5484      30.549536      0.95362921   
     73300   292.20701     -16720.167      6814.4806      30.567174      0.95307894   
     73400   268.31962     -6690.8715      6818.4128      30.584812      0.95252929   
     73500   319.47767     -18177.374      6822.345       30.602451      0.95198029   
     73600   318.34921     -15321.804      6826.2772      30.620089      0.95143191   
     73700   291.91741     -20817.433      6830.2093      30.637727      0.95088417   
     73800   300.96309     -16377.572      6834.1415      30.655365      0.95033705   
     73900   288.38256     -17362.052      6838.0737      30.673004      0.94979057   
     74000   298.01027     -17286.352      6842.0059      30.690642      0.94924471   
     74100   325.70488     -16022.273      6845.9381      30.70828       0.94869948   
     74200   323.55698     -14972.65       6849.8703      30.725919      0.94815488   
     74300   293.52753     -14276.966      6853.8025      30.743557      0.9476109    
     74400   292.40136     -11622.088      6857.7347      30.761195      0.94706754   
     74500   305.01713     -23174.862      6861.6668      30.778834      0.94652481   
     74600   325.96347     -16322.878      6865.599       30.796472      0.9459827    
     74700   317.00586     -21146.736      6869.5312      30.81411       0.94544121   
     74800   283.12692     -5289.1087      6873.4634      30.831748      0.94490034   
     74900   290.26164     -20940.944      6877.3956      30.849387      0.94436009   
     75000   298.01423     -16132.105      6881.3278      30.867025      0.94382046   
     75100   283.92384     -17089.419      6885.26        30.884663      0.94328144   
     75200   295.17411     -13985.307      6889.1922      30.902302      0.94274303   
     75300   303.80573     -20755.62       6893.1243      30.91994       0.94220525   
     75400   311.2195      -17255.031      6897.0565      30.937578      0.94166807   
     75500   280.91341     -22010.975      6900.9887      30.955217      0.94113151   
     75600   296.55229     -21414.608      6904.9209      30.972855      0.94059556   
     75700   294.35242     -13994.91       6908.8531      30.990493      0.94006021   
     75800   282.02659     -19495.964      6912.7853      31.008131      0.93952548   
     75900   292.37626     -14365.81       6916.7175      31.02577       0.93899136   
     76000   290.87588     -27855.438      6920.6497      31.043408      0.93845784   
     76100   310.80156     -18844.979      6924.5818      31.061046      0.93792493   
     76200   315.70245     -20599.199      6928.514       31.078685      0.93739262   
     76300   288.53588     -19216.135      6932.4462      31.096323      0.93686092   
     76400   278.06907     -16322.793      6936.3784      31.113961      0.93632982   
     76500   293.77279     -13298.264      6940.3106      31.1316        0.93579932   
     76600   295.00406     -20756.759      6944.2428      31.149238      0.93526942   
     76700   313.82882     -22700.119      6948.175       31.166876      0.93474012   
     76800   284.54655     -18338.376      6952.1072      31.184514      0.93421142   
     76900   282.02533     -18249.721      6956.0393      31.202153      0.93368332   
     77000   291.24522     -12352.867      6959.9715      31.219791      0.93315582   
     77100   313.66385     -22101.028      6963.9037      31.237429      0.93262891   
     77200   296.5071      -14081.933      6967.8359      31.255068      0.93210259   
     77300   307.34866     -14815.762      6971.7681      31.272706      0.93157687   
     77400   300.70353     -24149.235      6975.7003      31.290344      0.93105175   
     77500   272.03025     -26624.014      6979.6325      31.307983      0.93052721   
     77600   268.65119     -22856.42       6983.5647      31.325621      0.93000326   
     77700   314.02081     -16925.295      6987.4968      31.343259      0.92947991   
     77800   305.20036     -19559.364      6991.429       31.360897      0.92895714   
     77900   295.1189      -21675.391      6995.3612      31.378536      0.92843496   
     78000   305.58879     -17820.401      6999.2934      31.396174      0.92791337   
     78100   310.12046     -25178.71       7003.2256      31.413812      0.92739236   
     78200   310.20298     -19432.636      7007.1578      31.431451      0.92687194   
     78300   287.09623     -13390.924      7011.09        31.449089      0.9263521    
     78400   285.3686      -18961.642      7015.0221      31.466727      0.92583285   
     78500   328.0909      -23400.252      7018.9543      31.484366      0.92531417   
     78600   306.83004     -21472.433      7022.8865      31.502004      0.92479608   
     78700   305.73806     -14300.217      7026.8187      31.519642      0.92427857   
     78800   305.25671     -19880.706      7030.7509      31.53728       0.92376163   
     78900   299.4574      -9102.3837      7034.6831      31.554919      0.92324528   
     79000   311.81914     -22919.964      7038.6153      31.572557      0.9227295    
     79100   308.73714     -20614.716      7042.5475      31.590195      0.92221429   
     79200   281.06159     -18922.073      7046.4796      31.607834      0.92169966   
     79300   303.12198     -18319.149      7050.4118      31.625472      0.92118561   
     79400   294.01284     -13769.843      7054.344       31.64311       0.92067213   
     79500   282.91895     -11504.956      7058.2762      31.660749      0.92015922   
     79600   287.4408      -22792.898      7062.2084      31.678387      0.91964688   
     79700   275.04508     -16854.002      7066.1406      31.696025      0.91913511   
     79800   323.71612     -23224.314      7070.0728      31.713663      0.91862391   
     79900   301.83205     -22239.657      7074.005       31.731302      0.91811328   
     80000   302.56091     -15944.268      7077.9371      31.74894       0.91760322   
     80100   310.52435     -22271.224      7081.8693      31.766578      0.91709372   
     80200   283.47134     -19208.567      7085.8015      31.784217      0.91658479   
     80300   297.69718     -24047.403      7089.7337      31.801855      0.91607643   
     80400   295.84948     -15117.913      7093.6659      31.819493      0.91556862   
     80500   300.67327     -18509.851      7097.5981      31.837132      0.91506138   
     80600   314.0921      -25170.405      7101.5303      31.85477       0.9145547    
     80700   269.96588     -16582.939      7105.4625      31.872408      0.91404859   
     80800   279.28724     -19650.775      7109.3946      31.890046      0.91354303   
     80900   269.82253     -22831.601      7113.3268      31.907685      0.91303803   
     81000   306.47347     -13062.444      7117.259       31.925323      0.91253359   
     81100   316.37267     -18227.353      7121.1912      31.942961      0.91202971   
     81200   320.46746     -16491.169      7125.1234      31.9606        0.91152638   
     81300   277.54179     -16982.716      7129.0556      31.978238      0.91102361   
     81400   271.29163     -20565.34       7132.9878      31.995876      0.91052139   
     81500   312.15792     -22623.205      7136.92        32.013514      0.91001972   
     81600   296.08993     -13184.771      7140.8521      32.031153      0.90951861   
     81700   299.82808     -16514.369      7144.7843      32.048791      0.90901805   
     81800   301.43154     -18541.271      7148.7165      32.066429      0.90851804   
     81900   311.9152      -20018.728      7152.6487      32.084068      0.90801858   
     82000   298.76634     -29880.056      7156.5809      32.101706      0.90751967   
     82100   296.27977     -23114.585      7160.5131      32.119344      0.90702131   
     82200   291.57983     -15264.851      7164.4453      32.136983      0.90652349   
     82300   317.32513     -21296.849      7168.3775      32.154621      0.90602622   
     82400   329.87457     -24201.52       7172.3096      32.172259      0.90552949   
     82500   319.95491     -23803.218      7176.2418      32.189898      0.90503331   
     82600   322.89655     -14779.923      7180.174       32.207536      0.90453768   
     82700   284.62699     -17514.69       7184.1062      32.225174      0.90404258   
     82800   291.41791     -23211.845      7188.0384      32.242812      0.90354803   
     82900   315.59249     -17404.313      7191.9706      32.260451      0.90305402   
     83000   283.15274     -18739.816      7195.9028      32.278089      0.90256054   
     83100   299.52305     -13540.117      7199.835       32.295727      0.90206761   
     83200   298.66536     -22014.797      7203.7671      32.313366      0.90157522   
     83300   323.81574     -21275.337      7207.6993      32.331004      0.90108336   
     83400   301.66304     -12120.477      7211.6315      32.348642      0.90059204   
     83500   311.16104     -20313.042      7215.5637      32.366281      0.90010125   
     83600   305.31513     -17782.612      7219.4959      32.383919      0.899611     
     83700   275.60107     -17873.328      7223.4281      32.401557      0.89912128   
     83800   289.21908     -15836.948      7227.3603      32.419195      0.8986321    
     83900   300.98271     -18073.012      7231.2925      32.436834      0.89814345   
     84000   302.707       -18628.739      7235.2246      32.454472      0.89765532   
     84100   300.1765      -9806.2418      7239.1568      32.47211       0.89716773   
     84200   311.02531     -19499.438      7243.089       32.489749      0.89668067   
     84300   297.15944     -15514.799      7247.0212      32.507387      0.89619414   
     84400   285.47262     -19263.133      7250.9534      32.525025      0.89570813   
     84500   288.04191     -15482.275      7254.8856      32.542664      0.89522265   
     84600   289.74942     -11038.804      7258.8178      32.560302      0.8947377    
     84700   301.23293     -18911.191      7262.7499      32.57794       0.89425327   
     84800   296.70773     -19895.275      7266.6821      32.595578      0.89376937   
     84900   319.19161     -16287.929      7270.6143      32.613217      0.89328599   
     85000   305.67263     -10834.581      7274.5465      32.630855      0.89280313   
     85100   285.58833     -12209.221      7278.4787      32.648493      0.8923208    
     85200   309.59728     -12386.179      7282.4109      32.666132      0.89183898   
     85300   293.91808     -17414.687      7286.3431      32.68377       0.89135769   
     85400   302.37334     -15596.547      7290.2753      32.701408      0.89087691   
     85500   315.64346     -13908.499      7294.2074      32.719047      0.89039666   
     85600   311.73489     -17255.374      7298.1396      32.736685      0.88991692   
     85700   320.96474     -15717.694      7302.0718      32.754323      0.88943769   
     85800   315.90526     -14729.953      7306.004       32.771961      0.88895899   
     85900   290.34982     -19138.498      7309.9362      32.7896        0.88848079   
     86000   288.4131      -15134.59       7313.8684      32.807238      0.88800312   
     86100   293.6351      -12569.225      7317.8006      32.824876      0.88752595   
     86200   297.30939     -13537.111      7321.7328      32.842515      0.8870493    
     86300   308.42128     -15361.246      7325.6649      32.860153      0.88657316   
     86400   300.3567      -16741.157      7329.5971      32.877791      0.88609753   
     86500   286.176       -16787.384      7333.5293      32.89543       0.88562241   
     86600   302.83829     -14486.183      7337.4615      32.913068      0.8851478    
     86700   288.51684     -12563.627      7341.3937      32.930706      0.8846737    
     86800   312.61837     -13411.538      7345.3259      32.948344      0.88420011   
     86900   296.38178     -15755.684      7349.2581      32.965983      0.88372702   
     87000   299.88089     -14758.575      7353.1903      32.983621      0.88325444   
     87100   292.77277     -14708.45       7357.1224      33.001259      0.88278236   
     87200   280.04335     -12761.177      7361.0546      33.018898      0.88231079   
     87300   326.81276     -8587.3613      7364.9868      33.036536      0.88183972   
     87400   318.51468     -15477.839      7368.919       33.054174      0.88136916   
     87500   282.38657     -19501.843      7372.8512      33.071813      0.88089909   
     87600   277.62936     -19927.31       7376.7834      33.089451      0.88042953   
     87700   276.54176     -15806.424      7380.7156      33.107089      0.87996047   
     87800   297.53103     -17915.156      7384.6478      33.124727      0.8794919    
     87900   292.65515     -12014.38       7388.5799      33.142366      0.87902384   
     88000   293.84346     -13326.714      7392.5121      33.160004      0.87855628   
     88100   270.13916     -16029.876      7396.4443      33.177642      0.87808921   
     88200   304.07714     -20525.675      7400.3765      33.195281      0.87762263   
     88300   308.00237     -17127.411      7404.3087      33.212919      0.87715656   
     88400   292.00393     -11130.258      7408.2409      33.230557      0.87669098   
     88500   311.59511     -8062.8446      7412.1731      33.248196      0.87622589   
     88600   293.51187     -13620.37       7416.1053      33.265834      0.87576129   
     88700   308.4214      -12888.601      7420.0374      33.283472      0.87529719   
     88800   315.33563     -12448.303      7423.9696      33.30111       0.87483358   
     88900   311.98149     -20318.935      7427.9018      33.318749      0.87437046   
     89000   298.27606     -12817.105      7431.834       33.336387      0.87390783   
     89100   292.08052     -12300.071      7435.7662      33.354025      0.87344569   
     89200   308.48672     -10656.386      7439.6984      33.371664      0.87298404   
     89300   284.96703     -14430.03       7443.6306      33.389302      0.87252287   
     89400   300.51096     -14990.732      7447.5628      33.40694       0.87206219   
     89500   323.02653     -9626.6899      7451.4949      33.424579      0.871602     
     89600   302.79092     -20200.372      7455.4271      33.442217      0.8711423    
     89700   312.80567     -12815.352      7459.3593      33.459855      0.87068308   
     89800   296.65589     -16836.382      7463.2915      33.477493      0.87022434   
     89900   281.69016     -15644.175      7467.2237      33.495132      0.86976609   
     90000   283.98516     -15475.064      7471.1559      33.51277       0.86930831   
     90100   290.18532     -13591.711      7475.0881      33.530408      0.86885102   
     90200   312.56031     -12344.025      7479.0203      33.548047      0.86839422   
     90300   291.92987     -16152.251      7482.9524      33.565685      0.86793789   
     90400   293.68614     -14069.406      7486.8846      33.583323      0.86748204   
     90500   294.11196     -10829.177      7490.8168      33.600962      0.86702667   
     90600   300.78296     -8209.0045      7494.749       33.6186        0.86657177   
     90700   274.05447     -18256.822      7498.6812      33.636238      0.86611736   
     90800   287.08592     -9678.2193      7502.6134      33.653876      0.86566342   
     90900   300.55014     -19377.139      7506.5456      33.671515      0.86520995   
     91000   305.98203     -17443.847      7510.4778      33.689153      0.86475696   
     91100   302.91266     -13787.191      7514.4099      33.706791      0.86430445   
     91200   270.60478     -16181.711      7518.3421      33.72443       0.8638524    
     91300   284.51642     -19106.708      7522.2743      33.742068      0.86340083   
     91400   316.07623     -15600.603      7526.2065      33.759706      0.86294974   
     91500   312.22254     -13649.717      7530.1387      33.777344      0.86249911   
     91600   292.82651     -15111.654      7534.0709      33.794983      0.86204895   
     91700   305.58295     -20835.034      7538.0031      33.812621      0.86159927   
     91800   294.55385     -14965.517      7541.9352      33.830259      0.86115005   
     91900   290.92564     -15967.937      7545.8674      33.847898      0.8607013    
     92000   289.91633     -17797.672      7549.7996      33.865536      0.86025302   
     92100   306.7682      -16820.637      7553.7318      33.883174      0.8598052    
     92200   316.33286     -18376.538      7557.664       33.900813      0.85935785   
     92300   326.18745     -16568.416      7561.5962      33.918451      0.85891097   
     92400   294.18368     -18022.461      7565.5284      33.936089      0.85846455   
     92500   282.62024     -15377.512      7569.4606      33.953727      0.8580186    
     92600   306.32709     -20823.007      7573.3927      33.971366      0.8575731    
     92700   314.87955     -12464.579      7577.3249      33.989004      0.85712807   
     92800   321.89729     -18039.1        7581.2571      34.006642      0.8566835    
     92900   288.70301     -14006.806      7585.1893      34.024281      0.8562394    
     93000   295.44421     -19968.251      7589.1215      34.041919      0.85579575   
     93100   303.72622     -14886.958      7593.0537      34.059557      0.85535256   
     93200   295.23148     -18062.473      7596.9859      34.077196      0.85490983   
     93300   303.85585     -21928.686      7600.9181      34.094834      0.85446756   
     93400   317.89841     -8323.9522      7604.8502      34.112472      0.85402575   
     93500   289.37052     -21773.095      7608.7824      34.130111      0.85358439   
     93600   296.3159      -16483.783      7612.7146      34.147749      0.85314349   
     93700   295.08909     -20762.816      7616.6468      34.165387      0.85270304   
     93800   314.00184     -13808.811      7620.579       34.183025      0.85226305   
     93900   331.9238      -12796.885      7624.5112      34.200664      0.85182352   
     94000   317.95385     -13140.563      7628.4434      34.218302      0.85138443   
     94100   297.9852      -11135.679      7632.3756      34.23594       0.8509458    
     94200   283.48119     -20490.725      7636.3077      34.253579      0.85050762   
     94300   282.32723     -17563.174      7640.2399      34.271217      0.85006989   
     94400   309.63094     -18845.531      7644.1721      34.288855      0.84963261   
     94500   310.68582     -13069.232      7648.1043      34.306494      0.84919578   
     94600   291.23028     -23100.259      7652.0365      34.324132      0.8487594    
     94700   287.12947     -16464.927      7655.9687      34.34177       0.84832347   
     94800   306.04559     -20475.592      7659.9009      34.359408      0.84788799   
     94900   298.539       -20023.365      7663.8331      34.377047      0.84745295   
     95000   293.53941     -18810.739      7667.7652      34.394685      0.84701836   
     95100   291.48846     -21416.23       7671.6974      34.412323      0.84658421   
     95200   276.59391     -22584.289      7675.6296      34.429962      0.84615051   
     95300   291.47692     -21912.8        7679.5618      34.4476        0.84571725   
     95400   268.35052     -17141.67       7683.494       34.465238      0.84528444   
     95500   304.8863      -18661.702      7687.4262      34.482877      0.84485207   
     95600   308.92795     -20113.991      7691.3584      34.500515      0.84442014   
     95700   304.33984     -21695.904      7695.2906      34.518153      0.84398865   
     95800   315.46454     -15208.689      7699.2227      34.535791      0.84355761   
     95900   266.22053     -13605.94       7703.1549      34.55343       0.843127     
     96000   278.60763     -14548.165      7707.0871      34.571068      0.84269684   
     96100   301.5747      -14320.766      7711.0193      34.588706      0.84226711   
     96200   310.47679     -20968.135      7714.9515      34.606345      0.84183782   
     96300   306.92827     -18210.441      7718.8837      34.623983      0.84140896   
     96400   299.15275     -17116.53       7722.8159      34.641621      0.84098055   
     96500   276.15705     -15599.577      7726.7481      34.65926       0.84055257   
     96600   290.90664     -19197.979      7730.6802      34.676898      0.84012502   
     96700   299.36116     -19590.501      7734.6124      34.694536      0.83969791   
     96800   311.47174     -19020.162      7738.5446      34.712174      0.83927124   
     96900   306.01486     -15502.08       7742.4768      34.729813      0.838845     
     97000   297.53023     -14140.315      7746.409       34.747451      0.83841919   
     97100   267.07186     -12249.132      7750.3412      34.765089      0.83799381   
     97200   278.0476      -17335.181      7754.2734      34.782728      0.83756886   
     97300   296.12341     -16128.167      7758.2056      34.800366      0.83714435   
     97400   300.19132     -19165.214      7762.1377      34.818004      0.83672026   
     97500   300.17296     -24140.291      7766.0699      34.835643      0.83629661   
     97600   289.45018     -15757.086      7770.0021      34.853281      0.83587338   
     97700   272.67137     -18036.537      7773.9343      34.870919      0.83545058   
     97800   298.1599      -18855.915      7777.8665      34.888557      0.83502821   
     97900   291.94189     -17239.223      7781.7987      34.906196      0.83460626   
     98000   308.01691     -20192.161      7785.7309      34.923834      0.83418475   
     98100   270.41053     -20125.09       7789.663       34.941472      0.83376365   
     98200   285.98125     -18528.052      7793.5952      34.959111      0.83334299   
     98300   299.95648     -21336.214      7797.5274      34.976749      0.83292274   
     98400   327.06129     -21944.656      7801.4596      34.994387      0.83250292   
     98500   306.68043     -17778.56       7805.3918      35.012026      0.83208352   
     98600   291.96529     -17916.022      7809.324       35.029664      0.83166455   
     98700   292.03397     -16333.672      7813.2562      35.047302      0.831246     
     98800   288.94334     -21797.884      7817.1884      35.06494       0.83082787   
     98900   309.92953     -18093.674      7821.1205      35.082579      0.83041015   
     99000   316.7753      -21758.453      7825.0527      35.100217      0.82999286   
     99100   308.59696     -22616.517      7828.9849      35.117855      0.82957599   
     99200   295.09944     -21575.063      7832.9171      35.135494      0.82915954   
     99300   294.36337     -16886.839      7836.8493      35.153132      0.8287435    
     99400   281.11143     -21773.61       7840.7815      35.17077       0.82832788   
     99500   306.96462     -12030.109      7844.7137      35.188409      0.82791268   
     99600   306.7709      -17842.525      7848.6459      35.206047      0.82749789   
     99700   302.17908     -23364.093      7852.578       35.223685      0.82708352   
     99800   297.72425     -19407.941      7856.5102      35.241323      0.82666957   
     99900   301.99788     -18560.258      7860.4424      35.258962      0.82625603   
    100000   316.97992     -14286.147      7864.3746      35.2766        0.8258429    
Loop time of 1540.84 on 16 procs for 100000 steps with 350 atoms

Performance: 2.804 ns/day, 8.560 hours/ns, 64.900 timesteps/s, 22.715 katom-step/s
100.6% CPU use with 8 MPI tasks x 2 OpenMP threads

MPI task timing breakdown:
Section |  min time  |  avg time  |  max time  |%varavg| %total
---------------------------------------------------------------
Pair    | 1008.1     | 1085.1     | 1157.8     | 170.4 | 70.42
Bond    | 0.16359    | 0.17547    | 0.18743    |   2.3 |  0.01
Neigh   | 117.18     | 120.38     | 122.32     |  16.7 |  7.81
Comm    | 31.39      | 103.34     | 179.8      | 547.7 |  6.71
Output  | 0.23571    | 0.25661    | 0.27961    |   2.9 |  0.02
Modify  | 227.68     | 229.16     | 232.05     |  10.5 | 14.87
Other   |            | 2.408      |            |       |  0.16

Nlocal:          43.75 ave          76 max          24 min
Histogram: 3 1 0 0 0 1 2 0 0 1
Nghost:         1947.5 ave        1988 max        1894 min
Histogram: 1 0 1 0 2 1 0 0 0 3
Neighs:        12577.6 ave       19433 max        6958 min
Histogram: 3 0 1 0 0 0 1 1 1 1

Total # of neighbors = 100621
Ave neighs/atom = 287.48857
Ave special neighs/atom = 0
Neighbor list builds = 10000
Dangerous builds not checked
Total wall time: 0:25:41
