LAMMPS data file via write_data, version 2 Aug 2023, timestep = 2000, units = real

386 atoms
4 atom types

0 16.6078 xlo xhi
0 13.4502 ylo yhi
0 17.3502 zlo zhi
-9.4505 -1.0717 0.0034 xy xz yz

Masses

1 12.0107
2 1.00794
3 15.9994
4 28.0855

Atoms # full

8 2 4 1.030753517566273 0.8000893962609565 1.1663316653226181 0.6086048256486758 0 0 0
12 2 4 1.475552157984076 -0.23691454809414886 4.083552734209636 1.6616462070442506 0 0 0
170 2 2 0.2219206211323971 -1.2023525478548907 6.377154366952851 4.631374091049828 0 0 0
15 2 4 1.014572631988428 -1.0846866704409328 4.381136909223055 7.186575319363048 0 0 0
25 2 4 1.271022497746842 4.437596207719079 1.7604066162339445 3.7550884253935823 0 0 0
29 2 4 1.318214481824711 6.141247654989333 1.3964598262610974 6.160506752467954 0 0 0
33 2 4 1.306195769506682 5.147913281261154 3.8668686083559716 1.7136276852737315 0 0 0
34 2 4 1.254829509882064 0.7921536966097535 6.377763514350211 3.3484389336106757 0 0 0
36 2 4 1.091284380410431 4.243244847713507 3.67549193805386 7.3191222841831385 0 0 0
38 2 4 0.8776152277478653 2.589337069645291 5.392299010784856 5.88658849494416 0 0 0
70 2 1 -0.6503541049065217 -0.6724224052812289 2.559653894084006 6.674439284638376 0 0 0
85 2 1 -0.6813119862363854 3.3150207843587065 3.7934093230601107 1.1694936891881957 0 0 0
104 2 2 0.02628675082814102 -0.7144649437437973 2.147319188915675 4.748947955314751 0 0 0
340 6 2 0.2650196255909232 2.2895780775301535 2.0986524950200067 6.213772530217953 0 0 0
257 2 3 -0.7785984145614122 -0.1477066620546379 4.928573046038939 8.36640737279028 0 0 0
111 2 2 0.08243718008498625 3.599817707430513 2.848634689841465 4.760299666810087 0 0 0
113 2 2 0.01636403279884828 2.0849366920284096 6.079530577809295 7.370322897668967 0 0 0
132 2 2 0.09297241278855069 -0.028013203858474778 3.6242627460032244 5.606461609945073 0 0 0
346 8 2 0.1954629612150056 5.614370545576793 0.020480991754202163 1.8647243845721362 0 1 0
134 2 2 0.1626140205393858 0.10770210955810827 2.4210550083929827 7.549773966649141 0 0 0
133 2 2 0.2034413944691756 -0.9140543976278916 1.5411987394780846 6.224200305474742 0 0 0
176 2 2 0.1925099447732355 3.0130384961944774 2.8658787785464965 0.4649379052722696 0 0 0
177 2 2 0.1860695140689784 3.0071659434186233 4.784382627818719 0.6723898480002709 0 0 0
178 2 2 0.2292503775826835 2.7988869325136942 3.7001243203217213 2.1360684307891566 0 0 0
359 12 2 0.1764775383140183 3.8252362990991995 5.9467368039356625 0.5906122388587753 0 0 0
233 2 3 -0.8349161864188761 -1.3650938674715487 3.6780347665010638 2.8130642535547516 0 0 0
234 2 3 -0.8056191850210188 0.4855903826748607 2.7613601330605024 0.9083896850312769 0 0 0
235 2 3 -0.8367806708062629 -0.9746175248481667 5.044719738590334 0.5530971745199753 0 0 0
248 2 3 -0.8087348316105879 7.007665691376357 0.19047587044076697 7.017076844573793 0 1 0
237 2 3 -0.7999714100282508 -2.034239278237153 5.52317955952343 6.438479818265213 0 0 0
339 6 2 0.1691013979889459 1.1903517525482796 0.5891338174133807 6.581276939459871 0 0 0
244 2 3 -0.8454174297011344 3.32302922524051 0.8921156336166352 3.180514533100329 0 0 0
247 2 3 -0.8128428754158245 5.4738573221753875 0.8950344329534732 4.8014957840130155 0 0 0
252 2 3 -0.8120629979780325 5.2966007426562705 2.5195935546704735 2.7129117694088807 0 0 0
254 2 3 -0.7860268229273104 0.9651140111274716 5.061516089622914 2.3905006316282247 0 0 0
256 2 3 -0.8477839946298564 5.179517583796606 2.4519190610471195 6.835738090424698 0 0 0
258 2 3 -0.7878172517019789 1.5155878561564748 6.025302870820892 4.781892625408589 0 0 0
259 2 3 -0.8073406827138327 2.828108123402009 3.8376894993048234 5.902386770333628 0 0 0
338 6 1 -0.6546563443183263 2.2814700616394785 1.024212136326549 6.476110372673085 0 0 0
7 2 4 1.335571171536457 -1.9462394146596391 2.455404471434038 3.6114055013266517 0 0 0
107 2 2 0.06670489728053126 -2.273701299058222 2.9715366737369084 7.301506259179101 0 0 0
16 2 4 1.307123424605039 -3.2258752435641767 6.678240428691316 6.260981515546819 0 0 0
374 20 2 0.1631575111804213 3.073358663584195 0.38525570456091096 5.736039745281357 0 1 0
236 2 3 -0.7983363500383593 -4.313211637120501 6.52038977346727 5.041452455313197 0 0 0
171 2 2 0.2260873418436409 -1.6466033237663795 6.334547041373935 2.8012226184435214 0 0 0
318 3 4 0.8355232340787851 2.937857884492907 0.02675687198826033 7.964049086358384 0 1 0
230 2 3 -0.7840406136411542 1.0940464736544684 0.0046182407376941376 1.6402112663984008 0 0 0
10 2 4 0.9410854792051137 1.718941645691375 0.2951393917488287 13.335075533184478 0 0 0
11 2 4 1.29216782212559 -0.23312150648050733 2.352342462812026 11.59663547264796 0 0 0
14 2 4 1.279644700848648 -2.4868111280850975 6.156428956033647 16.892311659879308 0 0 0
17 2 4 1.070500149817747 -0.7643822046873544 4.467530792626123 13.955643598727026 0 0 0
28 2 4 1.265453583708467 3.969545372651648 2.2101282644387585 9.840279722608964 0 0 0
357 11 2 0.185347828754536 1.752762610381016 2.155634003957445 16.26369028842524 0 0 0
31 2 4 1.297353829042739 3.8564015022321603 2.494594570530731 14.641672891746229 0 0 0
37 2 4 1.088375272062833 0.498700421063502 6.4065949920343686 9.444685750068258 0 0 0
205 2 2 0.1773519361420365 -3.8186944142053547 4.93284234440058 8.879331589255651 1 0 0
71 2 1 -0.7063687562632081 -1.187641494567894 3.0369473442176567 15.127867025644129 0 0 0
72 2 1 -0.6795720196573838 -3.578206024581564 5.177971539201091 15.62001313016939 0 0 0
355 11 2 0.1092529962678752 0.6716549555332557 0.5336729062604911 15.965398271982894 0 0 0
78 2 1 -0.654686091856857 1.0014739573679565 3.0871828000030073 10.355759711893658 0 0 0
79 2 1 -0.6500019922622617 2.5559674173586715 3.7447501007760104 15.31303066691364 0 0 0
80 2 1 -0.6668509400965356 6.439278142045117 0.529409106883003 13.164378924017882 0 0 0
260 2 3 -0.8309965806297372 4.419855783465914 3.2223124423376355 13.336602090916239 0 0 0
265 2 3 -0.788635749144423 1.8950119552167837 6.366560339477094 10.107281200437624 0 0 0
108 2 2 -0.001591555179769291 -2.396194564984487 5.031077986052755 13.984979101558887 0 0 0
112 2 2 0.03495610467058468 2.793590502765613 2.5174082628941523 11.093110333073911 0 0 0
135 2 2 0.1549314155237764 -0.9347947308013211 2.166690874237105 14.3815349036936 0 0 0
136 2 2 0.1310082356616677 -2.3063350748131124 3.050037385301851 15.538254571342883 0 0 0
137 2 2 0.2044091178120333 -0.4351011278754343 3.0539650145901316 15.919551309857944 0 0 0
255 2 3 -0.832248651300681 3.781917376477161 3.474929066043803 8.775312640732714 0 0 0
139 2 2 0.1592146727914086 -3.756415061864637 5.890762858487333 14.656544897176794 0 0 0
251 2 3 -0.7937562850140525 5.495797321684397 2.0414971161475868 10.429395878974313 0 0 0
152 2 2 0.189197353656654 3.7341019928619006 0.4202736108064337 11.918121294536322 0 1 0
155 2 2 0.2470963082733947 0.4989278773018778 3.77289101015292 9.496357310103404 0 0 0
156 2 2 0.1638288442150216 1.4144521385790467 2.121484312766244 9.922652938107936 0 0 0
157 2 2 0.2123564812530459 1.7201114610150414 3.795681083155147 10.981974060832595 0 0 0
158 2 2 0.1937066697677069 2.668857784008715 4.881110970814637 14.899294115900236 0 0 0
159 2 2 0.177268624180139 2.4952032732850533 3.779416138267273 16.456336525272434 0 0 0
160 2 2 0.1960985448956267 1.6537586187852653 3.16333790364364 14.870768542352105 0 0 0
262 2 3 -0.7882333715835389 0.2906030229978759 5.453058721366253 14.510942270450824 0 0 0
354 11 1 -0.6501859542093189 1.2534611390507626 1.234910098455789 16.78136472759345 0 0 0
250 2 3 -0.8479722067224865 4.984934482722434 2.171353132921899 15.767218409720178 0 0 0
182 2 2 0.1586316425707179 -1.4281988019149328 5.901565225521821 11.114150126366987 0 0 0
161 2 2 0.1778600215227577 5.658337290641909 0.05998385721961542 13.847067269761926 0 0 0
231 2 3 -0.8414619764266688 -1.5382802476570305 1.8979506220304383 10.767815650017685 0 0 0
232 2 3 -0.8023035966612191 0.7694329799874368 1.1211726392932717 12.278023143528738 0 0 0
238 2 3 -0.7963679615972757 -0.40501185739828494 3.680074019804003 12.552781143780397 0 0 0
246 2 3 -0.8240988364868583 3.428964245110877 0.9119281870840404 9.140055380956518 0 0 0
249 2 3 -0.7681128988650848 2.7155308644464022 1.1966408923073923 14.253007743624284 0 0 0
138 2 2 0.1477775389850657 -3.153449871697164 4.101858288774071 15.357655447659393 0 0 0
369 15 2 -0.01416415968656107 -2.9500836107096036 3.730447775285836 9.536634795591516 0 0 0
144 2 2 0.163926877804252 -3.715716725006206 6.473804042090823 10.573298370060053 0 0 0
140 2 2 0.1640554206864577 -4.519499958767791 5.1241917505423995 16.233010638173603 0 0 0
356 11 2 0.1810478893054529 2.0184399912130315 0.6162256867257744 17.348694643856838 0 0 0
163 2 2 0.2321595722994178 6.29935656378193 1.6745698131703652 13.170409889506702 0 0 0
150 2 2 0.1513625800264105 -3.71621881600945 6.6967264464800795 13.565389972703034 0 0 0
1 1 4 1.280543375831479 -7.183099417318328 13.080391874119885 2.8944914580643424 0 0 0
2 1 1 -0.6626217946904862 -6.010196104154122 11.680048483138137 2.301701747781402 0 0 0
3 1 2 0.1795851444666235 -6.445032166838174 11.456480895823542 1.2640592495242675 0 0 0
4 1 2 0.170024490873309 -6.2582116889442405 10.863879576753577 3.085514821557174 0 0 0
5 1 2 0.1846207850850465 -4.9170288265934 12.125485545796622 2.29529674527523 0 0 0
6 1 3 -0.772357894573601 -8.058975514434787 12.583900894063165 4.1206480364069185 0 0 0
347 8 2 0.2298812449201951 -3.104753356803996 12.812303833602364 3.5280835588816863 0 0 0
19 2 4 0.932463433627481 -3.363428450118597 8.494706415555912 1.6360925485643714 0 0 0
27 2 4 1.257747235685035 -1.2781213100979412 12.60633290546599 7.446840847804967 0 0 0
73 2 1 -0.667680077971095 -4.44829897797487 9.546501331395113 0.6462488377893763 0 0 0
75 2 1 -0.6544886662561262 -6.053907050570613 8.97574539743914 8.48468547046679 0 0 0
323 3 2 0.2427836870795345 -4.222726085968829 12.395967278652929 8.120559552226933 0 0 0
84 2 1 -0.6759684277090643 -2.3607970378089265 8.26261432129436 5.836624538803951 0 0 0
86 2 1 -0.6475515616405814 0.7803715044837034 7.496065510125886 7.888037560181082 0 0 0
88 2 1 -0.6802207102204842 -1.130310821922752 10.521103083787375 3.639763899694862 0 0 0
109 2 2 -0.01621646919591091 -2.1249462297001105 9.565375667788306 2.212540986444223 0 0 0
83 2 1 -0.6892858755949495 -0.9979804235100814 6.832907313165767 3.5924494158285407 0 0 0
224 2 2 0.2037807516490951 0.6845388235639569 9.558084965924907 6.928343737076476 0 0 0
181 2 2 0.1699757725531834 -0.030585828230881074 8.301838227538916 8.246801797661538 0 0 0
142 2 2 0.1356010284191976 -4.032864725180602 10.57697886615183 1.0377082363993964 0 0 0
143 2 2 0.2409981812641678 -5.525633220940606 9.285139095116776 0.8232244387383184 0 0 0
320 3 2 -0.000115200105876713 -6.658673993309129 11.741847210029615 8.311721148276357 0 0 0
241 2 3 -0.8052559187783324 -4.020359955136114 6.944123646069666 7.651407933966961 0 0 0
172 2 2 0.1511456403689722 -1.0635762325047202 7.989079464883137 3.6411794254117242 0 0 0
173 2 2 0.1912315060003962 -2.9565599216187106 8.501492045955635 4.8777995645800205 0 0 0
174 2 2 0.1740823767966978 -1.2370860900573504 8.226689126242858 5.710597093328919 0 0 0
175 2 2 0.2108690427167365 -2.6216568404962435 8.916307803387925 6.687279775480168 0 0 0
179 2 2 0.1898050384442369 0.5341539429567508 7.061565959709151 6.885075784698379 0 0 0
148 2 2 0.1589099629679233 -5.707573446244827 10.154067691386885 8.107506069419319 0 0 0
185 2 2 0.1199328936415405 -1.1104443316646548 10.945853484940022 2.5603742928796756 0 0 0
186 2 2 0.1525721457061662 -2.1139963566359894 10.742861660486803 4.258613989317432 0 0 0
187 2 2 0.1518216355271269 -0.8562731977113324 9.400621409215288 3.6666357567825254 0 0 0
180 2 2 0.165741817638003 1.846684096318989 7.9997118555052555 7.888354840165689 0 0 0
239 2 3 -0.7905849042379011 -4.295028528350753 7.9124821319078755 2.8497612780964885 0 0 0
240 2 3 -0.7574539753263164 -2.6049031547288295 7.307276165372525 0.3980695488524697 0 0 0
272 2 3 -0.8237022513478707 -0.5611561789338302 11.764898492777162 6.19160050667653 0 0 0
267 2 3 -0.8071264277822161 1.5282152908539803 8.019586405760172 2.7547299656061126 0 0 0
345 8 2 0.1140586755238858 -2.9164594820635865 11.790844299046192 1.9469082400937814 0 0 0
114 2 2 -0.0006357630052497686 0.3876236220781225 10.324898656213596 2.3589471351212876 0 0 0
349 9 2 0.1504967369449539 -0.37790662116872653 11.931072377091713 0.6893321696492996 0 0 0
319 3 1 -0.663883308172502 -5.065436301720714 11.982543497215268 7.408899131908884 0 0 0
321 3 2 0.1685323324283228 -5.022034852022201 12.550616836187197 6.429943861801213 0 0 0
322 3 2 0.166370826420069 -4.752609041512036 10.872221919800454 7.203224617633057 0 0 0
341 7 1 -0.6886216102593465 -7.414691100995551 10.420038038964844 6.038382079890183 0 0 0
382 28 2 0.1555922926032323 -3.295546914903147 12.456537850623285 0.33592986469815345 0 0 0
342 7 2 0.1649493968109555 -6.578657695093439 11.16833252709355 5.921981663960819 0 0 0
381 27 2 0.1140997869136459 -1.3928293624243533 10.45072776539009 0.7228278969334528 0 0 0
344 8 1 -0.6967236817099639 -3.050091378483297 12.802002255922037 2.413753006854746 0 0 0
21 2 4 1.096033338131388 -4.461104070210031 8.002772230190937 8.935451466687486 0 0 0
22 2 4 1.307286513113713 -4.633005170535343 9.18324785617048 14.001615672629159 0 0 0
23 2 4 0.967581414824231 -5.168395611045027 11.056703792027884 11.307833710701912 0 0 0
40 2 4 1.404098857124561 0.056811549351202806 7.075653511029659 15.269639084276921 0 0 0
43 2 4 1.443884375754966 -2.540503901228675 10.461835548945583 9.803169008914075 0 0 0
46 2 4 1.145818696516072 -2.9353228491312637 11.167495245093656 15.790180138606779 0 0 0
76 2 1 -0.6893953052003172 -3.406464480429867 7.83533247633694 13.346236927403181 0 0 0
77 2 1 -0.6052718523763141 -5.836089682485442 12.848486237585327 12.45384466878778 0 0 0
385 31 2 0.2220250434269142 -9.762228051337251 13.299783413337796 10.889475182365446 0 0 0
90 2 1 -0.6438905511901645 -4.40892801993177 12.314552631018584 16.49329319364574 0 0 0
110 2 2 -0.02000723574756531 -5.9945213793470815 10.146226944224809 10.073401466298666 0 0 0
146 2 2 0.1697024520828691 -4.997816166429521 7.464791656983677 11.447733216681039 0 0 0
184 2 2 0.2225552629896109 -0.28788215937457806 7.337874333149027 11.53673338134431 0 0 0
149 2 2 0.1943734598179927 -3.261711245062438 8.046846899774645 12.313569216405332 0 0 0
89 2 1 -0.6925793592526144 -1.936658434450241 10.137396989624433 17.15355746601146 0 0 0
151 2 2 0.2267992482738382 -2.4766215608899533 8.20572847801803 13.969209905647395 0 0 0
47 2 4 1.258327529345971 0.11569811740837788 10.362850765497983 10.944193442932816 0 0 0
153 2 2 0.1935061330503813 -5.297238122508122 12.826593751032147 13.414667795835475 0 0 0
154 2 2 -0.006011807564053692 -6.583020892842251 12.068312547273237 10.875040354314413 0 0 0
264 2 3 -0.8318341798159761 -1.446929004099934 7.056996533443944 16.0601375491393 0 0 0
183 2 2 0.2178565422148618 -1.5998886524988465 7.597501518078978 10.165612385615633 0 0 0
370 16 2 0.07278143178424296 -4.904404042805983 6.9583327734311435 16.692606762845433 0 0 0
189 2 2 0.2368300408320016 -2.1361560173185565 9.073632996476427 16.81928629044573 0 0 0
190 2 2 0.180707290500673 -5.336080221095205 11.803945083358764 16.0568174909217 0 0 0
106 2 2 0.04417421857364385 -7.196905857217093 12.203732310860394 12.546164573787413 0 -1 0
242 2 3 -0.8387564319712447 -5.779720477350002 8.42458250383745 14.799321054799645 0 0 0
243 2 3 -0.7623431578301441 -5.3611611642291 10.111376310160828 12.572457654097304 0 0 0
263 2 3 -0.8490722733620967 1.314692828555643 7.361020091285139 16.24970293649718 0 0 0
74 2 1 -0.6771740187224944 -4.749915034452273 6.896869926654895 10.522278618284341 0 0 0
269 2 3 -0.8060003752170176 -3.3702920552701747 9.122127251780448 9.08068380830865 0 0 0
271 2 3 -0.7694368736590185 -3.6586936305655864 11.39181132188065 10.746648180141477 0 0 0
273 2 3 -0.7974044281284052 0.02961624473557989 8.376018553548183 14.162623552551688 0 0 0
274 2 3 -0.8240055789052562 -3.766626565643284 10.15775069442717 14.824424971240337 0 0 0
275 2 3 -0.813988125488969 -1.9328498827973486 12.2063630787475 15.105101468441356 0 0 0
276 2 3 -0.8264412123896338 -1.3855097428461838 9.828803396900922 10.709859148427956 0 0 0
87 2 1 -0.667372642609094 -0.8975005843917392 6.848482456078176 10.672902864448089 0 0 0
371 17 2 -0.01668588423855585 -8.721363745971571 12.754042539102592 14.305219297365378 0 0 0
141 2 2 0.1917185231278207 -5.151074576008562 9.262368980659815 16.914389534912317 0 0 -1
188 2 2 0.1872762437915461 -0.8145777235977611 10.354795618002072 17.19948461173273 0 0 0
191 2 2 0.2192887056078863 -4.1940627029988145 13.289459297387884 15.944349151649883 0 0 0
162 2 2 0.2117394998746353 -2.9768278936218104 13.435265217652455 12.156568229546728 0 -1 0
270 2 3 -0.7664096674861894 -2.011867714821739 11.490928247459292 8.704189407513615 0 0 0
49 2 4 1.312748628935969 12.322941642828345 2.6805268766448407 0.13139224841248975 0 0 1
56 2 4 1.093923187240711 5.997975633930334 6.492031828899282 3.5236773690605894 0 0 0
48 2 4 1.308008791387826 9.694448134348118 2.3535822970623217 3.765437248491627 0 0 0
122 2 2 -0.04246537445791372 4.119643684663032 6.161994309313958 5.663048804110124 0 0 0
51 2 4 1.481505315870812 12.02730929850891 2.0515091956510307 5.483968246505032 0 0 0
55 2 4 1.3074117466609 10.686180128561825 4.4415857909989045 1.8275577340113844 0 0 0
167 2 2 0.1554224752456094 6.982690604152033 3.783063986535627 8.105842275128374 0 0 0
58 2 4 0.8463416639376422 10.898492415812415 4.5345902686093025 7.367969713462398 0 0 0
91 2 1 -0.6626625253718733 7.460328068520657 2.9090144471804154 5.924857522403494 0 0 0
92 2 1 -0.6695780962254945 7.064660381899102 5.938898424648176 4.950844545457003 0 0 0
94 2 1 -0.6718420252744579 9.163131971824427 5.705022261272619 7.438526184228323 0 0 0
118 2 2 0.02512491206489243 9.162056080302404 3.3925306916711038 5.044070345881006 0 0 0
368 14 2 0.1802537681156255 8.491783379653851 6.1830413658220476 1.5085622714059623 0 0 0
123 2 2 0.02255701747135691 9.774907431203196 5.232536527057174 0.579349953308299 0 0 0
124 2 2 0.1246113899546666 9.097235870054455 4.528496586680722 7.880025145479 0 0 0
125 2 2 -0.07617772101179225 5.146705206954067 5.101464718977027 7.196845274445122 0 0 0
353 10 2 0.151380954958644 9.095181015312283 1.289236445970662 8.420941576654656 0 0 0
326 4 3 -0.8788093117842616 12.80200441378955 1.3053371543882064 0.7254780149777953 0 0 0
366 14 1 -0.656551902768389 8.004303558444908 6.0950537789805965 0.46829253571419066 0 0 0
192 2 2 0.180686509200165 7.383165807616431 3.2036476238032705 4.863038581022546 0 0 0
193 2 2 0.1488646882205023 8.343562365127568 2.2090016714611878 6.29060952032918 0 0 0
194 2 2 0.1565921682924701 7.132049827949089 3.730834926582036 6.646656026584496 0 0 0
195 2 2 0.1552170565091165 7.198602043444628 4.758838305580467 5.173223761511159 0 0 0
367 14 2 0.205858946025013 6.874299140885417 6.353600004670826 0.5404305235025244 0 0 0
201 2 2 0.1548764152345425 8.942315740210256 6.489791821381711 8.234379245408007 0 0 0
202 2 2 0.1683499466559054 8.377923164222675 5.80084687514754 6.576243748485849 0 0 0
203 2 2 0.09583772899460574 10.542365353736217 6.1579319792980565 6.502123220309355 0 0 0
245 2 3 -0.7946965840020519 7.416864029276161 1.5312707533859187 0.5935630246292034 0 0 0
253 2 3 -0.8000419023473567 6.179937359142712 3.862874747807263 0.34685261313499277 0 0 0
278 2 3 -0.7740701618019765 8.438150073544998 1.3680709524242542 3.5223521547511947 0 0 0
280 2 3 -0.8044172202080794 13.424727167886775 2.640453388170062 4.6943881796709865 0 0 0
281 2 3 -0.8407735094690092 10.961234813807634 1.563483631177109 4.373865528245498 0 0 0
282 2 3 -0.8504592695862155 12.480586972980733 0.8801598491789255 6.561583017700326 0 0 0
288 2 3 -0.8360811885138757 9.858993815802057 3.2242704246587954 2.50658259362693 0 0 0
289 2 3 -0.8259158322889367 12.041224549238246 3.8438911713004145 1.2321144095028822 0 0 0
290 2 3 -0.851681234389549 10.823122276978443 5.552778580886469 2.969213271488343 0 0 0
291 2 3 -0.7927223754575194 5.441063531738646 5.133184566310279 2.637369720230027 0 0 0
293 2 3 -0.819823547585759 11.219464574026873 3.296301564882451 6.390966103806104 0 0 0
324 4 4 1.328337808354721 13.56533589099135 0.3772042334383135 1.7779164416386946 0 0 0
325 4 3 -0.8587188432507046 14.570420607611169 1.1743674478313397 2.6770054433387576 0 0 0
24 2 4 1.038597532153509 7.907850353058899 0.48387064285364517 1.8389429251582492 0 0 0
379 25 2 0.2087178195135492 9.814854938515888 0.26859639187727635 0.4462553264339919 0 0 0
352 10 2 0.2188490078326605 10.301912270332744 0.06092638886513507 7.585804228466575 0 0 0
196 2 2 0.137121660475617 6.417692123817843 6.497580060775711 5.762555896349128 0 0 0
50 2 4 1.566193807557479 13.094536429319453 0.06064939887568725 7.777372190914155 0 0 0
351 10 1 -0.6767113883452411 9.463354124219656 0.18880337497593982 8.364422872936712 0 0 0
197 2 2 0.1638279866751813 8.122633637132044 6.5549240409183245 4.832562424014239 0 0 0
9 2 4 1.32951769030104 13.688605103741367 2.0911453745307127 10.16364958207098 0 0 0
26 2 4 1.499980430143083 5.94499396797891 2.7190300587257057 16.9152466700046 0 0 0
32 2 4 1.133631485803997 6.771268057787652 3.035977448395705 10.667121117222438 0 0 0
39 2 4 1.245682914864318 4.991306460994441 4.554419554125066 12.656019767430923 0 0 0
126 2 2 -0.01136069615925905 6.007303264295235 5.116084995993908 8.709794252769598 0 0 0
52 2 4 1.260878921482317 13.352129556259838 0.5796762659325719 14.42260116466127 0 0 0
53 2 4 1.536086146490128 8.67512341821871 2.906120519927982 15.60172547166463 0 0 0
54 2 4 1.224238297019929 11.578922764660115 2.372331693537002 12.686424138157784 0 0 0
60 2 4 1.474025010728061 10.014822239483651 4.788719267414198 13.476361524139712 0 0 0
168 2 2 0.1310349892577279 8.552963207661191 3.4051793251636435 9.192873031829915 0 0 0
81 2 1 -0.6742175454837411 8.356430804960642 2.1858518843273322 11.46988981355171 0 0 0
82 2 1 -0.6869802464780402 7.557788176145876 3.973649410410025 9.08246070223713 0 0 0
95 2 1 -0.6878318268422355 11.811757617656621 4.353569912943302 9.05339027335795 0 0 0
96 2 1 -0.6669904631206791 4.625898398629087 6.102858151216836 15.687672349355543 0 0 0
119 2 2 0.0017748690079413 12.450504244287718 3.5450610578521897 16.616048295634958 0 0 0
120 2 2 -0.03773768950281232 14.386932696948323 1.3336054846777987 15.53611609689604 0 0 0
121 2 2 0.01940996313387076 10.019591884521615 1.6736152847134629 12.481576657152477 0 0 0
127 2 2 -0.0005243290501390635 5.4551066588104105 5.60089924080444 13.9491943115942 0 0 0
226 2 2 0.2399798220894752 10.414193667180825 0.08006574187322775 16.60297181280328 0 1 0
145 2 2 0.1650573607722369 11.0448732309954 5.987307696494317 10.399790888572475 -1 0 0
164 2 2 0.1374281254594935 9.217639623624459 2.3421312339028857 10.712783655194137 0 0 0
165 2 2 0.1710902880278306 8.034040822064147 1.1402152082322239 11.628422929600449 0 0 0
166 2 2 0.2491960831460582 8.548579579192308 2.7098697896374158 12.494075317228956 0 0 0
169 2 2 0.1909930782308041 7.686773565650029 5.102757059627424 9.300142740201418 0 0 0
204 2 2 0.1745068492057806 11.174211374293588 4.71962951161111 9.879547893440579 0 0 0
30 2 4 1.18403771031142 7.95861629081169 0.10648731607775917 14.325511898087214 0 0 0
206 2 2 0.154482754060481 11.844628082089194 3.1372793655342113 8.908846089323836 0 0 0
207 2 2 0.1672027539867836 3.93809286662124 6.409501700845253 16.688250102320502 0 0 0
208 2 2 0.2164448437382636 5.49706520850213 5.459976471078785 15.899450508160276 0 0 0
209 2 2 0.1292948243393437 3.8595463633795335 5.566339669889886 14.902030885242784 0 0 0
261 2 3 -0.7825426423234363 6.281030690554365 4.105541911615453 11.820292200354103 0 0 0
279 2 3 -0.850609172056865 13.397174786864559 1.102135869152399 9.024850365860551 0 0 0
283 2 3 -0.8457734515975485 8.398262974796136 1.4320544301281135 14.999621955895764 0 0 0
284 2 3 -0.8876288938936123 9.999229049153708 2.7751342004483357 16.550652534569856 0 0 0
285 2 3 -0.856568878984318 7.401206910571862 3.6009854412449545 16.29616318528908 0 0 0
286 2 3 -0.786966245794816 12.549960210229411 2.047041840379708 11.275322220495458 0 0 0
287 2 3 -0.8368024643512656 12.316383789680453 1.661712786038008 13.936811845302747 0 0 0
41 2 4 1.22825839422006 3.4521211075716476 6.53533044525829 10.867419016813509 0 0 0
295 2 3 -0.8130462639588467 8.916454760216299 3.7323206064935097 14.09577721865587 0 0 0
296 2 3 -0.8407210280898507 11.263014728448349 3.893076640214402 12.854829472824637 0 0 0
297 2 3 -0.8553614124663916 10.38563949377026 5.835470911623517 14.723097946664593 0 0 0
383 29 2 0.2691690106452536 7.102529730643817 5.053108652556758 17.22229499981919 0 0 0
301 2 3 -0.7743159314168118 9.353288577503607 5.707229966489616 12.196576310339628 0 0 0
266 2 3 -0.8676972409744175 3.819763659233275 5.386795980920754 11.82895094102248 0 0 0
365 13 2 0.219313142495666 10.484808999425734 0.06315436273656097 13.66537945290588 0 1 0
105 2 2 -0.05562063331044101 15.040038064258685 0.5969036878996343 17.078720530449857 -1 0 -1
59 2 4 1.164965308125736 5.922228997801271 6.7177624592953595 9.317913597818999 0 0 0
20 2 4 1.350314327910709 7.908303654337883 11.173541498396187 4.7325520586675776 0 0 0
42 2 4 1.251562524445744 1.814953551974 9.40513028445495 2.196589726789254 0 0 0
44 2 4 1.084392096311337 -0.10763702491501403 11.823779543059215 4.6754447301505095 0 0 0
63 2 4 1.177416746724183 7.345065727616933 9.090838453529713 2.072125949740031 0 0 0
64 2 4 1.513878369566087 2.9205641640844586 11.737600387173817 3.786011426478509 0 0 0
65 2 4 1.061766510048444 6.4161356831712215 9.15282121831051 7.529995187032971 0 0 0
308 2 3 -0.8403162876827173 6.164543182102154 7.779754018791878 8.075923018557958 0 0 0
67 2 4 1.470270434276013 5.216947430609955 11.54221349854021 6.181321497057244 0 0 0
69 2 1 -0.6689515120281638 9.770120059858293 7.7201028349707705 4.286431618825311 -1 0 0
93 2 1 -0.674647599659572 4.438208800007674 7.508886321818884 4.287607869864211 0 0 0
99 2 1 -0.6782657325288763 5.987484867310283 10.091608069822541 1.2916614361883445 0 0 0
358 12 1 -0.6846355908103073 4.041963585337147 7.027954006268445 0.9942936129038205 0 0 0
101 2 1 -0.6631968031405796 1.727413620827028 9.867879863841837 6.730987483841226 0 0 0
129 2 2 -0.00396513996091049 7.755359830302769 9.110308897679689 6.4346147269676015 0 0 0
13 2 4 1.340210375221887 11.391443948688854 6.8169732194224455 3.72100173589489 -1 0 0
198 2 2 0.1817596572959644 4.431254985400997 7.95866343174278 5.33380277734858 0 0 0
199 2 2 0.1852848139120065 3.598838269334261 6.785404424553495 4.124653249255804 0 0 0
200 2 2 0.2243610418114933 4.466579662406683 8.374265059499242 3.540620063493917 0 0 0
216 2 2 0.1960642038362576 5.032858895678757 9.470017968087785 1.408422292875928 0 0 0
131 2 2 0.1462490503849924 9.461562489437014 7.410552818284336 5.337607839603768 -1 0 0
218 2 2 0.1867056763176307 6.022638886769189 11.06910274252449 1.9184259492757407 0 0 0
228 2 2 0.2351406165428254 3.802270163930616 9.007323186165694 8.60543925699559 0 0 0
377 23 2 0.1702003492474414 9.499500661179068 9.448972929254996 5.689035704097663 0 0 0
223 2 2 0.2596395843446637 1.7504387180035 10.599749831130094 5.840664344855602 0 0 0
268 2 3 -0.8434583744319148 2.375168994815162 9.421989129165363 0.7106693615901514 0 0 0
302 2 3 -0.8007745808432575 6.819088195591165 7.624986432538718 2.6772574077647984 0 0 0
303 2 3 -0.7882722978238986 8.650838963723812 8.741442149717864 0.8619319442465985 0 0 0
304 2 3 -0.7834864071441507 7.688893080377616 10.12357991137108 3.5939804147467966 0 0 0
305 2 3 -0.7757274949097694 3.0186800798589055 10.218865070750663 3.0437794822858413 0 0 0
306 2 3 -0.8430795212203775 3.1770585420538886 12.866894681471704 2.6393285860663838 0 0 0
307 2 3 -0.8800367932353669 1.3695128781435566 11.698979886743334 4.297036620879334 0 0 0
309 2 3 -0.8382819429498592 2.6248917977633037 12.325945319521802 8.251251418307396 0 0 0
311 2 3 -0.8246808697464258 6.705536492066929 11.72004340140004 5.53066519014768 0 0 0
312 2 3 -0.8108235059604613 4.108938604481794 11.667296111705332 4.984314560428597 0 0 0
313 2 3 -0.8066919857568254 5.131535189363593 10.016874951224676 6.959195341378881 0 0 0
314 2 3 -0.7982578620797742 5.02390632406034 12.850403781412107 7.3652470885553445 0 0 0
348 9 1 -0.694107670718309 -0.07054334199691828 12.947658298853986 1.2529642793348477 0 0 0
217 2 2 0.1723845367376797 6.452543046520918 10.121085511698755 0.19918352582867388 0 0 0
350 9 2 0.1914887282507922 0.5215850372040753 12.805327883367612 2.182474280482663 0 0 0
66 2 4 1.14557001193012 2.218158773707953 10.76178270535625 8.498555880344464 0 0 0
384 30 2 0.1867347881146191 2.4861531258361858 12.072804760520265 0.3548397886220773 0 0 0
373 19 2 -0.03358033821845573 4.9521240634995225 12.648990169797676 0.9694286768579539 0 0 0
360 12 2 0.2104752108088732 3.4803041007031417 7.18966098289947 2.0271717875737414 0 0 0
361 12 2 0.1752293199704092 5.129533848391488 7.284351985713315 1.017094923696579 0 0 0
375 21 2 0.2046004282654728 9.099256641184759 7.316473164877668 3.4674951293256484 0 0 0
343 7 2 0.1487404072346825 8.658496320639822 10.417859534802778 7.143501095182408 -1 0 0
222 2 2 0.1694187856436221 2.43213737200892 9.016285725411333 6.636525231107151 0 0 0
372 18 2 0.09223710752344973 -0.49739015265678493 13.4354770047872 4.137391176508509 0 -1 0
376 22 2 0.1755523257761122 10.003555302624223 8.832054333076284 4.148871954841132 0 0 0
147 2 2 0.1466091159880425 10.286216684447568 8.32270676644971 7.508136420406979 -1 0 0
18 2 4 1.300101742138921 10.415048295248907 7.119407773158845 15.585452818326315 0 0 0
35 2 4 1.235843124182672 2.133853957227201 8.29330134662272 17.200289686481742 0 0 0
277 2 3 -0.8269753181278002 0.882452643668029 9.509961000247928 12.054176679765392 0 0 0
380 26 2 0.1847045238339122 0.30595344705087946 13.23755834965315 9.334387331834638 0 0 0
57 2 4 1.255687214147361 7.584418566388214 7.714696631976473 17.030166669379224 0 0 0