LAMMPS (2 Aug 2023 - Update 2)
OMP_NUM_THREADS environment is not set. Defaulting to 1 thread. (src/comm.cpp:98)
  using 1 OpenMP thread(s) per MPI task
# Initialization
units           real
dimension       3
boundary        p p p
atom_style      full
timestep        0.5   # fs

# Define MD parameters
variable nevery equal 10                  # sampling interval
variable nrepeat equal 10                 # number of samples
variable nthermo equal ${nevery}*${nrepeat}           # interval for thermo output
variable nthermo equal 10*${nrepeat}           
variable nthermo equal 10*10           
variable nfreq equal ${nthermo} # length of one average
variable nfreq equal 100 
# 1 ps : 1e3 fs / 0.5 fs = 2e3 steps
variable nequil equal 30*${nthermo}       # steps of equilibration run 20
variable nequil equal 30*100       
variable nrun equal 30*${nthermo}          # stpes of equilibrated run 20
variable nrun equal 30*100          
variable temp equal 300.0                # temperature of initial sample
variable tdamp equal 50.0                 # time constant for thermostat
variable seed equal 123456                # seed for thermostat
variable ufac equal 1.01325e-4         # pressure unit conversion, from atm to Gpa
variable up equal 0.01                  # the deformation magnitude 2.0e-2

# Read the initial sctructure
# box tilt large
variable structure string 333U-50C-9-vasp
read_data       ${structure}.data
read_data       333U-50C-9-vasp.data
Reading data file ...
  triclinic box = (0 0 0) to (16.6078 13.4502 17.3502) with tilt (-9.4505 -1.0717 0.0034)
WARNING: Triclinic box skew is large. LAMMPS will run inefficiently. (src/domain.cpp:220)
  2 by 2 by 2 MPI processor grid
  reading atoms ...
  386 atoms
Finding 1-2 1-3 1-4 neighbors ...
  special bond factors lj:    0        0        0       
  special bond factors coul:  0        0        0       
     0 = max # of 1-2 neighbors
     0 = max # of 1-3 neighbors
     0 = max # of 1-4 neighbors
     1 = max # of special neighbors
  special bonds CPU = 0.001 seconds
  read_data CPU = 0.006 seconds

# Energy minimization
print "*****Minimization starts.*****"
*****Minimization starts.*****
minimize 1.0e-6 1.0e-6 100 1000
WARNING: No pairwise cutoff or binsize set. Atom sorting therefore disabled. (src/atom.cpp:2366)
WARNING: Communication cutoff is 0.0. No ghost atoms will be generated. Atoms may get lost. (src/comm_brick.cpp:210)
Per MPI rank memory allocation (min/avg/max) = 6.365 | 6.365 | 6.365 Mbytes
   Step          Temp          E_pair         E_mol          TotEng         Press     
         0   0              0              0              0              0            
         1   0              0              0              0              0            
Loop time of 6.58953e-05 on 8 procs for 1 steps with 386 atoms

44.0% CPU use with 8 MPI tasks x 1 OpenMP threads

Minimization stats:
  Stopping criterion = search direction is not downhill
  Energy initial, next-to-last, final = 
                     0                  0                  0
  Force two-norm initial, final = 0 0
  Force max component initial, final = 0 0
  Final line search alpha, max atom move = 0 0
  Iterations, force evaluations = 1 0

MPI task timing breakdown:
Section |  min time  |  avg time  |  max time  |%varavg| %total
---------------------------------------------------------------
Pair    | 0          | 0          | 0          |   0.0 |  0.00
Bond    | 8.38e-07   | 1.755e-06  | 1.886e-06  |   0.0 |  2.66
Neigh   | 0          | 0          | 0          |   0.0 |  0.00
Comm    | 4.4e-06    | 5.4386e-06 | 5.587e-06  |   0.0 |  8.25
Output  | 0          | 0          | 0          |   0.0 |  0.00
Modify  | 0          | 0          | 0          |   0.0 |  0.00
Other   |            | 5.87e-05   |            |       | 89.08

Nlocal:          48.25 ave          55 max          40 min
Histogram: 2 0 0 0 2 0 1 0 1 2
Nghost:              0 ave           0 max           0 min
Histogram: 8 0 0 0 0 0 0 0 0 0
Neighs:              0 ave           0 max           0 min
Histogram: 8 0 0 0 0 0 0 0 0 0

Total # of neighbors = 0
Ave neighs/atom = 0
Ave special neighs/atom = 0
Neighbor list builds = 0
Dangerous builds = 0
min_style cg
# Save the optimized structure
write_data ${structure}_opt.data
write_data 333U-50C-9-vasp_opt.data
System init for write_data ...
WARNING: Communication cutoff is 0.0. No ghost atoms will be generated. Atoms may get lost. (src/comm_brick.cpp:210)
velocity        all create ${temp} ${seed} dist gaussian
velocity        all create 300 ${seed} dist gaussian
velocity        all create 300 123456 dist gaussian

# Equilibration
include ff.mod.lmp
# Setup forcefield, system
# undefine any fix ave/* fix before using reset_timestep
if "$(is_defined(fix,avgp))" then "unfix avgp"
reset_timestep 0

# Assign the force field
pair_style reaxff NULL safezone 3.0 mincap 150
# pair_coeff * * CHONSSi.ff O Si
# pair_coeff * * CHOSiNa.ff O Si
# pair_coeff * * SiOCHN_2018.ff O Si
# pair_coeff * * PDMSDecomp.ff Si O
pair_coeff * * CHONSi.ff C H O Si
# pair_coeff * * CHOFe.ff O Si

# charge method for reaxff
fix myqeq all qeq/reaxff 1 0.0 10.0 1.0e-6 reaxff maxiter 400
# Setup neighbor style
neighbor        2 bin
neigh_modify    every 10 delay 0 check no

# Setup output
fix avgp all ave/time  ${nevery} ${nrepeat} ${nfreq} c_thermo_press mode vector
fix avgp all ave/time  10 ${nrepeat} ${nfreq} c_thermo_press mode vector
fix avgp all ave/time  10 10 ${nfreq} c_thermo_press mode vector
fix avgp all ave/time  10 10 100 c_thermo_press mode vector
thermo		${nthermo}
thermo		100
thermo_style custom step temp pe press f_avgp[1] vol
thermo_modify norm no

# NVT
fix 4 all nvt temp ${temp} ${temp} ${tdamp}
fix 4 all nvt temp 300 ${temp} ${tdamp}
fix 4 all nvt temp 300 300 ${tdamp}
fix 4 all nvt temp 300 300 50
thermo_style custom step temp pe press f_avgp[1] density vol
WARNING: New thermo_style command, previous thermo_modify settings will be lost (src/output.cpp:903)
run ${nequil}
run 3000

CITE-CITE-CITE-CITE-CITE-CITE-CITE-CITE-CITE-CITE-CITE-CITE-CITE

Your simulation uses code contributions which should be cited:

- pair reaxff command: doi:10.1016/j.parco.2011.08.005

@Article{Aktulga12,
 author = {H. M. Aktulga and J. C. Fogarty and S. A. Pandit and A. Y. Grama},
 title = {Parallel Reactive Molecular Dynamics: {N}umerical Methods and Algorithmic Techniques},
 journal = {Parallel Computing},
 year =    2012,
 volume =  38,
 number =  {4--5},
 pages =   {245--259}
}

- fix qeq/reaxff command: doi:10.1016/j.parco.2011.08.005

@Article{Aktulga12,
 author = {H. M. Aktulga and J. C. Fogarty and S. A. Pandit and A. Y. Grama},
 title = {Parallel Reactive Molecular Dynamics: {N}umerical Methods and Algorithmic Techniques},
 journal = {Parallel Computing},
 year =    2012,
 volume =  38,
 pages =   {245--259}
}

CITE-CITE-CITE-CITE-CITE-CITE-CITE-CITE-CITE-CITE-CITE-CITE-CITE

WARNING: Fix qeq/reaxff group is not charge neutral, net charge = -0.82 (src/REAXFF/fix_qeq_reaxff.cpp:392)
Neighbor list info ...
  update: every = 10 steps, delay = 0 steps, check = no
  max neighbors/atom: 2000, page size: 100000
  master list distance cutoff = 12
  ghost atom cutoff = 12
  binsize = 6, bins = 5 3 3
  2 neighbor lists, perpetual/occasional/extra = 2 0 0
  (1) pair reaxff, perpetual
      attributes: half, newton off, ghost
      pair build: half/bin/newtoff/ghost
      stencil: full/ghost/bin/3d
      bin: standard
  (2) fix qeq/reaxff, perpetual, copy from (1)
      attributes: half, newton off
      pair build: copy
      stencil: none
      bin: none
Per MPI rank memory allocation (min/avg/max) = 142.4 | 144.4 | 146.4 Mbytes
   Step          Temp          PotEng         Press        f_avgp[1]       Density         Volume    
         0   300           -43202.648      118796.37      0              1.7478941      3875.657     
       100   631.0338      -43895.466     -4819.2253      7810.6857      1.7478941      3875.657     
       200   533.30843     -44157.498      15862.756      4773.0232      1.7478941      3875.657     
       300   425.22341     -44305.336      2256.7082     -2590.9668      1.7478941      3875.657     
       400   350.71086     -44415.617      8647.0575     -2223.4531      1.7478941      3875.657     
       500   327.82267     -44524.572      11246.901     -2983.3642      1.7478941      3875.657     
       600   281.23069     -44560.92       9461.1727      475.88207      1.7478941      3875.657     
       700   266.77522     -44585.699      10549.532     -2495.1706      1.7478941      3875.657     
       800   303.32794     -44620.951      15593.795      5822.5453      1.7478941      3875.657     
       900   299.36152     -44595.018      4527.8559     -4715.4924      1.7478941      3875.657     
      1000   319.16248     -44598.921     -1186.3394      1727.7141      1.7478941      3875.657     
      1100   314.01384     -44597.008      4234.2333     -2897.1931      1.7478941      3875.657     
      1200   296.63954     -44596.234      2232.5129     -4474.6891      1.7478941      3875.657     
      1300   297.2041      -44617.222      7165.1973     -553.19322      1.7478941      3875.657     
      1400   298.61517     -44631.197      11973.132      4121.1871      1.7478941      3875.657     
      1500   302.89362     -44634.621      14442.442      3407.9435      1.7478941      3875.657     
      1600   302.27445     -44633.277      10672.965     -1314.5853      1.7478941      3875.657     
      1700   299.78312     -44632.561      3910.9904     -3297.06        1.7478941      3875.657     
      1800   304.25195     -44648.038     -6322.9145     -3326.8684      1.7478941      3875.657     
      1900   301.44067     -44659.194      23690.598     -1816.0767      1.7478941      3875.657     
      2000   289.87138     -44655.159      8378.5973     -2485.0895      1.7478941      3875.657     
      2100   301.28218     -44667.342     -2611.4715      243.11607      1.7478941      3875.657     
      2200   303.40474     -44665.078      13772.112     -1148.2376      1.7478941      3875.657     
      2300   302.72932     -44654.236     -8117.9902     -4784.0309      1.7478941      3875.657     
      2400   298.23291     -44646.643      14731.88      -1508.3234      1.7478941      3875.657     
      2500   295.62437     -44648.964      3601.6509     -1159.4252      1.7478941      3875.657     
      2600   314.28699     -44679.893      8252.674       977.36108      1.7478941      3875.657     
      2700   285.32117     -44673.293     -9809.669      -644.63027      1.7478941      3875.657     
      2800   289.2142      -44686.236     -12047.076     -5303.0917      1.7478941      3875.657     
      2900   285.88087     -44660.043      4061.6564     -7955.176       1.7478941      3875.657     
      3000   340.84522     -44694.627      2804.997      -153.13585      1.7478941      3875.657     
Loop time of 170.137 on 8 procs for 3000 steps with 386 atoms

Performance: 0.762 ns/day, 31.507 hours/ns, 17.633 timesteps/s, 6.806 katom-step/s
99.0% CPU use with 8 MPI tasks x 1 OpenMP threads

MPI task timing breakdown:
Section |  min time  |  avg time  |  max time  |%varavg| %total
---------------------------------------------------------------
Pair    | 137.63     | 140.35     | 143.88     |  17.5 | 82.49
Bond    | 0.0079329  | 0.0085553  | 0.0092083  |   0.5 |  0.01
Neigh   | 11.151     | 11.385     | 11.568     |   3.8 |  6.69
Comm    | 1.6815     | 5.2254     | 7.9451     |  90.9 |  3.07
Output  | 0.0016742  | 0.0018183  | 0.0026137  |   0.7 |  0.00
Modify  | 12.907     | 13.09      | 13.322     |   3.5 |  7.69
Other   |            | 0.07986    |            |       |  0.05

Nlocal:          48.25 ave          58 max          40 min
Histogram: 1 1 1 2 0 0 1 0 0 2
Nghost:         3723.5 ave        3796 max        3645 min
Histogram: 1 1 0 1 1 0 1 1 1 1
Neighs:        33606.2 ave       40009 max       27942 min
Histogram: 1 1 1 2 0 0 1 0 0 2

Total # of neighbors = 268850
Ave neighs/atom = 696.50259
Ave special neighs/atom = 0
Neighbor list builds = 300
Dangerous builds not checked
# Save the optimized structure
write_data ${structure}_opt.data
write_data 333U-50C-9-vasp_opt.data
System init for write_data ...

# Save initial pressure, box size
variable pxx0 equal f_avgp[1]
variable pyy0 equal f_avgp[2]
variable pzz0 equal f_avgp[3]
variable pxy0 equal f_avgp[4]
variable pxz0 equal f_avgp[5]
variable pyz0 equal f_avgp[6]

# use tmp to save initial box length
variable tmp equal lx
variable lx0 equal ${tmp}
variable lx0 equal 16.6078
variable tmp equal ly
variable ly0 equal ${tmp}
variable ly0 equal 13.4502
variable tmp equal lz
variable lz0 equal ${tmp}
variable lz0 equal 17.3502

# define the derivatives, w.r.t. strain tensor
# Constants uses $, variables use v_
variable d1 equal -(v_pxx1-${pxx0})/(v_delta/v_len0)*${ufac}
variable d1 equal -(v_pxx1--153.135854203916)/(v_delta/v_len0)*${ufac}
variable d1 equal -(v_pxx1--153.135854203916)/(v_delta/v_len0)*0.000101325
variable d2 equal -(v_pyy1-${pyy0})/(v_delta/v_len0)*${ufac}
variable d2 equal -(v_pyy1-6788.13349282808)/(v_delta/v_len0)*${ufac}
variable d2 equal -(v_pyy1-6788.13349282808)/(v_delta/v_len0)*0.000101325
variable d3 equal -(v_pzz1-${pzz0})/(v_delta/v_len0)*${ufac}
variable d3 equal -(v_pzz1-8841.20170649372)/(v_delta/v_len0)*${ufac}
variable d3 equal -(v_pzz1-8841.20170649372)/(v_delta/v_len0)*0.000101325
variable d4 equal -(v_pyz1-${pyz0})/(v_delta/v_len0)*${ufac}*0.5
variable d4 equal -(v_pyz1--954.148366950205)/(v_delta/v_len0)*${ufac}*0.5
variable d4 equal -(v_pyz1--954.148366950205)/(v_delta/v_len0)*0.000101325*0.5
variable d5 equal -(v_pxz1-${pxz0})/(v_delta/v_len0)*${ufac}*0.5
variable d5 equal -(v_pxz1--717.610626253598)/(v_delta/v_len0)*${ufac}*0.5
variable d5 equal -(v_pxz1--717.610626253598)/(v_delta/v_len0)*0.000101325*0.5
variable d6 equal -(v_pxy1-${pxy0})/(v_delta/v_len0)*${ufac}*0.5
variable d6 equal -(v_pxy1--3473.92187866932)/(v_delta/v_len0)*${ufac}*0.5
variable d6 equal -(v_pxy1--3473.92187866932)/(v_delta/v_len0)*0.000101325*0.5

# Write restart
write_restart equil.res
System init for write_restart ...

# dir: direction
# uxx Perturbation
variable dir equal 1
include displace.mod.lmp
# Find which reference length to use
if "${dir} == 1" then    "variable len0 equal ${lx0}"
variable len0 equal ${lx0}
variable len0 equal 16.6078
if "${dir} == 2" then    "variable len0 equal ${ly0}"
if "${dir} == 3" then    "variable len0 equal ${lz0}"
if "${dir} == 4" then    "variable len0 equal ${lz0}"
if "${dir} == 5" then    "variable len0 equal ${lz0}"
if "${dir} == 6" then    "variable len0 equal ${ly0}"

# Reset box and simulation parameters
clear
OMP_NUM_THREADS environment is not set. Defaulting to 1 thread. (src/comm.cpp:98)
  using 1 OpenMP thread(s) per MPI task
# box tilt large
read_restart equil.res
Reading restart file ...
  restart file = 2 Aug 2023, LAMMPS = 2 Aug 2023
  restoring atom style full from restart
  triclinic box = (0 0 0) to (16.6078 13.4502 17.3502) with tilt (-9.4505 -1.0717 0.0034)
WARNING: Triclinic box skew is large. LAMMPS will run inefficiently. (src/domain.cpp:220)
  2 by 2 by 2 MPI processor grid
  pair style reaxff stores no restart info
  386 atoms
Finding 1-2 1-3 1-4 neighbors ...
  special bond factors lj:    0        0        0       
  special bond factors coul:  0        0        0       
     0 = max # of 1-2 neighbors
     0 = max # of 1-3 neighbors
     0 = max # of 1-4 neighbors
     1 = max # of special neighbors
  special bonds CPU = 0.000 seconds
  read_restart CPU = 0.003 seconds
print "*****Negative-change ${dir} starts.*****"
*****Negative-change 1 starts.*****
include ff.mod.lmp
# Setup forcefield, system
# undefine any fix ave/* fix before using reset_timestep
if "$(is_defined(fix,avgp))" then "unfix avgp"
reset_timestep 0

# Assign the force field
pair_style reaxff NULL safezone 3.0 mincap 150
# pair_coeff * * CHONSSi.ff O Si
# pair_coeff * * CHOSiNa.ff O Si
# pair_coeff * * SiOCHN_2018.ff O Si
# pair_coeff * * PDMSDecomp.ff Si O
pair_coeff * * CHONSi.ff C H O Si
# pair_coeff * * CHOFe.ff O Si

# charge method for reaxff
fix myqeq all qeq/reaxff 1 0.0 10.0 1.0e-6 reaxff maxiter 400
# Setup neighbor style
neighbor        2 bin
neigh_modify    every 10 delay 0 check no

# Setup output
fix avgp all ave/time  ${nevery} ${nrepeat} ${nfreq} c_thermo_press mode vector
fix avgp all ave/time  10 ${nrepeat} ${nfreq} c_thermo_press mode vector
fix avgp all ave/time  10 10 ${nfreq} c_thermo_press mode vector
fix avgp all ave/time  10 10 100 c_thermo_press mode vector
thermo		${nthermo}
thermo		100
thermo_style custom step temp pe press f_avgp[1] vol
thermo_modify norm no

# NVT
fix 4 all nvt temp ${temp} ${temp} ${tdamp}
fix 4 all nvt temp 300 ${temp} ${tdamp}
fix 4 all nvt temp 300 300 ${tdamp}
fix 4 all nvt temp 300 300 50
Resetting global fix info from restart file:
  fix style: nvt, fix ID: 4

# Negative deformation
variable delta equal -${up}*${len0}
variable delta equal -0.01*${len0}
variable delta equal -0.01*16.6078
variable deltaxy equal -${up}*xy
variable deltaxy equal -0.01*xy
variable deltaxz equal -${up}*xz
variable deltaxz equal -0.01*xz
variable deltayz equal -${up}*yz
variable deltayz equal -0.01*yz
if "${dir} == 1" then    "change_box all x delta 0 ${delta} xy delta ${deltaxy} xz delta ${deltaxz} remap units box"
change_box all x delta 0 ${delta} xy delta ${deltaxy} xz delta ${deltaxz} remap units box
change_box all x delta 0 -0.166078 xy delta ${deltaxy} xz delta ${deltaxz} remap units box
change_box all x delta 0 -0.166078 xy delta 0.094505 xz delta ${deltaxz} remap units box
change_box all x delta 0 -0.166078 xy delta 0.094505 xz delta 0.010717 remap units box
Changing box ...
WARNING: Triclinic box skew is large. LAMMPS will run inefficiently. (src/domain.cpp:220)
  triclinic box = (0 0 0) to (16.441722 13.4502 17.3502) with tilt (-9.4505 -1.0717 0.0034)
WARNING: Triclinic box skew is large. LAMMPS will run inefficiently. (src/domain.cpp:220)
  triclinic box = (0 0 0) to (16.441722 13.4502 17.3502) with tilt (-9.355995 -1.0717 0.0034)
WARNING: Triclinic box skew is large. LAMMPS will run inefficiently. (src/domain.cpp:220)
  triclinic box = (0 0 0) to (16.441722 13.4502 17.3502) with tilt (-9.355995 -1.060983 0.0034)
if "${dir} == 2" then    "change_box all y delta 0 ${delta} yz delta ${deltayz} remap units box"
if "${dir} == 3" then    "change_box all z delta 0 ${delta} remap units box"
if "${dir} == 4" then    "change_box all yz delta ${delta} remap units box"
if "${dir} == 5" then    "change_box all xz delta ${delta} remap units box"
if "${dir} == 6" then    "change_box all xy delta ${delta} remap units box"

# Run MD for Negative deformation
# save trajectory
dump dump_neg${dir} all custom ${nthermo} dump/neg_deform${dir}.lammpstrj id type x y z
dump dump_neg1 all custom ${nthermo} dump/neg_deform${dir}.lammpstrj id type x y z
dump dump_neg1 all custom 100 dump/neg_deform${dir}.lammpstrj id type x y z
dump dump_neg1 all custom 100 dump/neg_deform1.lammpstrj id type x y z
run ${nrun}
run 3000
All restart file global fix info was re-assigned
Neighbor list info ...
  update: every = 10 steps, delay = 0 steps, check = no
  max neighbors/atom: 2000, page size: 100000
  master list distance cutoff = 12
  ghost atom cutoff = 12
  binsize = 6, bins = 5 3 3
  2 neighbor lists, perpetual/occasional/extra = 2 0 0
  (1) pair reaxff, perpetual
      attributes: half, newton off, ghost
      pair build: half/bin/newtoff/ghost
      stencil: full/ghost/bin/3d
      bin: standard
  (2) fix qeq/reaxff, perpetual, copy from (1)
      attributes: half, newton off
      pair build: copy
      stencil: none
      bin: none
Per MPI rank memory allocation (min/avg/max) = 143.1 | 144.9 | 146.9 Mbytes
   Step          Temp          PotEng         Press        f_avgp[1]        Volume    
         0   340.84522     -44680.601      46257.991      0              3836.9004    
       100   317.43312     -44667.132     -2595.889       3289.8306      3836.9004    
       200   298.2131      -44685.368      16414.611      2277.2086      3836.9004    
       300   273.09702     -44679.484      8954.7706      3106.9329      3836.9004    
       400   290.25876     -44689.451      2640.1973      914.18245      3836.9004    
       500   302.09796     -44674.001      9602.5006      162.53249      3836.9004    
       600   300.6721      -44651.688      7380.0724      3563.1642      3836.9004    
       700   309.61328     -44671.08      -2421.2907      3580.3946      3836.9004    
       800   290.2471      -44674.938      15438.023      1871.5353      3836.9004    
       900   293.94339     -44690.787      13294.212      3298.9456      3836.9004    
      1000   291.67304     -44682.917     -2124.9077      771.35806      3836.9004    
      1100   314.51591     -44687.525      19286.069      3801.0557      3836.9004    
      1200   301.80746     -44662.376     -6794.2441     -2017.7172      3836.9004    
      1300   291.91831     -44661.334     -5798.2338      374.1254       3836.9004    
      1400   294.23758     -44695.951     -964.01263      750.03122      3836.9004    
      1500   275.43678     -44685.771     -2580.5368      5279.2997      3836.9004    
      1600   309.89888     -44712.37       11902.884      4365.2699      3836.9004    
      1700   298.23602     -44685.497      2362.1947      2795.7929      3836.9004    
      1800   293.97955     -44675.951      527.43596     -575.78994      3836.9004    
      1900   309.98797     -44691.485      12985.938      2417.1802      3836.9004    
      2000   301.31747     -44686.955      17459.735      2904.4919      3836.9004    
      2100   313.37677     -44708.514      7916.9533      1017.4554      3836.9004    
      2200   311.95903     -44718.883      3415.0516      7903.0833      3836.9004    
      2300   290.25025     -44696.258      4183.8075     -1270.2357      3836.9004    
      2400   299.65233     -44679.098      12461.275      1659.3882      3836.9004    
      2500   307.81168     -44671.495      5209.0977      6169.2375      3836.9004    
      2600   311.03208     -44682.285     -8303.9224     -817.87406      3836.9004    
      2700   312.60318     -44708.569      5718.9509     -973.46621      3836.9004    
      2800   284.6996      -44690.01      -1458.6099      3541.5324      3836.9004    
      2900   288.81461     -44692.238      3180.5873      1100.7117      3836.9004    
      3000   304.27882     -44704.258      24284.573      6079.6258      3836.9004    
Loop time of 172.252 on 8 procs for 3000 steps with 386 atoms

Performance: 0.752 ns/day, 31.899 hours/ns, 17.416 timesteps/s, 6.723 katom-step/s
99.0% CPU use with 8 MPI tasks x 1 OpenMP threads

MPI task timing breakdown:
Section |  min time  |  avg time  |  max time  |%varavg| %total
---------------------------------------------------------------
Pair    | 98.625     | 137.22     | 145.94     | 125.7 | 79.66
Bond    | 0.0078887  | 0.0084465  | 0.0090905  |   0.5 |  0.00
Neigh   | 8.4729     | 11.112     | 11.661     |  30.1 |  6.45
Comm    | 1.6983     | 10.432     | 49.038     | 455.9 |  6.06
Output  | 0.0066967  | 0.0083979  | 0.0096105  |   1.1 |  0.00
Modify  | 12.85      | 13.391     | 16.031     |  27.4 |  7.77
Other   |            | 0.07734    |            |       |  0.04

Nlocal:          48.25 ave          57 max          43 min
Histogram: 1 1 2 2 0 0 0 1 0 1
Nghost:        3775.88 ave        3803 max        3739 min
Histogram: 1 1 0 0 0 1 2 1 0 2
Neighs:        33990.1 ave       39836 max       30256 min
Histogram: 1 1 2 2 0 0 0 1 0 1

Total # of neighbors = 271921
Ave neighs/atom = 704.45855
Ave special neighs/atom = 0
Neighbor list builds = 300
Dangerous builds not checked
undump dump_neg${dir}
undump dump_neg1

# Run equilibration
print "*****Equilibration neg${dir} starts.*****"
*****Equilibration neg1 starts.*****
include ff.mod.lmp
# Setup forcefield, system
# undefine any fix ave/* fix before using reset_timestep
if "$(is_defined(fix,avgp))" then "unfix avgp"
unfix avgp
reset_timestep 0

# Assign the force field
pair_style reaxff NULL safezone 3.0 mincap 150
# pair_coeff * * CHONSSi.ff O Si
# pair_coeff * * CHOSiNa.ff O Si
# pair_coeff * * SiOCHN_2018.ff O Si
# pair_coeff * * PDMSDecomp.ff Si O
pair_coeff * * CHONSi.ff C H O Si
# pair_coeff * * CHOFe.ff O Si

# charge method for reaxff
fix myqeq all qeq/reaxff 1 0.0 10.0 1.0e-6 reaxff maxiter 400
# Setup neighbor style
neighbor        2 bin
neigh_modify    every 10 delay 0 check no

# Setup output
fix avgp all ave/time  ${nevery} ${nrepeat} ${nfreq} c_thermo_press mode vector
fix avgp all ave/time  10 ${nrepeat} ${nfreq} c_thermo_press mode vector
fix avgp all ave/time  10 10 ${nfreq} c_thermo_press mode vector
fix avgp all ave/time  10 10 100 c_thermo_press mode vector
thermo		${nthermo}
thermo		100
thermo_style custom step temp pe press f_avgp[1] vol
WARNING: New thermo_style command, previous thermo_modify settings will be lost (src/output.cpp:903)
thermo_modify norm no

# NVT
fix 4 all nvt temp ${temp} ${temp} ${tdamp}
fix 4 all nvt temp 300 ${temp} ${tdamp}
fix 4 all nvt temp 300 300 ${tdamp}
fix 4 all nvt temp 300 300 50
run ${nequil}
run 3000
Neighbor list info ...
  update: every = 10 steps, delay = 0 steps, check = no
  max neighbors/atom: 2000, page size: 100000
  master list distance cutoff = 12
  ghost atom cutoff = 12
  binsize = 6, bins = 5 3 3
  2 neighbor lists, perpetual/occasional/extra = 2 0 0
  (1) pair reaxff, perpetual
      attributes: half, newton off, ghost
      pair build: half/bin/newtoff/ghost
      stencil: full/ghost/bin/3d
      bin: standard
  (2) fix qeq/reaxff, perpetual, copy from (1)
      attributes: half, newton off
      pair build: copy
      stencil: none
      bin: none
Per MPI rank memory allocation (min/avg/max) = 143.1 | 144.9 | 146.9 Mbytes
   Step          Temp          PotEng         Press        f_avgp[1]        Volume    
         0   304.27882     -44704.258      24284.542      0              3836.9004    
       100   298.11151     -44692.903      9140.7033      2408.3821      3836.9004    
       200   312.56305     -44679.98       9676.4925      2305.3695      3836.9004    
       300   297.69146     -44654.919      3332.5993      2072.6595      3836.9004    
       400   301.70745     -44693.774      10836.674      3417.1376      3836.9004    
       500   300.9066      -44713.07       10296.593      2892.3256      3836.9004    
       600   301.17158     -44709.424     -882.76261     -2583.0109      3836.9004    
       700   314.25948     -44710.068      3948.8056      982.95823      3836.9004    
       800   307.38435     -44694.129      11427.977      1106.6572      3836.9004    
       900   304.87447     -44703.134      10955.847     -4850.8017      3836.9004    
      1000   293.5964      -44708.926      13785.462      1049.8698      3836.9004    
      1100   290.00606     -44712.853      7592.0175     -727.51188      3836.9004    
      1200   297.35846     -44718.671      6285.5131      337.31587      3836.9004    
      1300   296.27161     -44702.816      19672.238      2234.17        3836.9004    
      1400   302.00322     -44708.294      4431.0397      433.2106       3836.9004    
      1500   305.12254     -44736.392      5970.9151      2519.4443      3836.9004    
      1600   290.90423     -44741.136      13269.595      5491.0358      3836.9004    
      1700   302.68674     -44749.375      1004.8117      2134.4648      3836.9004    
      1800   299.25337     -44716.608      1907.9271     -4650.7205      3836.9004    
      1900   308.67411     -44695.333      4882.5728     -7383.8416      3836.9004    
      2000   309.26443     -44713.004      14593.367     -4556.7188      3836.9004    
      2100   316.26912     -44749.045      5438.0875      2769.5293      3836.9004    
      2200   301.15318     -44747.117      8758.3571      1106.8894      3836.9004    
      2300   286.89966     -44736.008      525.38328     -1173.7945      3836.9004    
      2400   288.38232     -44714.838     -3468.4881      702.56366      3836.9004    
      2500   314.08354     -44717.946      2493.4943     -3218.8094      3836.9004    
      2600   310.85616     -44723.395      13772.226     -2828.6298      3836.9004    
      2700   302.65946     -44733.207      16001.569      6091.0436      3836.9004    
      2800   298.97599     -44748.332      1072.9896     -4672.0554      3836.9004    
      2900   290.2907      -44743.854      19076.072      449.59822      3836.9004    
      3000   287.80358     -44719.296     -9814.5524     -2507.9331      3836.9004    
Loop time of 170.957 on 8 procs for 3000 steps with 386 atoms

Performance: 0.758 ns/day, 31.659 hours/ns, 17.548 timesteps/s, 6.774 katom-step/s
99.1% CPU use with 8 MPI tasks x 1 OpenMP threads

MPI task timing breakdown:
Section |  min time  |  avg time  |  max time  |%varavg| %total
---------------------------------------------------------------
Pair    | 95.949     | 134.22     | 144.49     | 141.8 | 78.51
Bond    | 0.0078018  | 0.0083621  | 0.0089411  |   0.4 |  0.00
Neigh   | 8.2623     | 10.873     | 11.593     |  33.8 |  6.36
Comm    | 2.0797     | 12.353     | 50.634     | 467.6 |  7.23
Output  | 0.0012803  | 0.0014434  | 0.0022232  |   0.8 |  0.00
Modify  | 12.703     | 13.422     | 16.034     |  30.4 |  7.85
Other   |            | 0.07799    |            |       |  0.05

Nlocal:          48.25 ave          60 max          41 min
Histogram: 2 0 2 0 1 2 0 0 0 1
Nghost:        3748.75 ave        3774 max        3705 min
Histogram: 1 0 0 1 0 1 0 3 0 2
Neighs:        33954.4 ave       41797 max       29100 min
Histogram: 2 0 2 0 1 2 0 0 0 1

Total # of neighbors = 271635
Ave neighs/atom = 703.71762
Ave special neighs/atom = 0
Neighbor list builds = 300
Dangerous builds not checked

# Obtain new stress tensor Negative deformation, convert index from LAMMPS to Voigt
variable pxx1 equal f_avgp[1]
variable pyy1 equal f_avgp[2]
variable pzz1 equal f_avgp[3]
variable pxy1 equal f_avgp[4]
variable pxz1 equal f_avgp[5]
variable pyz1 equal f_avgp[6]

# Compute elastic constant from pressure
# d1 = -[pxx1-pxx0]/[(]v_delta/v_len0] defined in input script
variable C1neg equal ${d1}
variable C1neg equal -23.8599833932707
variable C2neg equal ${d2}
variable C2neg equal -21.8520224180934
variable C3neg equal ${d3}
variable C3neg equal -29.2892816719752
variable C4neg equal ${d4}
variable C4neg equal 20.8881671960555
variable C5neg equal ${d5}
variable C5neg equal 1.72909566705885
variable C6neg equal ${d6}
variable C6neg equal 34.5001827770385

# Reset box and simulation parameters
clear
OMP_NUM_THREADS environment is not set. Defaulting to 1 thread. (src/comm.cpp:98)
  using 1 OpenMP thread(s) per MPI task
# box tilt large
read_restart equil.res
Reading restart file ...
  restart file = 2 Aug 2023, LAMMPS = 2 Aug 2023
  restoring atom style full from restart
  triclinic box = (0 0 0) to (16.6078 13.4502 17.3502) with tilt (-9.4505 -1.0717 0.0034)
WARNING: Triclinic box skew is large. LAMMPS will run inefficiently. (src/domain.cpp:220)
  2 by 2 by 2 MPI processor grid
  pair style reaxff stores no restart info
  386 atoms
Finding 1-2 1-3 1-4 neighbors ...
  special bond factors lj:    0        0        0       
  special bond factors coul:  0        0        0       
     0 = max # of 1-2 neighbors
     0 = max # of 1-3 neighbors
     0 = max # of 1-4 neighbors
     1 = max # of special neighbors
  special bonds CPU = 0.000 seconds
  read_restart CPU = 0.003 seconds
print "*****Positive-change ${dir} starts.*****"
*****Positive-change 1 starts.*****
include ff.mod.lmp
# Setup forcefield, system
# undefine any fix ave/* fix before using reset_timestep
if "$(is_defined(fix,avgp))" then "unfix avgp"
reset_timestep 0

# Assign the force field
pair_style reaxff NULL safezone 3.0 mincap 150
# pair_coeff * * CHONSSi.ff O Si
# pair_coeff * * CHOSiNa.ff O Si
# pair_coeff * * SiOCHN_2018.ff O Si
# pair_coeff * * PDMSDecomp.ff Si O
pair_coeff * * CHONSi.ff C H O Si
# pair_coeff * * CHOFe.ff O Si

# charge method for reaxff
fix myqeq all qeq/reaxff 1 0.0 10.0 1.0e-6 reaxff maxiter 400
# Setup neighbor style
neighbor        2 bin
neigh_modify    every 10 delay 0 check no

# Setup output
fix avgp all ave/time  ${nevery} ${nrepeat} ${nfreq} c_thermo_press mode vector
fix avgp all ave/time  10 ${nrepeat} ${nfreq} c_thermo_press mode vector
fix avgp all ave/time  10 10 ${nfreq} c_thermo_press mode vector
fix avgp all ave/time  10 10 100 c_thermo_press mode vector
thermo		${nthermo}
thermo		100
thermo_style custom step temp pe press f_avgp[1] vol
thermo_modify norm no

# NVT
fix 4 all nvt temp ${temp} ${temp} ${tdamp}
fix 4 all nvt temp 300 ${temp} ${tdamp}
fix 4 all nvt temp 300 300 ${tdamp}
fix 4 all nvt temp 300 300 50
Resetting global fix info from restart file:
  fix style: nvt, fix ID: 4

# Positive deformation
variable delta equal ${up}*${len0}
variable delta equal 0.01*${len0}
variable delta equal 0.01*16.6078
variable deltaxy equal ${up}*xy
variable deltaxy equal 0.01*xy
variable deltaxz equal ${up}*xz
variable deltaxz equal 0.01*xz
variable deltayz equal ${up}*yz
variable deltayz equal 0.01*yz
if "${dir} == 1" then    "change_box all x delta 0 ${delta} xy delta ${deltaxy} xz delta ${deltaxz} remap units box"
change_box all x delta 0 ${delta} xy delta ${deltaxy} xz delta ${deltaxz} remap units box
change_box all x delta 0 0.166078 xy delta ${deltaxy} xz delta ${deltaxz} remap units box
change_box all x delta 0 0.166078 xy delta -0.094505 xz delta ${deltaxz} remap units box
change_box all x delta 0 0.166078 xy delta -0.094505 xz delta -0.010717 remap units box
Changing box ...
WARNING: Triclinic box skew is large. LAMMPS will run inefficiently. (src/domain.cpp:220)
  triclinic box = (0 0 0) to (16.773878 13.4502 17.3502) with tilt (-9.4505 -1.0717 0.0034)
WARNING: Triclinic box skew is large. LAMMPS will run inefficiently. (src/domain.cpp:220)
  triclinic box = (0 0 0) to (16.773878 13.4502 17.3502) with tilt (-9.545005 -1.0717 0.0034)
WARNING: Triclinic box skew is large. LAMMPS will run inefficiently. (src/domain.cpp:220)
  triclinic box = (0 0 0) to (16.773878 13.4502 17.3502) with tilt (-9.545005 -1.082417 0.0034)
if "${dir} == 2" then    "change_box all y delta 0 ${delta} yz delta ${deltayz} remap units box"
if "${dir} == 3" then    "change_box all z delta 0 ${delta} remap units box"
if "${dir} == 4" then    "change_box all yz delta ${delta} remap units box"
if "${dir} == 5" then    "change_box all xz delta ${delta} remap units box"
if "${dir} == 6" then    "change_box all xy delta ${delta} remap units box"

# Run positive deformation MD
# save trajectory
dump dump_pos${dir} all custom ${nthermo} dump/pos_deform${dir}.lammpstrj id type x y z
dump dump_pos1 all custom ${nthermo} dump/pos_deform${dir}.lammpstrj id type x y z
dump dump_pos1 all custom 100 dump/pos_deform${dir}.lammpstrj id type x y z
dump dump_pos1 all custom 100 dump/pos_deform1.lammpstrj id type x y z
run ${nrun}
run 3000
All restart file global fix info was re-assigned
Neighbor list info ...
  update: every = 10 steps, delay = 0 steps, check = no
  max neighbors/atom: 2000, page size: 100000
  master list distance cutoff = 12
  ghost atom cutoff = 12
  binsize = 6, bins = 5 3 3
  2 neighbor lists, perpetual/occasional/extra = 2 0 0
  (1) pair reaxff, perpetual
      attributes: half, newton off, ghost
      pair build: half/bin/newtoff/ghost
      stencil: full/ghost/bin/3d
      bin: standard
  (2) fix qeq/reaxff, perpetual, copy from (1)
      attributes: half, newton off
      pair build: copy
      stencil: none
      bin: none
Per MPI rank memory allocation (min/avg/max) = 141.4 | 143.7 | 146.2 Mbytes
   Step          Temp          PotEng         Press        f_avgp[1]        Volume    
         0   340.84522     -44672.552     -36868.413      0              3914.4136    
       100   321.77604     -44663.988      1065.1196     -11766.6        3914.4136    
       200   300.77741     -44679.053      1754.4047     -11316.886      3914.4136    
       300   278.53555     -44676.731      10608.781     -8488.4243      3914.4136    
       400   303.41901     -44693.619     -8552.4909     -11139.391      3914.4136    
       500   307.17638     -44666.807     -7587.4483     -9852.4956      3914.4136    
       600   305.86497     -44643.462      1739.3372     -9015.6454      3914.4136    
       700   321.31873     -44668.274     -521.61363     -8525.0234      3914.4136    
       800   296.63604     -44669.463      6988.6537     -6254.4932      3914.4136    
       900   279.97062     -44667.642      8746.4198     -2732.1706      3914.4136    
      1000   296.17403     -44670.938     -9152.3598     -8973.5629      3914.4136    
      1100   292.08431     -44647.608      6048.2548     -8395.576       3914.4136    
      1200   321.80779     -44684.293      3603.1817     -3035.0954      3914.4136    
      1300   301.67341     -44691.829      1373.6161     -5666.748       3914.4136    
      1400   287.34843     -44689.761      16484.848     -4784.4503      3914.4136    
      1500   284.40003     -44671.751     -2352.1114     -7537.8607      3914.4136    
      1600   311.15137     -44684.627      7461.2941     -2150.6326      3914.4136    
      1700   305.97039     -44678.582     -4586.9223     -9397.0374      3914.4136    
      1800   290.39437     -44675.188      2539.0289     -7375.6034      3914.4136    
      1900   302.46035     -44697.274      6505.9231     -3447.1882      3914.4136    
      2000   306.10521     -44704.313      8774.5471     -2435.0081      3914.4136    
      2100   297.99214     -44691.32       4787.7503     -5426.6295      3914.4136    
      2200   333.47539     -44687.626      295.50759     -5445.0681      3914.4136    
      2300   325.00071     -44674.54      -2755.1243     -6965.3018      3914.4136    
      2400   305.50233     -44680.32       5887.889      -3812.6698      3914.4136    
      2500   305.58216     -44698.859     -1882.9216     -3948.7416      3914.4136    
      2600   308.14076     -44703.767      6071.1919     -1880.3526      3914.4136    
      2700   311.99337     -44693.355      998.32982     -4168.761       3914.4136    
      2800   315.5421      -44663.925      3415.5016      761.69927      3914.4136    
      2900   319.74069     -44669.795      7155.5658     -5153.5828      3914.4136    
      3000   296.24998     -44680.153      11505.653     -982.4167       3914.4136    
Loop time of 168.6 on 8 procs for 3000 steps with 386 atoms

Performance: 0.769 ns/day, 31.222 hours/ns, 17.794 timesteps/s, 6.868 katom-step/s
99.0% CPU use with 8 MPI tasks x 1 OpenMP threads

MPI task timing breakdown:
Section |  min time  |  avg time  |  max time  |%varavg| %total
---------------------------------------------------------------
Pair    | 94.359     | 128.87     | 142.69     | 173.0 | 76.44
Bond    | 0.0077561  | 0.0082854  | 0.0088985  |   0.4 |  0.00
Neigh   | 8.0875     | 10.538     | 11.481     |  43.5 |  6.25
Comm    | 1.618      | 15.449     | 49.971     | 500.0 |  9.16
Output  | 0.0068632  | 0.0086579  | 0.0099823  |   1.1 |  0.01
Modify  | 12.711     | 13.649     | 16.097     |  38.2 |  8.10
Other   |            | 0.07547    |            |       |  0.04

Nlocal:          48.25 ave          59 max          40 min
Histogram: 2 0 1 1 1 1 0 0 1 1
Nghost:        3724.62 ave        3764 max        3675 min
Histogram: 1 0 1 1 1 0 0 1 2 1
Neighs:        33287.8 ave       40238 max       27869 min
Histogram: 2 0 1 1 1 1 0 0 0 2

Total # of neighbors = 266302
Ave neighs/atom = 689.90155
Ave special neighs/atom = 0
Neighbor list builds = 300
Dangerous builds not checked
undump dump_pos${dir}
undump dump_pos1

# Run equilibration
print "*****Equilibration pos${dir} starts.*****"
*****Equilibration pos1 starts.*****
include ff.mod.lmp
# Setup forcefield, system
# undefine any fix ave/* fix before using reset_timestep
if "$(is_defined(fix,avgp))" then "unfix avgp"
unfix avgp
reset_timestep 0

# Assign the force field
pair_style reaxff NULL safezone 3.0 mincap 150
# pair_coeff * * CHONSSi.ff O Si
# pair_coeff * * CHOSiNa.ff O Si
# pair_coeff * * SiOCHN_2018.ff O Si
# pair_coeff * * PDMSDecomp.ff Si O
pair_coeff * * CHONSi.ff C H O Si
# pair_coeff * * CHOFe.ff O Si

# charge method for reaxff
fix myqeq all qeq/reaxff 1 0.0 10.0 1.0e-6 reaxff maxiter 400
# Setup neighbor style
neighbor        2 bin
neigh_modify    every 10 delay 0 check no

# Setup output
fix avgp all ave/time  ${nevery} ${nrepeat} ${nfreq} c_thermo_press mode vector
fix avgp all ave/time  10 ${nrepeat} ${nfreq} c_thermo_press mode vector
fix avgp all ave/time  10 10 ${nfreq} c_thermo_press mode vector
fix avgp all ave/time  10 10 100 c_thermo_press mode vector
thermo		${nthermo}
thermo		100
thermo_style custom step temp pe press f_avgp[1] vol
WARNING: New thermo_style command, previous thermo_modify settings will be lost (src/output.cpp:903)
thermo_modify norm no

# NVT
fix 4 all nvt temp ${temp} ${temp} ${tdamp}
fix 4 all nvt temp 300 ${temp} ${tdamp}
fix 4 all nvt temp 300 300 ${tdamp}
fix 4 all nvt temp 300 300 50
run ${nequil}
run 3000
Neighbor list info ...
  update: every = 10 steps, delay = 0 steps, check = no
  max neighbors/atom: 2000, page size: 100000
  master list distance cutoff = 12
  ghost atom cutoff = 12
  binsize = 6, bins = 5 3 3
  2 neighbor lists, perpetual/occasional/extra = 2 0 0
  (1) pair reaxff, perpetual
      attributes: half, newton off, ghost
      pair build: half/bin/newtoff/ghost
      stencil: full/ghost/bin/3d
      bin: standard
  (2) fix qeq/reaxff, perpetual, copy from (1)
      attributes: half, newton off
      pair build: copy
      stencil: none
      bin: none
Per MPI rank memory allocation (min/avg/max) = 141.4 | 143.7 | 146.3 Mbytes
   Step          Temp          PotEng         Press        f_avgp[1]        Volume    
         0   296.24998     -44680.153      11505.625      0              3914.4136    
       100   309.32537     -44703.259     -8700.3934     -2559.8306      3914.4136    
       200   297.08023     -44716.431     -10746.621     -11020.035      3914.4136    
       300   280.90529     -44715.993      2614.1718     -5447.0899      3914.4136    
       400   298.38731     -44703.337      2060.2094     -2413.6406      3914.4136    
       500   300.4532      -44680.553      350.3105       124.46473      3914.4136    
       600   293.78625     -44668.507      6274.9307     -3468.9843      3914.4136    
       700   302.89423     -44682.899      1083.9871     -87.772791      3914.4136    
       800   290.08215     -44690.417      7314.1653     -4103.8666      3914.4136    
       900   301.57942     -44722.648     -2929.5437     -6190.7797      3914.4136    
      1000   281.90261     -44710.974     -3473.4117     -6551.9026      3914.4136    
      1100   274.15229     -44691.003      5254.7648     -4065.6882      3914.4136    
      1200   297.88259     -44684.009     -13780.454     -6037.2252      3914.4136    
      1300   313.89648     -44686.174      5929.9621      1579.2431      3914.4136    
      1400   290.50007     -44662.597      4765.73       -3870.6204      3914.4136    
      1500   313.42172     -44710.859      4884.9624     -6375.4477      3914.4136    
      1600   302.76992     -44729.983     -832.04554     -6099.3099      3914.4136    
      1700   283.55529     -44708.075      618.73276     -8201.0525      3914.4136    
      1800   275.6885      -44684.406      10263.666     -7014.2035      3914.4136    
      1900   289.43931     -44682.547      3814.7502     -9824.7445      3914.4136    
      2000   293.9593      -44681.84      -2975.1479     -567.86548      3914.4136    
      2100   311.79663     -44698.602      8415.7356     -1338.6307      3914.4136    
      2200   297.25649     -44683.254     -5614.6537     -2802.9251      3914.4136    
      2300   293.53429     -44705.577     -279.42941      1816.8643      3914.4136    
      2400   273.33451     -44700.48       10412.653      415.57323      3914.4136    
      2500   297.02145     -44710.774      11397.935     -1786.0257      3914.4136    
      2600   312.02449     -44698.804      3484.6352     -4304.1572      3914.4136    
      2700   303.91938     -44682.56       8534.2406     -3240.696       3914.4136    
      2800   289.82028     -44676.009      7776.038       473.87687      3914.4136    
      2900   285.33528     -44680.033      3879.0651     -1956.9186      3914.4136    
      3000   290.8183      -44686.84       5835.9991     -4236.6349      3914.4136    
Loop time of 168.278 on 8 procs for 3000 steps with 386 atoms

Performance: 0.770 ns/day, 31.163 hours/ns, 17.828 timesteps/s, 6.881 katom-step/s
99.1% CPU use with 8 MPI tasks x 1 OpenMP threads

MPI task timing breakdown:
Section |  min time  |  avg time  |  max time  |%varavg| %total
---------------------------------------------------------------
Pair    | 95.984     | 127.5      | 142.07     | 164.1 | 75.77
Bond    | 0.0077401  | 0.0081711  | 0.0089026  |   0.5 |  0.00
Neigh   | 8.0849     | 10.417     | 11.481     |  42.5 |  6.19
Comm    | 1.8769     | 16.452     | 47.978     | 456.9 |  9.78
Output  | 0.0011948  | 0.0013548  | 0.0020741  |   0.7 |  0.00
Modify  | 12.751     | 13.821     | 16.151     |  36.9 |  8.21
Other   |            | 0.0751     |            |       |  0.04

Nlocal:          48.25 ave          58 max          43 min
Histogram: 3 0 1 1 1 0 1 0 0 1
Nghost:        3722.62 ave        3762 max        3675 min
Histogram: 2 0 0 1 0 1 1 1 0 2
Neighs:        33268.2 ave       39661 max       29857 min
Histogram: 3 0 1 1 1 0 1 0 0 1

Total # of neighbors = 266146
Ave neighs/atom = 689.49741
Ave special neighs/atom = 0
Neighbor list builds = 300
Dangerous builds not checked

# Obtain new stress tensor, convert index from LAMMPS to Voigt
variable pxx1 equal f_avgp[1]
variable pyy1 equal f_avgp[2]
variable pzz1 equal f_avgp[3]
variable pxy1 equal f_avgp[4]
variable pxz1 equal f_avgp[5]
variable pyz1 equal f_avgp[6]

# Compute elastic constant from pressure tensor
# d1 = -[pxx1-pxx0]/[(]v_delta/v_len0] defined in input script
variable C1pos equal ${d1}
variable C1pos equal 41.3760535785134
variable C2pos equal ${d2}
variable C2pos equal 72.9944370367113
variable C3pos equal ${d3}
variable C3pos equal 44.6508067595981
variable C4pos equal ${d4}
variable C4pos equal -12.2500006006067
variable C5pos equal ${d5}
variable C5pos equal -18.7759679941399
variable C6pos equal ${d6}
variable C6pos equal -26.944179884086

# Combine positive and negative
variable C1${dir} equal 0.5*(${C1neg}+${C1pos})
variable C11 equal 0.5*(${C1neg}+${C1pos})
variable C11 equal 0.5*(-23.8599833932707+${C1pos})
variable C11 equal 0.5*(-23.8599833932707+41.3760535785134)
variable C2${dir} equal 0.5*(${C2neg}+${C2pos})
variable C21 equal 0.5*(${C2neg}+${C2pos})
variable C21 equal 0.5*(-21.8520224180934+${C2pos})
variable C21 equal 0.5*(-21.8520224180934+72.9944370367113)
variable C3${dir} equal 0.5*(${C3neg}+${C3pos})
variable C31 equal 0.5*(${C3neg}+${C3pos})
variable C31 equal 0.5*(-29.2892816719752+${C3pos})
variable C31 equal 0.5*(-29.2892816719752+44.6508067595981)
variable C4${dir} equal 0.5*(${C4neg}+${C4pos})
variable C41 equal 0.5*(${C4neg}+${C4pos})
variable C41 equal 0.5*(20.8881671960555+${C4pos})
variable C41 equal 0.5*(20.8881671960555+-12.2500006006067)
variable C5${dir} equal 0.5*(${C5neg}+${C5pos})
variable C51 equal 0.5*(${C5neg}+${C5pos})
variable C51 equal 0.5*(1.72909566705885+${C5pos})
variable C51 equal 0.5*(1.72909566705885+-18.7759679941399)
variable C6${dir} equal 0.5*(${C6neg}+${C6pos})
variable C61 equal 0.5*(${C6neg}+${C6pos})
variable C61 equal 0.5*(34.5001827770385+${C6pos})
variable C61 equal 0.5*(34.5001827770385+-26.944179884086)

# Delete dir to make sure it is not reused
variable dir delete
# uyy Perturbation
variable dir equal 2
include displace.mod.lmp
# Find which reference length to use
if "${dir} == 1" then    "variable len0 equal ${lx0}"
if "${dir} == 2" then    "variable len0 equal ${ly0}"
variable len0 equal ${ly0}
variable len0 equal 13.4502
if "${dir} == 3" then    "variable len0 equal ${lz0}"
if "${dir} == 4" then    "variable len0 equal ${lz0}"
if "${dir} == 5" then    "variable len0 equal ${lz0}"
if "${dir} == 6" then    "variable len0 equal ${ly0}"

# Reset box and simulation parameters
clear
OMP_NUM_THREADS environment is not set. Defaulting to 1 thread. (src/comm.cpp:98)
  using 1 OpenMP thread(s) per MPI task
# box tilt large
read_restart equil.res
Reading restart file ...
  restart file = 2 Aug 2023, LAMMPS = 2 Aug 2023
  restoring atom style full from restart
  triclinic box = (0 0 0) to (16.6078 13.4502 17.3502) with tilt (-9.4505 -1.0717 0.0034)
WARNING: Triclinic box skew is large. LAMMPS will run inefficiently. (src/domain.cpp:220)
  2 by 2 by 2 MPI processor grid
  pair style reaxff stores no restart info
  386 atoms
Finding 1-2 1-3 1-4 neighbors ...
  special bond factors lj:    0        0        0       
  special bond factors coul:  0        0        0       
     0 = max # of 1-2 neighbors
     0 = max # of 1-3 neighbors
     0 = max # of 1-4 neighbors
     1 = max # of special neighbors
  special bonds CPU = 0.000 seconds
  read_restart CPU = 0.003 seconds
print "*****Negative-change ${dir} starts.*****"
*****Negative-change 2 starts.*****
include ff.mod.lmp
# Setup forcefield, system
# undefine any fix ave/* fix before using reset_timestep
if "$(is_defined(fix,avgp))" then "unfix avgp"
reset_timestep 0

# Assign the force field
pair_style reaxff NULL safezone 3.0 mincap 150
# pair_coeff * * CHONSSi.ff O Si
# pair_coeff * * CHOSiNa.ff O Si
# pair_coeff * * SiOCHN_2018.ff O Si
# pair_coeff * * PDMSDecomp.ff Si O
pair_coeff * * CHONSi.ff C H O Si
# pair_coeff * * CHOFe.ff O Si

# charge method for reaxff
fix myqeq all qeq/reaxff 1 0.0 10.0 1.0e-6 reaxff maxiter 400
# Setup neighbor style
neighbor        2 bin
neigh_modify    every 10 delay 0 check no

# Setup output
fix avgp all ave/time  ${nevery} ${nrepeat} ${nfreq} c_thermo_press mode vector
fix avgp all ave/time  10 ${nrepeat} ${nfreq} c_thermo_press mode vector
fix avgp all ave/time  10 10 ${nfreq} c_thermo_press mode vector
fix avgp all ave/time  10 10 100 c_thermo_press mode vector
thermo		${nthermo}
thermo		100
thermo_style custom step temp pe press f_avgp[1] vol
thermo_modify norm no

# NVT
fix 4 all nvt temp ${temp} ${temp} ${tdamp}
fix 4 all nvt temp 300 ${temp} ${tdamp}
fix 4 all nvt temp 300 300 ${tdamp}
fix 4 all nvt temp 300 300 50
Resetting global fix info from restart file:
  fix style: nvt, fix ID: 4

# Negative deformation
variable delta equal -${up}*${len0}
variable delta equal -0.01*${len0}
variable delta equal -0.01*13.4502
variable deltaxy equal -${up}*xy
variable deltaxy equal -0.01*xy
variable deltaxz equal -${up}*xz
variable deltaxz equal -0.01*xz
variable deltayz equal -${up}*yz
variable deltayz equal -0.01*yz
if "${dir} == 1" then    "change_box all x delta 0 ${delta} xy delta ${deltaxy} xz delta ${deltaxz} remap units box"
if "${dir} == 2" then    "change_box all y delta 0 ${delta} yz delta ${deltayz} remap units box"
change_box all y delta 0 ${delta} yz delta ${deltayz} remap units box
change_box all y delta 0 -0.134502 yz delta ${deltayz} remap units box
change_box all y delta 0 -0.134502 yz delta -3.4e-05 remap units box
Changing box ...
WARNING: Triclinic box skew is large. LAMMPS will run inefficiently. (src/domain.cpp:220)
  triclinic box = (0 0 0) to (16.6078 13.315698 17.3502) with tilt (-9.4505 -1.0717 0.0034)
WARNING: Triclinic box skew is large. LAMMPS will run inefficiently. (src/domain.cpp:220)
  triclinic box = (0 0 0) to (16.6078 13.315698 17.3502) with tilt (-9.4505 -1.0717 0.003366)
if "${dir} == 3" then    "change_box all z delta 0 ${delta} remap units box"
if "${dir} == 4" then    "change_box all yz delta ${delta} remap units box"
if "${dir} == 5" then    "change_box all xz delta ${delta} remap units box"
if "${dir} == 6" then    "change_box all xy delta ${delta} remap units box"

# Run MD for Negative deformation
# save trajectory
dump dump_neg${dir} all custom ${nthermo} dump/neg_deform${dir}.lammpstrj id type x y z
dump dump_neg2 all custom ${nthermo} dump/neg_deform${dir}.lammpstrj id type x y z
dump dump_neg2 all custom 100 dump/neg_deform${dir}.lammpstrj id type x y z
dump dump_neg2 all custom 100 dump/neg_deform2.lammpstrj id type x y z
run ${nrun}
run 3000
All restart file global fix info was re-assigned
Neighbor list info ...
  update: every = 10 steps, delay = 0 steps, check = no
  max neighbors/atom: 2000, page size: 100000
  master list distance cutoff = 12
  ghost atom cutoff = 12
  binsize = 6, bins = 5 3 3
  2 neighbor lists, perpetual/occasional/extra = 2 0 0
  (1) pair reaxff, perpetual
      attributes: half, newton off, ghost
      pair build: half/bin/newtoff/ghost
      stencil: full/ghost/bin/3d
      bin: standard
  (2) fix qeq/reaxff, perpetual, copy from (1)
      attributes: half, newton off
      pair build: copy
      stencil: none
      bin: none
Per MPI rank memory allocation (min/avg/max) = 143.6 | 145.4 | 147.5 Mbytes
   Step          Temp          PotEng         Press        f_avgp[1]        Volume    
         0   340.84522     -44679.429      41627.736      0              3836.9004    
       100   310.9884      -44659.636      3888.2867     -1254.4928      3836.9004    
       200   302.07663     -44690.807      6913.0714     -1965.8664      3836.9004    
       300   285.14992     -44694.942     -5146.7159     -2203.5869      3836.9004    
       400   295.96166     -44698.23       3613.7178     -2855.881       3836.9004    
       500   313.66631     -44688.623      3051.7743     -2413.0289      3836.9004    
       600   320.79857     -44671.442      9447.5378     -1415.671       3836.9004    
       700   312.67541     -44660.316      13081.582      5913.0564      3836.9004    
       800   298.51287     -44672.242      12409.712      3054.8339      3836.9004    
       900   293.39328     -44692.231      16876.889      37.447673      3836.9004    
      1000   294.13518     -44695.996      10621.531     -1543.9979      3836.9004    
      1100   301.08376     -44688.7        11338.632     -2355.1844      3836.9004    
      1200   306.02822     -44677.933      10255.377      725.7549       3836.9004    
      1300   317.01976     -44694.4        13362.758     -398.18727      3836.9004    
      1400   297.12768     -44702.509      9056.5725      3042.0535      3836.9004    
      1500   295.96651     -44721.032      6871.3851      3565.3152      3836.9004    
      1600   294.21192     -44710.466      4603.5294      321.83927      3836.9004    
      1700   303.07221     -44702.044      10888.046      681.66571      3836.9004    
      1800   308.48228     -44694.997      21326.162     -1228.5755      3836.9004    
      1900   307.85326     -44689.516      12420.784     -1246.1067      3836.9004    
      2000   284.9216      -44661.451      9730.7123      5264.7554      3836.9004    
      2100   291.88868     -44671.801      5949.8675     -2641.1896      3836.9004    
      2200   287.05175     -44690.905     -3059.0237      1462.5852      3836.9004    
      2300   305.90625     -44733.884     -2876.1594     -2974.1736      3836.9004    
      2400   282.14719     -44713.344      9840.0393     -3026.9704      3836.9004    
      2500   294.09702     -44703.852      6590.6466      2984.1588      3836.9004    
      2600   309.25655     -44691.64       7325.2287      4439.0169      3836.9004    
      2700   317.3242      -44712.575     -1059.574      -483.51161      3836.9004    
      2800   308.74066     -44717.489      2059.4386      1322.2086      3836.9004    
      2900   294.56697     -44707.8        8881.8068     -4483.637       3836.9004    
      3000   300.32333     -44716.461     -1581.8093     -1625.8526      3836.9004    
Loop time of 172.297 on 8 procs for 3000 steps with 386 atoms

Performance: 0.752 ns/day, 31.907 hours/ns, 17.412 timesteps/s, 6.721 katom-step/s
99.1% CPU use with 8 MPI tasks x 1 OpenMP threads

MPI task timing breakdown:
Section |  min time  |  avg time  |  max time  |%varavg| %total
---------------------------------------------------------------
Pair    | 99.085     | 127.46     | 145.85     | 183.2 | 73.98
Bond    | 0.0075515  | 0.0080967  | 0.0086746  |   0.5 |  0.00
Neigh   | 8.2805     | 10.358     | 11.797     |  49.2 |  6.01
Comm    | 1.6792     | 20.075     | 48.452     | 461.5 | 11.65
Output  | 0.0066571  | 0.0081461  | 0.009204   |   1.0 |  0.00
Modify  | 12.874     | 14.314     | 16.405     |  42.1 |  8.31
Other   |            | 0.07462    |            |       |  0.04

Nlocal:          48.25 ave          63 max          41 min
Histogram: 2 2 1 1 0 0 1 0 0 1
Nghost:        3776.38 ave        3813 max        3749 min
Histogram: 1 1 2 0 0 2 1 0 0 1
Neighs:        33959.4 ave       43811 max       28937 min
Histogram: 2 2 1 1 0 0 1 0 0 1

Total # of neighbors = 271675
Ave neighs/atom = 703.82124
Ave special neighs/atom = 0
Neighbor list builds = 300
Dangerous builds not checked
undump dump_neg${dir}
undump dump_neg2

# Run equilibration
print "*****Equilibration neg${dir} starts.*****"
*****Equilibration neg2 starts.*****
include ff.mod.lmp
# Setup forcefield, system
# undefine any fix ave/* fix before using reset_timestep
if "$(is_defined(fix,avgp))" then "unfix avgp"
unfix avgp
reset_timestep 0

# Assign the force field
pair_style reaxff NULL safezone 3.0 mincap 150
# pair_coeff * * CHONSSi.ff O Si
# pair_coeff * * CHOSiNa.ff O Si
# pair_coeff * * SiOCHN_2018.ff O Si
# pair_coeff * * PDMSDecomp.ff Si O
pair_coeff * * CHONSi.ff C H O Si
# pair_coeff * * CHOFe.ff O Si

# charge method for reaxff
fix myqeq all qeq/reaxff 1 0.0 10.0 1.0e-6 reaxff maxiter 400
# Setup neighbor style
neighbor        2 bin
neigh_modify    every 10 delay 0 check no

# Setup output
fix avgp all ave/time  ${nevery} ${nrepeat} ${nfreq} c_thermo_press mode vector
fix avgp all ave/time  10 ${nrepeat} ${nfreq} c_thermo_press mode vector
fix avgp all ave/time  10 10 ${nfreq} c_thermo_press mode vector
fix avgp all ave/time  10 10 100 c_thermo_press mode vector
thermo		${nthermo}
thermo		100
thermo_style custom step temp pe press f_avgp[1] vol
WARNING: New thermo_style command, previous thermo_modify settings will be lost (src/output.cpp:903)
thermo_modify norm no

# NVT
fix 4 all nvt temp ${temp} ${temp} ${tdamp}
fix 4 all nvt temp 300 ${temp} ${tdamp}
fix 4 all nvt temp 300 300 ${tdamp}
fix 4 all nvt temp 300 300 50
run ${nequil}
run 3000
Neighbor list info ...
  update: every = 10 steps, delay = 0 steps, check = no
  max neighbors/atom: 2000, page size: 100000
  master list distance cutoff = 12
  ghost atom cutoff = 12
  binsize = 6, bins = 5 3 3
  2 neighbor lists, perpetual/occasional/extra = 2 0 0
  (1) pair reaxff, perpetual
      attributes: half, newton off, ghost
      pair build: half/bin/newtoff/ghost
      stencil: full/ghost/bin/3d
      bin: standard
  (2) fix qeq/reaxff, perpetual, copy from (1)
      attributes: half, newton off
      pair build: copy
      stencil: none
      bin: none
Per MPI rank memory allocation (min/avg/max) = 143.7 | 145.4 | 147.5 Mbytes
   Step          Temp          PotEng         Press        f_avgp[1]        Volume    
         0   300.32333     -44716.461     -1581.7777      0              3836.9004    
       100   310.31321     -44722.938     -2635.0921      233.45522      3836.9004    
       200   287.87409     -44697.737      7016.1503      2180.9838      3836.9004    
       300   299.85747     -44733.1        5010.9081     -5605.3658      3836.9004    
       400   283.56876     -44726.75       2678.3909     -1764.39        3836.9004    
       500   275.64898     -44702.889      6645.1978      139.88663      3836.9004    
       600   300.68041     -44697.417      5660.2033      1721.5663      3836.9004    
       700   325.90244     -44724.232      6682.7201      3177.5577      3836.9004    
       800   287.22563     -44696.902      12254.519      613.58739      3836.9004    
       900   302.78964     -44734.772      5264.875      -2090.0935      3836.9004    
      1000   294.42424     -44747.823      3280.8774     -1302.4722      3836.9004    
      1100   283.14297     -44741.341      3750.8131     -780.07529      3836.9004    
      1200   295.85036     -44719.727      8804.4503     -684.9771       3836.9004    
      1300   311.61502     -44713.358     -5739.1848     -314.48649      3836.9004    
      1400   326.49431     -44722.831      1249.4973      2750.633       3836.9004    
      1500   296.97366     -44708.313      6610.3566     -915.84085      3836.9004    
      1600   292.73126     -44730.924      13969.501      1508.5187      3836.9004    
      1700   290.47825     -44726.524      7321.1347     -1839.4551      3836.9004    
      1800   298.61805     -44717.605      8403.3916     -1967.9628      3836.9004    
      1900   284.76115     -44688.96       13005.436      755.08763      3836.9004    
      2000   289.47924     -44684.238      7727.4734      491.09721      3836.9004    
      2100   282.50075     -44675.686      2331.2616      4486.0787      3836.9004    
      2200   292.83754     -44685.796      2051.0694      3694.7891      3836.9004    
      2300   306.70087     -44694.777      11181.818      5360.1326      3836.9004    
      2400   307.58416     -44695.742      7451.9         6569.3666      3836.9004    
      2500   301.37374     -44708.247     -1592.535       1422.9355      3836.9004    
      2600   289.01891     -44715.511      3581.0107      1309.9721      3836.9004    
      2700   299.11492     -44724.628      12468.901     -242.19046      3836.9004    
      2800   328.5856      -44723.253      2496.1672      3391.9076      3836.9004    
      2900   307.94904     -44686.777      2452.8045      4871.0856      3836.9004    
      3000   283.33108     -44673.771      8225.49        3566.8438      3836.9004    
Loop time of 171.719 on 8 procs for 3000 steps with 386 atoms

Performance: 0.755 ns/day, 31.800 hours/ns, 17.470 timesteps/s, 6.744 katom-step/s
99.1% CPU use with 8 MPI tasks x 1 OpenMP threads

MPI task timing breakdown:
Section |  min time  |  avg time  |  max time  |%varavg| %total
---------------------------------------------------------------
Pair    | 99.647     | 127.37     | 144.84     | 182.6 | 74.18
Bond    | 0.0075594  | 0.0081944  | 0.0087673  |   0.4 |  0.00
Neigh   | 8.2616     | 10.381     | 11.703     |  47.0 |  6.05
Comm    | 2.2193     | 19.689     | 47.411     | 464.2 | 11.47
Output  | 0.0012699  | 0.0013994  | 0.0020433  |   0.7 |  0.00
Modify  | 12.85      | 14.191     | 16.327     |  40.5 |  8.26
Other   |            | 0.07523    |            |       |  0.04

Nlocal:          48.25 ave          59 max          42 min
Histogram: 2 0 3 0 1 0 0 1 0 1
Nghost:        3785.88 ave        3811 max        3760 min
Histogram: 2 0 0 1 1 0 2 0 1 1
Neighs:        33976.1 ave       41197 max       29667 min
Histogram: 2 0 3 0 1 0 0 1 0 1

Total # of neighbors = 271809
Ave neighs/atom = 704.16839
Ave special neighs/atom = 0
Neighbor list builds = 300
Dangerous builds not checked

# Obtain new stress tensor Negative deformation, convert index from LAMMPS to Voigt
variable pxx1 equal f_avgp[1]
variable pyy1 equal f_avgp[2]
variable pzz1 equal f_avgp[3]
variable pxy1 equal f_avgp[4]
variable pxz1 equal f_avgp[5]
variable pyz1 equal f_avgp[6]

# Compute elastic constant from pressure
# d1 = -[pxx1-pxx0]/[(]v_delta/v_len0] defined in input script
variable C1neg equal ${d1}
variable C1neg equal 37.6926937152972
variable C2neg equal ${d2}
variable C2neg equal 56.372523028633
variable C3neg equal ${d3}
variable C3neg equal 38.4637190492845
variable C4neg equal ${d4}
variable C4neg equal 14.3744928111676
variable C5neg equal ${d5}
variable C5neg equal 13.8995668940653
variable C6neg equal ${d6}
variable C6neg equal 29.8758007156328

# Reset box and simulation parameters
clear
OMP_NUM_THREADS environment is not set. Defaulting to 1 thread. (src/comm.cpp:98)
  using 1 OpenMP thread(s) per MPI task
# box tilt large
read_restart equil.res
Reading restart file ...
  restart file = 2 Aug 2023, LAMMPS = 2 Aug 2023
  restoring atom style full from restart
  triclinic box = (0 0 0) to (16.6078 13.4502 17.3502) with tilt (-9.4505 -1.0717 0.0034)
WARNING: Triclinic box skew is large. LAMMPS will run inefficiently. (src/domain.cpp:220)
  2 by 2 by 2 MPI processor grid
  pair style reaxff stores no restart info
  386 atoms
Finding 1-2 1-3 1-4 neighbors ...
  special bond factors lj:    0        0        0       
  special bond factors coul:  0        0        0       
     0 = max # of 1-2 neighbors
     0 = max # of 1-3 neighbors
     0 = max # of 1-4 neighbors
     1 = max # of special neighbors
  special bonds CPU = 0.000 seconds
  read_restart CPU = 0.002 seconds
print "*****Positive-change ${dir} starts.*****"
*****Positive-change 2 starts.*****
include ff.mod.lmp
# Setup forcefield, system
# undefine any fix ave/* fix before using reset_timestep
if "$(is_defined(fix,avgp))" then "unfix avgp"
reset_timestep 0

# Assign the force field
pair_style reaxff NULL safezone 3.0 mincap 150
# pair_coeff * * CHONSSi.ff O Si
# pair_coeff * * CHOSiNa.ff O Si
# pair_coeff * * SiOCHN_2018.ff O Si
# pair_coeff * * PDMSDecomp.ff Si O
pair_coeff * * CHONSi.ff C H O Si
# pair_coeff * * CHOFe.ff O Si

# charge method for reaxff
fix myqeq all qeq/reaxff 1 0.0 10.0 1.0e-6 reaxff maxiter 400
# Setup neighbor style
neighbor        2 bin
neigh_modify    every 10 delay 0 check no

# Setup output
fix avgp all ave/time  ${nevery} ${nrepeat} ${nfreq} c_thermo_press mode vector
fix avgp all ave/time  10 ${nrepeat} ${nfreq} c_thermo_press mode vector
fix avgp all ave/time  10 10 ${nfreq} c_thermo_press mode vector
fix avgp all ave/time  10 10 100 c_thermo_press mode vector
thermo		${nthermo}
thermo		100
thermo_style custom step temp pe press f_avgp[1] vol
thermo_modify norm no

# NVT
fix 4 all nvt temp ${temp} ${temp} ${tdamp}
fix 4 all nvt temp 300 ${temp} ${tdamp}
fix 4 all nvt temp 300 300 ${tdamp}
fix 4 all nvt temp 300 300 50
Resetting global fix info from restart file:
  fix style: nvt, fix ID: 4

# Positive deformation
variable delta equal ${up}*${len0}
variable delta equal 0.01*${len0}
variable delta equal 0.01*13.4502
variable deltaxy equal ${up}*xy
variable deltaxy equal 0.01*xy
variable deltaxz equal ${up}*xz
variable deltaxz equal 0.01*xz
variable deltayz equal ${up}*yz
variable deltayz equal 0.01*yz
if "${dir} == 1" then    "change_box all x delta 0 ${delta} xy delta ${deltaxy} xz delta ${deltaxz} remap units box"
if "${dir} == 2" then    "change_box all y delta 0 ${delta} yz delta ${deltayz} remap units box"
change_box all y delta 0 ${delta} yz delta ${deltayz} remap units box
change_box all y delta 0 0.134502 yz delta ${deltayz} remap units box
change_box all y delta 0 0.134502 yz delta 3.4e-05 remap units box
Changing box ...
WARNING: Triclinic box skew is large. LAMMPS will run inefficiently. (src/domain.cpp:220)
  triclinic box = (0 0 0) to (16.6078 13.584702 17.3502) with tilt (-9.4505 -1.0717 0.0034)
WARNING: Triclinic box skew is large. LAMMPS will run inefficiently. (src/domain.cpp:220)
  triclinic box = (0 0 0) to (16.6078 13.584702 17.3502) with tilt (-9.4505 -1.0717 0.003434)
if "${dir} == 3" then    "change_box all z delta 0 ${delta} remap units box"
if "${dir} == 4" then    "change_box all yz delta ${delta} remap units box"
if "${dir} == 5" then    "change_box all xz delta ${delta} remap units box"
if "${dir} == 6" then    "change_box all xy delta ${delta} remap units box"

# Run positive deformation MD
# save trajectory
dump dump_pos${dir} all custom ${nthermo} dump/pos_deform${dir}.lammpstrj id type x y z
dump dump_pos2 all custom ${nthermo} dump/pos_deform${dir}.lammpstrj id type x y z
dump dump_pos2 all custom 100 dump/pos_deform${dir}.lammpstrj id type x y z
dump dump_pos2 all custom 100 dump/pos_deform2.lammpstrj id type x y z
run ${nrun}
run 3000
All restart file global fix info was re-assigned
Neighbor list info ...
  update: every = 10 steps, delay = 0 steps, check = no
  max neighbors/atom: 2000, page size: 100000
  master list distance cutoff = 12
  ghost atom cutoff = 12
  binsize = 6, bins = 5 3 3
  2 neighbor lists, perpetual/occasional/extra = 2 0 0
  (1) pair reaxff, perpetual
      attributes: half, newton off, ghost
      pair build: half/bin/newtoff/ghost
      stencil: full/ghost/bin/3d
      bin: standard
  (2) fix qeq/reaxff, perpetual, copy from (1)
      attributes: half, newton off
      pair build: copy
      stencil: none
      bin: none
Per MPI rank memory allocation (min/avg/max) = 140.5 | 143.1 | 145.9 Mbytes
   Step          Temp          PotEng         Press        f_avgp[1]        Volume    
         0   340.84522     -44679.313     -33446.385      0              3914.4136    
       100   307.84207     -44652.798     -4407.9134     -7023.5114      3914.4136    
       200   295.83365     -44670.396      2350.7097     -3377.8678      3914.4136    
       300   276.77146     -44671.609     -2564.6615     -3474.8667      3914.4136    
       400   293.49414     -44684.334      3694.383      -5842.6257      3914.4136    
       500   313.97926     -44686.17       3214.0513     -4121.0561      3914.4136    
       600   308.96838     -44669.695      3881.6943     -4935.9266      3914.4136    
       700   309.78458     -44688.237      7146.6074     -26.810452      3914.4136    
       800   292.8341      -44695.428      1184.7433     -7323.5981      3914.4136    
       900   286.38977     -44697.195     -8992.6324     -4127.7512      3914.4136    
      1000   303.82881     -44698.505     -3332.4556     -2341.0525      3914.4136    
      1100   312.0986      -44686.59       7826.705      -5027.0939      3914.4136    
      1200   302.73066     -44669.388     -15725.288     -6067.0473      3914.4136    
      1300   295.65332     -44681.031     -1867.3069      573.10813      3914.4136    
      1400   275.91207     -44685.617      7158.0864     -2157.4732      3914.4136    
      1500   279.21102     -44681.024      5377.5674     -3354.8756      3914.4136    
      1600   306.89165     -44696.901      2941.3795      1247.387       3914.4136    
      1700   291.42932     -44681.657      4524.5969      461.42177      3914.4136    
      1800   300.82369     -44704.445     -3443.9712     -7239.859       3914.4136    
      1900   297.33833     -44715.337     -6207.8264     -483.9248       3914.4136    
      2000   287.84038     -44730.361      2756.4053     -3098.5869      3914.4136    
      2100   260.95793     -44735.375     -3755.183      -13115.272      3914.4136    
      2200   276.14517     -44734.395     -4441.7773     -5591.6964      3914.4136    
      2300   293.12599     -44724.958     -1609.776      -4774.6362      3914.4136    
      2400   291.73048     -44704.946     -2157.6757     -10062.474      3914.4136    
      2500   298.25819     -44697.623      2192.2993     -6391.4927      3914.4136    
      2600   312.84632     -44711.551      2313.6933     -1632.4844      3914.4136    
      2700   300.92673     -44736.451      8600.167       294.09313      3914.4136    
      2800   291.25224     -44740.965      11765.903     -730.88627      3914.4136    
      2900   299.97835     -44741.675      14003.105      1432.2848      3914.4136    
      3000   311.91313     -44737.634     -3665.6313     -6307.4294      3914.4136    
Loop time of 166.131 on 8 procs for 3000 steps with 386 atoms

Performance: 0.780 ns/day, 30.765 hours/ns, 18.058 timesteps/s, 6.970 katom-step/s
99.1% CPU use with 8 MPI tasks x 1 OpenMP threads

MPI task timing breakdown:
Section |  min time  |  avg time  |  max time  |%varavg| %total
---------------------------------------------------------------
Pair    | 95.612     | 122.95     | 140.74     | 177.1 | 74.01
Bond    | 0.007409   | 0.0080739  | 0.0089305  |   0.6 |  0.00
Neigh   | 8.0026     | 10.104     | 11.43      |  46.3 |  6.08
Comm    | 1.3617     | 19.158     | 46.505     | 448.7 | 11.53
Output  | 0.0067365  | 0.008088   | 0.0090656  |   0.9 |  0.00
Modify  | 12.488     | 13.826     | 15.929     |  39.8 |  8.32
Other   |            | 0.0733     |            |       |  0.04

Nlocal:          48.25 ave          59 max          44 min
Histogram: 5 0 0 0 1 0 1 0 0 1
Nghost:        3691.12 ave        3747 max        3621 min
Histogram: 1 0 0 2 0 1 1 1 1 1
Neighs:        33255.6 ave       40427 max       30509 min
Histogram: 5 0 0 1 0 0 1 0 0 1

Total # of neighbors = 266045
Ave neighs/atom = 689.23575
Ave special neighs/atom = 0
Neighbor list builds = 300
Dangerous builds not checked
undump dump_pos${dir}
undump dump_pos2

# Run equilibration
print "*****Equilibration pos${dir} starts.*****"
*****Equilibration pos2 starts.*****
include ff.mod.lmp
# Setup forcefield, system
# undefine any fix ave/* fix before using reset_timestep
if "$(is_defined(fix,avgp))" then "unfix avgp"
unfix avgp
reset_timestep 0

# Assign the force field
pair_style reaxff NULL safezone 3.0 mincap 150
# pair_coeff * * CHONSSi.ff O Si
# pair_coeff * * CHOSiNa.ff O Si
# pair_coeff * * SiOCHN_2018.ff O Si
# pair_coeff * * PDMSDecomp.ff Si O
pair_coeff * * CHONSi.ff C H O Si
# pair_coeff * * CHOFe.ff O Si

# charge method for reaxff
fix myqeq all qeq/reaxff 1 0.0 10.0 1.0e-6 reaxff maxiter 400
# Setup neighbor style
neighbor        2 bin
neigh_modify    every 10 delay 0 check no

# Setup output
fix avgp all ave/time  ${nevery} ${nrepeat} ${nfreq} c_thermo_press mode vector
fix avgp all ave/time  10 ${nrepeat} ${nfreq} c_thermo_press mode vector
fix avgp all ave/time  10 10 ${nfreq} c_thermo_press mode vector
fix avgp all ave/time  10 10 100 c_thermo_press mode vector
thermo		${nthermo}
thermo		100
thermo_style custom step temp pe press f_avgp[1] vol
WARNING: New thermo_style command, previous thermo_modify settings will be lost (src/output.cpp:903)
thermo_modify norm no

# NVT
fix 4 all nvt temp ${temp} ${temp} ${tdamp}
fix 4 all nvt temp 300 ${temp} ${tdamp}
fix 4 all nvt temp 300 300 ${tdamp}
fix 4 all nvt temp 300 300 50
run ${nequil}
run 3000
Neighbor list info ...
  update: every = 10 steps, delay = 0 steps, check = no
  max neighbors/atom: 2000, page size: 100000
  master list distance cutoff = 12
  ghost atom cutoff = 12
  binsize = 6, bins = 5 3 3
  2 neighbor lists, perpetual/occasional/extra = 2 0 0
  (1) pair reaxff, perpetual
      attributes: half, newton off, ghost
      pair build: half/bin/newtoff/ghost
      stencil: full/ghost/bin/3d
      bin: standard
  (2) fix qeq/reaxff, perpetual, copy from (1)
      attributes: half, newton off
      pair build: copy
      stencil: none
      bin: none
Per MPI rank memory allocation (min/avg/max) = 140.5 | 143.1 | 146 Mbytes
   Step          Temp          PotEng         Press        f_avgp[1]        Volume    
         0   311.91313     -44737.634     -3665.6435      0              3914.4136    
       100   296.93306     -44715.924     -1635.361      -807.64205      3914.4136    
       200   292.86687     -44694.311     -6875.5999     -7370.666       3914.4136    
       300   320.40852     -44705.789     -7873.3952     -10895.736      3914.4136    
       400   319.73789     -44735.522     -1089.5181     -4486.8069      3914.4136    
       500   282.94453     -44718.493      4825.055      -5494.0756      3914.4136    
       600   306.48028     -44743.959      3058.2316     -4054.6286      3914.4136    
       700   294.19758     -44724.139      10199.625     -6864.6471      3914.4136    
       800   311.25095     -44726.648      2431.0043     -4293.0808      3914.4136    
       900   339.78726     -44727.587      3493.2508      1078.1321      3914.4136    
      1000   290.45942     -44685.998     -1357.1961     -2246.4273      3914.4136    
      1100   301.44309     -44719.051     -1690.9554     -11233.105      3914.4136    
      1200   306.071       -44733.692      12564.04      -3787.4958      3914.4136    
      1300   288.71561     -44721.764      5106.1561     -1406.5295      3914.4136    
      1400   303.77354     -44718.45       456.22342     -5149.7935      3914.4136    
      1500   334.02869     -44724.8        7854.6193     -7479.6294      3914.4136    
      1600   307.03291     -44686.222      6031.4204     -6812.732       3914.4136    
      1700   278.16504     -44695.025      6236.5603     -41.57984       3914.4136    
      1800   281.33131     -44712.554     -3106.0385     -7450.1603      3914.4136    
      1900   295.45607     -44724.557      6006.5284     -2962.2399      3914.4136    
      2000   312.62276     -44714.247     -638.7085      -4517.6091      3914.4136    
      2100   319.90291     -44716.259      4645.1351     -7719.7976      3914.4136    
      2200   300.99339     -44713.733      5555.1187     -5822.5379      3914.4136    
      2300   296.81089     -44717.017     -1650.9678      1079.4804      3914.4136    
      2400   295.10934     -44713.644     -3806.5032     -2527.4875      3914.4136    
      2500   304.10489     -44725.572     -2734.3814      302.17225      3914.4136    
      2600   293.06548     -44745.368     -2247.8835     -3518.1023      3914.4136    
      2700   283.71214     -44749.151     -7507.0789     -4807.2038      3914.4136    
      2800   294.0185      -44733.705      4706.8123     -8635.7977      3914.4136    
      2900   288.32388     -44707.236     -5173.2253     -7905.3339      3914.4136    
      3000   305.18838     -44717.378      1516.7348      648.91784      3914.4136    
Loop time of 164.707 on 8 procs for 3000 steps with 386 atoms

Performance: 0.787 ns/day, 30.501 hours/ns, 18.214 timesteps/s, 7.031 katom-step/s
99.1% CPU use with 8 MPI tasks x 1 OpenMP threads

MPI task timing breakdown:
Section |  min time  |  avg time  |  max time  |%varavg| %total
---------------------------------------------------------------
Pair    | 95.114     | 122.16     | 139.03     | 176.6 | 74.17
Bond    | 0.007441   | 0.008124   | 0.0087085  |   0.5 |  0.00
Neigh   | 8.0482     | 10.065     | 11.353     |  47.9 |  6.11
Comm    | 1.7445     | 18.62      | 45.666     | 452.3 | 11.30
Output  | 0.001293   | 0.0014171  | 0.0019871  |   0.6 |  0.00
Modify  | 12.488     | 13.781     | 15.802     |  41.1 |  8.37
Other   |            | 0.0747     |            |       |  0.05

Nlocal:          48.25 ave          60 max          39 min
Histogram: 1 1 1 1 1 1 0 1 0 1
Nghost:           3705 ave        3741 max        3655 min
Histogram: 1 0 1 0 0 1 3 1 0 1
Neighs:          33254 ave       40982 max       26973 min
Histogram: 1 0 2 1 1 1 0 1 0 1

Total # of neighbors = 266032
Ave neighs/atom = 689.20207
Ave special neighs/atom = 0
Neighbor list builds = 300
Dangerous builds not checked

# Obtain new stress tensor, convert index from LAMMPS to Voigt
variable pxx1 equal f_avgp[1]
variable pyy1 equal f_avgp[2]
variable pzz1 equal f_avgp[3]
variable pxy1 equal f_avgp[4]
variable pxz1 equal f_avgp[5]
variable pyz1 equal f_avgp[6]

# Compute elastic constant from pressure tensor
# d1 = -[pxx1-pxx0]/[(]v_delta/v_len0] defined in input script
variable C1pos equal ${d1}
variable C1pos equal -8.12680904017977
variable C2pos equal ${d2}
variable C2pos equal 45.5372327541689
variable C3pos equal ${d3}
variable C3pos equal 50.2616801137431
variable C4pos equal ${d4}
variable C4pos equal -8.10543969190618
variable C5pos equal ${d5}
variable C5pos equal -1.57054048777327
variable C6pos equal ${d6}
variable C6pos equal -24.0508084409663

# Combine positive and negative
variable C1${dir} equal 0.5*(${C1neg}+${C1pos})
variable C12 equal 0.5*(${C1neg}+${C1pos})
variable C12 equal 0.5*(37.6926937152972+${C1pos})
variable C12 equal 0.5*(37.6926937152972+-8.12680904017977)
variable C2${dir} equal 0.5*(${C2neg}+${C2pos})
[...]

# Reset box and simulation parameters
clear
OMP_NUM_THREADS environment is not set. Defaulting to 1 thread. (src/comm.cpp:98)
  using 1 OpenMP thread(s) per MPI task
# box tilt large
read_restart equil.res
Reading restart file ...
  restart file = 2 Aug 2023, LAMMPS = 2 Aug 2023
  restoring atom style full from restart
  triclinic box = (0 0 0) to (16.6078 13.4502 17.3502) with tilt (-9.4505 -1.0717 0.0034)
WARNING: Triclinic box skew is large. LAMMPS will run inefficiently. (src/domain.cpp:220)
  2 by 2 by 2 MPI processor grid
  pair style reaxff stores no restart info
  386 atoms
Finding 1-2 1-3 1-4 neighbors ...
  special bond factors lj:    0        0        0       
  special bond factors coul:  0        0        0       
     0 = max # of 1-2 neighbors
     0 = max # of 1-3 neighbors
     0 = max # of 1-4 neighbors
     1 = max # of special neighbors
  special bonds CPU = 0.000 seconds
  read_restart CPU = 0.002 seconds
print "*****Positive-change ${dir} starts.*****"
*****Positive-change 6 starts.*****
include ff.mod.lmp
# Setup forcefield, system
# undefine any fix ave/* fix before using reset_timestep
if "$(is_defined(fix,avgp))" then "unfix avgp"
reset_timestep 0

# Assign the force field
pair_style reaxff NULL safezone 3.0 mincap 150
# pair_coeff * * CHONSSi.ff O Si
# pair_coeff * * CHOSiNa.ff O Si
# pair_coeff * * SiOCHN_2018.ff O Si
# pair_coeff * * PDMSDecomp.ff Si O
pair_coeff * * CHONSi.ff C H O Si
# pair_coeff * * CHOFe.ff O Si

# charge method for reaxff
fix myqeq all qeq/reaxff 1 0.0 10.0 1.0e-6 reaxff maxiter 400
# Setup neighbor style
neighbor        2 bin
neigh_modify    every 10 delay 0 check no

# Setup output
fix avgp all ave/time  ${nevery} ${nrepeat} ${nfreq} c_thermo_press mode vector
fix avgp all ave/time  10 ${nrepeat} ${nfreq} c_thermo_press mode vector
fix avgp all ave/time  10 10 ${nfreq} c_thermo_press mode vector
fix avgp all ave/time  10 10 100 c_thermo_press mode vector
thermo		${nthermo}
thermo		100
thermo_style custom step temp pe press f_avgp[1] vol
thermo_modify norm no

# NVT
fix 4 all nvt temp ${temp} ${temp} ${tdamp}
fix 4 all nvt temp 300 ${temp} ${tdamp}
fix 4 all nvt temp 300 300 ${tdamp}
fix 4 all nvt temp 300 300 50
Resetting global fix info from restart file:
  fix style: nvt, fix ID: 4

# Positive deformation
variable delta equal ${up}*${len0}
variable delta equal 0.01*${len0}
variable delta equal 0.01*13.4502
variable deltaxy equal ${up}*xy
variable deltaxy equal 0.01*xy
variable deltaxz equal ${up}*xz
variable deltaxz equal 0.01*xz
variable deltayz equal ${up}*yz
variable deltayz equal 0.01*yz
if "${dir} == 1" then    "change_box all x delta 0 ${delta} xy delta ${deltaxy} xz delta ${deltaxz} remap units box"
if "${dir} == 2" then    "change_box all y delta 0 ${delta} yz delta ${deltayz} remap units box"
if "${dir} == 3" then    "change_box all z delta 0 ${delta} remap units box"
if "${dir} == 4" then    "change_box all yz delta ${delta} remap units box"
if "${dir} == 5" then    "change_box all xz delta ${delta} remap units box"
if "${dir} == 6" then    "change_box all xy delta ${delta} remap units box"
change_box all xy delta ${delta} remap units box
change_box all xy delta 0.134502 remap units box
Changing box ...
WARNING: Triclinic box skew is large. LAMMPS will run inefficiently. (src/domain.cpp:220)
  triclinic box = (0 0 0) to (16.6078 13.4502 17.3502) with tilt (-9.315998 -1.0717 0.0034)

# Run positive deformation MD
# save trajectory
dump dump_pos${dir} all custom ${nthermo} dump/pos_deform${dir}.lammpstrj id type x y z
dump dump_pos6 all custom ${nthermo} dump/pos_deform${dir}.lammpstrj id type x y z
dump dump_pos6 all custom 100 dump/pos_deform${dir}.lammpstrj id type x y z
dump dump_pos6 all custom 100 dump/pos_deform6.lammpstrj id type x y z
run ${nrun}
run 3000
All restart file global fix info was re-assigned
Neighbor list info ...
  update: every = 10 steps, delay = 0 steps, check = no
  max neighbors/atom: 2000, page size: 100000
  master list distance cutoff = 12
  ghost atom cutoff = 12
  binsize = 6, bins = 5 3 3
  2 neighbor lists, perpetual/occasional/extra = 2 0 0
  (1) pair reaxff, perpetual
      attributes: half, newton off, ghost
      pair build: half/bin/newtoff/ghost
      stencil: full/ghost/bin/3d
      bin: standard
  (2) fix qeq/reaxff, perpetual, copy from (1)
      attributes: half, newton off
      pair build: copy
      stencil: none
      bin: none
Per MPI rank memory allocation (min/avg/max) = 141.5 | 143.8 | 146.4 Mbytes
   Step          Temp          PotEng         Press        f_avgp[1]        Volume    
         0   340.84522     -44687.678      4524.0212      0              3875.657     
       100   306.05924     -44657.498     -3978.1476     -5579.2585      3875.657     
       200   311.1763      -44696.095      542.54148     -3129.9339      3875.657     
       300   282.16227     -44684.327     -4120.1183     -4380.5648      3875.657     
       400   294.86617     -44689.466      894.54262     -5223.4902      3875.657     
       500   286.93692     -44654.386      8186.7658     -4082.6415      3875.657     
       600   295.96218     -44644.691     -5972.9547     -6400.918       3875.657     
       700   305.20541     -44666.984      6824.0404     -2497.0408      3875.657     
       800   303.40457     -44698.416      2212.9428     -1784.9038      3875.657     
       900   293.28419     -44694.871      3815.7705     -145.55639      3875.657     
      1000   281.74568     -44671.817     -1578.577       2233.5771      3875.657     
      1100   309.96776     -44681.495      5440.6027      2309.0014      3875.657     
      1200   319.3869      -44688.194      1968.2689     -659.31886      3875.657     
      1300   299.75828     -44694.349     -5413.0394     -3596.0411      3875.657     
      1400   282.71834     -44689.016      680.94169     -3348.6436      3875.657     
      1500   298.69585     -44705.776      8237.22       -1378.2363      3875.657     
      1600   291.17725     -44692.418      25296.495     -114.67784      3875.657     
      1700   309.34042     -44687.715      12528.727     -6573.5349      3875.657     
      1800   329.56278     -44672.182      13395.321     -935.4697       3875.657     
      1900   318.17093     -44680.829      6753.8281      924.90074      3875.657     
      2000   304.68158     -44690.515     -11638.356      2350.2621      3875.657     
      2100   295.72558     -44691.203     -3292.3195     -1642.2689      3875.657     
      2200   292.44906     -44679.697     -5134.1864     -378.61052      3875.657     
      2300   323.59365     -44681.194      9074.9097      3348.3673      3875.657     
      2400   299.25531     -44650.721      3301.1058      4286.7595      3875.657     
      2500   293.98987     -44691.966     -3600.9758      6499.235       3875.657     
      2600   306.82185     -44718.948      14803.781      5285.246       3875.657     
      2700   284.05812     -44683.995      11553.03      -1182.4058      3875.657     
      2800   294.72695     -44671.462     -5510.7842      2029.7561      3875.657     
      2900   319.2734      -44680.205      7798.0095     -606.8938       3875.657     
      3000   307.5588      -44678.868      13795.478     -199.70759      3875.657     
Loop time of 94.7246 on 8 procs for 3000 steps with 386 atoms

Performance: 1.368 ns/day, 17.542 hours/ns, 31.671 timesteps/s, 12.225 katom-step/s
98.9% CPU use with 8 MPI tasks x 1 OpenMP threads

MPI task timing breakdown:
Section |  min time  |  avg time  |  max time  |%varavg| %total
---------------------------------------------------------------
Pair    | 71.306     | 73.735     | 76.93      |  21.4 | 77.84
Bond    | 0.0053076  | 0.0056903  | 0.0060464  |   0.3 |  0.01
Neigh   | 7.8806     | 7.9802     | 8.0432     |   2.4 |  8.42
Comm    | 0.60222    | 3.7919     | 6.222      |  94.4 |  4.00
Output  | 0.0045097  | 0.0060882  | 0.0071187  |   1.2 |  0.01
Modify  | 9.0701     | 9.14       | 9.2378     |   2.2 |  9.65
Other   |            | 0.06595    |            |       |  0.07

Nlocal:          48.25 ave          57 max          43 min
Histogram: 1 1 4 0 0 0 0 0 1 1
Nghost:        3732.12 ave        3788 max        3678 min
Histogram: 2 0 2 0 0 0 0 2 1 1
Neighs:        33617.6 ave       39247 max       29966 min
Histogram: 1 1 2 2 0 0 0 0 1 1

Total # of neighbors = 268941
Ave neighs/atom = 696.73834
Ave special neighs/atom = 0
Neighbor list builds = 300
Dangerous builds not checked
undump dump_pos${dir}
undump dump_pos6

# Run equilibration
print "*****Equilibration pos${dir} starts.*****"
*****Equilibration pos6 starts.*****
include ff.mod.lmp
# Setup forcefield, system
# undefine any fix ave/* fix before using reset_timestep
if "$(is_defined(fix,avgp))" then "unfix avgp"
unfix avgp
reset_timestep 0

# Assign the force field
pair_style reaxff NULL safezone 3.0 mincap 150
# pair_coeff * * CHONSSi.ff O Si
# pair_coeff * * CHOSiNa.ff O Si
# pair_coeff * * SiOCHN_2018.ff O Si
# pair_coeff * * PDMSDecomp.ff Si O
pair_coeff * * CHONSi.ff C H O Si
# pair_coeff * * CHOFe.ff O Si

# charge method for reaxff
fix myqeq all qeq/reaxff 1 0.0 10.0 1.0e-6 reaxff maxiter 400
# Setup neighbor style
neighbor        2 bin
neigh_modify    every 10 delay 0 check no

# Setup output
fix avgp all ave/time  ${nevery} ${nrepeat} ${nfreq} c_thermo_press mode vector
fix avgp all ave/time  10 ${nrepeat} ${nfreq} c_thermo_press mode vector
fix avgp all ave/time  10 10 ${nfreq} c_thermo_press mode vector
fix avgp all ave/time  10 10 100 c_thermo_press mode vector
thermo		${nthermo}
thermo		100
thermo_style custom step temp pe press f_avgp[1] vol
WARNING: New thermo_style command, previous thermo_modify settings will be lost (src/output.cpp:903)
thermo_modify norm no

# NVT
fix 4 all nvt temp ${temp} ${temp} ${tdamp}
fix 4 all nvt temp 300 ${temp} ${tdamp}
fix 4 all nvt temp 300 300 ${tdamp}
fix 4 all nvt temp 300 300 50
run ${nequil}
run 3000
Neighbor list info ...
  update: every = 10 steps, delay = 0 steps, check = no
  max neighbors/atom: 2000, page size: 100000
  master list distance cutoff = 12
  ghost atom cutoff = 12
  binsize = 6, bins = 5 3 3
  2 neighbor lists, perpetual/occasional/extra = 2 0 0
  (1) pair reaxff, perpetual
      attributes: half, newton off, ghost
      pair build: half/bin/newtoff/ghost
      stencil: full/ghost/bin/3d
      bin: standard
  (2) fix qeq/reaxff, perpetual, copy from (1)
      attributes: half, newton off
      pair build: copy
      stencil: none
      bin: none
Per MPI rank memory allocation (min/avg/max) = 141.4 | 143.8 | 146.4 Mbytes
   Step          Temp          PotEng         Press        f_avgp[1]        Volume    
         0   307.5588      -44678.868      13795.544      0              3875.657     
       100   306.39223     -44688.519      16521.543      3752.7929      3875.657     
       200   293.68384     -44710.872      4220.8948      4587.7355      3875.657     
       300   297.61264     -44720.323      15757.856      7805.4495      3875.657     
       400   287.8382      -44699.358      14227.911      3615.1102      3875.657     
       500   308.49525     -44700.083     -3777.7947      1107.3273      3875.657     
       600   304.4456      -44683.255      8065.2059      1326.5652      3875.657     
       700   297.56533     -44693.63       3689.7602     -1633.7406      3875.657     
       800   279.65334     -44711.322      6373.6151      875.82221      3875.657     
       900   294.76167     -44721.495     -2273.0182     -2580.2238      3875.657     
      1000   303.31099     -44707.121     -3529.0411      2174.3769      3875.657     
      1100   312.13917     -44707.123      327.2893       273.5502       3875.657     
      1200   304.78907     -44723.848      7602.6369     -215.88027      3875.657     
      1300   288.09944     -44733.314      8291.318       5535.1424      3875.657     
      1400   290.32506     -44730.12      -2750.5418     -3896.7001      3875.657     
      1500   325.50224     -44743.45       9744.673      -1106.7614      3875.657     
      1600   321.89469     -44724.46      -2479.9578     -4011.5301      3875.657     
      1700   290.79386     -44696.569      456.50181     -6314.3774      3875.657     
      1800   316.13333     -44742.899      2513.8928     -2231.4007      3875.657     
      1900   280.84675     -44745.895     -1254.3482      2545.2582      3875.657     
      2000   290.06394     -44755.652      9449.6807     -378.89607      3875.657     
      2100   293.05688     -44736.534      6050.9302     -1900.6217      3875.657     
      2200   296.76874     -44719.905      4765.619       1586.7622      3875.657     
      2300   296.81413     -44700.041     -1661.5668     -1404.6534      3875.657     
      2400   329.35788     -44730.781      3064.406      -1552.0026      3875.657     
      2500   300.00984     -44722.938      385.18899     -1927.2843      3875.657     
      2600   284.62157     -44742.566     -1547.4095      342.41273      3875.657     
      2700   282.70936     -44725.646     -3028.3549     -940.05419      3875.657     
      2800   289.91489     -44705.102      7783.6255      2540.9323      3875.657     
      2900   305.62225     -44705.507      2620.4729     -3144.1256      3875.657     
      3000   314.83077     -44719.312     -3172.3587     -4416.3958      3875.657     
Loop time of 94.2147 on 8 procs for 3000 steps with 386 atoms

Performance: 1.376 ns/day, 17.447 hours/ns, 31.842 timesteps/s, 12.291 katom-step/s
98.8% CPU use with 8 MPI tasks x 1 OpenMP threads

MPI task timing breakdown:
Section |  min time  |  avg time  |  max time  |%varavg| %total
---------------------------------------------------------------
Pair    | 71.459     | 73.372     | 76.065     |  20.2 | 77.88
Bond    | 0.0053199  | 0.0057208  | 0.0060578  |   0.4 |  0.01
Neigh   | 7.8616     | 7.9843     | 8.3643     |   5.5 |  8.47
Comm    | 0.69768    | 3.3817     | 5.2981     |  94.1 |  3.59
Output  | 0.00080387 | 0.00087749 | 0.0013546  |   0.0 |  0.00
Modify  | 9.0149     | 9.4039     | 9.5289     |   5.2 |  9.98
Other   |            | 0.06575    |            |       |  0.07

Nlocal:          48.25 ave          59 max          40 min
Histogram: 1 0 1 4 0 0 0 0 1 1
Nghost:         3710.5 ave        3741 max        3657 min
Histogram: 1 0 1 0 1 0 1 0 2 2
Neighs:        33593.5 ave       40702 max       27925 min
Histogram: 1 0 1 4 0 0 0 0 1 1

Total # of neighbors = 268748
Ave neighs/atom = 696.23834
Ave special neighs/atom = 0
Neighbor list builds = 300
Dangerous builds not checked

# Obtain new stress tensor, convert index from LAMMPS to Voigt
variable pxx1 equal f_avgp[1]
variable pyy1 equal f_avgp[2]
variable pzz1 equal f_avgp[3]
variable pxy1 equal f_avgp[4]
variable pxz1 equal f_avgp[5]
variable pyz1 equal f_avgp[6]

# Compute elastic constant from pressure tensor
# d1 = -[pxx1-pxx0]/[(]v_delta/v_len0] defined in input script
variable C1pos equal ${d1}
variable C1pos equal 43.1974817251653
variable C2pos equal ${d2}
variable C2pos equal 50.7469034722909
variable C3pos equal ${d3}
variable C3pos equal 8.48292210831204
variable C4pos equal ${d4}
variable C4pos equal -3.89966288758756
variable C5pos equal ${d5}
variable C5pos equal -2.81505344596798
variable C6pos equal ${d6}
variable C6pos equal -25.3249830703202

# Combine positive and negative
variable C1${dir} equal 0.5*(${C1neg}+${C1pos})
variable C16 equal 0.5*(${C1neg}+${C1pos})
variable C16 equal 0.5*(-1.63147699965142+${C1pos})
variable C16 equal 0.5*(-1.63147699965142+43.1974817251653)
variable C2${dir} equal 0.5*(${C2neg}+${C2pos})
variable C26 equal 0.5*(${C2neg}+${C2pos})
variable C26 equal 0.5*(-115.365883586897+${C2pos})
variable C26 equal 0.5*(-115.365883586897+50.7469034722909)
variable C3${dir} equal 0.5*(${C3neg}+${C3pos})
variable C36 equal 0.5*(${C3neg}+${C3pos})
variable C36 equal 0.5*(-17.3658323549014+${C3pos})
variable C36 equal 0.5*(-17.3658323549014+8.48292210831204)
variable C4${dir} equal 0.5*(${C4neg}+${C4pos})
variable C46 equal 0.5*(${C4neg}+${C4pos})
variable C46 equal 0.5*(-2.3049501420615+${C4pos})
variable C46 equal 0.5*(-2.3049501420615+-3.89966288758756)
variable C5${dir} equal 0.5*(${C5neg}+${C5pos})
variable C56 equal 0.5*(${C5neg}+${C5pos})
variable C56 equal 0.5*(4.10072018404211+${C5pos})
variable C56 equal 0.5*(4.10072018404211+-2.81505344596798)
variable C6${dir} equal 0.5*(${C6neg}+${C6pos})
variable C66 equal 0.5*(${C6neg}+${C6pos})
variable C66 equal 0.5*(39.1617764626069+${C6pos})
variable C66 equal 0.5*(39.1617764626069+-25.3249830703202)

# Delete dir to make sure it is not reused
variable dir delete

# Calc and output
include calc.mod.lmp
variable C11all equal ${C11}
variable C11all equal 8.75803509262135
variable C22all equal ${C22}
variable C22all equal 50.9548778914009
variable C33all equal ${C33}
variable C33all equal 35.95415110495

variable C44all equal ${C44}
variable C44all equal -3.56640280916001
variable C55all equal ${C55}
variable C55all equal 7.72417435993245
variable C66all equal ${C66}
variable C66all equal 6.91839669614335

variable C12all equal 0.5*(${C12}+${C21})
variable C12all equal 0.5*(14.7829423375587+${C21})
variable C12all equal 0.5*(14.7829423375587+25.571207309309)
variable C13all equal 0.5*(${C13}+${C31})
variable C13all equal 0.5*(50.0065556648529+${C31})
variable C13all equal 0.5*(50.0065556648529+7.68076254381145)
variable C23all equal 0.5*(${C23}+${C32})
variable C23all equal 0.5*(50.6504194897385+${C32})
variable C23all equal 0.5*(50.6504194897385+44.3626995815138)

variable C14all equal 0.5*(${C14}+${C41})
variable C14all equal 0.5*(-8.81858102262445+${C41})
variable C14all equal 0.5*(-8.81858102262445+4.3190832977244)
variable C15all equal 0.5*(${C15}+${C51})
variable C15all equal 0.5*(37.8619151525185+${C51})
variable C15all equal 0.5*(37.8619151525185+-8.52343616354053)
variable C16all equal 0.5*(${C16}+${C61})
variable C16all equal 0.5*(20.7830023627569+${C61})
variable C16all equal 0.5*(20.7830023627569+3.77800144647625)

variable C24all equal 0.5*(${C24}+${C42})
variable C24all equal 0.5*(-13.3390021490238+${C42})
variable C24all equal 0.5*(-13.3390021490238+3.13452655963071)
variable C25all equal 0.5*(${C25}+${C52})
variable C25all equal 0.5*(6.22021339400485+${C52})
variable C25all equal 0.5*(6.22021339400485+6.16451320314602)
variable C26all equal 0.5*(${C26}+${C62})
variable C26all equal 0.5*(-32.3094900573031+${C62})
variable C26all equal 0.5*(-32.3094900573031+2.91249613733325)

variable C34all equal 0.5*(${C34}+${C43})
variable C34all equal 0.5*(-55.1084266117862+${C43})
variable C34all equal 0.5*(-55.1084266117862+1.47472210079731)
variable C35all equal 0.5*(${C35}+${C53})
variable C35all equal 0.5*(11.4126996713422+${C53})
variable C35all equal 0.5*(11.4126996713422+3.11778995086712)
variable C36all equal 0.5*(${C36}+${C63})
variable C36all equal 0.5*(-4.44145512329468+${C63})
variable C36all equal 0.5*(-4.44145512329468+1.37550697581385)

variable C45all equal 0.5*(${C45}+${C54})
variable C45all equal 0.5*(-7.29934188507744+${C54})
variable C45all equal 0.5*(-7.29934188507744+0.91958099202352)
variable C46all equal 0.5*(${C46}+${C64})
variable C46all equal 0.5*(-3.10230651482453+${C64})
variable C46all equal 0.5*(-3.10230651482453+-2.9747410571733)
variable C56all equal 0.5*(${C56}+${C65})
variable C56all equal 0.5*(0.642833369037065+${C65})
variable C56all equal 0.5*(0.642833369037065+-1.3346271289152)

# print stiffness tensor to "C.log"
print """
# stiffness tensor (GPa) for ${structure} by change-box method
${C11all} ${C12all} ${C13all} ${C14all} ${C15all} ${C16all}
${C12all} ${C22all} ${C23all} ${C24all} ${C25all} ${C26all}
${C13all} ${C23all} ${C33all} ${C34all} ${C35all} ${C36all}
${C14all} ${C24all} ${C34all} ${C44all} ${C45all} ${C46all}
${C15all} ${C25all} ${C35all} ${C45all} ${C55all} ${C56all}
${C16all} ${C26all} ${C36all} ${C46all} ${C56all} ${C66all}
"""  file C.log screen no

Total wall time: 1:03:51
