ITEM: TIMESTEP
0
ITEM: NUMBER OF ATOMS
295
ITEM: BOX BOUNDS xy xz yz pp pp pp
-8.3339999999999996e+00 1.5144700000000000e+01 -7.6974000000000000e+00
0.0000000000000000e+00 1.4189300000000001e+01 -6.3660000000000005e-01
0.0000000000000000e+00 1.6498000000000001e+01 5.8050000000000002e-01
ITEM: ATOMS id type q x y z
6 4 1.20524 0.611145 1.62104 5.93127
7 4 1.28187 -0.130979 3.89188 2.08686
8 4 1.25099 -0.917106 4.00959 7.6255
10 4 1.24537 -2.05605 6.65778 5.41746
25 4 1.42651 0.974725 6.15 4.0423
27 4 0.952587 3.47762 6.43333 5.71994
50 1 -0.662863 2.90719 0.862808 1.9522
51 1 -0.687344 2.28066 2.40823 5.53588
52 1 -0.658023 -1.62232 4.94789 1.55868
204 2 0.178015 4.68263 2.68336 2.56046
79 3 -0.806897 -0.128193 0.980288 4.62263
276 2 0.204302 5.16188 0.551021 0.354197
249 2 0.179326 4.64292 4.30902 3.07204
82 3 -0.791767 0.518048 3.2373 0.612623
84 3 -0.827092 -0.189472 2.82851 6.77388
85 3 -0.784005 -2.22775 5.0682 6.70344
53 1 -0.648233 0.429936 5.25926 7.98694
102 3 -0.806414 0.856246 4.93105 2.92027
103 3 -0.776657 -0.668825 6.50334 4.65054
104 3 -0.81162 4.2819 2.95608 7.70944
106 3 -0.789254 1.95855 5.79543 5.37294
78 3 -0.746413 0.800078 0.532631 0.0301303
172 2 0.177378 4.07481 1.02894 1.50181
203 2 0.175785 5.0742 1.25911 3.68079
81 3 -0.805676 -0.962067 2.69505 2.94503
173 2 0.172916 2.10997 2.38968 4.37924
174 2 0.22092 3.13592 1.71021 5.94745
175 2 0.237261 2.34882 3.4396 5.91298
176 2 0.151922 -2.3718 5.33072 2.34387
274 1 -0.678255 5.94068 1.25542 0.784895
178 2 0.169417 -0.939683 5.81133 1.10932
277 2 0.168572 5.6796 1.58843 1.91143
205 2 0.196234 3.98803 2.55293 4.32757
171 2 0.196609 2.31865 1.83356 1.87212
179 2 0.177893 -0.0994683 6.19485 7.56689
180 2 0.225778 1.39756 5.01904 7.33633
250 2 0.19299 3.53019 5.9467 2.77476
101 3 -0.774491 5.22287 4.01332 0.283193
63 1 -0.681139 4.86857 2.37056 3.62688
54 1 -0.682769 -3.42435 6.37236 4.24003
182 2 0.154947 -2.94928 6.33717 3.17033
281 2 0.0864615 -3.02841 5.71141 7.91093
170 2 0.185001 2.75647 0.350108 2.98166
257 3 -0.78693 3.6978 6.4736 0.231399
177 2 0.145913 -2.10732 4.39945 0.700685
275 2 0.220277 6.95795 0.780992 0.674888
3 4 1.2594 -0.126527 2.74447 15.9257
267 1 -0.662297 -0.189316 1.75955 11.3091
290 2 0.188071 -3.00959 7.22638 13.4296
20 4 1.35582 3.41272 2.13528 8.883
23 4 1.35122 2.44218 2.8401 14.0112
28 4 1.28138 4.38021 4.5132 12.593
285 2 0.186316 -0.409887 2.2765 12.3005
61 1 -0.678022 2.06015 3.35433 9.60379
64 1 -0.66568 2.43496 1.24087 12.9726
83 3 -0.780032 -1.19931 3.39225 9.02067
100 3 -0.817814 5.93392 0.70259 12.0582
97 3 -0.795376 3.75517 2.70426 15.0279
98 3 -0.79278 1.00196 2.9215 14.6537
99 3 -0.824281 4.22886 1.79971 10.245
108 3 -0.787238 2.82316 4.1571 13.1306
19 4 1.2968 5.09466 3.13747 15.8951
9 4 1.25928 -3.42599 6.95555 9.05223
148 2 0.0319888 0.697654 6.77868 10.6885
268 2 0.183022 -0.161382 0.649155 11.3455
269 2 0.173933 0.716446 2.32053 10.6768
181 2 0.181543 0.516819 5.28001 9.13638
207 2 0.214173 2.642 1.43152 11.8605
24 4 1.54081 5.57627 2.0141 11.1354
197 2 0.194086 1.96484 3.2917 10.7338
198 2 0.211317 1.17272 3.07601 9.01386
199 2 0.183241 2.54803 4.33067 9.32162
259 2 0.0362366 0.855878 6.97881 15.0317
295 2 0.216328 -3.11493 5.6389 11.7158
86 3 -0.854412 -2.01104 6.86054 9.8611
109 3 -0.847261 5.18834 3.3248 11.9704
206 2 0.224326 3.26918 0.729811 13.5558
284 2 0.163104 -1.77617 3.29266 14.2217
96 3 -0.846256 2.6114 0.863334 8.35465
208 2 0.18416 1.38502 0.740192 13.1602
1 4 1.22057 -5.65736 13.2944 0.872229
4 4 1.21254 -5.54991 13.1667 7.52413
12 4 1.0556 -3.11862 9.18449 1.58958
15 4 1.47717 -2.88506 9.22684 7.2181
16 4 1.47658 -4.24184 11.4452 5.42479
30 4 1.22978 1.27601 8.61427 2.27165
31 4 1.27862 -1.44214 11.1338 3.81588
80 3 -0.773073 -7.01216 13.4196 6.86948
56 1 -0.678277 -4.85654 8.78788 2.49062
189 2 0.163323 -1.55601 7.44738 1.42007
57 1 -0.681951 -2.5412 7.59537 0.839384
66 1 -0.675041 -0.933197 12.5238 2.64606
212 2 0.201053 -1.23888 13.4167 3.23403
222 2 0.178884 -0.0973786 11.6387 0.974875
88 3 -0.829642 -3.38325 10.2067 0.428581
90 3 -0.832827 -2.32525 8.03633 6.1827
91 3 -0.829066 -5.51973 11.2341 4.40957
92 3 -0.805171 -3.97202 10.1448 6.46314
93 3 -0.819806 -4.49194 12.7694 6.37007
111 3 -0.87022 1.44879 7.56061 3.42702
112 3 -0.826198 1.30137 7.94212 0.808538
113 3 -0.778621 -1.76211 9.85929 2.87434
114 3 -0.782645 -2.82979 11.6793 4.5264
115 3 -0.838685 -1.77363 10.234 7.96332
116 3 -0.776416 0.0561541 10.9196 4.75962
155 2 0.0940493 -0.325054 9.18354 2.48503
292 2 0.229227 -2.60607 13.0633 7.72815
187 2 0.194427 -4.68368 9.11411 3.59828
157 2 0.00672024 1.40186 9.22059 6.53266
211 2 0.163082 1.84767 7.7132 7.19941
214 2 0.17318 0.172134 12.4495 2.63442
213 2 0.184389 -1.52657 12.405 1.67523
87 3 -0.785805 -6.40544 11.9068 1.93757
69 1 -0.660174 0.42763 11.1939 0.0235187
221 2 0.19387 0.413079 10.0287 0.130645
183 2 0.18149 -4.08355 7.24339 4.3942
33 4 1.05627 1.38596 10.7427 5.59356
289 2 0.141217 -3.33974 6.88356 1.14153
11 4 1.02113 -0.94331 7.63873 10.6828
224 2 0.197992 0.671057 9.69087 11.9687
17 4 1.11577 -1.94643 9.39305 13.2058
32 4 1.04013 -1.6605 11.1835 9.22735
34 4 1.27344 -1.20737 11.8961 14.8788
288 2 0.185728 -3.09163 8.18016 16.1706
55 1 -0.653403 0.925527 8.28422 9.80188
58 1 -0.65405 -2.90252 8.03889 14.2072
59 1 -0.67323 -3.25395 10.5925 12.3772
216 2 0.155355 -3.21527 12.809 9.57208
255 4 1.03337 1.6772 7.84314 16.271
185 2 0.171669 1.66432 8.22207 8.95475
94 3 -0.824257 -1.23496 8.57379 11.9075
95 3 -0.812673 -5.21209 11.0753 14.6951
117 3 -0.79937 -1.04789 10.1597 14.2771
118 3 -0.850602 -0.485884 12.9052 13.9032
119 3 -0.777009 -2.79994 12.414 15.1852
120 3 -0.815528 -0.208697 11.5712 9.95453
147 2 -0.0278927 -5.81296 11.8607 8.56928
215 2 0.19848 -1.54872 13.6835 9.10444
156 2 -0.00411328 -2.64827 10.5479 10.4999
184 2 0.123072 -0.243807 8.68826 9.28149
186 2 0.158438 1.19062 9.13476 10.6025
191 2 0.169688 -3.90634 8.59622 14.4602
192 2 0.252068 -4.00748 10.8729 13.243
193 2 0.168988 -3.82625 10.1417 11.4802
194 2 0.175138 -2.60122 11.462 12.0781
67 1 -0.659179 -2.33495 12.8829 8.78451
260 2 0.169723 1.87319 8.45543 13.5782
280 3 -0.811805 -5.09247 13.1334 16.462
256 1 -0.660135 1.59867 8.74565 14.5943
261 2 0.251783 0.541032 9.35162 14.5487
14 4 1.48202 -4.32508 11.9038 15.8176
89 3 -0.805331 -3.71601 8.40186 8.40602
154 2 -0.00428118 2.60624 7.52281 10.4384
190 2 0.159838 -2.25292 7.70801 15.1259
2 4 1.32825 13.6193 1.51652 3.89094
21 4 1.16564 6.56161 2.91512 4.54058
251 2 0.113033 5.4603 6.25712 2.86155
36 4 1.18645 9.23402 1.45657 4.59435
151 2 -0.0174161 4.3883 6.61111 4.19608
40 4 1.27606 11.542 2.18968 6.22331
43 4 1.00063 10.9028 2.59872 1.96178
235 2 0.193391 9.15083 3.18277 0.558985
62 1 -0.662111 7.26658 4.46259 3.61168
253 2 0.140142 7.0594 6.78609 1.36903
74 1 -0.638831 9.60126 3.76896 1.46155
105 3 -0.790597 6.1102 3.53212 5.94799
122 3 -0.817895 7.64645 1.75526 4.49606
125 3 -0.858237 12.4399 1.97239 4.91617
126 3 -0.835615 10.0309 2.27536 5.80071
127 3 -0.878752 11.7784 1.16543 7.35718
133 3 -0.774517 10.0833 1.87182 3.19987
134 3 -0.781199 11.4095 1.63495 0.67084
234 2 0.183511 8.82205 4.11762 2.27293
286 2 0.155178 11.288 5.35972 4.62447
162 2 0.0738637 11.8674 3.81826 6.79783
164 2 0.0385652 12.3175 3.62702 2.36037
200 2 0.159008 8.42121 4.36546 3.73702
246 4 1.10216 4.90845 5.49268 0.771715
237 2 0.167672 6.60073 6.61946 6.20456
236 2 0.100183 10.4904 4.66654 1.19533
201 2 0.159897 6.9092 5.3757 4.2094
202 2 0.170976 6.92837 4.35465 2.53407
228 2 0.187532 9.14804 1.68888 7.77515
248 1 -0.657616 6.73844 6.39119 0.334691
26 4 1.48863 5.23923 4.17886 7.20591
247 1 -0.643724 4.54526 5.46531 2.6323
283 2 0.211917 13.0593 0.234479 1.70973
263 2 0.17667 11.8085 0.173738 3.09595
107 3 -0.806642 4.38016 5.51808 6.64468
152 2 0.036524 5.31033 5.13685 13.9062
241 2 0.141153 6.80263 5.83003 13.2503
227 2 0.248733 10.1141 1.24725 9.31394
39 4 1.02719 8.24405 2.9376 9.50407
41 4 1.28612 7.86257 2.67226 14.6181
42 4 1.03564 10.8517 3.48738 11.6746
45 4 1.26494 8.95117 6.529 10.6106
29 4 0.944536 4.23698 6.9568 10.6737
72 1 -0.68638 9.28573 4.0722 14.6533
73 1 -0.687586 11.3063 5.09041 12.4338
242 2 0.153366 5.406 7.09103 13.0799
266 2 0.171159 13.1124 1.64665 15.0634
265 2 0.184207 12.5431 3.24236 15.9116
124 3 -0.808398 6.95462 2.4413 10.1902
128 3 -0.802343 8.12909 1.92742 13.2997
129 3 -0.780338 8.34625 1.58354 15.9424
130 3 -0.85072 6.42343 3.29898 14.9977
131 3 -0.772102 12.1721 2.65706 11.084
132 3 -0.778545 9.63499 3.65341 10.6377
71 1 -0.662275 9.08388 1.42413 8.92642
44 4 1.19485 6.52336 6.53037 8.66356
37 4 0.9768 9.85024 1.10758 16.2331
137 3 -0.79889 10.443 6.5982 9.88167
163 2 0.0293002 10.2071 3.03008 13.3029
165 2 0.057728 8.71749 4.9578 11.1429
232 2 0.140548 11.9231 4.72126 13.3138
229 2 0.141688 9.27226 4.48978 13.6037
230 2 0.160797 10.3129 3.81379 14.9714
231 2 0.158433 8.79077 4.84275 15.3147
240 2 0.178066 6.27789 6.83845 14.7904
5 4 1.24801 13.4287 1.99832 10.2166
76 1 -0.706845 6.393 6.7902 13.6253
252 2 0.182078 6.67545 6.13655 16.4094
264 1 -0.67736 13.2683 2.75132 15.1824
233 2 0.163561 10.3396 5.64793 12.7224
123 3 -0.862208 13.1682 0.600434 9.54445
226 2 0.210071 8.29817 0.639032 9.22864
136 3 -0.786116 4.84293 7.00587 9.17185
138 3 -0.844611 7.84201 6.77446 9.53814
135 3 -0.784992 6.31303 4.65748 8.33464
110 3 -0.867979 4.2695 5.77173 11.6448
161 2 0.0730544 7.97381 4.12903 8.34302
293 2 0.0205409 10.5981 0.525336 14.7693
150 2 0.0108722 9.24502 8.94241 0.125832
38 4 1.29332 5.05517 13.7181 8.07163
46 4 0.894718 3.35681 10.5365 3.37484
68 1 -0.655212 1.40023 12.3613 6.58856
75 1 -0.665103 6.74126 7.39061 6.99767
139 3 -0.808148 2.37362 9.88747 2.30708
140 3 -0.81523 2.72227 10.9356 4.81053
238 2 0.180398 7.73947 7.8875 6.8871
149 2 0.113124 7.03884 12.3894 4.20986
210 2 0.240242 3.54617 7.75579 7.99766
160 2 0.0968707 6.57358 13.5203 7.25071
166 2 -0.00553633 3.9754 12.0913 2.86416
167 2 -0.0320756 4.86086 9.72568 3.52926
209 2 0.0799203 3.48542 8.25453 6.06566
217 2 0.21393 2.38904 12.895 6.56136
219 2 0.185303 0.549924 13.0292 6.38518
159 2 0.121351 2.97482 12.3085 1.04057
141 3 -0.838648 4.48676 12.2789 8.01328
287 2 0.147883 10.186 7.68362 2.36807
188 2 0.179592 9.51267 9.36945 2.02765
158 2 0.0188893 1.58617 13.4117 4.91604
262 1 -0.676996 5.19616 13.6786 2.79531
218 2 0.158225 1.2497 11.8259 7.62563
270 1 -0.662342 6.51136 10.8874 3.72887
271 2 0.156788 6.01709 10.4849 4.64481
272 2 0.0496119 7.61405 9.65599 3.17222
273 2 0.129335 5.8306 10.9617 2.85184
282 2 0.157122 5.69809 12.6484 3.18079
65 1 -0.641679 2.89911 8.17094 7.17505
239 2 0.153765 5.8328 8.20174 7.14096
291 2 0.244657 8.08349 10.8967 0.555643
13 4 1.07123 8.45527 11.391 3.40239
168 2 0.0114096 3.03814 9.8836 7.98441
18 4 1.05277 8.63552 10.0712 14.9979
225 2 0.19138 1.57962 11.1014 12.9944
245 2 0.140856 6.33855 11.8198 12.4223
47 4 1.26469 3.68471 11.2421 9.01175
48 4 1.19131 7.50425 8.04817 12.7632
49 4 1.08289 6.07618 10.3242 10.7201
143 3 -0.815892 8.71977 7.47126 11.856
22 4 1.49366 -0.268848 13.8996 12.727
77 1 -0.672285 6.82552 11.9932 11.261
121 3 -0.80715 0.80277 13.2473 11.646
60 1 -0.668805 7.26122 10.8186 16.1145
35 4 1.32656 1.15768 11.9461 10.7446
142 3 -0.824465 2.57457 11.8472 9.89684
258 2 0.121786 2.52178 9.55065 15.0597
144 3 -0.793593 8.05347 9.1221 13.9424
145 3 -0.833487 4.73906 10.5722 9.96735
146 3 -0.791901 6.28165 9.04955 11.5899
278 1 -0.666071 2.75895 12.8898 16.2761
153 2 0.0745654 4.87868 8.2657 11.5852
279 2 0.167735 2.4926 11.9014 15.8072
169 2 0.00861124 7.47839 10.8375 9.81001
223 2 0.154305 2.50101 10.065 11.6525
196 2 0.148799 6.8776 11.5381 15.202
243 2 0.236694 6.26999 12.8273 10.6925
195 2 0.145194 6.48774 9.94919 16.243
220 2 0.203905 0.85946 12.1655 16.343
254 2 0.152802 5.78947 7.79716 16.0977
70 1 -0.668434 1.49512 10.515 12.0191
294 2 0.154869 3.8592 13.0078 16.1941
244 2 0.154349 7.95638 12.1144 11.2575
ITEM: TIMESTEP
100
ITEM: NUMBER OF ATOMS
295
ITEM: BOX BOUNDS xy xz yz pp pp pp
-8.3339999999999996e+00 1.5144700000000000e+01 -7.6974000000000000e+00
0.0000000000000000e+00 1.4189300000000001e+01 -6.3660000000000005e-01
0.0000000000000000e+00 1.6465004000000000e+01 5.8050000000000002e-01
ITEM: ATOMS id type q x y z
6 4 1.23536 0.562128 1.6259 6.01737
7 4 1.33808 -0.145821 3.94256 2.06093
8 4 1.23679 -0.937748 4.14304 7.66156
10 4 1.26918 -2.00081 6.60893 5.52153
25 4 1.50603 0.777173 6.16982 4.06935
27 4 0.993984 3.4032 6.37219 5.60221
50 1 -0.654857 2.90263 0.888649 1.87014
51 1 -0.68362 2.27117 2.2134 5.55692
52 1 -0.657198 -1.80368 4.86668 1.62025
204 2 0.163183 4.61101 2.7025 2.55205
79 3 -0.804251 -0.0855815 1.10859 4.65438
276 2 0.222707 5.0969 0.574184 0.368908
249 2 0.192156 4.68681 4.20028 2.99284
82 3 -0.811893 0.54807 3.28916 0.797785
84 3 -0.795285 -0.172223 2.95654 6.84693
85 3 -0.789476 -2.36473 5.13807 6.78466
53 1 -0.669942 0.469175 5.29988 8.00426
102 3 -0.806974 0.763029 4.79906 3.05754
103 3 -0.854214 -0.649077 6.34139 4.73612
104 3 -0.816468 4.38416 3.10836 7.89588
106 3 -0.77666 1.90039 5.8757 5.20477
78 3 -0.747546 0.899162 0.533803 0.0942166
172 2 0.174651 4.09531 1.05291 1.51224
203 2 0.159396 5.26971 1.23348 3.48038
81 3 -0.781686 -1.08323 2.72826 2.8202
173 2 0.202842 2.1277 2.6085 4.50738
174 2 0.199245 2.92985 1.27246 5.53794
175 2 0.22647 2.60867 2.99115 6.3262
176 2 0.159769 -2.235 5.33933 2.58824
274 1 -0.671105 5.91431 1.26543 0.769439
178 2 0.147471 -1.22572 5.67617 0.997234
277 2 0.169065 5.73127 1.58485 1.84092
205 2 0.191459 3.94926 2.27667 4.37821
171 2 0.220501 2.26169 1.7786 1.69886
179 2 0.182743 0.144964 6.27671 7.53321
180 2 0.216238 1.4532 4.91119 7.53928
250 2 0.201634 3.50964 5.70899 2.67426
107 3 -0.811895 4.30356 5.35015 6.35274
63 1 -0.643535 4.90677 2.3121 3.59404
54 1 -0.67715 -3.30434 6.58789 4.22398
182 2 0.151611 -2.90479 6.41337 3.14206
281 2 0.0960464 -3.33078 5.83179 7.78079
170 2 0.172172 2.83136 0.409449 2.94041
3 4 1.24879 -0.0140701 2.75083 16.0299
267 1 -0.669786 -0.20538 1.99896 11.0987
290 2 0.177465 -3.02231 6.75871 13.5123
20 4 1.34194 3.53382 2.10322 8.86263
23 4 1.27544 2.60105 2.81103 14.0043
28 4 1.2484 4.27858 4.64997 12.4168
285 2 0.169657 -0.483762 2.43582 12.1458
61 1 -0.677758 2.15433 3.33853 9.40641
64 1 -0.652296 2.46231 1.31101 12.836
83 3 -0.809087 -1.51434 3.40874 9.00684
100 3 -0.807736 6.11565 0.660281 11.9611
97 3 -0.810578 3.8158 2.58125 15.0991
98 3 -0.75986 1.17009 3.04706 14.8709
99 3 -0.799202 4.39682 1.662 10.2332
108 3 -0.795252 2.87278 4.02667 12.7764
19 4 1.2893 4.99383 3.23152 15.9506
9 4 1.27811 -3.47843 7.01085 9.09588
148 2 0.0209271 0.661735 6.73595 10.5006
268 2 0.182136 -0.210839 0.816378 11.0709
269 2 0.18137 0.674746 2.49831 10.5453
181 2 0.163929 0.45088 5.26539 9.15477
207 2 0.231129 3.5149 1.18857 12.4239
24 4 1.55265 5.67889 2.12989 11.1801
197 2 0.208512 2.08784 3.27394 10.5169
198 2 0.19716 1.2004 3.1343 8.81078
199 2 0.203704 2.72877 4.32645 9.07857
259 2 0.0213817 0.619401 7.02856 15.0245
295 2 0.219834 -2.91615 5.55601 11.432
86 3 -0.844674 -2.01809 6.89713 9.8176
109 3 -0.820893 5.30761 3.38892 12.1272
264 1 -0.665686 -1.58687 2.86772 15.0338
284 2 0.183634 -1.48015 3.22491 14.0138
96 3 -0.817529 2.77326 0.755893 8.32256
208 2 0.192282 1.5842 1.62157 12.1143
110 3 -0.837392 4.14304 5.60257 11.2162
232 2 0.14844 -3.00525 4.90334 13.2949
265 2 0.168689 -2.2024 3.53439 15.7451
206 2 0.209999 2.19066 0.551389 13.6805
257 3 -0.763099 2.96084 6.94529 16.49
1 4 1.20675 -5.69118 13.1918 0.940727
4 4 1.22241 -5.65741 13.133 7.66191
12 4 1.02969 -2.97512 9.20437 1.6078
15 4 1.46364 -2.96372 9.24943 7.18513
16 4 1.41919 -4.11574 11.4984 5.58202
30 4 1.25478 1.35209 8.60657 2.32389
31 4 1.29177 -1.36212 11.2409 3.87998
80 3 -0.795356 -7.15176 13.6489 7.16677
56 1 -0.677826 -4.8358 8.9301 2.45165
189 2 0.154443 -1.54523 7.34513 1.46868
57 1 -0.686407 -2.46369 7.59876 0.871011
66 1 -0.674602 -1.05499 12.5622 2.5659
212 2 0.18106 -1.47562 13.4457 3.21404
222 2 0.183295 -0.31706 11.6487 0.865621
88 3 -0.85976 -3.20538 10.2529 0.461215
90 3 -0.815576 -2.14889 8.02801 6.23835
91 3 -0.815971 -5.3447 11.394 4.36592
92 3 -0.82018 -4.09458 9.98288 6.38965
93 3 -0.839381 -4.60641 12.6639 6.58153
111 3 -0.871795 1.49224 7.46974 3.40835
112 3 -0.818709 1.36154 7.9013 0.882099
113 3 -0.772716 -1.64586 9.90393 2.92111
114 3 -0.794068 -2.54178 11.7247 4.86593
115 3 -0.795428 -1.84429 10.3846 8.03867
116 3 -0.768741 0.0350132 10.9398 4.82377
155 2 0.0982044 -0.240444 9.27986 2.55978
292 2 0.223967 -2.29033 12.7944 7.55147
187 2 0.193807 -4.66731 9.31129 3.53537
157 2 0.007508 1.44243 9.20642 6.58673
211 2 0.169688 1.92209 7.63995 7.08174
214 2 0.167361 -0.00568159 12.7382 2.23976
213 2 0.188425 -1.73155 12.4001 1.67044
87 3 -0.799089 -6.52579 11.8782 2.06676
33 4 1.05018 1.38116 10.7436 5.68308
289 2 0.121002 -3.45394 7.00727 1.24146
183 2 0.1843 -3.76296 7.63016 4.32104
11 4 0.975038 -0.856916 7.68158 10.4949
224 2 0.213434 0.673208 9.84653 12.1624
17 4 1.11951 -2.11399 9.16825 13.2433
32 4 1.02917 -1.72716 11.3116 9.33483
34 4 1.2623 -1.32815 11.9217 14.8488
288 2 0.19225 -2.95774 8.13585 16.2747
55 1 -0.647543 0.826012 8.37627 9.68753
58 1 -0.652303 -2.91144 7.73916 14.2382
59 1 -0.668394 -3.35602 10.5219 12.5002
216 2 0.184425 -3.18963 13.0807 9.31277
255 4 1.04335 1.57871 7.73331 16.2609
185 2 0.166421 1.58631 8.3351 8.73551
94 3 -0.769896 -1.31131 8.49797 12.045
95 3 -0.806903 -5.41811 11.2302 14.5904
117 3 -0.764498 -1.19445 10.1086 14.1758
118 3 -0.816278 -0.410173 12.9029 13.9736
119 3 -0.790408 -2.88113 12.4214 15.1385
120 3 -0.783824 -0.236929 11.455 9.9756
147 2 -0.0424584 -5.83941 11.9933 8.79856
215 2 0.198812 -1.28794 13.7466 8.98166
156 2 -0.0126888 -2.82205 10.7259 10.6084
184 2 0.138823 -0.376816 9.03887 9.0287
186 2 0.158922 1.24137 9.13612 10.5218
191 2 0.145593 -3.93257 8.34836 14.3751
192 2 0.248781 -4.16417 10.7873 13.3188
193 2 0.166502 -3.82344 10.1833 11.5943
194 2 0.175061 -2.68155 11.4739 12.2711
67 1 -0.631897 -2.14236 13.0203 8.68109
260 2 0.141085 2.00574 8.31483 13.7866
190 2 0.155277 -2.26435 7.4317 15.1197
256 1 -0.662961 1.43137 8.79275 14.6759
261 2 0.262405 0.456866 9.2508 14.3432
14 4 1.44537 -4.26959 11.8741 15.8678
89 3 -0.834075 -3.58869 8.46734 8.40631
154 2 -0.0169388 2.42459 7.62842 10.5547
69 1 -0.651721 -0.387368 11.7536 16.4708
221 2 0.193318 -0.408645 10.6059 16.4882
280 3 -0.789966 -5.1174 13.1082 16.4468
2 4 1.3195 13.6226 1.54375 3.86789
21 4 1.17183 6.60529 2.91359 4.48774
251 2 0.116612 5.52862 6.04357 2.86684
36 4 1.17376 9.26646 1.39542 4.5377
151 2 0.000859978 4.23972 6.54993 4.14006
40 4 1.25296 11.4892 2.20559 6.2464
43 4 0.988985 10.7711 2.64508 1.96268
235 2 0.187179 9.3368 3.35299 0.329785
62 1 -0.665189 7.31464 4.4799 3.53228
135 3 -0.799258 6.51156 4.81105 7.94165
74 1 -0.68891 9.63179 3.92395 1.28882
105 3 -0.810688 5.95439 3.46486 5.78861
122 3 -0.816618 7.65122 1.69924 4.48484
125 3 -0.834851 12.489 1.95875 4.9802
126 3 -0.836226 9.95704 2.26062 5.71019
127 3 -0.879888 11.7295 1.15655 7.36045
133 3 -0.801711 10.0924 1.71534 3.08013
134 3 -0.777166 11.419 1.61707 0.663673
234 2 0.175355 8.72154 4.09149 2.07082
286 2 0.148783 11.1776 5.74779 4.61649
162 2 0.0743791 11.7459 3.78753 6.84292
164 2 0.0339819 12.0177 3.72806 2.55634
200 2 0.154229 8.40676 4.14993 3.69362
246 4 1.06265 5.02779 5.55895 0.730585
237 2 0.160678 6.8633 6.84253 6.19711
236 2 0.143145 10.2302 4.81972 1.08485
201 2 0.157499 7.09441 5.54316 3.87541
202 2 0.165338 6.88325 4.33687 2.45504
228 2 0.169332 8.74836 1.41789 7.70933
248 1 -0.661419 6.52004 6.76329 0.438119
26 4 1.52126 5.31433 4.18477 7.04171
247 1 -0.653157 4.57201 5.33374 2.59325
283 2 0.194699 12.7405 0.309076 2.07765
101 3 -0.801748 5.42804 4.08785 0.184533
177 2 0.149228 12.5469 4.3515 1.01274
161 2 0.0930232 7.7885 3.75754 8.18641
252 2 0.165417 7.55635 6.32494 0.213182
275 2 0.206561 7.04749 1.0779 0.411021
152 2 0.00638129 5.00631 5.5304 13.6865
241 2 0.160383 7.08851 5.96835 13.5212
227 2 0.253833 10.0458 0.896124 9.11911
39 4 0.998335 8.27388 2.77083 9.47463
41 4 1.34944 7.92104 2.57036 14.6777
42 4 1.06272 10.8264 3.5328 11.7153
45 4 1.28554 8.90958 6.57376 10.5552
29 4 0.9185 4.07271 7.06354 10.6096
72 1 -0.677135 9.19052 4.05462 14.5322
73 1 -0.685355 11.5741 5.12534 12.3256
242 2 0.109759 5.50487 7.20221 13.0592
266 2 0.16583 13.2595 1.71571 15.1135
138 3 -0.830339 7.773 6.79342 9.5176
124 3 -0.830359 6.92593 2.51048 10.3116
128 3 -0.809053 8.05732 1.82877 13.3009
129 3 -0.821341 8.55329 1.52478 15.8407
130 3 -0.79307 6.60044 3.29516 15.1004
131 3 -0.784433 12.0576 2.68892 11.3404
132 3 -0.768791 9.60361 3.52817 10.5976
71 1 -0.66386 8.99351 1.19671 8.83002
44 4 1.1646 6.45652 6.58142 8.51765
37 4 1.03847 9.95097 1.08165 16.3273
137 3 -0.846139 10.3892 6.67265 9.87768
163 2 0.0292625 10.2951 2.99542 13.2945
165 2 0.0766008 8.80569 4.97052 10.9665
226 2 0.203913 8.20665 0.490812 9.31934
229 2 0.157081 9.06999 4.50423 13.5369
230 2 0.152043 10.2697 3.91309 14.8396
231 2 0.164206 8.69839 4.77557 15.3152
240 2 0.191169 6.28053 7.07941 14.9404
5 4 1.19081 13.3318 2.33151 10.2359
76 1 -0.659589 6.46603 6.89812 13.7786
123 3 -0.796202 13.0112 0.499761 9.51414
136 3 -0.775397 4.6933 7.01486 9.17765
233 2 0.180183 10.7484 5.89976 12.5295
293 2 0.0212201 10.9492 0.534058 15.0174
195 2 0.161629 7.55565 9.14845 0.220459
38 4 1.30085 4.81476 13.6282 8.13547
46 4 0.919223 3.3193 10.5876 3.35906
68 1 -0.660453 1.52789 12.3579 6.65552
75 1 -0.671256 6.94673 7.57441 7.06363
139 3 -0.815934 2.4622 9.76421 2.2982
140 3 -0.833305 2.63815 10.726 4.75679
238 2 0.195149 7.94027 8.08824 7.22767
149 2 0.103478 7.29528 12.3275 4.62662
210 2 0.253234 3.57445 7.6085 8.04318
160 2 0.125615 6.42914 13.6279 7.53752
166 2 -0.0155318 3.95776 12.0222 2.6872
167 2 -0.019836 4.91329 9.97765 3.58931
209 2 0.089721 3.42958 8.19233 6.12768
217 2 0.218603 2.57814 12.8143 6.62418
219 2 0.178495 0.706033 13.0758 6.29748
159 2 0.121268 2.70215 12.2306 1.03236
141 3 -0.847091 4.37529 12.115 7.92933
287 2 0.150828 10.2093 7.86052 2.36636
263 2 0.176406 4.09164 13.609 3.67895
158 2 0.00822077 1.74587 13.3576 4.9528
262 1 -0.682281 5.11229 13.5788 3.18247
218 2 0.185893 1.25576 11.8877 7.70237
270 1 -0.657486 6.62389 10.8846 3.90652
271 2 0.151983 5.87972 10.5795 4.70494
272 2 0.0551727 7.67612 9.58026 3.58329
273 2 0.137955 6.12969 11.1722 2.89464
282 2 0.169272 5.72785 12.606 3.39621
65 1 -0.656658 2.88293 8.09403 7.21273
239 2 0.140691 6.0372 8.33241 7.00298
291 2 0.249671 8.35743 10.8652 0.716364
13 4 1.0765 8.52463 11.3306 3.52645
168 2 0.0209489 2.82198 9.74073 8.05922
253 2 0.121976 6.48807 7.093 1.57264
188 2 0.180033 9.62819 9.51646 1.77274
18 4 1.06442 8.62688 10.1935 14.8859
225 2 0.188674 1.78508 10.9294 13.0406
245 2 0.148058 6.3472 11.9879 12.1246
47 4 1.25742 3.63466 11.088 8.98508
48 4 1.20603 7.57889 8.07503 12.758
49 4 1.04875 6.03468 10.3144 10.6824
143 3 -0.853707 8.73173 7.22686 11.9431
22 4 1.49075 -0.1818 13.9307 12.6964
77 1 -0.670527 6.83729 12.0237 11.0135
121 3 -0.78296 1.01549 13.2468 11.6149
60 1 -0.661693 7.43415 10.6502 16.3635
35 4 1.28562 1.25032 11.8446 10.8091
142 3 -0.835579 2.47843 11.7884 9.7475
258 2 0.147736 2.19681 9.6344 15.114
144 3 -0.809213 8.06668 9.12774 13.8748
145 3 -0.849339 4.67794 10.32 9.86901
146 3 -0.781491 6.3246 9.10386 11.6695
278 1 -0.661568 2.64712 12.8238 16.385
153 2 0.0518919 4.90937 8.19877 11.5841
279 2 0.167706 1.96489 12.3127 15.5836
169 2 0.00730094 7.52889 10.6523 9.76965
223 2 0.142664 2.52913 9.91206 11.7059
196 2 0.124834 6.80528 11.3378 15.3676
243 2 0.243782 6.29891 12.8819 10.3836
150 2 0.0105493 8.81147 9.26978 16.389
220 2 0.185659 0.821097 12.1012 16.3988
254 2 0.163594 5.57949 8.15663 16.2315
70 1 -0.703443 1.59254 10.4414 12.0967
244 2 0.146441 8.03631 12.1632 11.0648
294 2 0.157003 3.72509 12.3408 16.451
ITEM: TIMESTEP
200
ITEM: NUMBER OF ATOMS
295
ITEM: BOX BOUNDS xy xz yz pp pp pp
-8.3339999999999996e+00 1.5144700000000000e+01 -7.6974000000000000e+00
0.0000000000000000e+00 1.4189300000000001e+01 -6.3660000000000005e-01
0.0000000000000000e+00 1.6432008000000000e+01 5.8050000000000002e-01
ITEM: ATOMS id type q x y z
6 4 1.28443 0.614869 1.75046 6.12321
7 4 1.33568 -0.398542 3.78732 2.11208
8 4 1.24836 -0.972412 4.09435 7.69871
10 4 1.21858 -2.01963 6.60983 5.65976
25 4 1.47152 0.770905 6.07545 4.1042
27 4 0.969948 3.23629 6.31099 5.61184
50 1 -0.664156 3.06664 0.765309 1.92047
51 1 -0.695652 2.33303 2.35619 5.67183
52 1 -0.660597 -1.81131 4.85803 1.43348
204 2 0.167765 4.52411 2.92592 2.64796
79 3 -0.809044 -0.152159 1.15212 4.83779
276 2 0.211104 5.3868 0.490606 0.404068
249 2 0.173663 4.61822 4.33083 3.00752
82 3 -0.792893 0.482103 3.18316 0.787997
84 3 -0.823797 -0.0890951 2.9456 6.84655
85 3 -0.776652 -2.4876 5.10737 6.78747
247 1 -0.647532 4.4183 5.45742 2.53424
102 3 -0.784176 0.461534 4.79047 3.12078
103 3 -0.795845 -0.664913 6.32509 4.8457
104 3 -0.848231 4.56821 3.14254 7.92599
106 3 -0.779433 1.85547 5.53438 5.37467
78 3 -0.769406 0.912716 0.458195 0.087132
172 2 0.180118 4.16679 1.01027 1.47852
203 2 0.162431 5.11 1.31806 3.36501
81 3 -0.842272 -1.14619 2.59232 2.86848
173 2 0.169558 2.21987 2.24655 4.5184
174 2 0.217761 3.12498 1.72229 6.11445
175 2 0.253983 2.41755 3.45913 5.91406
176 2 0.150902 -2.38582 5.36492 2.31933
274 1 -0.678418 6.0505 1.29603 0.82229
178 2 0.167662 -1.16526 5.57013 0.716605
277 2 0.158784 5.5875 1.70443 1.84418
205 2 0.185752 3.92086 2.56778 4.34415
171 2 0.17434 2.39236 1.74793 1.84496
179 2 0.202552 -0.564245 6.41761 8.00977
180 2 0.199504 1.10968 5.52136 7.71087
250 2 0.192975 3.35008 5.88262 2.46433
107 3 -0.792366 4.32016 5.3977 6.38795
63 1 -0.678626 4.8408 2.44102 3.55664
54 1 -0.677793 -3.33889 6.54368 4.31206
182 2 0.166525 -2.9928 6.12256 3.34037
170 2 0.182099 3.10166 0.377839 2.97445
281 2 0.0728137 -3.42344 5.8514 7.83929
3 4 1.27311 0.110742 2.73541 15.9858
267 1 -0.646986 -0.27213 2.28687 11.1127
290 2 0.184519 -3.29374 6.84498 13.452
20 4 1.3819 3.69705 2.28969 8.95262
23 4 1.32504 2.62699 2.85196 13.9641
28 4 1.23187 4.31908 4.62115 12.3265
285 2 0.18819 -0.48575 2.77064 12.1153
61 1 -0.659512 2.32921 3.57364 9.6075
64 1 -0.647861 2.04632 1.1941 13.1465
83 3 -0.837283 -1.60818 3.37834 8.93238
100 3 -0.764726 6.11913 0.552953 11.9836
97 3 -0.795131 4.02774 2.66146 14.8991
98 3 -0.785096 1.24521 3.10135 14.8921
99 3 -0.80814 4.38138 1.84334 10.364
108 3 -0.832722 2.94894 4.02362 12.9075
19 4 1.28747 5.12379 3.17441 15.8796
9 4 1.22575 -3.58099 6.95139 9.13084
148 2 0.0318854 0.728605 6.81213 10.4564
268 2 0.154811 -0.2139 1.12201 11.1985
269 2 0.166921 0.731748 2.75543 10.5872
181 2 0.162681 0.113307 5.30193 9.39639
207 2 0.200226 3.06095 0.863017 12.6423
24 4 1.47294 5.81269 2.10645 11.1687
197 2 0.222377 2.37476 3.59178 10.748
198 2 0.175263 1.30727 3.33327 9.15214
199 2 0.191558 2.92117 4.46323 9.04311
259 2 0.0252759 0.384599 6.99534 14.9476
295 2 0.237152 -3.1916 5.67312 11.2699
86 3 -0.832627 -2.14169 6.91768 9.90432
257 3 -0.774504 2.80207 6.94937 16.4043
264 1 -0.665167 -1.51194 2.7564 15.0767
284 2 0.185438 -1.56602 2.77405 13.9905
96 3 -0.840484 2.93412 1.00829 8.36349
208 2 0.174159 1.25923 1.60538 12.3295
265 2 0.156633 -1.90337 3.76178 15.4937
232 2 0.151663 -2.83286 4.93858 12.8899
110 3 -0.863047 4.11394 5.74149 11.1449
53 1 -0.680489 0.0507712 5.51638 8.23873
1 4 1.23677 -5.67796 13.2651 0.939477
4 4 1.22154 -5.53826 13.3256 7.8077
12 4 1.03144 -2.97698 9.36244 1.65443
15 4 1.43104 -2.86756 9.2267 7.28554
16 4 1.49319 -4.16605 11.3817 5.62438
30 4 1.23568 1.31615 8.53482 2.30062
31 4 1.35294 -1.39709 11.1676 4.05844
80 3 -0.79222 -6.97616 13.7283 7.25146
56 1 -0.682609 -4.65537 9.096 2.64214
189 2 0.179135 -1.41089 7.55619 1.35691
57 1 -0.665775 -2.36625 7.74675 0.814665
66 1 -0.655956 -1.05481 12.5469 2.81789
212 2 0.207552 -1.38275 13.4495 3.45216
222 2 0.174683 -0.3478 11.5819 1.14292
88 3 -0.810839 -3.29906 10.3657 0.485228
90 3 -0.80609 -1.93776 8.06271 6.57032
91 3 -0.81338 -5.31709 11.4374 4.53085
92 3 -0.821653 -3.97715 9.88626 6.1614
93 3 -0.831847 -4.65305 12.4379 6.7688
111 3 -0.871587 1.40355 7.37894 3.41069
112 3 -0.813892 1.24335 7.70499 0.877996
113 3 -0.776694 -1.61112 9.86163 3.00093
114 3 -0.797799 -2.61749 11.7778 4.86156
115 3 -0.821743 -1.79862 10.3171 8.08935
116 3 -0.815542 -0.0704057 10.9449 4.84037
155 2 0.099904 -0.183226 9.35678 2.51803
292 2 0.220766 -2.44267 12.7914 7.66678
187 2 0.215782 -4.54708 9.38896 3.76609
157 2 0.0170152 1.45631 9.35833 6.6141
211 2 0.149743 1.87612 7.68585 7.05733
214 2 0.148385 0.0819787 12.5859 2.63178
213 2 0.181718 -1.67441 12.4478 1.84724
87 3 -0.777324 -6.42012 11.913 2.03294
69 1 -0.673168 0.172828 11.0839 0.159037
289 2 0.121733 -3.27939 7.14621 1.2992
183 2 0.182323 -3.56136 7.6555 4.30332
188 2 0.189833 -5.40301 9.803 2.14769
221 2 0.170684 0.128443 9.90417 0.197786
11 4 0.954861 -0.878674 7.78316 10.4254
224 2 0.212357 0.690847 9.91382 12.2025
17 4 1.13993 -2.08792 9.16909 13.1103
32 4 1.04879 -1.73822 11.2412 9.37744
34 4 1.27339 -1.27579 11.8626 14.9557
288 2 0.189126 -2.95597 8.21147 16.16
55 1 -0.6555 0.877349 8.35332 9.54386
58 1 -0.652652 -2.88009 7.74623 14.1065
59 1 -0.664779 -3.539 10.3347 12.3761
216 2 0.174205 -2.91471 13.1939 9.62198
255 4 1.03807 1.47414 7.79536 16.1042
185 2 0.16935 1.60755 8.29555 8.58146
94 3 -0.799831 -1.24638 8.6228 11.954
95 3 -0.820801 -5.3455 11.2426 14.5574
117 3 -0.761098 -1.35682 10.048 14.2725
118 3 -0.770699 -0.354858 12.6098 13.9588
119 3 -0.797263 -2.80456 12.5162 15.1364
120 3 -0.795918 -0.325963 11.431 10.0977
147 2 -0.039414 -5.80069 12.3075 9.09816
215 2 0.200344 -1.17449 13.7371 8.82167
156 2 -0.0146429 -2.97762 10.6416 10.5109
184 2 0.141271 -0.290982 8.83047 9.04015
186 2 0.173253 1.22276 9.13049 10.3218
191 2 0.158355 -3.68345 8.20148 14.7372
192 2 0.257466 -4.3421 10.5929 13.1994
193 2 0.16849 -4.01642 9.76486 11.5139
194 2 0.169692 -2.86194 11.2067 12.0765
67 1 -0.635042 -2.0716 13.0068 8.73454
260 2 0.16661 1.52518 8.0715 13.5743
190 2 0.14966 -1.91369 7.43691 14.7079
256 1 -0.684218 1.23707 8.69352 14.4369
261 2 0.256655 0.1832 9.12511 14.3751
14 4 1.45613 -4.23916 12.0228 15.6877