ITEM: TIMESTEP
0
ITEM: NUMBER OF ATOMS
295
ITEM: BOX BOUNDS xy xz yz pp pp pp
-8.3339999999999996e+00 1.5144700000000000e+01 -7.6974000000000000e+00
0.0000000000000000e+00 1.4189300000000001e+01 -6.3660000000000005e-01
0.0000000000000000e+00 1.6498000000000001e+01 5.8050000000000002e-01
ITEM: ATOMS id type q x y z
6 4 1.227 1.08804 1.00351 6.20091
7 4 1.3037 -0.293758 3.59052 1.74623
8 4 1.26404 -0.213143 3.67094 7.61529
10 4 1.26423 -1.97484 5.96613 5.66376
25 4 1.48957 0.300732 6.03091 3.65041
27 4 1.07121 2.46395 6.62306 5.64782
50 1 -0.675403 2.70807 1.20517 2.25424
51 1 -0.688971 2.65538 1.57694 5.40843
96 3 -0.838988 3.63584 0.443794 8.08731
171 2 0.152486 3.59963 0.740339 2.86322
79 3 -0.800119 0.131564 0.410933 5.045
250 2 0.211275 3.57636 3.23411 0.461151
178 2 0.151768 -1.72482 5.17756 0.658047
82 3 -0.778492 0.377871 2.94494 0.466185
84 3 -0.821114 0.440943 2.43146 6.87657
85 3 -0.795458 -1.53601 4.65761 6.43919
104 3 -0.78137 3.74324 3.45372 7.75911
102 3 -0.765145 0.6381 4.83772 2.58503
103 3 -0.817929 -1.26565 6.0555 3.97434
251 2 0.226091 2.84228 4.66901 1.31874
106 3 -0.796504 1.19086 5.83804 5.13154
107 3 -0.824787 3.59975 5.74655 6.31546
170 2 0.197745 2.97362 2.22348 1.72811
26 4 1.51624 4.55861 4.82761 7.19538
172 2 0.174207 1.75974 1.24989 2.86766
173 2 0.17769 2.6854 1.53055 4.23394
174 2 0.212261 3.53333 1.00397 5.88518
175 2 0.233713 2.6708 2.65847 5.70472
81 3 -0.809136 -0.761542 2.47549 2.8293
276 2 0.180274 5.69586 1.33247 0.845163
179 2 0.178109 0.923569 5.64398 7.68585
180 2 0.264215 2.17321 4.11377 8.07073
52 1 -0.657897 -2.0478 4.27837 1.33227
78 3 -0.813341 1.3005 0.185616 0.15477
247 1 -0.6727 3.74225 4.08788 1.06953
249 2 0.1476 4.33138 3.83462 2.07346
176 2 0.169898 -2.64155 4.64141 2.23535
187 2 0.260869 -2.33158 6.88333 2.84353
3 4 1.24511 0.253352 2.15062 15.8752
206 2 0.155445 1.86172 0.60707 12.2983
285 2 0.169871 -0.658224 1.53867 12.915
20 4 1.27348 3.76415 1.94007 8.8814
23 4 1.26143 2.86055 2.50903 13.8629
28 4 1.28525 4.14172 4.8377 12.4694
257 3 -0.782522 3.05249 7.0903 16.0365
61 1 -0.665363 2.26246 2.04225 9.98009
64 1 -0.674135 2.789 0.801135 12.9165
83 3 -0.758639 -0.977 3.19482 8.93624
208 2 0.189734 3.78534 0.875902 12.2654
97 3 -0.788788 4.1629 2.55937 14.7641
98 3 -0.759522 1.50155 2.60292 14.8284
99 3 -0.821697 4.92962 1.93772 9.96628
108 3 -0.761244 2.85176 3.8971 12.6619
259 2 0.132939 0.302623 6.97022 14.8402
110 3 -0.835653 3.76414 6.23221 11.8365
148 2 0.0401412 -0.62309 6.07602 11.2911
269 2 0.162146 0.246084 2.6761 11.5347
154 2 -0.0120916 1.86135 6.58476 10.0635
181 2 0.160064 0.956045 4.73796 9.48267
185 2 0.176103 0.460177 6.3556 9.28081
267 1 -0.663926 -0.415719 1.69389 11.7489
197 2 0.190805 2.422 1.63013 11.0399
198 2 0.157904 1.55814 1.26149 9.39951
199 2 0.19444 1.80255 3.06684 9.98646
86 3 -0.786844 -2.96661 6.47276 9.63523
268 2 0.137438 0.171373 0.753241 11.4043
265 2 0.165674 -1.55525 2.34384 13.9801
53 1 -0.67899 1.14808 4.67327 8.35641
55 1 -0.662552 -0.0514833 7.15235 9.90517
1 4 1.26856 -5.33069 13.2895 1.17521
4 4 1.19387 -4.88049 12.7524 7.82905
12 4 1.11598 -2.14586 9.08796 1.42558
15 4 1.44195 -2.65596 8.71366 6.90962
16 4 1.50402 -3.9811 10.8878 5.25737
30 4 1.26316 1.63823 8.56666 2.30936
31 4 1.26186 -1.39798 11.4193 3.63884
111 3 -0.850925 0.881162 7.39036 2.9455
56 1 -0.674789 -3.01866 7.47626 2.05887
213 2 0.167451 -0.867803 12.0733 1.45752
65 1 -0.682274 1.98715 8.00252 6.97928
66 1 -0.673546 -1.02679 12.8172 2.40398
157 2 0.0198977 0.731205 9.45156 6.55623
210 2 0.187256 2.3763 8.27065 8.00543
88 3 -0.794441 -3.19634 10.1847 0.671639
90 3 -0.836341 -1.72507 7.42462 6.49904
91 3 -0.798063 -5.38632 10.5856 4.48237
92 3 -0.807585 -3.4252 9.42259 5.62828
93 3 -0.806291 -4.29624 11.816 6.58826
212 2 0.194688 -1.97112 13.4391 2.36385
112 3 -0.822256 2.03948 8.19925 0.802831
113 3 -0.785272 -1.2255 9.81328 2.50299
114 3 -0.814105 -2.82277 11.653 4.20063
149 2 0.115846 -7.2339 12.6869 4.32518
116 3 -0.80976 -0.18453 11.2565 4.68872
155 2 0.0828329 0.372839 9.78486 2.30203
209 2 0.132708 2.3582 8.83326 6.22144
188 2 0.176212 -3.85724 8.12116 2.61757
89 3 -0.782874 -3.88425 8.31037 8.12368
211 2 0.180025 0.871457 7.79567 7.03565
115 3 -0.812694 -1.90787 9.92023 7.77646
33 4 1.06347 1.01954 11.0099 5.72949
87 3 -0.796711 -6.04041 11.7889 2.11799
215 2 0.187531 -1.6601 12.6664 7.47361
289 2 0.182834 -0.516823 7.4591 0.369346
280 3 -0.773948 -3.87943 12.8791 0.520431
80 3 -0.797851 -6.3966 13.1778 7.45361
214 2 0.148448 -0.119977 13.3381 2.82866
151 2 0.0225718 3.21783 7.45195 4.39606
287 2 0.163008 -3.41439 6.89639 1.24317
221 2 0.163243 0.278351 10.1557 14.8126
14 4 1.44817 -3.97356 12.0785 16.1446
17 4 1.12184 -2.90409 9.33781 12.7381
32 4 1.0528 -1.63957 10.8207 9.09349
34 4 1.33954 -1.4482 12.0398 14.1519
216 2 0.21608 -0.647889 13.2016 9.06459
261 2 0.198568 -0.370589 8.83334 14.2848
58 1 -0.672325 -3.90691 8.39461 14.1243
59 1 -0.653434 -4.24924 10.3288 11.6911
69 1 -0.66631 0.0933511 11.3325 15.0365
224 2 0.173855 0.952023 9.38275 11.9415
186 2 0.128102 0.718925 7.74027 10.5202
94 3 -0.812179 -2.21956 8.26009 11.7495
95 3 -0.809758 -5.17977 11.6921 15.125
117 3 -0.766766 -1.98637 10.538 13.332
118 3 -0.85065 -1.02372 13.1427 13.1394
119 3 -0.801711 -2.48234 12.345 15.3697
120 3 -0.770738 -0.223926 10.6039 9.83812
147 2 -0.043647 -4.98499 11.8059 9.23742
256 1 -0.667652 0.560433 8.21251 14.4539
156 2 0.00169041 -3.01218 10.5543 10.1894
184 2 0.147568 -0.710435 8.10004 8.9579
189 2 0.185726 -0.959935 9.78889 16.1522
191 2 0.17746 -4.07637 9.16031 14.9241
192 2 0.208827 -5.00326 10.2768 12.5621
193 2 0.201024 -4.55164 9.66027 10.7676
194 2 0.160128 -4.12064 11.3382 11.3341
225 2 0.173814 0.94492 10.7716 13.2622
288 2 0.160073 -2.47286 8.73912 15.5795
260 2 0.154507 1.23586 8.20812 13.5783
255 4 1.02654 1.8592 8.18454 15.931
292 2 0.171393 -2.5241 12.8975 9.18177
70 1 -0.667353 1.41399 10.3517 12.2086
207 2 0.229118 -4.74214 13.7437 13.8265
67 1 -0.656226 -1.51423 12.5967 8.65542
222 2 0.160986 -0.267222 11.5383 16.1209
57 1 -0.661764 -1.66297 8.96672 16.4804
153 2 -0.029765 2.38639 8.63828 11.4412
190 2 0.149358 -3.13486 7.59328 14.4173
11 4 1.0392 -1.82788 7.21664 10.5745
29 4 0.948266 3.18636 7.25963 10.7948
2 4 1.20602 13.8961 1.25727 3.85782
21 4 1.00445 6.92736 4.66375 5.13868
286 2 0.194605 10.7004 5.06311 6.0553
36 4 1.17288 9.2413 2.61181 5.26022
203 2 0.175367 7.76536 3.43888 3.10404
40 4 1.31933 12.009 1.81059 6.08624
43 4 1.0125 10.3629 2.55288 2.2132
226 2 0.152258 7.94128 1.06909 7.85416
62 1 -0.663081 7.00275 6.58413 5.14222
177 2 0.138266 12.5486 3.49974 0.703078
74 1 -0.658916 9.47904 3.98541 1.24709
105 3 -0.758746 5.70329 4.1858 6.05978
122 3 -0.786315 8.68023 4.01394 5.8596
125 3 -0.846799 12.5057 1.47505 4.67572
126 3 -0.839588 10.4164 2.04848 6.19505
127 3 -0.827678 12.5356 0.732061 7.10445
133 3 -0.800473 9.87012 2.7366 3.74621
134 3 -0.800488 10.1166 1.17053 1.47533
158 2 -0.0385617 7.98785 1.56822 5.20598
164 2 0.0359232 12.0534 2.85225 2.29741
162 2 0.10719 12.6923 3.39601 6.35951
236 2 0.129857 10.5168 4.38584 0.849205
234 2 0.168397 9.04796 4.63231 2.11861
54 1 -0.683132 11.3006 5.76891 5.3764
63 1 -0.66886 6.77992 3.99039 3.32875
254 2 0.161372 5.27535 6.6277 2.20384
183 2 0.166884 10.892 6.94596 5.44194
275 2 0.20128 7.64515 1.47454 0.487199
248 1 -0.661085 5.89307 6.41856 1.30938
235 2 0.174132 8.71075 3.60213 0.456537
281 2 -0.0125933 10.7472 5.78713 7.24374
182 2 0.178424 11.3955 5.41535 4.30171
161 2 0.114216 8.67917 3.85213 7.3929
253 2 0.154293 7.02172 6.0741 1.48388
204 2 0.157433 6.4829 4.92891 2.51142
274 1 -0.664687 6.62087 2.09086 0.672176
228 2 0.228315 9.75535 1.01425 8.09049
277 2 0.174782 6.71935 2.89422 1.56664
205 2 0.157488 5.93509 3.23066 3.51198
246 4 1.10262 4.78731 5.42789 0.134687
200 2 0.165095 7.80888 6.6646 6.02167
201 2 0.166559 5.95915 6.93139 5.44715
283 2 0.164944 13.6239 0.34952 1.62969
100 3 -0.886036 6.81147 1.59682 11.5623
137 3 -0.821882 9.56254 6.68329 9.44339
101 3 -0.761969 5.11593 5.16085 15.6346
39 4 1.11819 8.56867 3.01786 8.98245
41 4 1.22219 8.38515 1.76974 14.5863
42 4 1.05324 10.7045 3.10742 11.2759
232 2 0.152763 11.5502 4.50543 13.0406
266 2 0.146124 13.0478 1.71587 15.6962
72 1 -0.657821 9.69644 3.00721 15.0088
73 1 -0.696968 10.5742 4.64732 12.4401
295 2 0.18664 10.7644 5.375 11.5227
44 4 1.29113 5.76174 6.95052 9.15594
71 1 -0.683281 8.77583 1.16994 8.60592
124 3 -0.821264 7.13192 3.23976 9.5247
128 3 -0.795091 8.97792 1.07308 13.266
227 2 0.262515 8.60808 0.567527 9.54627
130 3 -0.764733 6.80692 2.74819 14.7233
131 3 -0.799663 12.189 2.71092 10.9151
132 3 -0.821653 9.74147 3.26255 9.96744
152 2 0.08865 4.84784 5.14812 13.9757
138 3 -0.79921 6.99131 6.64223 10.1251
284 2 0.149398 14.2305 0.674417 14.539
123 3 -0.832115 13.3064 0.705292 9.57738
163 2 0.0850387 10.0971 2.02306 12.4206
165 2 0.00262081 9.02722 5.6936 11.7794
109 3 -0.784608 5.181 4.06284 11.6656
229 2 0.161441 9.92517 3.60507 14.0231
230 2 0.16451 10.5907 2.34732 15.2744
231 2 0.165846 9.35474 3.68077 15.9966
264 1 -0.665104 13.8822 1.71217 14.8684
233 2 0.146073 9.7382 5.00029 13.102
5 4 1.2737 13.5426 2.07894 10.3052
19 4 1.22484 5.53287 3.21823 15.5164
45 4 1.22635 8.53323 6.91416 10.6795
24 4 1.51878 6.10659 2.68876 10.7066
9 4 1.2288 10.9185 6.81198 8.64356
135 3 -0.836122 5.27746 5.71022 8.26954
37 4 0.996098 1.9266 13.3524 0.839082
279 2 0.174028 4.41814 12.7101 1.30315
46 4 0.88236 3.36314 10.579 3.71761
68 1 -0.658263 1.06478 12.518 6.77425
75 1 -0.657501 6.51142 8.18326 7.91895
139 3 -0.832568 2.90133 9.15783 3.10879
140 3 -0.798394 2.3872 10.9052 4.90135
263 2 0.171206 4.59814 13.4199 2.92824
239 2 0.170216 5.85282 9.07967 7.88309
150 2 0.0376854 9.44936 9.11936 0.230244
160 2 0.0898366 7.12017 13.1872 7.82843
166 2 -0.0372541 3.43732 11.8358 2.5669
167 2 0.00172579 5.01529 10.3674 4.26164
278 1 -0.670385 3.5402 12.3553 0.644107
217 2 0.224489 1.93605 13.1797 6.90768
218 2 0.191973 0.919771 11.9479 7.8015
38 4 1.28903 5.5099 13.4184 8.2481
291 2 0.267346 8.36863 10.8411 0.88137
159 2 -0.031072 0.856839 12.4628 1.79573
252 2 0.160541 5.91901 7.36348 0.660542
13 4 1.06065 8.68815 11.2901 3.55244
262 1 -0.671736 5.71396 13.4547 2.695
237 2 0.176774 6.67436 7.61329 6.82117
270 1 -0.683965 6.89636 10.6211 3.67644
271 2 0.161003 6.61844 10.7943 4.73965
272 2 0.149262 7.3467 9.47351 3.50476
273 2 0.13794 6.09758 10.8082 2.88917
282 2 0.165714 6.29148 12.4975 2.93476
293 2 0.131314 3.20946 11.3193 0.905754
195 2 0.151237 7.18912 9.50842 0.258343
202 2 0.162273 7.39451 7.05843 4.17753
219 2 0.163645 0.12748 13.0839 6.46505
220 2 0.194569 0.909801 12.0438 14.634
238 2 0.196244 7.4993 8.40957 8.46729
294 2 0.183952 3.09272 13.1581 16.0483
47 4 1.26835 3.99698 11.298 9.65603
48 4 1.21582 7.54138 9.2348 12.5441
49 4 0.984664 5.65824 11.9378 12.2268
245 2 0.161423 5.25598 11.0135 14.4053
76 1 -0.66706 5.87925 8.4357 12.9076
77 1 -0.674207 4.70038 11.8125 13.8455
121 3 -0.808559 0.702324 13.0361 10.982
136 3 -0.808904 4.21028 7.94146 9.86582
258 2 0.00142397 2.14238 9.39594 14.7757
142 3 -0.826946 2.42185 11.251 9.60033
143 3 -0.798497 8.58775 8.29507 11.4374
144 3 -0.782047 8.30136 9.51755 14.0302
145 3 -0.831172 4.66419 11.6143 11.0606
146 3 -0.747814 6.96838 10.707 12.1697
35 4 1.23788 1.11665 11.3849 10.6239
241 2 0.19088 5.9095 7.44829 12.4377
168 2 0.096209 4.176 9.58926 9.48993
169 2 0.00175242 6.27534 13.5407 12.1898
244 2 0.132884 4.96602 12.8839 14.235
240 2 0.167994 5.70979 8.35318 14.0463
223 2 0.141307 2.64172 10.4848 12.1297
196 2 0.157716 6.79247 11.7253 15.7492
18 4 1.02491 8.70219 10.5905 15.2025
242 2 0.186998 5.08707 9.06982 12.3984
243 2 0.177248 3.62601 11.5828 13.7007
141 3 -0.82995 4.77252 12.0186 8.43809
60 1 -0.687929 7.30094 10.925 16.4556
22 4 1.47348 -0.108708 14.0247 12.1537
129 3 -0.76388 0.696919 14.1451 15.8837
290 2 0.195942 10.3139 8.07144 13.5027
ITEM: TIMESTEP
100
ITEM: NUMBER OF ATOMS
295
ITEM: BOX BOUNDS xy xz yz pp pp pp
-8.3612175999999998e+00 1.5144700000000000e+01 -7.6974000000000000e+00
0.0000000000000000e+00 1.4189300000000001e+01 -6.6381759999999979e-01
0.0000000000000000e+00 1.6498000000000001e+01 5.8050000000000002e-01
ITEM: ATOMS id type q x y z
6 4 1.22605 1.09306 1.03777 6.28232
7 4 1.27136 -0.23723 3.55124 1.93136
8 4 1.28946 -0.199621 3.51988 7.82443
10 4 1.23179 -1.86241 6.04728 5.74396
25 4 1.46981 0.357946 6.07509 3.6888
27 4 1.04831 2.61473 6.77038 5.61693
50 1 -0.6631 2.93684 1.05018 2.30084
51 1 -0.683703 2.69673 1.51425 5.45021
96 3 -0.84718 3.53053 0.509336 8.11832
171 2 0.154444 3.84924 0.578906 2.94783
79 3 -0.790637 0.175486 0.578002 5.01052
250 2 0.206931 3.95857 3.0655 0.493117
178 2 0.160194 -1.3249 5.23806 0.585611
82 3 -0.747226 0.538545 2.76597 0.414531
84 3 -0.828624 0.485726 2.35173 7.06406
85 3 -0.765901 -1.3915 4.58093 6.62743
104 3 -0.756705 3.89843 3.36615 7.81638
102 3 -0.755624 0.732585 4.76089 2.59227
103 3 -0.812552 -1.24691 6.14988 3.99473
251 2 0.215318 3.06173 4.37284 1.40596
106 3 -0.790209 1.31837 5.99968 4.98914
107 3 -0.817337 3.59114 5.77773 6.41012
170 2 0.190502 3.30421 2.01052 1.73837
26 4 1.47323 4.63349 4.75838 7.15265
172 2 0.195815 1.94721 1.31385 2.83112
173 2 0.186517 2.73118 1.37394 4.29203
174 2 0.221729 3.48034 0.946073 5.99799
175 2 0.225693 2.75771 2.61581 5.74105
81 3 -0.838756 -0.593336 2.41156 2.90363
276 2 0.216288 5.24187 1.41354 0.799116
179 2 0.220566 0.884958 5.52423 7.46653
180 2 0.251641 2.21053 4.40427 8.10102
52 1 -0.678206 -1.77543 4.42216 1.24608
78 3 -0.769988 1.29826 0.199679 0.224925
247 1 -0.682064 4.07103 3.91703 1.15881
249 2 0.17885 4.70608 3.76428 2.03591
176 2 0.175066 -2.22041 4.8499 2.22386
274 1 -0.67915 6.27459 1.9199 0.710497
53 1 -0.688619 1.15379 4.73506 8.1882
205 2 0.173623 5.43608 3.42432 3.7387
3 4 1.30824 0.24468 2.15255 15.8541
206 2 0.151897 1.99216 0.510488 12.6901
285 2 0.177402 -0.749858 1.76804 12.823
20 4 1.2846 3.80077 1.90702 8.95354
23 4 1.32258 2.85963 2.6366 13.9865
28 4 1.30152 4.17522 4.78706 12.3935
257 3 -0.789807 3.02733 6.92317 16.0731
61 1 -0.660426 2.25682 2.16368 10.039
64 1 -0.656079 3.06522 1.01482 12.9796
83 3 -0.799623 -0.877706 3.08858 9.19805
208 2 0.189636 3.71404 1.23143 12.0786
97 3 -0.800124 4.11975 2.58012 14.9788
98 3 -0.791477 1.41727 2.46589 14.7811
99 3 -0.835969 5.02571 1.94578 9.99891
108 3 -0.812023 2.95155 3.82108 12.798
259 2 0.0743554 0.0931883 7.02331 15.5521
110 3 -0.855538 3.63794 6.11096 11.8113
148 2 0.02164 -0.746889 5.91572 11.1041
269 2 0.198451 0.273475 2.7108 11.4601
154 2 -0.0143847 1.87608 6.86197 9.90072
181 2 0.155992 0.807018 4.98881 9.25412
185 2 0.171367 0.523271 6.75024 8.99917
267 1 -0.660309 -0.346768 1.78719 11.7164
197 2 0.184799 2.50292 1.79979 11.1869
198 2 0.195133 1.52624 1.44062 9.46489
199 2 0.200079 1.95931 3.22414 9.91791
86 3 -0.832417 -3.14701 6.48183 9.7079
268 2 0.149226 0.21553 0.8239 11.5059
11 4 1.03134 -1.94121 7.0735 10.6239
1 4 1.28269 -5.18309 13.2444 1.1464
4 4 1.17686 -4.93169 12.7519 7.82712
12 4 1.16174 -2.24599 9.19574 1.40248
15 4 1.43059 -2.69545 8.852 7.05187
16 4 1.48324 -4.01314 10.8069 5.23248
30 4 1.24902 1.50732 8.6718 2.22895
31 4 1.27659 -1.49401 11.397 3.52002
111 3 -0.833794 0.86913 7.42771 2.91487
56 1 -0.67774 -3.15993 7.63587 2.17287
213 2 0.182328 -0.872204 12.5715 1.35179
65 1 -0.669568 1.83445 7.86185 6.99583
66 1 -0.68116 -0.934381 12.9077 2.4437
157 2 0.0189681 0.817877 9.42324 6.24882
210 2 0.17059 2.32774 7.35801 7.90071
88 3 -0.825237 -3.33235 10.1837 0.703992
90 3 -0.806198 -1.81461 7.41155 6.56624
91 3 -0.802969 -5.50099 10.6064 4.51161
92 3 -0.803466 -3.41709 9.3939 5.67215
93 3 -0.815433 -4.36923 11.8828 6.56467
212 2 0.177447 -1.82017 13.5526 2.68646
112 3 -0.810815 1.86511 8.4634 0.665098
113 3 -0.811776 -1.30528 9.87318 2.40986
114 3 -0.824279 -2.88929 11.5423 4.21012
13 4 1.06906 -6.47881 11.4075 3.61394
116 3 -0.795673 -0.282754 11.3541 4.56145
155 2 0.0628863 0.411996 9.91647 2.2826
287 2 0.147196 -3.56966 7.01041 1.33456
188 2 0.197027 -3.95523 8.13961 2.79452
89 3 -0.812489 -3.97277 8.47451 8.01544
211 2 0.192016 0.754147 8.11061 7.24494
115 3 -0.832841 -1.63437 9.95698 7.84145
33 4 1.0163 1.03167 11.0393 5.62229
87 3 -0.783976 -6.02286 11.9238 2.16667
215 2 0.215645 -2.36782 12.8329 7.6388
289 2 0.173668 -0.526009 7.87823 0.384063
280 3 -0.788447 -3.76398 12.8503 0.472695
80 3 -0.786333 -6.48888 13.2259 7.67658
187 2 0.250185 -2.44253 7.02957 2.87804
149 2 0.0997461 -7.11469 12.8326 4.37171
216 2 0.176532 -0.560575 12.8295 8.13072
209 2 0.124152 2.43335 8.84416 6.68728
214 2 0.158123 0.0102928 13.1992 3.03306
221 2 0.159446 0.330884 10.007 14.7517
14 4 1.44823 -3.94288 11.9995 16.1099
17 4 1.08614 -2.92158 9.35982 12.6559
32 4 1.0625 -1.6173 10.8879 9.09149
34 4 1.30487 -1.44064 11.858 14.1156
258 2 0.0462105 2.05726 9.10608 14.517
261 2 0.204631 -0.283426 8.72719 14.1358
58 1 -0.661077 -3.86311 8.41943 14.1207
59 1 -0.669153 -4.18822 10.4937 11.6699
69 1 -0.657078 0.217623 11.3457 14.9572
224 2 0.181822 0.862133 9.15207 11.8727
186 2 0.130085 0.60616 7.36276 10.7223
94 3 -0.811025 -2.16541 8.18519 11.6687
95 3 -0.791488 -5.27685 11.5293 15.0336
117 3 -0.781031 -1.90609 10.3771 13.4324
118 3 -0.826754 -1.14244 13.0024 13.0132
119 3 -0.821773 -2.61014 12.1961 15.299
120 3 -0.792168 -0.259569 10.6951 9.95186
147 2 -0.041307 -4.78161 11.843 9.19288
256 1 -0.645487 0.599673 8.07717 14.4294
156 2 -0.00547814 -3.1271 10.5597 10.014
184 2 0.176454 -0.654228 8.27989 9.37531
189 2 0.218707 -1.02363 9.99279 15.9384
191 2 0.173224 -4.13305 9.23334 14.8732
192 2 0.187129 -5.05913 10.2038 12.4367
193 2 0.176816 -4.50991 10.1525 10.6706
194 2 0.166415 -3.87258 11.6355 11.8045
225 2 0.183077 0.746392 10.6326 13.1363
288 2 0.17239 -2.49926 8.90489 15.5245
260 2 0.163323 0.856431 7.33924 13.6098
255 4 0.984859 1.75154 8.03427 15.9821
292 2 0.205425 -1.90433 13.3006 9.43904
70 1 -0.646318 1.28266 10.165 12.1424
207 2 0.228033 -4.13821 13.9155 13.7156
67 1 -0.68088 -1.65129 12.6766 8.51214
222 2 0.169959 0.292109 11.619 16.0656
57 1 -0.667828 -1.70695 9.28134 16.4076
153 2 -0.0274438 2.3896 8.58766 11.6826
190 2 0.162303 -3.30949 7.53271 14.4499
29 4 0.93461 3.20376 7.31438 10.907
55 1 -0.660101 -0.0525045 7.20612 9.86221
290 2 0.184001 -4.75491 8.15987 13.3099
2 4 1.23068 13.871 1.25859 3.7788
21 4 1.01896 6.92818 4.66652 5.00534
286 2 0.181726 11.1478 4.7318 5.96717
36 4 1.1947 9.22869 2.5858 5.19979
203 2 0.165608 7.27248 3.28144 3.01677
40 4 1.29447 12.0331 1.9356 6.06427
43 4 1.01832 10.3234 2.70444 2.23075
226 2 0.166669 7.58726 1.02674 7.97802
62 1 -0.667348 6.92047 6.6055 4.83018
177 2 0.140811 12.8014 3.63406 0.623732
74 1 -0.665002 9.31189 3.98366 1.20772
105 3 -0.782682 5.77908 4.24627 5.97556
122 3 -0.777446 8.63659 3.94285 5.77003
125 3 -0.862775 12.5335 1.65661 4.63559
126 3 -0.838219 10.4513 2.07741 6.11529
127 3 -0.822872 12.5263 0.930603 7.2343
133 3 -0.812942 9.7368 2.76928 3.67181
134 3 -0.788412 10.068 1.27399 1.4757
158 2 -0.033485 8.12633 1.34846 5.26934
164 2 -0.00597162 11.9252 3.35491 2.13167
162 2 0.103465 12.6996 3.4657 6.53776
236 2 0.125576 10.3184 4.50457 0.774282
234 2 0.176419 8.70829 4.53558 1.92279
54 1 -0.687045 11.3952 5.74977 5.61515
63 1 -0.686364 6.41105 3.94274 3.2826
254 2 0.149523 5.44364 6.27617 2.21742
183 2 0.189446 10.7693 6.51573 6.01835
275 2 0.204965 7.13156 1.21423 0.758495
248 1 -0.662382 6.01335 6.35166 1.24076
235 2 0.177568 8.63317 3.42355 0.495008
281 2 0.013169 11.0375 5.67187 7.55254
182 2 0.172097 11.3754 5.77716 4.45635
161 2 0.104246 8.68086 3.86219 7.37281
253 2 0.169549 7.04052 5.92977 1.30042
204 2 0.156913 6.27361 4.79387 2.48157
202 2 0.147199 6.97186 6.57168 3.64409
228 2 0.209066 9.5422 1.12936 8.14198
277 2 0.164682 6.35628 2.80555 1.57038
283 2 0.172835 13.5517 0.222554 1.61424
246 4 1.08324 4.85734 5.36442 0.0361023
201 2 0.152255 5.87004 6.93809 5.15434
100 3 -0.851461 6.97995 1.69015 11.5418
137 3 -0.820572 9.307 6.99411 9.18647
101 3 -0.750863 5.24693 5.10715 15.5132
39 4 1.05742 8.50717 3.07477 8.92204
41 4 1.24904 8.33007 1.80742 14.7131
42 4 1.03634 10.7227 3.17528 11.2995
232 2 0.119899 11.4496 4.2036 13.1942
266 2 0.151135 13.1447 1.17404 15.5149
72 1 -0.662489 9.80377 2.9733 15.1945
73 1 -0.678044 10.5146 4.68893 12.5055
295 2 0.169393 10.9343 5.50984 11.7376
44 4 1.27096 5.73556 6.90469 9.15223
71 1 -0.678772 8.49655 1.21871 8.65641
124 3 -0.791492 7.15626 3.32864 9.5924
128 3 -0.771579 8.94485 1.03249 13.2084
227 2 0.262423 8.52368 0.656026 9.58332
130 3 -0.784889 6.98219 2.81311 14.6301
131 3 -0.811996 12.1656 2.57344 11.0237
132 3 -0.779583 9.91004 3.43565 9.90343
152 2 0.103435 4.9129 5.1819 13.8818
138 3 -0.797511 6.88123 6.64489 10.2256
284 2 0.153114 14.1877 0.783586 14.0765
123 3 -0.846738 13.3947 0.534622 9.61252
163 2 0.105113 9.9163 1.94556 12.229
165 2 0.023258 9.06862 5.48916 11.4483
109 3 -0.842687 5.35232 3.94793 11.7409
229 2 0.159951 10.1087 3.6169 14.2308
230 2 0.165491 10.5898 2.25984 15.5134
231 2 0.188198 9.34094 3.55044 16.0587
264 1 -0.666805 13.9098 1.58432 14.8028
233 2 0.159319 9.74182 5.16104 13.1979
5 4 1.31655 13.4816 1.95388 10.2949
19 4 1.20573 5.61118 3.15672 15.505
45 4 1.23316 8.49481 6.86674 10.5498
24 4 1.57626 6.11585 2.78031 10.8146
9 4 1.21337 10.8558 6.98103 8.66635
135 3 -0.806277 5.27985 5.5549 8.38081
129 3 -0.805885 8.20485 0.734906 15.9151
265 2 0.15417 13.471 2.46871 14.2773
241 2 0.220209 6.21511 7.18948 12.2491
37 4 0.976309 1.95362 13.4532 0.809059
279 2 0.155319 4.35953 12.743 1.23801
46 4 0.876164 3.27925 10.5006 3.58719
68 1 -0.648195 1.33674 12.475 6.77652
75 1 -0.663122 6.29967 8.00258 7.69617
139 3 -0.837311 2.8663 9.15778 2.9478
140 3 -0.812036 2.45415 10.9104 4.9362
151 2 0.00965271 3.46186 7.69292 4.45642
239 2 0.150248 5.56407 8.8626 7.68493
150 2 0.0422959 9.57638 8.92088 0.219837
160 2 0.0892696 7.03323 13.0152 7.70233
166 2 -0.0368775 3.21178 11.8203 2.48856
167 2 -0.0114545 4.9858 10.5322 3.85635
278 1 -0.674289 3.45745 12.2775 0.562352
217 2 0.23024 2.40737 12.8622 6.59403
218 2 0.193011 1.11405 11.9721 7.82363
195 2 0.164558 7.4964 9.4378 0.435361
291 2 0.275064 8.44633 10.9353 0.91361
159 2 -0.0192432 0.857079 12.5051 1.78195
252 2 0.166917 5.91623 7.38079 0.749242
219 2 0.158777 0.533609 13.2168 6.50328
262 1 -0.686794 5.76849 13.4259 2.66597
237 2 0.178843 6.46354 7.49404 6.59564
270 1 -0.682671 6.94979 10.522 3.51228
271 2 0.136795 6.50404 10.9233 4.44141
272 2 0.180135 7.40834 9.44177 3.6977
273 2 0.155121 6.30006 10.6129 2.62374
282 2 0.161136 6.21014 12.3685 2.84278
293 2 0.153128 3.22129 11.1679 0.747329
263 2 0.144072 4.67457 13.3362 2.9717
60 1 -0.677077 8.13446 10.2253 0.048677
200 2 0.186284 7.74255 7.10796 5.33429
238 2 0.193393 7.33525 8.26027 8.18596
220 2 0.180331 0.884988 12.0213 14.3432
22 4 1.51013 -0.0661762 13.9481 12.146
294 2 0.166653 2.93879 13.1563 15.9394
47 4 1.24768 3.96786 11.2219 9.62831
48 4 1.17719 7.56358 9.25138 12.4797
49 4 1.01655 5.68428 11.9763 12.1398
245 2 0.160296 4.69855 10.8312 14.1027
76 1 -0.661652 6.06059 8.18779 12.7898
77 1 -0.651425 4.74655 11.928 13.7647
121 3 -0.831718 0.623361 13.0276 11.184
136 3 -0.806474 4.27986 7.97019 9.97632
38 4 1.27874 5.469 13.399 8.26521
142 3 -0.830264 2.36923 11.3564 9.73953
143 3 -0.785651 8.54517 8.13742 11.5088
144 3 -0.783661 8.35129 9.3704 14.067
145 3 -0.797909 4.56464 11.6405 11.1075
146 3 -0.770038 6.90867 10.8003 12.0957
35 4 1.29708 1.06838 11.3742 10.6266
141 3 -0.840246 4.59317 12.0551 8.46971
168 2 0.0798683 4.28935 9.53847 9.52278
169 2 0.00746597 6.42444 13.5526 11.948
244 2 0.12891 5.52491 12.6108 14.3353
240 2 0.178971 5.96299 8.08962 13.8805
223 2 0.144851 2.48443 10.3176 12.0937
196 2 0.150198 6.86535 11.422 15.6792
18 4 1.06902 8.81277 10.3611 15.1963
242 2 0.174778 5.22201 8.85723 12.3464
243 2 0.172803 3.69949 12.4642 13.5831
ITEM: TIMESTEP
200
ITEM: NUMBER OF ATOMS
295
ITEM: BOX BOUNDS xy xz yz pp pp pp
-8.3884352000000000e+00 1.5144700000000000e+01 -7.6974000000000000e+00
0.0000000000000000e+00 1.4189300000000001e+01 -6.9103519999999996e-01
0.0000000000000000e+00 1.6498000000000001e+01 5.8050000000000002e-01
ITEM: ATOMS id type q x y z
6 4 1.20858 1.08479 1.1944 6.28072
7 4 1.30504 -0.13278 3.52236 1.76491
8 4 1.26237 -0.19601 3.60948 7.98
10 4 1.26116 -1.84908 5.98728 5.89819
25 4 1.53727 0.385886 6.07188 3.60105
27 4 1.0682 2.58988 6.67964 5.73251
50 1 -0.664639 2.93374 1.06569 2.32558
51 1 -0.667468 2.69477 1.73455 5.53109
205 2 0.174955 5.54874 3.13641 3.54916
171 2 0.159145 3.67929 0.564607 3.04526
79 3 -0.785187 0.25073 0.611275 5.02573
250 2 0.190548 3.90596 2.95738 0.433991
178 2 0.146448 -1.30984 5.36327 0.737597
82 3 -0.804488 0.452554 2.77073 0.509952
84 3 -0.857589 0.389823 2.44578 7.12331
85 3 -0.778012 -1.47161 4.7071 6.86936
104 3 -0.812138 3.86312 3.27084 7.66838
102 3 -0.764271 0.773311 4.71405 2.6554
103 3 -0.816879 -1.08349 6.09659 4.19084
251 2 0.22547 3.02679 4.25111 1.49015
106 3 -0.818949 1.37009 6.1235 4.81536
107 3 -0.827124 3.48465 5.62765 6.46484
170 2 0.177295 3.41665 2.12524 1.81769
26 4 1.55019 4.5267 4.64256 7.151
172 2 0.177078 1.87324 1.17311 2.90618
173 2 0.174946 2.73859 1.44149 4.34119
174 2 0.199823 3.41758 1.11742 6.22662
175 2 0.226346 2.721 2.88611 5.63576
81 3 -0.804457 -0.723785 2.40048 2.80451
276 2 0.187807 5.26039 1.34227 0.653434
179 2 0.188888 1.16413 5.61357 7.93596
274 1 -0.670577 6.33352 1.9316 0.668373
52 1 -0.663492 -1.7645 4.41896 1.2939
78 3 -0.771819 1.50047 0.304258 0.0741588
247 1 -0.651287 3.99021 3.90994 1.09322
249 2 0.151857 4.89896 3.77848 1.89932
176 2 0.165386 -2.19116 4.69625 2.31663
3 4 1.29532 0.25058 2.21393 15.8481
53 1 -0.683028 1.28198 4.6389 8.55946
285 2 0.171309 -0.773436 1.56824 12.9216
20 4 1.25365 3.70853 1.94794 8.96616
23 4 1.29443 2.89228 2.56007 13.8575
28 4 1.31116 4.24723 4.71369 12.4055
257 3 -0.788083 3.00384 6.81824 16.1085
61 1 -0.663878 2.26079 2.22577 10.1609
64 1 -0.687605 3.17698 0.863081 12.9402
83 3 -0.811706 -0.909462 3.2027 9.3477
208 2 0.203382 3.98677 1.00951 12.1088
97 3 -0.813955 4.18006 2.66109 14.773
98 3 -0.760631 1.36955 2.69016 14.7428
99 3 -0.867234 4.9566 1.95555 9.92322
108 3 -0.800839 2.95716 3.83023 12.7965
259 2 0.0555628 0.0906155 6.88062 15.304
110 3 -0.84177 3.69132 6.03189 11.6466
148 2 0.0374961 -1.12129 5.83239 11.1552
269 2 0.169727 0.21152 2.79664 11.8066
154 2 -0.0051103 1.86194 6.91333 9.84565
181 2 0.159651 0.98652 4.74051 9.66006
185 2 0.175402 0.32443 6.22764 9.43279
267 1 -0.663195 -0.327393 1.6724 11.8076
197 2 0.182629 2.56722 1.7297 11.2579
198 2 0.168854 1.45022 1.63683 9.60771
199 2 0.19898 2.03687 3.3011 10.2463
86 3 -0.807331 -3.23376 6.48471 9.72545
268 2 0.152139 0.372747 0.884675 11.4359
11 4 1.06379 -2.03882 7.14845 10.5356
55 1 -0.667696 -0.113078 7.07922 10.0659
265 2 0.164311 -1.5007 2.53793 14.1598
96 3 -0.840668 3.32333 0.330057 8.44121
190 2 0.155457 -3.41653 7.17598 14.2972
180 2 0.241981 2.25983 4.06164 8.35387
206 2 0.168848 2.25171 0.491909 12.5807
1 4 1.24179 -5.11029 13.2825 1.16653
4 4 1.20541 -5.15247 12.7164 7.83242
12 4 1.13196 -2.15248 9.16462 1.39584
15 4 1.47867 -2.55396 8.84282 6.94175
16 4 1.46172 -3.96078 11.0312 5.25789
30 4 1.26053 1.47939 8.62914 2.13118
31 4 1.22029 -1.45205 11.5051 3.69411
111 3 -0.832512 0.673055 7.35317 2.66701
56 1 -0.684053 -2.87455 7.82512 2.47249
213 2 0.191828 -1.07884 12.4478 1.62942
65 1 -0.670753 1.75193 7.84574 7.06287
66 1 -0.650172 -1.2264 13.0665 2.60612
157 2 0.0076338 0.977697 9.59844 6.53769
210 2 0.169515 1.71628 7.80803 8.19767
88 3 -0.793159 -3.22899 9.99644 0.53651
90 3 -0.839106 -1.73859 7.39731 6.62032
91 3 -0.783649 -5.39298 10.5798 4.43462
92 3 -0.833351 -3.21666 9.65401 5.69878
93 3 -0.808411 -4.38173 11.9838 6.60713
212 2 0.197418 -2.26892 13.5549 2.80222
112 3 -0.809405 1.82405 8.23752 0.621828
113 3 -0.789147 -1.29357 10.1921 2.36213
114 3 -0.813388 -2.95905 11.9235 4.26862
214 2 0.154888 -0.338084 13.6318 3.02045
116 3 -0.796712 -0.118888 11.3726 4.71057
155 2 0.0585739 0.340365 9.87363 2.01365
287 2 0.142168 -3.30519 7.17098 1.67228
188 2 0.200764 -3.68374 8.317 3.06872
89 3 -0.818016 -3.82537 8.41028 8.08187
211 2 0.198518 0.71923 7.77089 6.56242
115 3 -0.84958 -1.63483 9.82808 7.75617
33 4 1.00015 1.13866 11.0469 5.63875
87 3 -0.77208 -6.01784 11.9318 2.17303
215 2 0.208483 -2.05659 12.5279 7.12287
289 2 0.179324 -0.593281 7.4547 0.290783
280 3 -0.812066 -3.82388 12.719 0.315553
80 3 -0.788209 -6.60612 13.0648 7.28639
187 2 0.250498 -2.12676 7.217 3.17479
149 2 0.109459 -7.01883 12.8733 4.39167
13 4 1.04689 -6.46645 11.4003 3.62744
67 1 -0.652461 -1.63918 12.5651 8.22812
209 2 0.111981 2.45153 8.76954 6.71271
221 2 0.177526 0.336323 9.95536 14.7222
14 4 1.42924 -4.09572 11.9746 15.993
17 4 1.06464 -2.96532 9.32841 12.7293
32 4 1.0683 -1.55703 10.835 8.97657
34 4 1.35943 -1.48765 11.7619 14.1432
258 2 0.053596 2.02161 9.03503 14.4698
261 2 0.209828 -0.17892 8.69133 13.7861
58 1 -0.675217 -3.89079 8.15317 14.0379
59 1 -0.655974 -4.15814 10.4537 11.5939
69 1 -0.654322 0.164724 11.1359 15.0265
224 2 0.149813 1.03583 9.36929 11.6473
186 2 0.128669 0.529317 7.375 10.9389
94 3 -0.808344 -2.49938 8.25114 11.5654
95 3 -0.809159 -5.23124 11.4418 14.8932
117 3 -0.80515 -1.74247 10.4043 13.3956
118 3 -0.821559 -1.08748 13.0518 13.2041
119 3 -0.789508 -2.5143 12.1821 15.3075
120 3 -0.809802 -0.230569 10.842 9.90597
147 2 -0.0159087 -5.34499 11.5804 8.99713
256 1 -0.652252 0.656717 8.08701 14.1663
156 2 0.00406282 -2.96424 10.5333 10.0105
184 2 0.146742 -0.623944 8.17092 9.23392
189 2 0.200692 -1.00145 9.67342 15.932
191 2 0.155358 -4.26723 8.68098 14.9641
192 2 0.209003 -4.92504 10.4782 12.4517
193 2 0.208589 -4.33402 9.72558 10.6987
194 2 0.166279 -3.72228 11.4096 11.3372
225 2 0.183451 1.10409 10.606 13.1819
288 2 0.171055 -2.60281 8.6154 15.5049
260 2 0.158858 0.971365 7.45619 13.3129
255 4 0.974655 1.62065 7.87306 15.8924
292 2 0.194341 -2.39639 13.0293 9.0168
207 2 0.227713 -4.03822 13.9123 13.8317
216 2 0.181883 -0.560762 13.0139 8.27784
57 1 -0.654299 -1.76905 8.91246 16.3887
222 2 0.167945 0.0759762 11.2823 16.1195
2 4 1.21833 13.893 1.23717 3.84997
21 4 1.02386 6.88439 4.6205 5.10033