ITEM: TIMESTEP
0
ITEM: NUMBER OF ATOMS
295
ITEM: BOX BOUNDS xy xz yz pp pp pp
-8.3339999999999996e+00 1.5144700000000000e+01 -7.6974000000000000e+00
0.0000000000000000e+00 1.4189300000000001e+01 -6.3660000000000005e-01
0.0000000000000000e+00 1.6498000000000001e+01 5.8050000000000002e-01
ITEM: ATOMS id type x y z
6 4 1.13839 1.77812 5.90956
7 4 0.0947619 3.785 2.04856
8 4 -0.503808 3.85947 7.81642
10 4 -2.13824 6.04714 6.00826
25 4 0.199637 6.03465 4.06003
27 4 2.28271 6.87289 6.20941
50 1 2.71019 0.420565 2.94568
51 1 2.56273 2.87209 5.24365
52 1 -1.01626 4.86526 0.929414
78 3 0.966198 0.352197 0.67962
79 3 0.452039 1.25634 4.6163
177 2 -1.69555 4.32076 0.113008
81 3 -0.923935 2.41055 2.50449
82 3 1.31507 3.13311 0.862297
84 3 0.198654 2.91868 6.82951
85 3 -2.05324 4.72225 7.05937
249 2 2.6423 5.27153 1.75563
102 3 0.647911 4.65752 3.27171
103 3 -1.50135 5.89343 4.51275
104 3 4.0345 3.76236 7.53598
106 3 0.967493 6.3165 5.54382
107 3 3.64821 6.13613 6.36119
170 2 3.19922 1.38329 2.49592
178 2 -0.102516 5.3718 0.4021
172 2 1.76653 0.732273 3.64287
173 2 2.33133 2.78446 4.06636
174 2 3.45539 2.26061 5.54784
175 2 2.36823 3.91275 5.84048
176 2 -1.61798 5.68748 1.52451
274 1 5.92449 2.09264 1.10718
250 2 4.30826 5.00932 2.69213
251 2 3.71523 3.86344 1.20883
180 2 1.587 4.97306 7.84109
276 2 5.11505 1.32209 1.009
247 1 3.71462 4.93627 1.63584
96 3 4.21366 0.938207 7.53673
277 2 5.64786 3.08611 1.60274
80 3 1.80926 0.611924 6.83881
187 2 -2.46999 6.88765 2.69221
3 4 0.475217 2.56537 16.2985
257 3 2.71536 7.08665 15.7272
265 2 -1.76052 3.62884 15.9502
20 4 4.03362 2.4851 8.49074
23 4 2.93698 2.32351 14.0942
28 4 4.11266 4.62167 12.63
232 2 -1.9936 3.96842 12.3686
61 1 2.49347 2.73674 9.5909
55 1 0.440155 6.76448 11.4203
83 3 -0.894503 3.07237 9.21427
86 3 -2.58618 6.77002 9.92325
97 3 4.36171 2.5033 15.0223
98 3 1.65453 2.53635 15.0349
99 3 5.16627 2.75243 9.63297
108 3 2.97482 3.35343 12.5739
259 2 0.201735 5.68017 15.1222
110 3 3.41343 5.95361 12.0614
148 2 -0.757889 5.72573 11.9604
269 2 0.474859 2.01607 11.3014
264 1 -1.1445 2.86183 15.3614
181 2 0.913966 4.94078 9.60889
185 2 1.20335 6.16998 10.9764
267 1 -0.211415 1.17603 11.3484
197 2 2.03201 1.67261 9.37001
198 2 1.79919 3.57398 9.18655
199 2 2.85028 2.90687 10.6853
53 1 0.645077 5.11828 8.53153
100 3 5.81386 1.43483 11.6938
295 2 -2.75783 5.27114 11.3545
260 2 0.173245 6.777 13.3556
190 2 -3.93201 7.21901 14.0068
256 1 -0.0832192 6.86136 14.6026
284 2 -0.822098 3.25511 14.294
208 2 2.31749 0.853817 12.2967
64 1 2.60431 0.559208 13.3905
9 4 -3.97369 7.06228 9.19949
261 2 -1.17395 7.19421 14.824
179 2 0.0788966 6.12021 8.32773
152 2 4.45083 4.98987 14.2944
1 4 -5.7617 13.0984 1.52235
4 4 -4.62854 13.3961 7.31587
12 4 -2.55249 9.06535 1.33774
15 4 -2.6779 8.94371 7.11701
16 4 -3.80135 11.1353 5.25425
30 4 1.25026 8.22336 2.12487
31 4 -1.24453 11.595 3.48398
215 2 -0.711134 12.4498 6.55273
56 1 -3.25679 7.6235 2.46166
157 2 1.58515 10.1661 6.45164
65 1 2.14549 8.55875 7.38441
66 1 -1.37859 13.1692 2.51175
67 1 -1.02774 12.9629 7.62784
115 3 -1.6077 10.1153 7.55901
88 3 -3.75101 9.7943 0.578646
90 3 -1.94081 7.49029 6.58246
91 3 -5.08867 10.8978 4.32924
92 3 -3.46414 9.57883 5.88938
93 3 -4.33628 12.2014 6.36104
111 3 0.479062 7.33134 3.15572
112 3 1.35781 7.60957 0.676078
113 3 -1.38893 10.0746 2.09576
114 3 -2.53803 11.6754 4.50088
280 3 -4.55903 12.4374 0.777773
116 3 0.181254 11.3713 4.18485
155 2 0.0548716 9.45539 1.94261
213 2 -0.28817 13.5649 2.5509
188 2 -3.55512 8.18628 3.46196
222 2 -0.180615 10.8637 0.320459
211 2 1.39166 9.38578 7.64882
212 2 -1.68634 12.8661 1.4054
189 2 -0.4889 7.82135 0.266784
210 2 1.51674 7.15955 8.04632
292 2 -1.99863 13.6345 7.4757
171 2 -4.19427 13.3024 3.39785
214 2 -2.21002 13.7156 3.18452
151 2 2.58498 8.60422 5.59953
255 4 1.21403 7.59287 15.7733
14 4 -4.72658 11.8618 16.2625
17 4 -3.07281 9.3739 13.0321
32 4 -1.0925 11.2533 8.4221
34 4 -1.83867 11.9545 14.7746
207 2 -4.11829 13.6252 13.5039
89 3 -3.72514 8.63415 8.45246
58 1 -4.4514 8.17227 13.789
59 1 -4.17456 10.6219 12.1017
69 1 -0.323239 11.7823 15.8674
224 2 1.19359 9.80886 11.7216
154 2 2.06114 7.73474 10.8178
94 3 -2.21389 8.36954 12.0274
95 3 -6.02314 11.445 15.1755
117 3 -2.32218 10.2566 14.1108
118 3 -1.42356 12.9299 13.5787
119 3 -3.19283 12.2814 15.5808
120 3 0.193779 11.0495 9.31258
268 2 -7.40092 13.7302 11.081
147 2 -4.86558 12.6577 8.82752
156 2 -2.28988 12.4047 8.99087
184 2 0.0935389 7.99516 10.2079
186 2 0.864328 7.37446 12.2381
191 2 -4.74222 8.74754 14.7478
192 2 -5.14463 10.0039 12.2667
193 2 -3.63253 10.4636 11.0613
194 2 -4.2953 11.687 12.4251
206 2 -5.97957 13.6986 13.9864
288 2 -2.17882 9.28916 15.5138
221 2 0.2965 10.9533 15.4494
258 2 0.69666 8.57592 14.3509
11 4 -1.46743 7.36621 11.0081
225 2 0.529134 11.0199 12.9932
289 2 -2.81845 7.75915 16.3302
57 1 -2.21928 8.67824 16.4707
2 4 13.9646 1.33653 3.59437
21 4 7.19729 5.02508 4.97884
54 1 11.0769 5.88728 5.86819
36 4 9.39568 2.83542 4.25342
37 4 10.7657 0.29699 0.317461
40 4 11.7949 1.93469 5.74981
43 4 10.9714 3.426 1.6441
26 4 4.81212 5.09361 6.8747
183 2 10.8922 5.91055 4.78022
63 1 6.6619 5.52291 3.20612
74 1 9.99537 4.61655 0.545485
105 3 5.84847 4.68283 5.72362
122 3 8.39601 3.91183 4.86485
125 3 12.691 1.58133 4.47198
126 3 10.3025 2.22379 5.4128
127 3 11.9308 0.821988 6.96367
133 3 10.2454 3.49283 3.0149
134 3 10.9162 1.9682 1.02197
158 2 8.48521 1.54801 3.67756
286 2 10.5996 6.81602 6.37908
162 2 12.4054 3.40684 6.36755
62 1 8.00315 6.69135 5.82471
281 2 11.0712 5.93015 7.89252
182 2 10.8071 4.89025 6.31712
205 2 5.69373 4.95796 2.93014
246 4 4.5449 5.8169 0.145523
201 2 8.12245 6.30306 6.88394
203 2 7.41878 5.40073 2.43232
204 2 6.39159 6.61046 3.42621
283 2 13.4104 0.252407 1.60632
228 2 9.04883 2.18717 7.41589
234 2 9.62947 5.44149 1.32722
200 2 8.93521 6.96973 5.38462
164 2 12.6021 4.03107 1.91496
275 2 6.90952 1.71273 1.36497
135 3 5.73468 5.95085 7.94886
161 2 8.74247 4.7273 8.22656
5 4 13.7009 1.55505 9.95126
138 3 7.46511 6.53534 10.0568
101 3 4.96931 5.04863 15.7394
39 4 8.84368 3.35562 9.36762
41 4 8.30094 1.99754 14.6677
42 4 11.2348 2.94312 11.484
266 2 13.5386 1.82913 15.3505
241 2 6.5929 6.00964 12.9787
72 1 9.80321 3.22739 14.4995
73 1 12.1783 4.42576 12.0145
76 1 6.60681 6.62932 13.8965
45 4 8.66736 6.89723 11.0333
233 2 11.5264 4.71675 12.9361
124 3 7.51153 3.17916 10.1311
128 3 8.06205 1.49818 13.1865
129 3 8.97858 0.73046 15.7706
130 3 7.13071 2.97637 15.2693
131 3 12.3046 1.85106 10.987
132 3 10.1574 3.57615 10.3962
235 2 8.48418 4.85366 16.4958
24 4 6.05935 2.91597 10.9841
44 4 6.08951 6.87044 9.1831
137 3 9.92982 6.99767 10.1082
163 2 10.4816 2.30561 12.8926
165 2 8.79022 5.50533 11.8564
226 2 8.1068 1.08581 8.73849
229 2 9.62731 3.66231 13.516
230 2 10.8513 2.75497 14.5323
231 2 9.6206 3.89228 15.4991
136 3 4.69166 7.15565 10.2359
109 3 5.50966 4.1834 11.962
240 2 7.22038 6.15608 14.6939
242 2 5.49418 6.84197 14.268
19 4 5.45835 3.29548 15.8641
227 2 10.0744 1.23894 8.94898
22 4 7.05498 0.56297 12.4078
71 1 9.07668 1.72675 8.51879
285 2 14.2991 1.08523 12.2852
236 2 10.2313 5.56481 16.397
278 1 4.24111 12.343 0.235929
38 4 5.1393 13.3048 7.67752
46 4 3.45328 10.0003 2.82982
68 1 1.92814 12.808 5.73532
252 2 6.78092 7.02513 0.474952
139 3 2.72791 8.71909 2.40802
140 3 2.92442 10.6829 4.10333
141 3 4.39887 11.9591 7.98832
149 2 7.41014 10.0648 4.53501
254 2 5.25624 8.18194 0.124672
160 2 6.22083 12.7438 6.64072
166 2 3.43825 11.0514 1.4643
167 2 5.1034 9.69538 3.00441
291 2 6.12743 9.97033 0.162196
217 2 1.24979 13.5505 5.27862
218 2 3.03608 13.0132 5.51391
219 2 1.76301 12.6704 6.85464
237 2 6.28721 8.59052 7.44157
293 2 4.94266 11.7619 0.811731
263 2 4.97968 13.0126 3.10053
209 2 3.15327 8.70555 7.80886
262 1 5.91444 13.3919 2.64206
33 4 1.66033 11.1328 4.95104
270 1 8.2564 8.7773 3.34259
271 2 8.19824 8.05626 4.28216
272 2 9.25371 8.58802 2.59794
273 2 7.23374 8.78464 2.72055
282 2 6.80222 12.6559 2.61832
159 2 2.98612 12.7027 1.64141
202 2 7.19227 7.49202 5.74603
87 3 8.33224 11.5815 2.34652
150 2 8.54283 9.26393 0.629267
13 4 8.75411 10.6096 3.48533
196 2 7.67726 10.8437 0.959652
253 2 5.56229 7.25191 1.72578
216 2 -0.176412 13.5997 8.1257
248 1 5.68792 7.24007 0.623569
287 2 11.0104 7.16302 1.92773
60 1 7.13341 10.4988 0.00246279
18 4 7.93781 10.3536 15.4294
29 4 3.65206 7.26636 11.3137
279 2 4.33995 14.1083 16.0686
47 4 3.58059 11.3835 9.29649
48 4 7.05921 8.34837 13.33
49 4 5.34968 10.8509 11.9475
244 2 5.30505 11.909 14.1927
294 2 3.05346 12.2716 15.9411
77 1 5.11168 12.2743 13.1259
121 3 0.213957 13.3225 11.2225
239 2 5.33208 9.29283 8.96081
35 4 1.00875 11.987 10.729
142 3 2.44835 12.2555 9.88046
143 3 8.40918 8.12132 11.967
144 3 7.68682 9.07679 14.5331
145 3 4.41712 10.9372 10.6233
146 3 5.5138 9.28483 12.8656
245 2 3.79311 12.2471 12.8745
153 2 4.21269 8.40366 12.4727
168 2 2.73301 10.0215 8.54855
169 2 6.71106 11.968 12.1425
195 2 6.31254 11.9478 15.6757
220 2 0.290542 12.8204 15.8802
290 2 9.80888 8.14119 13.0584
223 2 2.36435 11.0718 12.5475
238 2 7.21449 8.99323 9.10873
75 1 6.2361 8.67971 8.56759
243 2 5.63621 13.1962 12.8323
70 1 1.29834 10.8216 12.226
123 3 6.00213 13.8793 9.05573
ITEM: TIMESTEP
100
ITEM: NUMBER OF ATOMS
295
ITEM: BOX BOUNDS xy xz yz pp pp pp
-8.3339999999999996e+00 1.5144700000000000e+01 -7.6974000000000000e+00
0.0000000000000000e+00 1.4181051000000000e+01 -6.3660000000000005e-01
0.0000000000000000e+00 1.6498000000000001e+01 5.7225099999999962e-01
ITEM: ATOMS id type x y z
6 4 1.06345 2.00032 5.88961
7 4 0.142314 3.84847 2.0812
8 4 -0.582748 3.82666 7.83686
10 4 -2.22494 6.07566 5.94037
25 4 0.17937 5.99369 4.08035
27 4 2.34647 6.92887 6.16629
50 1 2.74007 0.406169 2.85078
51 1 2.58651 2.88893 5.29137
52 1 -1.0917 4.92292 0.878923
78 3 1.10035 0.44121 0.719486
79 3 0.392123 1.34465 4.61095
80 3 1.67718 0.581455 6.97262
81 3 -0.848792 2.62919 2.53613
82 3 1.23796 3.27865 0.994336
84 3 0.238494 3.04686 6.80979
85 3 -2.01306 4.83675 6.97864
249 2 2.80328 5.83961 1.96463
102 3 0.760615 4.67999 3.24887
103 3 -1.48192 5.9155 4.44276
104 3 3.97599 3.89403 7.54566
106 3 1.0489 6.23256 5.41604
107 3 3.6778 6.14338 6.45789
170 2 3.1544 1.23497 2.21635
178 2 -0.233797 5.65975 0.510864
172 2 1.93167 0.851216 3.57707
173 2 2.60489 2.8125 4.17596
174 2 3.59981 2.55188 5.77088
175 2 2.23872 3.9985 5.59884
176 2 -1.75368 5.38268 1.59081
274 1 6.04664 2.32208 1.10114
250 2 4.38 5.06942 2.71623
251 2 3.33022 4.14415 1.50332
180 2 1.44578 4.8663 7.80182
276 2 4.9999 1.84329 1.14785
247 1 3.66746 5.15524 1.82773
96 3 4.22646 1.06275 7.35301
179 2 -0.106039 6.07613 8.04973
177 2 -1.6994 4.54235 0.0209173
3 4 0.443424 2.62541 16.2824
257 3 2.6917 6.97514 15.7997
265 2 -1.63179 3.88647 15.8382
20 4 4.00075 2.57951 8.47137
23 4 2.86162 2.27619 14.1146
28 4 4.12895 4.60451 12.6443
232 2 -1.88122 4.26268 12.2168
61 1 2.30766 2.5864 9.39568
55 1 0.480835 6.94523 11.3654
83 3 -0.904335 2.9399 9.22769
86 3 -2.35515 6.70202 9.82895
97 3 4.3445 2.3572 15.0281
98 3 1.63244 2.65376 15.1694
99 3 4.91507 2.60302 9.67013
108 3 3.04464 3.46907 12.8745
259 2 0.110781 5.75755 15.1212
110 3 3.44854 5.87756 12.0893
148 2 -0.746609 6.00798 12.1703
269 2 0.839779 1.96411 11.2306
264 1 -1.11108 3.0138 15.3079
181 2 0.886986 5.33134 9.55443
185 2 0.986335 6.07095 10.8632
267 1 -0.0397469 1.1627 11.4304
197 2 1.86919 1.55449 9.08427
198 2 1.65001 3.55968 9.06492
199 2 2.59916 2.5069 10.4917
53 1 0.548577 5.15158 8.48776
100 3 6.10999 1.50991 11.6712
261 2 -1.16774 7.2784 14.7096
260 2 0.202102 6.98283 13.3432
190 2 -3.80055 7.24771 14.1206
256 1 -0.107072 6.94624 14.5672
284 2 -0.81096 3.18226 14.2607
208 2 2.60914 0.79222 12.2457
64 1 2.74906 0.518547 13.354
285 2 -0.477269 1.24191 12.5156
9 4 -3.85708 7.01349 9.18693
1 4 -5.69565 12.9817 1.5237
4 4 -4.62124 13.5625 7.30361
12 4 -2.55654 9.14846 1.42737
15 4 -2.81604 8.98643 7.21803
16 4 -3.82966 11.1234 5.30409
30 4 1.24398 8.29819 2.20247
31 4 -1.25832 11.399 3.41804
215 2 -0.323281 12.5771 6.64726
56 1 -3.11185 7.59133 2.38886
157 2 1.36013 9.76258 6.26172
65 1 2.14271 8.5222 7.47295
66 1 -1.27509 13.0321 2.42343
67 1 -0.918102 13.0785 7.60253
115 3 -1.72359 10.0851 7.77391
88 3 -3.77955 9.87879 0.848847
90 3 -1.91153 7.57224 6.64997
91 3 -5.11321 10.8133 4.36527
92 3 -3.63677 9.63934 5.94233
93 3 -4.16088 12.4049 6.31655
111 3 0.487053 7.30667 3.10291
112 3 1.21027 7.73841 0.584227
113 3 -1.41196 9.98017 2.09794
114 3 -2.58107 11.4785 4.36959
280 3 -4.53445 12.3954 0.716629
116 3 0.199037 11.2233 4.21265
155 2 0.209793 9.69604 2.29307
213 2 -0.117378 13.2158 2.61401
188 2 -4.01909 8.13701 2.87802
222 2 -0.399334 11.4057 0.484928
211 2 1.45345 9.31362 7.87599
212 2 -1.51265 13.0605 1.30381
189 2 -0.548513 8.00736 0.147542
210 2 1.44481 7.15654 7.99515
292 2 -1.92648 13.6827 7.36251
171 2 -4.24655 13.397 3.42663
214 2 -2.01258 13.6102 3.08867
187 2 -2.48907 7.04616 3.1426
287 2 -3.53392 6.90386 1.57711
255 4 1.18588 7.59369 15.7208
14 4 -4.52463 11.827 16.2785
17 4 -3.11831 9.40839 12.9381
32 4 -1.05656 11.3481 8.42564
34 4 -1.83797 11.946 14.6201
207 2 -4.09707 13.4184 13.5524
89 3 -3.88742 8.52051 8.39824
58 1 -4.42816 8.18482 13.868
59 1 -3.99884 10.811 11.983
69 1 -0.562552 11.9045 15.9539
70 1 1.25032 10.6231 12.0264
154 2 2.08043 8.01383 11.0049
94 3 -2.17758 8.49073 11.9875
95 3 -5.85158 11.3155 15.0765
117 3 -2.1134 10.1622 13.9739
118 3 -1.45082 13.0408 13.5201
119 3 -3.20436 12.0962 15.4494
120 3 -0.0555491 11.155 9.61575
268 2 -7.45599 13.6932 11.1008
147 2 -4.88913 12.7247 8.80886
156 2 -2.36788 12.4836 8.72746
184 2 0.162457 8.19091 10.2117
186 2 1.18311 7.33543 12.2478
191 2 -4.6712 8.81708 14.7758
192 2 -4.73007 10.2228 11.3488
193 2 -3.04474 11.1588 11.4152
194 2 -4.5015 11.6036 12.6224
206 2 -5.90956 13.7855 13.8883
288 2 -2.29744 9.37724 15.4598
221 2 -0.0770925 10.8558 15.6375
258 2 0.956834 8.52945 14.2727
11 4 -1.40248 7.40044 11.0115
225 2 0.328084 10.1601 12.303
289 2 -2.7821 7.76558 16.2294
57 1 -2.28215 8.73793 16.3742
2 4 13.97 1.41782 3.52447
21 4 7.16816 5.02565 4.94914
54 1 11.0017 6.06284 5.83142
36 4 9.38019 2.83643 4.22078
37 4 10.8225 0.36371 0.373597
40 4 11.8484 2.01684 5.79308
43 4 10.9218 3.32772 1.55549
26 4 4.80724 5.14865 6.86365
183 2 10.9227 5.71948 4.71097
63 1 6.91167 5.59549 3.04409
74 1 10.1111 4.67132 0.48958
105 3 5.73835 4.5514 5.55419
122 3 8.30717 3.95488 4.75114
125 3 12.7363 1.64861 4.55687
126 3 10.3181 2.14449 5.25674
127 3 12.1306 0.782432 6.85675
133 3 10.1998 3.45098 2.95392
134 3 11.024 1.85307 0.870575
158 2 8.42627 1.60289 3.64619
277 2 6.06012 3.29713 1.74598
162 2 12.4156 3.46601 6.48172
62 1 7.87434 6.62665 5.83238
281 2 11.0473 5.94279 7.8091
182 2 10.2952 5.49039 6.46203
205 2 5.74394 5.68832 2.8982
246 4 4.57444 5.80263 0.191665
201 2 7.75141 6.26211 6.91424
203 2 7.34854 4.78763 2.42858
204 2 7.50615 6.5706 2.91808
283 2 13.5612 0.295524 1.48339
228 2 9.21631 2.11026 7.54101
234 2 9.81212 5.49521 1.23571
135 3 5.74218 5.8385 8.01318
164 2 12.5016 4.03055 1.70283
275 2 6.98845 1.59846 1.16933
200 2 8.94182 6.85406 5.49023
236 2 11.1321 5.02222 0.000162392
5 4 13.7115 1.53039 10.1552
138 3 7.38675 6.67826 10.0731
101 3 4.94416 5.08485 15.7977
39 4 8.87071 3.33885 9.43944
41 4 8.37453 2.04127 14.6898
42 4 11.2049 3.05395 11.5554
266 2 13.4908 2.00132 15.55
241 2 6.56556 6.05569 13.1974
72 1 9.7669 3.26414 14.481
73 1 12.0757 4.47976 12.2377
76 1 6.3662 6.86284 13.996
45 4 8.64842 6.80666 10.9355
233 2 11.6449 4.56946 13.3083
124 3 7.55655 3.32031 10.2699
128 3 8.18019 1.33343 13.223
129 3 8.91328 0.708281 15.9508
130 3 6.97979 2.83592 15.3843
131 3 12.4114 2.13789 10.8142
132 3 10.141 3.50772 10.3271
235 2 8.64778 5.02747 16.2018
24 4 6.0028 2.8543 10.937
44 4 5.93049 6.94233 9.26029
137 3 10.0874 7.0039 10.1654
163 2 10.3025 2.26401 12.8308
165 2 8.92261 5.41839 11.7768
226 2 8.37768 0.986036 8.91657
229 2 9.31577 3.79314 13.4574
230 2 10.7577 2.7948 14.4417
231 2 9.69625 3.97605 15.4021
19 4 5.52858 3.24585 15.7799
109 3 5.47632 4.10652 11.8887
240 2 6.69239 6.61678 15.0466
152 2 4.82158 5.07852 14.1887
161 2 8.8056 4.5652 8.30541
227 2 10.2911 1.28998 8.9538
22 4 7.10962 0.463919 12.386
71 1 9.24757 1.71837 8.65219
242 2 5.21556 7.20352 14.0224
136 3 4.53737 7.1305 10.0961
295 2 11.7689 5.34144 11.4627
123 3 13.5903 0.323282 9.07048
278 1 4.38675 12.3294 0.245599
38 4 5.28784 13.29 7.77041
46 4 3.51127 9.99466 2.85211
68 1 2.20633 12.7454 5.72561
252 2 6.71377 7.11995 0.267733
139 3 2.84257 8.58686 2.7045
140 3 2.79682 10.7533 4.02977
141 3 4.31088 12.0603 8.0285
149 2 7.48654 10.0704 4.679
254 2 5.26911 8.21197 0.170987
160 2 6.6034 12.7117 6.9327
166 2 3.52712 10.9771 1.43668
167 2 5.08644 9.67616 3.21652
151 2 2.64988 8.59573 5.66491
217 2 1.57872 13.6356 5.41193
218 2 3.31686 12.8214 5.36991
219 2 2.06931 12.5104 6.8287
237 2 6.41914 8.56941 7.49263
293 2 5.29429 11.7339 0.685286
263 2 5.09303 12.9829 2.97381
209 2 3.22204 8.58024 7.92924
262 1 5.97094 13.4634 2.53211
33 4 1.66601 11.0815 5.05984
270 1 8.08893 8.72873 3.36492
271 2 8.00518 7.93089 4.22825
272 2 9.13141 8.54743 2.53748
273 2 7.10666 8.81333 2.86271
282 2 6.96909 12.7664 2.58916
159 2 3.35657 12.796 1.69248
202 2 7.13576 7.42747 5.54497
87 3 8.2861 11.633 2.52227
150 2 8.69753 9.34804 0.661677
13 4 8.74113 10.5077 3.55455
196 2 7.64982 10.9206 1.0162
253 2 5.40562 7.14644 1.80647
286 2 10.7646 7.22604 5.89273
248 1 5.69785 7.27559 0.606644
216 2 -0.129359 13.7538 8.17371
18 4 8.16786 10.3391 15.45
29 4 3.63976 7.31215 11.3852
60 1 6.6898 11.0574 16.4563
47 4 3.55998 11.4109 9.279
48 4 7.13523 8.36396 13.3028
49 4 5.28734 10.7772 11.8027
244 2 4.88698 11.7562 14.0037
294 2 3.14978 12.2204 16.069
77 1 4.94056 12.2301 12.9818
121 3 0.223871 13.1697 11.347
239 2 5.09603 9.26581 8.74266
35 4 0.956021 11.9925 10.603
142 3 2.40608 12.2381 9.95816
143 3 8.29433 7.91627 11.982
144 3 7.65671 9.13032 14.5871
145 3 4.63487 10.8574 10.2962
146 3 5.62667 9.4491 12.576
245 2 3.93096 12.4869 12.4762
153 2 4.36989 8.31562 12.5232
168 2 2.73271 10.0315 8.62014
169 2 6.5609 11.9437 11.8808
195 2 6.56962 11.9698 15.6369
220 2 0.181125 12.8656 15.9007
290 2 9.83763 7.91229 13.108
223 2 1.72575 11.3266 12.8541
238 2 7.02551 9.20073 9.19412
75 1 6.11938 8.72492 8.58344
243 2 5.72036 13.1105 12.864
279 2 4.23759 13.9664 15.8826
224 2 1.98671 9.94966 11.5639
291 2 5.77368 10.4002 16.492
ITEM: TIMESTEP
200
ITEM: NUMBER OF ATOMS
295
ITEM: BOX BOUNDS xy xz yz pp pp pp
-6.3660000000000005e-01 2.2591999999999999e+01 7.4473000000000003e+00
0.0000000000000000e+00 1.4172802000000001e+01 -6.3660000000000005e-01
0.0000000000000000e+00 1.6498000000000001e+01 5.6400200000000034e-01
ITEM: ATOMS id type x y z
6 4 1.27911 1.86737 5.85824
96 3 4.2352 0.872998 7.45828
247 1 3.87863 5.03964 1.89938
276 2 5.1907 1.53888 1.21182
251 2 2.97944 4.51957 1.48167
250 2 4.4355 4.44875 2.61176
50 1 2.62229 0.492579 2.83597
51 1 2.66778 3.07162 5.24929
274 1 6.11789 2.22389 1.23538
78 3 1.03272 0.249732 0.566738
175 2 2.30017 3.96902 5.86491
80 3 1.87493 0.593589 6.80767
174 2 3.56244 2.67818 5.64369
173 2 2.67211 3.25416 4.13519
172 2 1.7509 0.753744 3.60241
170 2 3.03669 1.35632 2.27487
107 3 3.68142 6.16716 6.37101
104 3 3.9877 3.89069 7.60162
21 4 7.12767 5.18644 4.94281
26 4 4.79625 5.14738 6.95507
249 2 3.69368 6.04779 2.38401
275 2 7.10922 1.71246 1.41466
63 1 6.78159 5.77553 3.08969
135 3 5.84525 5.934 7.98167
234 2 9.94358 5.66908 1.12956
105 3 5.72752 4.77355 5.53848
122 3 8.54543 3.84866 4.84248
286 2 10.3745 6.86258 6.46472
203 2 7.5622 5.10575 2.56263
201 2 8.17149 6.28793 6.66567
246 4 4.60943 5.81703 0.210093
205 2 5.71794 5.4961 2.73581
277 2 6.02186 3.29737 1.63321
62 1 7.86589 6.76179 5.64513
74 1 10.0787 4.74323 0.551851
235 2 9.08517 4.08875 0.480096
79 3 0.443142 1.24755 4.63184
161 2 8.50495 4.36969 8.21933
64 1 2.82294 0.561802 13.2275
208 2 2.60781 0.641398 12.1111
100 3 5.94888 1.50349 11.6426
20 4 3.94235 2.49816 8.54287
23 4 2.88222 2.20326 14.1565
28 4 4.09799 4.57338 12.7488
199 2 2.62604 2.42905 10.5785
61 1 2.29299 2.48058 9.4147
198 2 1.67992 3.43371 9.1942
197 2 1.77905 1.56078 8.85901
269 2 0.613933 1.80022 11.6894
97 3 4.28873 2.37099 15.0686
98 3 1.56501 2.33396 15.0872
99 3 4.90329 2.72089 9.70012
108 3 3.02071 3.38832 12.7347
110 3 3.43758 5.97036 12.2262
138 3 7.31203 6.82729 10.1503
101 3 4.93849 4.92934 15.8492
241 2 6.76075 5.99941 13.3106
136 3 4.56949 7.09979 10.0959
242 2 5.07463 6.98787 13.6413
76 1 6.23482 6.86631 13.9385
22 4 7.07102 0.552899 12.4132
45 4 8.60246 6.79093 11.0038
39 4 8.75265 3.23664 9.47596
152 2 4.50924 4.87506 14.3736
240 2 6.43232 6.7804 15.0801
109 3 5.46687 4.09113 12.0828
19 4 5.4923 3.15288 15.8761
124 3 7.40191 3.10272 10.1698
130 3 6.9736 2.74394 15.2692
3 4 0.505844 2.42071 16.3405
24 4 5.88475 2.88896 10.9297
165 2 8.59099 5.2637 11.724
44 4 5.89833 6.99444 9.16801
137 3 9.83644 6.88741 10.1536
267 1 -0.130963 0.995799 11.3189
1 4 9.37942 13.0021 1.46974
4 4 10.5766 13.381 7.23295
214 2 13.1454 13.5471 2.69864
171 2 10.8903 13.4021 3.2792
16 4 11.1251 10.9566 5.29776
292 2 13.0801 13.569 7.47151
212 2 14.162 12.6964 1.24497
188 2 11.1737 8.121 2.75421
280 3 10.6628 12.387 0.793368
114 3 12.476 11.5689 4.20975
93 3 10.9213 12.1127 6.28799
66 1 14.1432 12.9751 2.36996
67 1 14.1411 12.9837 7.53208
92 3 11.455 9.67364 6.14248
88 3 11.5169 9.90673 0.695586
91 3 9.87587 10.7175 4.36644
252 2 6.839 6.76272 0.926044
149 2 7.11168 10.1514 4.36935
248 1 5.75554 7.23363 0.658996
167 2 5.18493 9.56483 3.32624
253 2 5.28856 7.72333 1.60052
196 2 7.66321 10.855 0.964542
13 4 8.54686 10.5274 3.47438
150 2 8.79479 9.18285 0.48299
87 3 8.2918 11.6459 2.44562
202 2 6.95936 7.51466 5.7613
204 2 7.06005 6.89773 3.00011
291 2 6.44724 9.52607 0.16565
273 2 6.85083 8.81832 2.6786
272 2 8.90391 8.57456 2.40924
271 2 7.81172 8.02343 4.04025
270 1 7.86904 8.77873 3.18733
237 2 7.09318 8.46651 7.56011
200 2 8.71234 7.2254 5.0993
239 2 5.35852 9.10148 7.94373
206 2 9.41063 13.6744 13.7975
14 4 10.5724 11.8334 16.2714
194 2 10.4396 11.3706 12.6667
193 2 12.0362 11.6061 11.6144
192 2 10.6899 10.4857 10.9271
207 2 11.1941 13.6492 13.4356
89 3 11.3692 8.55709 8.56674
58 1 10.8855 8.48176 13.7956
59 1 11.1565 10.9342 11.8503
191 2 10.5682 9.04344 14.6811
156 2 12.8337 12.7313 8.94695
147 2 10.2973 12.7151 8.77318
268 2 7.82879 13.7586 10.7134
95 3 9.37622 11.3373 15.0851
119 3 11.9154 12.2938 15.5124
118 3 13.722 13.0904 13.4636
18 4 8.12021 10.3984 15.3325
29 4 3.6885 7.25908 11.3761
146 3 5.81274 9.41861 12.3424
48 4 7.0668 8.3216 13.1387
75 1 6.29006 8.68173 8.36943
238 2 6.70447 9.37644 9.25788
49 4 5.42026 10.8636 11.6633
290 2 9.98836 8.20156 13.0559
34 4 13.2679 11.9747 14.5936
195 2 6.35325 11.7073 15.6005
169 2 6.52251 12.1709 11.9868
143 3 8.50116 7.83919 12.1685
153 2 4.34632 8.48711 12.2728
144 3 7.69343 9.2656 14.3163
254 2 5.02336 8.47909 16.2008
60 1 6.64552 10.8685 16.4755
2 4 14.0103 1.56926 3.46624
106 3 16.2331 6.32514 5.41307
54 1 10.9691 6.14149 5.86209
36 4 9.42683 2.72521 4.25441
37 4 10.8708 0.394577 0.29489
40 4 11.8795 1.94168 5.72883
43 4 10.9733 3.46626 1.63983
164 2 12.4812 4.26815 1.80818
183 2 10.8531 6.27339 4.75874
228 2 9.01854 2.00826 7.5568
103 3 13.5314 6.04567 4.50457
283 2 13.5295 0.44393 1.4742
182 2 10.8117 5.05407 6.11305
125 3 12.7607 1.62059 4.47013
126 3 10.3519 2.07197 5.39169
127 3 12.1733 0.923223 6.927
133 3 10.2828 3.37722 3.06155
134 3 11.022 1.87699 0.907184
158 2 8.45614 1.46608 3.73502
281 2 10.9488 5.95834 7.83422
162 2 12.4097 3.44312 6.31116
7 4 15.1693 3.91623 2.02516
177 2 13.4865 4.54648 0.250203
287 2 11.822 6.76609 1.63028
8 4 14.6166 3.89902 7.76818
10 4 12.9218 6.08356 5.9645
25 4 15.2758 6.10009 4.08674
180 2 16.685 4.89243 8.0416
27 4 17.463 6.92016 6.21496
52 1 14.0793 5.1746 1.03056
102 3 15.6963 4.64121 3.40654
176 2 13.5311 5.71114 1.87043
81 3 14.1623 2.68256 2.38679
82 3 16.4663 3.30744 0.83431
84 3 15.4192 2.9556 6.77534
85 3 13.1184 4.78587 6.91565
178 2 14.875 5.82497 0.537235
5 4 13.7132 1.6394 10.1568
123 3 13.4411 0.404878 9.12455
295 2 11.3423 5.47471 12.1611
148 2 14.3824 6.02181 11.9607
41 4 8.2839 1.99848 14.671
42 4 11.2732 3.1612 11.5537
266 2 13.3955 1.87788 15.8733
71 1 9.10735 1.59401 8.70286
72 1 9.66121 3.24502 14.4891
73 1 12.0749 4.58586 12.4105
227 2 10.1658 1.40538 9.13058
231 2 9.56254 3.94531 15.4709
233 2 12.1327 4.42011 13.5242
230 2 10.5757 2.54411 14.6757
128 3 8.21557 1.44132 13.2183
129 3 8.94549 0.727201 15.8615
229 2 9.65547 3.89915 13.5636
131 3 12.3786 2.04429 11.2114
132 3 10.2571 3.65106 10.4357
226 2 8.30872 0.823643 9.03419
163 2 10.2996 2.43434 12.8458
181 2 15.9848 5.11095 9.87463
9 4 11.1998 7.03822 9.17446
285 2 14.2903 0.619508 12.1909
257 3 17.9386 6.977 15.6836
265 2 13.5861 3.7538 16.0318
284 2 14.1182 2.92767 14.4183
256 1 14.9491 7.09708 14.5115
259 2 14.9505 5.94819 15.0326
260 2 15.2404 6.99176 13.242
264 1 13.9808 2.79844 15.5231
232 2 13.1014 4.62688 11.8458
53 1 15.7177 5.10413 8.73649
55 1 15.621 6.8596 11.3233
83 3 14.2642 3.01602 9.1497
86 3 12.6337 6.61344 9.81443
179 2 15.1352 6.06051 8.37881
185 2 16.3277 6.04514 10.8514
236 2 9.89229 5.49492 15.9938
278 1 19.4277 12.3794 0.554088
38 4 20.4244 13.4742 7.71964
46 4 18.7513 9.87302 2.93545
68 1 17.1542 12.8467 5.78275
216 2 14.9861 13.586 8.03029
139 3 17.8932 8.6146 2.65316
140 3 18.0397 10.7932 3.98974
141 3 19.5307 12.1185 7.9244
159 2 18.4167 12.7411 1.82133
33 4 16.7977 11.1819 4.97018
262 1 21.1336 13.5825 2.54113
166 2 19.0841 10.682 1.42316
90 3 13.3267 7.64161 6.67444
151 2 17.694 8.67285 5.69938
217 2 16.4579 13.7548 5.82366
218 2 18.1928 13.0597 5.22833
219 2 17.3727 12.4525 6.8279
209 2 18.3795 8.57656 7.946
293 2 20.4404 12.11 0.93436
263 2 20.1745 13.2066 2.98659
12 4 12.9067 8.94868 1.38664
282 2 21.9797 12.8019 2.52927
160 2 21.7162 13.0514 6.78347
15 4 12.4024 8.99842 7.24597
30 4 16.4246 8.2686 2.14463
31 4 13.906 11.4577 3.40973
187 2 12.5879 6.98257 3.35272
189 2 14.721 7.95005 0.228657
215 2 14.4519 12.4115 6.52557
211 2 16.7006 9.38613 7.93633
222 2 14.7321 11.1277 0.296431
56 1 12.0386 7.51299 2.41797
213 2 15.1212 13.3676 2.80879
155 2 15.5563 9.72472 2.10156
116 3 15.362 11.3181 4.4163
157 2 16.6956 9.95853 6.28113
65 1 17.358 8.58045 7.4944
113 3 13.9036 9.98811 2.14324
112 3 16.6039 7.8244 0.519449
111 3 15.5917 7.28396 3.03547
115 3 13.2421 10.1969 7.81737
294 2 18.9731 11.5707 -0.00196883
210 2 16.6479 7.23778 8.00551
224 2 17.5984 10.7574 12.1297
261 2 13.9681 7.56862 14.7167
243 2 20.2687 13.0665 12.8009
47 4 18.7618 11.4247 9.22528
223 2 15.8245 10.7745 12.8786
220 2 15.3403 12.9453 15.9362
244 2 20.2669 11.599 14.0295
120 3 15.1346 11.1617 9.63699
77 1 19.963 12.0386 12.9949
121 3 15.3935 13.2536 11.3899
168 2 18.1483 9.99218 8.6031
35 4 16.1014 11.9378 10.7359
142 3 17.6098 12.3334 9.65782
245 2 18.8627 11.9728 12.9063
145 3 19.6517 10.9558 10.4075
255 4 16.3403 7.63767 15.6275
57 1 13.0166 8.64273 16.3911
289 2 12.4834 7.66784 16.2769
225 2 16.1984 9.57594 11.6209
11 4 13.634 7.48452 10.8493
258 2 16.0779 8.69139 14.2827
221 2 15.1726 10.9359 15.3965
288 2 12.987 9.26556 15.358
17 4 12.1761 9.55434 12.7541
32 4 13.925 11.4099 8.57716
190 2 11.4835 7.59143 14.175
69 1 14.6478 11.922 15.8037
70 1 16.4844 10.5586 11.9883
186 2 16.2201 7.31297 12.1037
184 2 15.191 8.13065 10.1386
154 2 17.2874 7.78974 10.8876
94 3 12.9645 8.52417 11.7741
117 3 12.9579 10.2039 13.911
279 2 19.1478 14.08 15.673
ITEM: TIMESTEP
300
ITEM: NUMBER OF ATOMS
295
ITEM: BOX BOUNDS xy xz yz pp pp pp
-6.3660000000000005e-01 2.2591999999999999e+01 7.4473000000000003e+00
0.0000000000000000e+00 1.4164553000000000e+01 -6.3660000000000005e-01
0.0000000000000000e+00 1.6498000000000001e+01 5.5575299999999928e-01
ITEM: ATOMS id type x y z
6 4 1.16398 1.98589 5.83016
96 3 4.30853 0.763122 7.61192
247 1 3.93938 4.95311 1.77272
276 2 5.2367 1.39866 1.28518
251 2 3.02908 4.43812 1.32503
250 2 4.62813 4.18461 2.19478
50 1 2.65984 0.482824 2.79891
51 1 2.66347 2.90631 5.10847
274 1 6.2241 2.08332 1.22837
78 3 0.961551 0.417474 0.571433
175 2 2.42963 3.90136 5.57064
80 3 1.89415 0.690015 6.76795
174 2 3.59627 2.33163 5.45377
173 2 2.60005 2.91821 3.91938
172 2 1.87582 0.931331 3.57213
170 2 3.26707 1.19518 2.19291
107 3 3.69901 6.17895 6.42351
104 3 3.98454 3.73381 7.4118
21 4 7.19751 5.12173 4.93247
26 4 4.78584 5.07812 6.88722
249 2 3.6114 5.8014 2.50655
275 2 7.22515 1.46863 1.1808
63 1 6.77065 5.68729 3.11492
135 3 5.80033 5.72633 8.02574
234 2 9.90964 5.57984 1.51895
105 3 5.79156 4.7467 5.61866
122 3 8.18567 3.92796 4.83777
252 2 7.12408 6.71255 0.718439
203 2 7.49387 5.15078 2.46084
201 2 8.36288 6.45517 6.80063
246 4 4.8337 5.76506 0.102296
205 2 5.66081 5.45086 2.7386
277 2 6.26132 2.87805 2.05867
62 1 7.94207 6.74835 5.77311
204 2 6.9751 6.82177 3.07255
235 2 9.2482 4.32335 0.263907
214 2 5.95385 0.13392 3.1506
161 2 9.07016 4.05767 7.97842
79 3 0.55348 1.43118 4.52956
64 1 3.03438 0.482408 13.3886
208 2 2.63501 0.560298 12.3628
100 3 5.99431 1.38983 11.6572
20 4 3.93992 2.49405 8.42671
23 4 2.82746 2.19035 14.1393
28 4 4.14809 4.55856 12.7799
199 2 2.5171 2.3194 10.4328
61 1 2.28708 2.45691 9.31153
198 2 1.74453 3.47303 9.05844
197 2 1.70421 1.54351 8.93851
269 2 0.786779 2.01155 11.4175
97 3 4.19846 2.40081 15.2136
98 3 1.38624 2.2693 14.9606
99 3 4.834 2.81366 9.69526
108 3 2.92674 3.53062 12.8469
110 3 3.70891 5.9784 12.2339
138 3 7.13866 6.7993 10.0787
101 3 4.90116 5.08876 15.9329
241 2 6.86827 5.97971 13.4623
136 3 4.56596 7.08935 10.0377
242 2 5.41638 7.19092 13.903
76 1 6.56771 6.9165 14.0533
22 4 7.09212 0.48713 12.3896
45 4 8.58023 6.6771 10.9454
137 3 9.89501 6.85535 10.0127
152 2 4.49958 4.94366 14.4353
240 2 6.87746 6.84103 15.1253
109 3 5.39379 3.91009 12.0212
19 4 5.40594 3.12382 15.9578
124 3 7.39819 3.30043 10.1775
130 3 6.86955 2.86642 15.401
267 1 0.0888013 1.19264 11.3145
24 4 5.92074 2.91717 10.9654
165 2 8.59785 5.05708 11.5879
44 4 5.87842 6.9118 9.17792
1 4 9.33595 13.026 1.43557
4 4 10.5227 13.4273 7.23499
286 2 10.6956 6.98761 6.17966
171 2 10.8391 13.3148 3.37136
16 4 11.1352 10.9748 5.31904
292 2 13.2521 13.4998 7.44731
212 2 13.5635 12.6887 1.55246
188 2 11.263 7.99203 2.83913