ITEM: TIMESTEP
0
ITEM: NUMBER OF ATOMS
295
ITEM: BOX BOUNDS xy xz yz pp pp pp
-8.3339999999999996e+00 1.5144700000000000e+01 -7.6974000000000000e+00
0.0000000000000000e+00 1.4189300000000001e+01 -6.3660000000000005e-01
0.0000000000000000e+00 1.6498000000000001e+01 5.8050000000000002e-01
ITEM: ATOMS id type q x y z
6 4 1.20524 0.611145 1.62104 5.93127
7 4 1.28187 -0.130979 3.89188 2.08686
8 4 1.25099 -0.917106 4.00959 7.6255
10 4 1.24537 -2.05605 6.65778 5.41746
25 4 1.42651 0.974725 6.15 4.0423
27 4 0.952587 3.47762 6.43333 5.71994
50 1 -0.662863 2.90719 0.862808 1.9522
51 1 -0.687344 2.28066 2.40823 5.53588
52 1 -0.658023 -1.62232 4.94789 1.55868
204 2 0.178015 4.68263 2.68336 2.56046
79 3 -0.806897 -0.128193 0.980288 4.62263
276 2 0.204302 5.16188 0.551021 0.354197
249 2 0.179326 4.64292 4.30902 3.07204
82 3 -0.791767 0.518048 3.2373 0.612623
84 3 -0.827092 -0.189472 2.82851 6.77388
85 3 -0.784005 -2.22775 5.0682 6.70344
53 1 -0.648233 0.429936 5.25926 7.98694
102 3 -0.806414 0.856246 4.93105 2.92027
103 3 -0.776657 -0.668825 6.50334 4.65054
104 3 -0.81162 4.2819 2.95608 7.70944
106 3 -0.789254 1.95855 5.79543 5.37294
78 3 -0.746413 0.800078 0.532631 0.0301303
172 2 0.177378 4.07481 1.02894 1.50181
203 2 0.175785 5.0742 1.25911 3.68079
81 3 -0.805676 -0.962067 2.69505 2.94503
173 2 0.172916 2.10997 2.38968 4.37924
174 2 0.22092 3.13592 1.71021 5.94745
175 2 0.237261 2.34882 3.4396 5.91298
176 2 0.151922 -2.3718 5.33072 2.34387
274 1 -0.678255 5.94068 1.25542 0.784895
178 2 0.169417 -0.939683 5.81133 1.10932
277 2 0.168572 5.6796 1.58843 1.91143
205 2 0.196234 3.98803 2.55293 4.32757
171 2 0.196609 2.31865 1.83356 1.87212
179 2 0.177893 -0.0994683 6.19485 7.56689
180 2 0.225778 1.39756 5.01904 7.33633
250 2 0.19299 3.53019 5.9467 2.77476
101 3 -0.774491 5.22287 4.01332 0.283193
63 1 -0.681139 4.86857 2.37056 3.62688
54 1 -0.682769 -3.42435 6.37236 4.24003
182 2 0.154947 -2.94928 6.33717 3.17033
281 2 0.0864615 -3.02841 5.71141 7.91093
170 2 0.185001 2.75647 0.350108 2.98166
257 3 -0.78693 3.6978 6.4736 0.231399
177 2 0.145913 -2.10732 4.39945 0.700685
275 2 0.220277 6.95795 0.780992 0.674888
3 4 1.2594 -0.126527 2.74447 15.9257
267 1 -0.662297 -0.189316 1.75955 11.3091
290 2 0.188071 -3.00959 7.22638 13.4296
20 4 1.35582 3.41272 2.13528 8.883
23 4 1.35122 2.44218 2.8401 14.0112
28 4 1.28138 4.38021 4.5132 12.593
285 2 0.186316 -0.409887 2.2765 12.3005
61 1 -0.678022 2.06015 3.35433 9.60379
64 1 -0.66568 2.43496 1.24087 12.9726
83 3 -0.780032 -1.19931 3.39225 9.02067
100 3 -0.817814 5.93392 0.70259 12.0582
97 3 -0.795376 3.75517 2.70426 15.0279
98 3 -0.79278 1.00196 2.9215 14.6537
99 3 -0.824281 4.22886 1.79971 10.245
108 3 -0.787238 2.82316 4.1571 13.1306
19 4 1.2968 5.09466 3.13747 15.8951
9 4 1.25928 -3.42599 6.95555 9.05223
148 2 0.0319888 0.697654 6.77868 10.6885
268 2 0.183022 -0.161382 0.649155 11.3455
269 2 0.173933 0.716446 2.32053 10.6768
181 2 0.181543 0.516819 5.28001 9.13638
207 2 0.214173 2.642 1.43152 11.8605
24 4 1.54081 5.57627 2.0141 11.1354
197 2 0.194086 1.96484 3.2917 10.7338
198 2 0.211317 1.17272 3.07601 9.01386
199 2 0.183241 2.54803 4.33067 9.32162
259 2 0.0362366 0.855878 6.97881 15.0317
295 2 0.216328 -3.11493 5.6389 11.7158
86 3 -0.854412 -2.01104 6.86054 9.8611
109 3 -0.847261 5.18834 3.3248 11.9704
206 2 0.224326 3.26918 0.729811 13.5558
284 2 0.163104 -1.77617 3.29266 14.2217
96 3 -0.846256 2.6114 0.863334 8.35465
208 2 0.18416 1.38502 0.740192 13.1602
1 4 1.22057 -5.65736 13.2944 0.872229
4 4 1.21254 -5.54991 13.1667 7.52413
12 4 1.0556 -3.11862 9.18449 1.58958
15 4 1.47717 -2.88506 9.22684 7.2181
16 4 1.47658 -4.24184 11.4452 5.42479
30 4 1.22978 1.27601 8.61427 2.27165
31 4 1.27862 -1.44214 11.1338 3.81588
80 3 -0.773073 -7.01216 13.4196 6.86948
56 1 -0.678277 -4.85654 8.78788 2.49062
189 2 0.163323 -1.55601 7.44738 1.42007
57 1 -0.681951 -2.5412 7.59537 0.839384
66 1 -0.675041 -0.933197 12.5238 2.64606
212 2 0.201053 -1.23888 13.4167 3.23403
222 2 0.178884 -0.0973786 11.6387 0.974875
88 3 -0.829642 -3.38325 10.2067 0.428581
90 3 -0.832827 -2.32525 8.03633 6.1827
91 3 -0.829066 -5.51973 11.2341 4.40957
92 3 -0.805171 -3.97202 10.1448 6.46314
93 3 -0.819806 -4.49194 12.7694 6.37007
111 3 -0.87022 1.44879 7.56061 3.42702
112 3 -0.826198 1.30137 7.94212 0.808538
113 3 -0.778621 -1.76211 9.85929 2.87434
114 3 -0.782645 -2.82979 11.6793 4.5264
115 3 -0.838685 -1.77363 10.234 7.96332
116 3 -0.776416 0.0561541 10.9196 4.75962
155 2 0.0940493 -0.325054 9.18354 2.48503
292 2 0.229227 -2.60607 13.0633 7.72815
187 2 0.194427 -4.68368 9.11411 3.59828
157 2 0.00672024 1.40186 9.22059 6.53266
211 2 0.163082 1.84767 7.7132 7.19941
214 2 0.17318 0.172134 12.4495 2.63442
213 2 0.184389 -1.52657 12.405 1.67523
87 3 -0.785805 -6.40544 11.9068 1.93757
69 1 -0.660174 0.42763 11.1939 0.0235187
221 2 0.19387 0.413079 10.0287 0.130645
183 2 0.18149 -4.08355 7.24339 4.3942
33 4 1.05627 1.38596 10.7427 5.59356
289 2 0.141217 -3.33974 6.88356 1.14153
11 4 1.02113 -0.94331 7.63873 10.6828
224 2 0.197992 0.671057 9.69087 11.9687
17 4 1.11577 -1.94643 9.39305 13.2058
32 4 1.04013 -1.6605 11.1835 9.22735
34 4 1.27344 -1.20737 11.8961 14.8788
288 2 0.185728 -3.09163 8.18016 16.1706
55 1 -0.653403 0.925527 8.28422 9.80188
58 1 -0.65405 -2.90252 8.03889 14.2072
59 1 -0.67323 -3.25395 10.5925 12.3772
216 2 0.155355 -3.21527 12.809 9.57208
255 4 1.03337 1.6772 7.84314 16.271
185 2 0.171669 1.66432 8.22207 8.95475
94 3 -0.824257 -1.23496 8.57379 11.9075
95 3 -0.812673 -5.21209 11.0753 14.6951
117 3 -0.79937 -1.04789 10.1597 14.2771
118 3 -0.850602 -0.485884 12.9052 13.9032
119 3 -0.777009 -2.79994 12.414 15.1852
120 3 -0.815528 -0.208697 11.5712 9.95453
147 2 -0.0278927 -5.81296 11.8607 8.56928
215 2 0.19848 -1.54872 13.6835 9.10444
156 2 -0.00411328 -2.64827 10.5479 10.4999
184 2 0.123072 -0.243807 8.68826 9.28149
186 2 0.158438 1.19062 9.13476 10.6025
191 2 0.169688 -3.90634 8.59622 14.4602
192 2 0.252068 -4.00748 10.8729 13.243
193 2 0.168988 -3.82625 10.1417 11.4802
194 2 0.175138 -2.60122 11.462 12.0781
67 1 -0.659179 -2.33495 12.8829 8.78451
260 2 0.169723 1.87319 8.45543 13.5782
280 3 -0.811805 -5.09247 13.1334 16.462
256 1 -0.660135 1.59867 8.74565 14.5943
261 2 0.251783 0.541032 9.35162 14.5487
14 4 1.48202 -4.32508 11.9038 15.8176
89 3 -0.805331 -3.71601 8.40186 8.40602
154 2 -0.00428118 2.60624 7.52281 10.4384
190 2 0.159838 -2.25292 7.70801 15.1259
2 4 1.32825 13.6193 1.51652 3.89094
21 4 1.16564 6.56161 2.91512 4.54058
251 2 0.113033 5.4603 6.25712 2.86155
36 4 1.18645 9.23402 1.45657 4.59435
151 2 -0.0174161 4.3883 6.61111 4.19608
40 4 1.27606 11.542 2.18968 6.22331
43 4 1.00063 10.9028 2.59872 1.96178
235 2 0.193391 9.15083 3.18277 0.558985
62 1 -0.662111 7.26658 4.46259 3.61168
253 2 0.140142 7.0594 6.78609 1.36903
74 1 -0.638831 9.60126 3.76896 1.46155
105 3 -0.790597 6.1102 3.53212 5.94799
122 3 -0.817895 7.64645 1.75526 4.49606
125 3 -0.858237 12.4399 1.97239 4.91617
126 3 -0.835615 10.0309 2.27536 5.80071
127 3 -0.878752 11.7784 1.16543 7.35718
133 3 -0.774517 10.0833 1.87182 3.19987
134 3 -0.781199 11.4095 1.63495 0.67084
234 2 0.183511 8.82205 4.11762 2.27293
286 2 0.155178 11.288 5.35972 4.62447
162 2 0.0738637 11.8674 3.81826 6.79783
164 2 0.0385652 12.3175 3.62702 2.36037
200 2 0.159008 8.42121 4.36546 3.73702
246 4 1.10216 4.90845 5.49268 0.771715
237 2 0.167672 6.60073 6.61946 6.20456
236 2 0.100183 10.4904 4.66654 1.19533
201 2 0.159897 6.9092 5.3757 4.2094
202 2 0.170976 6.92837 4.35465 2.53407
228 2 0.187532 9.14804 1.68888 7.77515
248 1 -0.657616 6.73844 6.39119 0.334691
26 4 1.48863 5.23923 4.17886 7.20591
247 1 -0.643724 4.54526 5.46531 2.6323
283 2 0.211917 13.0593 0.234479 1.70973
263 2 0.17667 11.8085 0.173738 3.09595
107 3 -0.806642 4.38016 5.51808 6.64468
152 2 0.036524 5.31033 5.13685 13.9062
241 2 0.141153 6.80263 5.83003 13.2503
227 2 0.248733 10.1141 1.24725 9.31394
39 4 1.02719 8.24405 2.9376 9.50407
41 4 1.28612 7.86257 2.67226 14.6181
42 4 1.03564 10.8517 3.48738 11.6746
45 4 1.26494 8.95117 6.529 10.6106
29 4 0.944536 4.23698 6.9568 10.6737
72 1 -0.68638 9.28573 4.0722 14.6533
73 1 -0.687586 11.3063 5.09041 12.4338
242 2 0.153366 5.406 7.09103 13.0799
266 2 0.171159 13.1124 1.64665 15.0634
265 2 0.184207 12.5431 3.24236 15.9116
124 3 -0.808398 6.95462 2.4413 10.1902
128 3 -0.802343 8.12909 1.92742 13.2997
129 3 -0.780338 8.34625 1.58354 15.9424
130 3 -0.85072 6.42343 3.29898 14.9977
131 3 -0.772102 12.1721 2.65706 11.084
132 3 -0.778545 9.63499 3.65341 10.6377
71 1 -0.662275 9.08388 1.42413 8.92642
44 4 1.19485 6.52336 6.53037 8.66356
37 4 0.9768 9.85024 1.10758 16.2331
137 3 -0.79889 10.443 6.5982 9.88167
163 2 0.0293002 10.2071 3.03008 13.3029
165 2 0.057728 8.71749 4.9578 11.1429
232 2 0.140548 11.9231 4.72126 13.3138
229 2 0.141688 9.27226 4.48978 13.6037
230 2 0.160797 10.3129 3.81379 14.9714
231 2 0.158433 8.79077 4.84275 15.3147
240 2 0.178066 6.27789 6.83845 14.7904
5 4 1.24801 13.4287 1.99832 10.2166
76 1 -0.706845 6.393 6.7902 13.6253
252 2 0.182078 6.67545 6.13655 16.4094
264 1 -0.67736 13.2683 2.75132 15.1824
233 2 0.163561 10.3396 5.64793 12.7224
123 3 -0.862208 13.1682 0.600434 9.54445
226 2 0.210071 8.29817 0.639032 9.22864
136 3 -0.786116 4.84293 7.00587 9.17185
138 3 -0.844611 7.84201 6.77446 9.53814
135 3 -0.784992 6.31303 4.65748 8.33464
110 3 -0.867979 4.2695 5.77173 11.6448
161 2 0.0730544 7.97381 4.12903 8.34302
293 2 0.0205409 10.5981 0.525336 14.7693
150 2 0.0108722 9.24502 8.94241 0.125832
38 4 1.29332 5.05517 13.7181 8.07163
46 4 0.894718 3.35681 10.5365 3.37484
68 1 -0.655212 1.40023 12.3613 6.58856
75 1 -0.665103 6.74126 7.39061 6.99767
139 3 -0.808148 2.37362 9.88747 2.30708
140 3 -0.81523 2.72227 10.9356 4.81053
238 2 0.180398 7.73947 7.8875 6.8871
149 2 0.113124 7.03884 12.3894 4.20986
210 2 0.240242 3.54617 7.75579 7.99766
160 2 0.0968707 6.57358 13.5203 7.25071
166 2 -0.00553633 3.9754 12.0913 2.86416
167 2 -0.0320756 4.86086 9.72568 3.52926
209 2 0.0799203 3.48542 8.25453 6.06566
217 2 0.21393 2.38904 12.895 6.56136
219 2 0.185303 0.549924 13.0292 6.38518
159 2 0.121351 2.97482 12.3085 1.04057
141 3 -0.838648 4.48676 12.2789 8.01328
287 2 0.147883 10.186 7.68362 2.36807
188 2 0.179592 9.51267 9.36945 2.02765
158 2 0.0188893 1.58617 13.4117 4.91604
262 1 -0.676996 5.19616 13.6786 2.79531
218 2 0.158225 1.2497 11.8259 7.62563
270 1 -0.662342 6.51136 10.8874 3.72887
271 2 0.156788 6.01709 10.4849 4.64481
272 2 0.0496119 7.61405 9.65599 3.17222
273 2 0.129335 5.8306 10.9617 2.85184
282 2 0.157122 5.69809 12.6484 3.18079
65 1 -0.641679 2.89911 8.17094 7.17505
239 2 0.153765 5.8328 8.20174 7.14096
291 2 0.244657 8.08349 10.8967 0.555643
13 4 1.07123 8.45527 11.391 3.40239
168 2 0.0114096 3.03814 9.8836 7.98441
18 4 1.05277 8.63552 10.0712 14.9979
225 2 0.19138 1.57962 11.1014 12.9944
245 2 0.140856 6.33855 11.8198 12.4223
47 4 1.26469 3.68471 11.2421 9.01175
48 4 1.19131 7.50425 8.04817 12.7632
49 4 1.08289 6.07618 10.3242 10.7201
143 3 -0.815892 8.71977 7.47126 11.856
22 4 1.49366 -0.268848 13.8996 12.727
77 1 -0.672285 6.82552 11.9932 11.261
121 3 -0.80715 0.80277 13.2473 11.646
60 1 -0.668805 7.26122 10.8186 16.1145
35 4 1.32656 1.15768 11.9461 10.7446
142 3 -0.824465 2.57457 11.8472 9.89684
258 2 0.121786 2.52178 9.55065 15.0597
144 3 -0.793593 8.05347 9.1221 13.9424
145 3 -0.833487 4.73906 10.5722 9.96735
146 3 -0.791901 6.28165 9.04955 11.5899
278 1 -0.666071 2.75895 12.8898 16.2761
153 2 0.0745654 4.87868 8.2657 11.5852
279 2 0.167735 2.4926 11.9014 15.8072
169 2 0.00861124 7.47839 10.8375 9.81001
223 2 0.154305 2.50101 10.065 11.6525
196 2 0.148799 6.8776 11.5381 15.202
243 2 0.236694 6.26999 12.8273 10.6925
195 2 0.145194 6.48774 9.94919 16.243
220 2 0.203905 0.85946 12.1655 16.343
254 2 0.152802 5.78947 7.79716 16.0977
70 1 -0.668434 1.49512 10.515 12.0191
294 2 0.154869 3.8592 13.0078 16.1941
244 2 0.154349 7.95638 12.1144 11.2575
ITEM: TIMESTEP
100
ITEM: NUMBER OF ATOMS
295
ITEM: BOX BOUNDS xy xz yz pp pp pp
-8.3339999999999996e+00 1.5144700000000000e+01 -7.6974000000000000e+00
0.0000000000000000e+00 1.4159010600000000e+01 -6.3660000000000005e-01
0.0000000000000000e+00 1.6498000000000001e+01 5.5021059999999977e-01
ITEM: ATOMS id type q x y z
6 4 1.23539 0.562122 1.62591 6.01738
7 4 1.33815 -0.145865 3.94264 2.06094
8 4 1.23676 -0.937752 4.14305 7.66156
10 4 1.26916 -2.00081 6.60893 5.52152
25 4 1.50598 0.777126 6.16975 4.06938
27 4 0.993984 3.40321 6.37222 5.60222
50 1 -0.654902 2.90306 0.887877 1.87007
51 1 -0.683604 2.27117 2.21339 5.55695
52 1 -0.657248 -1.80373 4.86695 1.62033
204 2 0.163173 4.61076 2.70244 2.55204
79 3 -0.804241 -0.0855852 1.10863 4.65439
276 2 0.222569 5.09659 0.573683 0.368721
249 2 0.192159 4.68673 4.20035 2.99272
82 3 -0.811906 0.548104 3.2897 0.797641
84 3 -0.795297 -0.17223 2.95657 6.84694
85 3 -0.789478 -2.36474 5.13807 6.78466
53 1 -0.669949 0.469145 5.29994 8.00418
102 3 -0.806977 0.763034 4.799 3.05756
103 3 -0.854232 -0.649115 6.34136 4.73615
104 3 -0.816462 4.38419 3.10836 7.89593
106 3 -0.776626 1.90041 5.87566 5.20482
78 3 -0.748111 0.894872 0.535376 0.0962897
172 2 0.174567 4.09558 1.05222 1.5119
203 2 0.159353 5.27001 1.23315 3.48045
81 3 -0.781635 -1.08322 2.72828 2.82024
173 2 0.202853 2.12769 2.60849 4.50741
174 2 0.199283 2.92983 1.27243 5.53794
175 2 0.226462 2.6087 2.99113 6.32623
176 2 0.159813 -2.23507 5.3391 2.58829
274 1 -0.671084 5.91407 1.26525 0.769382
178 2 0.147432 -1.22596 5.67659 0.997307
277 2 0.169016 5.73113 1.58456 1.84118
205 2 0.191463 3.94923 2.27672 4.37819
171 2 0.220359 2.26251 1.77891 1.70076
179 2 0.182744 0.144758 6.27685 7.53341
180 2 0.216238 1.45303 4.91116 7.53885
250 2 0.201614 3.5095 5.70918 2.67378
107 3 -0.811904 4.30358 5.35013 6.35272
63 1 -0.643463 4.90672 2.31207 3.594
54 1 -0.67714 -3.30433 6.58793 4.22395
182 2 0.151684 -2.90481 6.41373 3.14216
281 2 0.0960467 -3.33074 5.8318 7.78085
170 2 0.172668 2.83288 0.407724 2.9386
3 4 1.24902 -0.0147016 2.75158 16.03
267 1 -0.669795 -0.205362 1.99894 11.0986
290 2 0.177474 -3.01897 6.76 13.51
20 4 1.3419 3.53394 2.10322 8.86276
23 4 1.27537 2.60108 2.81094 14.0043
28 4 1.2485 4.27861 4.64985 12.4167
285 2 0.169619 -0.483769 2.43586 12.1458
61 1 -0.677725 2.15442 3.33847 9.4065
64 1 -0.652419 2.46229 1.31086 12.836
83 3 -0.809073 -1.51434 3.40872 9.00685
100 3 -0.807971 6.11612 0.659432 11.9622
97 3 -0.810758 3.81599 2.58213 15.0987
98 3 -0.760049 1.17003 3.04709 14.871
99 3 -0.799133 4.39713 1.66187 10.2334
108 3 -0.795172 2.87287 4.02666 12.7762
19 4 1.28934 4.99404 3.23175 15.9506
9 4 1.27811 -3.47842 7.01085 9.09591
148 2 0.0209375 0.661719 6.73588 10.5007
268 2 0.182117 -0.210849 0.816381 11.0708
269 2 0.181387 0.674777 2.49821 10.5454
181 2 0.16395 0.451208 5.26521 9.15468
207 2 0.231034 3.51493 1.18757 12.4243
24 4 1.5525 5.67923 2.12961 11.1805
197 2 0.208508 2.08772 3.2737 10.5171
198 2 0.197166 1.20057 3.1345 8.81062
199 2 0.203725 2.72915 4.32635 9.07878
259 2 0.0214565 0.618904 7.02923 15.0235
295 2 0.219792 -2.9162 5.55622 11.4322
86 3 -0.84468 -2.0181 6.89717 9.81768
109 3 -0.820875 5.3077 3.38876 12.1271
264 1 -0.665597 -1.58728 2.86805 15.0335
284 2 0.183575 -1.48073 3.22507 14.0132
96 3 -0.817501 2.7733 0.755899 8.32258
208 2 0.192282 1.58487 1.62166 12.114
110 3 -0.83736 4.14304 5.60253 11.2162
232 2 0.148451 -3.00529 4.9033 13.295
265 2 0.168613 -2.20262 3.53502 15.7451
206 2 0.209631 2.18967 0.551672 13.6808
257 3 -0.7631 2.96084 6.94543 16.4898
1 4 1.20708 -5.68997 13.1932 0.935253
4 4 1.22241 -5.65742 13.133 7.66195
12 4 1.02936 -2.97606 9.20597 1.60794
15 4 1.4636 -2.96374 9.24944 7.18513
16 4 1.41926 -4.11587 11.4984 5.58207
30 4 1.25488 1.3521 8.60655 2.32397
31 4 1.29171 -1.36229 11.2403 3.88048
80 3 -0.795315 -7.15178 13.6489 7.16683
56 1 -0.677582 -4.83479 8.93009 2.4514
189 2 0.15471 -1.54627 7.3459 1.46681
57 1 -0.686823 -2.46417 7.60041 0.870749
66 1 -0.674466 -1.05481 12.5621 2.56572
212 2 0.18109 -1.4758 13.4467 3.21168
222 2 0.183605 -0.315834 11.6423 0.869738
88 3 -0.8586 -3.20955 10.258 0.462675
90 3 -0.815583 -2.14887 8.02801 6.23835
91 3 -0.815725 -5.34494 11.394 4.36598
92 3 -0.820193 -4.09459 9.98286 6.38965
93 3 -0.839359 -4.60641 12.6639 6.58157
111 3 -0.87177 1.4924 7.46968 3.40847
112 3 -0.818671 1.36149 7.90127 0.882289
113 3 -0.772655 -1.64616 9.90344 2.92066
114 3 -0.794072 -2.54196 11.7247 4.86605
115 3 -0.795462 -1.84433 10.3846 8.03877
116 3 -0.768805 0.0351303 10.9397 4.82392
155 2 0.0980985 -0.240111 9.27916 2.55884
292 2 0.223954 -2.29018 12.7942 7.5514
187 2 0.193831 -4.66724 9.31142 3.53556
157 2 0.00750314 1.44241 9.20646 6.5868
211 2 0.169691 1.92207 7.63989 7.08175
214 2 0.167475 -0.00619713 12.7384 2.23985
213 2 0.188501 -1.73174 12.4003 1.66984
87 3 -0.798348 -6.52031 11.8764 2.0648
33 4 1.05021 1.38123 10.7436 5.68314
289 2 0.121187 -3.45371 7.00943 1.24092
183 2 0.184334 -3.76308 7.63017 4.32095
11 4 0.974832 -0.856882 7.68161 10.4949
224 2 0.213453 0.672882 9.84662 12.1622
17 4 1.12035 -2.11391 9.16778 13.2435
32 4 1.02918 -1.72703 11.3117 9.33477
34 4 1.26276 -1.32715 11.9193 14.8497
288 2 0.191981 -2.95779 8.13826 16.2744
55 1 -0.647557 0.825926 8.37623 9.68753
58 1 -0.65249 -2.9102 7.73989 14.237
59 1 -0.66827 -3.3538 10.5227 12.5004
216 2 0.184423 -3.18966 13.0807 9.31268
255 4 1.04339 1.57859 7.73336 16.261
185 2 0.166414 1.58628 8.33509 8.73544
94 3 -0.769917 -1.31139 8.49835 12.0456
95 3 -0.807516 -5.41749 11.2298 14.5906
117 3 -0.764768 -1.19351 10.1072 14.1753
118 3 -0.815914 -0.408653 12.902 13.9781
119 3 -0.791118 -2.87831 12.4186 15.1385
120 3 -0.783824 -0.236869 11.4551 9.9756
147 2 -0.0424515 -5.83943 11.9933 8.79861
215 2 0.1988 -1.28788 13.7467 8.98171
156 2 -0.0125852 -2.82279 10.725 10.6089
184 2 0.138814 -0.376882 9.03827 9.02931
186 2 0.158909 1.24132 9.13602 10.5218
191 2 0.145155 -3.9372 8.34595 14.3766
192 2 0.248689 -4.16185 10.7877 13.3187
193 2 0.166315 -3.82148 10.1836 11.5941
194 2 0.17501 -2.67938 11.4752 12.2711
67 1 -0.631898 -2.14236 13.0203 8.6811
260 2 0.14103 2.00615 8.31479 13.787
190 2 0.155636 -2.26605 7.4338 15.1178
256 1 -0.662982 1.43115 8.79274 14.6761
261 2 0.262655 0.457087 9.25076 14.3434
14 4 1.44606 -4.27116 11.8783 15.8652
89 3 -0.834071 -3.58868 8.46733 8.40632
154 2 -0.016936 2.42458 7.6284 10.5547
69 1 -0.652818 -0.38829 11.7463 16.4756
221 2 0.194281 -0.414684 10.6067 16.4896
280 3 -0.791421 -5.11731 13.1127 16.4417
2 4 1.31957 13.6226 1.54377 3.86789
21 4 1.17182 6.60529 2.91361 4.48775
251 2 0.116558 5.5288 6.04368 2.86659
36 4 1.17371 9.26646 1.39536 4.53772
151 2 0.000890099 4.23955 6.54968 4.13999
40 4 1.25291 11.4892 2.20559 6.24642
43 4 0.988761 10.771 2.6447 1.96238
235 2 0.187124 9.33468 3.35268 0.329541
62 1 -0.665191 7.31464 4.47992 3.53237
135 3 -0.799255 6.51156 4.81107 7.94163
74 1 -0.688791 9.63175 3.92388 1.28869
105 3 -0.810682 5.95438 3.46486 5.78861
122 3 -0.816581 7.65118 1.6992 4.48486
125 3 -0.834843 12.4891 1.95877 4.98013
126 3 -0.836198 9.95705 2.26062 5.71022
127 3 -0.879887 11.7294 1.15653 7.36051
133 3 -0.801669 10.0924 1.71529 3.08022
134 3 -0.777028 11.4191 1.61542 0.663414
234 2 0.175327 8.7218 4.09152 2.0713
286 2 0.148772 11.1777 5.74771 4.61645
162 2 0.0743826 11.7459 3.78751 6.84295
164 2 0.0339942 12.0179 3.72669 2.556
200 2 0.154205 8.40674 4.1498 3.69429
246 4 1.06261 5.02781 5.55896 0.730621
237 2 0.160673 6.86332 6.84255 6.19711
236 2 0.143157 10.2307 4.81919 1.08428
201 2 0.157493 7.09441 5.54317 3.87543
202 2 0.165335 6.88342 4.33676 2.45505
228 2 0.169346 8.74835 1.41784 7.70937
248 1 -0.66136 6.52004 6.7635 0.43776
26 4 1.52124 5.31433 4.18477 7.04171
247 1 -0.653142 4.57204 5.33377 2.59313
283 2 0.194872 12.7403 0.309026 2.07765
101 3 -0.801774 5.42807 4.08792 0.184615
177 2 0.149147 12.5469 4.35147 1.01266
161 2 0.0930244 7.78837 3.7574 8.1865
252 2 0.165389 7.55709 6.32761 0.211286
275 2 0.206624 7.04739 1.07833 0.410503
152 2 0.00641981 5.00653 5.53043 13.6862
241 2 0.16031 7.08894 5.96811 13.521
227 2 0.253823 10.0457 0.896111 9.1191
39 4 0.998355 8.27382 2.7708 9.47469
41 4 1.34941 7.92083 2.57033 14.6775
42 4 1.06267 10.8264 3.53288 11.7153
45 4 1.28556 8.90955 6.57379 10.5552
29 4 0.918482 4.07271 7.06352 10.6096
72 1 -0.677215 9.19067 4.05466 14.5318
73 1 -0.685368 11.5741 5.12547 12.3258
242 2 0.109773 5.50493 7.20246 13.0589
266 2 0.165908 13.2593 1.71571 15.1137
138 3 -0.830328 7.773 6.79342 9.51761
124 3 -0.830327 6.92601 2.51036 10.3118
128 3 -0.809117 8.05686 1.82802 13.3009
129 3 -0.821266 8.55245 1.52514 15.8413
130 3 -0.793166 6.6006 3.29516 15.1004
131 3 -0.784436 12.0576 2.68896 11.3404
132 3 -0.768785 9.60359 3.52816 10.5976
71 1 -0.663861 8.99349 1.19667 8.82999
44 4 1.1646 6.45651 6.58142 8.51765
37 4 1.03856 9.95013 1.08112 16.327
137 3 -0.846122 10.3892 6.67267 9.87767
163 2 0.0292183 10.2953 2.99529 13.2944
165 2 0.076575 8.80558 4.97054 10.9666
226 2 0.203891 8.20665 0.49074 9.31928
229 2 0.157074 9.0696 4.50369 13.5365
230 2 0.152039 10.2699 3.91327 14.839
231 2 0.164246 8.69853 4.77556 15.3146
240 2 0.191257 6.28053 7.07945 14.9401
5 4 1.19086 13.3318 2.33153 10.2359
76 1 -0.659534 6.46608 6.89825 13.7784
123 3 -0.796167 13.0112 0.499776 9.51411
136 3 -0.775401 4.69329 7.01486 9.17765
233 2 0.180205 10.7483 5.89982 12.5299
293 2 0.0210831 10.9479 0.531315 15.0183
195 2 0.161791 7.55585 9.15131 0.217645
38 4 1.30082 4.81473 13.6282 8.13546
46 4 0.919208 3.31936 10.5876 3.35916
68 1 -0.660471 1.52794 12.358 6.65542
75 1 -0.67126 6.94675 7.57442 7.06365
139 3 -0.815857 2.46233 9.76408 2.29825
140 3 -0.833339 2.63812 10.726 4.7568
238 2 0.19515 7.94028 8.08826 7.22769
149 2 0.103515 7.29583 12.3291 4.62198
210 2 0.253237 3.57446 7.60848 8.04321
160 2 0.125617 6.4291 13.6279 7.53746
166 2 -0.0154807 3.95763 12.0222 2.68719
167 2 -0.0198378 4.9137 9.97851 3.58965
209 2 0.0897043 3.42962 8.19234 6.12764
217 2 0.218608 2.57828 12.814 6.62438
219 2 0.17849 0.706635 13.0764 6.2974
159 2 0.121321 2.70195 12.2316 1.03492
141 3 -0.847113 4.37524 12.115 7.92936
287 2 0.150709 10.2105 7.85987 2.36612
263 2 0.176415 4.09158 13.609 3.67897
158 2 0.008229 1.74609 13.3574 4.95256
262 1 -0.682358 5.1122 13.5789 3.1824
218 2 0.185882 1.25551 11.8879 7.7023
270 1 -0.657666 6.6248 10.8851 3.90539
271 2 0.152 5.88108 10.5805 4.70464
272 2 0.0552162 7.67711 9.58124 3.58234
273 2 0.137897 6.1304 11.1713 2.89378
282 2 0.169252 5.72762 12.6066 3.39604
65 1 -0.656631 2.88293 8.09401 7.21275
239 2 0.14068 6.03721 8.33241 7.00299
291 2 0.249785 8.35991 10.8642 0.712482
13 4 1.07649 8.5254 11.3308 3.52518
168 2 0.0209446 2.82199 9.74076 8.05938
253 2 0.122016 6.4895 7.09122 1.57243
188 2 0.180196 9.62831 9.5164 1.7725
18 4 1.06458 8.62696 10.1937 14.8862
225 2 0.18866 1.78517 10.9292 13.0408
245 2 0.147977 6.34716 11.9879 12.1246
47 4 1.25738 3.63462 11.088 8.98513
48 4 1.20598 7.5789 8.07505 12.7581
49 4 1.04874 6.03467 10.3144 10.6824
143 3 -0.853703 8.7317 7.22687 11.9431
22 4 1.49035 -0.182156 13.9303 12.6972
77 1 -0.670524 6.8373 12.0237 11.0135
121 3 -0.783077 1.01458 13.2465 11.6158
60 1 -0.662346 7.43404 10.6521 16.3616
35 4 1.28551 1.25017 11.8448 10.8094
142 3 -0.835529 2.47835 11.7885 9.74764
258 2 0.147742 2.19734 9.63403 15.1137
144 3 -0.809195 8.06681 9.12776 13.8751
145 3 -0.849323 4.67791 10.32 9.86901
146 3 -0.781486 6.32465 9.10382 11.6695
278 1 -0.661221 2.6448 12.8226 16.3865
153 2 0.0518821 4.90943 8.19866 11.584
279 2 0.167779 1.95939 12.3144 15.584
169 2 0.00732655 7.52889 10.6523 9.76963
223 2 0.142657 2.52913 9.91223 11.7054
196 2 0.124832 6.808 11.34 15.3649
243 2 0.243786 6.29892 12.8819 10.3835
150 2 0.0104874 8.80897 9.26983 16.388
220 2 0.185741 0.819931 12.0925 16.4054
254 2 0.163555 5.57588 8.15756 16.233
70 1 -0.703417 1.59251 10.4414 12.0967
244 2 0.146398 8.03632 12.1632 11.0648
294 2 0.15698 3.72333 12.3397 16.4478
ITEM: TIMESTEP
200
ITEM: NUMBER OF ATOMS
295
ITEM: BOX BOUNDS xy xz yz pp pp pp
-8.3339999999999996e+00 1.5144700000000000e+01 -7.6974000000000000e+00
0.0000000000000000e+00 1.4128721200000001e+01 -6.3660000000000005e-01
0.0000000000000000e+00 1.6498000000000001e+01 5.1992120000000064e-01
ITEM: ATOMS id type q x y z
6 4 1.28425 0.616025 1.75038 6.12167
7 4 1.33009 -0.404712 3.79427 2.11051
8 4 1.2479 -0.972584 4.09417 7.69886
10 4 1.21663 -2.01996 6.60954 5.65881
25 4 1.47192 0.771545 6.07448 4.09832
27 4 0.967827 3.23826 6.31027 5.6117
50 1 -0.660127 3.04183 0.792474 1.91028
51 1 -0.695281 2.33654 2.35228 5.6664
52 1 -0.662453 -1.81546 4.86466 1.43398
204 2 0.169551 4.52583 2.9077 2.62006
79 3 -0.80812 -0.152558 1.15261 4.83696
276 2 0.21396 5.44116 0.465285 0.353936
249 2 0.173664 4.62412 4.33009 2.98343
82 3 -0.796454 0.482879 3.19086 0.753181
84 3 -0.822988 -0.0867527 2.94622 6.84595
85 3 -0.776085 -2.4881 5.10746 6.78792
53 1 -0.680254 0.0495625 5.51626 8.23881
102 3 -0.784871 0.461317 4.78771 3.11643
103 3 -0.795097 -0.66243 6.32494 4.84289
104 3 -0.847974 4.56942 3.14261 7.9265
106 3 -0.778848 1.85448 5.53521 5.36859
78 3 -0.770588 0.918686 0.460308 0.0662576
172 2 0.178094 4.15284 1.03263 1.42027
203 2 0.160884 5.141 1.32192 3.33659
81 3 -0.841358 -1.14019 2.58796 2.85808
173 2 0.16966 2.22165 2.23832 4.5161
174 2 0.217711 3.12443 1.71488 6.11304
175 2 0.2539 2.42258 3.45443 5.90913
176 2 0.149132 -2.39923 5.38059 2.31055
274 1 -0.671776 6.04583 1.29788 0.787059
178 2 0.164897 -1.17972 5.5837 0.710674
277 2 0.157404 5.58417 1.7001 1.82162
205 2 0.184171 3.9239 2.56748 4.31868
171 2 0.174548 2.36801 1.77042 1.80099
179 2 0.202625 -0.56663 6.41656 8.00973
180 2 0.19923 1.10839 5.5219 7.71054
250 2 0.189702 3.33522 5.91353 2.44394
107 3 -0.792405 4.3184 5.39704 6.38961
63 1 -0.679207 4.84692 2.44305 3.52577
54 1 -0.678159 -3.3399 6.54934 4.3124
182 2 0.166066 -3.01041 6.14333 3.33333
170 2 0.183216 3.10382 0.472584 2.98196
281 2 0.073105 -3.42281 5.85123 7.84108
3 4 1.2761 0.118889 2.73054 16.0179
267 1 -0.645888 -0.274967 2.28747 11.1136
290 2 0.182401 -3.30008 6.83097 13.4124
20 4 1.38131 3.69863 2.28982 8.95379
23 4 1.3266 2.62711 2.84957 13.9775
28 4 1.23197 4.31607 4.61815 12.3272
285 2 0.187535 -0.486601 2.76849 12.1198
61 1 -0.659771 2.33067 3.57329 9.60992
64 1 -0.647606 2.04576 1.2056 13.152
83 3 -0.836602 -1.60801 3.37758 8.93268
100 3 -0.763997 6.11768 0.552673 11.9861
97 3 -0.797689 4.02913 2.65083 14.9081
98 3 -0.785852 1.25938 3.08545 14.9158
99 3 -0.808341 4.38296 1.84235 10.3645
108 3 -0.83346 2.95367 4.02653 12.9209
19 4 1.28576 5.11656 3.15826 15.888
9 4 1.22535 -3.58147 6.95192 9.13227
148 2 0.0321748 0.727567 6.81069 10.4533
268 2 0.154549 -0.212268 1.12083 11.1981
269 2 0.166503 0.730944 2.75753 10.5871
181 2 0.162522 0.112514 5.30265 9.39732
207 2 0.199086 3.06352 0.858972 12.6391
24 4 1.47275 5.81276 2.10582 11.1701
197 2 0.221524 2.3775 3.59186 10.7494
198 2 0.175267 1.30962 3.33231 9.15471
199 2 0.191556 2.92228 4.46268 9.04385
259 2 0.0253993 0.381025 6.99374 14.9824
295 2 0.236559 -3.20172 5.67834 11.2667
86 3 -0.833004 -2.14359 6.91885 9.90626
257 3 -0.773992 2.79612 6.91945 16.4394
264 1 -0.665041 -1.50289 2.75254 15.1056
284 2 0.185761 -1.55123 2.77083 14.0212
96 3 -0.840163 2.93501 1.00841 8.3637
208 2 0.174526 1.26039 1.61332 12.3368
265 2 0.159096 -1.87019 3.76195 15.5368
232 2 0.153076 -2.83788 4.95006 12.8851
206 2 0.218734 1.57756 0.462028 13.849
1 4 1.24316 -5.68272 13.2724 0.920551
4 4 1.22134 -5.53745 13.3261 7.8069
12 4 1.03919 -2.97443 9.38779 1.63416
15 4 1.43062 -2.86823 9.22669 7.28571
16 4 1.49247 -4.1649 11.3809 5.62341
30 4 1.23964 1.31527 8.53551 2.2895
31 4 1.35334 -1.39845 11.1606 4.04533
80 3 -0.791878 -6.97569 13.7298 7.25109
56 1 -0.683983 -4.64835 9.10301 2.61767
189 2 0.179208 -1.42455 7.55999 1.318
57 1 -0.670586 -2.36008 7.78511 0.772041
66 1 -0.654424 -1.05415 12.5471 2.81244
212 2 0.206483 -1.37561 13.4576 3.44634
222 2 0.17459 -0.360387 11.6051 1.12019
88 3 -0.814809 -3.29528 10.3786 0.464904
90 3 -0.805931 -1.93844 8.06248 6.57042
91 3 -0.811081 -5.3152 11.435 4.52577
92 3 -0.82181 -3.97582 9.88732 6.16133
93 3 -0.831917 -4.65265 12.4373 6.76792
111 3 -0.872051 1.40023 7.37215 3.39588
112 3 -0.818346 1.24381 7.73107 0.869565
113 3 -0.780798 -1.61285 9.8751 2.97407
114 3 -0.796021 -2.61757 11.7747 4.85306
115 3 -0.821368 -1.79897 10.3167 8.08935
116 3 -0.815106 -0.0717309 10.9405 4.83194
155 2 0.100055 -0.178377 9.35694 2.50789
292 2 0.220709 -2.44188 12.793 7.66624
187 2 0.215432 -4.5083 9.39394 3.73245
157 2 0.0177443 1.45772 9.35768 6.61555
211 2 0.148291 1.87186 7.6735 7.05399
214 2 0.149017 0.0800696 12.5916 2.64869
213 2 0.181437 -1.66147 12.4725 1.83158
87 3 -0.780686 -6.41192 11.9238 2.02537
183 2 0.181956 -3.56386 7.66073 4.31194
289 2 0.12286 -3.26331 7.17667 1.21122
188 2 0.191221 -5.39722 9.81341 2.12769
221 2 0.172947 0.152563 9.92807 0.160086
69 1 -0.668194 0.169504 11.1072 0.128661
11 4 0.955533 -0.880892 7.78291 10.4285
224 2 0.211774 0.692851 9.91681 12.2093
17 4 1.13896 -2.08541 9.16977 13.1135
32 4 1.04828 -1.73776 11.2404 9.37887
34 4 1.27749 -1.2773 11.8568 14.9555
288 2 0.193058 -2.92835 8.19028 16.1763
55 1 -0.65547 0.877597 8.35296 9.5454
58 1 -0.64874 -2.88631 7.73494 14.1116
59 1 -0.666854 -3.53273 10.3363 12.3838
216 2 0.173615 -2.91556 13.1904 9.62333
255 4 1.03865 1.47521 7.77777 16.1358
185 2 0.169889 1.60702 8.2962 8.5824
94 3 -0.800004 -1.24871 8.61504 11.9563
95 3 -0.819902 -5.33889 11.2245 14.574
117 3 -0.761769 -1.35354 10.0394 14.2789
118 3 -0.771921 -0.365989 12.6126 13.9595
119 3 -0.800209 -2.80434 12.4926 15.1627
120 3 -0.796011 -0.325203 11.4311 10.096
147 2 -0.0392472 -5.80151 12.308 9.09727
215 2 0.200513 -1.17619 13.736 8.82278
156 2 -0.0145752 -2.96889 10.629 10.5106
184 2 0.141276 -0.289275 8.82975 9.0433
186 2 0.173018 1.22336 9.1291 10.324
191 2 0.16158 -3.69431 8.22967 14.6791
192 2 0.257681 -4.33563 10.5848 13.2194
193 2 0.168172 -4.01122 9.7498 11.5351
194 2 0.171042 -2.88035 11.2109 12.074
67 1 -0.634881 -2.07118 13.005 8.73469
260 2 0.167017 1.53294 8.07327 13.6034
190 2 0.148216 -1.95259 7.39552 14.7628
256 1 -0.683822 1.24202 8.68813 14.4684
261 2 0.25671 0.178855 9.12078 14.3992
14 4 1.4608 -4.23661 12.0049 15.7193
89 3 -0.814437 -3.7094 8.41502 8.43077
154 2 -0.00525057 2.67698 7.82594 10.1121