ITEM: TIMESTEP
0
ITEM: NUMBER OF ATOMS
295
ITEM: BOX BOUNDS xy xz yz pp pp pp
-8.3339999999999996e+00 1.5144700000000000e+01 -7.6974000000000000e+00
0.0000000000000000e+00 1.4189300000000001e+01 -6.3660000000000005e-01
0.0000000000000000e+00 1.6498000000000001e+01 5.8050000000000002e-01
ITEM: ATOMS id type x y z
6 4 1.13839 1.77812 5.90956
7 4 0.0947619 3.785 2.04856
8 4 -0.503808 3.85947 7.81642
10 4 -2.13824 6.04714 6.00826
25 4 0.199637 6.03465 4.06003
27 4 2.28271 6.87289 6.20941
50 1 2.71019 0.420565 2.94568
51 1 2.56273 2.87209 5.24365
52 1 -1.01626 4.86526 0.929414
78 3 0.966198 0.352197 0.67962
79 3 0.452039 1.25634 4.6163
177 2 -1.69555 4.32076 0.113008
81 3 -0.923935 2.41055 2.50449
82 3 1.31507 3.13311 0.862297
84 3 0.198654 2.91868 6.82951
85 3 -2.05324 4.72225 7.05937
249 2 2.6423 5.27153 1.75563
102 3 0.647911 4.65752 3.27171
103 3 -1.50135 5.89343 4.51275
104 3 4.0345 3.76236 7.53598
106 3 0.967493 6.3165 5.54382
107 3 3.64821 6.13613 6.36119
170 2 3.19922 1.38329 2.49592
178 2 -0.102516 5.3718 0.4021
172 2 1.76653 0.732273 3.64287
173 2 2.33133 2.78446 4.06636
174 2 3.45539 2.26061 5.54784
175 2 2.36823 3.91275 5.84048
176 2 -1.61798 5.68748 1.52451
274 1 5.92449 2.09264 1.10718
250 2 4.30826 5.00932 2.69213
251 2 3.71523 3.86344 1.20883
180 2 1.587 4.97306 7.84109
276 2 5.11505 1.32209 1.009
247 1 3.71462 4.93627 1.63584
96 3 4.21366 0.938207 7.53673
277 2 5.64786 3.08611 1.60274
80 3 1.80926 0.611924 6.83881
187 2 -2.46999 6.88765 2.69221
3 4 0.475217 2.56537 16.2985
257 3 2.71536 7.08665 15.7272
265 2 -1.76052 3.62884 15.9502
20 4 4.03362 2.4851 8.49074
23 4 2.93698 2.32351 14.0942
28 4 4.11266 4.62167 12.63
232 2 -1.9936 3.96842 12.3686
61 1 2.49347 2.73674 9.5909
55 1 0.440155 6.76448 11.4203
83 3 -0.894503 3.07237 9.21427
86 3 -2.58618 6.77002 9.92325
97 3 4.36171 2.5033 15.0223
98 3 1.65453 2.53635 15.0349
99 3 5.16627 2.75243 9.63297
108 3 2.97482 3.35343 12.5739
259 2 0.201735 5.68017 15.1222
110 3 3.41343 5.95361 12.0614
148 2 -0.757889 5.72573 11.9604
269 2 0.474859 2.01607 11.3014
264 1 -1.1445 2.86183 15.3614
181 2 0.913966 4.94078 9.60889
185 2 1.20335 6.16998 10.9764
267 1 -0.211415 1.17603 11.3484
197 2 2.03201 1.67261 9.37001
198 2 1.79919 3.57398 9.18655
199 2 2.85028 2.90687 10.6853
53 1 0.645077 5.11828 8.53153
100 3 5.81386 1.43483 11.6938
295 2 -2.75783 5.27114 11.3545
260 2 0.173245 6.777 13.3556
190 2 -3.93201 7.21901 14.0068
256 1 -0.0832192 6.86136 14.6026
284 2 -0.822098 3.25511 14.294
208 2 2.31749 0.853817 12.2967
64 1 2.60431 0.559208 13.3905
9 4 -3.97369 7.06228 9.19949
261 2 -1.17395 7.19421 14.824
179 2 0.0788966 6.12021 8.32773
152 2 4.45083 4.98987 14.2944
1 4 -5.7617 13.0984 1.52235
4 4 -4.62854 13.3961 7.31587
12 4 -2.55249 9.06535 1.33774
15 4 -2.6779 8.94371 7.11701
16 4 -3.80135 11.1353 5.25425
30 4 1.25026 8.22336 2.12487
31 4 -1.24453 11.595 3.48398
215 2 -0.711134 12.4498 6.55273
56 1 -3.25679 7.6235 2.46166
157 2 1.58515 10.1661 6.45164
65 1 2.14549 8.55875 7.38441
66 1 -1.37859 13.1692 2.51175
67 1 -1.02774 12.9629 7.62784
115 3 -1.6077 10.1153 7.55901
88 3 -3.75101 9.7943 0.578646
90 3 -1.94081 7.49029 6.58246
91 3 -5.08867 10.8978 4.32924
92 3 -3.46414 9.57883 5.88938
93 3 -4.33628 12.2014 6.36104
111 3 0.479062 7.33134 3.15572
112 3 1.35781 7.60957 0.676078
113 3 -1.38893 10.0746 2.09576
114 3 -2.53803 11.6754 4.50088
280 3 -4.55903 12.4374 0.777773
116 3 0.181254 11.3713 4.18485
155 2 0.0548716 9.45539 1.94261
213 2 -0.28817 13.5649 2.5509
188 2 -3.55512 8.18628 3.46196
222 2 -0.180615 10.8637 0.320459
211 2 1.39166 9.38578 7.64882
212 2 -1.68634 12.8661 1.4054
189 2 -0.4889 7.82135 0.266784
210 2 1.51674 7.15955 8.04632
292 2 -1.99863 13.6345 7.4757
171 2 -4.19427 13.3024 3.39785
214 2 -2.21002 13.7156 3.18452
151 2 2.58498 8.60422 5.59953
255 4 1.21403 7.59287 15.7733
14 4 -4.72658 11.8618 16.2625
17 4 -3.07281 9.3739 13.0321
32 4 -1.0925 11.2533 8.4221
34 4 -1.83867 11.9545 14.7746
207 2 -4.11829 13.6252 13.5039
89 3 -3.72514 8.63415 8.45246
58 1 -4.4514 8.17227 13.789
59 1 -4.17456 10.6219 12.1017
69 1 -0.323239 11.7823 15.8674
224 2 1.19359 9.80886 11.7216
154 2 2.06114 7.73474 10.8178
94 3 -2.21389 8.36954 12.0274
95 3 -6.02314 11.445 15.1755
117 3 -2.32218 10.2566 14.1108
118 3 -1.42356 12.9299 13.5787
119 3 -3.19283 12.2814 15.5808
120 3 0.193779 11.0495 9.31258
268 2 -7.40092 13.7302 11.081
147 2 -4.86558 12.6577 8.82752
156 2 -2.28988 12.4047 8.99087
184 2 0.0935389 7.99516 10.2079
186 2 0.864328 7.37446 12.2381
191 2 -4.74222 8.74754 14.7478
192 2 -5.14463 10.0039 12.2667
193 2 -3.63253 10.4636 11.0613
194 2 -4.2953 11.687 12.4251
206 2 -5.97957 13.6986 13.9864
288 2 -2.17882 9.28916 15.5138
221 2 0.2965 10.9533 15.4494
258 2 0.69666 8.57592 14.3509
11 4 -1.46743 7.36621 11.0081
225 2 0.529134 11.0199 12.9932
289 2 -2.81845 7.75915 16.3302
57 1 -2.21928 8.67824 16.4707
2 4 13.9646 1.33653 3.59437
21 4 7.19729 5.02508 4.97884
54 1 11.0769 5.88728 5.86819
36 4 9.39568 2.83542 4.25342
37 4 10.7657 0.29699 0.317461
40 4 11.7949 1.93469 5.74981
43 4 10.9714 3.426 1.6441
26 4 4.81212 5.09361 6.8747
183 2 10.8922 5.91055 4.78022
63 1 6.6619 5.52291 3.20612
74 1 9.99537 4.61655 0.545485
105 3 5.84847 4.68283 5.72362
122 3 8.39601 3.91183 4.86485
125 3 12.691 1.58133 4.47198
126 3 10.3025 2.22379 5.4128
127 3 11.9308 0.821988 6.96367
133 3 10.2454 3.49283 3.0149
134 3 10.9162 1.9682 1.02197
158 2 8.48521 1.54801 3.67756
286 2 10.5996 6.81602 6.37908
162 2 12.4054 3.40684 6.36755
62 1 8.00315 6.69135 5.82471
281 2 11.0712 5.93015 7.89252
182 2 10.8071 4.89025 6.31712
205 2 5.69373 4.95796 2.93014
246 4 4.5449 5.8169 0.145523
201 2 8.12245 6.30306 6.88394
203 2 7.41878 5.40073 2.43232
204 2 6.39159 6.61046 3.42621
283 2 13.4104 0.252407 1.60632
228 2 9.04883 2.18717 7.41589
234 2 9.62947 5.44149 1.32722
200 2 8.93521 6.96973 5.38462
164 2 12.6021 4.03107 1.91496
275 2 6.90952 1.71273 1.36497
135 3 5.73468 5.95085 7.94886
161 2 8.74247 4.7273 8.22656
5 4 13.7009 1.55505 9.95126
138 3 7.46511 6.53534 10.0568
101 3 4.96931 5.04863 15.7394
39 4 8.84368 3.35562 9.36762
41 4 8.30094 1.99754 14.6677
42 4 11.2348 2.94312 11.484
266 2 13.5386 1.82913 15.3505
241 2 6.5929 6.00964 12.9787
72 1 9.80321 3.22739 14.4995
73 1 12.1783 4.42576 12.0145
76 1 6.60681 6.62932 13.8965
45 4 8.66736 6.89723 11.0333
233 2 11.5264 4.71675 12.9361
124 3 7.51153 3.17916 10.1311
128 3 8.06205 1.49818 13.1865
129 3 8.97858 0.73046 15.7706
130 3 7.13071 2.97637 15.2693
131 3 12.3046 1.85106 10.987
132 3 10.1574 3.57615 10.3962
235 2 8.48418 4.85366 16.4958
24 4 6.05935 2.91597 10.9841
44 4 6.08951 6.87044 9.1831
137 3 9.92982 6.99767 10.1082
163 2 10.4816 2.30561 12.8926
165 2 8.79022 5.50533 11.8564
226 2 8.1068 1.08581 8.73849
229 2 9.62731 3.66231 13.516
230 2 10.8513 2.75497 14.5323
231 2 9.6206 3.89228 15.4991
136 3 4.69166 7.15565 10.2359
109 3 5.50966 4.1834 11.962
240 2 7.22038 6.15608 14.6939
242 2 5.49418 6.84197 14.268
19 4 5.45835 3.29548 15.8641
227 2 10.0744 1.23894 8.94898
22 4 7.05498 0.56297 12.4078
71 1 9.07668 1.72675 8.51879
285 2 14.2991 1.08523 12.2852
236 2 10.2313 5.56481 16.397
278 1 4.24111 12.343 0.235929
38 4 5.1393 13.3048 7.67752
46 4 3.45328 10.0003 2.82982
68 1 1.92814 12.808 5.73532
252 2 6.78092 7.02513 0.474952
139 3 2.72791 8.71909 2.40802
140 3 2.92442 10.6829 4.10333
141 3 4.39887 11.9591 7.98832
149 2 7.41014 10.0648 4.53501
254 2 5.25624 8.18194 0.124672
160 2 6.22083 12.7438 6.64072
166 2 3.43825 11.0514 1.4643
167 2 5.1034 9.69538 3.00441
291 2 6.12743 9.97033 0.162196
217 2 1.24979 13.5505 5.27862
218 2 3.03608 13.0132 5.51391
219 2 1.76301 12.6704 6.85464
237 2 6.28721 8.59052 7.44157
293 2 4.94266 11.7619 0.811731
263 2 4.97968 13.0126 3.10053
209 2 3.15327 8.70555 7.80886
262 1 5.91444 13.3919 2.64206
33 4 1.66033 11.1328 4.95104
270 1 8.2564 8.7773 3.34259
271 2 8.19824 8.05626 4.28216
272 2 9.25371 8.58802 2.59794
273 2 7.23374 8.78464 2.72055
282 2 6.80222 12.6559 2.61832
159 2 2.98612 12.7027 1.64141
202 2 7.19227 7.49202 5.74603
87 3 8.33224 11.5815 2.34652
150 2 8.54283 9.26393 0.629267
13 4 8.75411 10.6096 3.48533
196 2 7.67726 10.8437 0.959652
253 2 5.56229 7.25191 1.72578
216 2 -0.176412 13.5997 8.1257
248 1 5.68792 7.24007 0.623569
287 2 11.0104 7.16302 1.92773
60 1 7.13341 10.4988 0.00246279
18 4 7.93781 10.3536 15.4294
29 4 3.65206 7.26636 11.3137
279 2 4.33995 14.1083 16.0686
47 4 3.58059 11.3835 9.29649
48 4 7.05921 8.34837 13.33
49 4 5.34968 10.8509 11.9475
244 2 5.30505 11.909 14.1927
294 2 3.05346 12.2716 15.9411
77 1 5.11168 12.2743 13.1259
121 3 0.213957 13.3225 11.2225
239 2 5.33208 9.29283 8.96081
35 4 1.00875 11.987 10.729
142 3 2.44835 12.2555 9.88046
143 3 8.40918 8.12132 11.967
144 3 7.68682 9.07679 14.5331
145 3 4.41712 10.9372 10.6233
146 3 5.5138 9.28483 12.8656
245 2 3.79311 12.2471 12.8745
153 2 4.21269 8.40366 12.4727
168 2 2.73301 10.0215 8.54855
169 2 6.71106 11.968 12.1425
195 2 6.31254 11.9478 15.6757
220 2 0.290542 12.8204 15.8802
290 2 9.80888 8.14119 13.0584
223 2 2.36435 11.0718 12.5475
238 2 7.21449 8.99323 9.10873
75 1 6.2361 8.67971 8.56759
243 2 5.63621 13.1962 12.8323
70 1 1.29834 10.8216 12.226
123 3 6.00213 13.8793 9.05573
ITEM: TIMESTEP
100
ITEM: NUMBER OF ATOMS
295
ITEM: BOX BOUNDS xy xz yz pp pp pp
-8.3339999999999996e+00 1.5144700000000000e+01 -7.6974000000000000e+00
0.0000000000000000e+00 1.4189300000000001e+01 -6.3660000000000005e-01
0.0000000000000000e+00 1.6489751000000002e+01 5.8050000000000002e-01
ITEM: ATOMS id type x y z
6 4 1.06345 2.00326 5.88666
7 4 0.142314 3.84951 2.08016
8 4 -0.582748 3.83057 7.83294
10 4 -2.22494 6.07863 5.9374
25 4 0.17937 5.99573 4.07831
27 4 2.34647 6.93195 6.1632
50 1 2.74007 0.407594 2.84935
51 1 2.58651 2.89157 5.28873
52 1 -1.0917 4.92336 0.878483
78 3 1.10035 0.44157 0.719126
79 3 0.392123 1.34695 4.60865
80 3 1.67718 0.584942 6.96913
81 3 -0.848792 2.63046 2.53487
82 3 1.23796 3.27914 0.993838
84 3 0.238494 3.05026 6.80639
85 3 -2.01306 4.84024 6.97515
249 2 2.80328 5.84059 1.96365
102 3 0.760615 4.68161 3.24725
103 3 -1.48192 5.91772 4.44054
104 3 3.97599 3.8978 7.54189
106 3 1.0489 6.23527 5.41334
107 3 3.6778 6.14661 6.45466
170 2 3.1544 1.23608 2.21524
178 2 -0.233797 5.66 0.510609
172 2 1.93167 0.853004 3.57528
173 2 2.60489 2.81459 4.17387
174 2 3.59981 2.55477 5.76799
175 2 2.23872 4.0013 5.59605
176 2 -1.75368 5.38347 1.59001
274 1 6.04664 2.32263 1.10059
250 2 4.38 5.07078 2.71487
251 2 3.33022 4.14491 1.50257
180 2 1.44578 4.8702 7.79792
276 2 4.9999 1.84387 1.14728
247 1 3.66746 5.15615 1.82682
96 3 4.22646 1.06643 7.34934
179 2 -0.106039 6.08016 8.0457
177 2 -1.6994 4.54236 0.0209068
3 4 0.443424 2.63355 16.2743
257 3 2.6917 6.98304 15.7918
265 2 -1.63179 3.89439 15.8303
20 4 4.00075 2.58374 8.46714
23 4 2.86162 2.28325 14.1076
28 4 4.12895 4.61083 12.638
232 2 -1.88122 4.26878 12.2107
61 1 2.30766 2.5911 9.39098
55 1 0.480835 6.95092 11.3598
83 3 -0.904335 2.94452 9.22308
86 3 -2.35515 6.70694 9.82403
97 3 4.3445 2.36471 15.0206
98 3 1.63244 2.66134 15.1618
99 3 4.91507 2.60785 9.6653
108 3 3.04464 3.47551 12.868
259 2 0.110781 5.76511 15.1137
110 3 3.44854 5.8836 12.0832
148 2 -0.746609 6.01407 12.1642
269 2 0.839779 1.96972 11.225
264 1 -1.11108 3.02146 15.3003
181 2 0.886986 5.33612 9.54965
185 2 0.986335 6.07639 10.8578
267 1 -0.0397469 1.16841 11.4247
197 2 1.86919 1.55903 9.07973
198 2 1.65001 3.56421 9.06039
199 2 2.59916 2.51215 10.4865
53 1 0.548577 5.15583 8.48352
100 3 6.10999 1.51574 11.6653
261 2 -1.16774 7.28576 14.7023
260 2 0.202102 6.9895 13.3365
190 2 -3.80055 7.25477 14.1136
256 1 -0.107072 6.95352 14.5599
284 2 -0.81096 3.18939 14.2536
208 2 2.60914 0.798343 12.2396
64 1 2.74906 0.525224 13.3473
285 2 -0.477269 1.24816 12.5094
9 4 -3.85708 7.01808 9.18234
1 4 -5.69565 12.9825 1.52293
4 4 -4.62124 13.5661 7.29996
12 4 -2.55654 9.14918 1.42666
15 4 -2.81604 8.99004 7.21442
16 4 -3.82966 11.1261 5.30144
30 4 1.24398 8.29929 2.20137
31 4 -1.25832 11.4007 3.41633
215 2 -0.323281 12.5804 6.64394
56 1 -3.11185 7.59252 2.38766
157 2 1.36013 9.76571 6.25858
65 1 2.14271 8.52594 7.46922
66 1 -1.27509 13.0333 2.42222
67 1 -0.918102 13.0823 7.59873
115 3 -1.72359 10.089 7.77003
88 3 -3.77955 9.87922 0.848423
90 3 -1.91153 7.57556 6.64664
91 3 -5.11321 10.8155 4.36309
92 3 -3.63677 9.64231 5.93936
93 3 -4.16088 12.4081 6.31339
111 3 0.487053 7.30822 3.10136
112 3 1.21027 7.7387 0.583935
113 3 -1.41196 9.98122 2.09689
114 3 -2.58107 11.4807 4.36741
280 3 -4.53445 12.3958 0.716271
116 3 0.199037 11.2254 4.21055
155 2 0.209793 9.69719 2.29193
213 2 -0.117378 13.2171 2.6127
188 2 -4.01909 8.13845 2.87658
222 2 -0.399334 11.4059 0.484686
211 2 1.45345 9.31756 7.87205
212 2 -1.51265 13.0612 1.30316
189 2 -0.548513 8.00744 0.147468
210 2 1.44481 7.16054 7.99115
292 2 -1.92648 13.6864 7.35883
171 2 -4.24655 13.3987 3.42492
214 2 -2.01258 13.6118 3.08712
187 2 -2.48907 7.04774 3.14103
287 2 -3.53392 6.90464 1.57633
255 4 1.18588 7.60155 15.7129
14 4 -4.52463 11.8351 16.2704
17 4 -3.11831 9.41486 12.9317
32 4 -1.05656 11.3523 8.42143
34 4 -1.83797 11.9533 14.6128
207 2 -4.09707 13.4252 13.5456
89 3 -3.88742 8.52471 8.39404
58 1 -4.42816 8.19175 13.861
59 1 -3.99884 10.8169 11.977
69 1 -0.562552 11.9125 15.9459
70 1 1.25032 10.6291 12.0204
154 2 2.08043 8.01933 10.9994
94 3 -2.17758 8.49672 11.9815
95 3 -5.85158 11.323 15.0689
117 3 -2.1134 10.1692 13.967
118 3 -1.45082 13.0476 13.5134
119 3 -3.20436 12.1039 15.4417
120 3 -0.0555491 11.1598 9.61094
268 2 -7.45599 13.6988 11.0953
147 2 -4.88913 12.7291 8.80445
156 2 -2.36788 12.4879 8.7231
184 2 0.162457 8.19602 10.2066
186 2 1.18311 7.34155 12.2417
191 2 -4.6712 8.82447 14.7684
192 2 -4.73007 10.2285 11.3431
193 2 -3.04474 11.1645 11.4095
194 2 -4.5015 11.6099 12.616
206 2 -5.90956 13.7924 13.8814
288 2 -2.29744 9.38497 15.4521
221 2 -0.0770925 10.8636 15.6297
258 2 0.956834 8.53659 14.2656
11 4 -1.40248 7.40595 11.006
225 2 0.328084 10.1663 12.2969
289 2 -2.7821 7.77369 16.2213
57 1 -2.28215 8.74612 16.366
2 4 13.97 1.41958 3.52271
21 4 7.16816 5.02812 4.94666
54 1 11.0017 6.06576 5.82851
36 4 9.38019 2.83854 4.21867
37 4 10.8225 0.363897 0.373411
40 4 11.8484 2.01973 5.79018
43 4 10.9218 3.3285 1.55472
26 4 4.80724 5.15208 6.86022
183 2 10.9227 5.72184 4.70862
63 1 6.91167 5.59701 3.04256
74 1 10.1111 4.67156 0.489336
105 3 5.73835 4.55418 5.55141
122 3 8.30717 3.95725 4.74876
125 3 12.7363 1.65089 4.55459
126 3 10.3181 2.14711 5.25411
127 3 12.1306 0.785861 6.85332
133 3 10.1998 3.45246 2.95244
134 3 11.024 1.85351 0.87014
158 2 8.42627 1.60471 3.64437
277 2 6.06012 3.298 1.74511
162 2 12.4156 3.46925 6.47848
62 1 7.87434 6.62956 5.82946
281 2 11.0473 5.9467 7.8052
182 2 10.2952 5.49362 6.4588
205 2 5.74394 5.68977 2.89675
246 4 4.57444 5.80272 0.191569
201 2 7.75141 6.26557 6.91079
203 2 7.34854 4.78884 2.42736
204 2 7.50615 6.57206 2.91662
283 2 13.5612 0.296266 1.48264
228 2 9.21631 2.11403 7.53724
234 2 9.81212 5.49583 1.23509
135 3 5.74218 5.84251 8.00917
164 2 12.5016 4.0314 1.70197
275 2 6.98845 1.59905 1.16875
200 2 8.94182 6.85681 5.48748
236 2 11.1321 5.02222 0.000162311
5 4 13.7115 1.53547 10.1502
138 3 7.38675 6.6833 10.068
101 3 4.94416 5.09275 15.7898
39 4 8.87071 3.34357 9.43472
41 4 8.37453 2.04861 14.6824
42 4 11.2049 3.05972 11.5496
266 2 13.4908 2.00909 15.5423
241 2 6.56556 6.06229 13.1908
72 1 9.7669 3.27138 14.4738
73 1 12.0757 4.48588 12.2315
76 1 6.3662 6.86984 13.9891
45 4 8.64842 6.81213 10.9301
233 2 11.6449 4.57611 13.3017
124 3 7.55655 3.32545 10.2648
128 3 8.18019 1.34004 13.2164
129 3 8.91328 0.716256 15.9429
130 3 6.97979 2.84361 15.3766
131 3 12.4114 2.1433 10.8088
132 3 10.141 3.51289 10.322
235 2 8.64778 5.03557 16.1937
24 4 6.0028 2.85977 10.9315
44 4 5.93049 6.94696 9.25566
137 3 10.0874 7.00898 10.1603
163 2 10.3025 2.27042 12.8243
165 2 8.92261 5.42428 11.7709
226 2 8.37768 0.990494 8.91211
229 2 9.31577 3.79987 13.4507
230 2 10.7577 2.80202 14.4345
231 2 9.69625 3.98375 15.3944
19 4 5.52858 3.25374 15.772
109 3 5.47632 4.11246 11.8828
240 2 6.69239 6.6243 15.0391
152 2 4.82158 5.08562 14.1816
161 2 8.8056 4.56936 8.30125
227 2 10.2911 1.29445 8.94932
22 4 7.10962 0.470112 12.3798
71 1 9.24757 1.7227 8.64786
242 2 5.21556 7.21053 14.0154
136 3 4.53737 7.13554 10.0911
295 2 11.7689 5.34717 11.457
123 3 13.5903 0.327818 9.06595
278 1 4.38675 12.3296 0.245477
38 4 5.28784 13.2939 7.76652
46 4 3.51127 9.99609 2.85068
68 1 2.20633 12.7482 5.72275
252 2 6.71377 7.12008 0.267599
139 3 2.84257 8.58821 2.70315
140 3 2.79682 10.7553 4.02775
141 3 4.31088 12.0643 8.02449
149 2 7.48654 10.0727 4.67666
254 2 5.26911 8.21206 0.170902
160 2 6.6034 12.7152 6.92923
166 2 3.52712 10.9778 1.43596
167 2 5.08644 9.67776 3.21492
151 2 2.64988 8.59856 5.66208
217 2 1.57872 13.6383 5.40922
218 2 3.31686 12.824 5.36722
219 2 2.06931 12.5138 6.82528
237 2 6.41914 8.57316 7.48888
293 2 5.29429 11.7342 0.684943
263 2 5.09303 12.9844 2.97232
209 2 3.22204 8.5842 7.92527
262 1 5.97094 13.4646 2.53084
33 4 1.66601 11.0841 5.05731
270 1 8.08893 8.73041 3.36324
271 2 8.00518 7.933 4.22614
272 2 9.13141 8.5487 2.53621
273 2 7.10666 8.81476 2.86128
282 2 6.96909 12.7677 2.58787
159 2 3.35657 12.7969 1.69163
202 2 7.13576 7.43025 5.54219
87 3 8.2861 11.6342 2.52101
150 2 8.69753 9.34837 0.661346
13 4 8.74113 10.5095 3.55278
196 2 7.64982 10.9211 1.01569
253 2 5.40562 7.14734 1.80557
286 2 10.7646 7.22899 5.88978
248 1 5.69785 7.27589 0.606341
216 2 -0.129359 13.7579 8.16962
18 4 8.16786 10.3468 15.4423
29 4 3.63976 7.31784 11.3796
60 1 6.6898 11.0656 16.4481
47 4 3.55998 11.4155 9.27436
48 4 7.13523 8.37062 13.2962
49 4 5.28734 10.7831 11.7968
244 2 4.88698 11.7632 13.9967
294 2 3.14978 12.2284 16.061
77 1 4.94056 12.2366 12.9753
121 3 0.223871 13.1754 11.3413
239 2 5.09603 9.27018 8.73829
35 4 0.956021 11.9978 10.5977
142 3 2.40608 12.2431 9.95318
143 3 8.29433 7.92226 11.976
144 3 7.65671 9.13762 14.5799
145 3 4.63487 10.8626 10.2911
146 3 5.62667 9.45539 12.5697
245 2 3.93096 12.4931 12.47
153 2 4.36989 8.32188 12.517
168 2 2.73271 10.0358 8.61583
169 2 6.5609 11.9496 11.8749
195 2 6.56962 11.9776 15.6291
220 2 0.181125 12.8736 15.8928
290 2 9.83763 7.91885 13.1014
223 2 1.72575 11.3331 12.8477
238 2 7.02551 9.20533 9.18952
75 1 6.11938 8.72921 8.57915
243 2 5.72036 13.117 12.8576
279 2 4.23759 13.9743 15.8746
224 2 1.98671 9.95544 11.5582
291 2 5.77368 10.4085 16.4837
ITEM: TIMESTEP
200
ITEM: NUMBER OF ATOMS
295
ITEM: BOX BOUNDS xy xz yz pp pp pp
-8.3339999999999996e+00 1.5144700000000000e+01 -7.6974000000000000e+00
0.0000000000000000e+00 1.4189300000000001e+01 -6.3660000000000005e-01
0.0000000000000000e+00 1.6481502000000003e+01 5.8050000000000002e-01
ITEM: ATOMS id type x y z
6 4 1.16517 1.93208 5.86651
7 4 -0.0199606 4.00518 2.05168
8 4 -0.628101 3.879 7.85353
10 4 -2.16315 6.15335 6.07397
25 4 0.186289 6.08634 4.13356
27 4 2.33379 6.92961 6.31648
50 1 2.65415 0.416348 2.86851
51 1 2.51241 3.04308 5.17839
52 1 -1.08879 5.25195 1.01578
78 3 1.06046 0.428953 0.540805
79 3 0.466616 1.31782 4.58065
80 3 1.85567 0.645828 6.86437
81 3 -0.990169 2.74543 2.33564
82 3 1.37103 3.40876 0.93485
84 3 0.169814 3.03091 6.83563
85 3 -2.1236 4.7872 7.03834
249 2 3.88939 5.84469 2.59609
102 3 0.55449 4.70068 3.31974
103 3 -1.4271 5.98327 4.67173
104 3 3.9446 3.83503 7.51041
106 3 1.13771 6.30082 5.44483
107 3 3.77021 6.27714 6.29244
170 2 3.19802 1.34382 2.39569
178 2 -0.281288 5.87552 0.516451
172 2 1.75189 0.674718 3.59453
173 2 2.38404 3.20292 4.08179
174 2 3.45706 2.55682 5.47778
175 2 2.29256 4.04329 5.87875
176 2 -1.79636 5.97083 1.6345
274 1 6.0083 2.26702 1.14439
250 2 4.65028 4.20162 2.09101
251 2 2.9475 4.68222 1.47464
180 2 1.42627 4.83887 8.10941
276 2 5.23954 1.40693 1.15568
247 1 3.95317 5.05666 1.81381
96 3 4.28162 0.923841 7.47706
287 2 -3.44878 6.63537 1.88714
177 2 -1.55137 4.66492 0.113742
187 2 -2.27183 6.87482 3.3545
210 2 1.66065 7.00728 8.10474
277 2 5.65739 3.23046 1.69742
3 4 0.526065 2.72024 16.3336
257 3 2.60242 6.93339 15.917
265 2 -1.50615 4.19757 15.8647
20 4 3.86147 2.56324 8.50148
23 4 2.95481 2.21484 14.1553
28 4 4.04276 4.58341 12.6395
232 2 -1.88773 4.52103 12.4083
61 1 2.15994 2.47912 9.33096
55 1 0.491126 6.85058 11.3778
83 3 -1.07805 2.96967 9.06337
86 3 -2.43258 6.74721 9.86533
97 3 4.30359 2.38512 14.9278
98 3 1.70085 2.50822 15.1954
99 3 4.87458 2.72493 9.66461
108 3 2.99106 3.34673 12.8189
259 2 0.102236 5.63788 15.0038
110 3 3.41997 5.99225 12.1953
148 2 -0.783686 6.12585 11.9259
269 2 0.641255 1.96614 11.3887
264 1 -1.11019 3.08918 15.548
181 2 0.614741 4.92238 9.84536
185 2 1.11339 5.95694 10.966
267 1 -0.103309 1.11495 11.2987
197 2 1.5928 1.6385 8.81293
198 2 1.57545 3.45155 9.20681
199 2 2.47054 2.30141 10.4248
53 1 0.492173 5.11523 8.69629
100 3 5.94967 1.50315 11.7608
22 4 6.96336 0.439233 12.4559
260 2 0.0954489 6.86731 13.3226
9 4 -3.86847 7.06379 9.15168
256 1 -0.163909 6.75537 14.5873
284 2 -0.898613 3.07366 14.4332
208 2 2.41854 0.723224 12.3194
179 2 0.0493877 6.15331 8.46835
285 2 -0.720385 0.928636 12.243
261 2 -1.20266 7.14451 14.9796
152 2 4.42099 4.93568 14.2637
1 4 -5.72443 13.1021 1.40725
4 4 -4.55981 13.463 7.21417
12 4 -2.36539 8.98203 1.51054
15 4 -2.77944 9.02959 7.2455
16 4 -3.91101 10.9942 5.23997
30 4 1.26072 8.20055 2.06664
31 4 -1.19912 11.4342 3.40288
215 2 -0.855533 12.3688 6.48062
56 1 -2.9796 7.40043 2.52507
157 2 1.54383 10.0562 6.36389
65 1 2.18564 8.58926 7.49115
66 1 -1.16436 13.0278 2.47952
67 1 -1.04579 12.9608 7.53135
115 3 -1.77349 10.1241 7.82778
88 3 -3.74823 9.98159 0.821817
90 3 -1.87913 7.58945 6.74409
91 3 -5.22006 10.7113 4.27757
92 3 -3.72873 9.65759 6.13845
93 3 -4.11303 12.2931 6.21461
111 3 0.502029 7.28775 3.13688
112 3 1.21535 7.80174 0.463062
113 3 -1.2282 9.9261 2.0838
114 3 -2.49955 11.2419 4.33364
280 3 -4.51455 12.4742 0.708433
116 3 0.291517 11.361 4.2815
155 2 0.394848 9.68078 1.90548
213 2 -0.0740459 13.3942 2.58437
188 2 -3.73101 8.13559 3.11346
222 2 -0.304357 11.2542 0.299878
211 2 1.40089 9.272 7.84804
212 2 -1.51796 12.6307 1.41479
189 2 -0.688431 7.98578 0.203604
214 2 -1.96545 13.6758 3.11167
292 2 -2.03779 13.6028 7.55592
171 2 -4.22285 13.3107 3.38511
255 4 1.09173 7.54212 15.7484
14 4 -4.60131 11.8403 16.2814
17 4 -3.02831 9.55028 12.7767
32 4 -1.14131 11.3912 8.59316
34 4 -1.887 12.0359 14.6409
207 2 -3.81486 13.696 13.4018
89 3 -3.89165 8.5982 8.58811
58 1 -4.20527 8.37015 13.7186
59 1 -3.95174 11.0677 11.8841
69 1 -0.427807 12.0091 15.7659
70 1 1.34279 10.6108 12.1248
154 2 2.19605 7.77719 10.8865
94 3 -2.17484 8.61628 11.782
95 3 -5.70235 11.3787 15.1215
117 3 -2.13494 10.2712 13.9564
118 3 -1.5122 13.0445 13.4898
119 3 -3.18334 12.3675 15.5898
120 3 0.0281616 11.2442 9.65101
268 2 -7.2835 13.7528 10.9998
147 2 -4.86297 12.7674 8.73577
156 2 -2.35868 12.5806 8.94932
184 2 0.190359 8.00017 10.2205
186 2 1.03396 7.33046 12.2007
191 2 -4.3708 8.82744 14.7365
192 2 -4.31607 10.5988 10.9177
193 2 -3.15908 11.8119 11.7338
194 2 -4.80448 11.4444 12.496
206 2 -5.70433 13.5385 13.9434
288 2 -2.35485 9.41553 15.4711
221 2 0.0720288 11.053 15.4905
258 2 0.797344 8.43343 14.2708
11 4 -1.50376 7.49682 10.9161
225 2 0.64601 9.69742 11.7966
289 2 -2.9543 7.75038 16.2523
57 1 -2.35784 8.7511 16.4678
190 2 -3.57175 7.45655 13.7553
223 2 0.983612 11.1225 13.0353
64 1 -4.90604 14.0726 13.3632
2 4 14.0448 1.58469 3.48347
21 4 7.16686 5.09572 4.83483
54 1 11.0755 6.22897 5.74477
36 4 9.40129 2.77817 4.24168
37 4 10.8988 0.3911 0.319704
40 4 11.8173 1.965 5.76923
43 4 11.016 3.43046 1.62747
26 4 4.8721 5.15353 6.78829
183 2 11.0261 6.1552 4.62315
63 1 7.01838 5.70513 2.95389
74 1 10.0503 4.654 0.514213
105 3 5.75047 4.68531 5.46779
122 3 8.48574 3.86256 4.9154
125 3 12.8075 1.73919 4.48878
126 3 10.3307 2.05307 5.22286
127 3 12.1057 0.953784 6.90208
133 3 10.2625 3.36899 3.06675
134 3 11.0678 1.88488 0.939802
158 2 8.4129 1.53152 3.67338
236 2 10.9796 5.38783 0.43943
162 2 12.4298 3.49811 6.32228
62 1 7.7091 6.77661 5.62268
281 2 11.0719 6.052 7.70747
182 2 10.5134 5.37295 6.16932
205 2 5.94571 5.5521 2.61201
246 4 4.61371 5.84504 0.161271
201 2 7.77097 6.34879 6.69922
203 2 7.81735 5.01502 2.4293
204 2 7.32365 6.78947 2.98876
283 2 13.5539 0.39644 1.44856
228 2 9.15954 2.33795 7.42053
234 2 9.26878 4.91751 1.33671
135 3 5.84202 5.79538 7.82239
164 2 12.5325 4.30589 1.73962
275 2 6.99612 1.93204 1.53181
161 2 8.69713 4.59938 8.20284
5 4 13.7354 1.57318 10.0302
138 3 7.32298 6.81225 10.1833
101 3 4.95046 5.02402 15.7072
39 4 8.85766 3.36878 9.43621
41 4 8.28152 2.02884 14.6887
42 4 11.2346 3.12535 11.4646
266 2 13.4069 2.21704 15.9259
241 2 6.59823 6.02855 13.0906
72 1 9.75607 3.28524 14.5087
73 1 12.1072 4.54518 12.3339
76 1 6.20569 6.88579 13.8271
45 4 8.66906 6.76161 11.0133
233 2 11.5543 4.45388 13.3666
124 3 7.3912 3.18438 10.119
128 3 8.16447 1.27078 13.3275
129 3 8.96045 0.839832 15.9393
130 3 7.00943 2.8877 15.2515
131 3 12.4087 2.0611 11.0915
132 3 10.186 3.6799 10.3716
235 2 8.91187 5.09534 15.9539
24 4 5.87783 2.82643 10.8799
44 4 5.92622 6.8459 9.1553
137 3 9.97622 6.81814 10.1305
163 2 10.3228 2.43707 12.8286
165 2 8.71139 5.22002 11.7583
226 2 8.34939 0.995255 8.70098
229 2 9.55618 3.8696 13.5935
230 2 10.6753 2.61881 14.6315
231 2 9.67893 4.06115 15.4453
19 4 5.54304 3.22496 15.8311
109 3 5.40776 4.21397 11.8744
240 2 6.58864 6.89039 14.9463
242 2 4.99694 7.0046 13.732
136 3 4.53492 6.96907 9.96911
227 2 10.234 1.38332 8.77975
295 2 11.7318 5.40012 11.7317
71 1 9.15576 1.76039 8.51581
278 1 4.37411 12.3586 0.438736
38 4 5.29286 13.498 7.67883
46 4 3.56174 9.83698 2.8442
68 1 2.15134 12.7531 5.77076
291 2 6.48122 9.5312 0.0390728
139 3 2.68956 8.57193 2.49072
140 3 2.91195 10.6623 3.99305
141 3 4.54906 12.0978 7.89828
149 2 7.12543 10.0541 4.23567
151 2 2.63215 8.71891 5.76379
160 2 6.64446 13.0081 6.83102
166 2 3.67251 10.8271 1.48478
167 2 5.15156 9.35954 3.06342
200 2 8.69519 7.25628 5.37441
217 2 1.27578 13.478 5.59512
218 2 3.12123 12.9511 5.14794
219 2 2.3951 12.6146 6.86127
237 2 6.22982 8.26932 7.16385
293 2 5.35597 12.078 0.941325
263 2 5.19809 13.167 3.02991
209 2 3.09494 8.66615 8.06271
262 1 6.13392 13.6285 2.48813
33 4 1.70073 11.1209 4.9773
270 1 8.03803 8.72656 3.08596
271 2 7.83417 7.97355 3.9813
272 2 9.04319 8.50986 2.46634
273 2 7.10383 8.91024 2.47311
282 2 7.02946 12.8736 2.40638
159 2 3.22513 12.6444 1.69381
202 2 6.80841 7.46708 5.56013
87 3 8.3827 11.7277 2.36926
150 2 8.73832 9.31858 0.605126
13 4 8.57216 10.518 3.41921
196 2 7.61313 10.9554 0.846698
253 2 5.04307 7.63549 1.53341
286 2 10.6881 7.2733 6.05858
248 1 5.64979 7.33549 0.545148
216 2 -0.18297 13.6072 7.88449
252 2 6.78229 7.20359 0.778222
18 4 8.12194 10.4071 15.3406
29 4 3.70146 7.20746 11.3003
60 1 6.64682 10.9886 16.3955
47 4 3.65105 11.5229 9.18819
48 4 7.05943 8.32811 13.1071
49 4 5.51272 10.8526 11.481
244 2 4.44461 11.2199 13.4732
294 2 3.34086 12.098 16.2773
77 1 4.87104 12.1285 12.7307
121 3 0.167508 13.1885 11.3553
239 2 5.15441 9.05853 8.48966
35 4 0.995178 11.8977 10.7694
142 3 2.52833 12.4484 9.8407
143 3 8.54642 7.94986 12.0435
144 3 7.68289 9.21522 14.3447
145 3 4.47591 10.9188 10.3572
146 3 5.7628 9.51616 12.3477
245 2 4.01049 12.7252 12.2992
153 2 4.4647 8.51667 12.1971
168 2 2.7412 10.1545 8.57916
169 2 6.56661 12.2608 11.8637
195 2 6.39423 11.7729 15.4776
220 2 0.262999 13.0552 15.7049
290 2 9.9885 8.16378 13.0938
123 3 5.76269 13.8953 9.12979
238 2 7.05868 9.03297 8.82289
75 1 6.11827 8.53102 8.29988
243 2 5.56564 12.7778 13.2642
224 2 2.49184 10.4375 12.0734
254 2 4.78586 8.52298 16.0744
279 2 4.0887 14.1633 15.7681
ITEM: TIMESTEP
300
ITEM: NUMBER OF ATOMS
295
ITEM: BOX BOUNDS xy xz yz pp pp pp
-8.3339999999999996e+00 1.5144700000000000e+01 -7.6974000000000000e+00
0.0000000000000000e+00 1.4189300000000001e+01 -6.3660000000000005e-01
0.0000000000000000e+00 1.6473253000000000e+01 5.8050000000000002e-01
ITEM: ATOMS id type x y z
6 4 1.19305 2.03048 5.83288
7 4 0.0624565 4.06045 1.9798
8 4 -0.656967 3.84651 7.91567
10 4 -2.23246 6.17981 6.12232
25 4 0.166347 6.10792 4.06456
27 4 2.43747 6.88283 6.28219
50 1 2.69413 0.396163 2.90983
51 1 2.70149 2.98372 5.17293
52 1 -1.09294 5.21307 0.926545
78 3 0.905444 0.53788 0.650712
79 3 0.4954 1.61319 4.44843
80 3 1.93748 0.615025 6.61479
81 3 -1.00952 2.92876 2.48704
82 3 1.25018 3.22728 0.899705
84 3 0.246696 2.90751 6.82084
85 3 -2.03519 4.84276 6.9793
277 2 5.72744 2.98287 1.78144
102 3 0.764469 4.82254 3.21324
103 3 -1.43398 6.02353 4.4237
104 3 3.96292 4.04072 7.45252
106 3 1.20111 6.24155 5.57422
177 2 -1.70388 4.45032 0.156629
170 2 3.35718 1.17026 2.34883
178 2 -0.277499 5.76093 0.392818
172 2 1.78071 0.840467 3.48216
173 2 2.52925 2.97188 4.08591
174 2 3.60552 2.44124 5.50027
175 2 2.58418 4.08055 5.60126
176 2 -1.82789 6.01887 1.46955
274 1 6.168 2.15261 1.07198
250 2 4.90606 4.1201 2.16711
251 2 3.14615 4.74267 1.52235
287 2 -3.34682 6.705 1.64452
276 2 5.41614 1.23646 0.932255
247 1 4.27003 5.03571 1.94273
96 3 4.39293 0.913343 7.40726
3 4 0.46632 2.61625 16.3047
257 3 2.67998 6.72028 15.7006
265 2 -1.73262 4.01736 15.9549
20 4 3.91388 2.57745 8.47077
23 4 2.97418 2.21254 14.0976
28 4 4.04548 4.57452 12.6436
232 2 -2.18064 4.08013 12.5696
61 1 2.28624 2.5175 9.26377
55 1 0.44429 7.00308 11.3749
83 3 -1.04681 2.95526 9.11042
86 3 -2.59432 6.65807 9.96484
97 3 4.42723 2.41334 15.0112
98 3 1.72171 2.42811 15.0925
99 3 4.91833 2.75963 9.64846
108 3 2.94536 3.4459 12.7562
259 2 0.11795 5.6061 14.9445
110 3 3.57086 5.93502 12.0853
148 2 -0.910927 6.04975 12.1379
269 2 0.499172 2.00801 11.4338
264 1 -1.12737 3.12808 15.4522
181 2 0.198494 4.97547 9.91419
185 2 1.27487 6.2393 11.2224
267 1 -0.0603413 1.15306 11.1661
197 2 1.87285 1.50549 8.88009
198 2 1.53299 3.47669 9.12229
199 2 2.56858 2.37921 10.3634
53 1 0.400303 5.08198 8.76411
100 3 5.77622 1.44632 11.8524
261 2 -1.13291 7.05689 14.9174
260 2 0.175236 6.82958 13.3647
9 4 -4.07193 7.09654 9.16503
256 1 -0.0766557 6.72869 14.586
284 2 -0.925504 3.27689 14.3587
208 2 2.44564 0.607223 12.3486
179 2 0.00661768 6.04817 8.31153
19 4 5.4296 3.25463 15.8196
295 2 -2.8811 5.29319 11.2715
180 2 1.49868 4.94247 8.39138
22 4 6.89888 0.475443 12.5005
268 2 0.570812 0.396653 10.6777