ITEM: TIMESTEP
0
ITEM: NUMBER OF ATOMS
295
ITEM: BOX BOUNDS xy xz yz pp pp pp
-8.3339999999999996e+00 1.5144700000000000e+01 -7.6974000000000000e+00
0.0000000000000000e+00 1.4189300000000001e+01 -6.3660000000000005e-01
0.0000000000000000e+00 1.6498000000000001e+01 5.8050000000000002e-01
ITEM: ATOMS id type q x y z
6 4 1.26505 0.718812 1.57313 6.12331
7 4 1.31209 -0.227476 3.62934 1.78734
8 4 1.23484 -0.657526 3.92434 7.83357
10 4 1.22306 -1.9787 6.43332 5.47624
25 4 1.40861 0.730544 6.03509 3.81084
27 4 0.983452 3.08832 6.33 5.73281
50 1 -0.673435 2.58796 0.931299 2.16848
51 1 -0.681457 2.33723 2.27012 5.53671
52 1 -0.680314 -1.77402 4.6292 1.19039
204 2 0.154818 5.30552 3.25919 2.63506
79 3 -0.790386 -0.0441258 1.03269 4.78767
276 2 0.20425 5.16122 0.631781 0.515609
275 2 0.21789 7.03371 0.795027 0.679726
82 3 -0.804612 0.603496 2.94127 0.564588
84 3 -0.840301 0.0360308 2.75028 6.92438
85 3 -0.775477 -1.99109 5.02513 6.77554
53 1 -0.670283 0.641528 5.15058 8.22352
102 3 -0.766871 0.706109 4.77192 2.70859
103 3 -0.79174 -0.824276 6.40067 4.24397
104 3 -0.865121 4.15902 3.40582 8.19683
106 3 -0.782576 1.6644 5.64487 5.22654
107 3 -0.826765 4.052 5.59025 6.68358
170 2 0.175208 3.05442 0.406522 3.03538
203 2 0.163035 5.13247 1.56626 3.5494
81 3 -0.822729 -0.888898 2.52211 2.76713
173 2 0.175206 2.45968 1.72016 4.50454
174 2 0.210066 3.20322 2.05247 6.22074
175 2 0.229122 2.12746 3.41683 5.41006
176 2 0.170419 -2.05366 5.19663 2.07328
274 1 -0.652818 6.04099 1.33587 0.847982
178 2 0.153273 -1.21843 5.30753 0.365437
277 2 0.173956 5.79185 1.83248 1.87919
205 2 0.187527 4.15834 3.07341 4.12046
171 2 0.220928 1.77275 1.63615 2.45882
249 2 0.167117 4.63646 4.65446 3.03696
180 2 0.205488 1.66779 4.63642 7.85059
250 2 0.22108 3.30884 6.06612 2.6224
179 2 0.186849 0.31742 6.06695 7.66285
63 1 -0.659815 5.12181 2.70692 3.63956
281 2 0.071765 -3.04823 5.80193 7.80742
172 2 0.187969 3.37246 1.46734 1.4615
78 3 -0.748437 0.809079 0.302505 0.0944487
182 2 0.156724 -3.50309 6.27237 3.46041
54 1 -0.679121 -3.61276 6.32594 4.58746
3 4 1.29551 0.0343818 2.51224 15.8606
267 1 -0.665295 -0.478169 1.94592 11.5586
96 3 -0.873208 2.9357 0.842449 8.28022
20 4 1.3806 3.52525 2.15841 8.9224
23 4 1.32927 2.51904 2.66925 13.9858
28 4 1.27732 4.35283 4.43986 12.3563
285 2 0.172788 -0.825214 2.50794 12.4556
61 1 -0.669927 2.02805 3.10826 9.80344
64 1 -0.65179 2.60083 0.967421 12.98
83 3 -0.808457 -1.20994 3.22278 9.13673
100 3 -0.804012 6.15981 0.498883 11.8991
97 3 -0.773179 3.82396 2.54651 15.0916
98 3 -0.830791 1.13545 2.87935 14.753
99 3 -0.822137 4.50992 1.61914 10.1451
108 3 -0.822607 2.93881 3.63985 12.7894
9 4 1.24444 -3.54557 6.98031 8.97334
19 4 1.28602 5.1275 3.18889 15.9752
148 2 0.0127328 0.372307 6.80447 10.8399
206 2 0.165098 1.53526 0.684915 13.0365
269 2 0.175924 0.48425 2.40631 11.0002
181 2 0.155028 0.516139 5.30617 9.37239
266 2 0.163615 -2.20005 3.83783 15.2697
24 4 1.53746 5.76567 1.97318 11.1097
197 2 0.222379 2.16111 2.9969 10.914
198 2 0.195869 1.08895 2.69014 9.39309
199 2 0.191729 2.26846 4.22747 9.47875
259 2 0.022275 0.115388 6.64764 15.1251
208 2 0.200502 2.99287 1.00657 11.8756
110 3 -0.869289 4.09585 5.69328 11.4343
268 2 0.166945 -0.43117 0.814822 11.7428
154 2 -0.0233536 2.11155 7.13323 10.4595
86 3 -0.842935 -2.28478 6.99347 10.0337
109 3 -0.841394 5.38621 3.38137 11.9225
264 1 -0.65956 -1.78002 2.77237 15.2218
257 3 -0.777328 2.7627 6.81353 16.4133
295 2 0.226783 -3.10972 5.39609 11.593
265 2 0.147433 -1.54446 2.41894 14.1527
1 4 1.25035 -5.69583 13.1392 1.06892
4 4 1.24422 -5.44381 13.145 7.74719
12 4 1.03948 -2.74424 9.19048 1.44547
15 4 1.41203 -2.71236 9.02124 7.07251
16 4 1.51896 -4.06901 11.2532 5.42777
30 4 1.20867 1.50889 8.57665 2.11162
31 4 1.35169 -1.33244 11.2128 3.79656
80 3 -0.806807 -6.83211 13.4947 7.18724
56 1 -0.670988 -4.24095 8.67509 2.46482
189 2 0.218117 -0.790937 7.78953 0.588348
57 1 -0.661322 -1.97703 7.77466 0.468568
66 1 -0.642232 -1.08458 12.7228 2.63716
280 3 -0.834333 -4.47763 12.6201 0.219308
111 3 -0.837108 1.59019 7.35779 3.16328
88 3 -0.808799 -3.2158 10.3575 0.368242
90 3 -0.829364 -1.90367 7.81957 6.32253
91 3 -0.833704 -5.32625 11.1685 4.53388
92 3 -0.822143 -3.61379 9.86803 5.98845
93 3 -0.798782 -4.46699 12.4184 6.66465
188 2 0.189981 -5.09028 9.41949 2.32252
112 3 -0.819128 1.2546 7.83639 0.702002
113 3 -0.76851 -1.46911 9.96196 2.74338
114 3 -0.789197 -2.66493 11.7264 4.52622
115 3 -0.78288 -1.6311 10.2603 7.91761
116 3 -0.804083 0.0194294 11.0964 4.62462
155 2 0.0956854 0.0272658 9.41716 2.32462
292 2 0.209719 -1.86443 12.7876 6.97912
65 1 -0.631373 2.52625 8.09087 7.2834
157 2 0.0234218 1.63441 9.56889 6.43427
211 2 0.166879 1.60479 7.41676 7.40789
214 2 0.148049 0.0755875 12.8405 2.59656
213 2 0.183014 -1.50905 12.5534 1.58798
289 2 0.136685 -2.46181 6.97085 1.13685
87 3 -0.790368 -6.38266 11.7302 2.10819
187 2 0.20233 -4.04339 8.49611 3.563
221 2 0.190704 0.554758 10.2821 0.118075
222 2 0.170292 -0.258229 11.878 0.990741
67 1 -0.655357 -1.67802 12.9697 8.1521
212 2 0.180048 -1.63683 13.5391 3.30459
89 3 -0.807565 -3.79481 8.38307 8.2231
183 2 0.177453 -4.09167 7.31156 4.96111
287 2 0.124285 -4.38343 7.70207 1.87655
69 1 -0.670617 0.28343 11.386 0.0154085
11 4 1.02079 -1.19831 7.80128 10.7683
224 2 0.199015 0.384719 10.0867 12.1893
17 4 1.12001 -2.31408 9.55432 13.1746
32 4 1.02252 -1.59523 11.3616 9.04121
34 4 1.23709 -1.36261 11.9725 14.9285
288 2 0.187687 -3.05388 8.39248 15.86
55 1 -0.665067 0.625579 8.31543 9.82304
58 1 -0.670446 -3.75849 8.56752 14.0076
59 1 -0.671444 -3.35087 10.9655 12.2054
216 2 0.199796 -2.60292 13.4229 8.72491
255 4 1.04997 1.36275 7.52336 16.0943
185 2 0.190518 1.30662 8.18849 8.9188
94 3 -0.82653 -1.5537 8.67878 12.0621
95 3 -0.825664 -5.4531 11.3051 14.9042
117 3 -0.764992 -1.44692 10.1444 14.4266
118 3 -0.856048 -0.450775 12.6237 13.7456
119 3 -0.80898 -3.00354 12.5739 15.1488
120 3 -0.773744 -0.117886 11.4395 9.90952
147 2 -0.0456644 -5.68673 12.0255 9.05557
290 2 0.236864 -4.5473 8.53047 13.2041
156 2 -0.0117269 -2.78618 11.0201 10.3167
184 2 0.15935 -0.395444 8.91894 9.43668
186 2 0.160621 1.03053 9.07738 10.6366
191 2 0.199209 -4.02418 9.19061 14.8909
192 2 0.212795 -4.08277 11.3318 12.9923
193 2 0.153151 -3.91635 10.3509 11.401
194 2 0.19718 -2.67607 11.8241 11.8428
258 2 0.136475 1.97781 8.86298 14.3879
260 2 0.152669 0.801078 7.59551 13.4693
190 2 0.164683 -3.39238 7.53414 14.2423
256 1 -0.652865 0.901537 8.24439 14.4062
261 2 0.262984 -0.0604532 9.08695 14.4397
14 4 1.52866 -4.33991 12.0614 15.8714
215 2 0.19279 -0.747512 13.51 8.344
207 2 0.221284 -4.39484 13.8728 13.6275
2 4 1.34788 13.6961 1.44633 3.79732
21 4 1.14804 6.61826 3.47911 4.74251
251 2 0.146346 5.16749 6.44404 2.83146
36 4 1.21137 9.2277 1.76616 4.76826
248 1 -0.655445 6.27488 6.75427 0.271896
40 4 1.22469 11.7771 2.07087 6.10029
43 4 1.00883 10.5288 2.95697 2.07312
235 2 0.193838 8.71598 3.60661 0.453137
62 1 -0.675017 7.27441 5.06162 3.78168
228 2 0.161265 8.51635 1.06683 7.96201
74 1 -0.676155 9.25334 4.11188 1.32717
105 3 -0.808642 5.825 3.89499 6.06042
122 3 -0.818366 7.82672 2.45125 4.87046
125 3 -0.862679 12.4483 1.76603 4.68508
126 3 -0.806805 10.1103 2.22772 6.06075
127 3 -0.837959 12.1534 1.00112 7.22961
133 3 -0.796501 9.94059 2.22836 3.35872
134 3 -0.76755 11.2287 1.82677 1.00009
234 2 0.18178 8.47873 4.43237 2.19707
286 2 0.139726 10.9888 5.37243 5.04807
162 2 0.0845494 12.3683 3.69692 6.37794
164 2 0.00222318 11.8562 4.0075 2.34179
200 2 0.156982 8.4401 5.03054 3.96502
246 4 1.09686 4.84368 5.57694 0.581405
37 4 0.990527 10.5735 0.486131 0.218291
236 2 0.121748 9.99538 4.98926 1.05567
201 2 0.161215 6.79562 5.84672 4.41766
202 2 0.163478 6.85411 4.84652 2.78139
151 2 -0.00458712 4.0925 6.60401 4.3383
161 2 0.0997146 7.54368 3.91041 8.07776
283 2 0.179844 13.4975 0.191342 1.83692
26 4 1.46731 5.03223 4.4674 7.38098
177 2 0.170062 12.5674 3.99515 0.772731
247 1 -0.665796 4.43887 5.71412 2.56727
101 3 -0.794487 5.42436 4.13269 0.178585
152 2 0.0199233 5.09377 5.16768 13.7571
241 2 0.146154 6.8954 5.89701 13.4027
227 2 0.223738 10.154 1.83417 8.58998
39 4 1.04115 8.22837 2.9006 9.28047
41 4 1.22741 8.03617 2.3372 14.7937
42 4 0.980913 10.6539 3.54912 11.5719
45 4 1.22249 8.8147 6.68119 10.4682
29 4 0.981863 3.73444 6.91688 10.6031
72 1 -0.674856 9.40096 3.80574 14.8528
73 1 -0.687336 11.2805 5.03188 12.3869
284 2 0.175538 12.7458 1.99656 15.7106
242 2 0.168318 5.34116 6.95628 12.9114
252 2 0.173055 6.56654 6.82702 16.3202
124 3 -0.804252 7.02927 2.37098 10.219
128 3 -0.822924 8.13372 1.55945 13.3032
129 3 -0.815632 8.52686 1.3134 16.0864
130 3 -0.799981 6.5776 3.06288 15.2772
131 3 -0.795117 11.9715 2.83484 11.0077
132 3 -0.757485 9.2538 3.7692 10.2829
71 1 -0.643499 9.15848 1.35059 8.85257
44 4 1.21395 6.37539 6.82195 8.6924
135 3 -0.792114 6.44388 5.15508 8.32844
137 3 -0.795759 10.2488 6.57929 9.67784
163 2 0.0206839 10.111 3.06416 13.1166
165 2 0.0840659 8.31446 5.0767 10.7577
233 2 0.182992 10.3178 5.67917 12.3907
229 2 0.153563 9.00218 4.43028 14.0328
230 2 0.157017 10.4213 3.36667 14.7716
231 2 0.174406 9.21487 4.19813 15.9512
232 2 0.163987 11.7098 4.96792 13.389
5 4 1.2056 13.2562 2.16943 10.3375
76 1 -0.68341 6.27881 6.81245 13.5745
240 2 0.1721 6.01071 7.01867 14.7778
226 2 0.278149 9.01881 0.657988 9.82987
136 3 -0.783298 4.57539 7.13335 9.36208
13 4 1.03032 8.50094 11.2765 3.65055
263 2 0.171566 4.24261 13.4397 2.97755
46 4 0.894822 3.60417 10.4922 3.11641
68 1 -0.645014 1.67146 12.4492 6.45384
75 1 -0.675502 6.376 7.80085 7.034
139 3 -0.808851 2.72928 9.71284 2.02981
140 3 -0.831257 2.80084 10.9059 4.42288
238 2 0.185202 7.38046 8.23138 7.04813
149 2 0.0758681 7.23588 12.3028 4.43029
210 2 0.22463 3.42177 7.83525 7.85362
160 2 0.0927197 6.70902 13.4225 7.53873
166 2 -0.0167509 4.47044 11.775 2.38688
167 2 -0.0169578 5.00005 9.55855 3.46109
209 2 0.0620546 2.88768 8.21858 5.9881
217 2 0.207156 2.70917 12.8153 6.025
218 2 0.200256 1.84443 11.9583 7.52242
159 2 0.011641 2.81056 12.5935 1.2047
141 3 -0.818027 4.40231 12.1369 7.94373
294 2 0.170403 4.74569 12.3801 0.288292
38 4 1.26963 5.13351 13.5214 8.19185
158 2 0.000239304 1.36766 13.6851 4.91499
262 1 -0.652814 5.37215 13.4618 2.91517
219 2 0.170169 0.808739 13.1889 6.45861
270 1 -0.659673 6.5926 10.6325 3.9488
271 2 0.15802 5.87633 10.4028 4.79202
272 2 0.0742718 7.66474 9.51356 3.81236
273 2 0.121201 6.14732 10.8331 2.89575
282 2 0.152349 5.85468 12.4282 3.35883
33 4 1.0231 1.50926 10.9378 5.34532
239 2 0.149681 5.57773 8.61409 7.16374
291 2 0.247164 8.06486 10.9603 0.733387
150 2 0.0218315 8.95602 9.16277 0.158438
168 2 0.0128442 3.39288 9.6326 8.04409
253 2 0.132586 6.43027 7.00315 1.431
237 2 0.168057 6.10644 7.03056 6.25054
18 4 1.04225 8.34789 10.4525 15.0366
293 2 0.120398 3.72312 13.9793 15.1526
245 2 0.143656 6.14263 11.7852 12.5712
47 4 1.2661 3.87533 11.033 9.05207
48 4 1.17755 7.43299 8.08766 12.7811
49 4 1.10087 6.24674 10.257 10.918
244 2 0.144211 7.85284 12.313 11.6879
225 2 0.177704 1.78817 11.0984 13.0866
77 1 -0.662302 6.76671 12.0413 11.5262
121 3 -0.740224 1.13969 13.2366 11.4296
60 1 -0.663508 6.99127 11.0698 16.2075
35 4 1.29835 1.3077 11.7196 10.7401
142 3 -0.821063 2.60537 11.5096 9.82173
143 3 -0.782899 8.87704 7.43426 11.9949
144 3 -0.747702 8.0035 9.22759 14.0453
145 3 -0.844229 5.0435 10.5724 9.99369
146 3 -0.815288 6.39803 9.06113 11.8683
278 1 -0.672879 3.31107 13.1948 16.1057
153 2 -0.0129986 3.94244 8.25754 11.584
279 2 0.173398 2.85065 12.261 15.6552
169 2 0.000541687 7.73438 10.9559 10.2453
223 2 0.139946 2.23307 9.56525 11.8964
196 2 0.132101 6.72101 11.8893 15.2097
243 2 0.253975 6.23109 12.8921 10.8913
220 2 0.19485 0.562243 12.6547 16.1349
70 1 -0.666229 1.50794 10.4135 12.1618
254 2 0.157528 5.37413 8.26879 16.1694
195 2 0.156671 6.09315 10.3858 16.4026
22 4 1.4812 -0.165029 13.7761 12.7276
138 3 -0.841414 7.6846 7.22394 9.52021
123 3 -0.785526 5.33738 13.9424 9.74278
ITEM: TIMESTEP
100
ITEM: NUMBER OF ATOMS
295
ITEM: BOX BOUNDS xy xz yz pp pp pp
-8.3339999999999996e+00 1.5144700000000000e+01 -7.6974000000000000e+00
0.0000000000000000e+00 1.4189300000000001e+01 -6.3660000000000005e-01
0.0000000000000000e+00 1.6492500666666668e+01 5.8050000000000002e-01
ITEM: ATOMS id type q x y z
6 4 1.24344 0.667926 1.57933 6.06558
7 4 1.28488 -0.21679 3.77626 2.02618
8 4 1.21713 -0.744565 3.94872 7.84225
10 4 1.28454 -1.81662 6.49092 5.63549
25 4 1.44166 0.73872 6.13687 3.85563
27 4 1.02319 3.14282 6.37877 5.70361
50 1 -0.675 2.65474 0.840146 2.28263
51 1 -0.671553 2.17601 2.48118 5.33078
52 1 -0.660041 -1.81442 4.63713 1.42057
204 2 0.165998 4.92618 3.1909 2.74659
79 3 -0.818616 -0.207101 0.942886 4.81037
276 2 0.210846 5.19187 0.721984 0.639404
54 1 -0.661246 -3.32405 6.5366 4.51027
82 3 -0.789524 0.45424 3.22559 0.58077
84 3 -0.817943 0.105779 2.85166 6.8622
85 3 -0.801024 -2.10007 5.05335 6.82039
182 2 0.162832 -2.98774 6.72295 3.41516
102 3 -0.824299 0.727059 5.01477 2.77558
103 3 -0.818322 -0.662714 6.49894 4.48483
104 3 -0.828958 4.30591 3.14777 7.9126
106 3 -0.771252 1.76135 5.73111 5.36375
107 3 -0.817902 3.99996 5.66249 6.7632
170 2 0.188298 3.26048 0.215939 3.02734
203 2 0.159389 5.58942 1.63503 3.73502
81 3 -0.828024 -0.817252 2.52173 2.91254
173 2 0.169137 2.08367 1.94095 4.25846
174 2 0.212869 3.13541 2.25878 5.89035
175 2 0.252904 1.96862 3.59234 5.25825
176 2 0.130342 -2.39988 5.26024 2.25637
274 1 -0.679977 6.06536 1.42558 0.934565
178 2 0.16489 -1.28734 5.36719 0.627203
277 2 0.167764 5.85872 1.9021 2.0038
205 2 0.18885 4.06962 2.61077 4.40067
171 2 0.183212 1.62086 1.20713 2.68964
249 2 0.184866 4.42176 4.55925 2.98643
180 2 0.204076 1.36125 5.04322 7.7576
250 2 0.217726 3.20611 6.02935 2.32692
247 1 -0.631429 4.30766 5.60345 2.47484
63 1 -0.642553 5.09605 2.71668 3.78273
281 2 0.0753522 -3.19659 5.55404 7.92832
172 2 0.18315 3.27783 1.65901 1.74752
78 3 -0.725568 0.801449 0.365788 0.0683643
96 3 -0.827222 3.04655 0.768323 8.12359
3 4 1.2241 -0.121167 2.61357 15.9072
267 1 -0.659386 -0.425567 1.96946 11.5351
265 2 0.169687 -1.43152 2.67298 13.9284
20 4 1.33752 3.63974 2.0741 8.88634
23 4 1.27784 2.70468 2.71858 14.0916
28 4 1.24402 4.39008 4.48029 12.2867
285 2 0.188266 -0.652346 2.51 12.4981
61 1 -0.677351 2.16249 2.9846 9.80986
64 1 -0.656095 2.8279 1.04226 13.175
83 3 -0.82234 -1.30483 3.17564 9.11235
53 1 -0.679055 0.402017 5.24039 8.46468
97 3 -0.772239 3.96221 2.76033 15.075
98 3 -0.752676 1.01299 2.70332 14.6684
99 3 -0.82071 4.41271 1.55266 10.3084
108 3 -0.769848 2.95356 3.91813 12.9088
9 4 1.29229 -3.57036 6.83198 8.98282
19 4 1.22365 5.29619 3.2634 16.0384
148 2 0.0227727 0.451502 6.872 10.733
206 2 0.193987 1.72721 0.756231 13.4397
269 2 0.177279 0.559346 2.33365 11.0209
181 2 0.175118 0.575168 4.87187 9.53353
295 2 0.186673 -2.6923 5.14219 11.7507
24 4 1.5074 5.75711 1.94135 11.0822
197 2 0.211208 2.30807 2.82212 10.9277
198 2 0.179341 1.25348 2.5056 9.33381
199 2 0.207354 2.39736 3.98828 9.49423
259 2 0.0174197 0.380213 6.46609 14.931
208 2 0.210053 2.95202 1.3371 12.0958
110 3 -0.847405 3.9424 5.44482 11.1478
268 2 0.176703 -0.477383 0.807731 11.6744
257 3 -0.787832 2.79587 6.89436 16.3403
86 3 -0.847358 -2.37277 6.85205 9.93168
109 3 -0.823564 5.40426 3.25621 12.0437
179 2 0.184349 0.0122542 6.2818 8.2957
190 2 0.164556 -3.30153 7.28809 14.2547
1 4 1.23642 -5.65048 13.2537 0.983794
4 4 1.22057 -5.44209 13.0681 7.59766
12 4 0.998911 -2.76737 9.2043 1.46211
15 4 1.47526 -2.8171 9.05211 7.19513
16 4 1.4897 -4.08347 11.2224 5.5241
30 4 1.19892 1.35851 8.51933 2.10389
31 4 1.30978 -1.32047 11.2804 3.88772
80 3 -0.801044 -6.89215 13.4774 7.04975
56 1 -0.675886 -4.30405 8.80456 2.53649
189 2 0.200355 -0.948577 7.76724 0.667924
57 1 -0.670081 -2.05001 7.81659 0.435461
66 1 -0.664042 -1.17106 12.6205 2.53335
280 3 -0.826087 -4.38306 12.7573 0.118792
111 3 -0.831097 1.61288 7.507 3.3409
88 3 -0.806131 -3.28586 10.3944 0.350777
90 3 -0.79431 -1.77528 7.87381 6.32199
91 3 -0.795251 -5.35502 11.2359 4.4
92 3 -0.820639 -3.91911 9.74789 6.18602
93 3 -0.826301 -4.42842 12.3148 6.63472
188 2 0.165094 -5.14232 9.33042 1.99117
112 3 -0.807639 1.21719 7.66364 0.674971
113 3 -0.755827 -1.54709 9.9911 2.8287
114 3 -0.790152 -2.58602 11.6688 4.74777
115 3 -0.839318 -1.83948 10.1588 7.97214
116 3 -0.774419 0.11627 11.1319 4.7316
155 2 0.0928101 -0.126844 9.36834 2.44081
292 2 0.209314 -1.36326 12.7844 7.34088
65 1 -0.638719 2.53909 8.09397 7.18214
157 2 0.0130126 1.71067 9.77199 6.69671
211 2 0.187416 1.73526 7.34667 7.36183
214 2 0.155442 -0.0505156 12.6253 2.39831
213 2 0.201497 -1.87115 12.5307 1.64024
289 2 0.119614 -2.68447 6.97008 1.00373
87 3 -0.774182 -6.47361 11.8686 1.96546
187 2 0.217531 -4.11971 9.29605 3.57274
69 1 -0.66725 0.181955 11.1559 0.00625711
222 2 0.189637 -0.420734 11.6089 0.948855
183 2 0.193691 -3.89105 7.43854 4.9599
212 2 0.170444 -1.52334 13.4701 3.23054
89 3 -0.846264 -3.66532 8.19275 8.19073
11 4 0.98158 -1.21103 7.75121 10.6512
224 2 0.201554 0.394008 9.74065 12.0556
17 4 1.08484 -2.45444 9.41437 13.1331
32 4 1.02962 -1.60937 11.19 9.14689
34 4 1.23846 -1.3151 11.8808 14.8806
288 2 0.1929 -2.98251 8.42419 15.7915
55 1 -0.65953 0.57526 8.36938 9.74442
58 1 -0.66562 -3.8151 8.23858 13.9023
59 1 -0.682874 -3.25532 11.0566 12.34
216 2 0.194031 -2.83484 13.0186 8.60385
255 4 1.06166 1.34309 7.46671 15.9978
185 2 0.184376 1.28104 8.26405 8.79328
94 3 -0.803973 -1.58536 8.54286 12.0045
95 3 -0.786612 -5.52484 11.3684 14.7132
117 3 -0.750337 -1.50945 10.0016 14.3019
118 3 -0.822973 -0.298796 12.5986 13.8745
119 3 -0.799386 -2.91141 12.489 15.1274
120 3 -0.793291 -0.103278 11.381 9.89211
147 2 -0.046151 -5.75698 12.0686 8.90211
290 2 0.215666 -4.57644 8.14566 13.0666
156 2 -0.019239 -2.76303 10.9108 10.4542
184 2 0.152559 -0.503132 8.84621 9.29267
186 2 0.177255 0.953876 9.07171 10.6029
191 2 0.16331 -4.18624 8.88796 14.7694
192 2 0.229949 -3.90015 11.3673 13.2379
193 2 0.144053 -3.88487 10.6481 11.499
194 2 0.218387 -2.53729 11.8296 12.0414
258 2 0.148975 1.9344 8.88746 14.2646
260 2 0.151442 0.927728 7.46466 13.5008
207 2 0.24325 -4.09775 13.9524 13.643
256 1 -0.672079 0.93739 8.2399 14.3298
261 2 0.264191 -0.0689585 8.90044 14.3479
14 4 1.45548 -4.34453 12.1078 15.8289
215 2 0.220365 -1.00729 13.6143 9.08423
244 2 0.155984 -7.08687 12.2442 11.2488
100 3 -0.789829 -1.53803 13.9834 11.8912
67 1 -0.638533 -1.6696 12.9078 8.44444
154 2 -0.00802631 2.244 7.30375 9.98587
70 1 -0.672706 1.40035 10.3591 12.069
221 2 0.178776 -0.293316 10.5472 16.4554
2 4 1.34914 13.7332 1.34064 3.82905
21 4 1.14909 6.63729 3.40056 4.84121
251 2 0.0979064 5.21779 6.55392 2.64545
36 4 1.19635 9.18724 1.78411 4.71183
101 3 -0.746824 5.3658 4.28883 0.328095
40 4 1.25453 11.7461 2.12401 6.0701
43 4 0.974622 10.6643 2.94933 2.13342
235 2 0.181878 8.74023 3.46267 0.503305
62 1 -0.670097 7.55624 4.9152 3.90228
228 2 0.173491 8.87272 1.03559 8.06942
74 1 -0.653039 9.28239 4.00643 1.33542
105 3 -0.831541 5.8663 4.03383 6.03998
122 3 -0.80347 7.63732 2.11039 5.07811
125 3 -0.86398 12.4506 1.76541 4.68639
126 3 -0.820791 10.1344 2.37567 5.94507
127 3 -0.875769 12.2401 1.1674 7.20797
133 3 -0.824375 9.79186 2.3636 3.38029
134 3 -0.795435 11.0741 1.83288 0.903465
234 2 0.183687 8.5754 4.3204 2.2452
286 2 0.136649 11.273 5.51648 4.65166
162 2 0.0894091 12.2055 3.6943 6.57394
164 2 0.0105968 12.0845 3.783 2.6793
200 2 0.169896 8.61484 4.59767 3.82868
246 4 1.10474 4.79429 5.75794 0.602508
37 4 1.02011 10.4639 0.50696 0.267417
236 2 0.119105 10.0177 4.82487 0.938197
201 2 0.15889 7.26418 5.70138 4.71173
202 2 0.151103 7.03909 5.18438 2.85
151 2 0.00697505 3.9754 6.55303 4.16826
252 2 0.168983 7.14371 6.32189 0.328847
275 2 0.204507 7.08152 0.985066 0.852051
26 4 1.52369 5.10548 4.46934 7.31566
177 2 0.150681 12.6755 3.84143 0.868082
152 2 0.0222715 5.12543 5.36611 13.5773
241 2 0.166662 6.86921 5.95707 13.4598
227 2 0.22184 10.4257 1.71807 9.01052
39 4 1.04074 8.33786 2.92086 9.32645
41 4 1.2404 7.9152 2.31747 14.7699
42 4 0.971616 10.7446 3.58449 11.6173
45 4 1.23129 8.71537 6.60632 10.3879
29 4 0.93644 3.83288 6.88287 10.5121
72 1 -0.656114 9.36954 3.5915 14.8641
73 1 -0.665284 11.3034 5.23526 12.2171
284 2 0.188138 12.9509 1.42168 15.1727
242 2 0.1355 5.44091 7.11404 12.9601
264 1 -0.656101 13.4045 2.40427 15.0307
124 3 -0.81226 7.01828 2.27311 10.1476
128 3 -0.796911 8.07988 1.57152 13.2822
129 3 -0.792835 8.41239 1.1127 16.083
130 3 -0.809317 6.63474 3.26356 15.0716
131 3 -0.771454 11.9411 2.64814 11.1587
132 3 -0.779351 9.38554 3.66813 10.2669
71 1 -0.631385 9.31982 1.3528 9.06793
44 4 1.2351 6.31576 6.92801 8.66759
135 3 -0.806968 6.26624 4.98551 8.30127
137 3 -0.824304 10.1093 6.62695 9.67601
163 2 0.0255411 10.1242 3.02774 13.1138
165 2 0.0637064 8.40525 4.96246 10.717
233 2 0.228302 10.7752 6.17834 11.9698
229 2 0.157602 9.23166 4.33187 14.0548
230 2 0.153598 10.3864 3.04044 14.8367
231 2 0.174063 9.14404 4.08878 15.987
232 2 0.127425 11.2895 4.98463 13.4028
5 4 1.25492 13.2989 2.07163 10.2743
76 1 -0.674815 6.32391 6.92127 13.6437
240 2 0.17917 6.11999 7.18094 14.8199
226 2 0.296238 9.22559 0.592027 9.9837
266 2 0.149039 12.7326 3.27803 15.4598
123 3 -0.815762 13.034 0.543993 9.66493
293 2 0.146581 11.4151 0.547707 15.2075
161 2 0.0923294 7.6758 4.12734 8.35101
13 4 1.02219 8.4624 11.2458 3.49825
263 2 0.16038 4.32144 13.5395 2.72985
46 4 0.895945 3.43799 10.5007 3.11525
68 1 -0.654279 1.65945 12.6236 6.38695
75 1 -0.672477 6.57973 8.04532 7.10069
139 3 -0.78958 2.63052 9.54728 2.04216
140 3 -0.825607 2.63815 11.1019 4.28372
238 2 0.191939 7.571 8.52994 7.29496
149 2 0.108465 6.98721 12.2113 4.48827
210 2 0.201738 3.39997 7.9759 7.87816
160 2 0.0922897 6.73893 13.4486 7.62275
166 2 -0.00907062 4.23226 11.8633 2.40931
167 2 -0.0346261 4.85489 9.7099 3.61464
209 2 0.0792775 2.8987 8.30073 5.98346
217 2 0.184745 2.46473 13.297 6.01344
218 2 0.181376 1.98495 12.0813 7.41659
159 2 -0.00490751 3.0044 12.6733 1.26601
141 3 -0.842167 4.44184 12.2194 8.14278
294 2 0.165111 4.96924 12.5908 0.351341
38 4 1.28022 5.13246 13.6191 8.11804
158 2 0.0168675 1.38285 13.7179 4.68433
262 1 -0.683414 5.4342 13.3829 2.71554
219 2 0.179489 0.686617 13.1888 6.55974
270 1 -0.668305 6.66534 10.6584 3.91428
271 2 0.156536 6.25742 9.93956 4.68515
272 2 0.0357346 7.98566 9.45957 3.39348
273 2 0.129544 6.09016 10.6536 2.9825
282 2 0.162302 5.78655 12.3802 3.17134
33 4 1.03727 1.54528 11.0085 5.43801
239 2 0.146152 5.59827 8.7237 7.15402
291 2 0.253607 8.03714 10.8997 0.724062
150 2 0.00206468 9.28797 9.08683 0.347161
168 2 -0.00137489 3.42897 9.70417 7.89386
253 2 0.137925 6.23248 7.71252 1.16709
237 2 0.151362 6.63413 7.35239 6.26906
287 2 0.149033 10.6243 7.72237 2.65484
248 1 -0.6744 6.25065 7.02825 0.297617
283 2 0.197812 5.94617 13.6504 1.77955
195 2 0.168909 7.0189 9.4564 0.00472927
18 4 1.03528 8.53351 10.2496 15.1618
22 4 1.44815 -0.13471 13.7602 12.645
245 2 0.151028 6.6233 11.9827 12.4518
47 4 1.25274 3.9075 10.9621 9.001
48 4 1.26577 7.47137 8.24969 12.8493
49 4 1.11764 6.19096 10.3595 10.8635
138 3 -0.8351 7.56645 7.25928 9.54568
225 2 0.188392 1.49686 11.0694 12.9966
77 1 -0.688317 6.9532 12.1376 11.28
121 3 -0.776251 1.17486 13.2559 11.4192
60 1 -0.681498 7.13915 10.8008 16.2926
35 4 1.30541 1.24236 11.7446 10.6985
142 3 -0.797811 2.52664 11.4247 9.74564
143 3 -0.778404 8.6104 7.36092 11.9637
144 3 -0.792935 8.01783 9.15266 14.083
145 3 -0.860775 5.01808 10.3489 9.87781
146 3 -0.806231 6.52957 9.20856 11.8183
278 1 -0.654572 3.4289 13.4106 16.1187
153 2 -0.0280828 4.1063 8.00964 11.7434
279 2 0.166663 2.85722 12.4699 15.7811
169 2 0.0132119 7.69393 10.8377 10.0696
223 2 0.148951 2.3161 9.74609 11.9412
196 2 0.151121 6.70364 11.5679 15.3728
243 2 0.231591 6.39402 12.9099 10.6545
220 2 0.202744 0.485758 12.3354 16.2978
254 2 0.16167 5.41551 8.20671 15.8406
136 3 -0.80572 4.83413 7.21823 9.31762
ITEM: TIMESTEP
200
ITEM: NUMBER OF ATOMS
295
ITEM: BOX BOUNDS xy xz yz pp pp pp
-8.3339999999999996e+00 1.5144700000000000e+01 -7.6974000000000000e+00
0.0000000000000000e+00 1.4189300000000001e+01 -6.3660000000000005e-01
0.0000000000000000e+00 1.6487001333333335e+01 5.8050000000000002e-01
ITEM: ATOMS id type q x y z
6 4 1.21934 0.627303 1.66073 5.93429
7 4 1.33428 -0.208672 3.94186 2.02027
8 4 1.20576 -0.837215 4.08663 7.84485
10 4 1.2205 -1.90122 6.59997 5.65585
25 4 1.45709 0.881998 5.97918 4.09801
27 4 1.02475 3.25345 6.28658 5.85287
50 1 -0.678899 2.65236 0.924077 2.2857
51 1 -0.675977 2.27468 2.2334 5.21568
52 1 -0.673448 -1.79233 4.87935 1.3947
204 2 0.169749 4.74156 3.05135 2.45814
79 3 -0.807802 -0.112342 0.910971 4.64834
276 2 0.209814 5.57735 0.686543 0.451768
54 1 -0.683806 -3.40707 6.64848 4.5809
82 3 -0.758282 0.327676 3.29533 0.644201
84 3 -0.812808 -0.121912 2.8614 6.82409
85 3 -0.773605 -2.26433 5.14264 6.93541
182 2 0.156377 -3.08089 6.63617 3.49998
102 3 -0.833208 0.761218 4.8101 2.98261
103 3 -0.805283 -0.60792 6.26361 4.674
104 3 -0.818597 4.45443 3.12847 7.99215
106 3 -0.822149 1.96064 5.60097 5.35668
107 3 -0.843958 4.14444 5.49467 6.8261
172 2 0.191692 3.64659 1.33134 2.03463
203 2 0.157925 5.43486 1.65994 3.4207
81 3 -0.796827 -0.936419 2.67355 2.76917
173 2 0.184165 2.44002 1.72218 4.11267
174 2 0.203893 2.94534 1.85426 6.09877
175 2 0.227614 2.02631 3.38523 5.17791
176 2 0.133714 -2.40274 5.38417 2.2379
274 1 -0.655736 6.22592 1.55025 0.81453
178 2 0.173621 -1.25491 5.66296 0.84496
277 2 0.160482 5.85613 1.99349 1.83933
205 2 0.200749 3.92977 2.68431 4.13624
171 2 0.20804 1.80916 1.72622 2.163
249 2 0.168022 4.71537 4.6399 2.96774
180 2 0.187473 1.30108 4.90989 7.89822
250 2 0.188431 3.33407 6.06752 2.79873
78 3 -0.803272 0.912637 0.574405 0.242952
63 1 -0.676754 4.92104 2.70238 3.44873
177 2 0.150433 -2.38037 4.1933 0.737554
170 2 0.18391 2.6166 0.356129 3.26316
3 4 1.21447 -0.0944422 2.5221 15.9378
267 1 -0.673941 -0.390105 2.03274 11.4722
265 2 0.149498 -1.93806 3.13878 14.4463
20 4 1.36586 3.6305 2.06754 8.88646
23 4 1.31695 2.69099 2.70932 14.1523
28 4 1.26851 4.3764 4.49262 12.2052
285 2 0.188305 -0.608368 2.50366 12.4563
61 1 -0.683375 2.16757 3.09767 9.70908
64 1 -0.67125 3.02369 0.939808 13.4515
83 3 -0.792153 -1.44886 3.29301 9.09723
53 1 -0.688598 0.349717 5.32321 8.4757
97 3 -0.809194 3.84701 2.84739 15.3471
98 3 -0.752789 1.2346 2.96049 14.765
99 3 -0.826026 4.60059 1.47387 10.1076
108 3 -0.77051 2.97927 3.87191 12.9054
9 4 1.29788 -3.5954 6.69766 9.06393
19 4 1.33835 5.11541 3.4033 16.0112
148 2 0.00864482 0.45125 6.6896 10.9463
207 2 0.277414 3.98998 0.492856 13.8174
269 2 0.17824 0.520546 2.44605 10.8887
181 2 0.176161 0.415573 5.20863 9.55191
295 2 0.217442 -2.59938 5.13951 11.9025
24 4 1.52573 5.74349 1.91642 11.1261
197 2 0.197807 2.16915 2.7965 10.7621
198 2 0.186901 1.26847 2.85231 9.10217
199 2 0.197618 2.58919 4.15486 9.50239
259 2 0.0292114 0.174755 6.65771 15.1707
208 2 0.188653 3.05086 0.96863 12.3312
110 3 -0.884142 4.19287 5.41592 10.9852
268 2 0.169887 -0.342461 0.906211 11.5809
257 3 -0.750072 2.77476 6.84128 16.3515
86 3 -0.820197 -2.28621 6.52779 9.86307
109 3 -0.839161 5.2225 3.24928 11.9588
100 3 -0.778035 6.06414 0.620456 12.136
154 2 0.00473139 2.11879 6.75685 10.0608
96 3 -0.845307 2.91692 0.815717 8.26407
179 2 0.185394 0.112693 6.40195 8.25738
1 4 1.28178 -5.62463 13.3302 0.937664
4 4 1.22347 -5.42806 13.1154 7.57712
12 4 1.02067 -2.89642 9.33136 1.64459
15 4 1.49437 -2.86644 9.0353 7.21215
16 4 1.48258 -4.09724 11.1934 5.47846
30 4 1.22586 1.43724 8.53378 2.2159
31 4 1.3334 -1.42029 11.215 3.80027
80 3 -0.786162 -6.83843 13.6786 7.03024
56 1 -0.682761 -4.4774 8.70587 2.49498
189 2 0.202062 -1.09752 7.95294 0.572109
57 1 -0.675586 -2.20763 7.93445 0.492595
66 1 -0.65243 -1.18593 12.6667 2.59347
280 3 -0.807098 -4.31935 12.8629 0.0337002
111 3 -0.842816 1.48954 7.43084 3.44199
88 3 -0.823998 -3.29321 10.5165 0.574529
90 3 -0.793423 -1.74765 8.05824 6.41776
91 3 -0.788392 -5.37527 11.0751 4.32029
92 3 -0.814549 -3.89537 9.60476 6.09492
93 3 -0.852817 -4.50162 12.3616 6.53714
212 2 0.179693 -1.67853 13.5912 3.07508
112 3 -0.843086 1.15396 7.88759 0.775368
113 3 -0.801877 -1.43858 9.96072 2.88976
114 3 -0.818274 -2.79287 11.5054 4.63111
115 3 -0.828169 -2.07591 10.2342 8.19189
116 3 -0.770042 0.050267 11.2409 4.71113
155 2 0.130203 -0.0402715 9.29798 2.62734
292 2 0.217655 -2.15635 12.7894 7.45934
65 1 -0.631594 2.62035 8.29424 7.16243
157 2 0.0268236 1.56911 9.75703 6.68118
211 2 0.159452 1.52008 7.84225 7.19403
214 2 0.155498 -0.00721536 12.6974 2.64237
213 2 0.179732 -1.5266 12.4561 1.52285
289 2 0.130979 -2.75171 7.11195 1.08828
87 3 -0.772913 -6.39047 11.904 1.84954
187 2 0.211565 -4.19025 8.98466 3.58583
221 2 0.197199 0.0896743 9.82841 0.141531
222 2 0.188039 -0.471024 11.5045 0.908429
183 2 0.209023 -4.02365 7.52405 4.8782
69 1 -0.683602 0.0219501 11.0034 0.0262452
89 3 -0.833281 -3.60025 8.11818 8.23134
11 4 0.975439 -1.17281 7.5603 10.5499
224 2 0.212841 0.477798 9.90121 12.259
17 4 1.12093 -2.4434 9.34457 13.0115
32 4 1.07137 -1.65824 11.2715 9.26358
34 4 1.25029 -1.35125 11.7411 14.8056
288 2 0.194081 -3.17775 8.48186 15.9193
55 1 -0.660117 0.749669 8.15028 9.81763
58 1 -0.653724 -3.62891 8.16472 13.9359
59 1 -0.671269 -3.58322 10.8592 12.3175
216 2 0.201347 -2.79493 13.2215 9.24795
255 4 1.02418 1.31326 7.64015 16.1538
185 2 0.169489 1.52936 8.1609 8.91074
94 3 -0.794548 -1.78604 8.5663 11.7142
95 3 -0.811353 -5.38026 11.4247 14.8256
117 3 -0.77915 -1.47876 9.89149 14.1282
118 3 -0.796694 -0.430212 12.6259 13.797
119 3 -0.793882 -2.81414 12.4328 14.9277
120 3 -0.779326 -0.201008 11.2127 9.92758
147 2 -0.0496521 -5.7533 12.0428 8.74701
290 2 0.216995 -4.20354 7.58705 13.1701
156 2 0.00546004 -2.75103 10.9221 10.5599
184 2 0.142275 -0.314801 8.56046 9.23509
186 2 0.184811 1.04387 8.96028 10.5701
191 2 0.173281 -4.29531 8.88277 14.589
192 2 0.247813 -4.29023 10.9577 13.2001
193 2 0.162867 -4.08077 10.5174 11.3848
194 2 0.199539 -2.94989 11.7829 12.1919
258 2 0.150247 1.91342 8.99407 14.3953
260 2 0.153212 0.942822 7.48188 13.5971
190 2 0.153486 -2.84823 7.48871 14.4651
256 1 -0.67794 0.978269 8.27078 14.416
261 2 0.254988 -0.00713799 8.87714 14.3543
14 4 1.44056 -4.24677 12.1125 15.8708