ITEM: TIMESTEP
0
ITEM: NUMBER OF ATOMS
295
ITEM: BOX BOUNDS xy xz yz pp pp pp
-8.3339999999999996e+00 1.5144700000000000e+01 -7.6974000000000000e+00
0.0000000000000000e+00 1.4189300000000001e+01 -6.3660000000000005e-01
0.0000000000000000e+00 1.6498000000000001e+01 5.8050000000000002e-01
ITEM: ATOMS id type q x y z
6 4 1.227 1.08804 1.00351 6.20091
7 4 1.3037 -0.293758 3.59052 1.74623
8 4 1.26404 -0.213143 3.67094 7.61529
10 4 1.26423 -1.97484 5.96613 5.66376
25 4 1.48957 0.300732 6.03091 3.65041
27 4 1.07121 2.46395 6.62306 5.64782
50 1 -0.675403 2.70807 1.20517 2.25424
51 1 -0.688971 2.65538 1.57694 5.40843
96 3 -0.838988 3.63584 0.443794 8.08731
171 2 0.152486 3.59963 0.740339 2.86322
79 3 -0.800119 0.131564 0.410933 5.045
250 2 0.211275 3.57636 3.23411 0.461151
178 2 0.151768 -1.72482 5.17756 0.658047
82 3 -0.778492 0.377871 2.94494 0.466185
84 3 -0.821114 0.440943 2.43146 6.87657
85 3 -0.795458 -1.53601 4.65761 6.43919
104 3 -0.78137 3.74324 3.45372 7.75911
102 3 -0.765145 0.6381 4.83772 2.58503
103 3 -0.817929 -1.26565 6.0555 3.97434
251 2 0.226091 2.84228 4.66901 1.31874
106 3 -0.796504 1.19086 5.83804 5.13154
107 3 -0.824787 3.59975 5.74655 6.31546
170 2 0.197745 2.97362 2.22348 1.72811
26 4 1.51624 4.55861 4.82761 7.19538
172 2 0.174207 1.75974 1.24989 2.86766
173 2 0.17769 2.6854 1.53055 4.23394
174 2 0.212261 3.53333 1.00397 5.88518
175 2 0.233713 2.6708 2.65847 5.70472
81 3 -0.809136 -0.761542 2.47549 2.8293
276 2 0.180274 5.69586 1.33247 0.845163
179 2 0.178109 0.923569 5.64398 7.68585
180 2 0.264215 2.17321 4.11377 8.07073
52 1 -0.657897 -2.0478 4.27837 1.33227
78 3 -0.813341 1.3005 0.185616 0.15477
247 1 -0.6727 3.74225 4.08788 1.06953
249 2 0.1476 4.33138 3.83462 2.07346
176 2 0.169898 -2.64155 4.64141 2.23535
187 2 0.260869 -2.33158 6.88333 2.84353
3 4 1.24511 0.253352 2.15062 15.8752
206 2 0.155445 1.86172 0.60707 12.2983
285 2 0.169871 -0.658224 1.53867 12.915
20 4 1.27348 3.76415 1.94007 8.8814
23 4 1.26143 2.86055 2.50903 13.8629
28 4 1.28525 4.14172 4.8377 12.4694
257 3 -0.782522 3.05249 7.0903 16.0365
61 1 -0.665363 2.26246 2.04225 9.98009
64 1 -0.674135 2.789 0.801135 12.9165
83 3 -0.758639 -0.977 3.19482 8.93624
208 2 0.189734 3.78534 0.875902 12.2654
97 3 -0.788788 4.1629 2.55937 14.7641
98 3 -0.759522 1.50155 2.60292 14.8284
99 3 -0.821697 4.92962 1.93772 9.96628
108 3 -0.761244 2.85176 3.8971 12.6619
259 2 0.132939 0.302623 6.97022 14.8402
110 3 -0.835653 3.76414 6.23221 11.8365
148 2 0.0401412 -0.62309 6.07602 11.2911
269 2 0.162146 0.246084 2.6761 11.5347
154 2 -0.0120916 1.86135 6.58476 10.0635
181 2 0.160064 0.956045 4.73796 9.48267
185 2 0.176103 0.460177 6.3556 9.28081
267 1 -0.663926 -0.415719 1.69389 11.7489
197 2 0.190805 2.422 1.63013 11.0399
198 2 0.157904 1.55814 1.26149 9.39951
199 2 0.19444 1.80255 3.06684 9.98646
86 3 -0.786844 -2.96661 6.47276 9.63523
268 2 0.137438 0.171373 0.753241 11.4043
265 2 0.165674 -1.55525 2.34384 13.9801
53 1 -0.67899 1.14808 4.67327 8.35641
55 1 -0.662552 -0.0514833 7.15235 9.90517
1 4 1.26856 -5.33069 13.2895 1.17521
4 4 1.19387 -4.88049 12.7524 7.82905
12 4 1.11598 -2.14586 9.08796 1.42558
15 4 1.44195 -2.65596 8.71366 6.90962
16 4 1.50402 -3.9811 10.8878 5.25737
30 4 1.26316 1.63823 8.56666 2.30936
31 4 1.26186 -1.39798 11.4193 3.63884
111 3 -0.850925 0.881162 7.39036 2.9455
56 1 -0.674789 -3.01866 7.47626 2.05887
213 2 0.167451 -0.867803 12.0733 1.45752
65 1 -0.682274 1.98715 8.00252 6.97928
66 1 -0.673546 -1.02679 12.8172 2.40398
157 2 0.0198977 0.731205 9.45156 6.55623
210 2 0.187256 2.3763 8.27065 8.00543
88 3 -0.794441 -3.19634 10.1847 0.671639
90 3 -0.836341 -1.72507 7.42462 6.49904
91 3 -0.798063 -5.38632 10.5856 4.48237
92 3 -0.807585 -3.4252 9.42259 5.62828
93 3 -0.806291 -4.29624 11.816 6.58826
212 2 0.194688 -1.97112 13.4391 2.36385
112 3 -0.822256 2.03948 8.19925 0.802831
113 3 -0.785272 -1.2255 9.81328 2.50299
114 3 -0.814105 -2.82277 11.653 4.20063
149 2 0.115846 -7.2339 12.6869 4.32518
116 3 -0.80976 -0.18453 11.2565 4.68872
155 2 0.0828329 0.372839 9.78486 2.30203
209 2 0.132708 2.3582 8.83326 6.22144
188 2 0.176212 -3.85724 8.12116 2.61757
89 3 -0.782874 -3.88425 8.31037 8.12368
211 2 0.180025 0.871457 7.79567 7.03565
115 3 -0.812694 -1.90787 9.92023 7.77646
33 4 1.06347 1.01954 11.0099 5.72949
87 3 -0.796711 -6.04041 11.7889 2.11799
215 2 0.187531 -1.6601 12.6664 7.47361
289 2 0.182834 -0.516823 7.4591 0.369346
280 3 -0.773948 -3.87943 12.8791 0.520431
80 3 -0.797851 -6.3966 13.1778 7.45361
214 2 0.148448 -0.119977 13.3381 2.82866
151 2 0.0225718 3.21783 7.45195 4.39606
287 2 0.163008 -3.41439 6.89639 1.24317
221 2 0.163243 0.278351 10.1557 14.8126
14 4 1.44817 -3.97356 12.0785 16.1446
17 4 1.12184 -2.90409 9.33781 12.7381
32 4 1.0528 -1.63957 10.8207 9.09349
34 4 1.33954 -1.4482 12.0398 14.1519
216 2 0.21608 -0.647889 13.2016 9.06459
261 2 0.198568 -0.370589 8.83334 14.2848
58 1 -0.672325 -3.90691 8.39461 14.1243
59 1 -0.653434 -4.24924 10.3288 11.6911
69 1 -0.66631 0.0933511 11.3325 15.0365
224 2 0.173855 0.952023 9.38275 11.9415
186 2 0.128102 0.718925 7.74027 10.5202
94 3 -0.812179 -2.21956 8.26009 11.7495
95 3 -0.809758 -5.17977 11.6921 15.125
117 3 -0.766766 -1.98637 10.538 13.332
118 3 -0.85065 -1.02372 13.1427 13.1394
119 3 -0.801711 -2.48234 12.345 15.3697
120 3 -0.770738 -0.223926 10.6039 9.83812
147 2 -0.043647 -4.98499 11.8059 9.23742
256 1 -0.667652 0.560433 8.21251 14.4539
156 2 0.00169041 -3.01218 10.5543 10.1894
184 2 0.147568 -0.710435 8.10004 8.9579
189 2 0.185726 -0.959935 9.78889 16.1522
191 2 0.17746 -4.07637 9.16031 14.9241
192 2 0.208827 -5.00326 10.2768 12.5621
193 2 0.201024 -4.55164 9.66027 10.7676
194 2 0.160128 -4.12064 11.3382 11.3341
225 2 0.173814 0.94492 10.7716 13.2622
288 2 0.160073 -2.47286 8.73912 15.5795
260 2 0.154507 1.23586 8.20812 13.5783
255 4 1.02654 1.8592 8.18454 15.931
292 2 0.171393 -2.5241 12.8975 9.18177
70 1 -0.667353 1.41399 10.3517 12.2086
207 2 0.229118 -4.74214 13.7437 13.8265
67 1 -0.656226 -1.51423 12.5967 8.65542
222 2 0.160986 -0.267222 11.5383 16.1209
57 1 -0.661764 -1.66297 8.96672 16.4804
153 2 -0.029765 2.38639 8.63828 11.4412
190 2 0.149358 -3.13486 7.59328 14.4173
11 4 1.0392 -1.82788 7.21664 10.5745
29 4 0.948266 3.18636 7.25963 10.7948
2 4 1.20602 13.8961 1.25727 3.85782
21 4 1.00445 6.92736 4.66375 5.13868
286 2 0.194605 10.7004 5.06311 6.0553
36 4 1.17288 9.2413 2.61181 5.26022
203 2 0.175367 7.76536 3.43888 3.10404
40 4 1.31933 12.009 1.81059 6.08624
43 4 1.0125 10.3629 2.55288 2.2132
226 2 0.152258 7.94128 1.06909 7.85416
62 1 -0.663081 7.00275 6.58413 5.14222
177 2 0.138266 12.5486 3.49974 0.703078
74 1 -0.658916 9.47904 3.98541 1.24709
105 3 -0.758746 5.70329 4.1858 6.05978
122 3 -0.786315 8.68023 4.01394 5.8596
125 3 -0.846799 12.5057 1.47505 4.67572
126 3 -0.839588 10.4164 2.04848 6.19505
127 3 -0.827678 12.5356 0.732061 7.10445
133 3 -0.800473 9.87012 2.7366 3.74621
134 3 -0.800488 10.1166 1.17053 1.47533
158 2 -0.0385617 7.98785 1.56822 5.20598
164 2 0.0359232 12.0534 2.85225 2.29741
162 2 0.10719 12.6923 3.39601 6.35951
236 2 0.129857 10.5168 4.38584 0.849205
234 2 0.168397 9.04796 4.63231 2.11861
54 1 -0.683132 11.3006 5.76891 5.3764
63 1 -0.66886 6.77992 3.99039 3.32875
254 2 0.161372 5.27535 6.6277 2.20384
183 2 0.166884 10.892 6.94596 5.44194
275 2 0.20128 7.64515 1.47454 0.487199
248 1 -0.661085 5.89307 6.41856 1.30938
235 2 0.174132 8.71075 3.60213 0.456537
281 2 -0.0125933 10.7472 5.78713 7.24374
182 2 0.178424 11.3955 5.41535 4.30171
161 2 0.114216 8.67917 3.85213 7.3929
253 2 0.154293 7.02172 6.0741 1.48388
204 2 0.157433 6.4829 4.92891 2.51142
274 1 -0.664687 6.62087 2.09086 0.672176
228 2 0.228315 9.75535 1.01425 8.09049
277 2 0.174782 6.71935 2.89422 1.56664
205 2 0.157488 5.93509 3.23066 3.51198
246 4 1.10262 4.78731 5.42789 0.134687
200 2 0.165095 7.80888 6.6646 6.02167
201 2 0.166559 5.95915 6.93139 5.44715
283 2 0.164944 13.6239 0.34952 1.62969
100 3 -0.886036 6.81147 1.59682 11.5623
137 3 -0.821882 9.56254 6.68329 9.44339
101 3 -0.761969 5.11593 5.16085 15.6346
39 4 1.11819 8.56867 3.01786 8.98245
41 4 1.22219 8.38515 1.76974 14.5863
42 4 1.05324 10.7045 3.10742 11.2759
232 2 0.152763 11.5502 4.50543 13.0406
266 2 0.146124 13.0478 1.71587 15.6962
72 1 -0.657821 9.69644 3.00721 15.0088
73 1 -0.696968 10.5742 4.64732 12.4401
295 2 0.18664 10.7644 5.375 11.5227
44 4 1.29113 5.76174 6.95052 9.15594
71 1 -0.683281 8.77583 1.16994 8.60592
124 3 -0.821264 7.13192 3.23976 9.5247
128 3 -0.795091 8.97792 1.07308 13.266
227 2 0.262515 8.60808 0.567527 9.54627
130 3 -0.764733 6.80692 2.74819 14.7233
131 3 -0.799663 12.189 2.71092 10.9151
132 3 -0.821653 9.74147 3.26255 9.96744
152 2 0.08865 4.84784 5.14812 13.9757
138 3 -0.79921 6.99131 6.64223 10.1251
284 2 0.149398 14.2305 0.674417 14.539
123 3 -0.832115 13.3064 0.705292 9.57738
163 2 0.0850387 10.0971 2.02306 12.4206
165 2 0.00262081 9.02722 5.6936 11.7794
109 3 -0.784608 5.181 4.06284 11.6656
229 2 0.161441 9.92517 3.60507 14.0231
230 2 0.16451 10.5907 2.34732 15.2744
231 2 0.165846 9.35474 3.68077 15.9966
264 1 -0.665104 13.8822 1.71217 14.8684
233 2 0.146073 9.7382 5.00029 13.102
5 4 1.2737 13.5426 2.07894 10.3052
19 4 1.22484 5.53287 3.21823 15.5164
45 4 1.22635 8.53323 6.91416 10.6795
24 4 1.51878 6.10659 2.68876 10.7066
9 4 1.2288 10.9185 6.81198 8.64356
135 3 -0.836122 5.27746 5.71022 8.26954
37 4 0.996098 1.9266 13.3524 0.839082
279 2 0.174028 4.41814 12.7101 1.30315
46 4 0.88236 3.36314 10.579 3.71761
68 1 -0.658263 1.06478 12.518 6.77425
75 1 -0.657501 6.51142 8.18326 7.91895
139 3 -0.832568 2.90133 9.15783 3.10879
140 3 -0.798394 2.3872 10.9052 4.90135
263 2 0.171206 4.59814 13.4199 2.92824
239 2 0.170216 5.85282 9.07967 7.88309
150 2 0.0376854 9.44936 9.11936 0.230244
160 2 0.0898366 7.12017 13.1872 7.82843
166 2 -0.0372541 3.43732 11.8358 2.5669
167 2 0.00172579 5.01529 10.3674 4.26164
278 1 -0.670385 3.5402 12.3553 0.644107
217 2 0.224489 1.93605 13.1797 6.90768
218 2 0.191973 0.919771 11.9479 7.8015
38 4 1.28903 5.5099 13.4184 8.2481
291 2 0.267346 8.36863 10.8411 0.88137
159 2 -0.031072 0.856839 12.4628 1.79573
252 2 0.160541 5.91901 7.36348 0.660542
13 4 1.06065 8.68815 11.2901 3.55244
262 1 -0.671736 5.71396 13.4547 2.695
237 2 0.176774 6.67436 7.61329 6.82117
270 1 -0.683965 6.89636 10.6211 3.67644
271 2 0.161003 6.61844 10.7943 4.73965
272 2 0.149262 7.3467 9.47351 3.50476
273 2 0.13794 6.09758 10.8082 2.88917
282 2 0.165714 6.29148 12.4975 2.93476
293 2 0.131314 3.20946 11.3193 0.905754
195 2 0.151237 7.18912 9.50842 0.258343
202 2 0.162273 7.39451 7.05843 4.17753
219 2 0.163645 0.12748 13.0839 6.46505
220 2 0.194569 0.909801 12.0438 14.634
238 2 0.196244 7.4993 8.40957 8.46729
294 2 0.183952 3.09272 13.1581 16.0483
47 4 1.26835 3.99698 11.298 9.65603
48 4 1.21582 7.54138 9.2348 12.5441
49 4 0.984664 5.65824 11.9378 12.2268
245 2 0.161423 5.25598 11.0135 14.4053
76 1 -0.66706 5.87925 8.4357 12.9076
77 1 -0.674207 4.70038 11.8125 13.8455
121 3 -0.808559 0.702324 13.0361 10.982
136 3 -0.808904 4.21028 7.94146 9.86582
258 2 0.00142397 2.14238 9.39594 14.7757
142 3 -0.826946 2.42185 11.251 9.60033
143 3 -0.798497 8.58775 8.29507 11.4374
144 3 -0.782047 8.30136 9.51755 14.0302
145 3 -0.831172 4.66419 11.6143 11.0606
146 3 -0.747814 6.96838 10.707 12.1697
35 4 1.23788 1.11665 11.3849 10.6239
241 2 0.19088 5.9095 7.44829 12.4377
168 2 0.096209 4.176 9.58926 9.48993
169 2 0.00175242 6.27534 13.5407 12.1898
244 2 0.132884 4.96602 12.8839 14.235
240 2 0.167994 5.70979 8.35318 14.0463
223 2 0.141307 2.64172 10.4848 12.1297
196 2 0.157716 6.79247 11.7253 15.7492
18 4 1.02491 8.70219 10.5905 15.2025
242 2 0.186998 5.08707 9.06982 12.3984
243 2 0.177248 3.62601 11.5828 13.7007
141 3 -0.82995 4.77252 12.0186 8.43809
60 1 -0.687929 7.30094 10.925 16.4556
22 4 1.47348 -0.108708 14.0247 12.1537
129 3 -0.76388 0.696919 14.1451 15.8837
290 2 0.195942 10.3139 8.07144 13.5027
ITEM: TIMESTEP
100
ITEM: NUMBER OF ATOMS
295
ITEM: BOX BOUNDS xy xz yz pp pp pp
-8.3506680000000006e+00 1.5174989399999999e+01 -7.7127948000000002e+00
0.0000000000000000e+00 1.4189300000000001e+01 -6.3787320000000003e-01
0.0000000000000000e+00 1.6498000000000001e+01 5.8050000000000002e-01
ITEM: ATOMS id type q x y z
6 4 1.22601 1.09328 1.03763 6.28225
7 4 1.27144 -0.237159 3.55134 1.93117
8 4 1.2894 -0.199533 3.52 7.82452
10 4 1.23161 -1.86254 6.04766 5.74406
25 4 1.46979 0.357918 6.07509 3.68883
27 4 1.04825 2.61472 6.77041 5.61685
50 1 -0.663016 2.93687 1.04993 2.3007
51 1 -0.684078 2.69658 1.51452 5.44967
96 3 -0.847041 3.53055 0.508968 8.11809
171 2 0.154335 3.84896 0.579401 2.94838
79 3 -0.790888 0.175038 0.577989 5.01062
250 2 0.206965 3.95849 3.06509 0.49332
178 2 0.160167 -1.32485 5.2382 0.585455
82 3 -0.747219 0.538622 2.76599 0.414412
84 3 -0.828481 0.486166 2.35182 7.06425
85 3 -0.765884 -1.39148 4.58098 6.62753
104 3 -0.756672 3.89844 3.36612 7.81642
102 3 -0.75562 0.73258 4.76087 2.5923
103 3 -0.812522 -1.24691 6.1499 3.99481
251 2 0.215327 3.06165 4.37255 1.40618
106 3 -0.79021 1.31834 5.99968 4.98916
107 3 -0.817301 3.59119 5.77774 6.41007
170 2 0.190573 3.30457 2.01076 1.73911
26 4 1.47322 4.6335 4.75836 7.15264
172 2 0.195836 1.94726 1.31311 2.83047
173 2 0.18658 2.73047 1.37402 4.29212
174 2 0.221716 3.47875 0.945922 5.99676
175 2 0.22584 2.7591 2.6149 5.74012
81 3 -0.838759 -0.59357 2.41177 2.90335
276 2 0.21629 5.24222 1.41307 0.798817
179 2 0.220554 0.884761 5.52415 7.46665
180 2 0.251659 2.21049 4.40431 8.10108
52 1 -0.678148 -1.77545 4.42222 1.24603
78 3 -0.769668 1.29871 0.199608 0.225288
247 1 -0.682056 4.07096 3.91673 1.15891
249 2 0.178833 4.70614 3.76414 2.03592
176 2 0.175064 -2.22047 4.85004 2.22388
274 1 -0.679045 6.2751 1.91956 0.710356
53 1 -0.688599 1.15372 4.73501 8.18813
205 2 0.173614 5.43619 3.42419 3.73862
3 4 1.30823 0.24464 2.15253 15.8541
206 2 0.151896 1.99217 0.510349 12.69
285 2 0.177398 -0.749657 1.76816 12.8231
20 4 1.2845 3.80073 1.90692 8.95349
23 4 1.32257 2.85962 2.63664 13.9866
28 4 1.3015 4.17523 4.78707 12.3935
257 3 -0.789779 3.02734 6.92312 16.0731
61 1 -0.660408 2.25693 2.16364 10.0389
64 1 -0.656024 3.0652 1.01474 12.9796
83 3 -0.799626 -0.87772 3.0886 9.19808
208 2 0.189626 3.71398 1.23125 12.0785
97 3 -0.800075 4.11976 2.58004 14.9789
98 3 -0.791393 1.41715 2.46587 14.7812
99 3 -0.835949 5.02569 1.94577 9.99887
108 3 -0.812016 2.95155 3.8211 12.798
259 2 0.074377 0.0932631 7.02337 15.5519
110 3 -0.855539 3.63795 6.11096 11.8113
148 2 0.021637 -0.74692 5.91569 11.1039
269 2 0.198447 0.273766 2.71054 11.4598
154 2 -0.0143848 1.87604 6.862 9.90077
181 2 0.155957 0.806572 4.98838 9.2543
185 2 0.171363 0.523328 6.75039 8.99924
267 1 -0.660317 -0.346808 1.7872 11.7165
197 2 0.184794 2.50295 1.79979 11.187
198 2 0.195143 1.52644 1.44048 9.46479
199 2 0.200078 1.95932 3.22409 9.91778
86 3 -0.83243 -3.14705 6.48194 9.70782
268 2 0.149216 0.215164 0.823757 11.5063
11 4 1.03133 -1.94126 7.07354 10.6239
1 4 1.28252 -5.1838 13.2431 1.14797
4 4 1.17704 -4.93143 12.7513 7.82626
12 4 1.16164 -2.24595 9.19583 1.40244
15 4 1.43138 -2.69718 8.85318 7.05109
16 4 1.48423 -4.01612 10.8074 5.23056
30 4 1.24852 1.50761 8.67167 2.22903
31 4 1.2766 -1.49502 11.3966 3.5204
111 3 -0.833773 0.869033 7.42773 2.91477
56 1 -0.677744 -3.15989 7.63592 2.17285
213 2 0.18235 -0.874411 12.5714 1.35226
65 1 -0.669533 1.83446 7.86176 6.9959
66 1 -0.681146 -0.935637 12.9075 2.44415
157 2 0.0189863 0.81771 9.42309 6.24898
210 2 0.170602 2.32777 7.35786 7.90073
88 3 -0.825341 -3.33247 10.1838 0.70405
90 3 -0.80604 -1.81568 7.41251 6.56571
91 3 -0.803244 -5.50354 10.6083 4.51286
92 3 -0.803375 -3.41919 9.39454 5.67161
93 3 -0.815445 -4.36994 11.8827 6.56404
212 2 0.177363 -1.82104 13.5527 2.68748
112 3 -0.810743 1.86494 8.46344 0.665106
113 3 -0.811759 -1.30543 9.8734 2.40992
114 3 -0.824633 -2.89096 11.5405 4.21083
13 4 1.06832 -6.48366 11.4074 3.61413
116 3 -0.795674 -0.283848 11.3541 4.5615
155 2 0.0628328 0.412321 9.91645 2.2838
287 2 0.147181 -3.5695 7.01043 1.33446
188 2 0.19688 -3.95531 8.13954 2.79449
89 3 -0.81289 -3.97219 8.47509 8.01448
211 2 0.191963 0.75423 8.11066 7.24514
115 3 -0.832825 -1.6351 9.95684 7.84097
33 4 1.01723 1.03054 11.0394 5.62251
87 3 -0.784623 -6.02787 11.9246 2.16756
215 2 0.215632 -2.36771 12.8329 7.63875
289 2 0.173675 -0.526371 7.87791 0.383828
280 3 -0.788612 -3.76479 12.8495 0.473527
80 3 -0.786338 -6.48857 13.2258 7.67624
187 2 0.250172 -2.44246 7.02963 2.87806
149 2 0.0999822 -7.12448 12.8307 4.37526
216 2 0.176499 -0.56048 12.8292 8.13074
209 2 0.12407 2.4335 8.84422 6.68729
214 2 0.15818 0.00937154 13.1988 3.03289
221 2 0.15945 0.330867 10.0069 14.7517
14 4 1.44817 -3.94338 11.9998 16.1102
17 4 1.08612 -2.92169 9.35975 12.656
32 4 1.06243 -1.61744 10.8877 9.09118
34 4 1.30478 -1.44062 11.858 14.1157
258 2 0.0462069 2.05745 9.10608 14.517
261 2 0.20463 -0.283414 8.72725 14.1358
58 1 -0.661064 -3.86356 8.4197 14.1208
59 1 -0.669169 -4.18822 10.4937 11.6699
69 1 -0.657049 0.217549 11.3457 14.9572
224 2 0.181811 0.862136 9.15207 11.8727
186 2 0.130089 0.606089 7.36288 10.7223
94 3 -0.811032 -2.16546 8.18514 11.6687
95 3 -0.791487 -5.27681 11.5293 15.0337
117 3 -0.780997 -1.90614 10.3771 13.4324
118 3 -0.826775 -1.14242 13.0024 13.0134
119 3 -0.821585 -2.6101 12.1964 15.2992
120 3 -0.792171 -0.259607 10.6951 9.95172
147 2 -0.0413037 -4.78087 11.842 9.1918
256 1 -0.645489 0.599657 8.07714 14.4294
156 2 -0.00548637 -3.12699 10.5598 10.014
184 2 0.17646 -0.654296 8.27992 9.37522
189 2 0.218718 -1.02364 9.99259 15.9382
191 2 0.173274 -4.13414 9.23367 14.8734
192 2 0.187164 -5.0593 10.2041 12.4366
193 2 0.176791 -4.50994 10.1525 10.6706
194 2 0.166415 -3.87236 11.6354 11.8045
225 2 0.183073 0.746366 10.6325 13.1363
288 2 0.172425 -2.49957 8.90505 15.5246
260 2 0.16331 0.856487 7.33936 13.6097
255 4 0.984841 1.75156 8.03427 15.9821
292 2 0.205392 -1.90426 13.3004 9.43907
70 1 -0.64633 1.28266 10.165 12.1424
207 2 0.228048 -4.13824 13.9154 13.7154
67 1 -0.680872 -1.65125 12.6764 8.51212
222 2 0.169967 0.292086 11.6191 16.0656
57 1 -0.6678 -1.70713 9.28124 16.4075
153 2 -0.027447 2.38961 8.58766 11.6826
190 2 0.162304 -3.30969 7.53314 14.4498
29 4 0.934585 3.20376 7.31438 10.907
55 1 -0.660096 -0.0525266 7.20617 9.86218
290 2 0.184037 -4.75455 8.16008 13.3097
2 4 1.23071 13.8708 1.25925 3.77921
21 4 1.01895 6.92817 4.66653 5.00529
286 2 0.181724 11.1481 4.73177 5.96717
36 4 1.19473 9.22868 2.58581 5.19981
203 2 0.165615 7.27259 3.28131 3.01672
40 4 1.29441 12.033 1.93566 6.06432
43 4 1.01857 10.3234 2.70449 2.23089
226 2 0.166672 7.5873 1.02668 7.97804
62 1 -0.667295 6.92045 6.60542 4.83018
177 2 0.140834 12.8013 3.63414 0.623675
74 1 -0.66511 9.31183 3.9837 1.20758
105 3 -0.782685 5.77908 4.24629 5.97555
122 3 -0.777432 8.63654 3.94289 5.77003
125 3 -0.862817 12.533 1.65687 4.63547
126 3 -0.838198 10.4512 2.07742 6.11542
127 3 -0.822897 12.5262 0.930603 7.2343
133 3 -0.812952 9.73676 2.76942 3.67188
134 3 -0.788444 10.0687 1.27401 1.47669
158 2 -0.0334865 8.12636 1.34842 5.26931
164 2 -0.00591418 11.9252 3.3553 2.13165
162 2 0.103508 12.7 3.46582 6.53799
236 2 0.125617 10.318 4.50454 0.774175
234 2 0.1764 8.7081 4.53577 1.92244
54 1 -0.686995 11.3952 5.74981 5.61513
63 1 -0.686362 6.41113 3.94257 3.28246
254 2 0.149572 5.44304 6.2759 2.21698
183 2 0.189432 10.7692 6.51564 6.01824
275 2 0.204844 7.13227 1.21373 0.75787
248 1 -0.662371 6.01332 6.35161 1.24067
235 2 0.177578 8.63327 3.42332 0.495172
281 2 0.0132119 11.0383 5.6721 7.55263
182 2 0.172074 11.3755 5.77714 4.45614
161 2 0.10424 8.68085 3.8622 7.37285
253 2 0.169507 7.04057 5.92982 1.30066
204 2 0.156898 6.27371 4.79374 2.48141
202 2 0.147171 6.97185 6.5716 3.64408
228 2 0.209084 9.54215 1.12936 8.14204
277 2 0.164655 6.35662 2.80539 1.57036
283 2 0.172785 13.5508 0.222688 1.61418
246 4 1.08323 4.85736 5.36442 0.0361857
201 2 0.152333 5.87003 6.9381 5.15431
100 3 -0.85148 6.97985 1.69017 11.5418
137 3 -0.820582 9.30726 6.99426 9.18635
101 3 -0.750881 5.24694 5.10718 15.5132
39 4 1.05744 8.50716 3.0748 8.92203
41 4 1.24922 8.33174 1.80745 14.713
42 4 1.03639 10.7229 3.17551 11.2994
232 2 0.119898 11.4499 4.20398 13.1939
266 2 0.151062 13.1454 1.17289 15.5156
72 1 -0.662441 9.80437 2.97413 15.1945
73 1 -0.678046 10.5148 4.68933 12.5051
295 2 0.169413 10.9346 5.51023 11.7371
44 4 1.27094 5.73558 6.90469 9.15224
71 1 -0.678784 8.49654 1.21873 8.65642
124 3 -0.791496 7.15625 3.32863 9.5924
128 3 -0.771429 8.94499 1.03287 13.2079
227 2 0.262421 8.52369 0.656041 9.58326
130 3 -0.784785 6.98188 2.8123 14.6309
131 3 -0.812013 12.1656 2.57345 11.0237
132 3 -0.779602 9.91003 3.43565 9.90337
152 2 0.103437 4.91292 5.18177 13.8819
138 3 -0.797534 6.88133 6.64492 10.2255
284 2 0.1531 14.187 0.784484 14.0754
123 3 -0.846745 13.3947 0.5346 9.61251
163 2 0.105112 9.91651 1.94592 12.2285
165 2 0.0232666 9.06852 5.48909 11.448
109 3 -0.842698 5.35233 3.94794 11.741
229 2 0.15989 10.1089 3.61796 14.2307
230 2 0.165414 10.591 2.26035 15.5134
231 2 0.188154 9.34093 3.55121 16.0588
264 1 -0.666951 13.91 1.58444 14.8027
233 2 0.159295 9.74186 5.16136 13.1973
5 4 1.31656 13.4816 1.95385 10.2949
19 4 1.20581 5.61129 3.15663 15.505
45 4 1.23314 8.4949 6.86679 10.5496
24 4 1.57624 6.11583 2.78031 10.8145
9 4 1.21335 10.8561 6.98154 8.66606
135 3 -0.806265 5.27986 5.55489 8.38081
129 3 -0.805995 8.20845 0.735361 15.9141
265 2 0.15435 13.4723 2.46853 14.2782
241 2 0.220198 6.21523 7.18946 12.2491
37 4 0.976221 1.95515 13.4531 0.809223
279 2 0.155185 4.3612 12.7416 1.23877
46 4 0.875919 3.27658 10.5017 3.58774
68 1 -0.648224 1.33689 12.4752 6.77676
75 1 -0.663097 6.29965 8.00256 7.69617
139 3 -0.836848 2.86803 9.15688 2.94821
140 3 -0.812748 2.44975 10.9108 4.93586
151 2 0.00987322 3.46129 7.69339 4.45624
239 2 0.150217 5.56402 8.86258 7.68494
150 2 0.0420725 9.57533 8.92196 0.219474
160 2 0.0892134 7.03346 13.0155 7.70229
166 2 -0.0370288 3.20595 11.8206 2.4886
167 2 -0.0110594 4.98525 10.5325 3.86091
278 1 -0.674299 3.45839 12.276 0.562857
217 2 0.230182 2.40747 12.8624 6.59347
218 2 0.193085 1.1151 11.9733 7.82429
195 2 0.164625 7.49649 9.43737 0.435485
291 2 0.274992 8.44592 10.9362 0.915903
159 2 -0.0192294 0.855774 12.5067 1.77948
252 2 0.166982 5.91611 7.38079 0.749134
219 2 0.15873 0.533742 13.217 6.50379
262 1 -0.687911 5.76842 13.4261 2.66598
237 2 0.17889 6.4635 7.49403 6.59561
270 1 -0.682989 6.94781 10.5142 3.51364
271 2 0.13737 6.51156 10.9031 4.45114
272 2 0.180566 7.40489 9.43392 3.67626
273 2 0.154857 6.29637 10.6253 2.62959
282 2 0.16151 6.2139 12.3776 2.83642
293 2 0.153227 3.2217 11.1669 0.748379
263 2 0.14423 4.67584 13.3338 2.97256
60 1 -0.676959 8.13289 10.226 0.0488477
200 2 0.186371 7.74255 7.10789 5.33428
238 2 0.19339 7.33523 8.26029 8.18592
220 2 0.180363 0.884884 12.0214 14.3431
22 4 1.51011 -0.0665002 13.9479 12.1455
294 2 0.166812 2.93928 13.1546 15.9405
47 4 1.24763 3.96787 11.2219 9.62831
48 4 1.17716 7.56359 9.25137 12.4798
49 4 1.01656 5.6843 11.9763 12.1397
245 2 0.160329 4.69857 10.8313 14.1027
76 1 -0.661624 6.06063 8.1878 12.7898
77 1 -0.651412 4.74657 11.928 13.7647
121 3 -0.831821 0.62338 13.0274 11.1838
136 3 -0.806465 4.27986 7.97019 9.97632
38 4 1.27864 5.46908 13.399 8.26519
142 3 -0.830285 2.36923 11.3564 9.73951
143 3 -0.785631 8.54518 8.13738 11.5088
144 3 -0.783571 8.35132 9.37046 14.067
145 3 -0.797887 4.56465 11.6405 11.1075
146 3 -0.770022 6.90864 10.8003 12.0957
35 4 1.2971 1.06837 11.3742 10.6266
141 3 -0.840276 4.59322 12.0551 8.46966
168 2 0.0798578 4.28932 9.53849 9.52283
169 2 0.00745509 6.42447 13.5526 11.9479
244 2 0.128914 5.52495 12.6108 14.3353
240 2 0.178969 5.96302 8.08962 13.8805
223 2 0.144867 2.48441 10.3176 12.0938
196 2 0.150425 6.86515 11.4223 15.6797
18 4 1.0687 8.81252 10.3612 15.1967
242 2 0.174781 5.222 8.85728 12.3463
243 2 0.172812 3.69952 12.4642 13.5832
ITEM: TIMESTEP
200
ITEM: NUMBER OF ATOMS
295
ITEM: BOX BOUNDS xy xz yz pp pp pp
-6.3914639999999956e-01 2.2682368000000000e+01 7.4770892000000000e+00
0.0000000000000000e+00 1.4189300000000001e+01 -6.3914639999999956e-01
0.0000000000000000e+00 1.6498000000000001e+01 5.8050000000000002e-01
ITEM: ATOMS id type q x y z
6 4 1.20933 1.07373 1.1892 6.28356
205 2 0.174918 5.54957 3.13712 3.54036
274 1 -0.670985 6.31486 1.9309 0.666342
249 2 0.15078 4.89199 3.79757 1.91589
247 1 -0.65106 3.97525 3.92334 1.10084
78 3 -0.772958 1.48587 0.304297 0.069711
50 1 -0.658742 2.93485 1.06884 2.32953
51 1 -0.675149 2.69337 1.72862 5.52566
105 3 -0.815901 5.73941 4.36531 6.15833
171 2 0.157015 3.70438 0.566343 3.05953
79 3 -0.783973 0.24488 0.601348 5.03149
250 2 0.188624 3.89341 2.96792 0.450025
246 4 1.11978 4.84174 5.34682 0.0381361
276 2 0.187061 5.23969 1.36419 0.657452
175 2 0.226057 2.71297 2.87088 5.61679
174 2 0.205498 3.3827 1.15586 6.20921
104 3 -0.812147 3.86045 3.27335 7.6693
173 2 0.1761 2.73783 1.44241 4.33627
172 2 0.176119 1.8727 1.16924 2.92113
251 2 0.226003 3.0117 4.26407 1.4948
26 4 1.54912 4.52689 4.64271 7.1515
107 3 -0.825078 3.48423 5.62791 6.46358
170 2 0.175975 3.41558 2.13294 1.81944
21 4 1.02445 6.88453 4.61825 5.09857
63 1 -0.697676 6.42366 3.76698 3.35758
234 2 0.17479 8.73234 4.40465 2.00019
203 2 0.174901 7.34811 3.1871 3.25416
277 2 0.173404 6.37182 2.68594 1.57899
200 2 0.166082 7.94657 6.71416 5.25834
202 2 0.157597 7.03514 6.56714 3.62357
204 2 0.160435 6.35173 4.65105 2.62195
253 2 0.167991 7.02424 5.47169 1.34013
161 2 0.0942368 8.7613 4.04453 7.39121
62 1 -0.665883 6.90806 6.52707 4.7695
74 1 -0.658419 9.34629 4.02151 1.10827
235 2 0.196923 8.85139 3.51745 0.213031
248 1 -0.658671 6.10784 6.16835 1.28993
275 2 0.217201 7.11747 1.17944 0.685028
122 3 -0.796358 8.6149 4.00111 5.7726
254 2 0.155919 5.466 6.33321 2.2072
268 2 0.151541 0.343577 0.885336 11.4238
96 3 -0.840187 3.32514 0.332131 8.43393
199 2 0.199627 2.02968 3.29783 10.2382
20 4 1.25391 3.7099 1.94679 8.96544
23 4 1.29428 2.89642 2.5574 13.8608
28 4 1.31134 4.25005 4.71499 12.4025
257 3 -0.784714 3.02597 6.82266 16.1062
61 1 -0.663986 2.26105 2.22239 10.1577
64 1 -0.686853 3.18417 0.862745 12.9391
198 2 0.167268 1.45538 1.62492 9.60767
208 2 0.204186 3.99991 1.00507 12.1107
97 3 -0.813368 4.18004 2.6612 14.7781
98 3 -0.763809 1.36723 2.68849 14.7283
99 3 -0.866942 4.95635 1.95569 9.92376
108 3 -0.799137 2.96308 3.83052 12.7959
197 2 0.182743 2.56956 1.73289 11.2559
110 3 -0.842385 3.69198 6.0316 11.6435
100 3 -0.804043 6.78701 1.67693 11.6682
241 2 0.184525 6.15184 7.02432 12.2458
137 3 -0.807461 9.38305 7.03116 9.33776
101 3 -0.76505 5.21658 5.15905 15.5028
135 3 -0.807774 5.05158 5.59925 8.44069
9 4 1.25233 10.8602 7.02829 8.6392
24 4 1.52552 6.00817 2.77447 10.7225
45 4 1.23623 8.44624 7.03415 10.6096
19 4 1.24989 5.58752 3.21951 15.4821
39 4 1.09136 8.52305 3.21345 8.92556
44 4 1.30878 5.71683 6.86182 9.08296
124 3 -0.779909 7.24968 3.54745 9.69878
130 3 -0.792161 7.00187 2.83967 14.8903
152 2 0.0973928 4.75573 5.43839 13.8861
138 3 -0.805947 6.94434 6.69158 10.0419
109 3 -0.85036 5.3636 3.9106 11.7794
165 2 -0.00668073 8.90156 5.87871 11.7991
180 2 0.244384 2.27124 4.07254 8.35822
226 2 0.144273 7.54206 1.17353 8.12127
1 4 1.24246 10.0418 13.2709 1.16707
4 4 1.20631 9.99731 12.724 7.81968
149 2 0.108128 8.12898 12.8247 4.43889
80 3 -0.790405 8.53581 13.0561 7.28319
16 4 1.4596 11.2062 11.0311 5.26178
280 3 -0.817794 11.3164 12.7037 0.316325
215 2 0.209346 13.0971 12.5257 7.12476
87 3 -0.772399 9.13923 11.9386 2.18742
89 3 -0.812838 11.3283 8.42517 8.08323
213 2 0.189445 14.0925 12.4564 1.64255
188 2 0.200236 11.5003 8.34581 3.07875
66 1 -0.651732 13.9346 13.0684 2.61618
13 4 1.05288 8.68777 11.4006 3.63261
114 3 -0.812827 12.2076 11.9143 4.26548
88 3 -0.797996 11.9252 9.99039 0.541796
212 2 0.198202 12.8968 13.5582 2.78627
91 3 -0.779548 9.76089 10.5793 4.43889
92 3 -0.836803 11.9397 9.65239 5.70165
93 3 -0.808766 10.7768 11.9919 6.60679
75 1 -0.675347 6.49331 7.82678 7.65194
238 2 0.221671 7.51301 8.01948 8.10408
201 2 0.162912 6.06561 7.11981 5.16328
60 1 -0.683402 8.18365 10.0044 0.123804
239 2 0.158301 5.849 8.75302 7.68582
150 2 0.0243782 9.73512 8.76041 0.146043
160 2 0.11661 7.02531 13.1942 7.73003
273 2 0.152602 6.43328 10.5871 2.42009
272 2 0.176922 7.36361 9.49089 3.71948
271 2 0.134525 6.50461 11.1394 4.33188
270 1 -0.674417 6.97703 10.5571 3.45614
237 2 0.185106 6.60068 7.36947 6.59088
195 2 0.151668 7.70354 9.03284 0.54261
291 2 0.257046 8.5508 10.6882 0.954554
252 2 0.155196 6.23403 7.12315 0.648369
214 2 0.156433 14.8125 13.6378 3.02126
67 1 -0.652603 13.521 12.5577 8.22432
290 2 0.17274 10.3364 7.98433 13.4101
14 4 1.43422 11.0855 11.9697 16.0061
49 4 1.05024 5.8078 11.8186 12.0499
146 3 -0.748643 6.91043 10.6979 12.0657
292 2 0.193106 12.7614 13.0138 9.01962
194 2 0.167262 11.4465 11.411 11.3561
193 2 0.208512 10.8473 9.72886 10.6892
207 2 0.228117 11.1059 13.895 13.8285
59 1 -0.653443 11.012 10.4494 11.5942
192 2 0.20848 10.2227 10.4645 12.4522
191 2 0.15675 10.9294 8.67795 14.9701
156 2 0.00362101 12.2087 10.5466 10.0099
147 2 -0.0138345 9.80222 11.5817 8.98584
95 3 -0.804257 9.9359 11.4344 14.8979
119 3 -0.790609 12.645 12.1722 15.2986
48 4 1.24922 7.50595 9.07877 12.5933
76 1 -0.679552 6.02607 7.9106 13.0041
242 2 0.16107 5.20179 8.66083 12.7201
18 4 1.02968 8.82594 10.2945 15.2344
196 2 0.151003 6.79274 11.1499 15.8342
136 3 -0.807515 4.31834 8.00572 9.91842
240 2 0.173921 6.0872 7.6016 14.1065
143 3 -0.787887 8.36641 8.50928 11.339
144 3 -0.808093 8.23518 9.38907 13.9641
206 2 0.167868 9.71333 14.1181 12.5779
2 4 1.22191 13.9134 1.23678 3.85528
283 2 0.174226 13.5553 0.23585 1.71121
286 2 0.170353 10.9303 5.00669 6.07545
36 4 1.20155 9.39454 2.71137 5.2066
228 2 0.211612 9.39452 1.09113 8.06697
40 4 1.25667 12.1042 1.85254 6.16658
43 4 1.00606 10.3685 2.79743 2.1826
182 2 0.155705 11.7629 5.37613 4.2982
281 2 -0.00864488 10.8618 5.98337 7.29093
177 2 0.142749 12.6734 3.80084 0.704069
54 1 -0.677625 11.4864 5.79041 5.43613
236 2 0.116639 10.2946 4.69071 0.893917
162 2 0.0829401 12.8836 3.36664 6.50846
125 3 -0.852719 12.6132 1.41871 4.73199
126 3 -0.843524 10.4209 2.13243 6.20472
127 3 -0.844635 12.5325 0.778675 7.21898
133 3 -0.822257 9.75975 2.86782 3.61128
134 3 -0.78734 9.994 1.33238 1.53106