ITEM: TIMESTEP
0
ITEM: NUMBER OF ATOMS
295
ITEM: BOX BOUNDS xy xz yz pp pp pp
-8.3339999999999996e+00 1.5144700000000000e+01 -7.6974000000000000e+00
0.0000000000000000e+00 1.4189300000000001e+01 -6.3660000000000005e-01
0.0000000000000000e+00 1.6498000000000001e+01 5.8050000000000002e-01
ITEM: ATOMS id type q x y z
6 4 1.20524 0.611145 1.62104 5.93127
7 4 1.28187 -0.130979 3.89188 2.08686
8 4 1.25099 -0.917106 4.00959 7.6255
10 4 1.24537 -2.05605 6.65778 5.41746
25 4 1.42651 0.974725 6.15 4.0423
27 4 0.952587 3.47762 6.43333 5.71994
50 1 -0.662863 2.90719 0.862808 1.9522
51 1 -0.687344 2.28066 2.40823 5.53588
52 1 -0.658023 -1.62232 4.94789 1.55868
204 2 0.178015 4.68263 2.68336 2.56046
79 3 -0.806897 -0.128193 0.980288 4.62263
276 2 0.204302 5.16188 0.551021 0.354197
249 2 0.179326 4.64292 4.30902 3.07204
82 3 -0.791767 0.518048 3.2373 0.612623
84 3 -0.827092 -0.189472 2.82851 6.77388
85 3 -0.784005 -2.22775 5.0682 6.70344
53 1 -0.648233 0.429936 5.25926 7.98694
102 3 -0.806414 0.856246 4.93105 2.92027
103 3 -0.776657 -0.668825 6.50334 4.65054
104 3 -0.81162 4.2819 2.95608 7.70944
106 3 -0.789254 1.95855 5.79543 5.37294
78 3 -0.746413 0.800078 0.532631 0.0301303
172 2 0.177378 4.07481 1.02894 1.50181
203 2 0.175785 5.0742 1.25911 3.68079
81 3 -0.805676 -0.962067 2.69505 2.94503
173 2 0.172916 2.10997 2.38968 4.37924
174 2 0.22092 3.13592 1.71021 5.94745
175 2 0.237261 2.34882 3.4396 5.91298
176 2 0.151922 -2.3718 5.33072 2.34387
274 1 -0.678255 5.94068 1.25542 0.784895
178 2 0.169417 -0.939683 5.81133 1.10932
277 2 0.168572 5.6796 1.58843 1.91143
205 2 0.196234 3.98803 2.55293 4.32757
171 2 0.196609 2.31865 1.83356 1.87212
179 2 0.177893 -0.0994683 6.19485 7.56689
180 2 0.225778 1.39756 5.01904 7.33633
250 2 0.19299 3.53019 5.9467 2.77476
101 3 -0.774491 5.22287 4.01332 0.283193
63 1 -0.681139 4.86857 2.37056 3.62688
54 1 -0.682769 -3.42435 6.37236 4.24003
182 2 0.154947 -2.94928 6.33717 3.17033
281 2 0.0864615 -3.02841 5.71141 7.91093
170 2 0.185001 2.75647 0.350108 2.98166
257 3 -0.78693 3.6978 6.4736 0.231399
177 2 0.145913 -2.10732 4.39945 0.700685
275 2 0.220277 6.95795 0.780992 0.674888
3 4 1.2594 -0.126527 2.74447 15.9257
267 1 -0.662297 -0.189316 1.75955 11.3091
290 2 0.188071 -3.00959 7.22638 13.4296
20 4 1.35582 3.41272 2.13528 8.883
23 4 1.35122 2.44218 2.8401 14.0112
28 4 1.28138 4.38021 4.5132 12.593
285 2 0.186316 -0.409887 2.2765 12.3005
61 1 -0.678022 2.06015 3.35433 9.60379
64 1 -0.66568 2.43496 1.24087 12.9726
83 3 -0.780032 -1.19931 3.39225 9.02067
100 3 -0.817814 5.93392 0.70259 12.0582
97 3 -0.795376 3.75517 2.70426 15.0279
98 3 -0.79278 1.00196 2.9215 14.6537
99 3 -0.824281 4.22886 1.79971 10.245
108 3 -0.787238 2.82316 4.1571 13.1306
19 4 1.2968 5.09466 3.13747 15.8951
9 4 1.25928 -3.42599 6.95555 9.05223
148 2 0.0319888 0.697654 6.77868 10.6885
268 2 0.183022 -0.161382 0.649155 11.3455
269 2 0.173933 0.716446 2.32053 10.6768
181 2 0.181543 0.516819 5.28001 9.13638
207 2 0.214173 2.642 1.43152 11.8605
24 4 1.54081 5.57627 2.0141 11.1354
197 2 0.194086 1.96484 3.2917 10.7338
198 2 0.211317 1.17272 3.07601 9.01386
199 2 0.183241 2.54803 4.33067 9.32162
259 2 0.0362366 0.855878 6.97881 15.0317
295 2 0.216328 -3.11493 5.6389 11.7158
86 3 -0.854412 -2.01104 6.86054 9.8611
109 3 -0.847261 5.18834 3.3248 11.9704
206 2 0.224326 3.26918 0.729811 13.5558
284 2 0.163104 -1.77617 3.29266 14.2217
96 3 -0.846256 2.6114 0.863334 8.35465
208 2 0.18416 1.38502 0.740192 13.1602
1 4 1.22057 -5.65736 13.2944 0.872229
4 4 1.21254 -5.54991 13.1667 7.52413
12 4 1.0556 -3.11862 9.18449 1.58958
15 4 1.47717 -2.88506 9.22684 7.2181
16 4 1.47658 -4.24184 11.4452 5.42479
30 4 1.22978 1.27601 8.61427 2.27165
31 4 1.27862 -1.44214 11.1338 3.81588
80 3 -0.773073 -7.01216 13.4196 6.86948
56 1 -0.678277 -4.85654 8.78788 2.49062
189 2 0.163323 -1.55601 7.44738 1.42007
57 1 -0.681951 -2.5412 7.59537 0.839384
66 1 -0.675041 -0.933197 12.5238 2.64606
212 2 0.201053 -1.23888 13.4167 3.23403
222 2 0.178884 -0.0973786 11.6387 0.974875
88 3 -0.829642 -3.38325 10.2067 0.428581
90 3 -0.832827 -2.32525 8.03633 6.1827
91 3 -0.829066 -5.51973 11.2341 4.40957
92 3 -0.805171 -3.97202 10.1448 6.46314
93 3 -0.819806 -4.49194 12.7694 6.37007
111 3 -0.87022 1.44879 7.56061 3.42702
112 3 -0.826198 1.30137 7.94212 0.808538
113 3 -0.778621 -1.76211 9.85929 2.87434
114 3 -0.782645 -2.82979 11.6793 4.5264
115 3 -0.838685 -1.77363 10.234 7.96332
116 3 -0.776416 0.0561541 10.9196 4.75962
155 2 0.0940493 -0.325054 9.18354 2.48503
292 2 0.229227 -2.60607 13.0633 7.72815
187 2 0.194427 -4.68368 9.11411 3.59828
157 2 0.00672024 1.40186 9.22059 6.53266
211 2 0.163082 1.84767 7.7132 7.19941
214 2 0.17318 0.172134 12.4495 2.63442
213 2 0.184389 -1.52657 12.405 1.67523
87 3 -0.785805 -6.40544 11.9068 1.93757
69 1 -0.660174 0.42763 11.1939 0.0235187
221 2 0.19387 0.413079 10.0287 0.130645
183 2 0.18149 -4.08355 7.24339 4.3942
33 4 1.05627 1.38596 10.7427 5.59356
289 2 0.141217 -3.33974 6.88356 1.14153
11 4 1.02113 -0.94331 7.63873 10.6828
224 2 0.197992 0.671057 9.69087 11.9687
17 4 1.11577 -1.94643 9.39305 13.2058
32 4 1.04013 -1.6605 11.1835 9.22735
34 4 1.27344 -1.20737 11.8961 14.8788
288 2 0.185728 -3.09163 8.18016 16.1706
55 1 -0.653403 0.925527 8.28422 9.80188
58 1 -0.65405 -2.90252 8.03889 14.2072
59 1 -0.67323 -3.25395 10.5925 12.3772
216 2 0.155355 -3.21527 12.809 9.57208
255 4 1.03337 1.6772 7.84314 16.271
185 2 0.171669 1.66432 8.22207 8.95475
94 3 -0.824257 -1.23496 8.57379 11.9075
95 3 -0.812673 -5.21209 11.0753 14.6951
117 3 -0.79937 -1.04789 10.1597 14.2771
118 3 -0.850602 -0.485884 12.9052 13.9032
119 3 -0.777009 -2.79994 12.414 15.1852
120 3 -0.815528 -0.208697 11.5712 9.95453
147 2 -0.0278927 -5.81296 11.8607 8.56928
215 2 0.19848 -1.54872 13.6835 9.10444
156 2 -0.00411328 -2.64827 10.5479 10.4999
184 2 0.123072 -0.243807 8.68826 9.28149
186 2 0.158438 1.19062 9.13476 10.6025
191 2 0.169688 -3.90634 8.59622 14.4602
192 2 0.252068 -4.00748 10.8729 13.243
193 2 0.168988 -3.82625 10.1417 11.4802
194 2 0.175138 -2.60122 11.462 12.0781
67 1 -0.659179 -2.33495 12.8829 8.78451
260 2 0.169723 1.87319 8.45543 13.5782
280 3 -0.811805 -5.09247 13.1334 16.462
256 1 -0.660135 1.59867 8.74565 14.5943
261 2 0.251783 0.541032 9.35162 14.5487
14 4 1.48202 -4.32508 11.9038 15.8176
89 3 -0.805331 -3.71601 8.40186 8.40602
154 2 -0.00428118 2.60624 7.52281 10.4384
190 2 0.159838 -2.25292 7.70801 15.1259
2 4 1.32825 13.6193 1.51652 3.89094
21 4 1.16564 6.56161 2.91512 4.54058
251 2 0.113033 5.4603 6.25712 2.86155
36 4 1.18645 9.23402 1.45657 4.59435
151 2 -0.0174161 4.3883 6.61111 4.19608
40 4 1.27606 11.542 2.18968 6.22331
43 4 1.00063 10.9028 2.59872 1.96178
235 2 0.193391 9.15083 3.18277 0.558985
62 1 -0.662111 7.26658 4.46259 3.61168
253 2 0.140142 7.0594 6.78609 1.36903
74 1 -0.638831 9.60126 3.76896 1.46155
105 3 -0.790597 6.1102 3.53212 5.94799
122 3 -0.817895 7.64645 1.75526 4.49606
125 3 -0.858237 12.4399 1.97239 4.91617
126 3 -0.835615 10.0309 2.27536 5.80071
127 3 -0.878752 11.7784 1.16543 7.35718
133 3 -0.774517 10.0833 1.87182 3.19987
134 3 -0.781199 11.4095 1.63495 0.67084
234 2 0.183511 8.82205 4.11762 2.27293
286 2 0.155178 11.288 5.35972 4.62447
162 2 0.0738637 11.8674 3.81826 6.79783
164 2 0.0385652 12.3175 3.62702 2.36037
200 2 0.159008 8.42121 4.36546 3.73702
246 4 1.10216 4.90845 5.49268 0.771715
237 2 0.167672 6.60073 6.61946 6.20456
236 2 0.100183 10.4904 4.66654 1.19533
201 2 0.159897 6.9092 5.3757 4.2094
202 2 0.170976 6.92837 4.35465 2.53407
228 2 0.187532 9.14804 1.68888 7.77515
248 1 -0.657616 6.73844 6.39119 0.334691
26 4 1.48863 5.23923 4.17886 7.20591
247 1 -0.643724 4.54526 5.46531 2.6323
283 2 0.211917 13.0593 0.234479 1.70973
263 2 0.17667 11.8085 0.173738 3.09595
107 3 -0.806642 4.38016 5.51808 6.64468
152 2 0.036524 5.31033 5.13685 13.9062
241 2 0.141153 6.80263 5.83003 13.2503
227 2 0.248733 10.1141 1.24725 9.31394
39 4 1.02719 8.24405 2.9376 9.50407
41 4 1.28612 7.86257 2.67226 14.6181
42 4 1.03564 10.8517 3.48738 11.6746
45 4 1.26494 8.95117 6.529 10.6106
29 4 0.944536 4.23698 6.9568 10.6737
72 1 -0.68638 9.28573 4.0722 14.6533
73 1 -0.687586 11.3063 5.09041 12.4338
242 2 0.153366 5.406 7.09103 13.0799
266 2 0.171159 13.1124 1.64665 15.0634
265 2 0.184207 12.5431 3.24236 15.9116
124 3 -0.808398 6.95462 2.4413 10.1902
128 3 -0.802343 8.12909 1.92742 13.2997
129 3 -0.780338 8.34625 1.58354 15.9424
130 3 -0.85072 6.42343 3.29898 14.9977
131 3 -0.772102 12.1721 2.65706 11.084
132 3 -0.778545 9.63499 3.65341 10.6377
71 1 -0.662275 9.08388 1.42413 8.92642
44 4 1.19485 6.52336 6.53037 8.66356
37 4 0.9768 9.85024 1.10758 16.2331
137 3 -0.79889 10.443 6.5982 9.88167
163 2 0.0293002 10.2071 3.03008 13.3029
165 2 0.057728 8.71749 4.9578 11.1429
232 2 0.140548 11.9231 4.72126 13.3138
229 2 0.141688 9.27226 4.48978 13.6037
230 2 0.160797 10.3129 3.81379 14.9714
231 2 0.158433 8.79077 4.84275 15.3147
240 2 0.178066 6.27789 6.83845 14.7904
5 4 1.24801 13.4287 1.99832 10.2166
76 1 -0.706845 6.393 6.7902 13.6253
252 2 0.182078 6.67545 6.13655 16.4094
264 1 -0.67736 13.2683 2.75132 15.1824
233 2 0.163561 10.3396 5.64793 12.7224
123 3 -0.862208 13.1682 0.600434 9.54445
226 2 0.210071 8.29817 0.639032 9.22864
136 3 -0.786116 4.84293 7.00587 9.17185
138 3 -0.844611 7.84201 6.77446 9.53814
135 3 -0.784992 6.31303 4.65748 8.33464
110 3 -0.867979 4.2695 5.77173 11.6448
161 2 0.0730544 7.97381 4.12903 8.34302
293 2 0.0205409 10.5981 0.525336 14.7693
150 2 0.0108722 9.24502 8.94241 0.125832
38 4 1.29332 5.05517 13.7181 8.07163
46 4 0.894718 3.35681 10.5365 3.37484
68 1 -0.655212 1.40023 12.3613 6.58856
75 1 -0.665103 6.74126 7.39061 6.99767
139 3 -0.808148 2.37362 9.88747 2.30708
140 3 -0.81523 2.72227 10.9356 4.81053
238 2 0.180398 7.73947 7.8875 6.8871
149 2 0.113124 7.03884 12.3894 4.20986
210 2 0.240242 3.54617 7.75579 7.99766
160 2 0.0968707 6.57358 13.5203 7.25071
166 2 -0.00553633 3.9754 12.0913 2.86416
167 2 -0.0320756 4.86086 9.72568 3.52926
209 2 0.0799203 3.48542 8.25453 6.06566
217 2 0.21393 2.38904 12.895 6.56136
219 2 0.185303 0.549924 13.0292 6.38518
159 2 0.121351 2.97482 12.3085 1.04057
141 3 -0.838648 4.48676 12.2789 8.01328
287 2 0.147883 10.186 7.68362 2.36807
188 2 0.179592 9.51267 9.36945 2.02765
158 2 0.0188893 1.58617 13.4117 4.91604
262 1 -0.676996 5.19616 13.6786 2.79531
218 2 0.158225 1.2497 11.8259 7.62563
270 1 -0.662342 6.51136 10.8874 3.72887
271 2 0.156788 6.01709 10.4849 4.64481
272 2 0.0496119 7.61405 9.65599 3.17222
273 2 0.129335 5.8306 10.9617 2.85184
282 2 0.157122 5.69809 12.6484 3.18079
65 1 -0.641679 2.89911 8.17094 7.17505
239 2 0.153765 5.8328 8.20174 7.14096
291 2 0.244657 8.08349 10.8967 0.555643
13 4 1.07123 8.45527 11.391 3.40239
168 2 0.0114096 3.03814 9.8836 7.98441
18 4 1.05277 8.63552 10.0712 14.9979
225 2 0.19138 1.57962 11.1014 12.9944
245 2 0.140856 6.33855 11.8198 12.4223
47 4 1.26469 3.68471 11.2421 9.01175
48 4 1.19131 7.50425 8.04817 12.7632
49 4 1.08289 6.07618 10.3242 10.7201
143 3 -0.815892 8.71977 7.47126 11.856
22 4 1.49366 -0.268848 13.8996 12.727
77 1 -0.672285 6.82552 11.9932 11.261
121 3 -0.80715 0.80277 13.2473 11.646
60 1 -0.668805 7.26122 10.8186 16.1145
35 4 1.32656 1.15768 11.9461 10.7446
142 3 -0.824465 2.57457 11.8472 9.89684
258 2 0.121786 2.52178 9.55065 15.0597
144 3 -0.793593 8.05347 9.1221 13.9424
145 3 -0.833487 4.73906 10.5722 9.96735
146 3 -0.791901 6.28165 9.04955 11.5899
278 1 -0.666071 2.75895 12.8898 16.2761
153 2 0.0745654 4.87868 8.2657 11.5852
279 2 0.167735 2.4926 11.9014 15.8072
169 2 0.00861124 7.47839 10.8375 9.81001
223 2 0.154305 2.50101 10.065 11.6525
196 2 0.148799 6.8776 11.5381 15.202
243 2 0.236694 6.26999 12.8273 10.6925
195 2 0.145194 6.48774 9.94919 16.243
220 2 0.203905 0.85946 12.1655 16.343
254 2 0.152802 5.78947 7.79716 16.0977
70 1 -0.668434 1.49512 10.515 12.0191
294 2 0.154869 3.8592 13.0078 16.1941
244 2 0.154349 7.95638 12.1144 11.2575
ITEM: TIMESTEP
100
ITEM: NUMBER OF ATOMS
295
ITEM: BOX BOUNDS xy xz yz pp pp pp
-8.3010040000000007e+00 1.5144700000000000e+01 -7.6644040000000011e+00
0.0000000000000000e+00 1.4189300000000001e+01 -6.3660000000000005e-01
0.0000000000000000e+00 1.6498000000000001e+01 5.8050000000000002e-01
ITEM: ATOMS id type q x y z
6 4 1.23536 0.562162 1.62593 6.01741
7 4 1.33811 -0.145752 3.94256 2.06093
8 4 1.2368 -0.937755 4.14305 7.66155
10 4 1.26917 -2.00082 6.60893 5.52154
25 4 1.50597 0.777129 6.16979 4.06939
27 4 0.993983 3.40321 6.37221 5.60222
50 1 -0.654527 2.90376 0.885563 1.86795
51 1 -0.683619 2.27109 2.21347 5.55695
52 1 -0.657192 -1.80388 4.86688 1.62026
204 2 0.163174 4.61023 2.70185 2.5517
79 3 -0.804251 -0.0855958 1.10867 4.6544
276 2 0.222491 5.09897 0.572933 0.368707
249 2 0.192227 4.68649 4.20069 2.99256
82 3 -0.811957 0.548115 3.28953 0.797645
84 3 -0.795299 -0.172221 2.95657 6.84695
85 3 -0.789478 -2.36474 5.13807 6.78466
53 1 -0.669944 0.469158 5.29994 8.00421
102 3 -0.806974 0.763061 4.79904 3.05757
103 3 -0.854233 -0.649116 6.34139 4.73614
104 3 -0.816482 4.38419 3.10836 7.89593
106 3 -0.776633 1.90042 5.87567 5.20482
78 3 -0.748002 0.896798 0.534769 0.0955542
172 2 0.174644 4.09638 1.05171 1.51108
203 2 0.159324 5.26932 1.23336 3.48074
81 3 -0.78165 -1.08324 2.7283 2.82023
173 2 0.202839 2.12762 2.60854 4.50742
174 2 0.199258 2.92984 1.27257 5.53788
175 2 0.226458 2.60866 2.99124 6.32616
176 2 0.159786 -2.23506 5.33958 2.58817
274 1 -0.670904 5.91553 1.26534 0.769552
178 2 0.147455 -1.22581 5.67618 0.997226
277 2 0.169008 5.73123 1.58571 1.8414
205 2 0.191463 3.94899 2.27759 4.37749
171 2 0.220332 2.26106 1.77556 1.69629
179 2 0.182745 0.144832 6.27685 7.5334
180 2 0.216233 1.45307 4.91116 7.53891
250 2 0.201617 3.50946 5.70947 2.67393
107 3 -0.811896 4.30358 5.35013 6.35273
63 1 -0.643577 4.90632 2.3123 3.59375
54 1 -0.677152 -3.30436 6.58796 4.22398
182 2 0.151621 -2.90486 6.41361 3.14195
281 2 0.0960438 -3.33072 5.8318 7.78087
170 2 0.17243 2.8335 0.407908 2.93854
3 4 1.24892 -0.0145174 2.75129 16.03
267 1 -0.669955 -0.205245 1.99896 11.0993
290 2 0.177475 -3.02027 6.75985 13.5107
20 4 1.34188 3.53388 2.10322 8.86268
23 4 1.27514 2.60089 2.81091 14.0043
28 4 1.24831 4.27877 4.65007 12.4167
285 2 0.1697 -0.482944 2.43562 12.1459
61 1 -0.677733 2.15445 3.33845 9.40652
64 1 -0.652203 2.46318 1.31043 12.8355
83 3 -0.809093 -1.5143 3.40878 9.00677
100 3 -0.80778 6.11584 0.659702 11.9617
97 3 -0.810525 3.81591 2.58155 15.0991
98 3 -0.759925 1.16999 3.04696 14.871
99 3 -0.799159 4.39684 1.6618 10.2336
108 3 -0.795133 2.87278 4.02676 12.7762
19 4 1.28918 4.99413 3.23175 15.9505
9 4 1.2781 -3.47842 7.01085 9.0959
148 2 0.0209274 0.661662 6.73588 10.5007
268 2 0.182127 -0.210274 0.81662 11.0712
269 2 0.181336 0.674471 2.49885 10.545
181 2 0.163937 0.451194 5.26526 9.15467
207 2 0.231259 3.51432 1.19309 12.4207
24 4 1.55251 5.67913 2.12975 11.1803
197 2 0.208548 2.08766 3.27392 10.517
198 2 0.197137 1.20069 3.13437 8.81053
199 2 0.203711 2.72903 4.3264 9.07871
259 2 0.021452 0.618981 7.02914 15.024
295 2 0.219819 -2.91624 5.55608 11.4321
86 3 -0.844669 -2.0181 6.89718 9.81769
109 3 -0.820906 5.30774 3.38877 12.1271
264 1 -0.66568 -1.58726 2.86785 15.0337
284 2 0.183611 -1.48031 3.22486 14.0135
96 3 -0.817499 2.77329 0.755922 8.32259
208 2 0.191924 1.57976 1.62149 12.1152
110 3 -0.837382 4.14305 5.60261 11.2161
232 2 0.148461 -3.00525 4.90337 13.2949
265 2 0.168685 -2.20249 3.53463 15.7451
206 2 0.210033 2.19729 0.548778 13.6786
257 3 -0.763067 2.9608 6.94538 16.4899
1 4 1.20835 -5.69056 13.1907 0.935555
4 4 1.22239 -5.65745 13.133 7.662
12 4 1.02934 -2.97517 9.20497 1.60839
15 4 1.46365 -2.96373 9.24942 7.18514
16 4 1.41925 -4.1161 11.4984 5.58219
30 4 1.25484 1.35206 8.6065 2.32401
31 4 1.29176 -1.36217 11.2406 3.88049
80 3 -0.795341 -7.15179 13.6489 7.16684
56 1 -0.67764 -4.83523 8.93013 2.45151
189 2 0.154591 -1.54544 7.34517 1.46744
57 1 -0.686567 -2.46397 7.59947 0.871086
66 1 -0.674493 -1.05522 12.5638 2.5676
212 2 0.180976 -1.47644 13.4468 3.21876
222 2 0.183473 -0.315946 11.6495 0.868036
88 3 -0.858807 -3.2071 10.2554 0.461493
90 3 -0.815578 -2.14888 8.02802 6.23836
91 3 -0.815888 -5.34479 11.394 4.36596
92 3 -0.820186 -4.09464 9.98283 6.38969
93 3 -0.839415 -4.60645 12.6639 6.58159
111 3 -0.871774 1.49246 7.4697 3.40844
112 3 -0.818688 1.36146 7.90136 0.882335
113 3 -0.772678 -1.64582 9.90393 2.92071
114 3 -0.794056 -2.54176 11.7242 4.86646
115 3 -0.795455 -1.84427 10.3846 8.03869
116 3 -0.768796 0.0349155 10.9395 4.82403
155 2 0.0980211 -0.239681 9.28019 2.55789
292 2 0.223958 -2.29025 12.7943 7.55138
187 2 0.193809 -4.66781 9.31132 3.53571
157 2 0.00751795 1.44239 9.20645 6.58681
211 2 0.169689 1.92202 7.63992 7.08176
214 2 0.167717 -0.00823319 12.7401 2.24131
213 2 0.188356 -1.73461 12.4035 1.67282
87 3 -0.798733 -6.52278 11.8768 2.06532
33 4 1.05024 1.38113 10.7436 5.6831
289 2 0.121134 -3.45348 7.00822 1.24145
183 2 0.184326 -3.76307 7.63011 4.32121
11 4 0.974822 -0.856892 7.68164 10.495
224 2 0.213404 0.673057 9.84654 12.1622
17 4 1.11983 -2.11344 9.16836 13.2439
32 4 1.02921 -1.727 11.3116 9.33464
34 4 1.26273 -1.32725 11.9215 14.8503
288 2 0.192129 -2.95817 8.13756 16.2744
55 1 -0.647555 0.825918 8.37623 9.68753
58 1 -0.652366 -2.91054 7.73977 14.2376
59 1 -0.668087 -3.35413 10.5219 12.4998
216 2 0.184446 -3.18962 13.0807 9.31271
255 4 1.04341 1.57859 7.73347 16.261
185 2 0.166417 1.58625 8.33508 8.73547
94 3 -0.769905 -1.31124 8.49844 12.0457
95 3 -0.807619 -5.41718 11.2276 14.589
117 3 -0.764316 -1.1939 10.1087 14.1773
118 3 -0.816189 -0.40884 12.9025 13.9758
119 3 -0.790661 -2.88012 12.4206 15.1383
120 3 -0.783847 -0.236889 11.455 9.97562
147 2 -0.0424486 -5.83944 11.9934 8.79869
215 2 0.198793 -1.28792 13.7468 8.98165
156 2 -0.0125615 -2.82286 10.7241 10.6083
184 2 0.138816 -0.376874 9.03834 9.02925
186 2 0.158899 1.24136 9.13602 10.5219
191 2 0.14533 -3.9361 8.34656 14.3767
192 2 0.248863 -4.16372 10.7872 13.319
193 2 0.166393 -3.82121 10.1825 11.5932
194 2 0.175051 -2.67987 11.4743 12.2708
67 1 -0.631913 -2.14237 13.0204 8.68107
260 2 0.14107 2.00583 8.31534 13.7865
190 2 0.155568 -2.26523 7.43293 15.118
256 1 -0.662945 1.43122 8.7927 14.6761
261 2 0.262576 0.457032 9.25099 14.3441
14 4 1.4446 -4.27075 11.8749 15.865
89 3 -0.83408 -3.58868 8.46733 8.40633
154 2 -0.0169452 2.42455 7.62839 10.5546
69 1 -0.652775 -0.388906 11.7522 16.4737
221 2 0.194195 -0.410551 10.6131 16.4951
280 3 -0.790902 -5.12096 13.1107 16.444
2 4 1.31957 13.6226 1.54375 3.86788
21 4 1.17183 6.60532 2.91364 4.48776
251 2 0.116564 5.52889 6.04373 2.86673
36 4 1.17374 9.26641 1.39537 4.53777
151 2 0.000889852 4.23961 6.5498 4.14004
40 4 1.25291 11.4892 2.20558 6.24642
43 4 0.988801 10.7711 2.64491 1.96283
235 2 0.187123 9.33497 3.3535 0.329455
62 1 -0.665145 7.31456 4.47984 3.53236
135 3 -0.799253 6.51157 4.81107 7.94163
74 1 -0.688795 9.63144 3.92428 1.28859
105 3 -0.810712 5.95442 3.46488 5.78862
122 3 -0.816639 7.65112 1.69922 4.48487
125 3 -0.834843 12.4891 1.95878 4.98012
126 3 -0.836203 9.95705 2.26062 5.71022
127 3 -0.879897 11.7294 1.15652 7.36051
133 3 -0.801739 10.0923 1.71532 3.08034
134 3 -0.777148 11.4193 1.61662 0.663615
234 2 0.175329 8.72158 4.0917 2.07091
286 2 0.14878 11.1778 5.74779 4.61638
162 2 0.0743814 11.7459 3.78751 6.84299
164 2 0.0339868 12.0176 3.72764 2.55659
200 2 0.154183 8.40687 4.14971 3.69388
246 4 1.06266 5.02782 5.55897 0.730598
237 2 0.160678 6.86332 6.84254 6.19711
236 2 0.143153 10.23 4.82002 1.08432
201 2 0.15748 7.09454 5.54316 3.8755
202 2 0.165309 6.88326 4.337 2.45487
228 2 0.169328 8.74832 1.41788 7.70935
248 1 -0.661501 6.51997 6.76329 0.437802
26 4 1.52125 5.31434 4.18476 7.04169
247 1 -0.653151 4.57199 5.33393 2.59314
283 2 0.194816 12.7405 0.308833 2.07772
101 3 -0.801791 5.42804 4.08794 0.184564
177 2 0.149211 12.5466 4.35167 1.01267
161 2 0.0930228 7.78839 3.75743 8.18648
252 2 0.165392 7.55594 6.3249 0.21129
275 2 0.206582 7.04932 1.08033 0.411234
152 2 0.00644988 5.00663 5.5305 13.6869
241 2 0.160289 7.0891 5.9682 13.5208
227 2 0.253831 10.0457 0.896086 9.1191
39 4 0.998364 8.27384 2.7708 9.47467
41 4 1.34943 7.92112 2.57013 14.6778
42 4 1.06271 10.8264 3.53286 11.7154
45 4 1.28556 8.90955 6.57379 10.5552
29 4 0.918494 4.07269 7.06359 10.6095
72 1 -0.677172 9.19067 4.05468 14.532
73 1 -0.685374 11.5741 5.1254 12.3257
242 2 0.10969 5.50468 7.20254 13.0586
266 2 0.165885 13.2595 1.71572 15.1139
138 3 -0.830341 7.77299 6.79343 9.51761
124 3 -0.830367 6.92599 2.5104 10.3117
128 3 -0.808998 8.05701 1.82844 13.3008
129 3 -0.821512 8.5536 1.52477 15.8407
130 3 -0.793185 6.60072 3.29505 15.1004
131 3 -0.784364 12.0575 2.68896 11.3405
132 3 -0.768778 9.6036 3.52815 10.5976
71 1 -0.663856 8.99349 1.1967 8.83
44 4 1.16459 6.45652 6.58143 8.51765
37 4 1.03862 9.9512 1.08204 16.3269
137 3 -0.846117 10.3892 6.67267 9.87767
163 2 0.0292475 10.2952 2.99531 13.2945
165 2 0.0765684 8.80543 4.97057 10.9666
226 2 0.203896 8.20663 0.490769 9.31929
229 2 0.157079 9.07005 4.50393 13.5368
230 2 0.152041 10.2698 3.9131 14.8396
231 2 0.164213 8.69854 4.77595 15.3145
240 2 0.191211 6.28056 7.07933 14.9401
5 4 1.19069 13.332 2.33156 10.236
76 1 -0.659497 6.46609 6.89815 13.7784
123 3 -0.796154 13.0112 0.499607 9.51407
136 3 -0.775405 4.69329 7.01486 9.17764
233 2 0.180199 10.7484 5.8998 12.5297
293 2 0.0211073 10.9515 0.534015 15.0197
195 2 0.161713 7.55693 9.14966 0.217327
38 4 1.30086 4.81471 13.6282 8.13544
46 4 0.919211 3.31935 10.5875 3.35915
68 1 -0.66045 1.52792 12.3579 6.65531
75 1 -0.671262 6.94675 7.57442 7.06364
139 3 -0.81591 2.46224 9.76414 2.29821
140 3 -0.833327 2.63809 10.726 4.75679
238 2 0.195144 7.94029 8.08826 7.22768
149 2 0.103487 7.29532 12.3286 4.624
210 2 0.253238 3.57444 7.60846 8.04321
160 2 0.125624 6.42912 13.6279 7.53751
166 2 -0.0154911 3.95779 12.022 2.68745
167 2 -0.019841 4.91343 9.97791 3.58945
209 2 0.0897059 3.4296 8.19231 6.12762
217 2 0.218612 2.57831 12.814 6.62442
219 2 0.178449 0.70659 13.0765 6.29739
159 2 0.121442 2.70434 12.2309 1.03288
141 3 -0.84712 4.37526 12.115 7.92935
287 2 0.150741 10.2097 7.8601 2.36621
263 2 0.176394 4.09183 13.6094 3.67937
158 2 0.00821445 1.74602 13.3574 4.95246
262 1 -0.682343 5.11253 13.5787 3.18243
218 2 0.185838 1.25543 11.8876 7.70229
270 1 -0.657577 6.62437 10.8847 3.90582
271 2 0.151993 5.8805 10.5797 4.70468
272 2 0.0552112 7.67702 9.58112 3.58263
273 2 0.137951 6.13011 11.1715 2.89421
282 2 0.169314 5.728 12.6065 3.39586
65 1 -0.65662 2.88292 8.09401 7.21275
239 2 0.140683 6.03721 8.33242 7.00296
291 2 0.249777 8.35891 10.8637 0.714529
13 4 1.07649 8.52513 11.3308 3.52562
168 2 0.020941 2.82196 9.74078 8.05935
253 2 0.122108 6.48996 7.09125 1.57202
188 2 0.180098 9.62865 9.51658 1.77216
18 4 1.06467 8.62645 10.193 14.8857
225 2 0.188694 1.78515 10.9291 13.0408
245 2 0.148009 6.34723 11.9879 12.1245
47 4 1.2574 3.63463 11.088 8.9851
48 4 1.20628 7.57881 8.07494 12.758
49 4 1.04874 6.03466 10.3144 10.6824
143 3 -0.853725 8.73173 7.22684 11.9431
22 4 1.49055 -0.181948 13.9303 12.6968
77 1 -0.670526 6.83728 12.0237 11.0135
121 3 -0.783047 1.01503 13.2465 11.6153
60 1 -0.662093 7.43465 10.6513 16.3624
35 4 1.28561 1.25025 11.8447 10.8092
142 3 -0.835562 2.47838 11.7885 9.74758
258 2 0.147727 2.1973 9.63408 15.1142
144 3 -0.809332 8.06614 9.12696 13.8747
145 3 -0.849335 4.67791 10.32 9.869
146 3 -0.781495 6.32462 9.10381 11.6695
278 1 -0.661393 2.64704 12.8235 16.3856
153 2 0.0518779 4.90935 8.19873 11.584
279 2 0.167597 1.96065 12.3166 15.5827
169 2 0.0073128 7.52886 10.6522 9.76964
223 2 0.142658 2.5291 9.91217 11.7056
196 2 0.124499 6.80542 11.3414 15.3655
243 2 0.243817 6.29886 12.8819 10.3835
150 2 0.0105306 8.81019 9.27063 16.3905
220 2 0.185389 0.820782 12.1006 16.4016
254 2 0.163574 5.57804 8.15741 16.2324
70 1 -0.703434 1.59254 10.4413 12.0967
244 2 0.146421 8.03633 12.1631 11.0647
294 2 0.157091 3.72357 12.3367 16.446
ITEM: TIMESTEP
200
ITEM: NUMBER OF ATOMS
295
ITEM: BOX BOUNDS xy xz yz pp pp pp
-6.3660000000000005e-01 2.2657992000000000e+01 7.5132919999999999e+00
0.0000000000000000e+00 1.4189300000000001e+01 -6.3660000000000005e-01
0.0000000000000000e+00 1.6498000000000001e+01 5.8050000000000002e-01
ITEM: ATOMS id type q x y z
6 4 1.28363 0.607719 1.74672 6.12189
170 2 0.181743 3.04645 0.398319 2.98559
63 1 -0.67997 4.8355 2.43927 3.53895
107 3 -0.792065 4.31758 5.39787 6.38921
250 2 0.191598 3.34962 5.89683 2.44282
27 4 0.967868 3.23951 6.31072 5.6099
50 1 -0.652717 3.03327 0.755412 1.91215
51 1 -0.694731 2.32712 2.34212 5.66521
171 2 0.173152 2.40303 1.76913 1.79994
204 2 0.168267 4.5129 2.91963 2.63644
205 2 0.186125 3.92144 2.55965 4.32559
276 2 0.210882 5.39591 0.483898 0.39445
249 2 0.172821 4.62092 4.32667 2.99063
277 2 0.15975 5.58714 1.69366 1.83423
274 1 -0.678458 6.03818 1.29066 0.816658
175 2 0.253035 2.4236 3.44625 5.91345
174 2 0.21775 3.11376 1.69791 6.10198
173 2 0.169886 2.2047 2.24022 4.51556
203 2 0.16203 5.11097 1.31874 3.34103
104 3 -0.846833 4.56159 3.13638 7.91814
172 2 0.171772 4.20933 0.998437 1.47201
78 3 -0.77027 0.894494 0.45596 0.072275
21 4 1.16925 6.51897 2.89403 4.38254
275 2 0.204657 7.12553 1.04848 0.776308
135 3 -0.79766 6.58185 4.89807 7.69729
234 2 0.181703 8.74088 4.17694 2.21496
251 2 0.112517 5.27877 6.33265 2.79837
101 3 -0.759443 5.40133 4.28481 0.149366
151 2 0.00105614 3.92264 6.63031 3.97149
247 1 -0.644484 4.42982 5.46001 2.51304
26 4 1.52538 5.39808 4.13442 6.98539
122 3 -0.794468 7.61524 1.66799 4.30625
235 2 0.174413 9.29519 3.47794 0.500227
202 2 0.166594 7.03019 4.53116 2.52228
201 2 0.165318 6.79089 5.40928 4.15616
62 1 -0.667498 7.30263 4.58241 3.62101
105 3 -0.80597 6.06357 3.28056 5.81198
246 4 1.07237 4.83104 5.68449 0.663188
200 2 0.165828 8.39767 4.74833 3.82758
161 2 0.0534851 8.14322 3.86955 8.05375
252 2 0.16801 7.2675 6.4844 0.0858747
130 3 -0.827498 6.57824 3.07953 15.1422
44 4 1.22543 6.48147 6.64256 8.37151
110 3 -0.862814 4.1104 5.73984 11.1441
20 4 1.38311 3.68574 2.2914 8.94764
23 4 1.32693 2.62846 2.853 13.9793
28 4 1.23172 4.31603 4.62101 12.3279
208 2 0.174046 1.26147 1.60974 12.3352
61 1 -0.657913 2.32625 3.57984 9.6084
64 1 -0.647702 2.04625 1.20192 13.1541
96 3 -0.840595 2.91672 1.01628 8.36509
100 3 -0.768876 6.10591 0.567441 11.9922
97 3 -0.797624 4.02451 2.66624 14.9135
98 3 -0.783499 1.25562 3.09314 14.9134
99 3 -0.808575 4.37731 1.8503 10.3584
108 3 -0.832954 2.9523 4.02727 12.9201
19 4 1.28901 5.11903 3.18333 15.8902
109 3 -0.823704 5.47194 3.4438 11.9791
199 2 0.190495 2.92831 4.47232 9.04032
198 2 0.175321 1.2963 3.35729 9.15808
197 2 0.221719 2.3812 3.58536 10.7486
24 4 1.47379 5.80494 2.10472 11.1676
207 2 0.199015 3.06187 0.864265 12.6443
152 2 0.024165 5.15163 5.4395 13.6071
241 2 0.166415 6.91567 5.92631 13.5933
39 4 0.975472 8.41465 2.7613 9.29857
143 3 -0.860241 8.45878 7.09799 11.9643
41 4 1.3492 7.93222 2.53604 14.6064
76 1 -0.647007 6.38614 6.92435 13.8115
45 4 1.29752 8.78348 6.54379 10.5531
240 2 0.16919 6.19775 7.23847 15.0195
231 2 0.158688 8.37672 4.94545 14.9366
29 4 1.00547 4.22684 7.04166 10.3468
229 2 0.160141 9.01232 4.39478 13.2112
242 2 0.117002 5.44204 7.18718 13.0401
165 2 0.0859098 8.9703 4.9062 10.9093
138 3 -0.835782 7.51379 6.73533 9.5641
137 3 -0.858059 10.1587 6.76295 9.92681
124 3 -0.793221 7.1617 2.34856 10.0937
1 4 1.24193 9.47701 13.2577 0.92233
4 4 1.21988 9.62678 13.327 7.81485
12 4 1.03835 12.1722 9.37342 1.63541
248 1 -0.670483 6.41419 7.06642 0.488691
16 4 1.49152 10.9812 11.3792 5.61988
183 2 0.182381 11.5779 7.65889 4.3107
87 3 -0.779464 8.73965 11.9174 2.02128
80 3 -0.792006 8.18755 13.7422 7.26078
56 1 -0.685842 10.506 9.09416 2.62206
213 2 0.181668 13.4804 12.4569 1.83707
187 2 0.215725 10.6383 9.39832 3.73642
66 1 -0.656788 14.1007 12.5369 2.8055
212 2 0.207327 13.7955 13.443 3.43923
292 2 0.220655 12.7116 12.7906 7.66471
88 3 -0.814247 11.852 10.3612 0.465236
114 3 -0.795891 12.5277 11.7734 4.84648
91 3 -0.81245 9.83305 11.4347 4.52017
92 3 -0.82152 11.1683 9.88478 6.157
93 3 -0.832983 10.5009 12.4321 6.77201
195 2 0.158758 7.4975 8.77775 0.0912547
188 2 0.190462 9.76271 9.81026 2.12676
253 2 0.137192 6.6025 7.55089 1.53722
75 1 -0.665824 6.85071 7.92543 7.04658
13 4 1.02658 8.51887 11.513 3.56315
291 2 0.221912 8.32735 10.3241 0.883108
239 2 0.163044 5.83748 8.53051 7.06518
238 2 0.172841 7.7411 8.58636 7.38725
149 2 0.0806064 7.31691 12.4979 4.42632
273 2 0.126591 6.0692 11.0161 3.08023
272 2 0.07912 7.74872 9.60919 3.61758
271 2 0.163468 6.10146 10.5253 4.89972
270 1 -0.65365 6.70478 10.7729 3.99108
287 2 0.152122 10.3327 8.05416 2.44827
237 2 0.154716 7.10621 7.40434 6.04428
150 2 0.0250908 9.17463 9.49368 16.4943
89 3 -0.814378 11.4353 8.41479 8.43123
14 4 1.45864 10.9111 12.0203 15.7132
67 1 -0.63011 13.0755 13.0021 8.73543
194 2 0.169967 12.2595 11.2112 12.075
193 2 0.16814 11.1334 9.7508 11.5341
192 2 0.257196 10.806 10.5811 13.2205
146 3 -0.796149 6.29793 9.08535 11.6567
59 1 -0.666042 11.6106 10.3335 12.3859
216 2 0.171075 12.2224 13.1782 9.62054
156 2 -0.0148743 12.1805 10.6179 10.5122
215 2 0.196764 14.0028 13.7248 8.83684
147 2 -0.0400889 9.36018 12.3143 9.10804
95 3 -0.820704 9.79989 11.2267 14.5713
119 3 -0.798316 12.3434 12.5056 15.1542
18 4 1.06691 8.70128 10.1759 14.9588
245 2 0.148563 6.43885 11.9146 12.141
244 2 0.152311 7.82013 11.9244 10.8334
48 4 1.22074 7.52875 8.06082 12.8008
254 2 0.159111 5.40662 8.33728 16.2451
49 4 1.07965 5.99292 10.2243 10.6149
153 2 0.0676595 5.0377 8.04381 11.4799
144 3 -0.80065 8.17933 9.09013 13.9424
196 2 0.141883 6.84422 11.2115 15.6733
77 1 -0.678453 6.75378 11.9623 10.9207
169 2 0.00208316 7.38212 10.6476 9.64032
60 1 -0.67184 7.47155 10.4182 16.4029
206 2 0.2191 9.06221 14.0584 13.8421
136 3 -0.822374 4.85917 7.11255 9.00489
280 3 -0.778137 10.1093 13.165 16.4541
2 4 1.37442 13.5933 1.5569 3.9711
177 2 0.136632 12.6485 4.15686 0.818974
236 2 0.140186 10.376 4.82083 1.26229
36 4 1.2111 9.22299 1.40321 4.45944
228 2 0.178944 9.03689 1.36834 7.61081
40 4 1.23922 11.4374 2.24911 6.16031
43 4 1.03866 10.8204 2.58624 1.99361
106 3 -0.777452 16.9993 5.53644 5.36834
164 2 0.022021 11.9076 3.87593 2.44489
162 2 0.0846845 11.5846 3.90456 6.71833
286 2 0.153562 11.015 5.91971 4.86347
134 3 -0.786135 11.4603 1.40222 0.864076