ITEM: TIMESTEP
0
ITEM: NUMBER OF ATOMS
295
ITEM: BOX BOUNDS xy xz yz pp pp pp
-8.3339999999999996e+00 1.5144700000000000e+01 -7.6974000000000000e+00
0.0000000000000000e+00 1.4189300000000001e+01 -6.3660000000000005e-01
0.0000000000000000e+00 1.6498000000000001e+01 5.8050000000000002e-01
ITEM: ATOMS id type q x y z
6 4 1.227 1.08804 1.00351 6.20091
7 4 1.3037 -0.293758 3.59052 1.74623
8 4 1.26404 -0.213143 3.67094 7.61529
10 4 1.26423 -1.97484 5.96613 5.66376
25 4 1.48957 0.300732 6.03091 3.65041
27 4 1.07121 2.46395 6.62306 5.64782
50 1 -0.675403 2.70807 1.20517 2.25424
51 1 -0.688971 2.65538 1.57694 5.40843
96 3 -0.838988 3.63584 0.443794 8.08731
171 2 0.152486 3.59963 0.740339 2.86322
79 3 -0.800119 0.131564 0.410933 5.045
250 2 0.211275 3.57636 3.23411 0.461151
178 2 0.151768 -1.72482 5.17756 0.658047
82 3 -0.778492 0.377871 2.94494 0.466185
84 3 -0.821114 0.440943 2.43146 6.87657
85 3 -0.795458 -1.53601 4.65761 6.43919
104 3 -0.78137 3.74324 3.45372 7.75911
102 3 -0.765145 0.6381 4.83772 2.58503
103 3 -0.817929 -1.26565 6.0555 3.97434
251 2 0.226091 2.84228 4.66901 1.31874
106 3 -0.796504 1.19086 5.83804 5.13154
107 3 -0.824787 3.59975 5.74655 6.31546
170 2 0.197745 2.97362 2.22348 1.72811
26 4 1.51624 4.55861 4.82761 7.19538
172 2 0.174207 1.75974 1.24989 2.86766
173 2 0.17769 2.6854 1.53055 4.23394
174 2 0.212261 3.53333 1.00397 5.88518
175 2 0.233713 2.6708 2.65847 5.70472
81 3 -0.809136 -0.761542 2.47549 2.8293
276 2 0.180274 5.69586 1.33247 0.845163
179 2 0.178109 0.923569 5.64398 7.68585
180 2 0.264215 2.17321 4.11377 8.07073
52 1 -0.657897 -2.0478 4.27837 1.33227
78 3 -0.813341 1.3005 0.185616 0.15477
247 1 -0.6727 3.74225 4.08788 1.06953
249 2 0.1476 4.33138 3.83462 2.07346
176 2 0.169898 -2.64155 4.64141 2.23535
187 2 0.260869 -2.33158 6.88333 2.84353
3 4 1.24511 0.253352 2.15062 15.8752
206 2 0.155445 1.86172 0.60707 12.2983
285 2 0.169871 -0.658224 1.53867 12.915
20 4 1.27348 3.76415 1.94007 8.8814
23 4 1.26143 2.86055 2.50903 13.8629
28 4 1.28525 4.14172 4.8377 12.4694
257 3 -0.782522 3.05249 7.0903 16.0365
61 1 -0.665363 2.26246 2.04225 9.98009
64 1 -0.674135 2.789 0.801135 12.9165
83 3 -0.758639 -0.977 3.19482 8.93624
208 2 0.189734 3.78534 0.875902 12.2654
97 3 -0.788788 4.1629 2.55937 14.7641
98 3 -0.759522 1.50155 2.60292 14.8284
99 3 -0.821697 4.92962 1.93772 9.96628
108 3 -0.761244 2.85176 3.8971 12.6619
259 2 0.132939 0.302623 6.97022 14.8402
110 3 -0.835653 3.76414 6.23221 11.8365
148 2 0.0401412 -0.62309 6.07602 11.2911
269 2 0.162146 0.246084 2.6761 11.5347
154 2 -0.0120916 1.86135 6.58476 10.0635
181 2 0.160064 0.956045 4.73796 9.48267
185 2 0.176103 0.460177 6.3556 9.28081
267 1 -0.663926 -0.415719 1.69389 11.7489
197 2 0.190805 2.422 1.63013 11.0399
198 2 0.157904 1.55814 1.26149 9.39951
199 2 0.19444 1.80255 3.06684 9.98646
86 3 -0.786844 -2.96661 6.47276 9.63523
268 2 0.137438 0.171373 0.753241 11.4043
265 2 0.165674 -1.55525 2.34384 13.9801
53 1 -0.67899 1.14808 4.67327 8.35641
55 1 -0.662552 -0.0514833 7.15235 9.90517
1 4 1.26856 -5.33069 13.2895 1.17521
4 4 1.19387 -4.88049 12.7524 7.82905
12 4 1.11598 -2.14586 9.08796 1.42558
15 4 1.44195 -2.65596 8.71366 6.90962
16 4 1.50402 -3.9811 10.8878 5.25737
30 4 1.26316 1.63823 8.56666 2.30936
31 4 1.26186 -1.39798 11.4193 3.63884
111 3 -0.850925 0.881162 7.39036 2.9455
56 1 -0.674789 -3.01866 7.47626 2.05887
213 2 0.167451 -0.867803 12.0733 1.45752
65 1 -0.682274 1.98715 8.00252 6.97928
66 1 -0.673546 -1.02679 12.8172 2.40398
157 2 0.0198977 0.731205 9.45156 6.55623
210 2 0.187256 2.3763 8.27065 8.00543
88 3 -0.794441 -3.19634 10.1847 0.671639
90 3 -0.836341 -1.72507 7.42462 6.49904
91 3 -0.798063 -5.38632 10.5856 4.48237
92 3 -0.807585 -3.4252 9.42259 5.62828
93 3 -0.806291 -4.29624 11.816 6.58826
212 2 0.194688 -1.97112 13.4391 2.36385
112 3 -0.822256 2.03948 8.19925 0.802831
113 3 -0.785272 -1.2255 9.81328 2.50299
114 3 -0.814105 -2.82277 11.653 4.20063
149 2 0.115846 -7.2339 12.6869 4.32518
116 3 -0.80976 -0.18453 11.2565 4.68872
155 2 0.0828329 0.372839 9.78486 2.30203
209 2 0.132708 2.3582 8.83326 6.22144
188 2 0.176212 -3.85724 8.12116 2.61757
89 3 -0.782874 -3.88425 8.31037 8.12368
211 2 0.180025 0.871457 7.79567 7.03565
115 3 -0.812694 -1.90787 9.92023 7.77646
33 4 1.06347 1.01954 11.0099 5.72949
87 3 -0.796711 -6.04041 11.7889 2.11799
215 2 0.187531 -1.6601 12.6664 7.47361
289 2 0.182834 -0.516823 7.4591 0.369346
280 3 -0.773948 -3.87943 12.8791 0.520431
80 3 -0.797851 -6.3966 13.1778 7.45361
214 2 0.148448 -0.119977 13.3381 2.82866
151 2 0.0225718 3.21783 7.45195 4.39606
287 2 0.163008 -3.41439 6.89639 1.24317
221 2 0.163243 0.278351 10.1557 14.8126
14 4 1.44817 -3.97356 12.0785 16.1446
17 4 1.12184 -2.90409 9.33781 12.7381
32 4 1.0528 -1.63957 10.8207 9.09349
34 4 1.33954 -1.4482 12.0398 14.1519
216 2 0.21608 -0.647889 13.2016 9.06459
261 2 0.198568 -0.370589 8.83334 14.2848
58 1 -0.672325 -3.90691 8.39461 14.1243
59 1 -0.653434 -4.24924 10.3288 11.6911
69 1 -0.66631 0.0933511 11.3325 15.0365
224 2 0.173855 0.952023 9.38275 11.9415
186 2 0.128102 0.718925 7.74027 10.5202
94 3 -0.812179 -2.21956 8.26009 11.7495
95 3 -0.809758 -5.17977 11.6921 15.125
117 3 -0.766766 -1.98637 10.538 13.332
118 3 -0.85065 -1.02372 13.1427 13.1394
119 3 -0.801711 -2.48234 12.345 15.3697
120 3 -0.770738 -0.223926 10.6039 9.83812
147 2 -0.043647 -4.98499 11.8059 9.23742
256 1 -0.667652 0.560433 8.21251 14.4539
156 2 0.00169041 -3.01218 10.5543 10.1894
184 2 0.147568 -0.710435 8.10004 8.9579
189 2 0.185726 -0.959935 9.78889 16.1522
191 2 0.17746 -4.07637 9.16031 14.9241
192 2 0.208827 -5.00326 10.2768 12.5621
193 2 0.201024 -4.55164 9.66027 10.7676
194 2 0.160128 -4.12064 11.3382 11.3341
225 2 0.173814 0.94492 10.7716 13.2622
288 2 0.160073 -2.47286 8.73912 15.5795
260 2 0.154507 1.23586 8.20812 13.5783
255 4 1.02654 1.8592 8.18454 15.931
292 2 0.171393 -2.5241 12.8975 9.18177
70 1 -0.667353 1.41399 10.3517 12.2086
207 2 0.229118 -4.74214 13.7437 13.8265
67 1 -0.656226 -1.51423 12.5967 8.65542
222 2 0.160986 -0.267222 11.5383 16.1209
57 1 -0.661764 -1.66297 8.96672 16.4804
153 2 -0.029765 2.38639 8.63828 11.4412
190 2 0.149358 -3.13486 7.59328 14.4173
11 4 1.0392 -1.82788 7.21664 10.5745
29 4 0.948266 3.18636 7.25963 10.7948
2 4 1.20602 13.8961 1.25727 3.85782
21 4 1.00445 6.92736 4.66375 5.13868
286 2 0.194605 10.7004 5.06311 6.0553
36 4 1.17288 9.2413 2.61181 5.26022
203 2 0.175367 7.76536 3.43888 3.10404
40 4 1.31933 12.009 1.81059 6.08624
43 4 1.0125 10.3629 2.55288 2.2132
226 2 0.152258 7.94128 1.06909 7.85416
62 1 -0.663081 7.00275 6.58413 5.14222
177 2 0.138266 12.5486 3.49974 0.703078
74 1 -0.658916 9.47904 3.98541 1.24709
105 3 -0.758746 5.70329 4.1858 6.05978
122 3 -0.786315 8.68023 4.01394 5.8596
125 3 -0.846799 12.5057 1.47505 4.67572
126 3 -0.839588 10.4164 2.04848 6.19505
127 3 -0.827678 12.5356 0.732061 7.10445
133 3 -0.800473 9.87012 2.7366 3.74621
134 3 -0.800488 10.1166 1.17053 1.47533
158 2 -0.0385617 7.98785 1.56822 5.20598
164 2 0.0359232 12.0534 2.85225 2.29741
162 2 0.10719 12.6923 3.39601 6.35951
236 2 0.129857 10.5168 4.38584 0.849205
234 2 0.168397 9.04796 4.63231 2.11861
54 1 -0.683132 11.3006 5.76891 5.3764
63 1 -0.66886 6.77992 3.99039 3.32875
254 2 0.161372 5.27535 6.6277 2.20384
183 2 0.166884 10.892 6.94596 5.44194
275 2 0.20128 7.64515 1.47454 0.487199
248 1 -0.661085 5.89307 6.41856 1.30938
235 2 0.174132 8.71075 3.60213 0.456537
281 2 -0.0125933 10.7472 5.78713 7.24374
182 2 0.178424 11.3955 5.41535 4.30171
161 2 0.114216 8.67917 3.85213 7.3929
253 2 0.154293 7.02172 6.0741 1.48388
204 2 0.157433 6.4829 4.92891 2.51142
274 1 -0.664687 6.62087 2.09086 0.672176
228 2 0.228315 9.75535 1.01425 8.09049
277 2 0.174782 6.71935 2.89422 1.56664
205 2 0.157488 5.93509 3.23066 3.51198
246 4 1.10262 4.78731 5.42789 0.134687
200 2 0.165095 7.80888 6.6646 6.02167
201 2 0.166559 5.95915 6.93139 5.44715
283 2 0.164944 13.6239 0.34952 1.62969
100 3 -0.886036 6.81147 1.59682 11.5623
137 3 -0.821882 9.56254 6.68329 9.44339
101 3 -0.761969 5.11593 5.16085 15.6346
39 4 1.11819 8.56867 3.01786 8.98245
41 4 1.22219 8.38515 1.76974 14.5863
42 4 1.05324 10.7045 3.10742 11.2759
232 2 0.152763 11.5502 4.50543 13.0406
266 2 0.146124 13.0478 1.71587 15.6962
72 1 -0.657821 9.69644 3.00721 15.0088
73 1 -0.696968 10.5742 4.64732 12.4401
295 2 0.18664 10.7644 5.375 11.5227
44 4 1.29113 5.76174 6.95052 9.15594
71 1 -0.683281 8.77583 1.16994 8.60592
124 3 -0.821264 7.13192 3.23976 9.5247
128 3 -0.795091 8.97792 1.07308 13.266
227 2 0.262515 8.60808 0.567527 9.54627
130 3 -0.764733 6.80692 2.74819 14.7233
131 3 -0.799663 12.189 2.71092 10.9151
132 3 -0.821653 9.74147 3.26255 9.96744
152 2 0.08865 4.84784 5.14812 13.9757
138 3 -0.79921 6.99131 6.64223 10.1251
284 2 0.149398 14.2305 0.674417 14.539
123 3 -0.832115 13.3064 0.705292 9.57738
163 2 0.0850387 10.0971 2.02306 12.4206
165 2 0.00262081 9.02722 5.6936 11.7794
109 3 -0.784608 5.181 4.06284 11.6656
229 2 0.161441 9.92517 3.60507 14.0231
230 2 0.16451 10.5907 2.34732 15.2744
231 2 0.165846 9.35474 3.68077 15.9966
264 1 -0.665104 13.8822 1.71217 14.8684
233 2 0.146073 9.7382 5.00029 13.102
5 4 1.2737 13.5426 2.07894 10.3052
19 4 1.22484 5.53287 3.21823 15.5164
45 4 1.22635 8.53323 6.91416 10.6795
24 4 1.51878 6.10659 2.68876 10.7066
9 4 1.2288 10.9185 6.81198 8.64356
135 3 -0.836122 5.27746 5.71022 8.26954
37 4 0.996098 1.9266 13.3524 0.839082
279 2 0.174028 4.41814 12.7101 1.30315
46 4 0.88236 3.36314 10.579 3.71761
68 1 -0.658263 1.06478 12.518 6.77425
75 1 -0.657501 6.51142 8.18326 7.91895
139 3 -0.832568 2.90133 9.15783 3.10879
140 3 -0.798394 2.3872 10.9052 4.90135
263 2 0.171206 4.59814 13.4199 2.92824
239 2 0.170216 5.85282 9.07967 7.88309
150 2 0.0376854 9.44936 9.11936 0.230244
160 2 0.0898366 7.12017 13.1872 7.82843
166 2 -0.0372541 3.43732 11.8358 2.5669
167 2 0.00172579 5.01529 10.3674 4.26164
278 1 -0.670385 3.5402 12.3553 0.644107
217 2 0.224489 1.93605 13.1797 6.90768
218 2 0.191973 0.919771 11.9479 7.8015
38 4 1.28903 5.5099 13.4184 8.2481
291 2 0.267346 8.36863 10.8411 0.88137
159 2 -0.031072 0.856839 12.4628 1.79573
252 2 0.160541 5.91901 7.36348 0.660542
13 4 1.06065 8.68815 11.2901 3.55244
262 1 -0.671736 5.71396 13.4547 2.695
237 2 0.176774 6.67436 7.61329 6.82117
270 1 -0.683965 6.89636 10.6211 3.67644
271 2 0.161003 6.61844 10.7943 4.73965
272 2 0.149262 7.3467 9.47351 3.50476
273 2 0.13794 6.09758 10.8082 2.88917
282 2 0.165714 6.29148 12.4975 2.93476
293 2 0.131314 3.20946 11.3193 0.905754
195 2 0.151237 7.18912 9.50842 0.258343
202 2 0.162273 7.39451 7.05843 4.17753
219 2 0.163645 0.12748 13.0839 6.46505
220 2 0.194569 0.909801 12.0438 14.634
238 2 0.196244 7.4993 8.40957 8.46729
294 2 0.183952 3.09272 13.1581 16.0483
47 4 1.26835 3.99698 11.298 9.65603
48 4 1.21582 7.54138 9.2348 12.5441
49 4 0.984664 5.65824 11.9378 12.2268
245 2 0.161423 5.25598 11.0135 14.4053
76 1 -0.66706 5.87925 8.4357 12.9076
77 1 -0.674207 4.70038 11.8125 13.8455
121 3 -0.808559 0.702324 13.0361 10.982
136 3 -0.808904 4.21028 7.94146 9.86582
258 2 0.00142397 2.14238 9.39594 14.7757
142 3 -0.826946 2.42185 11.251 9.60033
143 3 -0.798497 8.58775 8.29507 11.4374
144 3 -0.782047 8.30136 9.51755 14.0302
145 3 -0.831172 4.66419 11.6143 11.0606
146 3 -0.747814 6.96838 10.707 12.1697
35 4 1.23788 1.11665 11.3849 10.6239
241 2 0.19088 5.9095 7.44829 12.4377
168 2 0.096209 4.176 9.58926 9.48993
169 2 0.00175242 6.27534 13.5407 12.1898
244 2 0.132884 4.96602 12.8839 14.235
240 2 0.167994 5.70979 8.35318 14.0463
223 2 0.141307 2.64172 10.4848 12.1297
196 2 0.157716 6.79247 11.7253 15.7492
18 4 1.02491 8.70219 10.5905 15.2025
242 2 0.186998 5.08707 9.06982 12.3984
243 2 0.177248 3.62601 11.5828 13.7007
141 3 -0.82995 4.77252 12.0186 8.43809
60 1 -0.687929 7.30094 10.925 16.4556
22 4 1.47348 -0.108708 14.0247 12.1537
129 3 -0.76388 0.696919 14.1451 15.8837
290 2 0.195942 10.3139 8.07144 13.5027
ITEM: TIMESTEP
100
ITEM: NUMBER OF ATOMS
295
ITEM: BOX BOUNDS xy xz yz pp pp pp
-8.3339999999999996e+00 1.5144700000000000e+01 -7.6974000000000000e+00
0.0000000000000000e+00 1.4217678600000001e+01 -6.3660000000000005e-01
0.0000000000000000e+00 1.6498000000000001e+01 5.8166100000000043e-01
ITEM: ATOMS id type q x y z
6 4 1.22609 1.09306 1.03777 6.28233
7 4 1.27138 -0.237214 3.55127 1.93134
8 4 1.28945 -0.199622 3.51987 7.82443
10 4 1.23179 -1.86241 6.04728 5.74395
25 4 1.4698 0.357944 6.07508 3.6888
27 4 1.04829 2.61474 6.77038 5.61693
50 1 -0.663101 2.93686 1.0502 2.30082
51 1 -0.683699 2.69675 1.51426 5.45022
96 3 -0.847189 3.53052 0.509335 8.11832
171 2 0.154429 3.84927 0.578916 2.94782
79 3 -0.790667 0.175609 0.577969 5.01063
250 2 0.206911 3.95866 3.06536 0.493191
178 2 0.16018 -1.32488 5.2382 0.585809
82 3 -0.747225 0.538546 2.76596 0.41453
84 3 -0.82863 0.485727 2.35174 7.06407
85 3 -0.765915 -1.3915 4.58093 6.62744
104 3 -0.756702 3.89843 3.36615 7.81638
102 3 -0.755638 0.73259 4.76091 2.59226
103 3 -0.812544 -1.24691 6.1499 3.99472
251 2 0.215309 3.06183 4.37274 1.4061
106 3 -0.79021 1.31837 5.9997 4.98913
107 3 -0.817331 3.59114 5.77772 6.41013
170 2 0.190508 3.30426 2.01051 1.73836
26 4 1.47322 4.63351 4.75837 7.15262
172 2 0.195814 1.94722 1.31388 2.83109
173 2 0.186512 2.73119 1.37394 4.29203
174 2 0.221732 3.48038 0.946104 5.99797
175 2 0.225692 2.75777 2.61581 5.74102
81 3 -0.83877 -0.593346 2.41159 2.90355
276 2 0.216342 5.24323 1.4133 0.799046
179 2 0.220571 0.88499 5.52422 7.46656
180 2 0.251639 2.21054 4.4043 8.10103
52 1 -0.678184 -1.77545 4.4221 1.24607
78 3 -0.769965 1.29826 0.199679 0.22492
247 1 -0.682078 4.07111 3.917 1.1588
249 2 0.178848 4.70621 3.7643 2.03586
176 2 0.175063 -2.22054 4.84962 2.22394
274 1 -0.679078 6.27532 1.91943 0.710564
53 1 -0.688621 1.1538 4.73509 8.1882
205 2 0.173625 5.43629 3.42403 3.73857
3 4 1.30824 0.244701 2.15256 15.8541
206 2 0.151873 1.99218 0.510373 12.6901
285 2 0.177418 -0.749807 1.76809 12.823
20 4 1.28459 3.80075 1.90701 8.95353
23 4 1.3226 2.85967 2.63669 13.9865
28 4 1.30153 4.17515 4.787 12.3935
257 3 -0.78981 3.02735 6.92314 16.0731
61 1 -0.66043 2.25683 2.16368 10.039
64 1 -0.656024 3.06526 1.01489 12.9796
83 3 -0.799666 -0.877717 3.0886 9.19806
208 2 0.189611 3.71399 1.23112 12.0784
97 3 -0.800078 4.11983 2.58004 14.9788
98 3 -0.79148 1.41729 2.46587 14.7811
99 3 -0.835973 5.02568 1.9458 9.9989
108 3 -0.812087 2.95159 3.82108 12.798
259 2 0.0743499 0.0932559 7.02329 15.5522
110 3 -0.855532 3.63793 6.11096 11.8113
148 2 0.0216213 -0.746887 5.91571 11.1041
269 2 0.198436 0.273255 2.71085 11.4599
154 2 -0.0143825 1.87607 6.86199 9.90071
181 2 0.155989 0.807049 4.98885 9.25411
185 2 0.171367 0.523286 6.75028 8.99915
267 1 -0.660306 -0.346747 1.78716 11.7165
197 2 0.184806 2.50293 1.79988 11.187
198 2 0.195127 1.52626 1.44057 9.46498
199 2 0.200074 1.95931 3.22412 9.91782
86 3 -0.832451 -3.14701 6.48182 9.70789
268 2 0.149235 0.215578 0.823922 11.506
11 4 1.0313 -1.94121 7.07349 10.6239
1 4 1.28268 -5.1831 13.2444 1.14641
4 4 1.17686 -4.93169 12.7519 7.82711
12 4 1.16175 -2.24598 9.19574 1.40249
15 4 1.4306 -2.69546 8.85201 7.05188
16 4 1.48322 -4.01314 10.8069 5.23248
30 4 1.24905 1.50731 8.67181 2.22893
31 4 1.27659 -1.49396 11.397 3.51994
111 3 -0.833789 0.86913 7.42772 2.91486
56 1 -0.67774 -3.15994 7.63587 2.17288
213 2 0.182228 -0.868097 12.5714 1.35218
65 1 -0.669568 1.83445 7.86185 6.99583
66 1 -0.68117 -0.933326 12.9075 2.44387
157 2 0.0189745 0.817839 9.42323 6.2488
210 2 0.170599 2.32774 7.35801 7.9007
88 3 -0.825252 -3.33237 10.1837 0.704009
90 3 -0.806186 -1.81461 7.41156 6.56623
91 3 -0.803003 -5.50098 10.6064 4.51162
92 3 -0.803462 -3.41708 9.39391 5.67215
93 3 -0.815433 -4.36922 11.8828 6.56465
212 2 0.177463 -1.82042 13.5517 2.68449
112 3 -0.810811 1.86509 8.46341 0.66509
113 3 -0.81178 -1.30528 9.87317 2.40989
114 3 -0.824269 -2.88926 11.5423 4.21008
13 4 1.06907 -6.47873 11.4075 3.61395
116 3 -0.795655 -0.282761 11.3541 4.56145
155 2 0.0628759 0.412025 9.91648 2.28256
287 2 0.147205 -3.56967 7.01041 1.33456
188 2 0.19702 -3.95524 8.1396 2.79453
89 3 -0.812485 -3.97278 8.47452 8.01544
211 2 0.19202 0.754146 8.1106 7.24495
115 3 -0.832835 -1.63437 9.95698 7.84145
33 4 1.01631 1.03167 11.0393 5.6223
87 3 -0.783923 -6.02285 11.9238 2.16664
215 2 0.215646 -2.36783 12.8329 7.63881
289 2 0.173667 -0.526 7.87824 0.384064
280 3 -0.788434 -3.76399 12.8503 0.472722
80 3 -0.786325 -6.48888 13.2259 7.67659
187 2 0.250188 -2.44254 7.02957 2.87804
149 2 0.0998058 -7.11468 12.8327 4.37172
216 2 0.176524 -0.560584 12.8295 8.13067
209 2 0.124154 2.43334 8.84414 6.6873
214 2 0.158205 0.00991328 13.1998 3.03496
221 2 0.159426 0.330866 10.007 14.7516
14 4 1.44829 -3.9429 11.9995 16.1099
17 4 1.08613 -2.92157 9.35983 12.6559
32 4 1.06249 -1.61731 10.8879 9.09149
34 4 1.30497 -1.44067 11.8581 14.1156
258 2 0.0462075 2.0573 9.10608 14.5169
261 2 0.20463 -0.2834 8.72716 14.1358
58 1 -0.661019 -3.8631 8.41942 14.1207
59 1 -0.669154 -4.18822 10.4937 11.6699
69 1 -0.656976 0.217572 11.3457 14.9571
224 2 0.181828 0.862166 9.15202 11.8728
186 2 0.130094 0.606156 7.36276 10.7223
94 3 -0.811022 -2.16539 8.18519 11.6687
95 3 -0.791503 -5.27692 11.5293 15.0336
117 3 -0.781033 -1.90607 10.3771 13.4324
118 3 -0.826786 -1.14258 13.0023 13.0128
119 3 -0.821735 -2.6104 12.196 15.2989
120 3 -0.792167 -0.25958 10.6951 9.95186
147 2 -0.0413096 -4.7816 11.843 9.19287
256 1 -0.645481 0.599712 8.07715 14.4294
156 2 -0.00547923 -3.12714 10.5597 10.014
184 2 0.17646 -0.654238 8.2799 9.37533
189 2 0.218702 -1.02366 9.99275 15.9384
191 2 0.1732 -4.1336 9.23359 14.8733
192 2 0.187132 -5.05911 10.2038 12.4367
193 2 0.176813 -4.50991 10.1525 10.6706
194 2 0.166408 -3.87257 11.6355 11.8045
225 2 0.18307 0.746374 10.6325 13.1362
288 2 0.172412 -2.49927 8.90489 15.5246
260 2 0.163316 0.856427 7.33917 13.6098
255 4 0.984861 1.75156 8.03425 15.9822
292 2 0.205388 -1.9043 13.3006 9.43903
70 1 -0.646321 1.28267 10.165 12.1424
207 2 0.228034 -4.13816 13.9154 13.7155
67 1 -0.680895 -1.65129 12.6766 8.51213
222 2 0.17013 0.291894 11.6191 16.0655
57 1 -0.667834 -1.70696 9.28134 16.4076
153 2 -0.027442 2.38961 8.58764 11.6826
190 2 0.1623 -3.30949 7.53272 14.4499
29 4 0.934602 3.20376 7.31438 10.907
55 1 -0.660095 -0.0525102 7.20612 9.86221
290 2 0.183984 -4.7549 8.15986 13.3098
2 4 1.2306 13.8711 1.25871 3.77891
21 4 1.01895 6.92819 4.66652 5.00522
286 2 0.181719 11.1478 4.73179 5.96717
36 4 1.19462 9.22867 2.5858 5.1998
203 2 0.165626 7.27256 3.28119 3.01652
40 4 1.29446 12.033 1.93562 6.06431
43 4 1.01774 10.3231 2.70439 2.22997
226 2 0.16668 7.58724 1.02673 7.97809
62 1 -0.667348 6.92044 6.60529 4.83021
177 2 0.14082 12.8015 3.63412 0.623449
74 1 -0.664848 9.31188 3.98368 1.20738
105 3 -0.782667 5.77911 4.24628 5.97552
122 3 -0.777442 8.63654 3.94288 5.76999
125 3 -0.862747 12.5334 1.65662 4.63561
126 3 -0.838211 10.4513 2.07743 6.11528
127 3 -0.822875 12.5263 0.930612 7.2343
133 3 -0.81284 9.73683 2.76896 3.67165
134 3 -0.788143 10.067 1.27372 1.47325
158 2 -0.0334855 8.12632 1.34852 5.26948
164 2 -0.00595365 11.9249 3.35473 2.13121
162 2 0.10346 12.6996 3.46575 6.53778
236 2 0.125526 10.3189 4.50415 0.773171
234 2 0.176379 8.70919 4.53536 1.92373
54 1 -0.687038 11.3951 5.74977 5.61515
63 1 -0.686357 6.41113 3.94242 3.28233
254 2 0.149517 5.44373 6.27604 2.21745
183 2 0.189444 10.7693 6.51571 6.01836
275 2 0.204897 7.13268 1.21353 0.759144
248 1 -0.662373 6.01337 6.35163 1.24077
235 2 0.17761 8.63218 3.4244 0.494195
281 2 0.0131481 11.0375 5.67187 7.55255
182 2 0.172103 11.3754 5.77716 4.45636
161 2 0.104235 8.68086 3.86222 7.37283
253 2 0.169571 7.0406 5.92979 1.30032
204 2 0.156905 6.27366 4.79366 2.48131
202 2 0.147175 6.97188 6.5715 3.64404
228 2 0.209054 9.54225 1.12942 8.14191
277 2 0.16469 6.35658 2.80554 1.5698
283 2 0.172866 13.5524 0.221718 1.61433
246 4 1.08319 4.85734 5.36436 0.036059
201 2 0.152256 5.87002 6.93799 5.15436
100 3 -0.851586 6.97986 1.69004 11.5417
137 3 -0.820569 9.30697 6.99412 9.18646
101 3 -0.750886 5.24714 5.10698 15.5132
39 4 1.05746 8.50717 3.07476 8.92203
41 4 1.24965 8.33089 1.8032 14.7142
42 4 1.03649 10.7231 3.17602 11.299
232 2 0.12 11.4469 4.20272 13.1954
266 2 0.151155 13.1447 1.17402 15.5149
72 1 -0.662583 9.80322 2.97246 15.1954
73 1 -0.678219 10.5142 4.68846 12.5063
295 2 0.169265 10.9344 5.50902 11.7383
44 4 1.27094 5.73556 6.90469 9.15224
71 1 -0.678767 8.49652 1.21868 8.65641
124 3 -0.791483 7.15627 3.32867 9.59237
128 3 -0.771769 8.94476 1.03356 13.2106
227 2 0.262387 8.52378 0.656053 9.58334
130 3 -0.784492 6.98273 2.81146 14.6318
131 3 -0.812092 12.1655 2.57317 11.0239
132 3 -0.779769 9.91002 3.43557 9.90339
152 2 0.103388 4.91271 5.18181 13.8819
138 3 -0.797475 6.88123 6.64486 10.2256
284 2 0.153113 14.1876 0.783569 14.0765
123 3 -0.846715 13.3947 0.53461 9.61251
163 2 0.105483 9.91376 1.94576 12.2301
165 2 0.0232566 9.06916 5.48948 11.4486
109 3 -0.842714 5.35233 3.94796 11.741
229 2 0.15997 10.1092 3.61611 14.2311
230 2 0.165636 10.5874 2.25894 15.5134
231 2 0.188486 9.34117 3.54952 16.0585
264 1 -0.666788 13.9098 1.58432 14.8028
233 2 0.1594 9.74217 5.16156 13.1988
5 4 1.31652 13.4816 1.95388 10.2949
19 4 1.20574 5.61151 3.15664 15.5049
45 4 1.23315 8.49487 6.86671 10.5498
24 4 1.57624 6.11584 2.78034 10.8145
9 4 1.21334 10.8558 6.98103 8.66636
135 3 -0.806265 5.27985 5.5549 8.38081
129 3 -0.805908 8.20331 0.728796 15.9134
265 2 0.154171 13.4709 2.46871 14.2773
241 2 0.220214 6.21507 7.18943 12.2491
37 4 0.975478 1.953 13.4508 0.808994
279 2 0.15526 4.36053 12.7429 1.23946
46 4 0.87619 3.27928 10.5005 3.58737
68 1 -0.648194 1.33675 12.475 6.77651
75 1 -0.663125 6.29967 8.00255 7.69616
139 3 -0.837321 2.86628 9.15785 2.94767
140 3 -0.812071 2.45415 10.9103 4.93626
151 2 0.0096285 3.46188 7.69293 4.45644
239 2 0.150252 5.56406 8.86256 7.68492
150 2 0.0421642 9.57569 8.92206 0.218912
160 2 0.0892691 7.03321 13.0152 7.70232
166 2 -0.036871 3.21244 11.8211 2.48964
167 2 -0.0114624 4.98571 10.5319 3.85666
278 1 -0.674297 3.45832 12.2765 0.563153
217 2 0.23024 2.40738 12.8622 6.59405
218 2 0.193006 1.11404 11.9721 7.82361
195 2 0.164703 7.4954 9.4373 0.435246
291 2 0.274936 8.44573 10.935 0.913366
159 2 -0.0193467 0.859225 12.5044 1.78467
252 2 0.166933 5.91619 7.3808 0.749358
219 2 0.158776 0.533629 13.2168 6.5033
262 1 -0.68662 5.76872 13.4255 2.6662
237 2 0.178845 6.46351 7.49398 6.59563
270 1 -0.682607 6.94969 10.5222 3.51213
271 2 0.136769 6.50408 10.9235 4.44145
272 2 0.180094 7.40861 9.4419 3.69765
273 2 0.155146 6.29968 10.6128 2.6237
282 2 0.160995 6.20913 12.3662 2.84349
293 2 0.153182 3.22234 11.1674 0.748541
263 2 0.144069 4.67502 13.3367 2.97164
60 1 -0.677149 8.13226 10.2252 0.0485007
200 2 0.18628 7.7426 7.10763 5.33436
238 2 0.193395 7.33524 8.26024 8.18594
220 2 0.180445 0.88493 12.0213 14.3432
22 4 1.50989 -0.0668953 13.948 12.1454
294 2 0.166748 2.93913 13.1547 15.9408
47 4 1.24769 3.96786 11.2219 9.62831
48 4 1.17718 7.5636 9.25138 12.4797
49 4 1.01656 5.68428 11.9763 12.1398
245 2 0.160308 4.69853 10.8312 14.1026
76 1 -0.66163 6.06057 8.18776 12.7898
77 1 -0.651421 4.74657 11.928 13.7647
121 3 -0.831923 0.623573 13.0276 11.1841
136 3 -0.806474 4.27987 7.9702 9.97633
38 4 1.27873 5.469 13.399 8.2652
142 3 -0.830259 2.36923 11.3564 9.73951
143 3 -0.785646 8.54516 8.13742 11.5088
144 3 -0.783627 8.3513 9.37042 14.067
145 3 -0.797908 4.56464 11.6405 11.1075
146 3 -0.770026 6.90866 10.8003 12.0957
35 4 1.29706 1.06838 11.3743 10.6266
141 3 -0.840249 4.59316 12.0551 8.46971
168 2 0.0798773 4.28936 9.53847 9.52276
169 2 0.00747694 6.42447 13.5525 11.948
244 2 0.128929 5.52492 12.6107 14.3353
240 2 0.178977 5.96295 8.08958 13.8805
223 2 0.14486 2.48433 10.3176 12.0938
196 2 0.150443 6.86528 11.4214 15.6791
18 4 1.06878 8.81267 10.3611 15.1965
242 2 0.174774 5.22194 8.85718 12.3464
243 2 0.172774 3.69951 12.4642 13.5831
ITEM: TIMESTEP
200
ITEM: NUMBER OF ATOMS
295
ITEM: BOX BOUNDS xy xz yz pp pp pp
-6.3660000000000005e-01 2.2591999999999999e+01 7.4473000000000003e+00
0.0000000000000000e+00 1.4246057200000001e+01 -6.3660000000000005e-01
0.0000000000000000e+00 1.6498000000000001e+01 5.8282200000000017e-01
ITEM: ATOMS id type q x y z
6 4 1.20625 1.08255 1.19237 6.27244
205 2 0.174387 5.54464 3.13083 3.54109
274 1 -0.672651 6.31633 1.92617 0.669782
249 2 0.14692 4.92619 3.79944 1.93692
247 1 -0.652076 3.97659 3.91063 1.09872
78 3 -0.773262 1.48436 0.300785 0.0750397
50 1 -0.666647 2.93743 1.05945 2.32362
51 1 -0.666993 2.70109 1.71603 5.53828
63 1 -0.696632 6.41677 3.76692 3.35633
171 2 0.157686 3.68604 0.554337 3.0469
79 3 -0.785327 0.240275 0.603566 5.01342
250 2 0.191296 3.91076 2.96275 0.452253
246 4 1.12468 4.82871 5.32765 0.0400544
276 2 0.188472 5.25354 1.36883 0.662397
175 2 0.224463 2.73881 2.87702 5.626
174 2 0.20426 3.37907 1.1165 6.23791
104 3 -0.816171 3.86549 3.2632 7.67473
173 2 0.170944 2.73385 1.41206 4.30968
172 2 0.17623 1.86599 1.15695 2.90134
251 2 0.22612 3.01347 4.24886 1.48936
26 4 1.54753 4.52619 4.63904 7.1517
107 3 -0.826316 3.48434 5.62511 6.46613
170 2 0.180581 3.41968 2.10699 1.86557
21 4 1.02396 6.8837 4.61795 5.09814
122 3 -0.798437 8.61198 4.0019 5.77218
234 2 0.172456 8.71709 4.40117 1.98477
203 2 0.174043 7.34104 3.18764 3.24676
277 2 0.173635 6.37449 2.67912 1.57743
200 2 0.164408 7.94699 6.71118 5.25602
202 2 0.156204 7.03176 6.56647 3.62402
204 2 0.15719 6.34365 4.66506 2.61928
253 2 0.166766 7.0154 5.46516 1.34971
161 2 0.0955884 8.74856 4.02419 7.3847
62 1 -0.666311 6.90819 6.52693 4.76987
74 1 -0.658751 9.33871 4.00682 1.09895
235 2 0.197157 8.84771 3.49714 0.207405
248 1 -0.657998 6.11263 6.17432 1.28688
275 2 0.216202 7.11512 1.17123 0.692909
105 3 -0.815793 5.73957 4.36567 6.15825
254 2 0.153732 5.45929 6.31372 2.20207
268 2 0.152076 0.372042 0.864809 11.4416
96 3 -0.830805 3.33075 0.298674 8.43997
199 2 0.197798 2.02655 3.30078 10.2416
20 4 1.24784 3.70932 1.96128 8.96209
23 4 1.2953 2.89888 2.56128 13.8597
28 4 1.30938 4.24924 4.7106 12.4051
257 3 -0.784155 3.02844 6.81528 16.1088
61 1 -0.665368 2.26459 2.22284 10.1582
64 1 -0.688239 3.18092 0.862706 12.9402
198 2 0.169122 1.46336 1.63088 9.61243
208 2 0.205157 3.99853 1.00765 12.1212
97 3 -0.814774 4.18144 2.66117 14.7794
98 3 -0.762377 1.37301 2.68635 14.7337
99 3 -0.865042 4.95704 1.94381 9.91678
108 3 -0.801802 2.96107 3.82822 12.796
197 2 0.183414 2.57238 1.7337 11.259
110 3 -0.84215 3.6967 6.03082 11.6447
100 3 -0.801591 6.76727 1.66179 11.6622
241 2 0.186308 6.13752 7.01656 12.2488
137 3 -0.807075 9.36536 7.01713 9.33142
101 3 -0.764759 5.21566 5.15919 15.5058
135 3 -0.808448 5.04781 5.59725 8.43991
9 4 1.25869 10.847 7.02368 8.64018
24 4 1.52409 5.99894 2.76793 10.7227
45 4 1.23106 8.43518 7.02579 10.6162
19 4 1.24953 5.59042 3.21775 15.4794
39 4 1.09155 8.52077 3.20098 8.92705
44 4 1.30547 5.71022 6.86265 9.08218
124 3 -0.77961 7.25489 3.53775 9.70596
130 3 -0.794877 6.99894 2.82816 14.8868
152 2 0.097603 4.75044 5.4305 13.8904
138 3 -0.80414 6.92832 6.68776 10.0579
109 3 -0.85153 5.36244 3.90004 11.7847
165 2 -0.00631514 8.89335 5.86619 11.7991
180 2 0.241522 2.27348 4.07608 8.35914
226 2 0.144104 7.53734 1.16782 8.13565
1 4 1.24232 10.0271 13.2937 1.16871
4 4 1.20355 9.98975 12.7264 7.83076
149 2 0.107643 8.1405 12.8594 4.42345
80 3 -0.788241 8.53466 13.0949 7.28572
16 4 1.46154 11.1874 11.0349 5.26007
280 3 -0.813371 11.302 12.7157 0.312596
215 2 0.208817 13.1014 12.5371 7.12449
87 3 -0.77202 9.11428 11.9555 2.16662
89 3 -0.818195 11.3203 8.41123 8.07978
213 2 0.189133 14.0775 12.4507 1.64085
188 2 0.198354 11.4663 8.35171 3.07754
66 1 -0.649966 13.9075 13.0727 2.61164
13 4 1.04729 8.67049 11.4154 3.62091
114 3 -0.812368 12.1845 11.9212 4.26795
88 3 -0.797702 11.9056 10.0018 0.535213
212 2 0.198333 12.8619 13.5594 2.77663
91 3 -0.781552 9.74652 10.5934 4.43422
92 3 -0.835144 11.922 9.65704 5.69979
93 3 -0.806306 10.7655 11.9954 6.60549
75 1 -0.676384 6.49274 7.82599 7.65235
238 2 0.221585 7.51104 8.01007 8.11287
201 2 0.16276 6.06784 7.12084 5.16591
60 1 -0.686003 8.16462 10.0015 0.138
239 2 0.157972 5.85435 8.75479 7.68409
150 2 0.0235904 9.72464 8.76197 0.131312
160 2 0.116114 7.01452 13.2573 7.70654
273 2 0.152537 6.39448 10.5729 2.42023
272 2 0.175809 7.34255 9.51639 3.69786
271 2 0.13544 6.47803 11.1481 4.30936
270 1 -0.67755 6.95612 10.5762 3.44301
237 2 0.185207 6.60224 7.36848 6.59207
195 2 0.150654 7.72967 9.01305 0.557142
291 2 0.258929 8.52788 10.6961 0.97738
252 2 0.160258 6.31577 7.1566 0.75666
214 2 0.15566 14.7809 13.6274 3.05584
67 1 -0.651848 13.5056 12.5733 8.23423
290 2 0.174227 10.3175 7.98022 13.4077
14 4 1.44122 11.057 11.974 15.9975
49 4 1.05145 5.80914 11.8262 12.0483
146 3 -0.748822 6.91519 10.714 12.061
292 2 0.197661 12.738 13.0349 9.01335
194 2 0.167035 11.4217 11.4092 11.3363
193 2 0.20886 10.8152 9.72338 10.7007
207 2 0.227677 11.1047 13.9469 13.8414
59 1 -0.655115 10.988 10.4525 11.5938
192 2 0.208061 10.2187 10.4764 12.4547
191 2 0.156429 10.8993 8.68856 14.962
156 2 0.00473911 12.1813 10.5339 10.012
147 2 -0.0155848 9.81712 11.583 8.99726
95 3 -0.810339 9.92915 11.4465 14.909
119 3 -0.788143 12.6288 12.1849 15.3041
48 4 1.24157 7.49641 9.08147 12.5906
76 1 -0.678175 6.01979 7.91411 12.9976
242 2 0.160489 5.19806 8.66781 12.707
18 4 1.02914 8.80394 10.2996 15.2348
196 2 0.155779 6.78753 11.1259 15.877
136 3 -0.807358 4.31686 8.01633 9.91807
240 2 0.174948 6.08287 7.61698 14.1085
143 3 -0.786255 8.36061 8.51095 11.3396
144 3 -0.807826 8.22545 9.3867 13.9818
206 2 0.169612 9.70416 14.1346 12.5795
2 4 1.22566 13.8971 1.22782 3.85643
183 2 0.177336 11.1078 6.84189 5.48809
286 2 0.171172 10.874 5.0171 6.05552
36 4 1.20131 9.383 2.70578 5.20446
228 2 0.211992 9.38665 1.0688 8.06878
40 4 1.25212 12.0885 1.84218 6.17353
43 4 1.01068 10.3485 2.77752 2.18251
182 2 0.15657 11.6781 5.37139 4.31782
281 2 -0.00451585 10.9079 5.93792 7.33362
177 2 0.142771 12.6628 3.82857 0.671011
106 3 -0.818402 16.5147 6.12256 4.81445
54 1 -0.686002 11.4894 5.79259 5.44914
236 2 0.116509 10.2898 4.67512 0.889573
125 3 -0.852078 12.5928 1.40154 4.72798
126 3 -0.841805 10.4004 2.1241 6.20823
127 3 -0.846213 12.5027 0.761222 7.21657
133 3 -0.826146 9.75221 2.85931 3.61436
134 3 -0.792555 9.98518 1.32462 1.53055