ITEM: TIMESTEP
0
ITEM: NUMBER OF ATOMS
295
ITEM: BOX BOUNDS xy xz yz pp pp pp
-8.3339999999999996e+00 1.5144700000000000e+01 -7.6974000000000000e+00
0.0000000000000000e+00 1.4189300000000001e+01 -6.3660000000000005e-01
0.0000000000000000e+00 1.6498000000000001e+01 5.8050000000000002e-01
ITEM: ATOMS id type q x y z
6 4 1.20524 0.611145 1.62104 5.93127
7 4 1.28187 -0.130979 3.89188 2.08686
8 4 1.25099 -0.917106 4.00959 7.6255
10 4 1.24537 -2.05605 6.65778 5.41746
25 4 1.42651 0.974725 6.15 4.0423
27 4 0.952587 3.47762 6.43333 5.71994
50 1 -0.662863 2.90719 0.862808 1.9522
51 1 -0.687344 2.28066 2.40823 5.53588
52 1 -0.658023 -1.62232 4.94789 1.55868
204 2 0.178015 4.68263 2.68336 2.56046
79 3 -0.806897 -0.128193 0.980288 4.62263
276 2 0.204302 5.16188 0.551021 0.354197
249 2 0.179326 4.64292 4.30902 3.07204
82 3 -0.791767 0.518048 3.2373 0.612623
84 3 -0.827092 -0.189472 2.82851 6.77388
85 3 -0.784005 -2.22775 5.0682 6.70344
53 1 -0.648233 0.429936 5.25926 7.98694
102 3 -0.806414 0.856246 4.93105 2.92027
103 3 -0.776657 -0.668825 6.50334 4.65054
104 3 -0.81162 4.2819 2.95608 7.70944
106 3 -0.789254 1.95855 5.79543 5.37294
78 3 -0.746413 0.800078 0.532631 0.0301303
172 2 0.177378 4.07481 1.02894 1.50181
203 2 0.175785 5.0742 1.25911 3.68079
81 3 -0.805676 -0.962067 2.69505 2.94503
173 2 0.172916 2.10997 2.38968 4.37924
174 2 0.22092 3.13592 1.71021 5.94745
175 2 0.237261 2.34882 3.4396 5.91298
176 2 0.151922 -2.3718 5.33072 2.34387
274 1 -0.678255 5.94068 1.25542 0.784895
178 2 0.169417 -0.939683 5.81133 1.10932
277 2 0.168572 5.6796 1.58843 1.91143
205 2 0.196234 3.98803 2.55293 4.32757
171 2 0.196609 2.31865 1.83356 1.87212
179 2 0.177893 -0.0994683 6.19485 7.56689
180 2 0.225778 1.39756 5.01904 7.33633
250 2 0.19299 3.53019 5.9467 2.77476
101 3 -0.774491 5.22287 4.01332 0.283193
63 1 -0.681139 4.86857 2.37056 3.62688
54 1 -0.682769 -3.42435 6.37236 4.24003
182 2 0.154947 -2.94928 6.33717 3.17033
281 2 0.0864615 -3.02841 5.71141 7.91093
170 2 0.185001 2.75647 0.350108 2.98166
257 3 -0.78693 3.6978 6.4736 0.231399
177 2 0.145913 -2.10732 4.39945 0.700685
275 2 0.220277 6.95795 0.780992 0.674888
3 4 1.2594 -0.126527 2.74447 15.9257
267 1 -0.662297 -0.189316 1.75955 11.3091
290 2 0.188071 -3.00959 7.22638 13.4296
20 4 1.35582 3.41272 2.13528 8.883
23 4 1.35122 2.44218 2.8401 14.0112
28 4 1.28138 4.38021 4.5132 12.593
285 2 0.186316 -0.409887 2.2765 12.3005
61 1 -0.678022 2.06015 3.35433 9.60379
64 1 -0.66568 2.43496 1.24087 12.9726
83 3 -0.780032 -1.19931 3.39225 9.02067
100 3 -0.817814 5.93392 0.70259 12.0582
97 3 -0.795376 3.75517 2.70426 15.0279
98 3 -0.79278 1.00196 2.9215 14.6537
99 3 -0.824281 4.22886 1.79971 10.245
108 3 -0.787238 2.82316 4.1571 13.1306
19 4 1.2968 5.09466 3.13747 15.8951
9 4 1.25928 -3.42599 6.95555 9.05223
148 2 0.0319888 0.697654 6.77868 10.6885
268 2 0.183022 -0.161382 0.649155 11.3455
269 2 0.173933 0.716446 2.32053 10.6768
181 2 0.181543 0.516819 5.28001 9.13638
207 2 0.214173 2.642 1.43152 11.8605
24 4 1.54081 5.57627 2.0141 11.1354
197 2 0.194086 1.96484 3.2917 10.7338
198 2 0.211317 1.17272 3.07601 9.01386
199 2 0.183241 2.54803 4.33067 9.32162
259 2 0.0362366 0.855878 6.97881 15.0317
295 2 0.216328 -3.11493 5.6389 11.7158
86 3 -0.854412 -2.01104 6.86054 9.8611
109 3 -0.847261 5.18834 3.3248 11.9704
206 2 0.224326 3.26918 0.729811 13.5558
284 2 0.163104 -1.77617 3.29266 14.2217
96 3 -0.846256 2.6114 0.863334 8.35465
208 2 0.18416 1.38502 0.740192 13.1602
1 4 1.22057 -5.65736 13.2944 0.872229
4 4 1.21254 -5.54991 13.1667 7.52413
12 4 1.0556 -3.11862 9.18449 1.58958
15 4 1.47717 -2.88506 9.22684 7.2181
16 4 1.47658 -4.24184 11.4452 5.42479
30 4 1.22978 1.27601 8.61427 2.27165
31 4 1.27862 -1.44214 11.1338 3.81588
80 3 -0.773073 -7.01216 13.4196 6.86948
56 1 -0.678277 -4.85654 8.78788 2.49062
189 2 0.163323 -1.55601 7.44738 1.42007
57 1 -0.681951 -2.5412 7.59537 0.839384
66 1 -0.675041 -0.933197 12.5238 2.64606
212 2 0.201053 -1.23888 13.4167 3.23403
222 2 0.178884 -0.0973786 11.6387 0.974875
88 3 -0.829642 -3.38325 10.2067 0.428581
90 3 -0.832827 -2.32525 8.03633 6.1827
91 3 -0.829066 -5.51973 11.2341 4.40957
92 3 -0.805171 -3.97202 10.1448 6.46314
93 3 -0.819806 -4.49194 12.7694 6.37007
111 3 -0.87022 1.44879 7.56061 3.42702
112 3 -0.826198 1.30137 7.94212 0.808538
113 3 -0.778621 -1.76211 9.85929 2.87434
114 3 -0.782645 -2.82979 11.6793 4.5264
115 3 -0.838685 -1.77363 10.234 7.96332
116 3 -0.776416 0.0561541 10.9196 4.75962
155 2 0.0940493 -0.325054 9.18354 2.48503
292 2 0.229227 -2.60607 13.0633 7.72815
187 2 0.194427 -4.68368 9.11411 3.59828
157 2 0.00672024 1.40186 9.22059 6.53266
211 2 0.163082 1.84767 7.7132 7.19941
214 2 0.17318 0.172134 12.4495 2.63442
213 2 0.184389 -1.52657 12.405 1.67523
87 3 -0.785805 -6.40544 11.9068 1.93757
69 1 -0.660174 0.42763 11.1939 0.0235187
221 2 0.19387 0.413079 10.0287 0.130645
183 2 0.18149 -4.08355 7.24339 4.3942
33 4 1.05627 1.38596 10.7427 5.59356
289 2 0.141217 -3.33974 6.88356 1.14153
11 4 1.02113 -0.94331 7.63873 10.6828
224 2 0.197992 0.671057 9.69087 11.9687
17 4 1.11577 -1.94643 9.39305 13.2058
32 4 1.04013 -1.6605 11.1835 9.22735
34 4 1.27344 -1.20737 11.8961 14.8788
288 2 0.185728 -3.09163 8.18016 16.1706
55 1 -0.653403 0.925527 8.28422 9.80188
58 1 -0.65405 -2.90252 8.03889 14.2072
59 1 -0.67323 -3.25395 10.5925 12.3772
216 2 0.155355 -3.21527 12.809 9.57208
255 4 1.03337 1.6772 7.84314 16.271
185 2 0.171669 1.66432 8.22207 8.95475
94 3 -0.824257 -1.23496 8.57379 11.9075
95 3 -0.812673 -5.21209 11.0753 14.6951
117 3 -0.79937 -1.04789 10.1597 14.2771
118 3 -0.850602 -0.485884 12.9052 13.9032
119 3 -0.777009 -2.79994 12.414 15.1852
120 3 -0.815528 -0.208697 11.5712 9.95453
147 2 -0.0278927 -5.81296 11.8607 8.56928
215 2 0.19848 -1.54872 13.6835 9.10444
156 2 -0.00411328 -2.64827 10.5479 10.4999
184 2 0.123072 -0.243807 8.68826 9.28149
186 2 0.158438 1.19062 9.13476 10.6025
191 2 0.169688 -3.90634 8.59622 14.4602
192 2 0.252068 -4.00748 10.8729 13.243
193 2 0.168988 -3.82625 10.1417 11.4802
194 2 0.175138 -2.60122 11.462 12.0781
67 1 -0.659179 -2.33495 12.8829 8.78451
260 2 0.169723 1.87319 8.45543 13.5782
280 3 -0.811805 -5.09247 13.1334 16.462
256 1 -0.660135 1.59867 8.74565 14.5943
261 2 0.251783 0.541032 9.35162 14.5487
14 4 1.48202 -4.32508 11.9038 15.8176
89 3 -0.805331 -3.71601 8.40186 8.40602
154 2 -0.00428118 2.60624 7.52281 10.4384
190 2 0.159838 -2.25292 7.70801 15.1259
2 4 1.32825 13.6193 1.51652 3.89094
21 4 1.16564 6.56161 2.91512 4.54058
251 2 0.113033 5.4603 6.25712 2.86155
36 4 1.18645 9.23402 1.45657 4.59435
151 2 -0.0174161 4.3883 6.61111 4.19608
40 4 1.27606 11.542 2.18968 6.22331
43 4 1.00063 10.9028 2.59872 1.96178
235 2 0.193391 9.15083 3.18277 0.558985
62 1 -0.662111 7.26658 4.46259 3.61168
253 2 0.140142 7.0594 6.78609 1.36903
74 1 -0.638831 9.60126 3.76896 1.46155
105 3 -0.790597 6.1102 3.53212 5.94799
122 3 -0.817895 7.64645 1.75526 4.49606
125 3 -0.858237 12.4399 1.97239 4.91617
126 3 -0.835615 10.0309 2.27536 5.80071
127 3 -0.878752 11.7784 1.16543 7.35718
133 3 -0.774517 10.0833 1.87182 3.19987
134 3 -0.781199 11.4095 1.63495 0.67084
234 2 0.183511 8.82205 4.11762 2.27293
286 2 0.155178 11.288 5.35972 4.62447
162 2 0.0738637 11.8674 3.81826 6.79783
164 2 0.0385652 12.3175 3.62702 2.36037
200 2 0.159008 8.42121 4.36546 3.73702
246 4 1.10216 4.90845 5.49268 0.771715
237 2 0.167672 6.60073 6.61946 6.20456
236 2 0.100183 10.4904 4.66654 1.19533
201 2 0.159897 6.9092 5.3757 4.2094
202 2 0.170976 6.92837 4.35465 2.53407
228 2 0.187532 9.14804 1.68888 7.77515
248 1 -0.657616 6.73844 6.39119 0.334691
26 4 1.48863 5.23923 4.17886 7.20591
247 1 -0.643724 4.54526 5.46531 2.6323
283 2 0.211917 13.0593 0.234479 1.70973
263 2 0.17667 11.8085 0.173738 3.09595
107 3 -0.806642 4.38016 5.51808 6.64468
152 2 0.036524 5.31033 5.13685 13.9062
241 2 0.141153 6.80263 5.83003 13.2503
227 2 0.248733 10.1141 1.24725 9.31394
39 4 1.02719 8.24405 2.9376 9.50407
41 4 1.28612 7.86257 2.67226 14.6181
42 4 1.03564 10.8517 3.48738 11.6746
45 4 1.26494 8.95117 6.529 10.6106
29 4 0.944536 4.23698 6.9568 10.6737
72 1 -0.68638 9.28573 4.0722 14.6533
73 1 -0.687586 11.3063 5.09041 12.4338
242 2 0.153366 5.406 7.09103 13.0799
266 2 0.171159 13.1124 1.64665 15.0634
265 2 0.184207 12.5431 3.24236 15.9116
124 3 -0.808398 6.95462 2.4413 10.1902
128 3 -0.802343 8.12909 1.92742 13.2997
129 3 -0.780338 8.34625 1.58354 15.9424
130 3 -0.85072 6.42343 3.29898 14.9977
131 3 -0.772102 12.1721 2.65706 11.084
132 3 -0.778545 9.63499 3.65341 10.6377
71 1 -0.662275 9.08388 1.42413 8.92642
44 4 1.19485 6.52336 6.53037 8.66356
37 4 0.9768 9.85024 1.10758 16.2331
137 3 -0.79889 10.443 6.5982 9.88167
163 2 0.0293002 10.2071 3.03008 13.3029
165 2 0.057728 8.71749 4.9578 11.1429
232 2 0.140548 11.9231 4.72126 13.3138
229 2 0.141688 9.27226 4.48978 13.6037
230 2 0.160797 10.3129 3.81379 14.9714
231 2 0.158433 8.79077 4.84275 15.3147
240 2 0.178066 6.27789 6.83845 14.7904
5 4 1.24801 13.4287 1.99832 10.2166
76 1 -0.706845 6.393 6.7902 13.6253
252 2 0.182078 6.67545 6.13655 16.4094
264 1 -0.67736 13.2683 2.75132 15.1824
233 2 0.163561 10.3396 5.64793 12.7224
123 3 -0.862208 13.1682 0.600434 9.54445
226 2 0.210071 8.29817 0.639032 9.22864
136 3 -0.786116 4.84293 7.00587 9.17185
138 3 -0.844611 7.84201 6.77446 9.53814
135 3 -0.784992 6.31303 4.65748 8.33464
110 3 -0.867979 4.2695 5.77173 11.6448
161 2 0.0730544 7.97381 4.12903 8.34302
293 2 0.0205409 10.5981 0.525336 14.7693
150 2 0.0108722 9.24502 8.94241 0.125832
38 4 1.29332 5.05517 13.7181 8.07163
46 4 0.894718 3.35681 10.5365 3.37484
68 1 -0.655212 1.40023 12.3613 6.58856
75 1 -0.665103 6.74126 7.39061 6.99767
139 3 -0.808148 2.37362 9.88747 2.30708
140 3 -0.81523 2.72227 10.9356 4.81053
238 2 0.180398 7.73947 7.8875 6.8871
149 2 0.113124 7.03884 12.3894 4.20986
210 2 0.240242 3.54617 7.75579 7.99766
160 2 0.0968707 6.57358 13.5203 7.25071
166 2 -0.00553633 3.9754 12.0913 2.86416
167 2 -0.0320756 4.86086 9.72568 3.52926
209 2 0.0799203 3.48542 8.25453 6.06566
217 2 0.21393 2.38904 12.895 6.56136
219 2 0.185303 0.549924 13.0292 6.38518
159 2 0.121351 2.97482 12.3085 1.04057
141 3 -0.838648 4.48676 12.2789 8.01328
287 2 0.147883 10.186 7.68362 2.36807
188 2 0.179592 9.51267 9.36945 2.02765
158 2 0.0188893 1.58617 13.4117 4.91604
262 1 -0.676996 5.19616 13.6786 2.79531
218 2 0.158225 1.2497 11.8259 7.62563
270 1 -0.662342 6.51136 10.8874 3.72887
271 2 0.156788 6.01709 10.4849 4.64481
272 2 0.0496119 7.61405 9.65599 3.17222
273 2 0.129335 5.8306 10.9617 2.85184
282 2 0.157122 5.69809 12.6484 3.18079
65 1 -0.641679 2.89911 8.17094 7.17505
239 2 0.153765 5.8328 8.20174 7.14096
291 2 0.244657 8.08349 10.8967 0.555643
13 4 1.07123 8.45527 11.391 3.40239
168 2 0.0114096 3.03814 9.8836 7.98441
18 4 1.05277 8.63552 10.0712 14.9979
225 2 0.19138 1.57962 11.1014 12.9944
245 2 0.140856 6.33855 11.8198 12.4223
47 4 1.26469 3.68471 11.2421 9.01175
48 4 1.19131 7.50425 8.04817 12.7632
49 4 1.08289 6.07618 10.3242 10.7201
143 3 -0.815892 8.71977 7.47126 11.856
22 4 1.49366 -0.268848 13.8996 12.727
77 1 -0.672285 6.82552 11.9932 11.261
121 3 -0.80715 0.80277 13.2473 11.646
60 1 -0.668805 7.26122 10.8186 16.1145
35 4 1.32656 1.15768 11.9461 10.7446
142 3 -0.824465 2.57457 11.8472 9.89684
258 2 0.121786 2.52178 9.55065 15.0597
144 3 -0.793593 8.05347 9.1221 13.9424
145 3 -0.833487 4.73906 10.5722 9.96735
146 3 -0.791901 6.28165 9.04955 11.5899
278 1 -0.666071 2.75895 12.8898 16.2761
153 2 0.0745654 4.87868 8.2657 11.5852
279 2 0.167735 2.4926 11.9014 15.8072
169 2 0.00861124 7.47839 10.8375 9.81001
223 2 0.154305 2.50101 10.065 11.6525
196 2 0.148799 6.8776 11.5381 15.202
243 2 0.236694 6.26999 12.8273 10.6925
195 2 0.145194 6.48774 9.94919 16.243
220 2 0.203905 0.85946 12.1655 16.343
254 2 0.152802 5.78947 7.79716 16.0977
70 1 -0.668434 1.49512 10.515 12.0191
294 2 0.154869 3.8592 13.0078 16.1941
244 2 0.154349 7.95638 12.1144 11.2575
ITEM: TIMESTEP
100
ITEM: NUMBER OF ATOMS
295
ITEM: BOX BOUNDS xy xz yz pp pp pp
-8.3339999999999996e+00 1.5144700000000000e+01 -7.6974000000000000e+00
0.0000000000000000e+00 1.4217678600000001e+01 -6.3660000000000005e-01
0.0000000000000000e+00 1.6498000000000001e+01 5.8166100000000043e-01
ITEM: ATOMS id type q x y z
6 4 1.23539 0.562271 1.62591 6.01756
7 4 1.33817 -0.1457 3.94272 2.06087
8 4 1.23676 -0.937753 4.14305 7.66156
10 4 1.26917 -2.00083 6.60893 5.52152
25 4 1.50599 0.777133 6.16979 4.06938
27 4 0.99398 3.4032 6.37221 5.60222
50 1 -0.654553 2.90382 0.885596 1.86794
51 1 -0.683632 2.27122 2.21351 5.55693
52 1 -0.657316 -1.80374 4.86694 1.62025
204 2 0.163205 4.60976 2.70219 2.55197
79 3 -0.804183 -0.085246 1.10854 4.65469
276 2 0.222504 5.09889 0.573257 0.368672
249 2 0.192215 4.68646 4.2007 2.99257
82 3 -0.811961 0.548074 3.28951 0.797674
84 3 -0.795338 -0.17224 2.95658 6.84695
85 3 -0.789487 -2.36473 5.13809 6.78465
53 1 -0.669949 0.469161 5.29994 8.0042
102 3 -0.807006 0.763054 4.79907 3.05756
103 3 -0.854242 -0.649104 6.34138 4.73613
104 3 -0.816474 4.38419 3.10836 7.89591
106 3 -0.776634 1.9004 5.87568 5.2048
78 3 -0.748014 0.896858 0.53479 0.0954937
172 2 0.174661 4.09628 1.05166 1.5112
203 2 0.159323 5.26926 1.23355 3.48057
81 3 -0.781749 -1.08324 2.72848 2.82005
173 2 0.202844 2.12784 2.60856 4.50748
174 2 0.199255 2.92999 1.27271 5.53786
175 2 0.226463 2.60876 2.99124 6.32609
176 2 0.159932 -2.23445 5.33873 2.58775
274 1 -0.670975 5.91557 1.26543 0.769513
178 2 0.147476 -1.22633 5.67618 0.996257
277 2 0.16909 5.73196 1.58509 1.84132
205 2 0.191433 3.94894 2.27736 4.37765
171 2 0.220351 2.26141 1.77556 1.69629
179 2 0.182752 0.144844 6.27684 7.53341
180 2 0.216239 1.45306 4.91117 7.53893
250 2 0.201614 3.50947 5.7095 2.67398
107 3 -0.811893 4.30358 5.35013 6.35273
63 1 -0.643582 4.90624 2.31234 3.59373
54 1 -0.677198 -3.30428 6.58786 4.22396
182 2 0.15172 -2.90493 6.41442 3.14244
281 2 0.0960406 -3.33081 5.83179 7.78082
170 2 0.172437 2.83366 0.408273 2.93853
3 4 1.24895 -0.0145711 2.75127 16.0301
267 1 -0.669818 -0.205389 1.99893 11.0988
290 2 0.177472 -3.02034 6.75981 13.5108
20 4 1.34191 3.53391 2.10321 8.8627
23 4 1.27522 2.60095 2.81096 14.0043
28 4 1.24846 4.27864 4.64993 12.4167
285 2 0.169644 -0.483674 2.43574 12.1458
61 1 -0.677743 2.15442 3.33849 9.40648
64 1 -0.652421 2.46254 1.31124 12.8359
83 3 -0.809092 -1.51434 3.40875 9.00682
100 3 -0.807789 6.11579 0.65976 11.9617
97 3 -0.810514 3.81597 2.58161 15.0991
98 3 -0.75988 1.16997 3.04714 14.8711
99 3 -0.799199 4.397 1.66185 10.2334
108 3 -0.795183 2.87289 4.02684 12.7761
19 4 1.28925 4.99415 3.23175 15.9506
9 4 1.2781 -3.47842 7.01085 9.09591
148 2 0.0209314 0.66166 6.73587 10.5007
268 2 0.18212 -0.210834 0.8164 11.0708
269 2 0.181368 0.674678 2.49838 10.5452
181 2 0.163939 0.451175 5.26525 9.15467
207 2 0.231094 3.51476 1.19025 12.4225
24 4 1.55254 5.67903 2.12979 11.1803
197 2 0.20852 2.08772 3.27378 10.517
198 2 0.197153 1.20059 3.13451 8.81061
199 2 0.20372 2.72907 4.3264 9.07877
259 2 0.0214523 0.618963 7.02914 15.0241
295 2 0.219811 -2.91619 5.55606 11.4321
86 3 -0.844669 -2.0181 6.89719 9.81769
109 3 -0.820915 5.3077 3.3888 12.1271
264 1 -0.665663 -1.58721 2.86784 15.0337
284 2 0.183611 -1.48049 3.22483 14.0135
96 3 -0.817521 2.77329 0.755921 8.32259
208 2 0.192196 1.58329 1.62181 12.1146
110 3 -0.837375 4.14308 5.60256 11.2161
232 2 0.148456 -3.00525 4.90339 13.2949
265 2 0.168656 -2.20245 3.5347 15.7452
206 2 0.209857 2.19293 0.550142 13.6791
257 3 -0.763065 2.9608 6.94537 16.4899
1 4 1.20836 -5.6906 13.1905 0.935525
4 4 1.2224 -5.65744 13.133 7.66201
12 4 1.02929 -2.97513 9.20496 1.60841
15 4 1.46366 -2.96373 9.24942 7.18514
16 4 1.41922 -4.11599 11.4984 5.58211
30 4 1.2548 1.3521 8.60649 2.324
31 4 1.29182 -1.36223 11.2407 3.88041
80 3 -0.795323 -7.15178 13.6489 7.16689
56 1 -0.677627 -4.83522 8.93011 2.45158
189 2 0.154495 -1.54498 7.34567 1.46792
57 1 -0.686493 -2.46398 7.59945 0.871071
66 1 -0.674475 -1.05521 12.5636 2.56791
212 2 0.180946 -1.47668 13.4461 3.21999
222 2 0.183446 -0.316088 11.6499 0.86796
88 3 -0.858824 -3.207 10.2553 0.461451
90 3 -0.815569 -2.14888 8.02802 6.23835
91 3 -0.815857 -5.34488 11.394 4.36593
92 3 -0.820159 -4.09463 9.98283 6.38968
93 3 -0.839383 -4.60644 12.6639 6.58159
111 3 -0.871785 1.49247 7.4697 3.40844
112 3 -0.818702 1.36148 7.90137 0.882349
113 3 -0.772776 -1.6458 9.90406 2.9208
114 3 -0.79413 -2.54174 11.7241 4.86647
115 3 -0.795453 -1.84427 10.3846 8.03869
116 3 -0.76878 0.0348264 10.9395 4.82401
155 2 0.0981641 -0.240258 9.28094 2.55805
292 2 0.223953 -2.29024 12.7943 7.55138
187 2 0.193803 -4.66779 9.31128 3.53579
157 2 0.00753154 1.44239 9.20642 6.58689
211 2 0.169689 1.92201 7.63995 7.08176
214 2 0.167698 -0.00802742 12.7402 2.24114
213 2 0.188319 -1.73517 12.4028 1.67341
87 3 -0.798748 -6.52287 11.8767 2.06532
33 4 1.05025 1.38107 10.7436 5.68311
289 2 0.121137 -3.45347 7.00817 1.24154
183 2 0.184277 -3.76295 7.63026 4.32053
11 4 0.974831 -0.856891 7.68164 10.495
224 2 0.213402 0.673071 9.84653 12.1623
17 4 1.1198 -2.11343 9.16837 13.2439
32 4 1.0292 -1.727 11.3116 9.33464
34 4 1.26275 -1.32724 11.9216 14.8503
288 2 0.19214 -2.95806 8.13744 16.2744
55 1 -0.647553 0.82592 8.37623 9.68753
58 1 -0.652357 -2.91056 7.73978 14.2376
59 1 -0.668087 -3.35414 10.5219 12.4998
216 2 0.184432 -3.18963 13.0807 9.31271
255 4 1.04341 1.57859 7.73348 16.261
185 2 0.166417 1.58625 8.33509 8.73547
94 3 -0.769905 -1.31123 8.49844 12.0457
95 3 -0.807615 -5.41717 11.2275 14.589
117 3 -0.764297 -1.19391 10.1088 14.1774
118 3 -0.816211 -0.408859 12.9025 13.9758
119 3 -0.790625 -2.88015 12.4207 15.1383
120 3 -0.783848 -0.236889 11.455 9.97563
147 2 -0.0424514 -5.83944 11.9933 8.79872
215 2 0.198798 -1.28793 13.7468 8.98166
156 2 -0.0125663 -2.82285 10.7241 10.6083
184 2 0.138816 -0.376882 9.03833 9.02927
186 2 0.158897 1.24136 9.13602 10.5219
191 2 0.145345 -3.93605 8.34661 14.3766
192 2 0.248867 -4.16377 10.7872 13.319
193 2 0.166392 -3.8212 10.1825 11.5932
194 2 0.175034 -2.67989 11.4743 12.2708
67 1 -0.631907 -2.14236 13.0204 8.68107
260 2 0.141073 2.00583 8.31539 13.7865
190 2 0.155553 -2.26521 7.43294 15.118
256 1 -0.662937 1.43123 8.7927 14.6761
261 2 0.262573 0.457032 9.25099 14.3441
14 4 1.44456 -4.27075 11.8748 15.865
89 3 -0.834077 -3.58868 8.46733 8.40633
154 2 -0.0169433 2.42454 7.62836 10.5546
69 1 -0.652768 -0.38884 11.7525 16.4736
221 2 0.19418 -0.410437 10.6135 16.4954
280 3 -0.7909 -5.1211 13.1107 16.4441
2 4 1.31954 13.6227 1.54402 3.86761
21 4 1.17182 6.60533 2.91364 4.48776
251 2 0.116564 5.5289 6.04374 2.86672
36 4 1.17378 9.26641 1.39537 4.53776
151 2 0.000887445 4.23962 6.54982 4.14005
40 4 1.25285 11.4891 2.20549 6.24645
43 4 0.988895 10.771 2.6451 1.96281
235 2 0.187158 9.33551 3.35307 0.329558
62 1 -0.665142 7.31456 4.47983 3.53235
135 3 -0.799255 6.51157 4.81107 7.94162
74 1 -0.688799 9.63156 3.92407 1.28872
105 3 -0.810713 5.95442 3.46488 5.78862
122 3 -0.816655 7.65113 1.69922 4.48486
125 3 -0.834651 12.4885 1.95819 4.97961
126 3 -0.836185 9.95704 2.26064 5.71026
127 3 -0.879895 11.7294 1.15654 7.36061
133 3 -0.801616 10.0923 1.71532 3.0803
134 3 -0.777214 11.4189 1.61698 0.663586
234 2 0.175325 8.72157 4.09168 2.07109
286 2 0.148763 11.1776 5.7477 4.61669
162 2 0.0743632 11.7461 3.78751 6.84272
164 2 0.0339784 12.0179 3.72757 2.55657
200 2 0.154177 8.40689 4.14977 3.6938
246 4 1.06267 5.02782 5.55896 0.730591
237 2 0.160677 6.86332 6.84254 6.19711
236 2 0.143107 10.2311 4.81933 1.08489
201 2 0.15748 7.09453 5.54315 3.8755
202 2 0.165312 6.88318 4.33694 2.45486
228 2 0.169336 8.74834 1.41786 7.70936
248 1 -0.661508 6.51996 6.76329 0.437794
26 4 1.52125 5.31434 4.18476 7.04169
247 1 -0.653152 4.57198 5.33395 2.59314
283 2 0.194638 12.7384 0.309295 2.07719
101 3 -0.801795 5.42807 4.08792 0.184581
177 2 0.149202 12.547 4.35105 1.0129
161 2 0.0930234 7.78838 3.75743 8.18647
252 2 0.165406 7.55588 6.3248 0.211287
275 2 0.206652 7.04921 1.08015 0.410889
152 2 0.00644602 5.00661 5.53054 13.6865
241 2 0.160299 7.08902 5.96818 13.5208
227 2 0.253836 10.0457 0.896083 9.11913
39 4 0.998346 8.27384 2.7708 9.47466
41 4 1.34933 7.92096 2.57036 14.6777
42 4 1.06269 10.8264 3.53284 11.7153
45 4 1.28556 8.90955 6.57379 10.5552
29 4 0.918484 4.0727 7.06355 10.6096
72 1 -0.677182 9.19061 4.05462 14.532
73 1 -0.685366 11.5741 5.12541 12.3257
242 2 0.109698 5.50464 7.2025 13.0586
266 2 0.165853 13.2594 1.71568 15.1139
138 3 -0.830337 7.77299 6.79343 9.51761
124 3 -0.830344 6.92598 2.5104 10.3118
128 3 -0.809039 8.05706 1.8284 13.301
129 3 -0.821323 8.5529 1.52481 15.8413
130 3 -0.793169 6.60055 3.29526 15.1003
131 3 -0.784422 12.0575 2.68895 11.3404
132 3 -0.768782 9.6036 3.52816 10.5976
71 1 -0.663855 8.99348 1.19669 8.83
44 4 1.1646 6.45652 6.58143 8.51765
37 4 1.03849 9.95103 1.08218 16.3271
137 3 -0.846118 10.3892 6.67267 9.87767
163 2 0.0292278 10.2952 2.99536 13.2944
165 2 0.0765745 8.80555 4.9706 10.9666
226 2 0.203894 8.20662 0.490766 9.31929
229 2 0.157062 9.06991 4.50375 13.5366
230 2 0.152039 10.2698 3.91341 14.8395
231 2 0.164208 8.69849 4.77607 15.3146
240 2 0.191214 6.28052 7.07928 14.9401
5 4 1.19081 13.3318 2.33156 10.2359
76 1 -0.659499 6.46605 6.89812 13.7784
123 3 -0.79617 13.0112 0.499719 9.51411
136 3 -0.775399 4.69329 7.01486 9.17764
233 2 0.180208 10.7485 5.89985 12.5296
293 2 0.021165 10.9505 0.533238 15.0183
195 2 0.161705 7.55702 9.14962 0.217326
38 4 1.30086 4.81471 13.6282 8.13546
46 4 0.919134 3.31926 10.5875 3.35931
68 1 -0.660449 1.52794 12.3579 6.65529
75 1 -0.671259 6.94675 7.57442 7.06364
139 3 -0.815897 2.46218 9.76428 2.29816
140 3 -0.833374 2.63802 10.7258 4.75688
238 2 0.195152 7.94029 8.08826 7.22769
149 2 0.103507 7.29569 12.3283 4.62371
210 2 0.253236 3.57442 7.60848 8.0432
160 2 0.125632 6.42909 13.6279 7.53739
166 2 -0.0154433 3.95402 12.0269 2.68828
167 2 -0.0198399 4.91351 9.97812 3.58931
209 2 0.0897176 3.42957 8.19231 6.12762
217 2 0.218624 2.57835 12.8139 6.62438
219 2 0.178442 0.706582 13.0764 6.29734
159 2 0.121239 2.7046 12.2312 1.03351
141 3 -0.847102 4.37525 12.115 7.92934
287 2 0.150736 10.2097 7.8601 2.36618
263 2 0.176335 4.09178 13.6051 3.67865
158 2 0.00821191 1.746 13.3574 4.95246
262 1 -0.682144 5.11238 13.5791 3.18291
218 2 0.185833 1.25542 11.8875 7.70233
270 1 -0.65755 6.62434 10.8848 3.90585
271 2 0.152002 5.88025 10.5802 4.70471
272 2 0.0552238 7.67673 9.58103 3.58272
273 2 0.137882 6.12992 11.1719 2.89423
282 2 0.169279 5.72908 12.6074 3.39456
65 1 -0.656619 2.8829 8.09402 7.21275
239 2 0.14069 6.03722 8.33242 7.00296
291 2 0.24978 8.35877 10.8635 0.714435
13 4 1.07648 8.525 11.3308 3.52566
168 2 0.0209469 2.82195 9.74076 8.05935
253 2 0.122108 6.48999 7.09128 1.572
188 2 0.180082 9.6286 9.51676 1.77221
18 4 1.06467 8.62642 10.1929 14.8857
225 2 0.188694 1.78515 10.9291 13.0408
245 2 0.147992 6.3472 11.9879 12.1245
47 4 1.2574 3.63463 11.088 8.98511
48 4 1.20629 7.5788 8.07493 12.758
49 4 1.04874 6.03466 10.3144 10.6824
143 3 -0.853722 8.73174 7.22683 11.9431
22 4 1.49055 -0.181947 13.9303 12.6968
77 1 -0.670537 6.83729 12.0238 11.0135
121 3 -0.783037 1.01506 13.2465 11.6153
60 1 -0.662122 7.43467 10.6513 16.3624
35 4 1.2856 1.25025 11.8447 10.8092
142 3 -0.835562 2.47837 11.7885 9.74758
258 2 0.147727 2.19731 9.63412 15.1143
144 3 -0.809332 8.06612 9.12693 13.8747
145 3 -0.849337 4.67791 10.32 9.869
146 3 -0.781491 6.32462 9.10382 11.6695
278 1 -0.661225 2.64695 12.8239 16.3847
153 2 0.0518757 4.90933 8.19871 11.584
279 2 0.167642 1.96024 12.3176 15.5818
169 2 0.00731816 7.52887 10.6523 9.76964
223 2 0.142658 2.5291 9.91219 11.7056
196 2 0.124474 6.80531 11.3414 15.3655
243 2 0.243795 6.2989 12.8819 10.3835
150 2 0.0105384 8.8102 9.2707 16.3906
220 2 0.185443 0.820714 12.1009 16.4013
254 2 0.163575 5.57812 8.1574 16.2323
70 1 -0.703434 1.59254 10.4413 12.0967
244 2 0.146403 8.03633 12.1632 11.0647
294 2 0.156945 3.72409 12.3363 16.4446
ITEM: TIMESTEP
200
ITEM: NUMBER OF ATOMS
295
ITEM: BOX BOUNDS xy xz yz pp pp pp
-6.3660000000000005e-01 2.2591999999999999e+01 7.4473000000000003e+00
0.0000000000000000e+00 1.4246057200000001e+01 -6.3660000000000005e-01
0.0000000000000000e+00 1.6498000000000001e+01 5.8282200000000017e-01
ITEM: ATOMS id type q x y z
6 4 1.28179 0.615132 1.75103 6.11344
170 2 0.180769 3.03319 0.370253 3.00678
63 1 -0.681271 4.84728 2.42973 3.5353
107 3 -0.791215 4.31655 5.3971 6.39134
250 2 0.191232 3.35176 5.88821 2.44421
27 4 0.966548 3.23904 6.31215 5.61078
50 1 -0.647542 3.04156 0.719826 1.91746
51 1 -0.697755 2.3388 2.33195 5.66289
171 2 0.172399 2.43463 1.73644 1.78447
204 2 0.168166 4.51622 2.90373 2.63496
205 2 0.186423 3.93733 2.54575 4.31796
276 2 0.208038 5.41608 0.482841 0.396938
249 2 0.172948 4.62656 4.31686 2.98475
277 2 0.160794 5.61844 1.70813 1.82253
274 1 -0.680108 6.06124 1.299 0.814134
175 2 0.251232 2.42301 3.43562 5.91267
174 2 0.218521 3.1191 1.69662 6.11895
173 2 0.169294 2.24388 2.22653 4.51443
203 2 0.16278 5.12781 1.31236 3.33353
104 3 -0.84886 4.56877 3.1351 7.92746
172 2 0.167457 4.25517 0.955577 1.47414
78 3 -0.772605 0.91349 0.447835 0.0604876
21 4 1.16823 6.52348 2.88825 4.38505
275 2 0.204991 7.14482 1.04669 0.768495
135 3 -0.797384 6.5802 4.8958 7.6959
234 2 0.182382 8.74967 4.17108 2.21464
251 2 0.113038 5.27583 6.32625 2.80107
101 3 -0.75907 5.40238 4.28393 0.148443
151 2 0.000930265 3.92304 6.6241 3.97414
247 1 -0.644428 4.43335 5.4533 2.51363
26 4 1.52503 5.39705 4.13271 6.98564
105 3 -0.806131 6.06336 3.2771 5.8128
235 2 0.170246 9.2799 3.43601 0.495906
202 2 0.166052 7.03535 4.52262 2.51428
201 2 0.166375 6.78298 5.39767 4.15228
62 1 -0.666623 7.30444 4.58076 3.62136
122 3 -0.793599 7.61818 1.66101 4.31337
246 4 1.07223 4.83144 5.68276 0.663774
200 2 0.164587 8.401 4.74889 3.84058
161 2 0.0544881 8.13405 3.87264 8.06142
252 2 0.168245 7.26683 6.48308 0.0847535
44 4 1.22438 6.48065 6.64247 8.37174
130 3 -0.82353 6.59199 3.06833 15.1309
110 3 -0.862942 4.11779 5.73856 11.1422
20 4 1.38733 3.70753 2.27009 8.94857
23 4 1.32727 2.62938 2.85481 13.978
28 4 1.23277 4.32063 4.61458 12.3243
208 2 0.174402 1.25613 1.61475 12.3339
61 1 -0.659077 2.33059 3.55631 9.6093
64 1 -0.647302 2.04438 1.2027 13.1495
96 3 -0.843519 2.95084 0.99957 8.36246
100 3 -0.757113 6.10386 0.547802 11.9753
97 3 -0.795453 4.02269 2.66199 14.917
98 3 -0.782596 1.25924 3.09271 14.9097
99 3 -0.811211 4.38732 1.82809 10.3591
108 3 -0.83412 2.95918 4.02565 12.9185
19 4 1.28231 5.12231 3.1813 15.8922
109 3 -0.824488 5.4726 3.43289 11.9826
199 2 0.192476 2.92841 4.44407 9.05032
198 2 0.175819 1.31045 3.32231 9.15266
197 2 0.220749 2.37779 3.56611 10.7471
24 4 1.47649 5.80787 2.10072 11.1648
207 2 0.199877 3.05773 0.863635 12.6412
152 2 0.0248361 5.16201 5.43394 13.6012
241 2 0.166774 6.92255 5.93079 13.5908
39 4 0.974855 8.41554 2.7565 9.30034
143 3 -0.859793 8.45759 7.0977 11.9641
41 4 1.36249 7.94981 2.51275 14.6243
76 1 -0.647275 6.38644 6.92636 13.8091
45 4 1.29698 8.78391 6.5454 10.5526
240 2 0.169392 6.19792 7.23998 15.0164
231 2 0.159145 8.35481 4.91191 14.9282
29 4 1.00536 4.22985 7.04118 10.3479
229 2 0.160343 9.01668 4.39599 13.201
242 2 0.116557 5.4413 7.18249 13.0399
165 2 0.0867107 8.97468 4.90505 10.911
138 3 -0.835853 7.5132 6.73451 9.56439
137 3 -0.857497 10.1595 6.76274 9.92479
124 3 -0.793235 7.16504 2.34394 10.1062
1 4 1.24517 9.46491 13.2666 0.912284
4 4 1.22279 9.61321 13.3474 7.80632
12 4 1.03827 12.1714 9.3756 1.63382
287 2 0.152009 10.3308 8.05702 2.44626
16 4 1.48672 10.9794 11.3842 5.62529
237 2 0.154779 7.10687 7.40298 6.04585
87 3 -0.779655 8.73501 11.9261 2.01661
80 3 -0.789386 8.17347 13.7535 7.2547
56 1 -0.685375 10.506 9.09599 2.62197
213 2 0.181385 13.482 12.4807 1.82699
187 2 0.215465 10.6428 9.39491 3.73832
66 1 -0.657282 14.0832 12.5489 2.80607
212 2 0.207737 13.7753 13.4538 3.43596
292 2 0.220547 12.6644 12.8062 7.6813
88 3 -0.813836 11.8474 10.3671 0.46616
114 3 -0.794949 12.5229 11.7751 4.85078
91 3 -0.810907 9.8235 11.4388 4.52146
92 3 -0.820721 11.166 9.89063 6.16154
93 3 -0.831899 10.4834 12.4464 6.77551
195 2 0.159281 7.49744 8.78867 0.0931897
188 2 0.190392 9.7612 9.81153 2.13184
253 2 0.137098 6.59988 7.54763 1.53619
75 1 -0.665896 6.85055 7.92474 7.04757
13 4 1.02833 8.51994 11.5239 3.56067
291 2 0.221943 8.3294 10.3343 0.885058
239 2 0.163155 5.83699 8.52973 7.065
238 2 0.17318 7.74032 8.58598 7.38857
149 2 0.0837301 7.32785 12.524 4.42938
273 2 0.12671 6.06542 11.0534 3.07448
272 2 0.0777583 7.73328 9.63038 3.61809
271 2 0.163881 6.09264 10.5704 4.89681
270 1 -0.653485 6.6965 10.8117 3.9889
248 1 -0.670114 6.41249 7.06259 0.488263
150 2 0.0252136 9.17472 9.49192 16.4966
89 3 -0.814206 11.436 8.41537 8.42951
14 4 1.45863 10.9038 12.0288 15.7157
67 1 -0.630774 13.0718 13.0164 8.73704
194 2 0.17064 12.2667 11.2122 12.0803
193 2 0.168275 11.1341 9.75585 11.5331
192 2 0.257058 10.8086 10.5833 13.2178
146 3 -0.796073 6.30069 9.09663 11.6523
59 1 -0.666174 11.6113 10.3359 12.3861
216 2 0.175528 12.2556 13.2081 9.64936
156 2 -0.0147783 12.1723 10.6396 10.5148
215 2 0.195652 14.0142 13.7245 8.80791
147 2 -0.0385043 9.36781 12.3325 9.09958
95 3 -0.820872 9.80549 11.2346 14.5795
119 3 -0.799069 12.3378 12.5082 15.1566
18 4 1.06568 8.70402 10.1768 14.9608
245 2 0.148919 6.43267 11.9361 12.1272
244 2 0.152519 7.80634 11.9456 10.8201
48 4 1.21756 7.52542 8.06281 12.7974
254 2 0.15918 5.40451 8.3346 16.2447
49 4 1.07768 5.9866 10.2351 10.6129
144 3 -0.799092 8.18222 9.09432 13.9444
196 2 0.140986 6.84552 11.2122 15.6681
77 1 -0.679386 6.74166 11.9786 10.913
169 2 0.00269405 7.36398 10.6691 9.62719
60 1 -0.671854 7.47349 10.4208 16.4044
153 2 0.0677251 5.053 8.04325 11.4705
206 2 0.218724 9.02606 14.0905 13.8381
136 3 -0.821806 4.85534 7.10991 9.00303
280 3 -0.778568 10.0908 13.1834 16.4579
2 4 1.37617 13.5989 1.54434 3.97491
177 2 0.136678 12.6401 4.16385 0.817868
236 2 0.144979 10.3306 4.83564 1.22569
36 4 1.21103 9.22945 1.39198 4.45626
228 2 0.181666 9.00056 1.34729 7.6178
40 4 1.23777 11.451 2.23768 6.15916
43 4 1.03482 10.8212 2.57811 2.01463
106 3 -0.777197 16.9981 5.53818 5.36896
164 2 0.0220736 11.9277 3.8299 2.43122
162 2 0.0836369 11.5834 3.8894 6.74198
286 2 0.152711 11.014 5.91772 4.86621
134 3 -0.78394 11.4691 1.39291 0.872683
133 3 -0.82993 10.0913 1.99305 3.21257