ITEM: TIMESTEP
0
ITEM: NUMBER OF ATOMS
310
ITEM: BOX BOUNDS xy xz yz pp pp pp
-9.0288000000000004e+00 1.5411400000000000e+01 -7.2027000000000001e+00
0.0000000000000000e+00 1.3079499999999999e+01 -1.8261000000000001e+00
0.0000000000000000e+00 1.7503399999999999e+01 3.3839999999999998e-01
ITEM: ATOMS id type q x y z element
73 2 0.0207141 0.285172 3.5488 3.46886 H
74 2 0.0539598 0.215952 3.94622 5.21166 H
75 2 0.0870477 -1.11282 4.46645 4.13347 H
76 1 -0.0923388 -0.338613 3.7452 4.31877 C
179 3 -0.714277 -3.13507 5.39517 6.05435 O
72 2 0.0232865 -0.346578 0.98058 5.74022 H
25 2 0.00962194 0.278681 1.57965 2.4052 H
159 2 0.332226 -2.75856 4.50294 5.74312 H
196 2 0.059358 -2.65388 6.26427 1.06578 H
42 1 -0.128181 0.943638 2.16261 1.7699 C
24 2 0.000332914 1.17798 1.84637 4.63025 H
278 2 -0.00825879 -1.92384 3.23537 1.85746 H
71 4 0.243159 -1.38598 2.02667 4.77881 Si
27 2 0.0366374 0.925494 3.24326 1.94011 H
197 2 0.0433632 -1.06346 5.78601 1.9521 H
301 2 0.0659828 -1.61757 1.74926 7.74702 H
26 2 0.0539928 0.904075 1.89811 0.724715 H
180 3 -0.640096 -0.48624 6.38011 7.66984 O
3 4 0.670895 2.74968 1.62746 2.58902 Si
48 3 -0.672137 3.09133 0.0593499 2.33905 O
22 2 0.0249917 2.66257 2.89397 4.86963 H
50 3 -0.702095 6.78261 0.761693 2.17418 O
23 2 0.0239976 2.74055 1.08414 5.13582 H
99 4 0.207711 4.11998 3.41159 7.7702 Si
41 1 -0.142828 2.25356 1.90287 4.63335 C
110 2 0.00753504 2.81961 4.17837 6.92723 H
107 2 0.0098744 4.75774 0.656833 6.75462 H
4 4 1.1243 5.54895 2.66949 2.00893 Si
33 2 0.0412409 3.65024 4.34961 4.57644 H
161 2 0.0872807 1.68763 2.48249 7.59586 H
49 3 -0.725882 3.90892 2.65447 2.17236 O
80 2 0.0225485 4.77354 0.457819 7.3281 H
51 3 -0.695083 5.91582 3.05185 0.421299 O
45 1 -0.126032 4.35156 5.07619 4.97255 C
103 2 0.2582 0.36701 3.14886 11.7382 H
111 2 0.256776 -0.520968 3.04811 13.0819 H
91 4 0.231514 -3.52953 5.62765 16.7235 Si
303 2 0.0572596 -2.27038 2.24734 14.5475 H
156 2 0.0447384 -1.68712 5.06989 9.76148 H
276 2 0.00870327 -0.124406 6.44721 14.4787 H
105 2 0.296975 -0.676298 1.94564 11.8844 H
133 3 -0.743573 -0.573275 3.01936 12.0978 O
93 2 0.0198991 -1.91278 5.99452 16.2488 H
142 4 0.0973705 -4.62686 6.06653 14.8453 Si
150 4 0.327769 -0.319794 6.03043 9.23988 Si
162 2 -0.00307783 -2.87291 5.7068 11.6814 H
52 3 -0.595678 -3.68223 3.99414 16.5762 O
125 2 0.0455945 2.09833 2.58732 15.644 H
124 2 0.0344864 1.28056 4.17859 15.9303 H
95 4 0.570372 3.3356 1.56682 9.7836 Si
104 2 0.274898 0.961743 0.907877 10.0958 H
288 2 0.0558944 2.26397 1.55462 17.0414 H
165 2 0.0508549 1.43401 4.80854 10.6681 H
131 1 -0.0960345 2.16736 3.65627 15.6054 C
290 1 -0.111009 2.8217 0.638035 17.0719 C
164 2 0.0855031 1.08233 3.86039 9.19085 H
163 2 0.0587784 2.2209 5.28631 9.11062 H
135 3 -0.620386 5.96541 0.799944 13.259 O
132 3 -0.632654 1.37074 1.35264 9.2386 O
94 4 -0.0760123 2.78137 2.1496 12.1795 Si
134 3 -0.634076 4.61979 0.244998 10.8158 O
287 2 0.0568676 3.83702 0.756047 17.415 H
136 3 -0.604619 3.79964 3.0619 9.36122 O
126 2 0.0807906 2.55726 3.96838 14.6613 H
97 4 0.689126 5.56648 1.29793 11.7165 Si
108 2 0.288852 4.70679 2.05315 14.4642 H
175 1 -0.0799541 1.38141 4.80781 9.59809 C
98 4 0.524317 3.55731 4.46342 16.8542 Si
208 4 0.583286 -4.17946 9.8814 1.67913 Si
153 4 0.664584 -3.1549 8.39551 8.58609 Si
158 2 0.053605 -4.69538 8.98962 8.10149 H
182 3 -0.709475 -2.51598 8.13761 7.12811 O
199 3 -0.733212 -3.51965 7.52323 3.85836 O
200 3 -0.654565 -2.6424 9.3849 2.18601 O
280 2 0.0624119 -6.38682 11.0832 6.4168 H
203 2 0.0226585 -5.39165 10.3322 4.19851 H
1 4 0.633449 -3.43927 12.047 1.05901 Si
228 2 0.0321153 -3.95167 11.4579 5.0998 H
230 2 0.0895707 -3.78998 9.75664 5.71627 H
77 4 0.403144 -5.40134 12.2062 8.47511 Si
193 4 0.6598 -2.32212 7.94377 2.82937 Si
232 1 -0.0922408 -3.48958 10.7877 5.81377 C
87 1 -0.0762899 -6.76201 11.9023 6.98706 C
229 2 0.0395525 -3.46747 11.1388 6.84198 H
309 3 -0.645002 -4.3792 10.9012 0.445995 O
279 2 0.026449 -6.68483 12.8622 6.49062 H
212 2 0.0675936 0.650062 11.1108 2.77137 H
195 2 0.0590907 -1.07468 7.23189 0.841011 H
160 2 0.298466 0.491094 6.69372 5.66805 H
185 3 -0.649165 0.988885 8.37987 1.0287 O
155 4 0.588141 1.45636 8.78557 2.52975 Si
222 4 0.30149 -1.49387 10.6888 5.27454 Si
154 4 0.451513 -0.778923 8.57301 4.54159 Si
194 2 0.0775017 -1.14537 11.3094 1.50943 H
233 3 -0.55823 -0.515223 10.812 6.56082 O
174 2 0.0495683 2.26246 7.05244 4.11279 H
198 1 -0.109546 -1.64466 6.48779 1.36192 C
152 4 0.998176 -1.72856 6.8233 6.68821 Si
173 2 0.0457828 3.17823 6.92312 2.51539 H
184 3 -0.643617 0.319491 9.28981 3.53906 O
183 3 -0.652472 -0.351645 6.69054 5.13775 O
178 1 -0.112697 2.85557 7.52773 3.35287 C
223 2 0.0412368 -1.34768 11.9616 4.06815 H
81 2 0.0719462 -0.761118 11.5388 1.03038 H
78 4 0.951138 -6.07569 10.8648 10.7723 Si
79 4 0.461254 -4.0633 12.4748 12.1832 Si
89 3 -0.68545 -5.19326 10.9 9.40261 O
90 3 -0.681062 -5.60968 12.0342 11.8232 O
151 4 0.56332 -3.82822 6.93608 10.9819 Si
157 2 -0.0366187 -3.47671 8.37385 11.8245 H
181 3 -0.68627 -3.37847 7.04866 9.42812 O
88 1 -0.121198 -3.41533 11.2561 13.6786 C
236 2 0.0300358 -2.93474 10.965 16.3964 H
86 2 0.045441 -2.91903 11.9363 14.3273 H
144 2 0.0665895 -4.79547 8.82972 16.2619 H
281 2 0.0634153 -7.01149 11.0634 14.9337 H
85 2 0.0325874 -4.34513 10.8566 14.0516 H
216 2 0.0932963 -4.92226 8.8178 15.3865 H
143 2 0.00170716 -3.19001 6.71829 14.1132 H
289 2 0.0316078 -4.49944 12.7585 16.2126 H
237 2 0.069009 -3.37005 9.50969 17.4653 H
82 2 0.256534 -5.66521 7.83931 13.4092 H
168 2 0.0252058 1.12214 7.57514 10.651 H
176 1 -0.119359 0.0635862 7.6425 10.4843 C
234 4 0.56781 -0.849137 9.7662 17.2739 Si
166 2 0.00965041 -0.558978 7.47668 11.3542 H
84 2 0.0199913 -2.78064 10.502 13.2242 H
167 2 0.0441412 -0.221435 8.5066 9.90214 H
170 2 0.0946537 -2.75638 10.7691 9.50105 H
169 2 0.0139528 -2.00307 9.54044 10.5953 H
239 1 -0.123663 -2.80348 9.91004 16.6368 C
177 1 -0.105963 -2.1125 9.9055 9.58619 C
235 2 -0.00876296 0.297596 9.02804 16.2327 H
269 2 0.00862861 0.195398 6.66571 13.6849 H
238 2 -0.00143211 -2.73919 9.28821 15.7649 H
277 2 0.00967737 -0.321223 11.3679 14.7575 H
171 2 0.0732051 -1.19574 9.9951 9.02102 H
9 4 1.11114 6.26038 4.96688 3.86948 Si
12 4 1.48293 8.38561 6.05773 5.79447 Si
92 2 0.251556 4.86003 6.14029 1.23796 H
30 2 0.0707137 8.24313 3.59264 1.52292 H
31 2 0.0939127 8.83393 3.32808 3.28747 H
44 1 -0.107331 8.99843 3.14957 2.23618 C
57 3 -0.777989 6.27548 3.47644 3.22737 O
61 3 -0.840749 7.26221 5.12 5.11732 O
62 3 -0.761485 8.89053 5.18305 7.10429 O
115 2 0.0833508 6.61495 4.16824 7.45909 H
293 1 -0.100341 8.08518 0.442781 5.26087 C
215 4 0.593229 8.18755 1.20153 1.38026 Si
294 2 0.0735802 8.79118 1.1327 5.67941 H
292 2 0.034634 7.07625 0.869742 5.25562 H
128 1 -0.0913806 6.18191 3.17479 7.37602 C
63 3 -0.83271 6.33883 6.07684 2.65173 O
19 2 -0.00318553 8.85302 2.75621 8.072 H
32 2 0.0225154 4.66184 4.93091 5.988 H
16 2 0.258035 7.00626 0.842071 3.17273 H
116 2 0.056464 6.24517 2.76745 6.36877 H
227 2 0.0375451 7.37315 0.589441 8.58396 H
117 2 0.039485 6.4018 2.4592 8.15761 H
141 3 -0.640838 5.16656 6.09959 0.0250316 O
34 2 0.047092 3.98588 6.05151 4.86106 H
59 3 -0.678137 10.1358 3.07786 5.80386 O
46 1 -0.100343 11.4615 4.06015 8.41844 C
56 3 -0.781348 11.3519 5.07808 3.25554 O
58 3 -0.762341 9.87623 6.11565 1.30971 O
7 4 0.946972 11.1482 1.81633 5.62965 Si
29 2 0.0454233 9.9126 2.52325 2.0658 H
53 3 -0.660899 12.6819 2.35349 5.65387 O
11 4 0.685177 9.8284 3.85202 7.21489 Si
5 4 0.607157 12.6579 3.25081 0.364054 Si
8 4 1.05032 10.4574 4.72871 1.89815 Si
310 3 -0.637208 9.39383 0.228829 1.85934 O
36 2 0.0704344 12.195 3.45251 7.91759 H
17 2 0.00878756 12.0679 1.62824 0.367717 H
55 3 -0.729166 11.2293 3.93791 0.700233 O
18 2 -0.0013564 10.6595 1.11745 4.04409 H
2 4 1.3073 11.266 6.14601 4.46648 Si
54 3 -0.761076 10.8979 0.687117 6.80329 O
60 3 -0.818433 9.7037 6.448 4.82689 O
274 2 0.00289492 13.6503 1.15682 3.30299 H
248 2 0.0962535 9.92513 6.37807 8.66836 H
35 2 0.116778 11.6486 5.12417 8.34372 H
43 1 -0.099051 13.5042 1.13676 8.60086 C
102 4 0.416997 5.60312 4.90066 15.5519 Si
100 4 0.711464 4.52678 3.81412 12.9655 Si
137 3 -0.650888 5.84898 3.36271 11.4428 O
140 3 -0.735576 6.48243 5.69683 16.6858 O
190 2 0.0729394 7.93882 4.42028 15.7253 H
187 4 0.260945 6.31156 6.2362 13.8625 Si
220 1 -0.0860801 6.404 1.64122 16.8803 C
217 2 0.0623814 5.71711 0.846514 16.5859 H
109 2 0.289589 5.08563 3.63059 10.7572 H
250 2 0.053633 7.83064 3.85891 9.53309 H
299 2 0.0513281 8.15109 2.06755 14.6387 H
189 2 0.0402695 6.14599 5.46165 9.54938 H
219 2 0.0801248 6.05636 2.6308 16.6776 H
139 3 -0.689153 4.79988 3.11667 14.4875 O
138 3 -0.635198 3.65914 5.16929 12.9869 O
218 2 0.0446197 7.4063 1.4261 16.606 H
247 4 0.305155 9.18557 6.0191 10.1711 Si
146 2 0.0422511 11.1866 4.21923 12.9299 H
251 2 0.0677445 8.43918 3.76587 11.2111 H
255 1 -0.0996195 8.65619 3.99919 10.1879 C
28 2 0.0447436 12.9404 1.66577 9.34692 H
114 2 0.0329826 9.04101 0.649669 15.3468 H
300 2 0.0165924 9.38733 1.22635 13.6069 H
257 3 -0.630756 10.1009 6.50881 11.394 O
127 1 -0.113083 8.71938 1.17665 14.4475 C
188 2 0.0876991 8.49586 3.95865 16.1971 H
147 2 0.0662482 9.44397 4.68456 13.2454 H
304 2 0.0934619 13.0319 0.512402 15.032 H
145 2 0.0547257 10.3084 3.51557 14.3609 H
240 4 0.315105 12.11 0.703418 12.7129 Si
243 2 0.0501103 11.8953 2.93033 11.5561 H
244 2 0.0601664 11.5845 1.58804 15.1087 H
245 1 -0.106983 11.2204 2.08606 11.4872 C
242 2 0.0593098 11.2435 1.59725 10.5291 H
148 1 -0.078396 10.3708 4.3267 13.6372 C
246 1 -0.0729758 12.5312 1.36313 14.6406 C
249 2 0.00857383 9.56623 3.55995 9.81218 H
241 2 0.0208565 10.2436 2.22627 11.9446 H
37 2 0.0110095 11.1999 3.74543 9.40749 H
302 2 0.0658089 14.2718 0.467945 8.99946 H
38 2 0.0304213 4.55961 11.8551 3.53504 H
39 2 0.0462272 3.58358 12.1166 5.06365 H
40 2 0.0201265 3.40379 10.5593 4.14902 H
47 1 -0.127845 4.01433 11.4159 4.37268 C
295 2 0.0820671 3.27591 10.959 6.79052 H
231 1 -0.0938278 0.882048 12.5213 8.59659 C
6 4 0.981799 4.7176 12.5641 7.78492 Si
213 2 -0.0271963 3.42871 10.5276 2.05222 H
264 1 -0.0720981 4.94502 8.8525 0.405779 C
291 2 0.0455329 1.19434 12.6798 4.36289 H
298 1 -0.0766746 2.35819 10.4196 6.68334 C
211 4 0.540097 1.96051 11.3398 1.65821 Si
296 2 0.0599306 2.21437 9.95328 5.7352 H
69 3 -0.658125 5.08131 8.57124 5.45656 O
261 2 0.0580907 5.0103 9.11494 1.45722 H
221 4 0.318676 0.767076 11.7384 6.71956 Si
21 2 -0.00744598 5.52242 7.02102 7.95905 H
263 2 0.0627802 4.06327 8.28551 0.130206 H
259 2 0.0623722 4.07984 11.8102 0.279683 H
70 3 -0.734774 5.39565 11.2523 7.06498 O
15 4 0.769408 5.57043 10.5955 5.58242 Si
297 2 0.0453253 2.1528 9.75227 7.52354 H
172 2 0.067867 3.64852 8.14987 3.74712 H
214 3 -0.652526 1.5551 10.9149 0.126935 O
225 2 0.0910451 1.91651 12.8206 8.67647 H
286 2 0.0343349 7.57159 12.2706 2.44003 H
206 1 -0.0851133 9.48053 9.4107 4.1637 C
68 3 -0.677272 7.04603 10.855 4.86852 O
209 2 0.100101 10.28 8.32339 1.56214 H
204 2 0.0611748 9.6845 8.7005 3.40564 H
224 2 0.32917 5.7119 8.34727 4.6754 H
207 1 -0.11455 7.66005 11.3278 1.92126 C
83 2 0.101073 7.7335 11.6734 7.50137 H
205 2 0.0523819 8.6132 11.1448 1.47483 H
201 4 0.610744 7.58561 10.0204 3.58149 Si
13 4 1.13153 7.25191 7.33043 2.37964 Si
14 4 0.50088 6.3965 8.04588 6.86929 Si
20 2 0.0699111 6.85137 9.49438 7.73258 H
285 2 0.0403067 6.83191 11.0833 1.31192 H
64 3 -0.830345 7.75794 7.3263 0.854522 O
65 3 -0.770282 6.77016 8.69108 3.09762 O
67 3 -0.76326 7.72165 7.46498 6.23444 O
202 2 0.117722 9.30759 8.91634 5.11926 H
112 2 0.331393 6.05971 6.45373 0.507981 H
10 4 1.23736 8.883 6.54857 0.0135586 Si
262 2 0.0915771 5.87456 8.48162 0.0553085 H
268 2 -0.0227067 2.45285 10.6121 10.8484 H
130 1 -0.113263 4.10806 7.68392 11.2634 C
265 4 0.657234 3.97338 10.7151 10.0308 Si
260 2 0.0210299 1.86348 10.778 15.4431 H
121 2 0.0379574 4.32974 6.81724 10.636 H
305 2 0.0451482 3.18342 12.2606 14.3201 H
306 2 0.0674655 4.11681 11.0498 13.3737 H
307 2 0.0200675 2.83901 12.0649 12.5465 H
308 1 -0.100643 3.55478 11.9787 13.3527 C
123 2 0.0155942 3.11804 8.12261 11.1325 H
119 2 0.0111052 2.55872 8.55163 14.218 H
270 3 -0.716743 3.96251 12.0577 9.1682 O
258 4 0.0590662 2.90827 10.8896 16.8111 Si
106 2 -0.000288663 0.489754 11.6726 12.3222 H
226 2 0.0416964 0.611241 11.7001 9.23173 H
96 4 0.26658 0.0543222 12.694 13.6785 Si
129 1 -0.0916715 3.0455 7.69115 14.6754 C
101 4 0.28213 4.0964 6.76234 13.1171 Si
267 2 -0.00247948 4.15227 9.35742 8.99068 H
120 2 0.0801676 3.85287 7.94255 15.3375 H
118 2 0.0608656 2.41166 6.89955 15.0553 H
122 2 0.0772636 4.87594 8.44321 11.3012 H
275 2 0.250712 4.87117 10.8195 15.397 H
66 3 -0.665308 4.8451 11.5092 16.1005 O
266 4 1.06831 6.45744 11.4267 11.3663 Si
252 2 0.0580776 7.50345 7.47279 11.207 H
149 3 -0.707309 9.26439 7.83095 14.4386 O
284 1 -0.107844 7.79816 10.4146 14.2894 C
283 2 0.0332184 8.08226 10.3843 13.2397 H
282 2 0.044674 6.73162 10.53 14.4302 H
113 2 0.25454 5.30168 11.1022 16.8951 H
271 3 -0.760273 7.70183 10.835 10.5094 O
186 4 0.855904 7.93264 8.40117 14.9997 Si
272 3 -0.74562 5.08754 10.6061 11.2018 O
254 2 0.0616481 7.94168 8.19674 9.57784 H
256 1 -0.0994294 7.59997 7.31981 10.1306 C
273 3 -0.684007 6.30549 12.8777 12.0599 O
191 3 -0.719428 8.04331 8.75699 16.8688 O
192 3 -0.633083 6.50756 7.71315 14.571 O
253 2 0.0189173 6.77017 6.75227 9.64965 H
210 2 0.31519 7.63049 9.54387 17.0489 H
ITEM: TIMESTEP
100
ITEM: NUMBER OF ATOMS
310
ITEM: BOX BOUNDS xy xz yz pp pp pp
-9.0288000000000004e+00 1.5411400000000000e+01 -7.2027000000000001e+00
0.0000000000000000e+00 1.3079499999999999e+01 -1.8261000000000001e+00
0.0000000000000000e+00 1.7853467999999999e+01 3.3839999999999998e-01
ITEM: ATOMS id type q x y z element
73 2 0.0173671 0.499914 3.76054 3.95535 H
74 2 0.069138 -0.0342764 4.25551 5.59452 H
75 2 0.0985646 -1.07603 4.68824 4.16911 H
76 1 -0.0784688 -0.342485 4.021 4.5836 C
179 3 -0.698318 -3.19065 5.44676 6.1138 O
72 2 0.0158752 -0.441312 0.877379 5.50742 H
25 2 0.0271538 0.465225 1.53863 1.69307 H
159 2 0.324477 -2.83354 4.57228 5.79039 H
32 2 0.00113532 4.31899 4.51169 5.42052 H
42 1 -0.117071 1.1829 2.33587 1.66109 C
24 2 0.00855538 1.52568 1.11751 4.874 H
45 1 -0.120487 4.25494 5.04005 4.48104 C
71 4 0.240224 -1.34308 2.19725 4.73632 Si
27 2 0.0324132 0.904405 3.26027 2.14988 H
197 2 0.0738386 -2.17186 5.52661 1.66869 H
301 2 0.0591894 -1.43466 1.41085 7.53484 H
26 2 0.0610727 1.67942 2.47452 0.707353 H
180 3 -0.668465 -0.490532 6.29997 7.68482 O
3 4 0.655873 2.86661 1.66874 2.66623 Si
16 2 0.257517 6.6904 0.701149 3.0982 H
22 2 0.0102231 2.46749 2.67494 5.084 H
50 3 -0.720235 6.74431 0.769894 2.08229 O
23 2 0.026038 3.29339 1.06184 5.19632 H
99 4 0.209575 4.20442 3.45251 7.80697 Si
41 1 -0.143564 2.47129 1.64553 4.78524 C
110 2 0.016798 2.90436 4.44005 7.16349 H
107 2 0.00811968 5.06387 0.665571 6.07303 H
4 4 1.24306 5.57722 2.69705 1.88358 Si
33 2 0.076512 3.77533 4.47544 3.70145 H
161 2 0.0470929 1.04202 1.85924 7.06338 H
49 3 -0.762474 4.00547 2.68493 2.1161 O
80 2 0.0240351 5.04361 0.633956 7.08285 H
48 3 -0.693546 3.11472 0.0926709 2.42475 O
35 2 0.119342 -3.64614 5.11177 8.49372 H
103 2 0.275122 -0.136516 2.54132 11.0924 H
111 2 0.238515 0.0896161 2.81049 12.8133 H
91 4 0.233221 -3.16955 5.7053 16.815 Si
303 2 0.0445652 -2.56537 2.5672 14.3696 H
156 2 0.0315543 -1.60678 4.77445 9.7018 H
175 1 -0.0685755 1.3972 4.81052 9.488 C
105 2 0.303347 -1.18503 2.3229 12.2093 H
133 3 -0.752406 -0.557826 2.97323 11.9582 O
93 2 0.0162975 -1.51501 5.98493 16.3735 H
142 4 0.101923 -4.38744 6.30861 14.9509 Si
150 4 0.346124 -0.395963 5.89365 9.22585 Si
162 2 -0.00550268 -2.86707 5.37871 11.4435 H
52 3 -0.575727 -3.53965 4.00106 16.9052 O
125 2 0.0456733 2.10486 2.9226 15.8564 H
124 2 0.0472156 1.14948 4.27764 16.6708 H
95 4 0.566758 3.24664 1.57659 9.81225 Si
104 2 0.305281 0.966738 0.877054 10.2252 H
288 2 0.027655 1.94287 0.634857 16.3785 H
165 2 0.0800909 1.41683 4.46616 10.5261 H
131 1 -0.11247 1.87918 3.97638 15.927 C
290 1 -0.124625 2.73872 0.520786 17.0884 C
164 2 0.0824643 1.31174 4.00705 8.76548 H
163 2 0.0539317 2.15248 5.53769 9.22871 H
135 3 -0.631615 5.94604 0.665426 12.9872 O
132 3 -0.629658 1.25841 1.22729 9.3106 O
94 4 -0.0336649 2.91416 2.15517 12.1603 Si
134 3 -0.626717 4.68745 0.236763 10.6499 O
269 2 0.0131734 -0.642575 5.94727 13.7844 H
136 3 -0.590396 3.71147 3.07992 9.33798 O
126 2 0.0450766 1.81899 4.46653 14.9487 H
97 4 0.721445 5.63924 1.25974 11.5293 Si
304 2 0.0652926 -1.80161 1.0095 14.9086 H
287 2 0.0589205 3.15041 1.43786 17.4358 H
92 2 0.216374 2.35348 6.61168 16.8572 H
276 2 0.0020335 -0.175074 6.61623 13.686 H
208 4 0.607494 -4.14213 9.82419 1.9006 Si
153 4 0.666399 -3.18274 8.2539 8.63965 Si
158 2 0.0436139 -4.76859 8.64736 8.12933 H
182 3 -0.685735 -2.3863 8.08965 7.19817 O
199 3 -0.704031 -3.41969 7.463 4.04248 O
200 3 -0.651162 -2.57755 9.43426 2.31057 O
280 2 0.0501472 -6.32872 10.7807 6.47068 H
203 2 0.00198519 -5.49127 10.3714 3.68569 H
1 4 0.675894 -3.61512 12.0339 1.12408 Si
228 2 0.0192983 -4.11427 11.3506 5.46072 H
230 2 0.0950567 -3.92186 9.6087 5.89971 H
77 4 0.41539 -5.45882 12.2438 8.32246 Si
193 4 0.593781 -2.28588 7.91001 2.87477 Si
232 1 -0.0847468 -3.61177 10.6325 6.09326 C
87 1 -0.0797929 -6.85653 11.6295 6.87221 C
229 2 0.0575959 -3.53392 10.8982 7.1361 H
309 3 -0.70338 -4.45841 10.7744 0.70514 O
81 2 0.0905581 -0.709608 11.3437 1.4026 H
212 2 0.0539376 0.940792 11.1859 3.07127 H
195 2 0.0506401 -1.24706 7.04712 1.06549 H
160 2 0.269063 0.472598 6.92326 5.48387 H
185 3 -0.640531 0.844216 8.36581 1.09818 O
155 4 0.554289 1.3244 8.82625 2.61177 Si
222 4 0.301299 -1.68228 10.6497 5.40417 Si
154 4 0.458944 -0.852167 8.66109 4.52694 Si
194 2 0.112849 -0.851688 10.6668 1.59908 H
233 3 -0.549894 -0.703189 10.6768 6.70575 O
174 2 0.0407336 2.46089 7.06476 4.04051 H
279 2 0.0365143 -6.97975 12.4457 6.13685 H
152 4 1.02369 -1.6429 6.76191 6.6776 Si
173 2 0.0753777 3.11214 6.97176 2.3473 H
184 3 -0.642734 0.185401 9.47819 3.53776 O
183 3 -0.65625 -0.404527 6.70421 5.02446 O
178 1 -0.104997 2.88751 7.59318 3.19859 C
223 2 0.0325976 -1.53057 11.9361 4.21589 H
196 2 0.0871639 -3.14746 6.84576 0.846204 H
198 1 -0.0890825 -2.16685 6.45849 1.15883 C
209 2 0.0907813 -4.85445 8.36667 1.52508 H
78 4 0.985163 -6.06867 11.0275 10.7054 Si
79 4 0.461825 -3.98822 12.4883 12.1332 Si
89 3 -0.681147 -5.10881 11.0478 9.38564 O
90 3 -0.692528 -5.52797 12.1968 11.6878 O
151 4 0.572774 -3.80574 6.7592 11.0751 Si
157 2 -0.0227955 -3.2298 8.03291 12.0409 H
181 3 -0.701719 -3.34978 6.97195 9.55624 O
88 1 -0.117593 -3.2626 11.3507 13.6823 C
236 2 0.0270462 -2.6379 10.9299 16.1539 H
86 2 0.055616 -2.76848 12.0826 14.3224 H
144 2 0.0744902 -5.47175 10.5553 16.2118 H
226 2 0.0586582 -0.00572624 11.9853 9.09877 H
85 2 0.0249163 -4.11668 10.854 14.0954 H
216 2 0.0575525 -5.67423 10.0416 15.6315 H
283 2 0.0367535 -6.87585 10.6237 13.583 H
289 2 0.0232609 -3.73485 12.5136 16.8257 H
237 2 0.0659486 -3.32646 9.66986 17.2943 H
171 2 0.0883969 -1.45512 10.0812 8.98823 H
168 2 0.0209303 0.78047 7.28516 11.0594 H
176 1 -0.11304 -0.107945 7.54678 10.4939 C
234 4 0.564512 -0.770651 9.75292 17.3812 Si
166 2 0.017539 -1.01466 7.58501 11.0797 H
84 2 0.0298222 -2.61094 10.7195 13.1181 H
167 2 0.0528794 -0.00241197 8.36272 9.80142 H
170 2 0.113175 -3.06647 10.6337 9.60783 H
169 2 0.0141059 -2.08 9.43814 10.5657 H
239 1 -0.119696 -2.64684 9.91585 16.4842 C
177 1 -0.0966057 -2.31389 9.86437 9.60414 C
235 2 -0.0185494 0.53891 9.14393 16.4544 H
277 2 0.0150455 -0.502862 11.5443 14.7957 H
238 2 0.0150085 -2.6247 9.21843 15.6587 H
143 2 0.00263538 -3.01157 6.92775 13.9742 H
9 4 1.14142 6.35972 4.86395 3.86416 Si
12 4 1.37384 8.5286 6.11279 5.87052 Si
43 1 -0.095952 13.6423 0.937596 8.44047 C
30 2 0.0845742 8.42149 3.74829 1.67423 H
31 2 0.109667 8.67831 3.2186 3.36195 H
44 1 -0.0848092 8.90982 3.0542 2.33581 C
57 3 -0.796508 6.38651 3.42116 3.12726 O
61 3 -0.813667 7.39222 5.17569 5.07493 O
62 3 -0.757845 9.18833 5.26345 7.15067 O
115 2 0.0656707 6.58996 4.38227 7.31743 H
293 1 -0.101454 8.05585 0.385538 5.42883 C
215 4 0.607342 8.24411 1.16862 1.46926 Si
294 2 0.070514 8.51961 1.1662 6.01386 H
292 2 0.0278929 7.05539 0.620046 5.17737 H
128 1 -0.103542 6.27875 3.34347 7.37624 C
63 3 -0.810618 6.38203 6.08404 2.81152 O
19 2 -0.0176055 8.92945 2.82144 8.17553 H
54 3 -0.755996 11.1125 0.553179 6.53696 O
278 2 -0.010571 13.3167 2.65655 1.88295 H
116 2 0.0446959 6.32813 2.84615 6.42494 H
227 2 0.030732 7.51933 0.777824 8.18114 H
117 2 0.032056 6.70036 2.75758 8.181 H
274 2 0.0092834 13.6517 1.21692 3.31235 H
34 2 0.0548834 4.00155 6.11098 4.55215 H
59 3 -0.701609 10.139 3.05022 5.84274 O
46 1 -0.0920542 11.6304 4.05552 8.35756 C
56 3 -0.757216 11.4079 4.88702 3.23476 O
58 3 -0.75283 9.96573 6.2804 1.27419 O
7 4 0.97507 11.2209 1.86958 5.56504 Si
29 2 0.0293615 9.91651 2.69723 2.17774 H
53 3 -0.663343 12.7398 2.46413 5.62134 O
11 4 0.70461 9.92283 3.8275 7.23922 Si
5 4 0.623467 12.552 3.11412 0.428861 Si
8 4 1.01336 10.5084 4.83175 1.83004 Si
310 3 -0.650948 9.52747 0.204787 1.75411 O
36 2 0.0783078 12.4307 3.59481 7.79177 H
51 3 -0.737028 5.95274 3.31941 0.496513 O
55 3 -0.709658 11.3064 4.12186 0.633926 O
18 2 -0.00202387 10.8834 1.26122 3.93777 H
2 4 1.22049 11.2383 6.07535 4.45047 Si
141 3 -0.623341 4.98082 6.06279 0.0157226 O
102 4 0.378644 5.70243 4.83661 15.7937 Si
100 4 0.760417 4.70442 3.77618 12.9587 Si
137 3 -0.699102 5.98473 3.30124 11.3693 O
140 3 -0.728086 6.3841 5.61176 17.098 O
190 2 0.0523062 8.4665 5.1329 15.3302 H
187 4 0.19514 6.25133 6.21825 14.0042 Si
220 1 -0.0873928 6.25868 1.6074 16.9406 C
217 2 0.0661296 6.02339 0.613918 16.6674 H
109 2 0.307304 5.54108 3.37904 10.5714 H
250 2 0.0457439 7.84126 4.05899 9.71052 H
299 2 0.052218 8.09254 1.94977 14.3923 H
189 2 0.0462618 5.51999 5.70288 10.2003 H
219 2 0.0876407 5.48908 2.33166 16.7225 H
139 3 -0.71684 4.85084 3.16718 14.4438 O
138 3 -0.623387 3.77294 5.1254 12.8155 O
218 2 0.0394145 7.28089 1.92632 16.7465 H
247 4 0.27831 9.12008 6.16406 10.2576 Si
146 2 0.0545985 10.8714 4.87881 12.8775 H
251 2 0.0783433 7.99174 4.42333 11.4822 H
255 1 -0.0935761 8.50905 4.25456 10.5476 C
28 2 0.0446181 13.139 1.56472 9.17477 H
114 2 0.0310637 8.89392 0.559369 15.2218 H
300 2 0.0191545 9.49497 1.10955 13.5758 H
257 3 -0.626021 10.0629 6.53174 11.5163 O
127 1 -0.112355 8.66763 1.02995 14.2767 C
188 2 0.0852543 8.36157 5.68733 15.8848 H
147 2 0.041105 9.69008 4.03991 13.9947 H
17 2 0.00870724 9.94564 2.03084 17.3112 H
145 2 0.0543035 11.4949 3.87712 14.2515 H
240 4 0.293194 12.1449 0.632264 12.8268 Si
243 2 0.0419285 11.9067 2.59621 11.2034 H
244 2 0.0710455 11.845 1.35525 15.2521 H
245 1 -0.111403 11.1373 1.94872 11.5893 C
242 2 0.0541332 10.6745 1.33869 10.8255 H
148 1 -0.0852988 10.6959 4.47968 13.8671 C
246 1 -0.0796167 12.7 1.54423 14.6381 C
249 2 0.0243908 9.33809 3.58762 10.6465 H
241 2 0.0190076 10.4437 2.41695 12.2583 H
37 2 0.00265472 11.3592 3.56379 9.28359 H
302 2 0.0765524 14.2744 0.177439 8.85132 H
98 4 0.572319 3.60616 4.54467 16.8274 Si
108 2 0.28058 5.19881 2.15054 14.37 H
248 2 0.108617 9.90185 6.25423 8.75251 H
38 2 0.0438156 4.49369 11.7961 3.37125 H
39 2 0.0521219 3.36192 11.969 4.76232 H
40 2 0.00139758 3.39417 10.4431 3.77892 H
47 1 -0.126137 3.94194 11.2968 4.14262 C
295 2 0.0674894 3.06717 10.7567 6.50805 H
231 1 -0.0948416 0.670009 12.5452 8.4666 C
6 4 0.984906 4.76727 12.4328 7.6731 Si
213 2 -0.0179623 3.60715 10.5676 1.78257 H
264 1 -0.06884 4.88751 9.07463 0.591719 C
291 2 0.0391951 1.45403 12.759 4.60948 H
298 1 -0.0818262 2.20703 10.1238 6.61299 C
211 4 0.570763 2.06838 11.3502 1.75044 Si
296 2 0.0568782 1.95199 9.52382 5.74034 H
69 3 -0.666319 4.93972 8.48911 5.36952 O
261 2 0.0833374 5.1478 9.53995 1.5142 H
221 4 0.304844 0.667257 11.5171 6.72206 Si
262 2 0.0859959 5.72155 8.51538 0.161619 H
263 2 0.0433606 3.93706 8.58429 0.527968 H
60 3 -0.793694 9.69453 6.51804 4.77293 O
70 3 -0.734825 5.39466 11.0814 6.92548 O
15 4 0.858937 5.41131 10.4914 5.41389 Si
297 2 0.04263 2.19868 9.56755 7.51576 H
172 2 0.0574228 3.64544 8.31869 3.39794 H
214 3 -0.669234 1.55471 10.9093 0.303801 O
10 4 1.23846 8.77864 6.60163 0.119978 Si
286 2 0.0326805 7.74965 12.4296 2.33581 H
206 1 -0.098319 9.43846 9.47573 4.06085 C
68 3 -0.684011 6.73878 10.877 4.61321 O
21 2 -0.00769212 5.62544 6.55486 7.66809 H
204 2 0.0919103 9.70474 8.53178 3.58653 H
224 2 0.318839 5.42359 8.13954 4.58082 H
207 1 -0.104707 7.69222 11.5041 1.82913 C
83 2 0.105864 7.68295 11.3608 7.43654 H
205 2 0.0638595 8.58434 11.2413 1.29811 H
201 4 0.620466 7.53213 10.0973 3.40475 Si
13 4 1.2115 7.14421 7.39138 2.48617 Si
14 4 0.438923 6.25094 7.92324 6.81768 Si
20 2 0.0683922 6.21024 9.20026 8.01553 H
285 2 0.0601338 6.75702 11.3582 1.29781 H
64 3 -0.810875 7.80492 7.51726 1.02027 O
65 3 -0.765369 6.6273 8.81207 2.97832 O
67 3 -0.689864 7.80922 7.57092 6.38501 O
202 2 0.0838058 9.35453 9.42716 5.10303 H
225 2 0.0798643 1.70964 12.5107 8.74812 H
268 2 -0.0200396 2.34682 10.728 10.7889 H
130 1 -0.108174 4.01526 7.74661 11.4001 C
265 4 0.613526 3.90896 10.7653 10.0162 Si
260 2 0.00639819 2.21094 10.3441 15.4314 H
121 2 0.0423707 3.5362 7.00887 10.7672 H
305 2 0.0357527 3.44078 12.0216 14.2587 H
306 2 0.0739329 4.12976 10.8922 13.0237 H
307 2 0.0159561 2.736 11.9779 12.6157 H
308 1 -0.108572 3.61071 11.8131 13.2164 C
123 2 0.0320727 3.4468 8.61719 11.6929 H
119 2 0.0114515 2.01453 7.83656 13.9393 H
270 3 -0.708016 3.88791 12.071 9.01137 O
258 4 0.071839 3.0025 11.0392 16.7934 Si
106 2 0.00112658 0.5216 11.2992 12.3213 H
281 2 0.0409682 7.1847 10.9618 14.731 H
96 4 0.225318 0.0983322 12.5291 13.4888 Si
129 1 -0.116453 2.90855 7.58714 14.4817 C
101 4 0.302659 4.12203 6.67598 13.1257 Si
267 2 0.00350461 4.00772 9.32832 9.05401 H
120 2 0.0392096 3.471 8.45641 14.8041 H
118 2 0.0306735 2.78544 6.83648 15.2375 H
122 2 0.0560194 5.05956 8.00081 11.2333 H
275 2 0.244944 4.91387 11.2794 15.3667 H
66 3 -0.657489 4.91905 11.7002 16.2475 O
266 4 1.04854 6.42668 11.4205 11.3062 Si
252 2 0.0535158 7.58174 8.10572 10.9268 H
149 3 -0.694721 9.18143 7.67545 14.4271 O
284 1 -0.12464 7.56667 10.3099 13.9608 C
82 2 0.295199 9.04565 7.18709 13.5726 H
282 2 0.0283983 6.8455 10.0487 13.2006 H
113 2 0.250322 5.54187 11.0406 16.7212 H
271 3 -0.773078 7.73674 11.0664 10.4144 O
186 4 0.864712 7.82912 8.41434 15.0348 Si
272 3 -0.736144 5.07411 10.5259 11.1477 O
254 2 0.0572527 7.72485 7.88331 9.11993 H
256 1 -0.104728 7.51651 7.42363 10.0799 C
273 3 -0.680387 6.27065 12.8427 12.0207 O
191 3 -0.733469 7.89805 8.75634 16.6821 O
192 3 -0.637342 6.38007 7.67038 14.7876 O
253 2 0.0155165 6.64073 6.70076 10.0377 H
210 2 0.314631 7.6836 9.63825 17.0577 H
259 2 0.0771716 1.91691 12.2979 17.3366 H
112 2 0.271949 4.0608 7.03305 17.2941 H
ITEM: TIMESTEP
200
ITEM: NUMBER OF ATOMS
310
ITEM: BOX BOUNDS xy xz yz pp pp pp
-9.0288000000000004e+00 1.5411400000000000e+01 -7.2027000000000001e+00
0.0000000000000000e+00 1.3079499999999999e+01 -1.8261000000000001e+00
0.0000000000000000e+00 1.8203536000000000e+01 3.3839999999999998e-01
ITEM: ATOMS id type q x y z element
73 2 0.0153055 0.903078 3.6942 4.65481 H
74 2 0.101017 -0.402184 4.47923 5.62214 H
75 2 0.0658354 -0.540899 4.46393 3.78171 H
76 1 -0.0843363 -0.125413 4.00454 4.69056 C
179 3 -0.700456 -3.13625 5.49253 6.0501 O
72 2 0.00636627 -0.237857 1.02971 5.51364 H
25 2 0.0202637 0.606305 1.49643 1.63854 H
159 2 0.327413 -2.77096 4.63677 5.75555 H
32 2 0.041189 4.15977 3.87765 4.76996 H
42 1 -0.126308 1.30586 2.30491 1.49137 C
24 2 0.0128845 2.21311 1.05499 4.89631 H
45 1 -0.115471 4.38549 4.93698 4.65438 C
71 4 0.238437 -1.24911 2.28365 4.80509 Si
27 2 0.0282423 1.01052 3.22149 1.96116 H
197 2 0.0582232 -2.4474 5.97592 1.55429 H
301 2 0.0527232 -1.32149 1.33135 7.38901 H
26 2 0.0492524 1.6374 2.41089 0.47288 H
180 3 -0.653924 -0.434451 6.17017 7.60706 O
3 4 0.62532 2.92488 1.69155 2.61051 Si
16 2 0.24967 6.70226 0.798768 3.04944 H
22 2 0.012376 2.4199 2.86017 4.89524 H
50 3 -0.657023 6.69167 0.771767 1.96421 O
23 2 0.0409839 3.84706 1.75732 4.9959 H
99 4 0.209415 4.16858 3.56275 7.73095 Si
41 1 -0.127256 2.83713 1.88928 4.67093 C
110 2 0.0153571 3.33227 5.12236 7.44382 H
107 2 0.0335237 5.2024 0.322909 7.55177 H
4 4 1.07331 5.69174 2.71866 1.89934 Si
33 2 0.0606694 3.80774 5.39894 3.85571 H
161 2 0.077072 1.08721 2.40949 7.58432 H
49 3 -0.703759 4.12124 2.80645 2.30292 O
35 2 0.113793 -3.57318 4.98077 8.40939 H
48 3 -0.66363 3.35817 0.141635 2.43021 O
278 2 -0.0182881 -1.86351 3.0903 1.7787 H
103 2 0.260396 0.0120545 2.82913 10.7695 H
111 2 0.263977 0.334604 3.07581 12.2411 H
91 4 0.26974 -3.24342 5.74919 17.044 Si
303 2 0.0562599 -2.09427 2.40452 14.0699 H
156 2 0.0493941 -1.68568 4.88384 9.74513 H
175 1 -0.0787242 1.39927 4.63051 9.53633 C
105 2 0.304284 -0.77628 1.87481 11.7701 H
133 3 -0.74746 -0.462798 2.9301 11.679 O
93 2 0.023947 -1.63728 6.12573 17.6732 H
142 4 0.067575 -4.30645 6.413 15.3145 Si
150 4 0.31731 -0.299692 5.78351 9.19185 Si
162 2 -0.0086617 -3.3537 5.28807 11.8457 H
52 3 -0.609301 -3.49102 4.18304 16.9765 O
125 2 0.0674948 2.48124 3.0261 15.7287 H
124 2 0.0350521 1.07276 3.70852 16.7231 H
95 4 0.54615 3.23285 1.65059 9.71622 Si
104 2 0.310443 0.889315 0.981025 10.1372 H
145 2 0.041609 -3.45316 4.39236 13.8078 H
165 2 0.0563 1.42889 4.60372 10.6199 H
131 1 -0.111791 1.93412 3.90768 16.0801 C
290 1 -0.116886 2.43732 0.632311 17.4525 C
276 2 0.0148053 -1.11687 5.62236 13.1627 H
163 2 0.0557466 2.17998 5.2266 9.06311 H
135 3 -0.635104 5.99028 0.610817 12.8316 O
132 3 -0.657422 1.19137 1.34697 9.26963 O
94 4 -0.0271784 2.98521 2.16169 12.0505 Si
134 3 -0.63041 4.53555 0.224254 10.5515 O
269 2 0.0153423 -0.710151 5.58519 13.7182 H
136 3 -0.607187 3.83087 3.09164 9.26491 O
126 2 0.0354094 1.77226 4.64721 15.3185 H
97 4 0.720145 5.64754 1.21369 11.3875 Si
304 2 0.0689702 -1.53571 0.847498 14.7493 H
98 4 0.58388 3.45709 4.68249 17.2763 Si
164 2 0.0818097 1.25887 3.67062 9.04632 H
219 2 0.094265 5.24641 1.52978 16.9716 H
289 2 0.0520663 3.48015 0.380839 17.3454 H
288 2 0.0238568 1.82409 0.33517 16.6212 H
287 2 0.0640794 2.29231 1.66686 17.742 H
208 4 0.626743 -4.40282 9.64581 2.08376 Si
153 4 0.683962 -3.17374 8.14177 8.69387 Si