ITEM: TIMESTEP
0
ITEM: NUMBER OF ATOMS
310
ITEM: BOX BOUNDS xy xz yz pp pp pp
-9.0288000000000004e+00 1.5411400000000000e+01 -7.2027000000000001e+00
0.0000000000000000e+00 1.3079499999999999e+01 -1.8261000000000001e+00
0.0000000000000000e+00 1.7503399999999999e+01 3.3839999999999998e-01
ITEM: ATOMS id type q x y z
4 4 1.45856 4.87283 4.46226 1.69419
3 4 1.11116 3.47572 1.77983 2.54103
280 2 0.149494 2.13578 0.930474 6.60399
71 4 0.806111 -1.28356 2.04886 3.69598
23 2 0.154763 3.69377 0.864288 4.94496
24 2 0.132415 5.27824 1.39934 3.85044
25 2 0.157841 0.910854 1.01355 2.55489
26 2 0.161009 1.06671 2.93362 3.17507
27 2 0.128062 1.89091 1.5407 4.18537
41 1 -0.655446 4.24213 0.69609 3.95964
42 1 -0.627898 1.58424 1.91067 3.08339
48 3 -0.766106 3.37578 0.730783 1.14162
49 3 -0.794662 3.90822 3.28857 2.45074
51 3 -0.804595 4.07194 5.84369 1.00966
75 2 0.20627 -2.08235 3.80925 2.58367
72 2 0.00218088 0.268662 2.20085 4.57428
73 2 0.00867509 -1.67465 3.68341 0.770465
74 2 0.13812 -0.223458 4.01053 3.25513
152 4 1.40481 -2.07869 6.21181 6.12567
76 1 -0.646752 -0.981325 3.41799 2.56678
275 2 0.0168823 -0.427048 2.42405 1.16089
110 2 -0.0371768 2.02218 4.99208 7.39211
50 3 -0.808169 5.42677 3.47059 0.487757
150 4 0.803037 -0.668153 3.92029 7.82762
159 2 0.0155198 0.890117 5.00512 5.61544
163 2 0.145698 1.46371 3.2968 5.83099
164 2 0.078733 -0.319188 2.35301 6.63774
165 2 0.155399 1.54684 3.32906 7.70993
175 1 -0.634152 0.873848 3.50151 6.77791
179 3 -0.80277 -2.86311 5.55323 4.88479
180 3 -0.808362 -1.35974 5.13981 7.09184
195 2 0.0591915 -1.98275 6.07875 0.262784
196 2 0.17849 -0.712818 5.26076 1.82439
310 3 -0.818676 6.80771 1.17559 1.07131
94 4 0.637971 -0.0143294 2.06987 11.9066
95 4 1.27553 2.5982 2.3333 10.69
147 2 0.0981394 -2.04843 6.34077 13.2724
219 2 0.158784 3.3943 2.46096 15.8582
103 2 0.0287733 -0.331242 0.481852 11.4499
104 2 0.00137912 -0.667556 2.53757 10.3278
105 2 -0.0582736 -1.07772 2.50688 13.0933
108 2 0.0234393 1.39235 5.47128 15.8337
111 2 0.0713534 2.35978 3.43851 13.258
290 1 -0.660541 0.421072 0.450714 15.9932
156 2 0.0507759 -1.81908 3.13286 9.0651
132 3 -0.829222 1.94176 1.36664 9.50884
133 3 -0.797502 1.43102 2.49047 12.1931
134 3 -0.827709 3.87234 1.53301 11.3861
168 2 0.169339 -1.4174 5.45112 9.87787
136 3 -0.76056 2.95672 3.8339 9.6945
100 4 1.1665 3.68069 4.50619 13.165
276 2 0.0448249 3.17092 0.617246 13.169
144 2 -0.0521931 -2.44399 4.75007 15.0723
301 2 0.136491 -0.624739 1.27914 9.15074
99 4 0.693909 3.0634 5.0842 8.77105
220 1 -0.657298 4.52722 2.0964 15.9416
289 2 0.145133 -0.323279 1.05385 16.6522
120 2 0.148192 0.595903 5.99299 12.9982
288 2 0.101991 1.14777 1.18043 15.3648
157 2 -0.00377799 -3.55976 6.46128 12.4178
167 2 0.109237 -0.983555 4.05275 11.1199
176 1 -0.642544 -0.898256 4.43183 9.98165
217 2 0.156389 4.59995 1.03644 15.7034
166 2 0.129994 0.229031 4.58905 9.80798
16 2 0.009929 3.35723 0.701933 16.6637
98 4 0.972951 2.288 6.65728 16.8746
142 4 0.688965 -2.90789 6.35799 15.3219
149 3 -0.789564 -4.49552 6.28649 15.4225
151 4 0.841689 -4.52507 6.51502 11.0007
97 4 1.1175 5.23783 2.12518 11.8817
291 2 0.130567 6.07175 1.10184 9.15809
208 4 0.950006 -3.8677 9.49643 0.107748
171 2 0.146636 -4.07003 10.4287 7.51911
230 2 0.164779 -0.808617 12.785 4.66043
153 4 0.92223 -3.91648 8.24613 8.0833
154 4 0.929563 0.6949 6.77014 5.35494
155 4 1.00689 2.31026 8.10275 2.95243
22 2 0.162537 -2.74305 12.3179 3.82199
160 2 -0.0694812 1.40182 7.13568 6.83879
83 2 0.151884 -4.602 11.8482 6.12799
177 1 -0.645056 -3.10371 9.90077 7.96598
169 2 0.179896 -2.25216 9.55685 7.19367
182 3 -0.777039 -3.07668 7.29391 7.16855
183 3 -0.762394 -0.770042 7.1276 5.27877
184 3 -0.804892 1.59401 7.25321 4.09414
185 3 -0.786253 1.38339 8.81099 1.8102
193 4 1.06919 -2.43797 7.34361 1.60271
194 2 0.150367 -0.619537 7.34926 2.38003
279 2 0.188933 -6.39227 12.3284 6.9678
234 4 1.02486 0.585455 9.83203 0.812009
161 2 0.0869479 3.30095 6.97604 2.04348
200 3 -0.841082 -2.71478 8.7218 0.835594
202 2 0.175918 -4.66081 12.0785 2.93244
203 2 0.198619 -4.29936 10.1641 3.28559
204 2 0.161549 -4.62616 11.3632 4.8229
205 2 0.168485 -6.05851 12.4183 1.23747
206 1 -0.626432 -4.81802 11.1203 3.63184
211 4 0.966066 -0.128632 12.6751 2.01291
199 3 -0.843645 -3.34688 6.57046 2.57487
80 2 0.0360489 -3.55389 12.5595 7.94211
214 3 -0.813845 0.235684 11.2852 1.26553
229 2 0.003093 -0.299054 11.2646 4.96067
212 2 0.00886359 -1.54065 12.5149 3.06256
87 1 -0.664408 -5.1487 12.5692 6.91269
197 2 0.175023 0.385121 6.55268 0.774102
198 1 -0.634032 -0.551919 6.42527 1.34275
77 4 1.0646 -5.13051 12.6823 8.85933
78 4 1.2667 -5.63497 10.5059 10.861
79 4 0.754595 -4.49438 11.7507 13.519
210 2 -0.0156806 -6.09363 9.03954 16.1233
170 2 0.162889 -2.7804 10.1511 9.07528
82 2 0.100559 -4.86941 8.94634 10.4631
84 2 0.164977 -2.20641 10.0966 13.6427
85 2 0.129213 -3.76594 10.0301 14.7977
86 2 0.0984011 -2.61859 11.614 14.8296
88 1 -0.638969 -3.05002 10.7204 14.1378
89 3 -0.867464 -5.46945 11.3635 9.61621
90 3 -0.787228 -4.95206 11.0844 12.2004
119 2 0.174807 -0.505203 7.49746 13.2665
277 2 -0.0114546 -1.20134 11.3579 13.7608
121 2 0.134731 1.45714 8.69504 10.3978
146 2 0.185624 -3.24345 8.02708 13.2635
148 1 -0.638951 -2.49385 7.42169 13.8525
145 2 0.134716 -1.64387 8.02211 14.359
118 2 0.108993 0.310871 7.42888 11.4696
101 4 0.763094 2.41525 7.34909 12.0731
236 2 0.15971 -0.440189 9.00809 16.1947
239 1 -0.663152 -0.957328 10.0438 16.464
129 1 -0.626993 0.457592 7.11965 12.7796
283 2 0.160701 -5.95372 8.90863 14.1786
226 2 0.154453 -0.827642 11.307 9.76685
181 3 -0.743473 -4.0088 7.74508 9.96773
287 2 0.156258 -7.33298 12.4393 15.3341
237 2 0.163603 -1.87686 10.3051 15.7161
309 3 -0.813673 -5.44827 11.3748 17.4814
238 2 0.0568076 -2.61957 9.55923 17.4066
81 2 -0.0223978 -5.84241 12.1624 14.5375
131 1 -0.67694 0.655476 7.21987 16.0293
124 2 0.164481 0.592137 7.18173 14.8516
125 2 0.0999141 1.2297 8.45779 16.4347
1 4 1.00683 -5.43 12.9401 17.3075
112 2 0.0286708 1.64716 8.09834 13.6812
235 2 0.126956 -0.10815 10.987 16.5153
109 2 0.00499672 2.35015 6.62116 9.39368
126 2 0.143001 -0.251021 7.16965 16.6318
231 1 -0.648363 0.295705 11.4562 9.85103
143 2 -0.018708 -2.21895 6.81192 16.8803
2 4 1.56628 11.414 5.74126 3.7128
9 4 1.42158 6.44012 6.33603 3.58
5 4 0.907502 10.9938 0.687172 1.62262
61 3 -0.851588 7.50412 6.05432 4.64187
7 4 1.18973 11.8617 1.56065 6.02668
8 4 1.27379 9.75526 3.34842 2.38966
62 3 -0.856404 9.39273 4.96999 6.28116
215 4 1.11126 6.65003 2.499 0.199999
11 4 1.09158 9.72304 3.585 6.95384
19 2 0.00495043 8.28067 2.97349 7.82384
294 2 0.15938 6.66237 2.08141 7.50284
228 2 0.1574 7.59497 1.25891 5.16271
128 1 -0.636996 4.87861 5.54892 8.32165
29 2 0.175711 7.9027 2.23792 3.88086
30 2 0.249324 7.53338 3.94799 3.14818
31 2 0.2186 8.7946 3.64233 4.53932
221 4 0.858577 8.11383 0.228378 8.74835
116 2 0.109931 4.66458 5.06812 7.15937
44 1 -0.691631 8.36209 3.2719 3.63919
213 2 0.0489802 8.44262 0.388795 2.96436
12 4 1.47919 8.96317 6.2744 5.38402
52 3 -0.793725 12.3123 1.24156 0.985325
53 3 -0.791356 13.0501 1.96824 4.75823
54 3 -0.81678 12.6557 1.30798 7.40487
55 3 -0.823252 9.85655 1.80367 1.93639
56 3 -0.814733 10.937 4.26497 3.06394
57 3 -0.854843 6.06202 5.05093 2.59268
58 3 -0.776415 9.01737 4.40189 0.936324
59 3 -0.824148 10.5257 2.45825 6.2239
232 1 -0.670811 7.38862 0.317706 4.51168
293 1 -0.629045 6.84742 1.85234 8.61299
274 2 0.0227805 14.5411 0.454211 3.02377
35 2 0.1761 10.996 4.97374 8.33511
33 2 0.158247 3.89768 6.27752 4.20767
91 4 0.593729 13.4718 2.00877 0.179691
286 2 0.13331 14.7937 0.399474 1.12016
216 2 0.135811 8.18305 3.34909 0.124877
223 2 0.00129746 9.27973 0.123077 4.50138
46 1 -0.662511 10.5415 3.93393 8.62495
32 2 0.157742 5.03143 6.34022 5.71906
28 2 0.169376 13.3989 0.743968 10.491
36 2 0.175983 11.387 3.1821 8.93728
37 2 0.13066 9.4752 4.12102 9.4103
297 2 0.113396 9.40179 0.796966 10.6018
162 2 -0.0113281 11.0522 5.00143 10.2643
92 2 -0.0275769 12.6318 1.57219 16.4416
93 2 -0.0210549 11.0719 3.44983 16.4512
10 4 1.50856 7.14459 6.05435 17.4196
295 2 0.177357 10.0834 1.96523 9.18445
102 4 1.24544 4.85131 6.0468 15.3435
218 2 0.190732 5.17693 2.84051 15.3965
107 2 -0.00689489 6.22024 2.23433 10.4737
249 2 0.0406375 7.91775 5.50388 9.01767
114 2 0.066875 7.13028 2.53217 15.0116
127 1 -0.603737 7.68158 0.868938 15.0727
137 3 -0.837883 4.91021 3.74717 12.5513
292 2 0.16243 7.12988 2.87226 9.20388
139 3 -0.834444 4.04106 4.83462 14.6901
140 3 -0.854439 6.04014 5.54006 16.3327
191 3 -0.824715 8.669 6.3655 16.8539
187 4 0.66365 7.8315 3.85983 13.8075
188 2 -0.0057125 8.50581 2.24793 13.9754
189 2 -0.00701768 8.36627 3.86853 12.0693
190 2 0.0633956 6.21151 4.26946 13.69
186 4 1.25895 9.33343 6.34093 15.4056
192 3 -0.779035 8.59634 4.92566 14.5861
135 3 -0.797413 6.11804 1.20643 12.8913
252 2 0.192992 5.52924 6.08592 12.0926
298 1 -0.652618 9.79677 0.870886 9.47049
251 2 0.140584 8.339 3.46808 10.3053
242 2 0.131462 11.1716 1.85728 12.3502
243 2 0.167869 11.8301 0.799149 10.8954
244 2 0.115637 12.3452 1.36085 14.551
245 1 -0.662152 12.0613 1.25391 11.9432
43 1 -0.689648 14.1803 0.421739 9.6752
299 2 0.114235 8.81356 0.660229 14.8646
255 1 -0.657695 7.73133 4.39652 10.352
250 2 0.13899 6.65408 4.19947 10.6151
247 4 0.731379 7.87771 6.23001 10.8789
241 2 0.11395 13.0474 1.81561 11.9657
138 3 -0.776555 3.17102 6.01463 12.3706
117 2 0.16835 5.32984 4.81609 9.16285
13 4 1.50065 7.71862 8.28236 1.5316
14 4 0.949999 7.00145 8.12817 6.88755
15 4 1.22507 6.59879 10.7387 5.46165
207 1 -0.668962 8.25276 12.2965 1.53623
201 4 1.07251 8.77357 10.8301 3.05041
158 2 0.0693126 9.95351 8.15731 7.36308
34 2 0.189847 4.78888 7.90622 4.66193
38 2 0.15732 5.36283 11.0312 3.37964
262 2 0.0677534 5.28478 11.519 0.463316
40 2 0.12906 4.33524 11.1224 5.11045
20 2 -0.0338462 6.86057 8.74681 8.45294
47 1 -0.672291 5.19477 11.5851 4.40846
63 3 -0.814551 6.80964 7.64524 2.7795
64 3 -0.819852 8.38393 7.08639 0.678511
65 3 -0.773032 8.9255 9.3296 2.23475
66 3 -0.813105 6.90441 9.17673 0.452546
67 3 -0.793229 8.46586 7.69157 6.56414
68 3 -0.76848 7.82946 10.9895 4.37933
69 3 -0.809871 6.30202 9.17524 5.90032
70 3 -0.795061 6.85944 11.7775 6.95923
172 2 0.131236 2.83014 10.6441 3.67662
173 2 0.149004 4.20592 9.44556 3.13182
174 2 0.142298 3.27762 9.16351 4.80465
178 1 -0.665257 3.24873 9.57038 3.74647
6 4 1.19815 6.02811 12.65 8.04172
224 2 -0.0390021 2.1787 10.4017 5.19675
278 2 -0.0274593 4.18684 12.6507 3.0373
263 2 0.163337 3.5696 10.2998 0.856917
222 4 0.655996 1.27245 11.7708 5.68319
233 3 -0.723498 1.13913 12.3183 7.19832
267 2 -0.0490178 4.56586 9.14044 8.19268
60 3 -0.806063 10.0732 6.59733 4.32765
17 2 -0.0074029 3.1607 12.0586 0.85121
21 2 -0.0085579 6.07348 6.73599 7.28654
285 2 0.150638 7.80479 11.3047 1.04017
39 2 0.158935 5.3504 12.7304 4.38166
45 1 -0.668168 4.83664 6.72451 4.69438
18 2 -0.019297 4.03435 12.8241 5.50444
270 3 -0.807528 4.54209 11.6579 8.65997
115 2 0.100931 4.64785 6.69855 8.63726
209 2 0.0664723 10.0498 9.28414 0.831281
141 3 -0.807297 3.79487 6.97262 16.0187
122 2 0.119355 2.88951 8.52403 9.23652
113 2 -0.0117181 5.49559 6.91792 13.9452
307 2 0.133235 2.6171 12.5307 12.0743
123 2 0.0440413 3.48101 8.84887 11.4285
130 1 -0.633098 2.50829 8.31153 10.2616
265 4 0.939428 4.61883 10.3091 9.39217
246 1 -0.646856 5.1298 12.9539 15.0227
308 1 -0.661415 3.01951 11.6857 12.7564
248 2 0.0202774 6.88318 7.63853 10.4692
106 2 -0.018975 1.09564 12.0239 12.7104
257 3 -0.786579 9.33274 6.70976 11.3395
256 1 -0.66631 6.11079 7.07421 12.1126
258 4 0.703116 4.18168 10.3792 16.9655
259 2 -0.0163524 5.18272 11.0951 15.6773
260 2 0.0201074 2.70922 9.55046 16.2587
96 4 0.687886 -0.234708 12.7901 13.621
264 1 -0.655662 2.37166 10.9309 17.4781
303 2 0.15623 6.07034 12.7115 15.5619
254 2 0.123918 6.89588 7.03497 12.9483
284 1 -0.67953 8.81957 7.99127 14.5044
266 4 1.22955 6.76388 10.1966 11.5999
268 2 0.00737765 3.12867 10.1591 10.2888
269 2 0.00741463 6.82322 8.85604 12.651
271 3 -0.844312 8.26799 10.3481 11.2007
272 3 -0.846398 5.73019 9.89963 10.4343
273 3 -0.77106 6.15056 11.3287 12.5969
281 2 0.134828 7.96617 8.28072 15.1154
282 2 0.166322 8.45976 7.36885 13.5655
240 4 0.843812 4.88938 12.3852 13.0441
253 2 0.157794 5.44839 7.98847 11.9995
302 2 0.216797 7.56059 12.239 9.91364
305 2 0.127573 2.6455 11.6715 13.804
306 2 0.147114 3.14997 10.7436 12.2013
261 2 0.134191 1.79978 11.4852 16.7016
300 2 0.149226 0.109227 12.9919 15.907
296 2 0.269344 3.39636 12.8723 9.20006
227 2 0.141766 0.662298 11.4232 10.9382
225 2 0.15467 0.863481 10.6678 9.14566
304 2 0.118836 4.1604 12.7545 15.5966
ITEM: TIMESTEP
100
ITEM: NUMBER OF ATOMS
310
ITEM: BOX BOUNDS xy xz yz pp pp pp
-9.0288000000000004e+00 1.5411400000000000e+01 -7.2027000000000001e+00
0.0000000000000000e+00 1.3079499999999999e+01 -1.8261000000000001e+00
0.0000000000000000e+00 1.7853467999999999e+01 3.3839999999999998e-01
ITEM: ATOMS id type q x y z
4 4 1.46696 4.84228 4.28723 1.66614
3 4 1.13433 3.5719 1.78291 2.58758
280 2 0.159717 1.93409 1.03919 6.23232
71 4 0.748969 -1.19312 2.14633 3.79985
23 2 0.147146 3.60002 1.11207 4.8137
24 2 0.158659 5.31246 1.18818 4.39614
25 2 0.148601 0.967783 1.05045 2.38694
26 2 0.158597 1.32746 2.8997 3.0721
27 2 0.126092 1.75603 1.39188 4.28182
41 1 -0.686405 4.34589 0.801671 4.0122
42 1 -0.629306 1.65965 1.7962 3.13065
48 3 -0.757795 3.60283 0.81044 1.16831
49 3 -0.822237 3.86157 3.2976 2.5227
51 3 -0.793275 3.88984 5.79918 0.991674
230 2 0.154806 6.25392 0.193858 4.60896
72 2 -0.00988488 0.414114 2.47696 4.53549
73 2 0.00457038 -1.70443 3.74924 0.719287
74 2 0.148265 -0.735164 4.24951 3.10241
152 4 1.44417 -2.16749 6.32357 6.03239
76 1 -0.644776 -1.33053 3.42322 2.59789
275 2 0.00265992 -0.499968 2.56756 1.16352
110 2 -0.0302704 2.16594 5.0836 7.59931
50 3 -0.853004 5.52294 3.50337 0.449254
150 4 0.791352 -0.753412 3.87858 7.86761
159 2 0.0125058 0.855762 5.17408 5.87785
163 2 0.153447 1.78325 3.56141 6.28
164 2 0.0680509 -0.0788772 2.37644 6.78364
165 2 0.181208 1.47841 3.32694 8.05815
175 1 -0.628629 1.01267 3.63195 7.0484
179 3 -0.790958 -3.17943 5.54371 4.99058
180 3 -0.753025 -1.41506 5.1041 7.03304
195 2 0.0329244 -2.18185 5.92791 0.265354
196 2 0.165427 -0.806434 5.23507 1.76598
310 3 -0.844619 6.88288 1.14067 0.997015
198 1 -0.659259 -0.500569 6.28265 1.25551
197 2 0.156146 0.472256 6.12537 0.696896
33 2 0.173469 3.78227 6.24318 3.91383
94 4 0.626695 0.150816 1.99349 12.0542
95 4 1.23149 2.662 2.23871 10.613
147 2 0.0937489 -2.20162 6.29806 13.2139
219 2 0.176819 3.27894 2.49081 15.7472
103 2 0.0225595 -0.246499 0.45753 11.3088
104 2 0.00618355 -0.524993 2.39 10.5337
105 2 -0.0584319 -0.78529 2.10122 13.4439
108 2 0.0230239 1.29984 5.31796 16.0533
111 2 0.0772723 2.24555 3.65293 12.9711
290 1 -0.663458 0.66587 0.592162 16.041
156 2 0.0407213 -1.76353 3.08549 9.23186
132 3 -0.815668 1.83812 1.38457 9.35051
133 3 -0.804503 1.6177 2.30944 12.2711
134 3 -0.813755 3.97169 1.3707 11.2143
168 2 0.156741 -1.07382 5.24074 9.83558
136 3 -0.775587 3.15151 3.74312 9.80363
100 4 1.14979 3.67326 4.60857 13.1266
276 2 0.0735885 3.26779 0.754055 12.847
144 2 -0.0688036 -2.20642 4.89133 15.2485
301 2 0.157902 -0.553925 1.0219 9.04591
99 4 0.712823 3.29585 5.04908 8.928
220 1 -0.646638 4.32869 2.02795 15.8105
289 2 0.15706 0.00325546 1.29385 16.5472
120 2 0.150727 0.72101 6.00541 13.0392
288 2 0.0989208 1.47339 1.20917 15.3269
97 4 1.14016 5.23397 2.23254 11.84
167 2 0.0857778 -0.688766 3.91844 11.2743
176 1 -0.639585 -0.541528 4.26526 9.98636
217 2 0.124241 4.43067 1.04488 15.1803
166 2 0.138848 0.567147 4.37796 9.6913
16 2 0.0252962 3.6309 0.466363 16.7125
98 4 0.992301 2.3305 6.49485 16.9576
142 4 0.681919 -2.88242 6.43279 15.3307
149 3 -0.754448 -4.44115 6.50137 15.3691
151 4 0.887417 -4.60501 6.5594 10.9078
291 2 0.113635 6.23629 0.960352 9.42867
109 2 0.0244658 2.80741 6.51041 9.90276
208 4 0.951583 -3.8502 9.433 0.144855
171 2 0.147602 -4.08185 10.4491 7.37957
209 2 0.102184 -5.28706 9.43454 1.06286
153 4 0.936562 -3.91618 8.17617 8.01002
154 4 0.905628 0.665857 6.84236 5.50148
155 4 1.00053 2.18048 8.09762 2.81682
22 2 0.160403 -2.87195 12.4069 3.93267
160 2 -0.0573422 1.33921 7.53348 6.86112
83 2 0.145158 -4.82941 11.9737 6.34588
177 1 -0.650788 -3.25276 9.88193 8.02423
169 2 0.177311 -2.21889 9.69365 7.5276
182 3 -0.803014 -2.96775 7.26751 7.07858
183 3 -0.776702 -0.823164 7.1917 5.45678
184 3 -0.761733 1.45147 7.34483 4.08651
185 3 -0.806522 1.32912 8.93684 1.72978
193 4 1.0911 -2.40221 7.1301 1.49562
194 2 0.16711 -0.284385 7.28255 2.11124
279 2 0.207067 -6.53578 12.5155 6.92207
234 4 1.05327 0.458001 9.88249 0.839508
161 2 0.0826169 3.14317 7.07398 1.89664
200 3 -0.838953 -2.74888 8.48839 0.802899
202 2 0.16509 -4.31134 11.5079 2.62187
203 2 0.201606 -4.23202 9.73944 3.43497
204 2 0.164523 -4.53984 11.2872 4.55124
205 2 0.154917 -6.27777 12.5276 1.12043
206 1 -0.653187 -4.69051 10.8082 3.51489
211 4 0.996854 -0.0873146 12.7388 1.99623
199 3 -0.845223 -3.23987 6.58186 2.64774
80 2 0.0242745 -3.66623 12.6623 7.67305
214 3 -0.824743 -0.07194 11.2243 1.4071
229 2 0.0188549 -0.426021 11.3182 4.91143
212 2 0.0447465 -1.61397 12.6352 2.77948
87 1 -0.670176 -5.40481 12.8388 6.83398
157 2 0.00774162 -3.65655 6.85007 12.2946
78 4 1.22697 -5.70488 10.5265 10.8636
79 4 0.734047 -4.37667 11.9522 13.3772
210 2 0.00111506 -6.14485 9.22564 16.0798
170 2 0.198263 -3.23814 10.1358 9.14704
82 2 0.102016 -5.14611 8.9495 10.5336
84 2 0.152202 -2.56826 10.584 13.2513
85 2 0.152718 -3.59299 9.95278 14.8901
86 2 0.088166 -2.76545 11.8464 15.0314
88 1 -0.638079 -3.13812 10.8696 14.3117
89 3 -0.836138 -5.19717 11.3159 9.49604
90 3 -0.790598 -4.95472 11.0907 12.1585
119 2 0.175293 -0.583049 7.31488 13.1127
277 2 -0.00460679 -1.31483 11.4951 14.0764
121 2 0.14816 1.29722 8.46324 10.4294
146 2 0.177952 -3.47683 8.05299 13.5555
148 1 -0.613662 -2.5322 7.41749 13.7935
145 2 0.12399 -1.60466 8.02885 14.3875
118 2 0.130816 0.39027 7.19858 11.4366
225 2 0.17121 0.0169986 10.4598 9.2985
236 2 0.168417 -0.389972 8.85495 16.2402
239 1 -0.660693 -0.952634 9.91136 16.4908
129 1 -0.627319 0.467177 7.04674 12.6861
283 2 0.152508 -5.62705 8.6827 14.3488
226 2 0.133934 -0.630301 12.0373 10.272
181 3 -0.76966 -4.28475 7.70927 9.83937
287 2 0.156802 -7.10304 12.5449 15.5147
237 2 0.177872 -1.80885 10.1805 15.874
235 2 0.108133 -0.149683 10.9681 16.6102
238 2 0.0481625 -2.57279 9.34687 17.3845
81 2 -0.0216892 -5.5173 12.3581 14.6407
131 1 -0.649697 0.666198 7.09609 15.9923
124 2 0.155074 0.535731 6.94871 14.8127
125 2 0.110015 1.36105 8.27416 16.2168
1 4 0.986987 -5.1909 12.9093 17.3104
112 2 0.0340573 1.3256 8.23688 13.6408
231 1 -0.647101 0.306655 11.3912 9.88131
77 4 1.05195 -5.06666 12.7003 8.75394
126 2 0.129706 -0.300596 7.06232 16.6429
309 3 -0.811684 -5.42582 11.3254 17.4861
143 2 -0.000121224 -2.35537 7.08542 16.9223
2 4 1.51345 11.2545 5.80201 3.74311
223 2 -0.0120595 9.30598 0.207728 4.67489
5 4 0.909081 11.1541 0.758351 1.82871
61 3 -0.870061 7.43574 5.91323 4.59552
7 4 1.27278 11.834 1.65847 6.02042
8 4 1.27091 9.66228 3.38423 2.35576
62 3 -0.830761 9.26411 4.90461 6.26764
215 4 1.09224 6.63805 2.43442 0.0834364
11 4 1.10195 9.70451 3.60238 7.02037
19 2 0.00601599 8.39878 2.84396 7.92027
294 2 0.171893 6.65873 2.0001 7.74973
228 2 0.149382 7.73803 1.21137 4.96017
128 1 -0.673718 4.95383 5.55606 8.32047
29 2 0.178062 7.90324 2.13327 3.81353
30 2 0.252092 7.49679 3.88298 3.07726
31 2 0.226424 8.58579 3.69855 4.48924
32 2 0.152181 4.79824 6.04398 5.48385
116 2 0.120557 4.77008 5.30895 7.16618
44 1 -0.69311 8.25859 3.20587 3.5512
75 2 0.231856 12.9012 3.57346 2.64509
12 4 1.42749 8.85165 6.26868 5.34053
52 3 -0.779548 12.3451 1.37963 1.02303
53 3 -0.78216 12.9464 1.97791 4.88477
54 3 -0.814304 12.611 1.27602 7.36609
55 3 -0.80395 9.95111 1.8021 1.94213
56 3 -0.803655 10.7738 4.11201 3.13102
57 3 -0.8007 5.8993 4.94177 2.57972
58 3 -0.816496 8.97766 4.45689 0.844067
59 3 -0.836458 10.6491 2.6077 6.31072
232 1 -0.674449 7.35649 0.306306 4.38984
18 2 -0.0223977 11.2975 0.142174 5.41931
274 2 0.0110262 14.5979 0.629306 2.98567
35 2 0.166719 10.7744 5.07451 8.41255
9 4 1.31623 6.33418 6.41846 3.60849
91 4 0.590657 13.4681 2.10468 0.161708
286 2 0.149303 14.5941 0.261686 1.37668
216 2 0.105915 8.09056 3.31862 0.0374856
213 2 0.030105 8.5944 0.197257 2.95223
28 2 0.16922 13.4547 0.631744 10.4719
36 2 0.164869 11.0986 3.26635 9.1773
37 2 0.149938 9.33104 4.1344 9.51817
297 2 0.140785 9.85487 0.739594 10.7789
162 2 -0.0159191 11.3074 5.04323 10.2863
92 2 -0.0179353 12.368 1.35396 16.4476
93 2 -0.0406848 11.0638 3.34705 16.3223
293 1 -0.625908 7.01453 1.78849 8.76216
295 2 0.163603 10.0851 1.98187 9.3406
102 4 1.21693 4.82374 6.05938 15.3016
218 2 0.174331 5.16881 2.75902 15.297
107 2 0.0177013 6.26702 2.43241 10.4722
249 2 0.0302276 7.68412 4.98321 9.20198
114 2 0.0445974 7.10707 2.83236 14.8577
127 1 -0.609788 7.47374 1.06982 15.2114
137 3 -0.834247 5.03525 3.75053 12.3468
292 2 0.155072 7.40427 2.75014 9.39438
139 3 -0.808028 3.96464 4.67982 14.7162
140 3 -0.852555 6.11986 5.83323 16.1831
191 3 -0.81519 8.56625 6.60942 16.8155
187 4 0.666225 8.20636 3.88778 13.7622
188 2 -0.0242041 8.73789 2.35496 14.3135
189 2 -0.000433334 8.902 3.7238 12.12
190 2 0.0516019 6.64363 4.11717 13.201
186 4 1.24579 9.17899 6.49293 15.3557
192 3 -0.788293 8.72005 5.17295 14.4074
135 3 -0.792841 6.0643 1.21557 12.855
252 2 0.186017 5.94519 5.82253 12.0376
298 1 -0.655174 9.90561 0.834293 9.65976
251 2 0.126774 8.20112 3.18922 10.6855
242 2 0.129455 11.3682 2.03172 12.1661
243 2 0.181122 11.9243 0.980955 10.8122
244 2 0.117961 12.7051 1.15106 14.5639
245 1 -0.679432 12.1583 1.33694 11.844
43 1 -0.662062 14.2254 0.2217 9.55773
299 2 0.124775 8.57333 0.735265 15.2989
255 1 -0.650738 7.68259 4.23981 10.7049
250 2 0.169429 6.66001 4.1963 11.1615
247 4 0.742737 7.8311 6.1896 10.7361
241 2 0.107434 13.1531 1.87288 11.9502
138 3 -0.783875 3.2913 6.04049 12.6376
117 2 0.163514 5.58458 4.7608 8.87394
300 2 0.143441 6.75197 0.699334 16.0697
257 3 -0.786173 9.2741 6.56464 11.2292
46 1 -0.674764 10.3279 4.01908 8.7791
10 4 1.56814 7.06587 6.14418 17.4896
13 4 1.47866 7.60311 8.14629 1.51907
14 4 0.944863 7.01053 8.07068 6.82427
15 4 1.26274 6.76117 10.7385 5.59975
207 1 -0.667124 8.14135 12.2295 1.56928
201 4 1.14183 8.93796 10.7661 3.01498
158 2 0.109887 9.94724 8.08133 7.18981
34 2 0.187611 4.71039 7.81527 4.71356
38 2 0.155668 5.16607 10.99 3.4942
262 2 0.0285354 5.69178 11.7462 0.165911
40 2 0.133603 4.46601 11.187 5.33348
20 2 -0.0367985 6.74879 8.31779 8.49888
47 1 -0.658116 5.28526 11.535 4.54759
63 3 -0.822233 6.51767 7.79249 2.72599
64 3 -0.89359 8.3901 7.03008 0.782595
65 3 -0.766656 8.89044 9.46359 2.13496
66 3 -0.79124 6.8702 9.20349 0.501704
67 3 -0.81225 8.53006 7.73682 6.58473
68 3 -0.746658 8.07696 10.814 4.33624
69 3 -0.818156 6.31008 9.16141 5.92676
70 3 -0.839458 6.90437 11.7134 6.80578
172 2 0.143565 2.80424 10.4382 3.74437
173 2 0.151788 4.12342 9.0565 3.46812
174 2 0.146042 3.01034 9.08892 5.03866
178 1 -0.641232 3.0683 9.40651 3.9032
6 4 1.2111 5.95588 12.5494 7.98702
224 2 -0.0322121 2.14667 10.4128 5.32712
270 3 -0.816708 4.70459 11.5439 8.67673
263 2 0.166009 4.27403 10.1408 0.874775
222 4 0.61602 1.19781 11.7948 5.66264
233 3 -0.716995 1.10021 12.3017 7.31967
267 2 -0.055654 4.32932 8.98545 8.16556
60 3 -0.838287 10.0011 6.64948 4.31803
17 2 -0.0122172 3.51 12.0773 0.98304
21 2 -0.0135928 6.01475 6.64825 7.09698
285 2 0.176817 7.77351 11.3025 1.00852
39 2 0.165422 5.57887 12.6403 4.45582
45 1 -0.666443 4.68493 6.64679 4.5695
115 2 0.0942409 5.22715 6.69615 8.69163
278 2 -0.0395598 4.32073 12.7611 3.27448
141 3 -0.801148 3.81319 6.97017 16.1174
122 2 0.115576 2.83071 8.42325 9.43964
113 2 -0.00629032 5.37418 7.07414 13.9892
307 2 0.123316 2.5484 12.7418 12.3403
123 2 0.00571706 3.46363 9.07508 11.6403
130 1 -0.644891 2.36841 8.25162 10.4406
265 4 0.942199 4.62899 10.1512 9.38042
246 1 -0.652306 5.31913 12.7995 14.9748
308 1 -0.635165 3.01123 11.747 12.7073
248 2 0.0209338 6.69563 7.52293 10.4358
106 2 -0.00411795 1.21395 12.1111 13.2285
227 2 0.152626 1.16002 11.254 10.6218
256 1 -0.664982 6.105 6.91642 12.1648
258 4 0.709437 4.35399 10.5028 16.981
259 2 -0.0284667 5.06104 10.9037 15.4586
260 2 0.0542365 2.66356 9.78413 16.2638
96 4 0.695639 -0.343284 12.9259 13.7903
264 1 -0.636072 2.4536 10.9505 17.3684
303 2 0.144753 6.2152 12.3052 15.4617
254 2 0.145926 6.73318 7.11943 13.0551
284 1 -0.660636 8.72221 8.15431 14.5153
266 4 1.21931 6.67049 10.1955 11.5512
268 2 -0.00138203 3.06669 10.0878 10.1956
269 2 -0.00104875 6.62442 8.76061 12.5372
271 3 -0.853884 8.20587 10.3286 11.1231
272 3 -0.824631 5.87366 9.82155 10.2351
273 3 -0.800765 5.87653 11.3715 12.35
281 2 0.132132 7.91045 8.94709 14.8651
282 2 0.173531 8.43917 7.64721 13.5087
240 4 0.868423 4.8574 12.4282 12.9325
253 2 0.171165 5.12148 7.41514 12.2906
304 2 0.114173 4.29743 12.6604 15.4563
305 2 0.0985492 3.07321 11.55 13.9611
306 2 0.146641 2.95612 10.7885 12.1256
261 2 0.147636 1.52573 11.5059 17.1292
101 4 0.695299 2.43594 7.61201 12.2073
302 2 0.222329 7.55313 11.9586 9.75773
221 4 0.869903 0.983127 12.8435 8.85677
296 2 0.243445 3.49745 12.8575 9.21806
ITEM: TIMESTEP
200
ITEM: NUMBER OF ATOMS
310
ITEM: BOX BOUNDS xy xz yz pp pp pp
-9.0288000000000004e+00 1.5411400000000000e+01 -7.2027000000000001e+00
0.0000000000000000e+00 1.3079499999999999e+01 -1.8261000000000001e+00
0.0000000000000000e+00 1.8203536000000000e+01 3.3839999999999998e-01
ITEM: ATOMS id type q x y z
4 4 1.45941 4.72505 4.36736 1.52325
3 4 1.13582 3.41764 1.83603 2.54269
280 2 0.165287 1.37084 1.3117 6.73987
71 4 0.755292 -1.17154 2.1921 3.87606
23 2 0.14622 3.73736 1.42581 5.05053
24 2 0.148932 5.21639 1.7572 3.97599
25 2 0.168437 0.953907 0.881812 2.58093
26 2 0.13843 1.14275 2.80483 2.91703
27 2 0.154588 1.95753 1.50312 4.21568
41 1 -0.665955 4.24835 1.07065 4.08761
42 1 -0.66466 1.57729 1.7146 3.15037
48 3 -0.755039 3.5084 0.782607 1.19429
49 3 -0.828497 3.82065 3.30008 2.31982
51 3 -0.792119 3.82676 5.70688 1.01957
87 1 -0.684087 1.77477 0.212786 6.80833
72 2 -0.00269293 0.433901 2.42924 4.51171
73 2 0.0804104 -1.94407 4.02616 1.24279
74 2 0.16497 -0.998569 4.33674 3.36038
152 4 1.40824 -2.16347 6.27199 6.22653
76 1 -0.641742 -1.45968 3.42873 2.72203
275 2 -0.00535143 -0.492764 2.98716 1.13812
110 2 -0.0346001 2.12473 5.04985 7.84066
50 3 -0.791053 5.39718 3.40771 0.162651
150 4 0.8014 -0.568636 3.98198 7.87785
159 2 0.012732 0.999255 5.35296 6.08958
163 2 0.149929 1.90548 3.5528 6.05243
164 2 0.065205 0.0717476 2.50666 6.58234
165 2 0.147319 1.63078 3.45349 7.96273
175 1 -0.626231 1.14943 3.66136 6.90367
179 3 -0.769335 -3.10445 5.51317 5.03238
180 3 -0.802694 -1.3855 5.09755 7.11645
195 2 0.0678315 -1.97077 5.81193 0.142924
196 2 0.168982 -0.089467 5.16629 1.43533
310 3 -0.813755 6.88781 1.16976 1.02922
198 1 -0.633097 -0.618072 6.0749 0.972698
33 2 0.164435 3.82504 6.11994 4.11119
291 2 0.149162 5.89602 1.4045 8.65137
230 2 0.15685 6.37286 0.175582 4.59883
94 4 0.637492 0.189 1.99186 11.7249
95 4 1.26556 2.77826 2.24966 10.5246
109 2 0.0352877 2.93841 6.40628 10.2586
219 2 0.196743 3.30706 2.62039 16.0249
103 2 0.0243332 -0.105757 0.377706 11.3392
104 2 0.00326097 -0.329337 2.45606 10.1508
105 2 -0.0587079 -1.01851 2.33384 12.9107
108 2 0.0125664 1.24686 5.32724 15.9552
111 2 0.0836763 2.54516 3.50246 12.9308
290 1 -0.661503 1.3369 0.773185 16.1437
156 2 0.0430905 -1.58688 3.0684 9.08487
132 3 -0.85022 1.88413 1.33688 9.45964
133 3 -0.782068 1.63566 2.38536 12.1641
134 3 -0.829496 4.15486 1.37311 11.2478
168 2 0.162902 -1.17789 5.38556 9.80155
136 3 -0.814432 3.26637 3.64396 9.88533
100 4 1.12024 3.86836 4.5778 13.1616
276 2 0.0832884 3.3601 0.78935 12.752
144 2 -0.0610804 -2.5288 4.98771 14.78
301 2 0.155421 -0.458663 1.03433 9.12547
99 4 0.702779 3.32774 5.03656 9.14937
220 1 -0.603282 4.31363 1.99286 16.1229
289 2 0.150403 0.868981 1.72639 16.7631
120 2 0.138357 0.538632 6.10378 13.4058
288 2 0.141655 2.12168 1.12281 15.4541
97 4 1.10697 5.42987 2.05146 11.7182
167 2 0.110923 -0.655598 3.99119 11.0766
176 1 -0.64825 -0.579551 4.41459 9.9335
217 2 0.141358 4.44989 1.41481 15.1154
166 2 0.10958 0.553494 4.65834 9.69598
16 2 0.0462971 3.71923 0.352414 16.9433
98 4 0.94184 2.20006 6.4753 17.0158
142 4 0.68347 -3.0511 6.51031 15.2787
149 3 -0.783562 -4.6123 6.56782 15.5415
126 2 0.127796 -0.351532 6.63179 16.6054
208 4 0.961639 -3.93003 9.40222 0.186454
171 2 0.130426 -3.94541 10.4752 7.40791
197 2 0.151636 0.0424687 6.64656 0.275567
153 4 0.940896 -4.10866 8.28441 7.99102
154 4 0.929687 0.538843 6.91489 5.34933
155 4 1.0324 2.05508 7.849 2.89505
22 2 0.150032 -2.66304 12.7313 4.28498
160 2 -0.0655282 1.1838 7.83217 6.59225
83 2 0.15393 -4.55136 12.7513 6.14109
177 1 -0.652031 -3.16836 9.83745 7.99975
169 2 0.172589 -2.13371 9.84809 7.47146
182 3 -0.773925 -3.14773 7.2766 7.15674
183 3 -0.76683 -1.01572 7.16019 5.28559
184 3 -0.8282 1.38869 7.09527 4.04159
185 3 -0.816163 1.20307 8.78321 1.87267
193 4 1.06852 -2.40072 7.12646 1.37433
194 2 0.115788 -0.703764 7.37892 2.15209
279 2 0.212342 -6.28615 12.1662 6.71815
234 4 0.977559 0.82574 9.8936 0.862659
161 2 0.0972382 2.906 6.78677 1.82979
200 3 -0.825798 -2.75052 8.46481 0.658325
202 2 0.18439 -4.5679 11.9752 2.88934
203 2 0.177599 -4.06742 10.1155 3.02094
204 2 0.169391 -4.57326 11.0678 4.58236
205 2 0.146613 -6.37038 12.2919 1.1062
206 1 -0.674409 -4.71112 10.9686 3.43456
211 4 0.966055 -0.318931 12.6836 1.94719
199 3 -0.749346 -3.35349 6.4164 2.40479
80 2 -0.000197932 -3.7326 12.5398 7.67436
214 3 -0.777789 -0.169629 11.2237 1.2687
229 2 0.00414344 -0.28043 11.2686 5.00392
77 4 1.0564 -5.11458 12.7214 8.71293
212 2 0.0205136 -1.71247 12.7625 2.9997
209 2 0.0897019 -5.28739 9.20008 1.22566
309 3 -0.804415 -3.6346 10.9483 0.0139073
157 2 -0.00519291 -3.86822 6.72388 12.3461
78 4 1.20235 -5.65215 10.5774 10.7907
79 4 0.767282 -4.37472 11.9893 13.2709
210 2 0.0077294 -6.32486 9.33367 16.3171
170 2 0.163836 -3.11759 10.0863 9.12452
82 2 0.0732168 -5.03965 9.03161 10.462
84 2 0.140127 -2.35672 10.9144 13.5178
85 2 0.161837 -3.84927 10.2144 14.641
86 2 0.140305 -2.78188 11.6599 15.3505
88 1 -0.662808 -3.18844 11.1167 14.3973