ITEM: TIMESTEP
0
ITEM: NUMBER OF ATOMS
310
ITEM: BOX BOUNDS xy xz yz pp pp pp
-9.0288000000000004e+00 1.5411400000000000e+01 -7.2027000000000001e+00
0.0000000000000000e+00 1.3079499999999999e+01 -1.8261000000000001e+00
0.0000000000000000e+00 1.7503399999999999e+01 3.3839999999999998e-01
ITEM: ATOMS id type q x y z
4 4 1.45856 4.87283 4.46226 1.69419
3 4 1.11116 3.47572 1.77983 2.54103
280 2 0.149494 2.13578 0.930474 6.60399
71 4 0.806111 -1.28356 2.04886 3.69598
23 2 0.154763 3.69377 0.864288 4.94496
24 2 0.132415 5.27824 1.39934 3.85044
25 2 0.157841 0.910854 1.01355 2.55489
26 2 0.161009 1.06671 2.93362 3.17507
27 2 0.128062 1.89091 1.5407 4.18537
41 1 -0.655446 4.24213 0.69609 3.95964
42 1 -0.627898 1.58424 1.91067 3.08339
48 3 -0.766106 3.37578 0.730783 1.14162
49 3 -0.794662 3.90822 3.28857 2.45074
51 3 -0.804595 4.07194 5.84369 1.00966
75 2 0.20627 -2.08235 3.80925 2.58367
72 2 0.00218088 0.268662 2.20085 4.57428
73 2 0.00867509 -1.67465 3.68341 0.770465
74 2 0.13812 -0.223458 4.01053 3.25513
152 4 1.40481 -2.07869 6.21181 6.12567
76 1 -0.646752 -0.981325 3.41799 2.56678
275 2 0.0168823 -0.427048 2.42405 1.16089
110 2 -0.0371768 2.02218 4.99208 7.39211
50 3 -0.808169 5.42677 3.47059 0.487757
150 4 0.803037 -0.668153 3.92029 7.82762
159 2 0.0155198 0.890117 5.00512 5.61544
163 2 0.145698 1.46371 3.2968 5.83099
164 2 0.078733 -0.319188 2.35301 6.63774
165 2 0.155399 1.54684 3.32906 7.70993
175 1 -0.634152 0.873848 3.50151 6.77791
179 3 -0.80277 -2.86311 5.55323 4.88479
180 3 -0.808362 -1.35974 5.13981 7.09184
195 2 0.0591915 -1.98275 6.07875 0.262784
196 2 0.17849 -0.712818 5.26076 1.82439
310 3 -0.818676 6.80771 1.17559 1.07131
94 4 0.637971 -0.0143294 2.06987 11.9066
95 4 1.27553 2.5982 2.3333 10.69
147 2 0.0981394 -2.04843 6.34077 13.2724
219 2 0.158784 3.3943 2.46096 15.8582
103 2 0.0287733 -0.331242 0.481852 11.4499
104 2 0.00137912 -0.667556 2.53757 10.3278
105 2 -0.0582736 -1.07772 2.50688 13.0933
108 2 0.0234393 1.39235 5.47128 15.8337
111 2 0.0713534 2.35978 3.43851 13.258
290 1 -0.660541 0.421072 0.450714 15.9932
156 2 0.0507759 -1.81908 3.13286 9.0651
132 3 -0.829222 1.94176 1.36664 9.50884
133 3 -0.797502 1.43102 2.49047 12.1931
134 3 -0.827709 3.87234 1.53301 11.3861
168 2 0.169339 -1.4174 5.45112 9.87787
136 3 -0.76056 2.95672 3.8339 9.6945
100 4 1.1665 3.68069 4.50619 13.165
276 2 0.0448249 3.17092 0.617246 13.169
144 2 -0.0521931 -2.44399 4.75007 15.0723
301 2 0.136491 -0.624739 1.27914 9.15074
99 4 0.693909 3.0634 5.0842 8.77105
220 1 -0.657298 4.52722 2.0964 15.9416
289 2 0.145133 -0.323279 1.05385 16.6522
120 2 0.148192 0.595903 5.99299 12.9982
288 2 0.101991 1.14777 1.18043 15.3648
157 2 -0.00377799 -3.55976 6.46128 12.4178
167 2 0.109237 -0.983555 4.05275 11.1199
176 1 -0.642544 -0.898256 4.43183 9.98165
217 2 0.156389 4.59995 1.03644 15.7034
166 2 0.129994 0.229031 4.58905 9.80798
16 2 0.009929 3.35723 0.701933 16.6637
98 4 0.972951 2.288 6.65728 16.8746
142 4 0.688965 -2.90789 6.35799 15.3219
149 3 -0.789564 -4.49552 6.28649 15.4225
151 4 0.841689 -4.52507 6.51502 11.0007
97 4 1.1175 5.23783 2.12518 11.8817
291 2 0.130567 6.07175 1.10184 9.15809
208 4 0.950006 -3.8677 9.49643 0.107748
171 2 0.146636 -4.07003 10.4287 7.51911
230 2 0.164779 -0.808617 12.785 4.66043
153 4 0.92223 -3.91648 8.24613 8.0833
154 4 0.929563 0.6949 6.77014 5.35494
155 4 1.00689 2.31026 8.10275 2.95243
22 2 0.162537 -2.74305 12.3179 3.82199
160 2 -0.0694812 1.40182 7.13568 6.83879
83 2 0.151884 -4.602 11.8482 6.12799
177 1 -0.645056 -3.10371 9.90077 7.96598
169 2 0.179896 -2.25216 9.55685 7.19367
182 3 -0.777039 -3.07668 7.29391 7.16855
183 3 -0.762394 -0.770042 7.1276 5.27877
184 3 -0.804892 1.59401 7.25321 4.09414
185 3 -0.786253 1.38339 8.81099 1.8102
193 4 1.06919 -2.43797 7.34361 1.60271
194 2 0.150367 -0.619537 7.34926 2.38003
279 2 0.188933 -6.39227 12.3284 6.9678
234 4 1.02486 0.585455 9.83203 0.812009
161 2 0.0869479 3.30095 6.97604 2.04348
200 3 -0.841082 -2.71478 8.7218 0.835594
202 2 0.175918 -4.66081 12.0785 2.93244
203 2 0.198619 -4.29936 10.1641 3.28559
204 2 0.161549 -4.62616 11.3632 4.8229
205 2 0.168485 -6.05851 12.4183 1.23747
206 1 -0.626432 -4.81802 11.1203 3.63184
211 4 0.966066 -0.128632 12.6751 2.01291
199 3 -0.843645 -3.34688 6.57046 2.57487
80 2 0.0360489 -3.55389 12.5595 7.94211
214 3 -0.813845 0.235684 11.2852 1.26553
229 2 0.003093 -0.299054 11.2646 4.96067
212 2 0.00886359 -1.54065 12.5149 3.06256
87 1 -0.664408 -5.1487 12.5692 6.91269
197 2 0.175023 0.385121 6.55268 0.774102
198 1 -0.634032 -0.551919 6.42527 1.34275
77 4 1.0646 -5.13051 12.6823 8.85933
78 4 1.2667 -5.63497 10.5059 10.861
79 4 0.754595 -4.49438 11.7507 13.519
210 2 -0.0156806 -6.09363 9.03954 16.1233
170 2 0.162889 -2.7804 10.1511 9.07528
82 2 0.100559 -4.86941 8.94634 10.4631
84 2 0.164977 -2.20641 10.0966 13.6427
85 2 0.129213 -3.76594 10.0301 14.7977
86 2 0.0984011 -2.61859 11.614 14.8296
88 1 -0.638969 -3.05002 10.7204 14.1378
89 3 -0.867464 -5.46945 11.3635 9.61621
90 3 -0.787228 -4.95206 11.0844 12.2004
119 2 0.174807 -0.505203 7.49746 13.2665
277 2 -0.0114546 -1.20134 11.3579 13.7608
121 2 0.134731 1.45714 8.69504 10.3978
146 2 0.185624 -3.24345 8.02708 13.2635
148 1 -0.638951 -2.49385 7.42169 13.8525
145 2 0.134716 -1.64387 8.02211 14.359
118 2 0.108993 0.310871 7.42888 11.4696
101 4 0.763094 2.41525 7.34909 12.0731
236 2 0.15971 -0.440189 9.00809 16.1947
239 1 -0.663152 -0.957328 10.0438 16.464
129 1 -0.626993 0.457592 7.11965 12.7796
283 2 0.160701 -5.95372 8.90863 14.1786
226 2 0.154453 -0.827642 11.307 9.76685
181 3 -0.743473 -4.0088 7.74508 9.96773
287 2 0.156258 -7.33298 12.4393 15.3341
237 2 0.163603 -1.87686 10.3051 15.7161
309 3 -0.813673 -5.44827 11.3748 17.4814
238 2 0.0568076 -2.61957 9.55923 17.4066
81 2 -0.0223978 -5.84241 12.1624 14.5375
131 1 -0.67694 0.655476 7.21987 16.0293
124 2 0.164481 0.592137 7.18173 14.8516
125 2 0.0999141 1.2297 8.45779 16.4347
1 4 1.00683 -5.43 12.9401 17.3075
112 2 0.0286708 1.64716 8.09834 13.6812
235 2 0.126956 -0.10815 10.987 16.5153
109 2 0.00499672 2.35015 6.62116 9.39368
126 2 0.143001 -0.251021 7.16965 16.6318
231 1 -0.648363 0.295705 11.4562 9.85103
143 2 -0.018708 -2.21895 6.81192 16.8803
2 4 1.56628 11.414 5.74126 3.7128
9 4 1.42158 6.44012 6.33603 3.58
5 4 0.907502 10.9938 0.687172 1.62262
61 3 -0.851588 7.50412 6.05432 4.64187
7 4 1.18973 11.8617 1.56065 6.02668
8 4 1.27379 9.75526 3.34842 2.38966
62 3 -0.856404 9.39273 4.96999 6.28116
215 4 1.11126 6.65003 2.499 0.199999
11 4 1.09158 9.72304 3.585 6.95384
19 2 0.00495043 8.28067 2.97349 7.82384
294 2 0.15938 6.66237 2.08141 7.50284
228 2 0.1574 7.59497 1.25891 5.16271
128 1 -0.636996 4.87861 5.54892 8.32165
29 2 0.175711 7.9027 2.23792 3.88086
30 2 0.249324 7.53338 3.94799 3.14818
31 2 0.2186 8.7946 3.64233 4.53932
221 4 0.858577 8.11383 0.228378 8.74835
116 2 0.109931 4.66458 5.06812 7.15937
44 1 -0.691631 8.36209 3.2719 3.63919
213 2 0.0489802 8.44262 0.388795 2.96436
12 4 1.47919 8.96317 6.2744 5.38402
52 3 -0.793725 12.3123 1.24156 0.985325
53 3 -0.791356 13.0501 1.96824 4.75823
54 3 -0.81678 12.6557 1.30798 7.40487
55 3 -0.823252 9.85655 1.80367 1.93639
56 3 -0.814733 10.937 4.26497 3.06394
57 3 -0.854843 6.06202 5.05093 2.59268
58 3 -0.776415 9.01737 4.40189 0.936324
59 3 -0.824148 10.5257 2.45825 6.2239
232 1 -0.670811 7.38862 0.317706 4.51168
293 1 -0.629045 6.84742 1.85234 8.61299
274 2 0.0227805 14.5411 0.454211 3.02377
35 2 0.1761 10.996 4.97374 8.33511
33 2 0.158247 3.89768 6.27752 4.20767
91 4 0.593729 13.4718 2.00877 0.179691
286 2 0.13331 14.7937 0.399474 1.12016
216 2 0.135811 8.18305 3.34909 0.124877
223 2 0.00129746 9.27973 0.123077 4.50138
46 1 -0.662511 10.5415 3.93393 8.62495
32 2 0.157742 5.03143 6.34022 5.71906
28 2 0.169376 13.3989 0.743968 10.491
36 2 0.175983 11.387 3.1821 8.93728
37 2 0.13066 9.4752 4.12102 9.4103
297 2 0.113396 9.40179 0.796966 10.6018
162 2 -0.0113281 11.0522 5.00143 10.2643
92 2 -0.0275769 12.6318 1.57219 16.4416
93 2 -0.0210549 11.0719 3.44983 16.4512
10 4 1.50856 7.14459 6.05435 17.4196
295 2 0.177357 10.0834 1.96523 9.18445
102 4 1.24544 4.85131 6.0468 15.3435
218 2 0.190732 5.17693 2.84051 15.3965
107 2 -0.00689489 6.22024 2.23433 10.4737
249 2 0.0406375 7.91775 5.50388 9.01767
114 2 0.066875 7.13028 2.53217 15.0116
127 1 -0.603737 7.68158 0.868938 15.0727
137 3 -0.837883 4.91021 3.74717 12.5513
292 2 0.16243 7.12988 2.87226 9.20388
139 3 -0.834444 4.04106 4.83462 14.6901
140 3 -0.854439 6.04014 5.54006 16.3327
191 3 -0.824715 8.669 6.3655 16.8539
187 4 0.66365 7.8315 3.85983 13.8075
188 2 -0.0057125 8.50581 2.24793 13.9754
189 2 -0.00701768 8.36627 3.86853 12.0693
190 2 0.0633956 6.21151 4.26946 13.69
186 4 1.25895 9.33343 6.34093 15.4056
192 3 -0.779035 8.59634 4.92566 14.5861
135 3 -0.797413 6.11804 1.20643 12.8913
252 2 0.192992 5.52924 6.08592 12.0926
298 1 -0.652618 9.79677 0.870886 9.47049
251 2 0.140584 8.339 3.46808 10.3053
242 2 0.131462 11.1716 1.85728 12.3502
243 2 0.167869 11.8301 0.799149 10.8954
244 2 0.115637 12.3452 1.36085 14.551
245 1 -0.662152 12.0613 1.25391 11.9432
43 1 -0.689648 14.1803 0.421739 9.6752
299 2 0.114235 8.81356 0.660229 14.8646
255 1 -0.657695 7.73133 4.39652 10.352
250 2 0.13899 6.65408 4.19947 10.6151
247 4 0.731379 7.87771 6.23001 10.8789
241 2 0.11395 13.0474 1.81561 11.9657
138 3 -0.776555 3.17102 6.01463 12.3706
117 2 0.16835 5.32984 4.81609 9.16285
13 4 1.50065 7.71862 8.28236 1.5316
14 4 0.949999 7.00145 8.12817 6.88755
15 4 1.22507 6.59879 10.7387 5.46165
207 1 -0.668962 8.25276 12.2965 1.53623
201 4 1.07251 8.77357 10.8301 3.05041
158 2 0.0693126 9.95351 8.15731 7.36308
34 2 0.189847 4.78888 7.90622 4.66193
38 2 0.15732 5.36283 11.0312 3.37964
262 2 0.0677534 5.28478 11.519 0.463316
40 2 0.12906 4.33524 11.1224 5.11045
20 2 -0.0338462 6.86057 8.74681 8.45294
47 1 -0.672291 5.19477 11.5851 4.40846
63 3 -0.814551 6.80964 7.64524 2.7795
64 3 -0.819852 8.38393 7.08639 0.678511
65 3 -0.773032 8.9255 9.3296 2.23475
66 3 -0.813105 6.90441 9.17673 0.452546
67 3 -0.793229 8.46586 7.69157 6.56414
68 3 -0.76848 7.82946 10.9895 4.37933
69 3 -0.809871 6.30202 9.17524 5.90032
70 3 -0.795061 6.85944 11.7775 6.95923
172 2 0.131236 2.83014 10.6441 3.67662
173 2 0.149004 4.20592 9.44556 3.13182
174 2 0.142298 3.27762 9.16351 4.80465
178 1 -0.665257 3.24873 9.57038 3.74647
6 4 1.19815 6.02811 12.65 8.04172
224 2 -0.0390021 2.1787 10.4017 5.19675
278 2 -0.0274593 4.18684 12.6507 3.0373
263 2 0.163337 3.5696 10.2998 0.856917
222 4 0.655996 1.27245 11.7708 5.68319
233 3 -0.723498 1.13913 12.3183 7.19832
267 2 -0.0490178 4.56586 9.14044 8.19268
60 3 -0.806063 10.0732 6.59733 4.32765
17 2 -0.0074029 3.1607 12.0586 0.85121
21 2 -0.0085579 6.07348 6.73599 7.28654
285 2 0.150638 7.80479 11.3047 1.04017
39 2 0.158935 5.3504 12.7304 4.38166
45 1 -0.668168 4.83664 6.72451 4.69438
18 2 -0.019297 4.03435 12.8241 5.50444
270 3 -0.807528 4.54209 11.6579 8.65997
115 2 0.100931 4.64785 6.69855 8.63726
209 2 0.0664723 10.0498 9.28414 0.831281
141 3 -0.807297 3.79487 6.97262 16.0187
122 2 0.119355 2.88951 8.52403 9.23652
113 2 -0.0117181 5.49559 6.91792 13.9452
307 2 0.133235 2.6171 12.5307 12.0743
123 2 0.0440413 3.48101 8.84887 11.4285
130 1 -0.633098 2.50829 8.31153 10.2616
265 4 0.939428 4.61883 10.3091 9.39217
246 1 -0.646856 5.1298 12.9539 15.0227
308 1 -0.661415 3.01951 11.6857 12.7564
248 2 0.0202774 6.88318 7.63853 10.4692
106 2 -0.018975 1.09564 12.0239 12.7104
257 3 -0.786579 9.33274 6.70976 11.3395
256 1 -0.66631 6.11079 7.07421 12.1126
258 4 0.703116 4.18168 10.3792 16.9655
259 2 -0.0163524 5.18272 11.0951 15.6773
260 2 0.0201074 2.70922 9.55046 16.2587
96 4 0.687886 -0.234708 12.7901 13.621
264 1 -0.655662 2.37166 10.9309 17.4781
303 2 0.15623 6.07034 12.7115 15.5619
254 2 0.123918 6.89588 7.03497 12.9483
284 1 -0.67953 8.81957 7.99127 14.5044
266 4 1.22955 6.76388 10.1966 11.5999
268 2 0.00737765 3.12867 10.1591 10.2888
269 2 0.00741463 6.82322 8.85604 12.651
271 3 -0.844312 8.26799 10.3481 11.2007
272 3 -0.846398 5.73019 9.89963 10.4343
273 3 -0.77106 6.15056 11.3287 12.5969
281 2 0.134828 7.96617 8.28072 15.1154
282 2 0.166322 8.45976 7.36885 13.5655
240 4 0.843812 4.88938 12.3852 13.0441
253 2 0.157794 5.44839 7.98847 11.9995
302 2 0.216797 7.56059 12.239 9.91364
305 2 0.127573 2.6455 11.6715 13.804
306 2 0.147114 3.14997 10.7436 12.2013
261 2 0.134191 1.79978 11.4852 16.7016
300 2 0.149226 0.109227 12.9919 15.907
296 2 0.269344 3.39636 12.8723 9.20006
227 2 0.141766 0.662298 11.4232 10.9382
225 2 0.15467 0.863481 10.6678 9.14566
304 2 0.118836 4.1604 12.7545 15.5966
ITEM: TIMESTEP
100
ITEM: NUMBER OF ATOMS
310
ITEM: BOX BOUNDS xy xz yz pp pp pp
-8.6787320000000001e+00 1.5411400000000000e+01 -6.8526319999999998e+00
0.0000000000000000e+00 1.3079499999999999e+01 -1.8261000000000001e+00
0.0000000000000000e+00 1.7503399999999999e+01 3.3839999999999998e-01
ITEM: ATOMS id type q x y z
4 4 1.46692 4.84281 4.28736 1.66632
3 4 1.13624 3.57061 1.78615 2.58669
280 2 0.159562 1.93446 1.0393 6.23219
71 4 0.749373 -1.193 2.14634 3.79996
23 2 0.146635 3.59827 1.10557 4.81368
24 2 0.158474 5.31226 1.18739 4.40353
25 2 0.148532 0.967428 1.05277 2.38434
26 2 0.159136 1.32761 2.89685 3.06934
27 2 0.125569 1.73737 1.39214 4.28411
41 1 -0.685591 4.3467 0.803528 4.00854
42 1 -0.62999 1.65718 1.79705 3.13028
48 3 -0.761113 3.60124 0.808189 1.1754
49 3 -0.823296 3.86108 3.29891 2.52262
51 3 -0.793162 3.88998 5.79988 0.991076
230 2 0.153689 6.25176 0.198633 4.63923
72 2 -0.0102392 0.410017 2.47665 4.53787
73 2 0.00447023 -1.70432 3.74934 0.718864
74 2 0.148188 -0.734744 4.24924 3.10352
152 4 1.44408 -2.16745 6.32352 6.03244
76 1 -0.644669 -1.3305 3.42328 2.5979
275 2 0.0026452 -0.49931 2.56862 1.1624
110 2 -0.0303796 2.16588 5.08353 7.59926
50 3 -0.852693 5.52399 3.50343 0.449285
150 4 0.791343 -0.753447 3.87862 7.86753
159 2 0.0125677 0.855855 5.17403 5.87779
163 2 0.153376 1.78317 3.56138 6.27993
164 2 0.068001 -0.0790563 2.3765 6.78355
165 2 0.18117 1.47834 3.32692 8.05807
175 1 -0.628612 1.01259 3.63192 7.04834
179 3 -0.791374 -3.17939 5.54373 4.99059
180 3 -0.753 -1.41508 5.10411 7.03301
195 2 0.0325899 -2.1817 5.92594 0.264587
196 2 0.165468 -0.80506 5.2352 1.76606
310 3 -0.844819 6.88263 1.14134 0.997483
198 1 -0.659355 -0.499413 6.28233 1.25587
197 2 0.156206 0.472953 6.12501 0.696356
33 2 0.173475 3.78097 6.24289 3.91473
94 4 0.626525 0.150683 1.9935 12.0542
95 4 1.23128 2.66113 2.23875 10.6127
147 2 0.0939395 -2.20183 6.29828 13.2138
219 2 0.176253 3.27218 2.48564 15.7504
103 2 0.0226031 -0.246678 0.457453 11.3085
104 2 0.00603653 -0.525179 2.39 10.5337
105 2 -0.0582841 -0.785498 2.10133 13.4439
108 2 0.0229658 1.2997 5.31878 16.053
111 2 0.0773023 2.24818 3.65255 12.9717
290 1 -0.661477 0.666062 0.587198 16.0453
156 2 0.0405785 -1.76351 3.08548 9.23178
132 3 -0.8158 1.83793 1.38452 9.35045
133 3 -0.80418 1.61758 2.30977 12.2714
134 3 -0.812694 3.96974 1.37034 11.2161
168 2 0.156904 -1.07389 5.24082 9.83555
136 3 -0.775802 3.1514 3.74332 9.80354
100 4 1.14952 3.67435 4.60981 13.1282
276 2 0.0734781 3.2583 0.761105 12.8543
144 2 -0.0687513 -2.20715 4.89098 15.2483
301 2 0.157729 -0.553917 1.02193 9.0468
99 4 0.712658 3.29583 5.04911 8.92787
220 1 -0.647165 4.32285 2.02457 15.8126
289 2 0.156252 -0.00411524 1.28845 16.5456
120 2 0.150871 0.721186 6.00551 13.0392
288 2 0.0978183 1.48478 1.20497 15.335
97 4 1.1394 5.23468 2.23168 11.8365
167 2 0.0860534 -0.688657 3.91871 11.2737
176 1 -0.63954 -0.541599 4.26532 9.98637
217 2 0.124277 4.42567 1.03931 15.1867
166 2 0.138872 0.567048 4.37797 9.6912
16 2 0.0265225 3.63312 0.46838 16.7253
98 4 0.992043 2.3313 6.49476 16.9568
142 4 0.681494 -2.88297 6.43257 15.3306
149 3 -0.753592 -4.44212 6.50199 15.3704
151 4 0.887503 -4.60534 6.55966 10.908
109 2 0.024388 2.80742 6.51012 9.90245
208 4 0.952964 -3.84662 9.43573 0.149295
171 2 0.147528 -4.08207 10.4486 7.3795
209 2 0.101501 -5.26497 9.44949 1.08486
153 4 0.93668 -3.91621 8.17617 8.00999
154 4 0.90546 0.665901 6.84234 5.50138
155 4 1.00062 2.1804 8.09779 2.81689
22 2 0.160574 -2.88363 12.4093 3.91536
160 2 -0.05801 1.33928 7.53345 6.86102
83 2 0.14501 -4.82904 11.9739 6.34573
177 1 -0.650606 -3.25271 9.88191 8.0242
169 2 0.176765 -2.21899 9.69407 7.52774
182 3 -0.803145 -2.9678 7.26753 7.07861
183 3 -0.776951 -0.823185 7.19171 5.45672
184 3 -0.761763 1.4515 7.34489 4.08651
185 3 -0.806438 1.32905 8.9369 1.72983
193 4 1.09166 -2.40172 7.12789 1.4956
194 2 0.167216 -0.282945 7.28171 2.1114
279 2 0.207193 -6.53544 12.5156 6.92181
234 4 1.05308 0.457879 9.88339 0.839856
161 2 0.0828645 3.14333 7.07373 1.89649
200 3 -0.839943 -2.75162 8.4869 0.806441
202 2 0.163674 -4.31208 11.5084 2.62192
203 2 0.201146 -4.23184 9.73887 3.43399
204 2 0.164232 -4.53874 11.2874 4.55178
205 2 0.154505 -6.27774 12.5277 1.12064
206 1 -0.653752 -4.69029 10.8087 3.51469
211 4 0.996612 -0.0877185 12.7392 1.99778
199 3 -0.845098 -3.24002 6.58143 2.64801
80 2 0.0243152 -3.666 12.6623 7.67304
214 3 -0.825067 -0.0724212 11.2242 1.40813
229 2 0.0170369 -0.457644 11.329 4.94129
212 2 0.0458732 -1.61592 12.6506 2.7725
87 1 -0.670237 -5.40442 12.839 6.83382
157 2 0.00786245 -3.65738 6.85066 12.2949
78 4 1.22751 -5.70493 10.5264 10.8635
79 4 0.734802 -4.37613 11.9517 13.3768
210 2 0.00130107 -6.18015 9.21644 16.1004
170 2 0.198295 -3.23815 10.1359 9.14699
82 2 0.102032 -5.14616 8.94936 10.5334
84 2 0.151823 -2.57059 10.5803 13.2489
85 2 0.153081 -3.58809 9.95253 14.8927
86 2 0.0886952 -2.76173 11.8437 15.0289
88 1 -0.637903 -3.13791 10.8685 14.3111
89 3 -0.836085 -5.19732 11.3158 9.49593
90 3 -0.790636 -4.95452 11.0906 12.1578
119 2 0.17532 -0.583171 7.31487 13.1127
277 2 -0.00490556 -1.31506 11.4975 14.0676
121 2 0.148298 1.29722 8.4636 10.4294
146 2 0.177847 -3.47687 8.05293 13.5557
148 1 -0.613736 -2.53229 7.41737 13.7935
145 2 0.123975 -1.60464 8.02854 14.3878
118 2 0.130997 0.390112 7.19839 11.4365
225 2 0.167885 0.125453 10.5397 9.16519
236 2 0.168394 -0.389796 8.85499 16.2405
239 1 -0.660581 -0.952802 9.91168 16.491
129 1 -0.627229 0.467294 7.0468 12.6861
283 2 0.153018 -5.61661 8.66897 14.346
226 2 0.157192 -0.622638 11.818 10.3621
181 3 -0.769676 -4.28475 7.7092 9.83933
287 2 0.157223 -7.09601 12.5336 15.5214
237 2 0.177702 -1.80905 10.1806 15.8735
235 2 0.107849 -0.150008 10.9687 16.6109
238 2 0.0478314 -2.57339 9.3475 17.3868
81 2 -0.0209395 -5.51007 12.3507 14.6497
131 1 -0.649652 0.666188 7.09649 15.9923
124 2 0.155104 0.535876 6.94901 14.8127
125 2 0.109939 1.36149 8.27409 16.2167
1 4 0.98997 -5.19222 12.9092 17.321
112 2 0.0340138 1.32589 8.23702 13.6408
231 1 -0.656421 0.293826 11.4124 9.89338
77 4 1.05222 -5.06664 12.7002 8.75384
126 2 0.129781 -0.300469 7.06303 16.643
309 3 -0.814051 -5.42158 11.326 17.4719
143 2 -0.000227788 -2.35522 7.08422 16.9219
2 4 1.5141 11.2544 5.80176 3.74338
223 2 -0.0111936 9.29852 0.188969 4.64015
5 4 0.909237 11.1491 0.757927 1.82904
61 3 -0.870163 7.43593 5.91284 4.59564
7 4 1.27352 11.8317 1.65681 6.01833
8 4 1.2723 9.66221 3.38282 2.35687
62 3 -0.832511 9.26437 4.9052 6.26687
215 4 1.09219 6.63894 2.43385 0.0830307
11 4 1.10473 9.71065 3.60733 7.01706
19 2 0.00722479 8.39658 2.82888 7.89676
294 2 0.17317 6.59852 1.94719 7.80403
228 2 0.150781 7.73059 1.21294 4.94582
128 1 -0.673766 4.95386 5.55619 8.32047
29 2 0.177444 7.89814 2.1297 3.8185
30 2 0.252614 7.49668 3.88114 3.07959
31 2 0.226671 8.58304 3.69615 4.48681
32 2 0.151968 4.79736 6.04406 5.48463
116 2 0.120419 4.77031 5.30889 7.16636
44 1 -0.693099 8.25747 3.20352 3.5526
75 2 0.231902 12.9018 3.57296 2.64568
12 4 1.42822 8.85178 6.26833 5.34071
52 3 -0.77879 12.3476 1.37836 1.02945
53 3 -0.78215 12.9457 1.97717 4.88494
54 3 -0.814457 12.6095 1.27311 7.36521
55 3 -0.805087 9.95053 1.80264 1.93844
56 3 -0.804135 10.7731 4.11212 3.13133
57 3 -0.80075 5.89997 4.94159 2.58004
58 3 -0.816295 8.97412 4.45564 0.850714
59 3 -0.8376 10.6506 2.60781 6.31037
232 1 -0.675151 7.35415 0.30822 4.39034
18 2 -0.0216871 11.293 0.137007 5.42304
274 2 0.0114923 14.599 0.628952 2.98535
35 2 0.166919 10.7731 5.08222 8.41436
9 4 1.31703 6.33359 6.41674 3.6095
91 4 0.589505 13.4682 2.10441 0.162093
286 2 0.149593 14.5948 0.262279 1.37639
216 2 0.106005 8.08849 3.31828 0.0416359
213 2 0.0297554 8.59178 0.194403 2.95998
28 2 0.168945 13.4548 0.632219 10.4726
36 2 0.165724 11.101 3.28359 9.17472
37 2 0.149806 9.33787 4.13795 9.51074
297 2 0.138456 9.8439 0.740519 10.7839
162 2 -0.0160358 11.314 5.04077 10.2896
92 2 -0.0179846 12.3678 1.35343 16.4478
93 2 -0.0408388 11.0613 3.3462 16.3236
291 2 0.112993 6.35378 0.882229 9.52712
295 2 0.165376 10.1044 1.9797 9.34227
102 4 1.21818 4.82574 6.05805 15.3048
218 2 0.174865 5.15785 2.75692 15.2955
107 2 0.0198281 6.25915 2.41825 10.4391
249 2 0.0301634 7.68131 4.98084 9.20197
114 2 0.0455613 7.10123 2.83358 14.8656
127 1 -0.610274 7.45447 1.07609 15.2138
137 3 -0.833578 5.03659 3.75176 12.347
292 2 0.153647 7.44307 2.73942 9.37286
139 3 -0.808732 3.96637 4.6812 14.7178
140 3 -0.853381 6.1186 5.83456 16.1903
191 3 -0.818203 8.56155 6.60653 16.8221
187 4 0.666188 8.20646 3.8874 13.7626
188 2 -0.0244962 8.72657 2.3627 14.3211
189 2 -0.000434137 8.89978 3.72167 12.1211
190 2 0.0519211 6.64272 4.11977 13.2006
186 4 1.24348 9.17497 6.49482 15.3615
192 3 -0.787648 8.71926 5.17096 14.4083
135 3 -0.791486 6.06427 1.21498 12.8524
252 2 0.186255 5.94192 5.82041 12.0362
298 1 -0.664848 9.93351 0.839103 9.65691
251 2 0.127129 8.19798 3.18807 10.6768
242 2 0.129722 11.3681 2.03075 12.1657
243 2 0.181769 11.9282 0.983532 10.8117
244 2 0.117945 12.7048 1.15141 14.5636
245 1 -0.679405 12.159 1.33707 11.8445
43 1 -0.662211 14.2257 0.222087 9.55827
299 2 0.123545 8.54993 0.72623 15.3061
255 1 -0.650284 7.68038 4.24027 10.704
250 2 0.169477 6.65361 4.1918 11.156
247 4 0.743471 7.83068 6.18727 10.7371
241 2 0.107311 13.153 1.87377 11.9531
138 3 -0.783735 3.29132 6.04069 12.6376
117 2 0.16282 5.58453 4.76119 8.87415
300 2 0.144399 6.73734 0.710723 16.0715
257 3 -0.786155 9.27374 6.56417 11.2288
293 1 -0.620431 7.05691 1.75982 8.77607
46 1 -0.677049 10.3319 4.02661 8.7769
10 4 1.56855 7.0704 6.14269 17.4923
13 4 1.47926 7.59893 8.14734 1.51905
14 4 0.945243 7.0106 8.07117 6.82391
15 4 1.26408 6.75939 10.7394 5.59936
207 1 -0.667266 8.14089 12.2292 1.56838
201 4 1.14177 8.93853 10.7673 3.01585
158 2 0.109814 9.94715 8.08129 7.18985
34 2 0.187585 4.70874 7.81519 4.71445
38 2 0.15567 5.15968 10.9875 3.50362
262 2 0.0285511 5.69093 11.7466 0.165719
40 2 0.132974 4.46612 11.1886 5.34578
20 2 -0.0366968 6.74885 8.31833 8.49848
47 1 -0.657856 5.28402 11.5388 4.55285
63 3 -0.821991 6.51644 7.79198 2.72728
64 3 -0.891101 8.39152 7.03126 0.792367
65 3 -0.76539 8.89043 9.4655 2.1375
66 3 -0.792557 6.86883 9.20429 0.500918
67 3 -0.812212 8.53002 7.73676 6.58467
68 3 -0.746105 8.07587 10.8142 4.33612
69 3 -0.81816 6.3102 9.16206 5.92648
70 3 -0.83908 6.90508 11.713 6.80527
172 2 0.143483 2.80433 10.4382 3.74155
173 2 0.151783 4.12351 9.05635 3.46841
174 2 0.145645 3.0115 9.09254 5.03843
178 1 -0.641537 3.068 9.40677 3.90186
6 4 1.21317 5.95606 12.5493 7.98608
224 2 -0.0318642 2.14082 10.406 5.3227
270 3 -0.818152 4.71298 11.5393 8.67489
263 2 0.166119 4.27369 10.14 0.87439
222 4 0.614549 1.19116 11.7914 5.66219
233 3 -0.721998 1.15827 12.3135 7.32015
267 2 -0.0559956 4.32941 8.98353 8.16636
60 3 -0.837943 10.001 6.64937 4.31777
17 2 -0.0119641 3.50508 12.0844 0.968913
21 2 -0.0137311 6.01451 6.64897 7.09713
285 2 0.176968 7.77301 11.3043 1.00737
39 2 0.165299 5.56539 12.6483 4.44818
45 1 -0.666448 4.68404 6.64667 4.57019
115 2 0.0942375 5.22697 6.69628 8.69153
278 2 -0.0397404 4.34579 12.7722 3.25965
141 3 -0.801231 3.81487 6.96877 16.1166
122 2 0.114823 2.8311 8.42308 9.43912
113 2 -0.00631066 5.37848 7.06889 13.9901
307 2 0.123451 2.55103 12.741 12.3498
123 2 0.005834 3.46371 9.07572 11.6402
130 1 -0.645037 2.3687 8.25181 10.4404
265 4 0.942601 4.62927 10.1502 9.38054
246 1 -0.652185 5.31929 12.7993 14.9747
308 1 -0.636033 3.01261 11.7462 12.7096
248 2 0.0210318 6.69591 7.52212 10.4348
106 2 -0.00519171 1.21336 12.1136 13.2412
227 2 0.146939 1.19266 11.2606 10.6081
256 1 -0.664802 6.10512 6.91511 12.1633
258 4 0.709959 4.35406 10.5031 16.9806
259 2 -0.0283827 5.06149 10.9038 15.4586
260 2 0.0542018 2.66299 9.78477 16.2637
96 4 0.695109 -0.343118 12.9259 13.7911
264 1 -0.636302 2.45328 10.9499 17.3681
303 2 0.144959 6.21578 12.3054 15.4609
254 2 0.145541 6.73454 7.11762 13.0536
284 1 -0.661697 8.72512 8.15372 14.5165
266 4 1.21968 6.67057 10.1952 11.5512
268 2 -0.00366895 3.06695 10.0888 10.1945
269 2 -0.000939524 6.62457 8.76042 12.5359
271 3 -0.853843 8.20578 10.3287 11.1231
272 3 -0.824329 5.87366 9.82135 10.2355
273 3 -0.800666 5.87672 11.3715 12.3499
281 2 0.132267 7.92907 8.95592 14.8794
282 2 0.173924 8.42903 7.65065 13.5186
240 4 0.868471 4.85742 12.4282 12.9329
253 2 0.171094 5.12229 7.41514 12.2907
304 2 0.114051 4.29793 12.6601 15.4568
305 2 0.0987577 3.07544 11.5452 13.961
306 2 0.146463 2.95234 10.7903 12.1256
261 2 0.147249 1.52454 11.5034 17.1292
101 4 0.695431 2.43588 7.61197 12.2071
302 2 0.222491 7.55354 11.9593 9.75883
221 4 0.876178 1.0846 12.8512 8.85246
296 2 0.242594 3.52952 12.8683 9.23507
ITEM: TIMESTEP
200
ITEM: NUMBER OF ATOMS
310
ITEM: BOX BOUNDS xy xz yz pp pp pp
-8.3286639999999998e+00 1.5411400000000000e+01 -6.5025639999999996e+00
0.0000000000000000e+00 1.3079499999999999e+01 -1.8261000000000001e+00
0.0000000000000000e+00 1.7503399999999999e+01 3.3839999999999998e-01
ITEM: ATOMS id type q x y z
4 4 1.44267 4.78177 4.24739 1.56177
3 4 1.09283 3.2013 1.86493 2.62048
280 2 0.168917 1.40715 1.57102 6.74392
71 4 0.745237 -1.23368 2.15472 3.84835
23 2 0.147529 3.42111 1.10012 5.33553
24 2 0.16375 5.05051 1.622 4.75937
25 2 0.154186 0.807315 0.741986 2.57843
26 2 0.140991 1.09487 2.83583 2.75765
27 2 0.144454 1.62604 1.6214 4.31149
41 1 -0.63456 4.06255 1.20083 4.38783
42 1 -0.66164 1.38446 1.73022 3.16052
48 3 -0.767868 3.28636 0.74737 1.30831
49 3 -0.812694 3.81202 3.33178 2.42953
51 3 -0.79386 3.76936 5.77744 0.942476
33 2 0.172815 3.77185 6.14286 4.14743
72 2 0.00365623 0.261145 2.73648 4.48459
73 2 0.0019302 -1.48728 3.76138 0.625566
74 2 0.136742 -0.782084 4.18148 3.17207
152 4 1.42823 -2.16629 6.27413 6.24766
76 1 -0.628565 -1.40833 3.29115 2.51333
275 2 0.0186324 -0.600014 2.24807 1.2403
110 2 -0.0333445 2.11861 5.02873 7.82226
50 3 -0.831496 5.42361 3.34289 0.298585
150 4 0.799275 -0.574254 3.98911 7.87326
159 2 0.0158989 1.0163 5.3323 6.04449
163 2 0.153987 1.9156 3.42856 6.06246
164 2 0.0669877 -0.12415 2.59771 6.55346
165 2 0.148237 1.61198 3.44672 7.96499
175 1 -0.623961 1.15105 3.62574 6.885
179 3 -0.761062 -3.07653 5.52199 5.07041
180 3 -0.807602 -1.38899 5.1037 7.124
195 2 0.0390961 -2.37388 5.82155 0.184308
196 2 0.172125 -0.975042 5.00848 1.6011
310 3 -0.813984 6.83236 1.22141 0.948481
198 1 -0.677748 -0.684598 6.09848 1.09517
197 2 0.148207 0.184758 5.89287 0.44717
205 2 0.143116 0.502909 0.207963 1.16767
87 1 -0.675054 1.42076 0.347898 6.84923
212 2 0.0190534 5.87849 0.491454 3.32479
291 2 0.147777 5.57301 1.74874 8.4437
22 2 0.141 4.32069 0.163045 3.94693
94 4 0.626838 0.164992 1.98617 11.7251
95 4 1.26286 2.70509 2.21782 10.4867
109 2 0.0285855 2.90338 6.38898 10.2397
219 2 0.162867 3.25865 2.3075 15.6955
103 2 0.012077 -0.224581 0.424896 11.2757
104 2 -0.00122205 -0.313591 2.47987 10.1437
105 2 -0.0594567 -0.981589 2.38493 12.9607
108 2 -0.00264891 1.19509 5.39675 15.81
111 2 0.0792139 2.46772 3.48764 12.8439
290 1 -0.609995 1.07051 0.888643 16.0597
156 2 0.0381544 -1.57665 3.06975 9.09298
132 3 -0.843448 1.75821 1.30091 9.37943
133 3 -0.790749 1.62638 2.28932 12.1628
134 3 -0.834089 4.04779 1.42314 11.096
168 2 0.161858 -1.16893 5.40421 9.86595
136 3 -0.804329 3.23058 3.6489 9.83917
100 4 1.12452 3.8301 4.54704 13.0957
276 2 0.0676724 3.3753 0.557625 12.7335
144 2 -0.0684142 -2.23697 5.07157 15.1821
301 2 0.173174 -0.503216 0.919771 9.40335
99 4 0.701426 3.31831 5.05382 9.14062
220 1 -0.671109 4.41895 2.00355 15.7139
289 2 0.100607 -0.0208129 1.56238 16.5701
120 2 0.138978 0.538006 6.05848 13.2868
288 2 0.123564 1.8376 1.54058 15.3864
97 4 1.06044 5.29934 2.07106 11.728
167 2 0.0958696 -0.668654 4.00773 11.1471
176 1 -0.640648 -0.576949 4.43358 9.94123
217 2 0.14945 4.64556 0.968328 15.8761
166 2 0.108846 0.550243 4.66219 9.69658
16 2 0.0181888 3.06669 0.771044 16.3873
98 4 1.03005 2.17831 6.37148 16.8975
142 4 0.707739 -2.98426 6.59705 15.316
149 3 -0.786075 -4.51546 6.55834 15.3827
287 2 0.0944539 -0.233986 0.689625 15.613
208 4 0.977739 -3.81476 9.40202 0.243694
171 2 0.129946 -3.88225 10.4353 7.30623
309 3 -0.801116 -3.45527 10.9013 0.104708
153 4 0.9458 -4.10048 8.27631 7.9808
154 4 0.938076 0.546931 6.92461 5.37494
155 4 1.03876 2.0526 7.94167 2.97425
230 2 0.135465 -0.707157 12.6213 4.86719
160 2 -0.0681782 1.16618 7.799 6.64595
83 2 0.149808 -4.72694 12.8002 6.05257
177 1 -0.656398 -3.16162 9.83327 7.98177
169 2 0.172525 -2.09385 9.80027 7.5286
182 3 -0.78302 -3.14531 7.27435 7.16079
183 3 -0.76015 -1.01527 7.16409 5.29064
184 3 -0.836963 1.38813 7.13346 4.09473
185 3 -0.817142 1.20888 8.8126 1.9081
193 4 1.09214 -2.46017 7.01292 1.38385
194 2 0.168838 -0.357944 6.9763 1.98138
279 2 0.22185 -6.38414 12.441 6.8154
234 4 0.998959 0.392932 9.70894 0.891607
161 2 0.103323 2.89583 6.85992 1.91389
200 3 -0.847244 -2.71002 8.41787 0.736294
202 2 0.185302 -4.42533 11.8761 2.80211
203 2 0.175067 -4.03593 9.96052 3.16655
204 2 0.16655 -4.26413 11.2292 4.62578
77 4 1.0651 -4.9248 12.6932 8.67928
206 1 -0.669489 -4.54783 10.9749 3.53203
211 4 0.968997 -0.00269064 12.6832 1.95315
199 3 -0.785494 -3.30895 6.46505 2.56425
80 2 -0.00774155 -3.71748 12.3794 7.47834
214 3 -0.801454 -0.115956 11.3254 1.31768
229 2 0.00656165 -0.0372481 11.0656 5.04672
1 4 1.01366 -3.13386 12.5564 0.0167101
157 2 -0.0001969 -3.86132 6.63944 12.3507
78 4 1.18279 -5.62889 10.5905 10.7893
79 4 0.768566 -4.35061 12.0306 13.25
210 2 0.00264041 -6.25984 9.22542 16.2601
170 2 0.156843 -3.18539 10.1347 9.09186
82 2 0.075958 -5.00599 9.04476 10.4545
84 2 0.14245 -2.2685 10.9847 13.5201
85 2 0.159963 -3.72961 10.1315 14.4768
86 2 0.141586 -2.79699 11.5117 15.3626