ITEM: TIMESTEP
0
ITEM: NUMBER OF ATOMS
310
ITEM: BOX BOUNDS xy xz yz pp pp pp
-9.0288000000000004e+00 1.5411400000000000e+01 -7.2027000000000001e+00
0.0000000000000000e+00 1.3079499999999999e+01 -1.8261000000000001e+00
0.0000000000000000e+00 1.7503399999999999e+01 3.3839999999999998e-01
ITEM: ATOMS id type q x y z
4 4 1.45856 4.87283 4.46226 1.69419
3 4 1.11116 3.47572 1.77983 2.54103
280 2 0.149494 2.13578 0.930474 6.60399
71 4 0.806111 -1.28356 2.04886 3.69598
23 2 0.154763 3.69377 0.864288 4.94496
24 2 0.132415 5.27824 1.39934 3.85044
25 2 0.157841 0.910854 1.01355 2.55489
26 2 0.161009 1.06671 2.93362 3.17507
27 2 0.128062 1.89091 1.5407 4.18537
41 1 -0.655446 4.24213 0.69609 3.95964
42 1 -0.627898 1.58424 1.91067 3.08339
48 3 -0.766106 3.37578 0.730783 1.14162
49 3 -0.794662 3.90822 3.28857 2.45074
51 3 -0.804595 4.07194 5.84369 1.00966
75 2 0.20627 -2.08235 3.80925 2.58367
72 2 0.00218088 0.268662 2.20085 4.57428
73 2 0.00867509 -1.67465 3.68341 0.770465
74 2 0.13812 -0.223458 4.01053 3.25513
152 4 1.40481 -2.07869 6.21181 6.12567
76 1 -0.646752 -0.981325 3.41799 2.56678
275 2 0.0168823 -0.427048 2.42405 1.16089
110 2 -0.0371768 2.02218 4.99208 7.39211
50 3 -0.808169 5.42677 3.47059 0.487757
150 4 0.803037 -0.668153 3.92029 7.82762
159 2 0.0155198 0.890117 5.00512 5.61544
163 2 0.145698 1.46371 3.2968 5.83099
164 2 0.078733 -0.319188 2.35301 6.63774
165 2 0.155399 1.54684 3.32906 7.70993
175 1 -0.634152 0.873848 3.50151 6.77791
179 3 -0.80277 -2.86311 5.55323 4.88479
180 3 -0.808362 -1.35974 5.13981 7.09184
195 2 0.0591915 -1.98275 6.07875 0.262784
196 2 0.17849 -0.712818 5.26076 1.82439
310 3 -0.818676 6.80771 1.17559 1.07131
94 4 0.637971 -0.0143294 2.06987 11.9066
95 4 1.27553 2.5982 2.3333 10.69
147 2 0.0981394 -2.04843 6.34077 13.2724
219 2 0.158784 3.3943 2.46096 15.8582
103 2 0.0287733 -0.331242 0.481852 11.4499
104 2 0.00137912 -0.667556 2.53757 10.3278
105 2 -0.0582736 -1.07772 2.50688 13.0933
108 2 0.0234393 1.39235 5.47128 15.8337
111 2 0.0713534 2.35978 3.43851 13.258
290 1 -0.660541 0.421072 0.450714 15.9932
156 2 0.0507759 -1.81908 3.13286 9.0651
132 3 -0.829222 1.94176 1.36664 9.50884
133 3 -0.797502 1.43102 2.49047 12.1931
134 3 -0.827709 3.87234 1.53301 11.3861
168 2 0.169339 -1.4174 5.45112 9.87787
136 3 -0.76056 2.95672 3.8339 9.6945
100 4 1.1665 3.68069 4.50619 13.165
276 2 0.0448249 3.17092 0.617246 13.169
144 2 -0.0521931 -2.44399 4.75007 15.0723
301 2 0.136491 -0.624739 1.27914 9.15074
99 4 0.693909 3.0634 5.0842 8.77105
220 1 -0.657298 4.52722 2.0964 15.9416
289 2 0.145133 -0.323279 1.05385 16.6522
120 2 0.148192 0.595903 5.99299 12.9982
288 2 0.101991 1.14777 1.18043 15.3648
157 2 -0.00377799 -3.55976 6.46128 12.4178
167 2 0.109237 -0.983555 4.05275 11.1199
176 1 -0.642544 -0.898256 4.43183 9.98165
217 2 0.156389 4.59995 1.03644 15.7034
166 2 0.129994 0.229031 4.58905 9.80798
16 2 0.009929 3.35723 0.701933 16.6637
98 4 0.972951 2.288 6.65728 16.8746
142 4 0.688965 -2.90789 6.35799 15.3219
149 3 -0.789564 -4.49552 6.28649 15.4225
151 4 0.841689 -4.52507 6.51502 11.0007
97 4 1.1175 5.23783 2.12518 11.8817
291 2 0.130567 6.07175 1.10184 9.15809
208 4 0.950006 -3.8677 9.49643 0.107748
171 2 0.146636 -4.07003 10.4287 7.51911
230 2 0.164779 -0.808617 12.785 4.66043
153 4 0.92223 -3.91648 8.24613 8.0833
154 4 0.929563 0.6949 6.77014 5.35494
155 4 1.00689 2.31026 8.10275 2.95243
22 2 0.162537 -2.74305 12.3179 3.82199
160 2 -0.0694812 1.40182 7.13568 6.83879
83 2 0.151884 -4.602 11.8482 6.12799
177 1 -0.645056 -3.10371 9.90077 7.96598
169 2 0.179896 -2.25216 9.55685 7.19367
182 3 -0.777039 -3.07668 7.29391 7.16855
183 3 -0.762394 -0.770042 7.1276 5.27877
184 3 -0.804892 1.59401 7.25321 4.09414
185 3 -0.786253 1.38339 8.81099 1.8102
193 4 1.06919 -2.43797 7.34361 1.60271
194 2 0.150367 -0.619537 7.34926 2.38003
279 2 0.188933 -6.39227 12.3284 6.9678
234 4 1.02486 0.585455 9.83203 0.812009
161 2 0.0869479 3.30095 6.97604 2.04348
200 3 -0.841082 -2.71478 8.7218 0.835594
202 2 0.175918 -4.66081 12.0785 2.93244
203 2 0.198619 -4.29936 10.1641 3.28559
204 2 0.161549 -4.62616 11.3632 4.8229
205 2 0.168485 -6.05851 12.4183 1.23747
206 1 -0.626432 -4.81802 11.1203 3.63184
211 4 0.966066 -0.128632 12.6751 2.01291
199 3 -0.843645 -3.34688 6.57046 2.57487
80 2 0.0360489 -3.55389 12.5595 7.94211
214 3 -0.813845 0.235684 11.2852 1.26553
229 2 0.003093 -0.299054 11.2646 4.96067
212 2 0.00886359 -1.54065 12.5149 3.06256
87 1 -0.664408 -5.1487 12.5692 6.91269
197 2 0.175023 0.385121 6.55268 0.774102
198 1 -0.634032 -0.551919 6.42527 1.34275
77 4 1.0646 -5.13051 12.6823 8.85933
78 4 1.2667 -5.63497 10.5059 10.861
79 4 0.754595 -4.49438 11.7507 13.519
210 2 -0.0156806 -6.09363 9.03954 16.1233
170 2 0.162889 -2.7804 10.1511 9.07528
82 2 0.100559 -4.86941 8.94634 10.4631
84 2 0.164977 -2.20641 10.0966 13.6427
85 2 0.129213 -3.76594 10.0301 14.7977
86 2 0.0984011 -2.61859 11.614 14.8296
88 1 -0.638969 -3.05002 10.7204 14.1378
89 3 -0.867464 -5.46945 11.3635 9.61621
90 3 -0.787228 -4.95206 11.0844 12.2004
119 2 0.174807 -0.505203 7.49746 13.2665
277 2 -0.0114546 -1.20134 11.3579 13.7608
121 2 0.134731 1.45714 8.69504 10.3978
146 2 0.185624 -3.24345 8.02708 13.2635
148 1 -0.638951 -2.49385 7.42169 13.8525
145 2 0.134716 -1.64387 8.02211 14.359
118 2 0.108993 0.310871 7.42888 11.4696
101 4 0.763094 2.41525 7.34909 12.0731
236 2 0.15971 -0.440189 9.00809 16.1947
239 1 -0.663152 -0.957328 10.0438 16.464
129 1 -0.626993 0.457592 7.11965 12.7796
283 2 0.160701 -5.95372 8.90863 14.1786
226 2 0.154453 -0.827642 11.307 9.76685
181 3 -0.743473 -4.0088 7.74508 9.96773
287 2 0.156258 -7.33298 12.4393 15.3341
237 2 0.163603 -1.87686 10.3051 15.7161
309 3 -0.813673 -5.44827 11.3748 17.4814
238 2 0.0568076 -2.61957 9.55923 17.4066
81 2 -0.0223978 -5.84241 12.1624 14.5375
131 1 -0.67694 0.655476 7.21987 16.0293
124 2 0.164481 0.592137 7.18173 14.8516
125 2 0.0999141 1.2297 8.45779 16.4347
1 4 1.00683 -5.43 12.9401 17.3075
112 2 0.0286708 1.64716 8.09834 13.6812
235 2 0.126956 -0.10815 10.987 16.5153
109 2 0.00499672 2.35015 6.62116 9.39368
126 2 0.143001 -0.251021 7.16965 16.6318
231 1 -0.648363 0.295705 11.4562 9.85103
143 2 -0.018708 -2.21895 6.81192 16.8803
2 4 1.56628 11.414 5.74126 3.7128
9 4 1.42158 6.44012 6.33603 3.58
5 4 0.907502 10.9938 0.687172 1.62262
61 3 -0.851588 7.50412 6.05432 4.64187
7 4 1.18973 11.8617 1.56065 6.02668
8 4 1.27379 9.75526 3.34842 2.38966
62 3 -0.856404 9.39273 4.96999 6.28116
215 4 1.11126 6.65003 2.499 0.199999
11 4 1.09158 9.72304 3.585 6.95384
19 2 0.00495043 8.28067 2.97349 7.82384
294 2 0.15938 6.66237 2.08141 7.50284
228 2 0.1574 7.59497 1.25891 5.16271
128 1 -0.636996 4.87861 5.54892 8.32165
29 2 0.175711 7.9027 2.23792 3.88086
30 2 0.249324 7.53338 3.94799 3.14818
31 2 0.2186 8.7946 3.64233 4.53932
221 4 0.858577 8.11383 0.228378 8.74835
116 2 0.109931 4.66458 5.06812 7.15937
44 1 -0.691631 8.36209 3.2719 3.63919
213 2 0.0489802 8.44262 0.388795 2.96436
12 4 1.47919 8.96317 6.2744 5.38402
52 3 -0.793725 12.3123 1.24156 0.985325
53 3 -0.791356 13.0501 1.96824 4.75823
54 3 -0.81678 12.6557 1.30798 7.40487
55 3 -0.823252 9.85655 1.80367 1.93639
56 3 -0.814733 10.937 4.26497 3.06394
57 3 -0.854843 6.06202 5.05093 2.59268
58 3 -0.776415 9.01737 4.40189 0.936324
59 3 -0.824148 10.5257 2.45825 6.2239
232 1 -0.670811 7.38862 0.317706 4.51168
293 1 -0.629045 6.84742 1.85234 8.61299
274 2 0.0227805 14.5411 0.454211 3.02377
35 2 0.1761 10.996 4.97374 8.33511
33 2 0.158247 3.89768 6.27752 4.20767
91 4 0.593729 13.4718 2.00877 0.179691
286 2 0.13331 14.7937 0.399474 1.12016
216 2 0.135811 8.18305 3.34909 0.124877
223 2 0.00129746 9.27973 0.123077 4.50138
46 1 -0.662511 10.5415 3.93393 8.62495
32 2 0.157742 5.03143 6.34022 5.71906
28 2 0.169376 13.3989 0.743968 10.491
36 2 0.175983 11.387 3.1821 8.93728
37 2 0.13066 9.4752 4.12102 9.4103
297 2 0.113396 9.40179 0.796966 10.6018
162 2 -0.0113281 11.0522 5.00143 10.2643
92 2 -0.0275769 12.6318 1.57219 16.4416
93 2 -0.0210549 11.0719 3.44983 16.4512
10 4 1.50856 7.14459 6.05435 17.4196
295 2 0.177357 10.0834 1.96523 9.18445
102 4 1.24544 4.85131 6.0468 15.3435
218 2 0.190732 5.17693 2.84051 15.3965
107 2 -0.00689489 6.22024 2.23433 10.4737
249 2 0.0406375 7.91775 5.50388 9.01767
114 2 0.066875 7.13028 2.53217 15.0116
127 1 -0.603737 7.68158 0.868938 15.0727
137 3 -0.837883 4.91021 3.74717 12.5513
292 2 0.16243 7.12988 2.87226 9.20388
139 3 -0.834444 4.04106 4.83462 14.6901
140 3 -0.854439 6.04014 5.54006 16.3327
191 3 -0.824715 8.669 6.3655 16.8539
187 4 0.66365 7.8315 3.85983 13.8075
188 2 -0.0057125 8.50581 2.24793 13.9754
189 2 -0.00701768 8.36627 3.86853 12.0693
190 2 0.0633956 6.21151 4.26946 13.69
186 4 1.25895 9.33343 6.34093 15.4056
192 3 -0.779035 8.59634 4.92566 14.5861
135 3 -0.797413 6.11804 1.20643 12.8913
252 2 0.192992 5.52924 6.08592 12.0926
298 1 -0.652618 9.79677 0.870886 9.47049
251 2 0.140584 8.339 3.46808 10.3053
242 2 0.131462 11.1716 1.85728 12.3502
243 2 0.167869 11.8301 0.799149 10.8954
244 2 0.115637 12.3452 1.36085 14.551
245 1 -0.662152 12.0613 1.25391 11.9432
43 1 -0.689648 14.1803 0.421739 9.6752
299 2 0.114235 8.81356 0.660229 14.8646
255 1 -0.657695 7.73133 4.39652 10.352
250 2 0.13899 6.65408 4.19947 10.6151
247 4 0.731379 7.87771 6.23001 10.8789
241 2 0.11395 13.0474 1.81561 11.9657
138 3 -0.776555 3.17102 6.01463 12.3706
117 2 0.16835 5.32984 4.81609 9.16285
13 4 1.50065 7.71862 8.28236 1.5316
14 4 0.949999 7.00145 8.12817 6.88755
15 4 1.22507 6.59879 10.7387 5.46165
207 1 -0.668962 8.25276 12.2965 1.53623
201 4 1.07251 8.77357 10.8301 3.05041
158 2 0.0693126 9.95351 8.15731 7.36308
34 2 0.189847 4.78888 7.90622 4.66193
38 2 0.15732 5.36283 11.0312 3.37964
262 2 0.0677534 5.28478 11.519 0.463316
40 2 0.12906 4.33524 11.1224 5.11045
20 2 -0.0338462 6.86057 8.74681 8.45294
47 1 -0.672291 5.19477 11.5851 4.40846
63 3 -0.814551 6.80964 7.64524 2.7795
64 3 -0.819852 8.38393 7.08639 0.678511
65 3 -0.773032 8.9255 9.3296 2.23475
66 3 -0.813105 6.90441 9.17673 0.452546
67 3 -0.793229 8.46586 7.69157 6.56414
68 3 -0.76848 7.82946 10.9895 4.37933
69 3 -0.809871 6.30202 9.17524 5.90032
70 3 -0.795061 6.85944 11.7775 6.95923
172 2 0.131236 2.83014 10.6441 3.67662
173 2 0.149004 4.20592 9.44556 3.13182
174 2 0.142298 3.27762 9.16351 4.80465
178 1 -0.665257 3.24873 9.57038 3.74647
6 4 1.19815 6.02811 12.65 8.04172
224 2 -0.0390021 2.1787 10.4017 5.19675
278 2 -0.0274593 4.18684 12.6507 3.0373
263 2 0.163337 3.5696 10.2998 0.856917
222 4 0.655996 1.27245 11.7708 5.68319
233 3 -0.723498 1.13913 12.3183 7.19832
267 2 -0.0490178 4.56586 9.14044 8.19268
60 3 -0.806063 10.0732 6.59733 4.32765
17 2 -0.0074029 3.1607 12.0586 0.85121
21 2 -0.0085579 6.07348 6.73599 7.28654
285 2 0.150638 7.80479 11.3047 1.04017
39 2 0.158935 5.3504 12.7304 4.38166
45 1 -0.668168 4.83664 6.72451 4.69438
18 2 -0.019297 4.03435 12.8241 5.50444
270 3 -0.807528 4.54209 11.6579 8.65997
115 2 0.100931 4.64785 6.69855 8.63726
209 2 0.0664723 10.0498 9.28414 0.831281
141 3 -0.807297 3.79487 6.97262 16.0187
122 2 0.119355 2.88951 8.52403 9.23652
113 2 -0.0117181 5.49559 6.91792 13.9452
307 2 0.133235 2.6171 12.5307 12.0743
123 2 0.0440413 3.48101 8.84887 11.4285
130 1 -0.633098 2.50829 8.31153 10.2616
265 4 0.939428 4.61883 10.3091 9.39217
246 1 -0.646856 5.1298 12.9539 15.0227
308 1 -0.661415 3.01951 11.6857 12.7564
248 2 0.0202774 6.88318 7.63853 10.4692
106 2 -0.018975 1.09564 12.0239 12.7104
257 3 -0.786579 9.33274 6.70976 11.3395
256 1 -0.66631 6.11079 7.07421 12.1126
258 4 0.703116 4.18168 10.3792 16.9655
259 2 -0.0163524 5.18272 11.0951 15.6773
260 2 0.0201074 2.70922 9.55046 16.2587
96 4 0.687886 -0.234708 12.7901 13.621
264 1 -0.655662 2.37166 10.9309 17.4781
303 2 0.15623 6.07034 12.7115 15.5619
254 2 0.123918 6.89588 7.03497 12.9483
284 1 -0.67953 8.81957 7.99127 14.5044
266 4 1.22955 6.76388 10.1966 11.5999
268 2 0.00737765 3.12867 10.1591 10.2888
269 2 0.00741463 6.82322 8.85604 12.651
271 3 -0.844312 8.26799 10.3481 11.2007
272 3 -0.846398 5.73019 9.89963 10.4343
273 3 -0.77106 6.15056 11.3287 12.5969
281 2 0.134828 7.96617 8.28072 15.1154
282 2 0.166322 8.45976 7.36885 13.5655
240 4 0.843812 4.88938 12.3852 13.0441
253 2 0.157794 5.44839 7.98847 11.9995
302 2 0.216797 7.56059 12.239 9.91364
305 2 0.127573 2.6455 11.6715 13.804
306 2 0.147114 3.14997 10.7436 12.2013
261 2 0.134191 1.79978 11.4852 16.7016
300 2 0.149226 0.109227 12.9919 15.907
296 2 0.269344 3.39636 12.8723 9.20006
227 2 0.141766 0.662298 11.4232 10.9382
225 2 0.15467 0.863481 10.6678 9.14566
304 2 0.118836 4.1604 12.7545 15.5966
ITEM: TIMESTEP
100
ITEM: NUMBER OF ATOMS
310
ITEM: BOX BOUNDS xy xz yz pp pp pp
-9.0288000000000004e+00 1.5411400000000000e+01 -7.2027000000000001e+00
0.0000000000000000e+00 1.3341089999999999e+01 -1.8261000000000001e+00
0.0000000000000000e+00 1.7503399999999999e+01 3.4516799999999925e-01
ITEM: ATOMS id type q x y z
4 4 1.46694 4.84352 4.28855 1.66615
3 4 1.1356 3.57061 1.78514 2.58846
280 2 0.159704 1.93428 1.03938 6.23269
71 4 0.749007 -1.19342 2.14651 3.79994
23 2 0.14621 3.59476 1.11755 4.80824
24 2 0.15809 5.31273 1.18616 4.4032
25 2 0.148382 0.968522 1.04946 2.38701
26 2 0.158215 1.32552 2.90041 3.0727
27 2 0.125674 1.75624 1.39296 4.28274
41 1 -0.68502 4.34491 0.797624 4.0096
42 1 -0.629376 1.66149 1.79707 3.1302
48 3 -0.760779 3.60488 0.807726 1.17624
49 3 -0.822387 3.8625 3.29926 2.5247
51 3 -0.793388 3.89009 5.79923 0.991402
230 2 0.154992 6.24794 0.183769 4.60117
72 2 -0.0100726 0.413752 2.47723 4.53545
73 2 0.00445857 -1.70431 3.74938 0.719218
74 2 0.148264 -0.735635 4.2497 3.10248
152 4 1.44424 -2.16752 6.32361 6.03243
76 1 -0.644654 -1.33063 3.42316 2.59795
275 2 0.0026715 -0.5001 2.56806 1.1632
110 2 -0.0303118 2.16603 5.08348 7.59919
50 3 -0.852853 5.52354 3.50381 0.448972
150 4 0.791467 -0.753422 3.87856 7.86756
159 2 0.012526 0.855767 5.17413 5.87787
163 2 0.153473 1.78319 3.56131 6.27985
164 2 0.0681371 -0.0790193 2.37647 6.78353
165 2 0.181243 1.47838 3.32682 8.05796
175 1 -0.628595 1.01267 3.63196 7.0483
179 3 -0.79104 -3.17949 5.54368 4.99065
180 3 -0.753004 -1.41505 5.10413 7.03302
195 2 0.032526 -2.18174 5.92576 0.264536
196 2 0.165347 -0.804823 5.23499 1.76656
310 3 -0.844963 6.88306 1.14191 0.99688
198 1 -0.659389 -0.499375 6.28236 1.25568
197 2 0.156191 0.472912 6.12493 0.696042
33 2 0.173428 3.78064 6.24278 3.9146
94 4 0.626548 0.150883 1.99353 12.0542
95 4 1.23161 2.66166 2.2387 10.6129
147 2 0.093892 -2.20171 6.29843 13.2138
219 2 0.176283 3.27463 2.4862 15.7496
103 2 0.0225309 -0.246068 0.457245 11.3095
104 2 0.00614162 -0.524908 2.39001 10.5336
105 2 -0.0583698 -0.785334 2.10129 13.444
108 2 0.0230011 1.30018 5.31814 16.0533
111 2 0.0773416 2.24669 3.65288 12.9715
290 1 -0.661608 0.666236 0.587482 16.0456
156 2 0.0408769 -1.76353 3.08547 9.23186
132 3 -0.81578 1.83813 1.38449 9.35042
133 3 -0.804413 1.61785 2.30965 12.2712
134 3 -0.813688 3.97173 1.37108 11.2143
168 2 0.156808 -1.07377 5.24073 9.83547
136 3 -0.775305 3.15154 3.74324 9.80359
100 4 1.14996 3.6736 4.60999 13.1287
276 2 0.0734325 3.26314 0.753177 12.8461
144 2 -0.068789 -2.20708 4.89099 15.2484
301 2 0.157933 -0.553926 1.02201 9.04606
99 4 0.712962 3.29586 5.04904 8.92795
220 1 -0.64712 4.32568 2.02458 15.8115
289 2 0.156179 -0.00343835 1.28814 16.5472
120 2 0.15068 0.720915 6.00541 13.039
288 2 0.0978879 1.48463 1.20593 15.3351
97 4 1.14093 5.23319 2.23288 11.8411
167 2 0.0858196 -0.688866 3.91839 11.2743
176 1 -0.63959 -0.541485 4.26525 9.98625
217 2 0.12423 4.42637 1.04101 15.1836
166 2 0.138855 0.567209 4.37797 9.69127
16 2 0.0264269 3.63229 0.46916 16.7223
98 4 0.991995 2.33133 6.49463 16.9571
142 4 0.681441 -2.88311 6.43254 15.3306
149 3 -0.753645 -4.4425 6.502 15.3702
151 4 0.887632 -4.60478 6.55968 10.908
291 2 0.113196 6.20249 0.9539 9.42542
109 2 0.0244966 2.80742 6.50986 9.90251
208 4 0.952646 -3.84655 9.43566 0.149179
171 2 0.14754 -4.08182 10.4493 7.37946
209 2 0.101235 -5.26356 9.44953 1.08385
153 4 0.936641 -3.91619 8.17614 8.00997
154 4 0.905389 0.665888 6.84241 5.50147
155 4 1.00035 2.18042 8.09768 2.81695
22 2 0.160643 -2.87622 12.4036 3.93883
160 2 -0.0577844 1.33916 7.53362 6.86111
83 2 0.145079 -4.82923 11.9737 6.34573
177 1 -0.650676 -3.25282 9.88193 8.02423
169 2 0.177052 -2.21889 9.69375 7.52776
182 3 -0.803083 -2.96775 7.26747 7.07854
183 3 -0.77684 -0.823163 7.19167 5.45671
184 3 -0.761822 1.4515 7.3448 4.08655
185 3 -0.806634 1.32906 8.93648 1.72971
193 4 1.09157 -2.40178 7.12781 1.49551
194 2 0.16721 -0.282746 7.28175 2.11108
279 2 0.207126 -6.53582 12.5156 6.92167
234 4 1.05323 0.458358 9.88207 0.839457
161 2 0.0826797 3.14321 7.07393 1.89685
200 3 -0.840034 -2.75175 8.48682 0.80639
202 2 0.164211 -4.30992 11.5061 2.62293
203 2 0.201174 -4.23017 9.73875 3.43653
204 2 0.164406 -4.54094 11.2877 4.55169
205 2 0.154416 -6.27663 12.5285 1.12041
206 1 -0.653371 -4.68999 10.8077 3.51476
211 4 0.996874 -0.0880312 12.738 1.99566
199 3 -0.845064 -3.23996 6.58148 2.64804
80 2 0.0244147 -3.6662 12.6622 7.67272
214 3 -0.825442 -0.0704847 11.2245 1.40759
229 2 0.0185303 -0.424246 11.3168 4.92043
212 2 0.0459715 -1.62887 12.633 2.76241
87 1 -0.670126 -5.40492 12.8388 6.83403
157 2 0.00790314 -3.65719 6.85078 12.295
78 4 1.22704 -5.70495 10.5265 10.8635
79 4 0.734442 -4.37576 11.9522 13.3767
210 2 0.00134273 -6.17959 9.21685 16.1007
170 2 0.1982 -3.23829 10.1359 9.14704
82 2 0.102042 -5.14633 8.94938 10.5335
84 2 0.151776 -2.56943 10.5819 13.249
85 2 0.153152 -3.58854 9.95177 14.8911
86 2 0.0886686 -2.76292 11.8441 15.0301
88 1 -0.637897 -3.13831 10.8692 14.311
89 3 -0.836255 -5.19718 11.3158 9.49587
90 3 -0.790583 -4.95449 11.0908 12.1578
119 2 0.175364 -0.58311 7.31499 13.1125
277 2 -0.00464929 -1.31578 11.4942 14.0698
121 2 0.148272 1.29705 8.4633 10.4292
146 2 0.177882 -3.4771 8.05278 13.5564
148 1 -0.613712 -2.53212 7.4174 13.7936
145 2 0.124016 -1.60458 8.02853 14.3879
118 2 0.130943 0.390186 7.19849 11.4364
225 2 0.169226 0.102226 10.5288 9.20271
236 2 0.168268 -0.390048 8.8541 16.2401
239 1 -0.660562 -0.952916 9.91145 16.4912
129 1 -0.627268 0.467273 7.04675 12.6859
283 2 0.153245 -5.61662 8.66845 14.3457
226 2 0.152352 -0.622152 11.9051 10.3168
181 3 -0.76973 -4.28475 7.70924 9.83928
287 2 0.157253 -7.09603 12.5338 15.522
237 2 0.177673 -1.80959 10.1808 15.8738
235 2 0.108235 -0.149893 10.9677 16.6098
238 2 0.0477458 -2.5738 9.34768 17.3841
81 2 -0.0207537 -5.50893 12.3523 14.6502
131 1 -0.649723 0.666293 7.09578 15.9922
124 2 0.155049 0.536016 6.94834 14.8125
125 2 0.109964 1.36051 8.27385 16.2164
1 4 0.990056 -5.19215 12.9096 17.321
112 2 0.0341674 1.32549 8.2369 13.6408
231 1 -0.659451 0.292266 11.4345 9.88502
77 4 1.05196 -5.06661 12.7002 8.75379
126 2 0.129783 -0.30053 7.06209 16.6426
309 3 -0.81393 -5.42137 11.3269 17.4719
143 2 -0.0002604 -2.3556 7.08445 16.9218
2 4 1.5142 11.2544 5.80185 3.74334
223 2 -0.0112661 9.30214 0.211504 4.65729
5 4 0.908992 11.1521 0.757132 1.82592
61 3 -0.870046 7.43627 5.91204 4.5955
7 4 1.2721 11.8336 1.6551 6.02083
8 4 1.27215 9.6619 3.38228 2.35789
62 3 -0.831327 9.26565 4.90515 6.26702
215 4 1.09204 6.63857 2.43421 0.0825471
11 4 1.10243 9.70469 3.60424 7.02029
19 2 0.00519827 8.38361 2.86896 7.9148
294 2 0.172245 6.63351 2.03612 7.74568
228 2 0.150278 7.72747 1.20158 4.97067
128 1 -0.673783 4.95388 5.55604 8.32055
29 2 0.17855 7.89959 2.12882 3.81203
30 2 0.252173 7.49548 3.88021 3.076
31 2 0.226666 8.57851 3.69524 4.48921
32 2 0.151962 4.7974 6.04393 5.48461
116 2 0.120537 4.77014 5.30905 7.16635
44 1 -0.692843 8.2564 3.20158 3.5532
75 2 0.231825 12.9007 3.57376 2.64448
12 4 1.42801 8.85187 6.26819 5.3407
52 3 -0.779655 12.3466 1.37936 1.02521
53 3 -0.781585 12.9452 1.97631 4.88418
54 3 -0.814039 12.6116 1.27777 7.36656
55 3 -0.804795 9.95152 1.80185 1.94357
56 3 -0.803672 10.7731 4.1123 3.13156
57 3 -0.80114 5.90014 4.94182 2.58014
58 3 -0.816737 8.97425 4.45556 0.85106
59 3 -0.835388 10.6476 2.60616 6.31136
232 1 -0.674133 7.35061 0.302935 4.38939
18 2 -0.0224902 11.2955 0.142593 5.41891
274 2 0.0109763 14.5995 0.628717 2.98762
35 2 0.166814 10.7736 5.0788 8.4111
9 4 1.31712 6.33367 6.4162 3.60915
91 4 0.590289 13.4679 2.10485 0.161763
286 2 0.149483 14.5953 0.262185 1.37965
216 2 0.105771 8.08886 3.31815 0.0424456
213 2 0.0296198 8.59404 0.192179 2.94583
28 2 0.169062 13.4547 0.631902 10.4721
36 2 0.165821 11.1001 3.27445 9.17621
37 2 0.149581 9.33307 4.1362 9.51972
297 2 0.1402 9.87258 0.740725 10.7861
162 2 -0.0158738 11.3111 5.04167 10.2879
92 2 -0.0179773 12.3678 1.35381 16.4479
93 2 -0.0409297 11.0627 3.3469 16.3229
293 1 -0.624813 6.9956 1.81622 8.7524
295 2 0.164107 10.0739 1.98341 9.34729
102 4 1.21817 4.82561 6.05772 15.3048
218 2 0.174402 5.16337 2.75449 15.2946
107 2 0.0177947 6.27188 2.4493 10.4833
249 2 0.0297059 7.68626 4.98739 9.20258
114 2 0.0433002 7.11165 2.83584 14.8592
127 1 -0.610755 7.47321 1.06433 15.21
137 3 -0.834119 5.03442 3.75064 12.3467
292 2 0.155844 7.38443 2.75917 9.39305
139 3 -0.808669 3.96665 4.68007 14.7179
140 3 -0.853428 6.11849 5.83451 16.1906
191 3 -0.817956 8.56166 6.60652 16.8219
187 4 0.665615 8.20599 3.8863 13.7649
188 2 -0.0240915 8.73653 2.35072 14.3171
189 2 -0.000176223 8.90193 3.72105 12.1225
190 2 0.0511679 6.64412 4.11665 13.2066
186 4 1.24397 9.17485 6.4951 15.3613
192 3 -0.78751 8.71841 5.173 14.4082
135 3 -0.792655 6.06444 1.21521 12.8547
252 2 0.186257 5.94425 5.82351 12.0347
298 1 -0.656351 9.91149 0.843369 9.66159
251 2 0.126591 8.20076 3.19111 10.6853
242 2 0.129499 11.3682 2.03201 12.1655
243 2 0.181096 11.9248 0.980246 10.8122
244 2 0.117849 12.7047 1.15164 14.563
245 1 -0.679524 12.1582 1.33703 11.8439
43 1 -0.66215 14.2255 0.221707 9.55785
299 2 0.124432 8.57381 0.730031 15.2938
255 1 -0.650637 7.68516 4.24167 10.7086
250 2 0.1696 6.66499 4.19646 11.1645
247 4 0.742814 7.83156 6.19121 10.7358
241 2 0.107499 13.1531 1.87254 11.9502
138 3 -0.783913 3.29138 6.04056 12.6379
117 2 0.163793 5.58449 4.76079 8.87385
300 2 0.144396 6.75632 0.706489 16.0714
257 3 -0.785901 9.27443 6.565 11.229
46 1 -0.675124 10.3302 4.02226 8.77816
10 4 1.56868 7.06998 6.14155 17.4925
13 4 1.47923 7.59902 8.14694 1.51896
14 4 0.944705 7.01058 8.07031 6.82447
15 4 1.26208 6.7628 10.7379 5.60077
207 1 -0.667392 8.14233 12.2298 1.56985
201 4 1.14214 8.93772 10.7671 3.01544
158 2 0.109861 9.94718 8.08115 7.18974
34 2 0.187641 4.70847 7.81537 4.71466
38 2 0.156304 5.16985 10.982 3.49818
262 2 0.0284273 5.69034 11.7466 0.165594
40 2 0.133815 4.46657 11.1877 5.33453
20 2 -0.0368964 6.74889 8.31736 8.4992
47 1 -0.658586 5.2835 11.5343 4.54701
63 3 -0.822091 6.51628 7.792 2.72725
64 3 -0.890975 8.3916 7.03059 0.792156
65 3 -0.765328 8.89008 9.46506 2.13698
66 3 -0.792446 6.86892 9.2042 0.500997
67 3 -0.812292 8.53009 7.73674 6.58472
68 3 -0.74696 8.07764 10.8141 4.33573
69 3 -0.818132 6.31021 9.16084 5.92701
70 3 -0.839634 6.90434 11.7138 6.80614
172 2 0.143622 2.80444 10.4381 3.74275
173 2 0.151735 4.12365 9.05567 3.46706
174 2 0.145938 3.01381 9.08922 5.03922
178 1 -0.64118 3.06952 9.40647 3.90395
6 4 1.21014 5.95605 12.5494 7.98726
224 2 -0.0327244 2.14976 10.4156 5.32914
270 3 -0.817367 4.70309 11.5441 8.67679
263 2 0.165939 4.27324 10.141 0.874032
222 4 0.616553 1.19945 11.7981 5.6674
233 3 -0.716076 1.1096 12.3234 7.3108
267 2 -0.0558198 4.32967 8.9858 8.16519
60 3 -0.837778 10.001 6.64941 4.31777
17 2 -0.0120909 3.50397 12.0856 0.966408
21 2 -0.0137432 6.0148 6.64782 7.09683
285 2 0.176807 7.77358 11.3036 1.00891
39 2 0.165835 5.58071 12.636 4.45223
45 1 -0.666366 4.68403 6.64666 4.57013
115 2 0.0942002 5.2273 6.69619 8.69189
278 2 -0.0383377 4.33217 12.7658 3.27734
141 3 -0.801424 3.81496 6.96864 16.1165
122 2 0.115113 2.83064 8.42246 9.4391
113 2 -0.00622129 5.37686 7.072 13.9912
307 2 0.123324 2.55164 12.7419 12.3439
123 2 0.00586799 3.46391 9.07522 11.6412
130 1 -0.644781 2.36843 8.25154 10.4405
265 4 0.941739 4.62884 10.1512 9.38022
246 1 -0.652144 5.31932 12.7994 14.9748
308 1 -0.635791 3.01208 11.7465 12.7082
248 2 0.0209239 6.69536 7.52553 10.4369
106 2 -0.00418898 1.21031 12.1089 13.2271
227 2 0.153066 1.17782 11.3261 10.5794
256 1 -0.665074 6.10292 6.91634 12.1652
258 4 0.709899 4.35417 10.503 16.9807
259 2 -0.0284045 5.06159 10.9038 15.4585
260 2 0.0542292 2.66459 9.78306 16.2637
96 4 0.696057 -0.342409 12.9242 13.7896
264 1 -0.63628 2.45341 10.9498 17.3675
303 2 0.144873 6.21576 12.3056 15.4614
254 2 0.145713 6.73343 7.11915 13.0534
284 1 -0.66149 8.72541 8.1536 14.5169
266 4 1.21944 6.67047 10.1954 11.5513
268 2 -0.00196138 3.06778 10.0879 10.1955
269 2 -0.00093819 6.62432 8.75989 12.5375
271 3 -0.853887 8.20577 10.3286 11.1231
272 3 -0.824539 5.87367 9.82164 10.235
273 3 -0.800637 5.87649 11.3715 12.3498
281 2 0.132224 7.92866 8.95523 14.8809
282 2 0.173943 8.42808 7.64832 13.5192
240 4 0.868413 4.85756 12.4284 12.9327
253 2 0.171394 5.11951 7.41482 12.2922
304 2 0.114112 4.29771 12.6599 15.4563
305 2 0.099033 3.07326 11.5472 13.959
306 2 0.147142 2.95477 10.7901 12.125
261 2 0.147556 1.52434 11.5029 17.1281
101 4 0.69557 2.43588 7.6121 12.2072
302 2 0.222273 7.55358 11.9584 9.7582
296 2 0.243161 3.51663 12.861 9.21379
221 4 0.864247 0.988129 12.8874 8.85812
ITEM: TIMESTEP
200
ITEM: NUMBER OF ATOMS
310
ITEM: BOX BOUNDS xy xz yz pp pp pp
-9.0288000000000004e+00 1.5411400000000000e+01 -7.2027000000000001e+00
0.0000000000000000e+00 1.3602679999999999e+01 -1.8261000000000001e+00
0.0000000000000000e+00 1.7503399999999999e+01 3.5193600000000025e-01
ITEM: ATOMS id type q x y z
4 4 1.42712 4.82397 4.23302 1.56401
3 4 1.07981 3.40466 1.73006 2.64487
280 2 0.154901 1.45725 1.18458 6.71101
71 4 0.752521 -1.21463 2.06899 3.88554
23 2 0.146582 3.59673 1.41567 5.07603
24 2 0.144787 5.42382 1.35347 4.40354
25 2 0.145596 0.943075 0.699245 2.67728
26 2 0.15571 1.24571 2.72375 2.93141
27 2 0.14339 1.91083 1.44638 4.38011
41 1 -0.643901 4.26781 0.970705 4.22697
42 1 -0.664506 1.57232 1.70777 3.26985
48 3 -0.761459 3.56144 0.567154 1.30251
49 3 -0.807428 3.92155 3.23499 2.35857
51 3 -0.797897 3.78992 5.76179 0.954604
33 2 0.168099 3.7956 6.09975 4.13201
72 2 0.00617283 0.323934 2.74288 4.3643
73 2 0.0105827 -1.86274 3.80601 0.800616
74 2 0.165884 -0.998805 4.26897 3.39506
152 4 1.41425 -2.17146 6.27104 6.23912
76 1 -0.632336 -1.40406 3.38975 2.68449
275 2 0.0174821 -0.473605 2.83139 1.34391
110 2 -0.0323652 2.13592 5.08193 7.82544
50 3 -0.811086 5.50118 3.24058 0.340881
150 4 0.808107 -0.567801 3.9815 7.88294
159 2 0.0105762 1.00745 5.32768 5.97695
163 2 0.150852 1.9323 3.67446 6.09046
164 2 0.0777731 0.169146 2.54283 6.55287
165 2 0.155784 1.63418 3.4468 8.00765
175 1 -0.626912 1.1588 3.65976 6.93932
179 3 -0.765047 -3.10123 5.51818 5.05103
180 3 -0.803294 -1.3784 5.09619 7.12172
195 2 0.0440896 -2.42124 5.88283 0.152299
196 2 0.176704 -0.970519 5.09191 1.64418
310 3 -0.837921 6.87631 1.11581 0.999958
198 1 -0.672916 -0.714644 6.10593 1.05998
197 2 0.141776 0.127438 5.8631 0.38506
199 3 -0.764001 -3.31763 6.4587 2.5698
212 2 0.0148942 5.51556 0.132878 3.04984
94 4 0.638623 0.163275 1.96658 11.6894
95 4 1.3165 2.79796 2.1372 10.5373
291 2 0.133471 6.23103 0.989245 8.91848
219 2 0.2042 3.30429 2.54364 15.7787
103 2 0.0126883 -0.128516 0.345626 11.3577
104 2 -0.00322369 -0.34543 2.44391 10.1503
105 2 -0.0580882 -0.968271 2.3498 12.934
108 2 -0.00503356 1.18104 5.36473 15.8116
111 2 0.079937 2.5595 3.50554 12.8139
290 1 -0.66022 1.24231 0.765797 15.974
156 2 0.0396091 -1.58122 3.03021 9.06047
132 3 -0.822082 1.88334 1.24146 9.51885
133 3 -0.778711 1.63667 2.32412 12.0795
134 3 -0.851278 4.1386 1.36741 11.1348
168 2 0.160423 -1.17915 5.36751 9.82154
136 3 -0.795428 3.20784 3.58223 9.81448
100 4 1.13708 3.88415 4.5519 13.0955
276 2 0.0663824 3.73667 0.302684 12.7291
144 2 -0.0680989 -2.22406 5.08077 15.1876
301 2 0.167775 -0.383782 0.830398 9.36146
99 4 0.700161 3.33302 5.03004 9.14346
220 1 -0.650845 4.25836 1.95075 15.797
289 2 0.156218 0.558737 1.43964 16.6608
120 2 0.138498 0.551756 6.05084 13.3077
288 2 0.142189 1.95584 1.26298 15.1929
97 4 1.07919 5.44484 1.9807 11.6517
167 2 0.0998675 -0.685275 3.97537 11.1188
176 1 -0.639487 -0.582772 4.39807 9.9135
217 2 0.139273 4.17962 1.00284 15.2306
166 2 0.110177 0.574685 4.66282 9.68807
109 2 0.027096 2.89078 6.3487 10.2257
98 4 1.01823 2.16953 6.36672 16.9056
142 4 0.70526 -2.99079 6.59939 15.3098
149 3 -0.77675 -4.5282 6.56179 15.3854
16 2 0.0265159 3.70757 0.349899 16.8719
157 2 8.18274e-05 -3.83854 6.58277 12.3009
208 4 0.940724 -3.90328 9.42828 0.264188
171 2 0.124368 -4.02939 10.5126 7.52452
87 1 -0.668756 -5.45953 12.9969 6.84835
153 4 0.932802 -4.11915 8.29123 7.98986
154 4 0.93653 0.543099 6.91377 5.3764
155 4 1.02452 2.03754 7.96456 2.98539
22 2 0.15162 -2.91176 12.8171 4.23628
160 2 -0.0676483 1.16488 7.77302 6.66102
83 2 0.159546 -4.71096 12.6968 6.09623
177 1 -0.654265 -3.18641 9.85613 8.02402
169 2 0.173184 -2.20868 9.8928 7.39974
182 3 -0.775722 -3.15038 7.28323 7.15542
183 3 -0.75723 -1.01957 7.15792 5.29274
184 3 -0.834493 1.38599 7.13396 4.09348
185 3 -0.802941 1.17891 8.92239 1.94185
193 4 1.07587 -2.46913 7.05952 1.37144
194 2 0.160409 -0.356684 7.0553 1.94249
279 2 0.214147 -6.45746 12.2371 6.78371
234 4 1.04248 0.387096 9.90825 0.958236
161 2 0.0935774 2.87578 6.90224 1.89903
200 3 -0.83724 -2.7099 8.48234 0.761686
202 2 0.177982 -4.50381 12.0517 2.94706
203 2 0.180144 -4.11345 10.1794 3.06652
204 2 0.165323 -4.42998 11.1531 4.64021
205 2 0.137185 -6.33171 12.3244 1.28358
206 1 -0.67137 -4.6813 11.0611 3.51494
211 4 0.944793 -0.294691 12.8636 1.94423
309 3 -0.79074 -3.57619 10.959 0.162249
80 2 0.00214278 -3.75756 12.4481 7.57132
214 3 -0.822567 0.00248527 11.3511 1.36379
229 2 0.00668994 -0.281654 11.2673 4.97443
230 2 0.144817 -0.694827 13.0045 4.33882
77 4 1.02403 -5.06192 12.795 8.73381
209 2 0.075268 -5.26572 9.30224 1.23727
238 2 0.0638343 -0.830056 9.03699 0.0844972
1 4 0.965757 -3.19192 12.6602 0.0350922
143 2 -0.00716176 -2.4096 7.29784 16.8247
78 4 1.23449 -5.65085 10.6516 10.7846
79 4 0.776687 -4.38856 11.9675 13.2404
210 2 -0.00177092 -6.26661 9.23436 16.2553
170 2 0.161701 -3.03364 10.066 9.13819
82 2 0.0712072 -5.02834 9.11695 10.4447
84 2 0.130147 -2.17536 10.8768 13.6655