LAMMPS data file via write_data, version 2 Aug 2023, timestep = 22000, units = real

331 atoms
4 atom types

0.15795377160403223 15.550746228395852 xlo xhi
0.08580378440103509 13.00099621559895 ylo yhi
-0.01519979993335241 17.539999799933383 zlo zhi
-8.684696026842701 1.4418447067307354 -2.39403565493912 xy xz yz

Masses

1 12.0107
2 1.00794
3 15.9994
4 28.0855

Atoms # full

230 4 2 0.1609909706378701 -2.9212461019227214 5.3017119450484484 2.6279888756969987 0 0 0
1 1 4 1.018375371027799 0.3519723702923285 2.709387360464997 5.649215667447388 0 0 0
2 1 4 0.6880729975104819 1.0082503878799605 3.892029943623388 2.5819980710343984 0 0 0
3 1 1 -0.6660836123167951 1.2614329590528648 3.781305545265462 6.816903675381551 0 0 0
8 1 2 0.1702369432081668 0.7835739160481342 3.6792660466224785 7.795716436314179 0 0 0
9 1 2 0.01251025389129776 1.3474888544304087 1.2235421933174315 5.545639258242931 0 0 0
10 1 2 0.1634310468172465 1.4569047899024117 4.828972653839567 6.489606582668767 0 0 0
18 1 3 -0.7560380406819299 0.6302714707687153 3.25851689459318 4.074219480755651 0 0 0
83 2 2 0.1653858483996919 2.4247276372046325 0.34597548094253117 6.668490446195271 0 0 0
161 3 2 0.03306455772539599 -0.3199178054786332 3.797989155002613 1.389787699862159 0 1 0
6 1 1 -0.6273173040838632 1.1969739511686732 2.7813536510484194 1.1097795523846599 0 0 0
15 1 2 0.07794432102626239 2.6982888512175873 3.3481984089877455 1.5665193250873615 0 0 0
5 1 1 -0.661782694123447 3.602116304005538 0.7317729061132867 1.9665287205496422 0 0 0
12 1 2 0.1620215263151889 4.220895858400256 1.325365738703879 2.637907474930779 0 0 0
4 1 1 -0.686129686593966 2.052208516660396 -0.5594343428775248 6.119352646458139 0 0 0
162 3 2 0.1557367550176177 2.3773511444599253 -0.49720698540514063 5.030559864672837 0 1 0
131 2 3 -0.8096663311429169 -1.1224198602256337 2.4896851459362894 6.185451962697619 1 0 0
11 1 2 0.1568903057892109 2.3104089945160915 3.0882216585235023 6.8086179746556175 0 0 0
17 1 2 0.15161521216649 0.963216004456809 1.8113377573885283 1.5568542615710446 0 0 0
187 3 2 0.1839157714395293 3.083924562013647 4.802161977569391 8.010022420412808 0 0 0
14 1 2 0.1823723436931277 2.725568379144876 1.5385680035525806 1.5534451567642558 0 0 0
231 4 2 0.1572604470905151 -1.6217918423861426 4.5527837613985165 4.006939272204005 0 0 0
225 4 2 0.2598903315477443 1.0072716813945322 -0.6894386661560088 6.346037223242624 1 1 0
95 2 2 0.007074814284706944 2.8692612789087057 5.008649711259229 4.475233074191958 0 0 0
89 2 2 0.1423528819812906 4.186295257842962 0.420079567756214 1.0633426298247726 0 0 0
7 1 2 0.1616144564392326 3.129778538432703 -0.22604017243229163 2.4420479257122847 0 0 0
312 19 2 0.03255014424450162 1.2947138817816686 -0.21869874725982974 2.778661835883906 0 1 0
27 2 4 1.145902939315042 4.448558048353587 0.973373954292575 8.616823690902718 0 0 0
28 2 4 1.412729522946451 7.8550437492764 1.0682267533553298 5.4502550034587545 0 0 0
31 2 4 1.215393242322965 6.156824031081097 3.208202696047226 6.8128908877802665 0 0 0
117 2 3 -0.7718931866739349 6.858299088783373 1.0495769404294844 3.8344074101344137 0 0 0
118 2 3 -0.7793579456497921 7.304408242354747 -0.18578524136941654 6.309295770117754 0 0 0
123 2 3 -0.8043543356865102 7.480033066489116 2.463137701930717 6.334497288932253 0 0 0
124 2 3 -0.7612804138855873 5.376987739447579 4.116116330095186 5.586215082547095 0 0 0
128 2 3 -0.8512689141345035 9.417814144493242 0.7832631624480667 5.260712399722024 0 0 0
263 7 4 1.023062460400742 5.20769092210005 4.756756191416977 0.8735412275490068 0 0 0
50 2 1 -0.6556498124432824 6.7459641337447325 4.224895397003708 8.270834483958946 0 0 0
96 2 2 -0.1072626440102933 4.992429664283689 4.8885002857672974 2.7292308295048677 0 0 0
122 2 3 -0.740744617524873 4.799262912973529 2.0722934059052394 7.552825070915986 0 0 0
109 2 2 0.1018499212849238 8.042885815664983 3.729748159192762 8.720365675432175 0 0 0
266 7 3 -0.7852508617566045 5.77553438739684 3.386149946236737 0.4408294413789655 0 0 0
46 2 1 -0.6831691987096672 7.61748623316401 1.1933902682469983 1.0658478104360603 0 0 1
91 2 2 0.06449587452200571 9.461641389321244 4.626135661139126 6.303681819581854 0 0 0
320 27 2 0.1625106751721947 8.416277428556352 1.9949994706519172 1.4665538675525065 0 1 1
40 2 4 0.6827653108768752 9.568972906714865 4.140404989101933 2.7163414402864636 0 0 0
69 2 2 0.03870408372062069 9.509049778979286 3.693723314742507 0.8961247470011452 0 0 0
47 2 1 -0.6862837419351808 4.624135642089652 -0.8689603285928911 7.979400289975084 0 0 0
24 2 4 0.8094382491508937 6.741182475167254 0.25105079822808535 2.5495992780382273 0 0 0
42 2 4 0.7940843005330135 9.484597056717817 4.864373549285992 8.136353451630608 0 0 0
137 2 3 -0.7955613527551491 10.053493098160715 2.9861275898575217 3.778117781238251 0 0 0
321 28 2 0.1375136455568375 8.038748133499581 0.26883283008369685 0.5122694093787699 0 1 0
106 2 2 -0.0215740922347182 8.014391478195854 4.896272647332847 3.1690771760112564 0 0 0
26 2 4 1.280939329471948 8.275749658693393 -0.9590491144021511 7.944518403033732 0 0 0
32 2 4 0.6665710947178716 4.624603741489047 5.017080829876875 4.529576350670678 0 0 0
264 7 2 0.1650530827054895 7.452552320792853 5.0730009082078045 0.274682481548342 0 0 0
35 2 4 1.226309649789909 10.542876826790696 1.8784496592186366 4.870874173336132 0 0 0
90 2 2 0.1251923534033395 6.728572278144083 5.2708034294532595 7.678825312669451 0 0 0
273 8 2 0.1551470551783987 10.734523802126873 0.8922000731173692 0.8599883584025255 0 1 1
304 16 1 -0.6371168359313353 10.948636274308036 4.628294147873722 1.5229026045991467 0 0 0
37 2 4 1.421447864469485 12.815715795350862 2.033296442139932 6.8906523313025145 0 0 0
132 2 3 -0.826598584111377 11.520180437103342 2.5385964726906636 5.979935802985322 0 0 0
139 2 3 -0.8227281410681065 12.758974946476293 2.6263736995216798 8.446165921015158 0 0 0
133 2 3 -0.810745995012918 12.689020293294767 0.2309686175903679 6.929124026030053 0 0 0
208 4 4 1.266128812306081 13.73117867529934 -0.799074599523587 7.451174634399768 0 1 0
129 2 3 -0.8312350977035887 14.994616591405613 -0.19002725596486136 8.23962483064353 0 0 0
323 30 2 0.02508921848569385 11.425020840512587 0.6752507399247771 4.067559519621499 0 0 0
306 16 2 0.1518517165275476 11.745850318281494 3.8512950111531437 1.8652830399720004 0 0 0
164 3 2 0.01759158431669689 10.9305186906794 5.341923589682016 5.626070033506025 -1 0 0
330 37 2 0.1740830179837878 11.413721081264075 5.281997112278468 0.6575775591472766 0 1 0
82 2 2 0.2012613214891448 -3.2106291320393727 11.976814749144445 7.217514813984327 0 -1 0
221 4 2 0.1361051045364355 -5.622710756192482 11.256393573570238 3.468444862518759 0 0 0
169 3 2 -0.02830729447315826 -4.943088516457056 10.131619429098173 5.7951726413195574 0 0 0
143 3 4 0.8120569653036682 -5.478644521031309 11.137330770775328 7.151542993071276 0 0 0
79 2 2 -0.005702896008593178 -3.5462440322865914 12.456861715205301 2.2871439287291184 0 -1 0
228 4 2 0.1258252798501412 -4.776209622479023 10.073203921150371 3.824981337526926 0 0 0
220 4 2 -0.02947531144929586 -3.323041008232585 9.447180689239001 4.722915237248543 0 0 0
49 2 1 -0.6329071688642453 -5.130937336534231 9.005230257793949 4.111671677503791 0 -1 0
167 3 2 0.1168391134986434 -4.407626753027415 8.566380141031278 5.008755959416037 0 0 0
144 3 4 0.7369988834177315 -2.967477067409427 6.008463517947116 5.061800773415851 0 0 0
274 8 2 0.004750101021670276 -3.4339960535489173 6.95425788605201 3.6669679802313517 0 0 1
80 2 2 0.10393223168842 -3.0127100344767945 10.617341583861993 2.3521639178971805 0 -1 0
70 2 2 0.1692478500959569 -3.9284293003507313 6.959263925123054 0.008120156304722778 1 0 0
87 2 2 0.08816484478032183 -2.280599197565982 11.784031414177358 5.442317849913182 0 -1 0
193 3 3 -0.7959514863540237 -6.32876065627612 10.257254593198663 8.323930954769104 0 0 0
285 10 2 0.02723962963637063 -5.6792224599068515 11.934479803122791 0.3817868767948636 0 -1 0
286 10 2 0.01486682119201991 -4.47206939257119 10.647379416363439 0.5809907560894114 0 -1 0
213 4 1 -0.6229435811922853 -6.681050068351366 11.080534323915082 3.0735901156667094 0 0 0
227 4 2 0.141530749060492 -5.008429384898203 8.2308466952156 3.176086556170082 0 0 0
329 36 2 0.1508238275725702 -4.988493507742797 8.300148535955783 1.7442782161487322 0 0 0
229 4 2 0.1296903315199051 -6.66305280184409 10.449330607933836 1.9744100374640414 0 0 0
214 4 1 -0.6570532750462909 -2.0665118205354287 5.634211166510696 3.4511681925616577 0 0 0
65 2 2 0.1630089544438252 1.4074718196908624 12.398985247976501 1.8352092030782172 0 -1 0
295 13 1 -0.6205480652092024 1.826459780699888 12.638021799379782 0.8210355858528441 0 0 0
297 13 2 0.01762952410185428 3.323227095281797 11.716435220721312 0.7890646059206046 0 0 0
45 2 1 -0.6905759444936084 -1.9483663875929156 11.063861037449511 2.674801609257842 0 -1 0
184 3 2 0.01265024727996495 0.07499288965552209 5.7058510052183555 7.93320062343663 0 0 0
192 3 3 -0.7745537512114322 -2.141384132687012 6.620369672398379 6.246898244028078 0 0 0
206 4 4 0.746496706319874 -1.9235622598356095 10.430101631585861 4.353321740695611 0 0 0
252 5 2 0.1546424439731094 -1.9211419551703477 6.443837714646973 0.0886888501885966 1 0 1
16 1 2 0.1551384852718331 -1.2749998830591696 6.229706463949797 2.9617479382897827 0 0 0
94 2 2 0.173604988427645 3.647673643257616 6.133222954381101 6.642386098310011 0 0 0
299 14 2 0.198464541291897 1.881263511510424 11.506053506018409 8.360089162811525 0 0 0
13 1 2 -0.01632759124380535 1.391477673494988 5.66082801759709 2.6296893125425282 0 0 0
294 12 2 0.1537241813862003 3.150196765984297 6.4526168341237025 1.772617285363719 0 0 0
93 2 2 0.160476120518882 2.3339659035500437 6.73748680961917 5.328789308259204 0 0 0
78 2 2 0.04445964628782667 -0.4277822223028426 12.168940113569843 2.3548142144545006 0 -1 0
235 4 2 0.2085296673272308 -0.624258720667102 7.396050300970272 4.626062444843122 0 0 0
98 2 2 0.1456085871807866 -0.9605211269766567 10.406552629203093 2.2894343048265466 0 -1 0
298 14 1 -0.631682898309235 1.1743527246848524 11.267585837286711 7.416027821448235 0 0 0
146 3 4 1.022029469912074 -1.230767764099675 6.915171704415837 7.710767092441552 0 0 0
199 3 3 -0.8076587738307108 -0.9972725261523467 8.38135672536456 8.358028970433137 0 0 0
207 4 4 1.038587716804469 0.7237810250161568 9.083731087637243 5.433195909032359 0 0 0
215 4 1 -0.6480673558694967 0.4758387587555306 7.3646370343859795 4.982776402221764 0 0 0
232 4 2 0.1510149232344337 1.594175257316265 7.192792831631233 2.313888350474312 0 0 0
233 4 2 0.1078138197232076 0.7027679763386956 6.917027761433216 6.050391169644057 0 0 0
234 4 2 0.1492425969483574 1.3153155182859753 7.1775606659251405 3.9474635577790766 0 0 0
242 4 3 -0.7818280441725102 -0.586172275359166 9.7578548557999 4.830281271672581 0 0 0
243 4 3 -0.7701993282566579 2.1075954002950636 9.56353107200226 4.700865046519716 0 0 0
291 12 1 -0.637492158378232 2.650224883992049 7.17798599337989 2.4899509151734707 0 0 0
292 12 2 -0.01082669003658898 3.250303693427099 7.8582173481503546 0.7467231707968813 0 0 0
293 12 2 0.1532233294839593 2.927077969528757 6.964970517108459 3.652037292071007 0 0 0
209 4 4 1.019124841522052 3.470329813797811 9.852434340244596 3.8193014664752463 0 0 0
236 4 2 0.1921378898195204 2.3557069097470644 11.872494468081204 4.070965140793082 0 0 0
300 14 2 0.2335275730242067 1.4859421298244557 11.759448604551656 6.465422155563208 0 0 0
216 4 1 -0.6721241147580426 3.4419805826155976 11.773392974315092 3.6173801954511506 0 0 0
237 4 2 0.01791408441339669 3.3196030844407747 8.853636403842618 2.2865640377678975 0 0 0
324 31 2 0.062014607004553 1.039921388044659 9.475233196927721 7.260683985110633 0 -1 0
223 4 2 0.1349314573610097 3.405559570651433 11.918622064473729 2.496207348839429 0 0 0
51 2 1 -0.6642497450049389 3.5098140354137044 6.513141021817319 5.509879562458292 0 0 0
200 3 3 -0.8261421807486431 -1.4575052021353208 10.947416825821323 8.72731111399223 0 0 0
222 4 2 0.06432323784138237 4.122844233666916 11.08956669468499 8.64403700797355 0 0 0
185 3 2 0.04038673929831536 3.0932416515043712 6.958626091024805 8.682896949015703 0 0 0
62 2 2 0.139450409337725 0.9060664194517833 9.135286749758578 0.23178346253521456 0 0 1
158 3 1 -0.6565289986568541 3.800975969188546 5.438966507560341 8.587809181570357 0 0 0
265 7 2 0.2175350371073575 4.073404661065063 7.489569553002436 5.47896170280502 0 0 0
267 7 3 -0.7889622439909881 3.8769251722910103 5.415856093961172 0.14961710728939362 0 0 0
226 4 2 0.2404886252980491 8.189598720595171 10.410484821854027 3.9221462577541897 0 0 0
238 4 2 0.2019070752148165 4.288347317027868 12.242588918851474 4.223295918290975 0 0 0
88 2 2 0.2389358883061938 9.162111608261636 9.020309865800655 4.4383969201000655 -1 -1 0
107 2 2 0.1297829118279741 7.094046585420187 6.46767082074991 2.984779028093183 0 0 0
176 3 2 0.1506748537969794 8.75511858258238 7.7458043753803 1.2069383992653313 -1 0 0
61 2 2 0.2647706515157 7.735300680564708 7.855499028022056 4.08287885955533 0 0 0
55 2 1 -0.6640850568394104 7.9826242358305315 6.859329849492231 3.4876289504783915 0 0 0
105 2 2 0.1506701007671499 8.722709179849318 7.123471890745047 2.570130413345923 0 0 0
174 3 2 0.144710492271293 8.46897755770252 6.150713012168876 4.204319923648778 -1 0 0
218 4 2 0.1057052734060258 6.396568561418296 9.307827734684455 1.5676445513921349 0 0 0
97 2 2 0.02022075434469073 5.247712886400039 6.621967461730748 4.616574523425511 0 0 0
72 2 2 0.08521657811832886 8.86085962909312 6.656041828826119 8.324005041456239 0 0 0
56 2 1 -0.6462266857551221 9.780316202628182 6.25455322818484 6.87651305317096 0 0 0
219 4 2 0.007783892572879111 5.3816050503035795 11.836441708422813 3.2980895177221474 0 0 0
110 2 2 0.1774962304536597 9.451805960383432 7.003792821689567 6.157486119206836 0 0 0
205 4 4 0.4683040873006898 6.714439613799263 11.33566300458773 2.3047111078473854 0 0 0
246 4 3 -0.8219523396897812 4.868922637089741 9.461454596237079 4.408082349816762 0 0 0
211 4 4 1.365464710730813 5.766179753858101 9.744090265940649 5.707046012760853 0 0 0
245 4 3 -0.7979144892202967 7.524886382171131 9.262220967238306 5.0372999679364785 0 0 0
248 4 3 -0.7991833319345364 5.667382453404814 11.340023553056833 6.0989539127497805 0 0 0
313 20 2 0.2866616587308523 8.048785680894895 9.45285196570795 5.898755876848877 0 0 0
247 4 3 -0.7993251814062625 5.211383415425976 8.952855442428788 7.038985277439435 0 0 0
74 2 2 0.1172168533143141 6.66381625424887 6.535734201208047 1.2245755986409166 0 0 1
52 2 1 -0.6855567374227508 6.610648893600894 5.8642550376202065 0.3216194790270485 0 0 0
154 3 1 -0.6617414887560915 9.850095075461201 7.612785240939249 1.017044265257831 -1 0 0
317 24 2 0.005794893136635094 6.30611199876877 12.130198794109885 0.7267422272239235 -1 0 0
171 3 2 0.175773051903761 4.7507818096597925 5.377876329412819 7.982466029822855 0 0 0
175 3 2 0.1557367341405272 10.183805018014283 6.482887482387294 1.235506335999652 -1 0 0
210 4 4 1.005638240349315 5.438837498800298 8.625412630470077 8.695143541079302 0 0 0
212 4 1 -0.6425258281419634 6.463197547281349 10.28404282960618 0.5802817229364872 0 0 0
108 2 2 0.1819008152425057 10.891346349247002 6.4780578370539565 7.1828927733659915 0 0 0
58 2 2 0.02675050702817425 10.64787008051864 5.743755685363973 2.8211589989790284 -1 0 1
311 18 2 0.2082488507047307 2.572578547722802 0.41080004565827233 17.532947712342285 0 0 -1
170 3 2 0.07662123736025472 -0.7770298148896231 4.180844582542052 8.804841201410337 0 0 0
254 5 2 0.1525647092564248 -1.5424791561938356 3.2254222921489237 16.27299364851113 1 0 0
145 3 4 1.037610682789942 -1.6614039144274313 4.020081922633706 13.05579539764417 0 0 0
116 2 3 -0.7822850690001025 2.9987938624893173 1.1828686296163142 9.482138658618341 0 0 0
194 3 3 -0.8069522559781721 -1.2885173833864576 4.678666201318304 14.412770209253791 0 0 0
250 5 1 -0.6333863323119205 -1.454858701522447 4.133807318422984 16.978804017599963 1 0 0
197 3 3 -0.855908862078711 -0.846822165341004 4.289440978310811 11.744696780967846 0 0 0
22 2 4 1.398411676867152 2.4630960390821315 0.47407269762424775 10.892752919786446 0 0 0
23 2 4 1.091061924246439 2.5859172686197596 1.8772634443773026 13.56825698858814 0 0 0
112 2 3 -0.8210056556798873 0.8431766880282111 -0.35992244859144473 10.610847507682633 0 0 0
113 2 3 -0.8469760154072383 3.6632706855018595 -0.7049252614461285 11.29242844775684 0 0 0
114 2 3 -0.841507019125397 2.373372426354979 1.6197301571777205 11.95284942950965 0 0 0
77 2 2 0.04805556723689659 2.5163613772476614 3.5849476356858556 14.046666405113475 0 0 0
44 2 1 -0.6712077691538469 0.9762210414163768 2.3636359593905265 14.384137861216816 0 0 0
76 2 2 0.1534458948664902 0.7945798018549117 1.3885614195535236 15.238034999935294 0 0 0
60 2 2 0.2259730520365272 0.931060480552891 3.38399015927524 14.926040023038952 0 0 0
75 2 2 0.1436386091067034 0.27203101935352136 2.292052245759651 13.390295623502038 0 0 0
149 3 4 1.03379391075957 -0.30651336084695724 5.038912306048293 10.483706995477517 0 0 0
262 6 2 0.1722965334244599 1.524769041223961 -1.7809320707557337 16.171876758155566 0 1 0
125 2 3 -0.8296845279454932 3.531042129508885 0.940494295745405 14.425815280483596 0 0 0
127 2 3 -0.735250101791334 3.7650507435684624 4.581808280617146 15.745602617150658 0 0 0
249 5 4 1.205144168443064 -0.6960905725690731 5.3288239098695485 15.787800299664474 1 0 0
278 8 2 0.1743724375360386 1.5111417159857008 0.510013430951799 16.609443868320188 1 1 0
59 2 2 -0.005455674015628072 -0.14126718638479752 1.990390944458531 9.671687560748078 1 0 0
271 8 1 -0.6133677254468128 0.5424475358353877 -0.11709628875754508 16.47803694272108 1 1 0
186 3 2 0.04890736478707933 3.9706460293327237 4.4344466892956715 10.069353302281272 0 0 0
126 2 3 -0.7923812463480033 1.060708483584987 5.259445563194202 15.862889622900022 0 0 0
92 2 2 0.1743354074639213 5.929120175272135 4.126040294034678 9.033247219292036 0 0 0
25 2 4 0.9944462396052705 8.250292163919006 -0.1816547353688387 17.42838543584057 0 0 0
322 29 2 0.01198080117739098 7.503540531993699 -1.5213763845657482 16.583559352443064 0 1 -1
121 2 3 -0.7361159360420986 4.516059355019378 -1.0040018608627639 16.25233098840988 0 0 0
119 2 3 -0.8075909805161254 5.001394813766598 -1.175820169847626 13.626349806928472 0 0 0
84 2 2 0.2286163654501396 6.318179037273284 0.05638352236402788 9.676024865828378 0 0 0
30 2 4 1.109747033980236 5.055563013851198 4.450810121640774 16.950135329903084 0 0 0
85 2 2 0.1960510279636968 5.254939576729125 1.016756815043699 10.892985601406274 0 0 0
29 2 4 1.470302756251005 4.731713446900675 -0.04885268782064722 14.733263770355947 0 0 0
33 2 4 1.098279792924302 7.385071891424604 1.7938269705639496 14.240187195879374 0 0 0
48 2 1 -0.6682488339700072 5.87700774917691 1.0341389246048716 9.920754147531762 0 0 0
53 2 1 -0.6251987880683528 7.530313418212557 2.2470052916167953 12.487141531692066 0 0 0
63 2 2 0.1682838969202556 7.953548075916115 3.2985524542929188 12.3815678626008 0 0 0
66 2 2 0.02320641278238936 8.625387734747445 1.2018593903654435 11.378607699272312 0 0 0
86 2 2 0.1852012111841344 6.6170650847420776 1.9025613845473703 9.753020612282315 0 0 0
99 2 2 0.168885562561202 6.445530925013202 2.0708572871250266 12.059813310867568 0 0 0
100 2 2 0.003218159430973686 8.618575230472768 0.9627174238947778 13.185002347614178 0 0 0
120 2 3 -0.7778497819618605 6.1626839346714455 0.8801498589565886 14.62017218922484 0 0 0
130 2 3 -0.8332115396865355 8.706994770743922 0.10045367793971005 8.988654899615547 0 0 0
134 2 3 -0.7736299083349366 9.584163573617825 0.399892676538232 16.571710058027044 0 0 0
141 2 3 -0.7933441877092421 7.820614416887779 3.102699950972708 15.0467632408806 0 0 0
36 2 4 1.270682066002587 9.689414669377815 0.8379983793962256 9.99029593257863 0 0 0
43 2 4 1.070585679787631 7.829943586452248 4.227839992416683 16.1493688313441 0 0 0
101 2 2 0.0143460540755445 10.238469314584012 2.1471642638269914 14.400849150048515 0 0 0
138 2 3 -0.8545223389939086 10.296236115344765 2.174074381508535 9.540445894494912 0 0 0
103 2 2 0.1670876074647185 10.308096180348784 3.009646599518287 16.760210228079615 0 0 0
102 2 2 0.1424044272009099 10.600664854298092 3.965373141376893 15.180205860322578 0 0 0
308 17 2 0.1535904123613307 9.183360076128448 -1.107069765595776 11.93549029244686 0 0 0
188 3 2 0.2123420492916014 7.3939238698316965 -1.1142194474355642 12.78716189568628 0 1 0
142 2 3 -0.7862596550601351 6.440684563877664 4.993068020854951 16.223311740477122 0 0 0
111 2 2 0.1676759172104101 7.364201949133306 5.307948435502059 9.962437380244275 0 0 0
256 5 2 0.1466548419582459 10.480365885014976 5.282284581686754 14.871391564280568 0 0 0
326 33 2 0.1367387305686029 9.032814233232553 -1.5768122117074077 13.83155964873209 0 0 0
159 3 1 -0.6685699076767676 8.45118091918767 -1.6054917567291525 12.815264607076188 0 1 0
276 8 2 0.03571154851351369 14.545661165659968 0.9376897800311204 16.752442056006064 0 1 0
189 3 2 0.1491935915759854 15.873771909192559 -1.0103185601878681 17.25080079604618 0 1 0
140 2 3 -0.8112838315740218 10.756106648357893 4.582819555824657 9.003787961342253 0 0 0
38 2 4 0.634327660445925 10.795837082405825 1.009683563358284 15.654993322088266 0 0 0
310 17 2 0.05173939310353533 16.019612275031527 -0.8627559296345533 14.843744380738087 0 0 0
178 3 2 0.1276924546211187 11.203878163988382 2.715894758699619 12.227181535287025 -1 0 0
104 2 2 0.1603701383234802 12.051721967539056 3.4170266813123114 16.29444375098758 0 0 0
54 2 1 -0.6604044934954439 10.986071082343166 3.0557090962155997 15.883326318802272 0 0 0
41 2 4 1.202217770858748 11.534859822266512 3.2004944985067976 9.388477135663683 0 0 0
20 2 4 1.220533272431966 15.079230076867425 0.3291671105710152 9.787774215688037 0 0 0
177 3 2 0.1604475406383409 11.686628221928391 3.192590437946575 14.01750879601946 -1 0 0
305 16 2 -0.01649501873141251 12.240542179484457 1.6277850989242597 16.333229172674894 0 0 -1
71 2 2 -0.004166186491015452 12.283721247079779 3.2879497927628187 10.884108685688743 0 0 0
39 2 4 1.051945299798023 12.216175481606854 0.030507241680246988 11.396462640128327 0 0 0
135 2 3 -0.8207454964142354 13.616208550012068 0.2401295755822621 10.639029590514507 0 0 0
136 2 3 -0.855641502382758 10.8944914678992 -0.052106333047181375 10.601995570246675 0 0 0
68 2 2 -0.01366312549937028 12.154603309998805 0.997886150687509 12.887912737254293 0 0 0
165 3 2 -0.009750647760178678 13.543460304700883 2.2987928747130173 13.257028680746789 -1 0 0
155 3 1 -0.6770939203147393 11.91104645515911 3.3179932051732117 12.866970969993545 -1 0 0
307 17 1 -0.6415753909588608 12.329923590708493 -0.9554693975122288 13.00321486524979 0 0 0
309 17 2 0.008088593949829121 11.51972950392577 -0.1647849464665534 14.437178608768043 0 0 0
277 8 2 -0.02185274714099969 13.53851940700996 0.19453324152658236 14.004519150690841 0 1 0
269 8 4 0.6820910993276031 14.303674214484857 -0.4802277942769566 15.474818808215172 0 1 0
179 3 2 0.1066451332584164 11.77779945370445 4.68083979843408 12.540954829265868 -1 0 0
314 21 2 0.1491828110236742 13.363663177560891 -1.3701760750989944 12.971938398483182 0 1 0
279 8 3 -0.762528027542942 13.542188098236686 -1.696282378842882 16.062569928225237 0 1 0
183 3 2 0.2110882840481222 -2.6811367218788615 5.640015417768473 9.089249776812162 0 0 0
81 2 2 0.2012230954731753 -3.897615805328525 11.268283094688966 8.837636712530676 0 -1 0
21 2 4 1.394666961820852 -4.83515328666647 11.115073434898784 12.461904644249659 0 -1 0
19 2 4 0.8027727381592337 -4.702082294214802 10.327190951972417 16.318895550010616 0 -1 0
115 2 3 -0.8119730848779003 -6.356239540409895 10.854384162341079 13.26326402559671 0 -1 0
284 10 2 0.1550200785100277 -4.619224147925622 7.688389020540354 16.676614404133566 0 -1 -1
283 10 1 -0.6630629459830786 -3.8719818273453424 8.505194037482765 16.47951954185584 0 -1 -1
148 3 4 1.247495067675886 -4.338184685464392 8.723761097639194 10.638967492687824 0 0 0
156 3 1 -0.6302095442892138 -4.0107808416866595 7.02592163298471 11.548943596886613 0 0 0
180 3 2 0.1755723978188506 -3.5236413162317834 7.5177170369291195 12.501304376128475 0 0 0
196 3 3 -0.8402909517056327 -4.1356952645493825 9.662354697671647 11.917225520230422 0 0 0
201 3 3 -0.8315708066032887 -3.230506314260803 8.8178386163288 9.542403824219548 0 0 0
325 32 2 0.04797726396896131 -4.01116530054218 9.193314189027001 14.866930805347948 0 0 -1
319 26 2 0.1619708534361901 -3.266758651928674 6.3302163701159175 10.967051784583543 1 0 0
259 6 1 -0.7005216999663113 -6.522818714471551 10.079529985512986 16.00906568629896 0 0 0
255 5 2 0.1683273870771529 -4.785869451371963 7.228272548494327 15.263014348953835 1 0 0
303 15 2 0.02188258761372219 -0.6280606545908627 9.423097111148351 17.35948595130198 0 0 0
198 3 3 -0.8143863415751499 1.1801812753723375 5.425563357293804 10.326897044554322 0 0 0
296 13 2 0.05131941829382854 2.0843462592564777 9.93137580837055 17.314096135047325 0 0 -1
173 3 2 0.1602163764225586 2.8337229036934914 11.123270144699795 12.651727490219203 0 0 0
268 8 4 0.6733463408358005 4.046238902059016 9.939131102980122 16.711908024771407 0 0 0
275 8 2 0.127144575624951 4.087846516008019 7.3552662826736945 17.143618718612732 0 0 0
157 3 1 -0.676957972806252 -1.5662770290631003 5.7162372731093445 8.998332465563353 0 0 0
280 9 4 0.7717185878335688 -1.9835748143465644 8.28898573400562 16.606106697077834 1 0 0
281 9 2 0.1331577365790162 -1.7322858149854483 9.9715396977199 15.095019363211776 1 0 0
253 5 2 0.1159465890488353 2.497704067566167 8.013541837506478 16.366633433750934 1 0 0
270 8 1 -0.6913570586422242 3.0513458616633837 7.148458604753477 16.83788388976535 0 0 0
241 4 2 0.1561176472067433 3.382043571781215 8.986790057545063 9.714958797432224 0 0 0
150 3 4 0.9612085778391798 2.779555503710103 5.81947049579687 10.265613720867064 0 0 0
331 38 3 -0.7513293149330798 -1.393488715298794 6.850759425115788 16.24107496571589 0 0 0
327 34 2 0.03383739959324165 -0.9956018405257203 9.607150860151757 13.442310988586994 0 -1 0
301 15 1 -0.6625367466003222 -0.6561033947081627 9.731403975810926 15.654672509837159 0 0 0
282 9 2 0.1452924788634322 -0.03279434948994209 10.651512960843421 15.53652087856484 1 0 0
34 2 4 0.9746295399365988 2.558893673072892 5.736097468679038 15.7013353476384 0 0 0
302 15 2 0.1582946344505037 -0.14530580896821066 8.902466356033488 15.13682021960277 0 0 0
182 3 2 0.0740717030906414 -1.1695205607626589 6.6667458711542125 10.459381484762574 0 0 0
64 2 2 -0.07253104386527054 2.6841234796555256 6.700140736559776 14.209182756306761 0 0 0
151 3 4 1.481621605919712 -1.6466092046764724 9.481206028266248 9.393370707897827 0 0 0
152 3 4 1.000098509371373 2.85059729765267 7.7632485678471195 12.676321641868622 0 0 0
153 3 4 1.066128289448195 0.08663946376078402 9.601331494428175 12.081906432757467 0 0 0
202 3 3 -0.8010469904538589 3.1803357580190097 6.882263650911691 11.452707003556933 0 0 0
203 3 3 -0.812931867841162 -0.7432109314085311 9.447351072288836 10.77143406418098 0 0 0
204 3 3 -0.7781640401628015 1.4411472814148283 8.785390326068935 12.415815545452487 0 0 0
191 3 2 0.1732572275852385 4.124184033750973 9.995040687311402 12.90799595110762 0 0 0
272 8 2 -0.02975621381844787 4.157361651731808 8.438697163810822 15.836047630578141 0 0 0
328 35 2 0.1565087402943267 8.255018700903328 5.466496956596281 11.593197220517213 -1 0 0
160 3 1 -0.6574804515113939 4.291034446976392 8.815081157171232 12.894048760543162 0 0 0
316 23 2 0.1427580552965571 8.852990402724974 7.839724086064784 17.539326422163917 0 -1 -1
73 2 2 -0.001512446121983089 9.040072319661945 5.424692610481346 15.761300821415961 0 0 0
168 3 2 0.06651687277464684 8.238147822116591 10.755343882729196 10.796656587906982 -1 0 0
172 3 2 0.117630751133818 4.6531849984301115 8.35382647742471 13.922551620850387 0 0 0
195 3 3 -0.7967436786943863 9.169271260493584 8.408152959370836 10.198227535418422 -1 0 0
315 22 2 0.1443252182824478 7.007881382270221 7.808266381262346 17.46382343037775 0 -1 -1
181 3 2 0.1717996327078538 10.328380506251737 6.582457068372959 11.71679724244568 -1 0 0
224 4 2 0.1540946852680856 6.648409391291417 6.375078854958387 11.403513154690241 0 0 0
190 3 2 0.1765611656532098 4.9724645976770105 8.4620961499192 12.05311404534679 0 0 0
217 4 1 -0.6084656073182548 4.32801306337596 9.72322438037577 9.678621189567698 0 0 0
318 25 2 0.147715820038406 8.454747726851277 9.243397971586882 16.76987407293172 0 0 0
260 6 2 0.006085417941094275 6.7403958339301 9.676876513757747 14.223205538935874 -1 0 0
261 6 2 0.04001935809997933 9.089545731282442 8.06630961826734 13.653871530676865 -1 0 0
258 6 4 0.7796392489424194 8.518985240525659 9.699653384563028 14.199869130690528 -1 0 0
257 5 2 0.1522114444248081 9.063556014345533 6.407524176938555 14.397736631897565 0 0 0
240 4 2 0.003290263412264864 5.010805571443929 6.930633774615304 8.97651897583813 0 0 0
251 5 1 -0.6414183860237562 10.158077110980653 6.373814812485455 14.506044275442516 0 0 0
147 3 4 1.235585717564785 8.40934486099545 9.625708872497656 9.604145205340997 -1 0 0
57 2 1 -0.6667767036842124 7.6187001050323175 6.005740041435086 10.837642676631724 0 0 0
244 4 3 -0.7793454802749683 6.894997119427748 8.97772819090353 9.236073577397951 0 0 0
290 11 2 0.1553545429702826 6.532924275414608 7.727962171211494 13.955018420573479 0 0 0
288 11 2 0.1528758239278763 6.649727423676823 8.938317397316181 12.5876057235517 0 0 0
239 4 2 0.1760526859563523 4.873167644749925 9.870320975392401 10.656228256747122 0 0 0
287 11 1 -0.6461511113456211 7.211651256675958 8.11843788078576 13.160948727696788 0 0 0
289 11 2 0.1907968500873074 7.448517863600043 7.338504990687747 12.363086211501999 0 0 0
166 3 2 0.2643779860976458 8.130916923342951 6.908104800857796 10.412457827628275 -1 0 0
67 2 2 0.1653046447434632 10.566364048211177 6.550833060775617 13.408747765622014 0 0 0
163 3 2 0.1676481400368574 11.567983356611368 5.515078037715593 17.494158068176908 -1 0 -1

Velocities

230 0.01090768860528446 -0.014785410875717908 0.009567446837261675
1 -0.003528277478716445 0.004045913087145336 0.002620130556953776