LAMMPS (2 Aug 2023 - Update 2)
  using 1 OpenMP thread(s) per MPI task
# Initialization
units           real
dimension       3
boundary        p p p
atom_style      full
timestep        0.5   # fs

variable       nevery equal 1000
variable       nrepeat equal 1
variable       nfreq equal ${nevery}*${nrepeat}
variable       nfreq equal 1000*${nrepeat}
variable       nfreq equal 1000*1
variable       nthermo equal ${nfreq}/10
variable       nthermo equal 1000/10
variable       nrun equal 1200*${nthermo}          # stpes of equilibrated run 1000 (30 min)
variable       nrun equal 1200*100          

variable temp equal 300.0                # temperature of initial sample
variable tdamp equal 50.0                 # time constant for thermostat
variable seed equal 123456                # seed for thermostat
variable ufac equal 1.01325e-4         # pressure unit conversion, from atm to Gpa
variable up equal .6                  # the deformation magnitude 0.01

variable FF string "SiOCHN_2018.ff C H O Si"   # force field args for pair_coeff
# pair_coeff * * CHONSSi.ff O Si
# pair_coeff * * CHOSiNa.ff O Si
# 2019: pair_coeff * * SiOCHN_2018.ff C H O Si
# pair_coeff * * PDMSDecomp.ff Si O
# 2020: pair_coeff * * CHONSi.ff C H O Si
# pair_coeff * * CHOFe.ff O Si
variable structure string 333-HD-100C-14-VASP

# Read the initial sctructure
# box tilt large
read_data       ${structure}.data
read_data       333-HD-100C-14-VASP.data
Reading data file ...
  triclinic box = (0 0 0) to (15.724 13.9031 17.2465) with tilt (-7.584 0.1778 0.4371)
WARNING: Triclinic box skew is large. LAMMPS will run inefficiently. (src/domain.cpp:220)
  2 by 2 by 2 MPI processor grid
  reading atoms ...
  366 atoms
Finding 1-2 1-3 1-4 neighbors ...
  special bond factors lj:    0        0        0       
  special bond factors coul:  0        0        0       
     0 = max # of 1-2 neighbors
     0 = max # of 1-3 neighbors
     0 = max # of 1-4 neighbors
     1 = max # of special neighbors
  special bonds CPU = 0.001 seconds
  read_data CPU = 0.019 seconds

# Assign the force field
pair_style reaxff NULL safezone 3.0 mincap 150
pair_coeff * * ${FF}
pair_coeff * * SiOCHN_2018.ff C H O Si
WARNING: Van der Waals parameters for element SI indicate inner wall+shielding, but earlier atoms indicate a different van der Waals method. This may cause division-by-zero errors. Keeping van der Waals setting for earlier atoms. (src/REAXFF/reaxff_ffield.cpp:251)
# charge method for reaxff
fix myqeq all qeq/reaxff 1 0.0 10.0 1.0e-6 reaxff maxiter 400

# # Energy minimization
# print "*****Minimization starts.*****"
# dump dump_opt all custom 1 dump/dump_opt.lammpstrj id type q x y z
# minimize 1.0e-6 1.0e-6 100 1000
# min_style cg
# # Save the optimized structure
# write_data ${structure}_opt.data
# undump dump_opt
# unfix bondinfo

velocity        all create ${temp} ${seed} dist gaussian
velocity        all create 300 ${seed} dist gaussian
velocity        all create 300 123456 dist gaussian

# # Equilibration
# variable       nequil equal 10*${nthermo}  # 2000: 100 ps
# include ff.mod.lmp
# if "$(is_defined(fix,avgp))" then "unfix avgp"
# if "$(is_defined(fix,avgl))" then "unfix avgl"
# thermo_style custom step temp pe press density vol
# dump dump_eq all custom ${nthermo} dump/dump_eq.lammpstrj id type q x y z

# run ${nequil}
# # Save the equilibrated structure
# write_data ${structure}_eq.data
# undump dump_eq

# use tmp to save initial length and tilt
variable tmp equal lx
variable lx0 equal ${tmp}
variable lx0 equal 15.724
variable tmp equal ly
variable ly0 equal ${tmp}
variable ly0 equal 13.9031
variable tmp equal lz
variable lz0 equal ${tmp}
variable lz0 equal 17.2465

variable tmp equal yz
variable yz0 equal ${tmp}
variable yz0 equal 0.4371
variable tmp equal xz
variable xz0 equal ${tmp}
variable xz0 equal 0.1778
variable tmp equal xy
variable xy0 equal ${tmp}
variable xy0 equal -7.584

# velocity all create ${temp} ${seed} dist gaussian
# Write restart
write_restart equil.res
System init for write_restart ...
WARNING: Fix qeq/reaxff group is not charge neutral, net charge = -29.52 (src/REAXFF/fix_qeq_reaxff.cpp:392)
Neighbor list info ...
  update: every = 1 steps, delay = 0 steps, check = yes
  max neighbors/atom: 2000, page size: 100000
  master list distance cutoff = 12
  ghost atom cutoff = 12
  binsize = 6, bins = 4 3 3
  2 neighbor lists, perpetual/occasional/extra = 2 0 0
  (1) pair reaxff, perpetual
      attributes: half, newton off, ghost
      pair build: half/bin/newtoff/ghost
      stencil: full/ghost/bin/3d
      bin: standard
  (2) fix qeq/reaxff, perpetual, copy from (1)
      attributes: half, newton off
      pair build: copy
      stencil: none
      bin: none

# uzz Perturbation
variable dir equal 3
include displace.mod.lmp
# Find which length (epsilon) to calculate
if "${dir} == 1" then    "variable len0 equal ${lx0}"    "variable dlen equal lx-${len0}"
if "${dir} == 2" then    "variable len0 equal ${ly0}"    "variable dlen equal ly-${len0}"
if "${dir} == 3" then    "variable len0 equal ${lz0}"    "variable dlen equal lz-${len0}"
variable len0 equal ${lz0}
variable len0 equal 17.2465
variable dlen equal lz-${len0}
variable dlen equal lz-17.2465
if "${dir} == 4" then    "variable len0 equal ${lx0}"    "variable dlen equal 2*(yz-${yz0})"
if "${dir} == 5" then    "variable len0 equal ${ly0}"    "variable dlen equal 2*(xz-${xz0})"
if "${dir} == 6" then    "variable len0 equal ${lz0}"    "variable dlen equal 2*(xy-${xy0})"

# strain vector (epsilon)
variable eps equal v_dlen/v_len0

# stress vector (sigma)
variable sig1 equal -f_avgp[1]*${ufac}
variable sig1 equal -f_avgp[1]*0.000101325
variable sig2 equal -f_avgp[2]*${ufac}
variable sig2 equal -f_avgp[2]*0.000101325
variable sig3 equal -f_avgp[3]*${ufac}
variable sig3 equal -f_avgp[3]*0.000101325
variable sig4 equal -f_avgp[6]*${ufac}
variable sig4 equal -f_avgp[6]*0.000101325
variable sig5 equal -f_avgp[5]*${ufac}
variable sig5 equal -f_avgp[5]*0.000101325
variable sig6 equal -f_avgp[4]*${ufac}
variable sig6 equal -f_avgp[4]*0.000101325

# Reset box and simulation parameters
clear
  using 1 OpenMP thread(s) per MPI task
# box tilt large
read_restart equil.res
Reading restart file ...
  restart file = 2 Aug 2023, LAMMPS = 2 Aug 2023
  restoring atom style full from restart
  triclinic box = (0 0 0) to (15.724 13.9031 17.2465) with tilt (-7.584 0.1778 0.4371)
WARNING: Triclinic box skew is large. LAMMPS will run inefficiently. (src/domain.cpp:220)
  2 by 2 by 2 MPI processor grid
  pair style reaxff stores no restart info
  366 atoms
Finding 1-2 1-3 1-4 neighbors ...
  special bond factors lj:    0        0        0       
  special bond factors coul:  0        0        0       
     0 = max # of 1-2 neighbors
     0 = max # of 1-3 neighbors
     0 = max # of 1-4 neighbors
     1 = max # of special neighbors
  special bonds CPU = 0.001 seconds
  read_restart CPU = 0.004 seconds

# Positive deformation
variable delta equal ${up}*${len0}
variable delta equal 0.6*${len0}
variable delta equal 0.6*17.2465
variable deltaxy equal ${up}*xy
variable deltaxy equal 0.6*xy
variable deltaxz equal ${up}*xz
variable deltaxz equal 0.6*xz
variable deltayz equal ${up}*yz
variable deltayz equal 0.6*yz
if "${dir} == 1" then    "fix deform_p all deform ${nthermo} x delta 0 ${delta} xy delta ${deltaxy} xz delta ${deltaxz} remap v units box flip no"
if "${dir} == 2" then    "fix deform_p all deform ${nthermo} y delta 0 ${delta} yz delta ${deltayz} remap v units box flip no"
if "${dir} == 3" then    "fix deform_p all deform ${nthermo} z delta 0 ${delta} remap v units box"
fix deform_p all deform ${nthermo} z delta 0 ${delta} remap v units box
fix deform_p all deform 100 z delta 0 ${delta} remap v units box
fix deform_p all deform 100 z delta 0 10.3479 remap v units box
if "${dir} == 4" then    "fix deform_p all deform ${nthermo} yz delta ${delta} remap v units box flip no"
if "${dir} == 5" then    "fix deform_p all deform ${nthermo} xz delta ${delta} remap v units box flip no"
if "${dir} == 6" then    "fix deform_p all deform ${nthermo} xy delta ${delta} remap v units box flip no"

# Run deformation MD
print "*****Positive-deform ${dir} starts.*****"
*****Positive-deform 3 starts.*****
# Save bond information
fix bondinfo all reaxff/bonds ${nthermo} bonds/bonds.pos${dir}.reaxff
fix bondinfo all reaxff/bonds 100 bonds/bonds.pos${dir}.reaxff
fix bondinfo all reaxff/bonds 100 bonds/bonds.pos3.reaxff
# Reset neighbor style
neighbor        2 bin
neigh_modify    every 10 delay 0 check no

include ff.mod.lmp
# Setup forcefield, system
# undefine any fix ave/* fix before using reset_timestep
if "$(is_defined(fix,avgp))" then "unfix avgp"
if "$(is_defined(fix,avgl))" then "unfix avgl"
reset_timestep 0

# Assign the force field
pair_style reaxff NULL safezone 3.0 mincap 150
pair_coeff * * ${FF}
pair_coeff * * SiOCHN_2018.ff C H O Si
WARNING: Van der Waals parameters for element SI indicate inner wall+shielding, but earlier atoms indicate a different van der Waals method. This may cause division-by-zero errors. Keeping van der Waals setting for earlier atoms. (src/REAXFF/reaxff_ffield.cpp:251)

# charge method for reaxff
fix myqeq all qeq/reaxff 1 0.0 10.0 1.0e-6 reaxff maxiter 400
# fix bondinfo all reaxff/bonds ${nthermo} bonds.reaxff
# Setup neighbor style
neighbor        2 bin
neigh_modify    every 10 delay 0 check no

# Setup output
thermo		${nthermo}
thermo		100
thermo_style custom step temp press vol lz density
# thermo_style custom step vol lx ly lz yz xz xy
thermo_modify norm no
# thermo_modify line multi

# Sample pressure (and length vector)
fix avgp all ave/time  ${nevery} ${nrepeat} ${nfreq} c_thermo_press mode vector
fix avgp all ave/time  1000 ${nrepeat} ${nfreq} c_thermo_press mode vector
fix avgp all ave/time  1000 1 ${nfreq} c_thermo_press mode vector
fix avgp all ave/time  1000 1 1000 c_thermo_press mode vector
# fix avgp all ave/time  10 10 ${nthermo} c_thermo_press mode vector
# variable lx equal lx
# variable ly equal ly
# variable lz equal lz
# fix avgl all ave/time  ${nevery} ${nrepeat} ${nfreq} v_lx v_ly v_lz

# nvt
fix fnvt all nvt temp ${temp} ${temp} ${tdamp}
fix fnvt all nvt temp 300 ${temp} ${tdamp}
fix fnvt all nvt temp 300 300 ${tdamp}
fix fnvt all nvt temp 300 300 50


# Save stress, strain to "./stress_strain/stress_strain.pos${dir}.out"
print "# Stress and strain vectors, ${structure}, positive deformation ${dir}"       file stress_strain/stress_strain.pos${dir}.out screen no
print "# Stress and strain vectors, ${structure}, positive deformation ${dir}"       file stress_strain/stress_strain.pos3.out screen no
fix data all print ${nfreq} "${eps} ${sig1} ${sig2} ${sig3} ${sig4} ${sig5} ${sig6}"       append stress_strain/stress_strain.pos${dir}.out screen no       title "# eps sig1 sig2 sig3 sig4 sig5 sig6"
fix data all print 1000 "${eps} ${sig1} ${sig2} ${sig3} ${sig4} ${sig5} ${sig6}"       append stress_strain/stress_strain.pos${dir}.out screen no       title "# eps sig1 sig2 sig3 sig4 sig5 sig6"
fix data all print 1000 "${eps} ${sig1} ${sig2} ${sig3} ${sig4} ${sig5} ${sig6}"       append stress_strain/stress_strain.pos3.out screen no       title "# eps sig1 sig2 sig3 sig4 sig5 sig6"

# compute MSD and RDF
compute msd1 all msd
fix myMSD all ave/time 10 10 ${nthermo} c_msd1[1] c_msd1[2] c_msd1[3] c_msd1[4] c_thermo_temp     file msd.out     title2 "# TimeStep MSD_X MSD_Y MSD_Z MSD_Total Temperture"
fix myMSD all ave/time 10 10 100 c_msd1[1] c_msd1[2] c_msd1[3] c_msd1[4] c_thermo_temp     file msd.out     title2 "# TimeStep MSD_X MSD_Y MSD_Z MSD_Total Temperture"
# C-C C-Si Si-O C-H Si-Si
compute rdf1 all rdf 100  1 1  1 4  3 4  1 2 cutoff 5.0
fix myRDF all ave/time ${nevery} ${nrepeat} ${nfreq} c_rdf1[*]     file rdf.out mode vector     title3 "# Row r g1(r) coor1(r) ..."
fix myRDF all ave/time 1000 ${nrepeat} ${nfreq} c_rdf1[*]     file rdf.out mode vector     title3 "# Row r g1(r) coor1(r) ..."
fix myRDF all ave/time 1000 1 ${nfreq} c_rdf1[*]     file rdf.out mode vector     title3 "# Row r g1(r) coor1(r) ..."
fix myRDF all ave/time 1000 1 1000 c_rdf1[*]     file rdf.out mode vector     title3 "# Row r g1(r) coor1(r) ..."

# save trajectory
# if "$(is_defined(dump,dump_pos${dir1}))" then "undump dump_pos${dir1}"
dump dump_pos${dir} all custom ${nthermo} dump/pos${dir}_deform.lammpstrj id type q x y z element
dump dump_pos3 all custom ${nthermo} dump/pos${dir}_deform.lammpstrj id type q x y z element
dump dump_pos3 all custom 100 dump/pos${dir}_deform.lammpstrj id type q x y z element
dump dump_pos3 all custom 100 dump/pos3_deform.lammpstrj id type q x y z element
dump_modify dump_pos${dir} element C H O Si
dump_modify dump_pos3 element C H O Si
run ${nrun}
run 120000

CITE-CITE-CITE-CITE-CITE-CITE-CITE-CITE-CITE-CITE-CITE-CITE-CITE

Your simulation uses code contributions which should be cited:

- pair reaxff command: doi:10.1016/j.parco.2011.08.005

@Article{Aktulga12,
 author = {H. M. Aktulga and J. C. Fogarty and S. A. Pandit and A. Y. Grama},
 title = {Parallel Reactive Molecular Dynamics: {N}umerical Methods and Algorithmic Techniques},
 journal = {Parallel Computing},
 year =    2012,
 volume =  38,
 number =  {4--5},
 pages =   {245--259}
}

- fix qeq/reaxff command: doi:10.1016/j.parco.2011.08.005

@Article{Aktulga12,
 author = {H. M. Aktulga and J. C. Fogarty and S. A. Pandit and A. Y. Grama},
 title = {Parallel Reactive Molecular Dynamics: {N}umerical Methods and Algorithmic Techniques},
 journal = {Parallel Computing},
 year =    2012,
 volume =  38,
 pages =   {245--259}
}

CITE-CITE-CITE-CITE-CITE-CITE-CITE-CITE-CITE-CITE-CITE-CITE-CITE

WARNING: Compute rdf cutoff less than neighbor cutoff - forcing a needless neighbor list build (src/compute_rdf.cpp:179)
WARNING: Fix qeq/reaxff group is not charge neutral, net charge = -29.52 (src/REAXFF/fix_qeq_reaxff.cpp:392)
Neighbor list info ...
  update: every = 10 steps, delay = 0 steps, check = no
  max neighbors/atom: 2000, page size: 100000
  master list distance cutoff = 12
  ghost atom cutoff = 12
  binsize = 6, bins = 4 3 3
  3 neighbor lists, perpetual/occasional/extra = 2 1 0
  (1) pair reaxff, perpetual
      attributes: half, newton off, ghost
      pair build: half/bin/newtoff/ghost
      stencil: full/ghost/bin/3d
      bin: standard
  (2) compute rdf, occasional
      attributes: half, newton on, cut 7
      pair build: half/bin/newton/tri
      stencil: half/bin/3d/tri
      bin: standard
  (3) fix qeq/reaxff, perpetual, copy from (1)
      attributes: half, newton off
      pair build: copy
      stencil: none
      bin: none
Per MPI rank memory allocation (min/avg/max) = 137.1 | 139.3 | 142.3 Mbytes
   Step          Temp          Press          Volume           Lz          Density    
         0   300            3066.1104      3770.2978      17.2465        1.8952586    
       100   540.53001      14362.809      3772.1829      17.255123      1.8943115    
       200   395.93583      11557.028      3774.0681      17.263746      1.8933653    
       300   368.18203      8835.9857      3775.9532      17.27237       1.89242      
       400   305.90655      7190.9846      3777.8384      17.280993      1.8914757    
       500   305.79561     -6196.6969      3779.7235      17.289616      1.8905323    
       600   278.69675     -6671.645       3781.6087      17.29824       1.8895899    
       700   281.29345      3384.1328      3783.4938      17.306863      1.8886484    
       800   313.23988      202.67477      3785.379       17.315486      1.8877078    
       900   316.64466     -875.09427      3787.2641      17.324109      1.8867682    
      1000   316.50547      6318.3967      3789.1493      17.332733      1.8858295    
      1100   299.06333     -3984.1333      3791.0344      17.341356      1.8848917    
      1200   284.38702      4657.7176      3792.9196      17.349979      1.8839549    
      1300   289.27023     -4961.4288      3794.8047      17.358602      1.883019     
      1400   292.96636     -4908.0528      3796.6899      17.367225      1.882084     
      1500   322.30614      2811.4709      3798.575       17.375849      1.88115      
      1600   299.63077     -7389.5133      3800.4602      17.384472      1.8802169    
      1700   305.37642     -10044.059      3802.3453      17.393095      1.8792847    
      1800   305.73613     -177.54197      3804.2305      17.401719      1.8783535    
      1900   301.03754     -9573.5258      3806.1156      17.410342      1.8774231    
      2000   295.3106       4864.6306      3808.0008      17.418965      1.8764937    
      2100   290.85434      1430.3425      3809.8859      17.427588      1.8755652    
      2200   294.04658     -12814.543      3811.7711      17.436212      1.8746376    
      2300   308.46652     -916.84568      3813.6562      17.444835      1.873711     
      2400   311.6579      -12067.099      3815.5414      17.453458      1.8727852    
      2500   296.75307     -4501.1789      3817.4265      17.462081      1.8718604    
      2600   304.39853      397.46638      3819.3117      17.470705      1.8709365    
      2700   300.27095     -7904.5828      3821.1968      17.479328      1.8700135    
      2800   297.42109     -5118.4663      3823.082       17.487951      1.8690914    
      2900   304.87927     -16565.629      3824.9671      17.496574      1.8681702    
      3000   307.81521     -3709.2818      3826.8523      17.505198      1.8672499    
      3100   280.14874     -12332.545      3828.7374      17.513821      1.8663305    
      3200   301.61878     -10460.058      3830.6226      17.522444      1.865412     
      3300   307.33727     -2663.8519      3832.5077      17.531067      1.8644945    
      3400   308.10049     -13054.354      3834.3929      17.539691      1.8635778    
      3500   284.48967     -8304.2383      3836.278       17.548314      1.8626621    
      3600   306.08461     -13867.535      3838.1632      17.556937      1.8617472    
      3700   279.81095     -3062.7363      3840.0483      17.56556       1.8608332    
      3800   298.38456      1269.741       3841.9335      17.574184      1.8599202    
      3900   316.68086     -2397.3125      3843.8186      17.582807      1.859008     
      4000   303.0336      -7617.0441      3845.7038      17.59143       1.8580967    
      4100   313.41186     -15878.396      3847.5889      17.600053      1.8571863    
      4200   300.00478     -8073.7825      3849.4741      17.608677      1.8562768    
      4300   290.12736     -6506.6314      3851.3592      17.6173        1.8553682    
      4400   289.36415     -10114.466      3853.2443      17.625923      1.8544605    
      4500   281.77501     -7178.7104      3855.1295      17.634546      1.8535537    
      4600   306.70751     -18505.303      3857.0146      17.64317       1.8526477    
      4700   322.93719     -9257.7404      3858.8998      17.651793      1.8517427    
      4800   311.09441     -4908.9667      3860.7849      17.660416      1.8508385    
      4900   307.92135     -11448.003      3862.6701      17.669039      1.8499352    
      5000   292.28254     -5505.4321      3864.5552      17.677663      1.8490328    
      5100   273.23354     -10294.65       3866.4404      17.686286      1.8481313    
      5200   300.36952     -14598.252      3868.3255      17.694909      1.8472306    
      5300   323.25072     -15779.894      3870.2107      17.703532      1.8463309    
      5400   319.61402     -11608.599      3872.0958      17.712156      1.845432     
      5500   294.80767     -14026.673      3873.981       17.720779      1.844534     
      5600   313.69477     -19011.591      3875.8661      17.729402      1.8436368    
      5700   291.77277     -12179.414      3877.7513      17.738025      1.8427405    
      5800   311.42419     -18735.508      3879.6364      17.746649      1.8418451    
      5900   338.76029     -16123.532      3881.5216      17.755272      1.8409506    
      6000   292.76185     -7350.6095      3883.4067      17.763895      1.8400569    
      6100   290.54811     -12320.105      3885.2919      17.772518      1.8391641    
      6200   298.97104     -15406.811      3887.177       17.781142      1.8382722    
      6300   299.95411     -16801.87       3889.0622      17.789765      1.8373811    
      6400   311.58848     -14280.109      3890.9473      17.798388      1.8364909    
      6500   295.22222     -9200.2116      3892.8325      17.807011      1.8356016    
      6600   296.96991     -7290.6007      3894.7176      17.815635      1.8347131    
      6700   299.52813     -18220.48       3896.6028      17.824258      1.8338255    
      6800   294.13982     -10051.139      3898.4879      17.832881      1.8329387    
      6900   293.96521     -16980.594      3900.3731      17.841504      1.8320528    
      7000   314.5618      -17651.952      3902.2582      17.850127      1.8311678    
      7100   297.5519      -9739.986       3904.1434      17.858751      1.8302836    
      7200   296.57374     -20871.734      3906.0285      17.867374      1.8294002    
      7300   303.40825     -12726.853      3907.9137      17.875997      1.8285177    
      7400   286.11591     -8124.5806      3909.7988      17.884621      1.8276361    
      7500   291.12046     -17855.256      3911.684       17.893244      1.8267553    
      7600   290.04163     -8953.9542      3913.5691      17.901867      1.8258754    
      7700   293.01831     -14931.675      3915.4543      17.91049       1.8249963    
      7800   299.18414     -10561.74       3917.3394      17.919114      1.824118     
      7900   329.18364     -15384.811      3919.2246      17.927737      1.8232406    
      8000   295.9832      -8875.0251      3921.1097      17.93636       1.8223641    
      8100   270.45798     -16666.128      3922.9949      17.944983      1.8214884    
      8200   274.42146     -17160.239      3924.88        17.953606      1.8206135    
      8300   319.38171     -16110.148      3926.7652      17.96223       1.8197395    
      8400   306.43597     -16435.232      3928.6503      17.970853      1.8188663    
      8500   317.8694      -17660.595      3930.5355      17.979476      1.8179939    
      8600   320.5127      -14189.625      3932.4206      17.9881        1.8171224    
      8700   302.78606     -13932.475      3934.3058      17.996723      1.8162517    
      8800   327.63573     -17146.968      3936.1909      18.005346      1.8153818    
      8900   301.6258      -15571.069      3938.076       18.013969      1.8145128    
      9000   278.22426     -20859.505      3939.9612      18.022593      1.8136446    
      9100   298.94254     -23862.059      3941.8463      18.031216      1.8127773    
      9200   332.60794     -15074.954      3943.7315      18.039839      1.8119107    
      9300   308.02327     -11053.764      3945.6166      18.048462      1.811045     
      9400   292.79166     -25103.381      3947.5018      18.057085      1.8101802    
      9500   279.39478     -12524.084      3949.3869      18.065709      1.8093161    
      9600   291.92384     -31680.272      3951.2721      18.074332      1.8084529    
      9700   313.0341      -18432.997      3953.1572      18.082955      1.8075905    
      9800   288.44249     -21102.165      3955.0424      18.091579      1.8067289    
      9900   295.3934      -16435.023      3956.9275      18.100202      1.8058682    
     10000   286.41407     -14863.089      3958.8127      18.108825      1.8050082    
     10100   283.12367     -14673.812      3960.6978      18.117448      1.8041491    
     10200   290.58997     -15739.982      3962.583       18.126072      1.8032908    
     10300   304.25752     -21258.692      3964.4681      18.134695      1.8024333    
     10400   308.54685     -22918.297      3966.3533      18.143318      1.8015767    
     10500   313.95597     -23376.697      3968.2384      18.151941      1.8007208    
     10600   280.2733      -17124.544      3970.1236      18.160564      1.7998658    
     10700   283.83857     -18975.527      3972.0087      18.169188      1.7990115    
     10800   316.52446     -24949.271      3973.8939      18.177811      1.7981581    
     10900   317.72093     -21872.323      3975.779       18.186434      1.7973055    
     11000   300.75549     -20745.767      3977.6642      18.195058      1.7964537    
     11100   280.30291     -24889.17       3979.5493      18.203681      1.7956027    
     11200   307.93561     -19755.93       3981.4345      18.212304      1.7947525    
     11300   319.08585     -24358.976      3983.3196      18.220927      1.7939031    
     11400   312.64628     -24739.34       3985.2048      18.229551      1.7930545    
     11500   314.31515     -16033.669      3987.0899      18.238174      1.7922068    
     11600   303.41868     -14047.635      3988.9751      18.246797      1.7913598    
     11700   276.74882     -28567.158      3990.8602      18.25542       1.7905136    
     11800   301.00691     -23564.851      3992.7454      18.264043      1.7896682    
     11900   295.96197     -22325.779      3994.6305      18.272667      1.7888236    
     12000   312.65283     -21607.424      3996.5157      18.28129       1.7879798    
     12100   319.32304     -14407.006      3998.4008      18.289913      1.7871369    
     12200   292.47287     -26698.429      4000.286       18.298537      1.7862947    
     12300   302.23201     -20508.379      4002.1711      18.30716       1.7854533    
     12400   306.45164     -26054.955      4004.0563      18.315783      1.7846127    
     12500   301.03091     -28506.511      4005.9414      18.324406      1.7837728    
     12600   317.41955     -23613.011      4007.8266      18.33303       1.7829338    
     12700   299.14844     -16405.841      4009.7117      18.341653      1.7820956    
     12800   295.54673     -29328.722      4011.5969      18.350276      1.7812581    
     12900   289.38224     -18760.616      4013.482       18.358899      1.7804215    
     13000   286.10643     -34898.018      4015.3672      18.367522      1.7795856    
     13100   276.09228     -27303.01       4017.2523      18.376146      1.7787505    
     13200   307.21933     -24923.782      4019.1375      18.384769      1.7779162    
     13300   297.82982     -28804.895      4021.0226      18.393392      1.7770826    
     13400   300.56708     -33722.702      4022.9078      18.402016      1.7762499    
     13500   296.45807     -23248.879      4024.7929      18.410639      1.7754179    
     13600   296.46229     -29627.763      4026.678       18.419262      1.7745867    
     13700   290.67871     -32481.337      4028.5632      18.427885      1.7737563    
     13800   302.55833     -23912.511      4030.4483      18.436509      1.7729267    
     13900   304.40378     -26395.209      4032.3335      18.445132      1.7720978    
     14000   303.3789      -26996.269      4034.2186      18.453755      1.7712698    
     14100   299.87846     -28325.989      4036.1038      18.462378      1.7704424    
     14200   286.90538     -26739.29       4037.9889      18.471001      1.7696159    
     14300   287.88354     -20351.666      4039.8741      18.479625      1.7687901    
     14400   301.45446     -26457.568      4041.7592      18.488248      1.7679651    
     14500   293.49552     -22829.735      4043.6444      18.496871      1.7671409    
     14600   313.62361     -27354.675      4045.5295      18.505495      1.7663175    
     14700   308.33881     -14984.173      4047.4147      18.514118      1.7654948    
     14800   291.18252     -30554.095      4049.2998      18.522741      1.7646728    
     14900   300.12896     -29685.701      4051.185       18.531364      1.7638517    
     15000   305.92611     -29192.463      4053.0701      18.539988      1.7630313    
     15100   286.40082     -22606.46       4054.9553      18.548611      1.7622117    
     15200   312.12344     -33857.497      4056.8404      18.557234      1.7613928    
     15300   304.75001     -24920.437      4058.7256      18.565857      1.7605747    
     15400   282.32938     -29408.656      4060.6107      18.57448       1.7597573    
     15500   283.96747     -31585.009      4062.4959      18.583104      1.7589407    
     15600   312.60563     -32915.808      4064.381       18.591727      1.7581249    
     15700   326.79352     -29347.107      4066.2662      18.60035       1.7573098    
     15800   297.57203     -27926.249      4068.1513      18.608974      1.7564955    
     15900   273.91739     -22709.738      4070.0365      18.617597      1.7556819    
     16000   285.82496     -27180.015      4071.9216      18.62622       1.7548691    
     16100   305.97015     -30999.779      4073.8068      18.634843      1.754057     
     16200   309.23415     -29002.314      4075.6919      18.643467      1.7532457    
     16300   291.43817     -28346.394      4077.5771      18.65209       1.7524352    
     16400   290.76416     -31271.355      4079.4622      18.660713      1.7516254    
     16500   288.19058     -25605.067      4081.3474      18.669336      1.7508163    
     16600   301.35115     -33282.347      4083.2325      18.67796       1.750008     
     16700   306.09829     -28206.129      4085.1177      18.686583      1.7492004    
     16800   290.87116     -35344.272      4087.0028      18.695206      1.7483936    
     16900   293.17274     -30608.53       4088.888       18.703829      1.7475875    
     17000   288.2113      -30508.535      4090.7731      18.712453      1.7467822    
     17100   313.78455     -28575.027      4092.6583      18.721076      1.7459776    
     17200   321.08621     -37048.906      4094.5434      18.729699      1.7451737    
     17300   302.14546     -23912.392      4096.4286      18.738322      1.7443706    
     17400   289.40894     -28811.465      4098.3137      18.746946      1.7435682    
     17500   282.25328     -37476.533      4100.1989      18.755569      1.7427666    
     17600   308.20305     -38248.731      4102.084       18.764192      1.7419657    
     17700   315.95723     -34154.851      4103.9692      18.772815      1.7411655    
     17800   304.45055     -25325.921      4105.8543      18.781439      1.7403661    
     17900   299.03154     -29656.924      4107.7395      18.790062      1.7395674    
     18000   285.90885     -30454.443      4109.6246      18.798685      1.7387694    
     18100   302.7369      -35856.279      4111.5097      18.807308      1.7379722    
     18200   298.7748      -31583.054      4113.3949      18.815932      1.7371757    
     18300   293.73906     -29950.485      4115.28        18.824555      1.7363799    
     18400   295.84932     -27203.751      4117.1652      18.833178      1.7355848    
     18500   303.89217     -29577.625      4119.0503      18.841801      1.7347905    
     18600   314.17267     -33343.921      4120.9355      18.850425      1.7339969    
     18700   320.0938      -38181.002      4122.8206      18.859048      1.7332041    
     18800   291.63297     -33701.789      4124.7058      18.867671      1.7324119    
     18900   284.60997     -38683.75       4126.5909      18.876294      1.7316205    
     19000   290.04425     -32575.057      4128.4761      18.884918      1.7308298    
     19100   318.14298     -43949.723      4130.3612      18.893541      1.7300398    
     19200   285.13366     -38899.585      4132.2464      18.902164      1.7292506    
     19300   300.86233     -36474.656      4134.1315      18.910787      1.7284621    
     19400   301.71458     -32981.303      4136.0167      18.919411      1.7276742    
     19500   283.53286     -39968.757      4137.9018      18.928034      1.7268871    
     19600   285.92822     -30238.481      4139.787       18.936657      1.7261008    
     19700   298.65001     -29577.586      4141.6721      18.94528       1.7253151    
     19800   301.69369     -37473.608      4143.5573      18.953904      1.7245302    
     19900   305.53107     -32239.118      4145.4424      18.962527      1.7237459    
     20000   287.36404     -41522.538      4147.3276      18.97115       1.7229624    
     20100   322.26607     -36375.417      4149.2127      18.979773      1.7221796    
     20200   333.47349     -38925.529      4151.0979      18.988397      1.7213975    
     20300   322.16126     -39242.273      4152.983       18.99702       1.7206161    
     20400   294.77598     -31523.597      4154.8682      19.005643      1.7198354    
     20500   303.39016     -38606.479      4156.7533      19.014266      1.7190555    
     20600   310.46116     -40563.229      4158.6385      19.02289       1.7182762    
     20700   314.02788     -39677.659      4160.5236      19.031513      1.7174976    
     20800   307.28825     -36291.754      4162.4088      19.040136      1.7167198    
     20900   299.00856     -38999.712      4164.2939      19.048759      1.7159426    
     21000   293.5159      -41533.656      4166.1791      19.057382      1.7151662    
     21100   296.43607     -41392.483      4168.0642      19.066006      1.7143904    
     21200   305.1972      -47453.934      4169.9494      19.074629      1.7136154    
     21300   308.11913     -38039.627      4171.8345      19.083252      1.7128411    
     21400   316.10869     -44464.215      4173.7197      19.091876      1.7120674    
     21500   314.9268      -32605.392      4175.6048      19.100499      1.7112945    
     21600   292.18437     -34905.137      4177.49        19.109122      1.7105222    
     21700   310.72463     -39374.673      4179.3751      19.117745      1.7097507    
     21800   310.40709     -32998.015      4181.2603      19.126369      1.7089798    
     21900   307.16595     -45149.87       4183.1454      19.134992      1.7082097    
     22000   298.97717     -45148.752      4185.0306      19.143615      1.7074402    
     22100   286.41469     -33663.809      4186.9157      19.152238      1.7066714    
     22200   293.43138     -39554.435      4188.8009      19.160861      1.7059034    
     22300   302.64903     -39189.381      4190.686       19.169485      1.705136     
     22400   308.04505     -35086.804      4192.5712      19.178108      1.7043693    
     22500   297.9938      -38408.124      4194.4563      19.186731      1.7036033    
     22600   310.10705     -40622.365      4196.3414      19.195355      1.7028379    
     22700   298.11881     -41851.559      4198.2266      19.203978      1.7020733    
     22800   301.24315     -50282.852      4200.1117      19.212601      1.7013094    
     22900   296.4752      -41073.319      4201.9969      19.221224      1.7005461    
     23000   311.03647     -44473.304      4203.882       19.229848      1.6997835    
     23100   319.32484     -41380.711      4205.7672      19.238471      1.6990216    
     23200   306.0831      -42145.786      4207.6523      19.247094      1.6982604    
     23300   299.74905     -33410.233      4209.5375      19.255717      1.6974999    
     23400   281.34926     -41165.522      4211.4226      19.26434       1.6967401    
     23500   310.22926     -39304.027      4213.3078      19.272964      1.6959809    
     23600   298.66895     -47579.705      4215.1929      19.281587      1.6952224    
     23700   327.73241     -49612.506      4217.0781      19.29021       1.6944646    
     23800   325.34628     -37089.72       4218.9632      19.298834      1.6937075    
     23900   285.41646     -38658.452      4220.8484      19.307457      1.692951     
     24000   286.54965     -41463.328      4222.7335      19.31608       1.6921952    
     24100   294.17296     -50786.216      4224.6187      19.324703      1.6914401    
     24200   295.74792     -46330.25       4226.5038      19.333327      1.6906857    
     24300   283.69149     -45843.8        4228.389       19.34195       1.6899319    
     24400   287.10175     -46061.665      4230.2741      19.350573      1.6891788    
     24500   304.69067     -37903.206      4232.1593      19.359196      1.6884264    
     24600   319.43349     -45573.525      4234.0444      19.367819      1.6876747    
     24700   305.39442     -44420.909      4235.9296      19.376443      1.6869236    
     24800   291.03979     -43195.718      4237.8147      19.385066      1.6861732    
     24900   289.79589     -40310.014      4239.6999      19.393689      1.6854234    
     25000   292.88525     -45094.871      4241.585       19.402313      1.6846743    
     25100   301.13088     -43108.101      4243.4702      19.410936      1.6839259    
     25200   313.43902     -38133.508      4245.3553      19.419559      1.6831782    
     25300   310.10274     -32959.412      4247.2405      19.428182      1.6824311    
     25400   267.9515      -46420.675      4249.1256      19.436806      1.6816847    
     25500   288.73024     -48048.456      4251.0108      19.445429      1.6809389    
     25600   289.86955     -50957.949      4252.8959      19.454052      1.6801938    
     25700   312.58234     -47939.206      4254.7811      19.462675      1.6794494    
     25800   299.76659     -44473.54       4256.6662      19.471298      1.6787056    
     25900   291.63174     -49278.609      4258.5514      19.479922      1.6779625    
     26000   298.63061     -40035.714      4260.4365      19.488545      1.67722      
     26100   289.4883      -46856.548      4262.3217      19.497168      1.6764782    
     26200   274.90146     -44232.504      4264.2068      19.505792      1.6757371    
     26300   302.68157     -43841.04       4266.092       19.514415      1.6749966    
     26400   293.72738     -51984.902      4267.9771      19.523038      1.6742567    
     26500   305.99318     -42266.444      4269.8623      19.531661      1.6735176    
     26600   308.02973     -47993.767      4271.7474      19.540285      1.672779     
     26700   285.35482     -51796.777      4273.6326      19.548908      1.6720411    
     26800   309.89939     -49830.515      4275.5177      19.557531      1.6713039    
     26900   333.57997     -53348.711      4277.4029      19.566154      1.6705673    
     27000   320.36242     -40998.292      4279.288       19.574777      1.6698314    
     27100   296.2473      -49213.902      4281.1731      19.583401      1.6690961    
     27200   291.99085     -48148.035      4283.0583      19.592024      1.6683615    
     27300   301.0391      -45883.619      4284.9434      19.600647      1.6676275    
     27400   297.06804     -49733.766      4286.8286      19.609271      1.6668941    
     27500   341.97201     -48807.938      4288.7137      19.617894      1.6661614    
     27600   311.12515     -54325.511      4290.5989      19.626517      1.6654294    
     27700   263.0315      -50358.824      4292.484       19.63514       1.664698     
     27800   299.9455      -50507.579      4294.3692      19.643764      1.6639672    
     27900   298.89765     -45969.309      4296.2543      19.652387      1.6632371    
     28000   309.44309     -54234.004      4298.1395      19.66101       1.6625076    
     28100   315.73705     -46038.564      4300.0246      19.669633      1.6617787    
     28200   303.50851     -44837.702      4301.9098      19.678256      1.6610505    
     28300   302.22225     -50485.469      4303.7949      19.68688       1.6603229    
     28400   297.5614      -58064.421      4305.6801      19.695503      1.659596     
     28500   284.04258     -45233.856      4307.5652      19.704126      1.6588697    
     28600   294.46142     -45059.143      4309.4504      19.71275       1.658144     
     28700   317.12918     -46618.6        4311.3355      19.721373      1.657419     
     28800   325.49067     -46760.109      4313.2207      19.729996      1.6566946    
     28900   330.05319     -49299.722      4315.1058      19.738619      1.6559709    
     29000   287.83713     -47070.477      4316.991       19.747243      1.6552477    
     29100   287.99758     -54532.338      4318.8761      19.755866      1.6545252    
     29200   294.91344     -51022.43       4320.7613      19.764489      1.6538033    
     29300   300.22388     -49721.773      4322.6464      19.773112      1.6530821    
     29400   301.13679     -48838.799      4324.5316      19.781735      1.6523615    
     29500   294.3876      -54703.164      4326.4167      19.790359      1.6516415    
     29600   304.38789     -55920.898      4328.3019      19.798982      1.6509222    
     29700   303.0297      -65227.58       4330.187       19.807605      1.6502034    
     29800   313.76844     -54923.446      4332.0722      19.816229      1.6494853    
     29900   292.75301     -48975.298      4333.9573      19.824852      1.6487678    
     30000   281.21783     -54834.18       4335.8425      19.833475      1.648051     
     30100   305.7243      -53782.718      4337.7276      19.842098      1.6473348    
     30200   308.48352     -50119.77       4339.6128      19.850721      1.6466191    
     30300   279.2578      -51535.344      4341.4979      19.859345      1.6459042    
     30400   289.00117     -49644.061      4343.3831      19.867968      1.6451898    
     30500   306.53546     -57347.468      4345.2682      19.876591      1.644476     
     30600   292.48451     -58162.169      4347.1534      19.885215      1.6437629    
     30700   294.13487     -59142.888      4349.0385      19.893838      1.6430504    
     30800   299.86642     -59436.803      4350.9237      19.902461      1.6423385    
     30900   296.39817     -55673.186      4352.8088      19.911084      1.6416272    
     31000   283.52001     -63752.058      4354.694       19.919708      1.6409166    
     31100   315.68518     -56752.456      4356.5791      19.928331      1.6402065    
     31200   294.9046      -56150.837      4358.4643      19.936954      1.6394971    
     31300   290.10295     -58211.948      4360.3494      19.945577      1.6387883    
     31400   329.22453     -52179.233      4362.2346      19.9542        1.6380801    
     31500   316.675       -55831.466      4364.1197      19.962824      1.6373725    
     31600   296.15435     -58467.327      4366.0048      19.971447      1.6366655    
     31700   292.26152     -61554.338      4367.89        19.98007       1.6359591    
     31800   299.55524     -57069.005      4369.7751      19.988694      1.6352534    
     31900   278.18853     -50621.603      4371.6603      19.997317      1.6345482    
     32000   282.27752     -53559.754      4373.5454      20.00594       1.6338437    
     32100   300.37849     -54013.131      4375.4306      20.014563      1.6331397    
     32200   292.20056     -56954.729      4377.3157      20.023187      1.6324364    
     32300   274.83685     -61398.244      4379.2009      20.03181       1.6317337    
     32400   301.73421     -60095.158      4381.086       20.040433      1.6310315    
     32500   310.21369     -64050.624      4382.9712      20.049056      1.63033      
     32600   303.69768     -58195.18       4384.8563      20.057679      1.6296291    
     32700   302.21038     -57450.885      4386.7415      20.066303      1.6289288    
     32800   292.08877     -57982.005      4388.6266      20.074926      1.6282291    
     32900   304.14411     -63292.21       4390.5118      20.083549      1.62753      
     33000   313.01091     -67670.588      4392.3969      20.092173      1.6268314    
     33100   303.27936     -64483.516      4394.2821      20.100796      1.6261335    
     33200   293.31426     -50308.629      4396.1672      20.109419      1.6254362    
     33300   277.10141     -59287.152      4398.0524      20.118042      1.6247395    
     33400   286.36828     -63022.889      4399.9375      20.126666      1.6240434    
     33500   298.72513     -67559.047      4401.8227      20.135289      1.6233479    
     33600   310.07006     -60673.823      4403.7078      20.143912      1.6226529    
     33700   310.19979     -56423.919      4405.593       20.152535      1.6219586    
     33800   299.8365      -61934.225      4407.4781      20.161158      1.6212649    
     33900   304.12132     -59764.22       4409.3633      20.169782      1.6205717    
     34000   289.80387     -60604.42       4411.2484      20.178405      1.6198792    
     34100   302.0522      -58070.316      4413.1336      20.187028      1.6191872    
     34200   306.57021     -59269.394      4415.0187      20.195652      1.6184958    
     34300   314.3055      -60528.07       4416.9039      20.204275      1.6178051    
     34400   292.52162     -58578.944      4418.789       20.212898      1.6171149    
     34500   282.78722     -61752.265      4420.6742      20.221521      1.6164253    
     34600   286.7448      -61070.18       4422.5593      20.230145      1.6157363    
     34700   286.09469     -67688.104      4424.4445      20.238768      1.6150478    
     34800   313.08092     -65177.318      4426.3296      20.247391      1.61436      
     34900   293.3464      -57718.267      4428.2148      20.256014      1.6136727    
     35000   298.34233     -60094.49       4430.0999      20.264637      1.6129861    
     35100   294.17965     -66537.79       4431.9851      20.273261      1.6123       
     35200   298.41864     -58097.814      4433.8702      20.281884      1.6116145    
     35300   283.89783     -67553.152      4435.7554      20.290507      1.6109296    
     35400   294.59688     -64057.875      4437.6405      20.299131      1.6102452    
     35500   321.27191     -55307.646      4439.5257      20.307754      1.6095615    
     35600   328.41113     -57850.958      4441.4108      20.316377      1.6088783    
     35700   313.85722     -63240.236      4443.296       20.325         1.6081957    
     35800   293.23767     -65917.67       4445.1811      20.333624      1.6075137    
     35900   288.74263     -71208.004      4447.0663      20.342247      1.6068322    
     36000   312.01991     -62753.986      4448.9514      20.35087       1.6061514    
     36100   291.01347     -63296.522      4450.8366      20.359493      1.6054711    
     36200   289.89754     -61600.023      4452.7217      20.368116      1.6047914    
     36300   303.65125     -63223.636      4454.6068      20.37674       1.6041123    
     36400   302.29651     -69614.188      4456.492       20.385363      1.6034337    
     36500   290.79193     -63845.306      4458.3771      20.393986      1.6027557    
     36600   305.59001     -62055.493      4460.2623      20.40261       1.6020783    
     36700   283.0179      -60693.128      4462.1474      20.411233      1.6014015    
     36800   276.99124     -59590.034      4464.0326      20.419856      1.6007252    
     36900   309.85287     -62539.89       4465.9177      20.428479      1.6000495    
     37000   321.83958     -58342.976      4467.8029      20.437103      1.5993744    
     37100   294.33577     -61272.712      4469.688       20.445726      1.5986998    
     37200   303.67976     -75219.22       4471.5732      20.454349      1.5980258    
     37300   293.9522      -69414.987      4473.4583      20.462972      1.5973524    
     37400   292.70204     -70536.67       4475.3435      20.471595      1.5966796    
     37500   306.08155     -65850.007      4477.2286      20.480219      1.5960073    
     37600   297.58384     -53575.609      4479.1138      20.488842      1.5953356    
     37700   313.33805     -65754.484      4480.9989      20.497465      1.5946644    
     37800   296.60506     -69580.068      4482.8841      20.506089      1.5939938    
     37900   278.58028     -70487.638      4484.7692      20.514712      1.5933238    
     38000   297.09541     -68470.464      4486.6544      20.523335      1.5926543    
     38100   328.54465     -62283.153      4488.5395      20.531958      1.5919854    
     38200   329.83928     -67684.168      4490.4247      20.540582      1.5913171    
     38300   312.6797      -57177.082      4492.3098      20.549205      1.5906493    
     38400   306.06691     -66830.602      4494.195       20.557828      1.5899821    
     38500   287.12538     -66790.42       4496.0801      20.566451      1.5893154    
     38600   307.84147     -73694.148      4497.9653      20.575074      1.5886493    
     38700   316.92729     -69129.282      4499.8504      20.583698      1.5879838    
     38800   311.05251     -66081.453      4501.7356      20.592321      1.5873188    
     38900   302.25121     -68869.314      4503.6207      20.600944      1.5866544    
     39000   313.62099     -67758.367      4505.5059      20.609568      1.5859905    
     39100   293.34067     -69305.216      4507.391       20.618191      1.5853272    
     39200   297.41409     -75651.101      4509.2762      20.626814      1.5846644    
     39300   296.83211     -69607.506      4511.1613      20.635437      1.5840022    
     39400   309.16859     -70751.738      4513.0465      20.644061      1.5833405    
     39500   291.66061     -66810.655      4514.9316      20.652684      1.5826794    
     39600   293.12085     -72766.269      4516.8168      20.661307      1.5820189    
     39700   310.19011     -76954.276      4518.7019      20.66993       1.5813589    
     39800   299.64128     -70967.711      4520.5871      20.678553      1.5806994    
     39900   305.20681     -68722.589      4522.4722      20.687177      1.5800405    
     40000   278.70463     -66549.007      4524.3574      20.6958        1.5793822    
     40100   295.60662     -72640.655      4526.2425      20.704423      1.5787244    
     40200   314.1241      -77382.486      4528.1277      20.713047      1.5780671    
     40300   304.26544     -82883.691      4530.0128      20.72167       1.5774104    
     40400   326.01913     -81183.23       4531.898       20.730293      1.5767543    
     40500   292.52958     -64541.829      4533.7831      20.738916      1.5760987    
     40600   278.44515     -74880.388      4535.6683      20.74754       1.5754436    
     40700   296.53091     -73984.912      4537.5534      20.756163      1.5747891    
     40800   308.14761     -67451.218      4539.4385      20.764786      1.5741351    
     40900   310.80167     -81314.634      4541.3237      20.773409      1.5734816    
     41000   311.48313     -69872.774      4543.2088      20.782032      1.5728287    
     41100   302.03136     -79967.769      4545.094       20.790656      1.5721764    
     41200   282.63711     -75268.629      4546.9791      20.799279      1.5715246    
     41300   300.49791     -71432.992      4548.8643      20.807902      1.5708733    
     41400   318.40875     -70762.786      4550.7494      20.816526      1.5702226    
     41500   299.30921     -76771.574      4552.6346      20.825149      1.5695724    
     41600   298.04908     -76697.854      4554.5197      20.833772      1.5689227    
     41700   296.92788     -66388.054      4556.4049      20.842395      1.5682736    
     41800   294.30932     -71373.988      4558.29        20.851019      1.567625     
     41900   301.72299     -67251.232      4560.1752      20.859642      1.566977     
     42000   311.98846     -84411.474      4562.0603      20.868265      1.5663295    
     42100   321.86993     -73848.927      4563.9455      20.876888      1.5656825    
     42200   304.81663     -68603.051      4565.8306      20.885511      1.565036     
     42300   295.43695     -75186.213      4567.7158      20.894135      1.5643901    
     42400   294.53356     -73279.496      4569.6009      20.902758      1.5637448    
     42500   284.82052     -75816.353      4571.4861      20.911381      1.5630999    
     42600   303.04868     -79614.048      4573.3712      20.920005      1.5624556    
     42700   283.47368     -84409.047      4575.2564      20.928628      1.5618118    
     42800   280.41186     -76217.296      4577.1415      20.937251      1.5611686    
     42900   300.14975     -69051.496      4579.0267      20.945874      1.5605258    
     43000   303.44469     -74285.103      4580.9118      20.954498      1.5598837    
     43100   292.90993     -80348.778      4582.797       20.963121      1.559242     
     43200   306.17234     -80959.245      4584.6821      20.971744      1.5586009    
     43300   311.81289     -81351.015      4586.5673      20.980367      1.5579602    
     43400   280.07354     -73449.352      4588.4524      20.98899       1.5573202    
     43500   295.18471     -83539.918      4590.3376      20.997614      1.5566806    
     43600   307.71524     -82276.43       4592.2227      21.006237      1.5560416    
     43700   296.68258     -76318.272      4594.1079      21.01486       1.5554031    
     43800   302.2715      -82538.18       4595.993       21.023484      1.5547651    
     43900   318.09575     -74660.346      4597.8782      21.032107      1.5541276    
     44000   304.79599     -82685.394      4599.7633      21.04073       1.5534907    
     44100   300.62524     -80351.657      4601.6485      21.049353      1.5528543    
     44200   287.1946      -76522.887      4603.5336      21.057977      1.5522184    
     44300   298.99905     -74511.157      4605.4188      21.0666        1.551583     
     44400   325.19264     -82206.994      4607.3039      21.075223      1.5509481    
     44500   332.07067     -81650.505      4609.1891      21.083846      1.5503138    
     44600   304.30781     -76677.202      4611.0742      21.092469      1.54968      
     44700   293.22116     -79699.426      4612.9594      21.101093      1.5490467    
     44800   296.39047     -80485.594      4614.8445      21.109716      1.5484139    
     44900   315.3874      -75740.687      4616.7297      21.118339      1.5477817    
     45000   318.13517     -71919.74       4618.6148      21.126963      1.5471499    
     45100   293.21325     -76127.849      4620.5         21.135586      1.5465187    
     45200   304.23023     -75062.087      4622.3851      21.144209      1.545888     
     45300   311.27993     -72911.525      4624.2702      21.152832      1.5452578    
     45400   287.46034     -58607.932      4626.1554      21.161456      1.5446281    
     45500   291.27264     -75300.094      4628.0405      21.170079      1.5439989    
     45600   332.96517     -73819.648      4629.9257      21.178702      1.5433702    
     45700   324.3016      -72949.963      4631.8108      21.187325      1.5427421    
     45800   341.92209     -75481.115      4633.696       21.195949      1.5421144    
     45900   349.88776     -62238.475      4635.5811      21.204572      1.5414873    
     46000   323.62396     -62179.616      4637.4663      21.213195      1.5408607    
     46100   294.85512     -65272.742      4639.3514      21.221818      1.5402346    
     46200   294.705       -65729.632      4641.2366      21.230442      1.539609     
     46300   318.64768     -57197.835      4643.1217      21.239065      1.5389839    
     46400   310.81314     -59786.737      4645.0069      21.247688      1.5383593    
     46500   290.8176      -58147.339      4646.892       21.256311      1.5377352    
     46600   299.13774     -58962.392      4648.7772      21.264935      1.5371116    
     46700   280.06362     -53665.284      4650.6623      21.273558      1.5364886    
     46800   310.23478     -64138.942      4652.5475      21.282181      1.535866     
     46900   306.55427     -70791.452      4654.4326      21.290804      1.5352439    
     47000   312.14769     -66001.542      4656.3178      21.299428      1.5346224    
     47100   299.82916     -57205.675      4658.2029      21.308051      1.5340013    
     47200   286.86716     -70417.45       4660.0881      21.316674      1.5333808    
     47300   300.15857     -63018.015      4661.9732      21.325297      1.5327607    
     47400   303.08071     -62948.76       4663.8584      21.333921      1.5321412    
     47500   291.46439     -63803.52       4665.7435      21.342544      1.5315221    
     47600   316.43658     -64546.763      4667.6287      21.351167      1.5309036    
     47700   312.34279     -67049.136      4669.5138      21.35979       1.5302855    
     47800   295.20781     -67839.839      4671.399       21.368414      1.529668     
     47900   286.03953     -70673.83       4673.2841      21.377037      1.5290509    
     48000   297.09686     -64730.975      4675.1693      21.38566       1.5284344    
     48100   304.31494     -71597.613      4677.0544      21.394283      1.5278183    
     48200   306.60271     -58500.644      4678.9396      21.402907      1.5272028    
     48300   357.27559     -63668.505      4680.8247      21.41153       1.5265877    
     48400   322.78889     -53715.485      4682.7099      21.420153      1.5259731    
     48500   284.29494     -47482.76       4684.595       21.428776      1.5253591    
     48600   298.77949     -43649.084      4686.4802      21.4374        1.5247455    
     48700   309.96335     -58817.812      4688.3653      21.446023      1.5241324    
     48800   299.34781     -45993.938      4690.2505      21.454646      1.5235198    
     48900   296.32143     -47720.24       4692.1356      21.463269      1.5229077    
     49000   294.28629     -46467.249      4694.0208      21.471893      1.5222961    
     49100   283.78999     -44958.816      4695.9059      21.480516      1.521685     
     49200   296.94481     -40896.756      4697.7911      21.489139      1.5210743    
     49300   321.41985     -51803.95       4699.6762      21.497762      1.5204642    
     49400   289.5093      -54405.332      4701.5614      21.506386      1.5198546    
     49500   300.45852     -50936.364      4703.4465      21.515009      1.5192454    
     49600   303.70138     -59905.405      4705.3317      21.523632      1.5186367    
     49700   276.11803     -47990.984      4707.2168      21.532255      1.5180285    
     49800   277.8335      -44652.584      4709.1019      21.540879      1.5174208    
     49900   301.17734     -45770.955      4710.9871      21.549502      1.5168136    
     50000   294.09265     -46167.353      4712.8722      21.558125      1.5162069    
     50100   296.53086     -49779.287      4714.7574      21.566748      1.5156007    
     50200   297.10128     -52848.507      4716.6425      21.575372      1.5149949    
     50300   290.21829     -45508.752      4718.5277      21.583995      1.5143896    
     50400   289.65025     -46121.837      4720.4128      21.592618      1.5137849    
     50500   284.61775     -44894.473      4722.298       21.601241      1.5131805    
     50600   302.33163     -54189.76       4724.1831      21.609865      1.5125767    
     50700   311.94937     -52779.021      4726.0683      21.618488      1.5119734    
     50800   303.93204     -52730.164      4727.9534      21.627111      1.5113705    
     50900   290.20761     -48776.194      4729.8386      21.635734      1.5107681    
     51000   296.43286     -43139.84       4731.7237      21.644358      1.5101662    
     51100   305.44711     -48029.468      4733.6089      21.652981      1.5095648    
     51200   297.31525     -49632.409      4735.494       21.661604      1.5089639    
     51300   305.74615     -50686.555      4737.3792      21.670227      1.5083634    
     51400   316.17225     -53092.164      4739.2643      21.678851      1.5077634    
     51500   322.04711     -48624.647      4741.1495      21.687474      1.5071639    
     51600   295.3215      -50652.121      4743.0346      21.696097      1.5065649    
     51700   293.06687     -50978.144      4744.9198      21.70472       1.5059663    
     51800   313.1539      -46401.282      4746.8049      21.713344      1.5053683    
     51900   298.14898     -46338.21       4748.6901      21.721967      1.5047707    
     52000   292.51755     -58258.36       4750.5752      21.73059       1.5041735    
     52100   310.9901      -57329.87       4752.4604      21.739213      1.5035769    
     52200   297.32504     -60105.416      4754.3455      21.747837      1.5029807    
     52300   284.88423     -52500.286      4756.2307      21.75646       1.502385     
     52400   279.69049     -53717.193      4758.1158      21.765083      1.5017897    
     52500   295.76567     -47111.657      4760.001       21.773706      1.501195     
     52600   276.99542     -56465.404      4761.8861      21.78233       1.5006007    
     52700   319.02007     -45290.112      4763.7713      21.790953      1.5000068    
     52800   323.25873     -46808.757      4765.6564      21.799576      1.4994135    
     52900   312.675       -51231.853      4767.5416      21.808199      1.4988206    
     53000   285.71569     -49786.489      4769.4267      21.816823      1.4982282    
     53100   309.5777      -51230.369      4771.3119      21.825446      1.4976362    
     53200   303.13858     -60230.002      4773.197       21.834069      1.4970447    
     53300   306.65033     -48909.764      4775.0822      21.842692      1.4964537    
     53400   298.96653     -49040.512      4776.9673      21.851316      1.4958632    
     53500   291.95313     -56300.182      4778.8525      21.859939      1.4952731    
     53600   300.18346     -51568.301      4780.7376      21.868562      1.4946835    
     53700   285.23604     -51162.225      4782.6228      21.877185      1.4940943    
     53800   267.18275     -48133.747      4784.5079      21.885808      1.4935056    
     53900   275.58964     -45517.605      4786.3931      21.894432      1.4929174    
     54000   286.6769      -48305.995      4788.2782      21.903055      1.4923296    
     54100   307.74539     -49614.159      4790.1634      21.911678      1.4917423    
     54200   315.7156      -56016.481      4792.0485      21.920302      1.4911555    
     54300   309.4672      -51490.591      4793.9336      21.928925      1.4905691    
     54400   281.11533     -50967.395      4795.8188      21.937548      1.4899832    
     54500   308.69864     -42370.577      4797.7039      21.946171      1.4893978    
     54600   310.86164     -49500.017      4799.5891      21.954795      1.4888128    
     54700   282.79945     -54431.168      4801.4742      21.963418      1.4882282    
     54800   286.01833     -50654.631      4803.3594      21.972041      1.4876441    
     54900   295.63754     -50517.887      4805.2445      21.980664      1.4870605    
     55000   323.40318     -52715.701      4807.1297      21.989287      1.4864774    
     55100   294.69829     -52374.832      4809.0148      21.997911      1.4858947    
     55200   289.39365     -52861.893      4810.9         22.006534      1.4853124    
     55300   293.40305     -53986.974      4812.7851      22.015157      1.4847306    
     55400   308.43898     -52127.908      4814.6703      22.023781      1.4841493    
     55500   309.35148     -48699.833      4816.5554      22.032404      1.4835684    
     55600   318.22857     -48677.864      4818.4406      22.041027      1.482988     
     55700   299.89821     -52836.67       4820.3257      22.04965       1.482408     
     55800   297.3685      -59913.711      4822.2109      22.058274      1.4818285    
     55900   298.52209     -49156.265      4824.096       22.066897      1.4812494    
     56000   292.63693     -51546.439      4825.9812      22.07552       1.4806708    
     56100   300.48206     -52600.193      4827.8663      22.084143      1.4800926    
     56200   319.84854     -54652.169      4829.7515      22.092766      1.4795149    
     56300   311.87407     -51197.605      4831.6366      22.10139       1.4789377    
     56400   309.87267     -51155.029      4833.5218      22.110013      1.4783609    
     56500   276.61881     -56313.198      4835.4069      22.118636      1.4777845    
     56600   306.00892     -59934.836      4837.2921      22.12726       1.4772086    
     56700   318.63362     -54082.05       4839.1772      22.135883      1.4766331    
     56800   308.99594     -51736.831      4841.0624      22.144506      1.4760581    
     56900   287.93655     -60517.689      4842.9475      22.153129      1.4754836    
     57000   288.48557     -53481.569      4844.8327      22.161752      1.4749094    
     57100   276.34966     -65044.312      4846.7178      22.170376      1.4743358    
     57200   289.58047     -62062.643      4848.603       22.178999      1.4737625    
     57300   306.15479     -52501.115      4850.4881      22.187622      1.4731898    
     57400   306.22845     -48397.314      4852.3733      22.196245      1.4726174    
     57500   295.07544     -62296.355      4854.2584      22.204869      1.4720455    
     57600   285.13457     -67705.798      4856.1436      22.213492      1.4714741    
     57700   281.19866     -53201.031      4858.0287      22.222115      1.4709031    
     57800   293.8418      -55124.269      4859.9139      22.230739      1.4703325    
     57900   335.68013     -50586.732      4861.799       22.239362      1.4697624    
     58000   296.82959     -53525.201      4863.6842      22.247985      1.4691927    
     58100   292.93138     -56869.908      4865.5693      22.256608      1.4686235    
     58200   295.60057     -58237.684      4867.4545      22.265231      1.4680547    
     58300   286.55411     -49509.083      4869.3396      22.273855      1.4674864    
     58400   292.03919     -52075.828      4871.2248      22.282478      1.4669185    
     58500   316.55414     -56259.596      4873.1099      22.291101      1.466351     
     58600   324.35749     -56471.468      4874.9951      22.299724      1.4657839    
     58700   302.96228     -57319.137      4876.8802      22.308348      1.4652173    
     58800   299.55607     -57094.338      4878.7654      22.316971      1.4646512    
     58900   286.0479      -47901.699      4880.6505      22.325594      1.4640855    
     59000   310.99633     -48682.504      4882.5356      22.334218      1.4635202    
     59100   305.5424      -61051.723      4884.4208      22.342841      1.4629553    
     59200   333.26605     -53200.788      4886.3059      22.351464      1.4623909    
     59300   302.63953     -56429.638      4888.1911      22.360087      1.4618269    
     59400   299.02383     -50657.004      4890.0762      22.36871       1.4612634    
     59500   311.26131     -57152.989      4891.9614      22.377334      1.4607003    
     59600   321.50166     -58524.17       4893.8465      22.385957      1.4601376    
     59700   286.64348     -54263.519      4895.7317      22.39458       1.4595754    
     59800   272.71223     -63455.624      4897.6168      22.403204      1.4590136    
     59900   308.16163     -53205.5        4899.502       22.411827      1.4584522    
     60000   292.81688     -56844.488      4901.3871      22.42045       1.4578913    
     60100   293.55097     -64523.582      4903.2723      22.429073      1.4573307    
     60200   313.53038     -55685.709      4905.1574      22.437697      1.4567707    
     60300   293.5792      -48218.356      4907.0426      22.44632       1.456211     
     60400   323.11794     -52799.879      4908.9277      22.454943      1.4556518    
     60500   288.46087     -58941.97       4910.8129      22.463566      1.455093     
     60600   296.0453      -58656.861      4912.698       22.472189      1.4545346    
     60700   288.14913     -46821.201      4914.5832      22.480813      1.4539767    
     60800   295.61258     -53610.712      4916.4683      22.489436      1.4534192    
     60900   291.53441     -58086.19       4918.3535      22.498059      1.4528621    
     61000   316.36024     -44559.126      4920.2386      22.506683      1.4523055    
     61100   301.66947     -52795.966      4922.1238      22.515306      1.4517492    
     61200   297.97098     -50501.721      4924.0089      22.523929      1.4511934    
     61300   303.53646     -54974.254      4925.8941      22.532552      1.4506381    
     61400   303.62746     -56695.745      4927.7792      22.541176      1.4500831    
     61500   305.61508     -58246.178      4929.6644      22.549799      1.4495286    
     61600   274.95808     -59630.649      4931.5495      22.558422      1.4489745    
     61700   277.22448     -63175.081      4933.4347      22.567045      1.4484208    
     61800   294.60771     -61532.974      4935.3198      22.575668      1.4478676    
     61900   322.08757     -54974.575      4937.205       22.584292      1.4473147    
     62000   302.02362     -58588.504      4939.0901      22.592915      1.4467623    
     62100   281.5815      -57772.728      4940.9753      22.601538      1.4462103    
     62200   301.98663     -62806.457      4942.8604      22.610162      1.4456588    
     62300   326.56473     -58153.779      4944.7456      22.618785      1.4451076    
     62400   313.69024     -62931.983      4946.6307      22.627408      1.4445569    
     62500   328.80016     -56069.027      4948.5159      22.636031      1.4440066    
     62600   316.40718     -54976.064      4950.401       22.644655      1.4434567    
     62700   311.37594     -55376.102      4952.2862      22.653278      1.4429072    
     62800   298.13474     -64105.421      4954.1713      22.661901      1.4423582    
     62900   283.54591     -45731.341      4956.0565      22.670524      1.4418095    
     63000   301.50976     -54747.956      4957.9416      22.679147      1.4412613    
     63100   297.22295     -56361.132      4959.8268      22.687771      1.4407135    
     63200   321.39017     -62549.867      4961.7119      22.696394      1.4401661    
     63300   301.64768     -58180.899      4963.5971      22.705017      1.4396192    
     63400   285.60894     -46450.676      4965.4822      22.713641      1.4390726    
     63500   294.61223     -53746.746      4967.3673      22.722264      1.4385265    
     63600   294.36019     -61590.39       4969.2525      22.730887      1.4379808    
     63700   294.89476     -63350.456      4971.1376      22.73951       1.4374354    
     63800   302.68333     -49596.54       4973.0228      22.748134      1.4368906    
     63900   283.253       -53013.487      4974.9079      22.756757      1.4363461    
     64000   288.61097     -60344.247      4976.7931      22.76538       1.435802     
     64100   290.87606     -64251.542      4978.6782      22.774003      1.4352583    
     64200   326.43554     -57508.7        4980.5634      22.782626      1.4347151    
     64300   299.58708     -61304.464      4982.4485      22.79125       1.4341723    
     64400   292.73939     -50276.705      4984.3337      22.799873      1.4336298    
     64500   278.68062     -64676.52       4986.2188      22.808496      1.4330878    
     64600   283.13718     -58550.934      4988.104       22.81712       1.4325462    
     64700   295.00444     -55041.662      4989.9891      22.825743      1.432005     
     64800   315.30625     -56264.088      4991.8743      22.834366      1.4314642    
     64900   302.56282     -54465.997      4993.7594      22.842989      1.4309238    
     65000   295.67108     -57338.854      4995.6446      22.851613      1.4303839    
     65100   296.51625     -63967.883      4997.5297      22.860236      1.4298443    
     65200   309.66414     -58536.094      4999.4149      22.868859      1.4293052    
     65300   288.29512     -58483.71       5001.3         22.877482      1.4287664    
     65400   292.01958     -56010.647      5003.1852      22.886105      1.4282281    
     65500   310.01928     -54617.157      5005.0703      22.894729      1.4276901    
     65600   302.31459     -61698.383      5006.9555      22.903352      1.4271526    
     65700   278.21742     -53123.995      5008.8406      22.911975      1.4266155    
     65800   300.10854     -51691.136      5010.7258      22.920599      1.4260787    
     65900   283.08891     -49458.435      5012.6109      22.929222      1.4255424    
     66000   306.91945     -60520.87       5014.4961      22.937845      1.4250065    
     66100   331.90029     -62882.565      5016.3812      22.946468      1.424471     
     66200   296.94875     -54321.032      5018.2664      22.955092      1.4239359    
     66300   275.20224     -61541.321      5020.1515      22.963715      1.4234012    
     66400   302.40228     -63220.469      5022.0367      22.972338      1.4228668    
     66500   297.38309     -56665.3        5023.9218      22.980961      1.4223329    
     66600   318.79898     -59348.892      5025.807       22.989584      1.4217994    
     66700   289.80777     -54563.165      5027.6921      22.998208      1.4212663    
     66800   302.21807     -57024.495      5029.5773      23.006831      1.4207336    
     66900   284.48277     -59422.609      5031.4624      23.015454      1.4202013    
     67000   288.61013     -58943.324      5033.3476      23.024078      1.4196694    
     67100   288.61434     -57262.133      5035.2327      23.032701      1.4191379    
     67200   307.33385     -55693.438      5037.1179      23.041324      1.4186068    
     67300   310.97481     -50392.599      5039.003       23.049947      1.418076     
     67400   294.09981     -58401.499      5040.8882      23.058571      1.4175457    
     67500   309.80228     -59069.624      5042.7733      23.067194      1.4170158    
     67600   305.81964     -63814.462      5044.6585      23.075817      1.4164863    
     67700   285.02668     -57546.722      5046.5436      23.08444       1.4159571    
     67800   302.61731     -54706.025      5048.4288      23.093063      1.4154284    
     67900   319.59832     -58045.1        5050.3139      23.101687      1.4149001    
     68000   316.61213     -58373.478      5052.199       23.11031       1.4143721    
     68100   283.22755     -57754.966      5054.0842      23.118933      1.4138446    
     68200   304.45018     -57083.306      5055.9693      23.127557      1.4133174    
     68300   299.4347      -61568.033      5057.8545      23.13618       1.4127906    
     68400   285.88434     -54092.092      5059.7396      23.144803      1.4122643    
     68500   277.59893     -54829.789      5061.6248      23.153426      1.4117383    
     68600   291.95794     -45586.024      5063.5099      23.16205       1.4112127    
     68700   315.79552     -54801.7        5065.3951      23.170673      1.4106875    
     68800   299.98496     -64225.795      5067.2802      23.179296      1.4101627    
     68900   303.19529     -55575.008      5069.1654      23.187919      1.4096383    
     69000   295.35315     -61036.852      5071.0505      23.196542      1.4091142    
     69100   280.48213     -55195.546      5072.9357      23.205166      1.4085906    
     69200   297.53585     -63775.771      5074.8208      23.213789      1.4080673    
     69300   306.40609     -56122.381      5076.706       23.222412      1.4075445    
     69400   297.75888     -62928.45       5078.5911      23.231036      1.407022     
     69500   292.68663     -62881.95       5080.4763      23.239659      1.4064999    
     69600   284.72457     -50710.379      5082.3614      23.248282      1.4059782    
     69700   294.77623     -58667.5        5084.2466      23.256905      1.4054569    
     69800   308.20248     -63119.967      5086.1317      23.265529      1.404936     
     69900   300.89637     -52605.546      5088.0169      23.274152      1.4044154    
     70000   295.16908     -61241.82       5089.902       23.282775      1.4038953    
     70100   321.57101     -59959.114      5091.7872      23.291398      1.4033755    
     70200   308.28904     -57311.038      5093.6723      23.300021      1.4028561    
     70300   299.34485     -58090.459      5095.5575      23.308645      1.4023371    
     70400   282.03468     -56331.115      5097.4426      23.317268      1.4018185    
     70500   291.05568     -60721.299      5099.3278      23.325891      1.4013003    
     70600   306.03785     -64488.641      5101.2129      23.334515      1.4007824    
     70700   290.5959      -55704.594      5103.0981      23.343138      1.400265     
     70800   316.52446     -66718.363      5104.9832      23.351761      1.3997479    
     70900   292.26353     -59739.065      5106.8684      23.360384      1.3992312    
     71000   291.25411     -57974.951      5108.7535      23.369008      1.3987149    
     71100   293.21178     -66536.622      5110.6387      23.377631      1.3981989    
     71200   303.37356     -68616.313      5112.5238      23.386254      1.3976834    
     71300   326.13006     -56762.641      5114.409       23.394877      1.3971682    
     71400   281.55518     -60045.497      5116.2941      23.4035        1.3966534    
     71500   280.8322      -57342.59       5118.1793      23.412124      1.396139     
     71600   292.53091     -61995.357      5120.0644      23.420747      1.3956249    
     71700   311.23848     -70662.732      5121.9496      23.42937       1.3951113    
     71800   296.57566     -60391.371      5123.8347      23.437994      1.394598     
     71900   282.82505     -59485.993      5125.7199      23.446617      1.3940851    
     72000   301.62981     -62947.977      5127.605       23.45524       1.3935725    
     72100   320.09993     -52532.798      5129.4902      23.463863      1.3930604    
     72200   310.87023     -62583.61       5131.3753      23.472487      1.3925486    
     72300   301.73746     -57501.107      5133.2605      23.48111       1.3920372    
     72400   318.92185     -58406.201      5135.1456      23.489733      1.3915262    
     72500   304.92671     -57613.091      5137.0307      23.498356      1.3910155    
     72600   285.50692     -61282.869      5138.9159      23.506979      1.3905052    
     72700   305.97956     -59490.751      5140.801       23.515603      1.3899953    
     72800   300.19792     -62578.931      5142.6862      23.524226      1.3894858    
     72900   318.84953     -66952.484      5144.5713      23.532849      1.3889766    
     73000   313.21963     -61933.687      5146.4565      23.541473      1.3884679    
     73100   285.37626     -63448.915      5148.3416      23.550096      1.3879595    
     73200   303.13242     -61106.798      5150.2268      23.558719      1.3874514    
     73300   307.25783     -67930.964      5152.1119      23.567342      1.3869438    
     73400   294.48285     -66573.565      5153.9971      23.575966      1.3864365    
     73500   291.39902     -67180.791      5155.8822      23.584589      1.3859295    
     73600   289.21713     -59257.191      5157.7674      23.593212      1.385423     
     73700   286.24315     -68467.667      5159.6525      23.601835      1.3849168    
     73800   298.38698     -60239.258      5161.5377      23.610459      1.384411     
     73900   323.66245     -72489.23       5163.4228      23.619082      1.3839055    
     74000   302.269       -65231.294      5165.308       23.627705      1.3834005    
     74100   291.53394     -57648.336      5167.1931      23.636328      1.3828958    
     74200   292.46787     -59153.41       5169.0783      23.644952      1.3823914    
     74300   300.49509     -60872.065      5170.9634      23.653575      1.3818875    
     74400   286.50135     -64474.955      5172.8486      23.662198      1.3813838    
     74500   301.47722     -66848.901      5174.7337      23.670821      1.3808806    
     74600   303.18565     -62244.762      5176.6189      23.679445      1.3803777    
     74700   282.30759     -64679.832      5178.504       23.688068      1.3798752    
     74800   276.10778     -65525.123      5180.3892      23.696691      1.3793731    
[...]
     98700   299.31832     -14190.928      5630.9398      25.757648      1.2690048    
     98800   307.86748     -22399.481      5632.8249      25.766271      1.2685801    
     98900   304.31843     -28459.922      5634.7101      25.774894      1.2681557    
     99000   289.27688     -28242.97       5636.5952      25.783518      1.2677315    
     99100   291.46937     -20266.101      5638.4804      25.792141      1.2673077    
     99200   315.94001     -23911.535      5640.3655      25.800764      1.2668841    
     99300   295.5447      -24950.038      5642.2507      25.809387      1.2664608    
     99400   292.94929     -20115.149      5644.1358      25.81801       1.2660378    
     99500   317.38193     -24789.592      5646.021       25.826634      1.2656151    
     99600   300.78251     -23163.569      5647.9061      25.835257      1.2651927    
     99700   291.32138     -26753.317      5649.7912      25.84388       1.2647705    
     99800   280.29771     -21572.697      5651.6764      25.852504      1.2643487    
     99900   319.54492     -18249.014      5653.5615      25.861127      1.2639271    
    100000   286.08319     -26073.382      5655.4467      25.86975       1.2635058    
    100100   329.79965     -18244          5657.3318      25.878373      1.2630847    
    100200   321.92297     -28101.275      5659.217       25.886997      1.262664     
    100300   307.54847     -27950.992      5661.1021      25.89562       1.2622435    
    100400   311.72402     -27907.315      5662.9873      25.904243      1.2618233    
    100500   296.62863     -22201.943      5664.8724      25.912866      1.2614034    
    100600   298.89148     -23217.439      5666.7576      25.921489      1.2609838    
    100700   293.07749     -28681.83       5668.6427      25.930113      1.2605644    
    100800   305.28196     -24231.596      5670.5279      25.938736      1.2601454    
    100900   303.05945     -22337.116      5672.413       25.947359      1.2597266    
    101000   301.37031     -21185.569      5674.2982      25.955983      1.2593081    
    101100   288.75259     -23735.841      5676.1833      25.964606      1.2588898    
    101200   292.02805     -28234.963      5678.0685      25.973229      1.2584719    
    101300   321.036       -22419.673      5679.9536      25.981852      1.2580542    
    101400   284.69221     -25250.179      5681.8388      25.990476      1.2576368    
    101500   293.42159     -31946.215      5683.7239      25.999099      1.2572197    
    101600   303.65125     -27100.239      5685.6091      26.007722      1.2568028    
    101700   307.85543     -23992.819      5687.4942      26.016345      1.2563862    
    101800   283.04845     -24120.381      5689.3794      26.024968      1.2559699    
    101900   297.25141     -22845.539      5691.2645      26.033592      1.2555539    
    102000   293.13348     -27734.684      5693.1497      26.042215      1.2551382    
    102100   299.97667     -27188.449      5695.0348      26.050838      1.2547227    
    102200   314.86465     -23530.703      5696.92        26.059462      1.2543075    
    102300   324.77684     -21052.853      5698.8051      26.068085      1.2538926    
    102400   284.68096     -22587.269      5700.6903      26.076708      1.2534779    
    102500   291.47819     -25440.327      5702.5754      26.085331      1.2530636    
    102600   296.75939     -26325.862      5704.4606      26.093955      1.2526495    
    102700   306.64166     -20797.375      5706.3457      26.102578      1.2522356    
    102800   296.81541     -27301.665      5708.2309      26.111201      1.2518221    
    102900   296.26496     -15848.204      5710.116       26.119824      1.2514088    
    103000   298.42101     -22559.287      5712.0012      26.128448      1.2509958    
    103100   293.85668     -33406.008      5713.8863      26.137071      1.2505831    
    103200   314.38413     -24192.107      5715.7715      26.145694      1.2501706    
    103300   311.91147     -23376.768      5717.6566      26.154317      1.2497584    
    103400   272.05398     -24515.531      5719.5418      26.162941      1.2493465    
    103500   297.71958     -24015.02       5721.4269      26.171564      1.2489349    
    103600   306.80201     -29707.981      5723.3121      26.180187      1.2485235    
    103700   310.53201     -23299.894      5725.1972      26.18881       1.2481124    
    103800   326.22108     -28389.362      5727.0824      26.197434      1.2477015    
    103900   299.8622      -23108.25       5728.9675      26.206057      1.247291     
    104000   286.80169     -22486.485      5730.8527      26.21468       1.2468807    
    104100   301.69017     -25511.21       5732.7378      26.223303      1.2464707    
    104200   291.11856     -23090.691      5734.623       26.231927      1.2460609    
    104300   305.20567     -25412.645      5736.5081      26.24055       1.2456514    
    104400   300.69854     -15251.457      5738.3932      26.249173      1.2452422    
    104500   309.94129     -26285.517      5740.2784      26.257796      1.2448333    
    104600   291.34728     -27971.474      5742.1635      26.26642       1.2444246    
    104700   288.63145     -32955.27       5744.0487      26.275043      1.2440162    
    104800   277.4866      -21528.828      5745.9338      26.283666      1.243608     
    104900   299.62708     -20384.242      5747.819       26.292289      1.2432002    
    105000   312.30968     -23918.737      5749.7041      26.300913      1.2427925    
    105100   299.15406     -21691.465      5751.5893      26.309536      1.2423852    
    105200   295.13234     -30777.744      5753.4744      26.318159      1.2419781    
    105300   287.46341     -27395.131      5755.3596      26.326782      1.2415713    
    105400   285.63285     -17013.234      5757.2447      26.335406      1.2411648    
    105500   285.23535     -23344.446      5759.1299      26.344029      1.2407585    
    105600   308.70968     -22306.421      5761.015       26.352652      1.2403525    
    105700   301.13594     -26988.929      5762.9002      26.361275      1.2399468    
    105800   293.91778     -29611.526      5764.7853      26.369899      1.2395413    
    105900   300.63046     -24523.61       5766.6705      26.378522      1.2391361    
    106000   284.80961     -29455.838      5768.5556      26.387145      1.2387311    
    106100   295.25691     -24325.417      5770.4408      26.395768      1.2383265    
    106200   273.73197     -21319.824      5772.3259      26.404392      1.237922     
    106300   305.74897     -13847.631      5774.2111      26.413015      1.2375179    
    106400   292.13624     -23543.565      5776.0962      26.421638      1.237114     
    106500   315.50583     -22572.499      5777.9814      26.430261      1.2367104    
    106600   301.50377     -22205.805      5779.8665      26.438885      1.236307     
    106700   299.06985     -22360.533      5781.7517      26.447508      1.2359039    
    106800   297.14533     -31477.639      5783.6368      26.456131      1.2355011    
    106900   277.57831     -21657.271      5785.522       26.464754      1.2350985    
    107000   309.91601     -24298.234      5787.4071      26.473378      1.2346962    
    107100   311.91335     -28233.105      5789.2923      26.482001      1.2342941    
    107200   311.33145     -21073.243      5791.1774      26.490624      1.2338923    
    107300   299.2124      -30893.966      5793.0626      26.499247      1.2334908    
    107400   284.27231     -18437.495      5794.9477      26.507871      1.2330895    
    107500   302.44486     -29163.667      5796.8329      26.516494      1.2326885    
    107600   323.92159     -27750.117      5798.718       26.525117      1.2322878    
    107700   321.46685     -29876.466      5800.6032      26.53374       1.2318873    
    107800   278.45988     -24704.274      5802.4883      26.542364      1.2314871    
    107900   293.67385     -18800.616      5804.3735      26.550987      1.2310871    
    108000   299.12147     -21487.356      5806.2586      26.55961       1.2306874    
    108100   322.58802     -23305.652      5808.1438      26.568233      1.230288     
    108200   303.49178     -29105.671      5810.0289      26.576856      1.2298888    
    108300   291.80675     -29562.684      5811.9141      26.58548       1.2294899    
    108400   298.75635     -25211.156      5813.7992      26.594103      1.2290912    
    108500   290.08864     -22189.611      5815.6844      26.602726      1.2286928    
    108600   284.84666     -32229.608      5817.5695      26.61135       1.2282946    
    108700   300.59513     -21076.35       5819.4547      26.619973      1.2278968    
    108800   320.63245     -29967.154      5821.3398      26.628596      1.2274991    
    108900   299.89137     -26546.329      5823.2249      26.637219      1.2271017    
    109000   306.42631     -21887.802      5825.1101      26.645843      1.2267046    
    109100   287.70915     -24965.217      5826.9952      26.654466      1.2263078    
    109200   290.74776     -23711.562      5828.8804      26.663089      1.2259112    
    109300   301.86089     -30646.442      5830.7655      26.671712      1.2255148    
    109400   320.31459     -21967.531      5832.6507      26.680335      1.2251187    
    109500   312.20477     -22304.483      5834.5358      26.688959      1.2247229    
    109600   285.34349     -25848.986      5836.421       26.697582      1.2243273    
    109700   293.88985     -23975.067      5838.3061      26.706205      1.223932     
    109800   311.91004     -27527.692      5840.1913      26.714829      1.2235369    
    109900   321.1682      -32987.71       5842.0764      26.723452      1.2231421    
    110000   290.25384     -27154.065      5843.9616      26.732075      1.2227475    
    110100   294.40587     -18697.463      5845.8467      26.740698      1.2223532    
    110200   288.85973     -23084.677      5847.7319      26.749322      1.2219591    
    110300   295.78101     -28863.399      5849.617       26.757945      1.2215653    
    110400   303.16607     -27105.843      5851.5022      26.766568      1.2211718    
    110500   296.56587     -22701.079      5853.3873      26.775191      1.2207785    
    110600   315.32126     -27608.134      5855.2725      26.783814      1.2203855    
    110700   299.17446     -22733.258      5857.1576      26.792438      1.2199927    
    110800   303.56973     -23445.615      5859.0428      26.801061      1.2196002    
    110900   298.28224     -22417.709      5860.9279      26.809684      1.2192079    
    111000   298.37042     -25510.464      5862.8131      26.818308      1.2188158    
    111100   283.11794     -32715.647      5864.6982      26.826931      1.2184241    
    111200   302.74559     -26911.172      5866.5834      26.835554      1.2180325    
    111300   317.71825     -34855.242      5868.4685      26.844177      1.2176413    
    111400   305.31034     -24944.139      5870.3537      26.852801      1.2172502    
    111500   294.41114     -25358.74       5872.2388      26.861424      1.2168595    
    111600   294.79259     -26531.605      5874.124       26.870047      1.216469     
    111700   300.71823     -27523.563      5876.0091      26.87867       1.2160787    
    111800   294.54248     -31104.974      5877.8943      26.887293      1.2156887    
    111900   315.73468     -32355.846      5879.7794      26.895917      1.2152989    
    112000   307.36498     -33558.281      5881.6646      26.90454       1.2149094    
    112100   320.04824     -27340.748      5883.5497      26.913163      1.2145201    
    112200   309.32622     -27648.419      5885.4349      26.921787      1.2141311    
    112300   308.0445      -27545.622      5887.32        26.93041       1.2137423    
    112400   290.93807     -33599.242      5889.2052      26.939033      1.2133538    
    112500   313.8413      -28334.984      5891.0903      26.947656      1.2129655    
    112600   295.29423     -28377.155      5892.9755      26.95628       1.2125775    
    112700   281.84348     -20876.935      5894.8606      26.964903      1.2121897    
    112800   284.86399     -30524.75       5896.7458      26.973526      1.2118022    
    112900   292.1414      -26947.163      5898.6309      26.982149      1.2114149    
    113000   305.49528     -31711.916      5900.5161      26.990772      1.2110279    
    113100   302.78824     -34280.793      5902.4012      26.999396      1.2106411    
    113200   305.9603      -24407.835      5904.2864      27.008019      1.2102546    
    113300   290.12211     -23557.021      5906.1715      27.016642      1.2098683    
    113400   305.61858     -25170.298      5908.0566      27.025265      1.2094822    
    113500   299.95941     -30181.141      5909.9418      27.033889      1.2090964    
    113600   289.92443     -27383.047      5911.8269      27.042512      1.2087109    
    113700   296.8103      -26926.764      5913.7121      27.051135      1.2083256    
    113800   318.27689     -28627.206      5915.5972      27.059759      1.2079405    
    113900   299.63974     -26734.425      5917.4824      27.068382      1.2075557    
    114000   295.10178     -30598.232      5919.3675      27.077005      1.2071711    
    114100   277.99057     -28754.948      5921.2527      27.085628      1.2067868    
    114200   305.75492     -26909.029      5923.1378      27.094251      1.2064027    
    114300   319.80392     -26888.963      5925.023       27.102875      1.2060189    
    114400   394.92182     -15897.222      5926.9081      27.111498      1.2056353    
    114500   352.73083     -7356.2382      5928.7933      27.120121      1.2052519    
    114600   314.15839     -7317.4964      5930.6784      27.128744      1.2048688    
    114700   302.55589     -2438.602       5932.5636      27.137368      1.2044859    
    114800   287.40744     -2734.0678      5934.4487      27.145991      1.2041033    
    114900   283.33087     -2271.479       5936.3339      27.154614      1.203721     
    115000   306.26935     -3089.0279      5938.219       27.163238      1.2033388    
    115100   317.60778     -5894.1603      5940.1042      27.171861      1.2029569    
    115200   290.47179     -7699.5599      5941.9893      27.180484      1.2025753    
    115300   302.95286     -11466.436      5943.8745      27.189107      1.2021939    
    115400   287.65913     -10025.18       5945.7596      27.19773       1.2018127    
    115500   294.17962     -13644.17       5947.6448      27.206354      1.2014318    
    115600   289.15294     -3983.8438      5949.5299      27.214977      1.2010511    
    115700   306.35344     -13238.86       5951.4151      27.2236        1.2006707    
    115800   323.75975     -714.24028      5953.3002      27.232223      1.2002905    
    115900   288.62287     -1383.7396      5955.1854      27.240847      1.1999105    
    116000   296.75245     -3971.8637      5957.0705      27.24947       1.1995308    
    116100   302.79601     -8652.9875      5958.9557      27.258093      1.1991513    
    116200   296.57498     -10575.194      5960.8408      27.266717      1.1987721    
    116300   296.92085     -4032.0445      5962.726       27.27534       1.1983931    
    116400   290.19745     -6917.1095      5964.6111      27.283963      1.1980143    
    116500   301.77824     -11229.991      5966.4963      27.292586      1.1976358    
    116600   314.13868      6170.8079      5968.3814      27.301209      1.1972575    
    116700   322.00561     -7137.0249      5970.2666      27.309833      1.1968795    
    116800   296.85528     -5605.081       5972.1517      27.318456      1.1965017    
    116900   313.2645      -5138.6045      5974.0369      27.327079      1.1961241    
    117000   300.02382     -2928.8162      5975.922       27.335703      1.1957468    
    117100   286.63106     -2790.7695      5977.8072      27.344326      1.1953697    
    117200   304.57798     -4444.9824      5979.6923      27.352949      1.1949928    
    117300   312.79612     -1861.5184      5981.5775      27.361572      1.1946162    
    117400   292.09433     -1768.4816      5983.4626      27.370196      1.1942398    
    117500   286.72309     -1787.5091      5985.3478      27.378819      1.1938637    
    117600   294.98432     -6456.6206      5987.2329      27.387442      1.1934878    
    117700   308.79174     -9364.8394      5989.1181      27.396065      1.1931121    
    117800   306.67567     -3470.08        5991.0032      27.404688      1.1927367    
    117900   320.23015     -2282.6704      5992.8883      27.413312      1.1923615    
    118000   301.26765     -4952.2713      5994.7735      27.421935      1.1919866    
    118100   298.39641     -1793.5685      5996.6586      27.430558      1.1916118    
    118200   312.94193     -6552.9535      5998.5438      27.439182      1.1912374    
    118300   300.39609     -5546.4581      6000.4289      27.447805      1.1908631    
    118400   280.01782     -9734.3428      6002.3141      27.456428      1.1904891    
    118500   290.5759      -6528.8695      6004.1992      27.465051      1.1901153    
    118600   295.71386     -3314.4221      6006.0844      27.473675      1.1897418    
    118700   314.89791     -6320.0586      6007.9695      27.482298      1.1893685    
    118800   306.60239     -13661.956      6009.8547      27.490921      1.1889954    
    118900   308.6983      -5310.846       6011.7398      27.499544      1.1886225    
    119000   283.71371     -3730.5604      6013.625       27.508167      1.1882499    
    119100   323.04843     -11568.03       6015.5101      27.516791      1.1878776    
    119200   308.33922     -11386.109      6017.3953      27.525414      1.1875054    
    119300   288.03287      1502.1991      6019.2804      27.534037      1.1871335    
    119400   313.53497     -2645.9558      6021.1656      27.542661      1.1867618    
    119500   299.87639     -10743.344      6023.0507      27.551284      1.1863904    
    119600   313.66497     -11628.458      6024.9359      27.559907      1.1860192    
    119700   296.57227     -13618.466      6026.821       27.56853       1.1856482    
    119800   289.6955      -12534.76       6028.7062      27.577154      1.1852774    
    119900   298.55761     -2504.2185      6030.5913      27.585777      1.1849069    
    120000   314.32315      2102.7054      6032.4765      27.5944        1.1845366    
Loop time of 4414.7 on 8 procs for 120000 steps with 366 atoms

Performance: 1.174 ns/day, 20.438 hours/ns, 27.182 timesteps/s, 9.949 katom-step/s
98.7% CPU use with 8 MPI tasks x 1 OpenMP threads

MPI task timing breakdown:
Section |  min time  |  avg time  |  max time  |%varavg| %total
---------------------------------------------------------------
Pair    | 2979.3     | 3342.5     | 3692.8     | 515.6 | 75.71
Bond    | 0.3141     | 0.33163    | 0.35586    |   2.9 |  0.01
Neigh   | 246.98     | 263.15     | 278.05     |  76.4 |  5.96
Comm    | 36.879     | 387.79     | 751.66     |1516.8 |  8.78
Output  | 0.54803    | 0.59874    | 0.6503     |   4.1 |  0.01
Modify  | 402.71     | 417.42     | 433.44     |  59.4 |  9.46
Other   |            | 2.909      |            |       |  0.07

Nlocal:          45.75 ave          73 max          22 min
Histogram: 2 2 0 0 0 0 0 2 1 1
Nghost:           2436 ave        2832 max        2054 min
Histogram: 4 0 0 0 0 0 0 0 0 4
Neighs:        20748.1 ave       35311 max        7842 min
Histogram: 2 2 0 0 0 0 0 1 2 1

Total # of neighbors = 165985
Ave neighs/atom = 453.51093
Ave special neighs/atom = 0
Neighbor list builds = 12000
Dangerous builds not checked
unfix deform_p
unfix data
undump dump_pos${dir}
undump dump_pos3

# Delete dir to make sure it is not reused
variable dir delete



Total wall time: 1:13:34
