ITEM: TIMESTEP
0
ITEM: NUMBER OF ATOMS
371
ITEM: BOX BOUNDS xy xz yz pp pp pp
-8.8510000000000009e+00 1.7777500000000000e+01 -8.8510000000000009e+00
0.0000000000000000e+00 1.3020299999999999e+01 4.5889999999999997e-01
0.0000000000000000e+00 1.8640300000000000e+01 2.0540000000000000e-01
ITEM: ATOMS id type q x y z
1 4 0.548961 2.0619 0.8789 2.97661
3 2 0.0232996 1.52794 2.25545 2.99592
4 3 -0.578307 2.18938 0.42654 1.40333
5 4 0.88585 -1.44846 2.44081 4.37916
7 4 0.590307 0.29591 2.44373 6.7444
11 4 1.07811 -0.21116 4.51992 2.53837
14 4 1.08416 -1.08882 4.44961 8.35727
31 4 1.1286 1.64164 6.11569 4.32691
68 2 -0.00326734 -0.12807 1.03726 6.93254
70 2 -0.00809337 0.47299 3.88607 1.39114
89 2 -0.0118315 -0.70087 1.21464 4.12039
102 2 0.118478 2.09891 3.2206 5.24516
139 2 0.104496 2.06195 5.15875 8.91661
192 1 -0.0827148 2.04941 2.5973 6.14525
223 3 -0.596732 -0.83078 3.11003 5.73003
225 3 -0.7011 -1.32328 3.49575 3.13982
226 3 -0.657191 -0.96257 5.89504 2.01598
227 3 -0.679122 0.06492 3.29477 8.15172
229 3 -0.681835 -0.94834 5.5415 7.13706
244 3 -0.702755 0.85606 4.81213 3.73896
323 2 0.0454976 1.74124 0.26703 7.55516
324 2 0.0659387 1.90916 1.51265 8.81971
325 1 -0.118146 1.907 0.43181 8.62444
329 2 0.0400172 -0.59059 2.27951 0.08377
360 2 0.0938677 -2.7027 4.62592 1.30733
2 2 -0.00795892 3.39525 0.78364 3.62331
30 4 0.660902 6.24028 3.34281 1.52181
32 4 1.05409 4.29321 5.46412 0.3432
33 4 1.08683 5.37691 4.48793 8.40087
35 4 0.658316 4.14373 6.17757 6.1327
103 2 0.029645 2.47152 1.60944 5.91442
104 2 0.108618 2.68815 3.06246 6.90801
130 2 0.0200523 6.57389 1.68472 3.3628
131 2 0.0464898 4.99342 1.53922 2.57446
132 2 0.0445184 5.27394 2.84264 3.74151
202 1 -0.1235 5.74234 2.25471 2.93894
243 3 -0.701944 6.8422 2.34741 0.33405
245 3 -0.658706 4.84113 4.11096 1.08227
246 3 -0.79158 4.69629 3.19584 9.12827
249 3 -0.683827 2.94072 5.59374 5.15979
250 3 -0.683785 4.23626 5.24305 7.5014
335 2 0.0558151 7.42188 0.29259 1.44082
10 4 0.705218 2.32557 1.42121 11.9612
17 4 1.01822 0.388 4.26987 15.6002
18 4 0.678691 -0.95633 5.62971 13.0905
34 4 1.0302 0.39833 6.12989 10.3683
37 4 1.03211 2.13966 6.1242 17.6119
69 2 -0.0410504 2.08565 0.28834 11.0599
71 2 0.00493571 -1.11964 5.73719 18.2005
73 2 -0.0106546 -1.63189 4.44276 12.4982
110 2 0.027564 0.37949 2.56168 11.0541
111 2 0.0544341 0.84503 3.34514 12.5851
112 2 0.0193413 -0.01214 1.78639 12.6044
113 2 0.0858389 2.26699 3.17074 14.4995
114 2 0.0740862 1.00571 1.96754 14.8667
115 2 0.0630506 2.06253 2.59602 16.1504
121 2 0.0100486 -2.89333 6.23618 14.45
140 2 0.0755015 2.11294 4.3059 10.4632
144 2 0.0759811 1.9922 5.71193 12.5945
195 1 -0.1452 0.74772 2.38113 12.0758
196 1 -0.111962 1.519 2.86025 15.2361
205 1 -0.10108 2.00495 5.29447 10.0066
230 3 -0.698011 -1.0732 3.79258 16.2067
231 3 -0.697847 0.08028 5.14668 14.2666
247 3 -0.731843 -0.83405 5.21314 9.77452
248 3 -0.636682 -0.01331 6.35474 11.9431
253 3 -0.749582 1.18802 5.22056 16.6561
326 2 0.0783986 0.79214 1.83396 17.3754
327 1 -0.0820107 -0.17356 1.77389 17.8898
24 4 1.06678 7.53441 1.79389 17.5442
26 4 1.50748 4.79787 2.10441 10.3346
27 4 1.1127 8.5874 0.27105 13.7133
28 4 1.09922 4.85012 2.62389 16.2876
29 4 1.11424 7.00166 2.69024 12.4822
36 4 1.03892 5.83368 4.6978 14.5041
78 2 0.00338653 4.12474 2.71382 17.5626
141 2 0.0966881 2.86199 5.9128 10.2993
142 2 0.0662564 2.77413 5.22857 14.0985
143 2 0.104826 3.2982 4.48818 12.5691
206 1 -0.117591 2.94526 5.41869 13.0318
224 3 -0.724393 2.8156 0.73477 13.3568
237 3 -0.702147 4.65393 0.61833 9.69851
238 3 -0.723487 3.54718 2.36506 11.3646
239 3 -0.782821 4.30149 1.34092 15.4453
240 3 -0.725409 6.46672 2.44415 16.4831
241 3 -0.776634 6.24053 2.23032 11.0975
242 3 -0.709802 7.41421 1.33805 13.3305
251 3 -0.72526 4.68844 4.07432 15.5186
252 3 -0.699366 5.90252 3.60119 13.2906
254 3 -0.700194 3.28359 5.22858 18.3769
317 2 0.0214612 4.05651 0.50409 17.9529
347 2 0.116016 8.1657 0.42603 9.92888
6 4 0.609847 -5.34686 12.2052 9.07344
12 4 0.897884 -3.85942 6.8158 4.36217
20 4 1.45494 -3.04169 8.50751 9.17882
21 4 0.620801 -3.69758 10.5673 7.06973
74 2 -0.00637043 -4.37254 9.41105 6.44355
105 2 0.0480383 -4.5321 8.10947 2.4539
106 2 0.047059 -2.75718 8.00178 2.50725
107 2 0.00980831 -3.61309 9.14376 3.57461
109 2 0.0156449 -2.74171 8.16642 0.46562
148 2 0.0297578 -3.26645 12.0695 5.21739
193 1 -0.140641 -3.65197 8.14991 3.11179
208 1 -0.149445 -2.62262 11.3977 5.8054
228 3 -0.711002 -2.62472 6.72647 5.44901
233 3 -0.785707 -2.46928 7.38768 8.15116
234 3 -0.764927 -2.9521 9.94739 8.40981
235 3 -0.621883 -4.76715 11.6834 7.61188
309 4 0.577191 -5.97711 12.0592 0.28445
310 2 0.0120747 -4.34209 10.2099 0.28415
311 2 0.0337841 -5.31949 10.1706 1.76428
312 2 0.0185294 -4.00503 11.3527 1.60148
313 1 -0.148559 -4.8108 10.8373 1.05735
322 2 -0.000338238 -7.79443 12.8128 9.16277
331 2 0.0642647 -5.92857 9.4391 4.88112
332 2 0.070089 -5.89007 11.0591 5.6236
333 2 0.0324213 -5.40523 10.8427 3.93142
334 1 -0.0932717 -6.11133 10.5035 4.70253
370 3 -0.595466 -7.82095 12.5119 3.78733
13 4 0.637484 -0.89954 6.49531 0.46351
16 4 1.09114 -1.69579 6.94177 6.77435
39 4 1.61977 3.1292 7.8075 2.15996
40 4 0.245067 0.59219 9.85601 4.70506
42 4 0.657141 1.27343 8.51997 8.56874
79 2 -0.0594885 0.77373 6.87935 5.22958
80 2 -0.0897004 -0.71285 7.99061 6.4582
83 2 0.0322138 1.89544 9.20293 5.00716
84 2 -0.000731362 -0.03399 10.2189 6.00056
86 2 0.00568728 0.3705 9.64163 8.21046
87 2 -0.0174843 1.61164 7.67834 7.39571
108 2 0.0322304 -1.18892 8.95334 0.83863
128 2 0.0204052 -1.69713 12.0958 2.99599
129 2 0.00755224 -1.42185 11.1253 1.53503
145 2 0.107576 0.05257 8.55581 2.71438
146 2 0.0198402 -1.35373 9.47395 3.30044
147 2 0.0620433 -0.91163 7.93408 4.06078
149 2 0.00363557 -2.18399 10.6555 5.12695
150 2 0.0241244 -1.80472 11.9933 6.22575
194 1 -0.137703 -1.66975 8.17068 0.24199
201 1 -0.160398 -1.1313 12.0473 2.0549
207 1 -0.0958538 -0.51044 8.8449 3.61013
255 3 -0.651593 0.69289 6.59435 0.08781
257 3 -0.804995 2.00857 7.0118 3.01678
259 3 -0.633678 0.87093 11.2437 3.86049
260 3 -0.806243 2.39713 8.82363 1.11911
344 2 0.0901555 -0.34778 11.4923 9.10782
345 2 0.0924591 -1.88392 12.3521 8.82806
346 1 -0.0530107 -0.80726 12.4792 8.98887
8 4 1.4106 -5.25178 12.9459 14.626
22 4 0.658122 -3.53524 10.1452 14.1129
75 2 -0.0376501 -2.85424 9.8806 15.4125
88 2 -0.00840162 -2.27747 11.2651 10.8184
99 2 0.0938319 -5.84046 9.8817 9.69931
100 2 0.0387086 -6.35462 10.9804 10.982
101 2 0.0829456 -4.6395 10.5814 10.7944
119 2 0.0864087 -2.70218 7.36975 13.0771
125 2 0.0127694 -4.72015 7.96798 14.0358
126 2 0.0742332 -5.2698 9.05892 12.7395
127 2 0.0279696 -5.82441 9.30307 14.4087
191 1 -0.088037 -5.56725 10.786 10.2465
198 1 -0.110911 -2.16864 6.80478 13.8482
200 1 -0.124226 -4.96488 9.01002 13.7941
232 3 -0.686096 -4.55329 8.0409 9.56928
236 3 -0.672531 -4.08954 11.7004 14.1576
263 3 -0.738474 -2.20769 8.70494 10.5743
264 3 -0.694015 -2.39891 9.95557 12.9441
314 4 0.883341 -6.99047 10.9157 16.6081
315 3 -0.639695 -6.73277 11.4815 18.1225
316 3 -0.720388 -6.38861 11.9759 15.5274
337 2 0.0084395 -2.44432 12.2561 18.1346
364 2 0.0166434 -3.79117 7.75894 17.9292
38 4 1.08955 4.22973 6.7156 12.9413
43 4 1.10837 -1.7657 10.0366 11.4389
44 4 1.11963 2.55518 9.2635 13.9286
45 4 1.48905 1.14726 11.0561 11.7528
120 2 0.052547 -1.66427 7.51996 14.5106
151 2 0.0338288 2.26211 8.26361 16.482
152 2 0.0613942 3.48431 7.15071 15.8026
154 2 0.0538283 0.98749 7.53626 14.8598
155 2 0.112543 0.31056 8.46743 13.513
156 2 0.0217141 0.40753 9.2058 15.1241
209 1 -0.128921 2.98623 7.48239 16.72
210 1 -0.144517 0.92535 8.53635 14.4194
262 3 -0.618188 0.46829 7.60726 9.66607
266 3 -0.771631 -0.12808 10.0491 11.5347
319 2 -0.00169117 -0.90261 11.7033 14.3286
320 2 -0.0548513 1.0944 9.96236 18.1884
330 2 0.00981316 -1.09239 8.63685 17.8182
336 2 0.0424567 -1.74429 12.2541 16.5067
338 2 0.0304287 -0.69446 12.0158 17.9188
339 1 -0.150724 -1.57016 12.563 17.5488
25 4 0.263951 8.8157 0.81363 7.59531
47 4 1.09943 10.2957 2.21441 3.81307
50 4 0.99823 10.3757 2.8287 9.15824
56 4 0.294752 10.5831 6.26646 0.057
77 2 0.000504349 7.81208 1.81467 7.1206
81 2 -0.0749737 6.46178 4.0439 7.50554
94 2 0.00290745 10.5816 6.24513 9.18204
133 2 0.0368473 7.45703 5.43063 1.08783
134 2 0.067824 8.5057 4.34152 2.00858
135 2 0.0258826 7.17435 5.20753 2.81507
137 2 0.0313085 5.91381 5.02176 4.8798
138 2 0.0313103 6.56202 6.3974 5.80855
157 2 0.0197392 8.13091 1.92328 4.94748
158 2 0.006694 8.10145 3.36406 3.90625
159 2 0.0687987 8.96479 3.40249 5.45701
161 2 0.0385339 8.60192 4.11144 8.17031
170 2 0.0924567 9.48929 6.19953 3.65575
172 2 0.0260201 8.32803 5.616 4.86089
203 1 -0.12249 7.47122 4.68631 1.89454
204 1 -0.108337 5.72416 6.0598 5.18867
211 1 -0.144295 8.7198 2.77547 4.58817
212 1 -0.147492 8.82416 3.82175 9.20629
216 1 -0.116612 9.00028 6.44164 4.61003
269 3 -0.674346 10.0534 0.97877 2.7437
271 3 -0.560711 10.1845 1.60689 8.09062
288 3 -0.698759 10.5558 5.22216 6.66031
358 2 0.111912 10.0748 1.77506 0.36073
51 4 1.60116 12.6755 2.08803 5.69514
55 4 1.05397 12.0099 4.60064 2.38079
57 4 1.13407 11.9356 4.6123 7.31336
72 2 -0.00338166 14.8961 3.83163 8.42359
93 2 0.0176105 12.8569 5.69704 7.65155
166 2 0.032543 12.9759 3.89961 0.21129
167 2 0.061293 13.6646 2.95187 1.55038
214 1 -0.130086 13.3097 3.9415 1.25022
272 3 -0.674531 13.8342 2.05735 4.54565
273 3 -0.777024 11.2717 1.65993 5.00636
274 3 -0.72082 13.0026 1.05904 6.89876
280 3 -0.721697 11.0308 3.47391 3.07264
281 3 -0.603186 12.7695 5.38694 3.60784
282 3 -0.638701 11.0491 5.61925 1.52354
283 3 -0.746019 11.6187 3.77829 8.67458
284 3 -0.747675 12.6394 3.61553 6.24091
348 2 0.0388256 15.0798 1.44362 1.52472
349 2 0.0460239 16.0222 0.06648 2.13081
350 2 0.0551855 14.4537 0.46772 2.85459
351 1 -0.14261 15.011 0.42645 1.91191
352 2 0.0406931 15.3971 1.27934 8.69747
354 1 -0.155927 14.7335 0.48454 9.05557
357 2 0.081718 11.4537 2.37885 1.25695
359 1 -0.109903 11.0511 2.2565 0.25921
371 3 -0.658179 12.821 0.02825 0.15244
53 4 1.51869 10.2793 1.69952 16.0127
82 2 -0.028261 7.14302 4.84957 15.1627
160 2 0.058021 7.96673 3.25901 9.59384
162 2 0.047406 8.9236 4.7445 9.7861
163 2 0.0623299 8.29991 4.68412 11.8488
164 2 0.0976392 9.34451 3.22729 11.8331
165 2 0.056086 8.82095 3.93053 13.3735
173 2 0.0284891 9.54466 6.04585 13.5271
213 1 -0.124728 8.51314 3.72628 12.3355
256 3 -0.738256 5.41636 6.19954 13.9831
276 3 -0.780211 9.68426 0.84015 14.7735
278 3 -0.799135 9.06017 2.09185 17.0242
279 3 -0.644922 10.848 2.22579 10.6065
285 3 -0.800344 5.99407 5.44345 9.57707
289 3 -0.741259 10.8991 3.10723 15.4645
342 2 0.0435171 6.54901 5.36122 17.3159
343 1 -0.141494 6.01759 6.22254 17.74
366 2 0.0786153 9.27561 4.70815 18.2691
367 2 0.0826372 10.4321 4.79072 16.9383
368 2 0.0145243 9.22208 6.0604 17.1224
369 1 -0.110829 9.89683 5.39172 17.682
9 4 0.936605 15.3909 2.2577 16.6632
48 4 1.0733 12.5867 1.40172 17.8698
52 4 0.674468 14.4965 0.1913 14.6509
54 4 0.66085 12.1494 2.09755 11.5903
60 4 0.669419 11.9505 3.72659 14.3699
90 2 0.00339345 13.5326 0.88722 13.7683
91 2 -0.0201879 13.3521 2.70918 10.9659
92 2 0.0217141 12.361 0.66393 11.8864
95 2 0.010544 13.3467 3.65475 14.861
96 2 -0.03387 11.5297 5.13804 14.1826
116 2 0.0739639 12.9884 5.36563 10.8738
117 2 0.0496466 11.4599 5.04143 11.7206
118 2 0.0353607 12.5205 6.34074 12.2935
197 1 -0.0995496 12.1441 5.83651 11.3974
270 3 -0.727655 13.824 2.23498 17.1574
275 3 -0.649163 15.5064 1.28964 15.3267
277 3 -0.731032 11.4869 0.85387 16.7308
290 3 -0.642787 11.8141 2.89813 12.9749
328 2 0.0856974 16.6083 0.75689 18.2741
353 2 0.014552 14.0856 0.92149 9.82739
356 2 0.0399207 11.347 3.44276 18.4415
363 2 0.0385098 13.6658 6.04504 17.4757
23 4 0.926351 0.67471 12.0578 2.46501
41 4 1.17786 1.89092 10.1036 0.24167
46 4 1.0195 5.24838 11.8733 0.83367
49 4 1.05089 4.84078 12.4191 7.67977
62 4 1.05194 4.56902 10.194 3.36315
76 2 0.0719979 0.3625 12.7686 6.44972
85 2 0.0484537 3.79683 7.55394 6.55306
136 2 0.0959859 5.68223 6.6989 4.2961
179 2 0.100093 3.09181 11.3199 5.04437
180 2 0.120665 3.04804 12.1466 3.47207
181 2 0.0780972 4.47423 12.2611 4.48705
219 1 -0.0901836 3.67632 11.5836 4.15866
258 3 -0.79701 4.07934 6.72809 1.39332
261 3 -0.710097 1.56759 11.3721 1.24148
293 3 -0.787264 3.97705 8.66995 3.25319
294 3 -0.710243 4.8564 10.5933 1.79064
297 3 -0.718994 5.84208 8.0761 9.26891
298 3 -0.631394 2.6849 9.12327 9.1648
299 3 -0.695813 3.6608 11.4475 8.2877
302 3 -0.797826 5.89243 10.0162 4.31945
303 3 -0.728754 6.28227 9.04359 6.73392
304 3 -0.808343 5.73765 11.608 6.55994
19 4 0.611361 9.01764 10.9077 4.21024
59 4 0.633164 10.2864 6.6873 5.92266
64 4 0.663148 6.96409 8.48776 8.1226
66 4 1.46526 6.46806 10.372 5.79805
98 2 -0.0193597 7.58922 7.18857 7.7698
122 2 0.0551763 9.11875 10.0659 1.91668
123 2 0.0964746 7.43578 10.3041 2.3924
124 2 0.0440826 8.31688 8.87933 2.96061
168 2 0.0539143 10.3088 8.49733 1.08863
169 2 0.0447015 8.79418 7.57658 1.13871
171 2 0.0297561 8.38668 7.3401 4.46261
182 2 0.0406948 9.4126 8.84952 6.70546
183 2 0.068419 10.9762 8.44931 7.43135
184 2 0.0197469 9.50726 7.68895 8.05949
185 2 0.0478296 8.56221 10.3864 8.01829
199 1 -0.102377 8.40912 9.95101 2.74521
215 1 -0.104629 9.66857 7.81441 0.51863
220 1 -0.129323 9.99919 8.03785 7.15279
221 1 -0.128659 8.04669 9.83452 8.81276
287 3 -0.580801 11.6701 7.19538 5.20676
301 3 -0.746178 8.04683 10.7355 5.54876
58 4 1.50639 6.06779 6.87016 10.3591
65 4 1.0514 3.22484 10.6043 9.63323
67 4 1.57253 4.28522 10.59 16.3047
153 2 0.0782132 3.74677 7.93028 17.3706
188 2 0.0528342 5.57506 10.3021 10.3241
189 2 0.138648 4.46305 9.66546 11.5377
190 2 0.023099 4.709 11.4218 11.41
222 1 -0.104954 4.62737 10.4896 10.8352
265 3 -0.734364 3.64868 8.17902 13.3743
267 3 -0.792181 2.22189 10.3801 12.7745
268 3 -0.755181 0.56545 12.4592 12.3614
286 3 -0.778008 4.88707 6.94337 11.4633
296 3 -0.701464 6.636 11.4247 18.2899
300 3 -0.753871 1.92871 11.3557 10.3548
305 3 -0.810538 3.32077 10.0487 15.1358
306 3 -0.779309 5.67506 9.70553 16.4845
307 3 -0.648812 4.8106 12.0681 15.8617
308 3 -0.770242 3.4657 10.6023 17.7157
321 2 0.0221068 6.4562 11.8155 13.8883
341 2 0.0657293 5.60536 6.81309 16.9137
355 2 -0.00726439 6.5027 12.3306 9.53887
15 4 0.519214 11.2469 6.98727 10.2697
61 4 0.65375 8.67785 7.81751 11.9625
63 4 1.09063 7.00999 10.1528 17.3462
97 2 -0.0426648 7.44154 8.98803 18.1374
174 2 0.0661401 7.98524 6.73045 14.0543
175 2 0.0205416 9.48109 7.65425 14.2681
176 2 0.046301 8.92827 10.1003 12.8612
177 2 0.0676539 7.26666 9.5172 13.0312
178 2 0.0256801 7.82676 10.1468 11.4689
186 2 0.0492086 8.80145 9.44619 9.50489
187 2 0.0273021 7.41689 10.5475 9.36173
217 1 -0.128908 8.95371 6.96591 13.5929
218 1 -0.123417 8.12425 9.55739 12.3419
291 3 -0.634225 10.0676 7.83505 11.0578
292 3 -0.7491 7.53544 7.00218 11.0635
295 3 -0.594479 8.26422 10.6415 16.3835
318 2 -0.0690423 10.5739 9.62697 16.4456
340 2 0.0321187 6.7581 6.85638 18.248
361 2 0.00586549 12.1073 7.1186 16.5888
362 1 -0.132728 12.5027 6.88208 17.5901
365 2 0.0230227 9.77385 8.55087 18.267
ITEM: TIMESTEP
1
ITEM: NUMBER OF ATOMS
371
ITEM: BOX BOUNDS xy xz yz pp pp pp
-8.8510000000000009e+00 1.7777500000000000e+01 -8.8510000000000009e+00
0.0000000000000000e+00 1.3020299999999999e+01 4.5889999999999997e-01
0.0000000000000000e+00 1.8640300000000000e+01 2.0540000000000000e-01
ITEM: ATOMS id type q x y z
1 4 0.577603 2.03893 0.830536 2.95445
3 2 0.0249189 1.51185 2.29559 2.99776
4 3 -0.596811 2.19133 0.422882 1.40343
5 4 0.918901 -1.49518 2.47792 4.39044
7 4 0.607279 0.309445 2.48446 6.73927
11 4 1.10864 -0.238392 4.53573 2.57632
14 4 1.09853 -1.05295 4.45633 8.35199
31 4 1.16212 1.68135 6.09413 4.29938
68 2 0.00220071 -0.142343 0.990151 6.93939
70 2 0.00310771 0.497813 3.86321 1.35026
89 2 -0.00111478 -0.676593 1.17416 4.11085
102 2 0.115875 2.09694 3.22018 5.24637
139 2 0.10167 2.06064 5.15943 8.91805
192 1 -0.0871966 2.06405 2.59853 6.14056
223 3 -0.617121 -0.831088 3.10744 5.72766
225 3 -0.728362 -1.32422 3.49149 3.13927
226 3 -0.676413 -0.964275 5.89644 2.01356
227 3 -0.695961 0.0652998 3.29282 8.15323
229 3 -0.699092 -0.947879 5.54341 7.13616
244 3 -0.727402 0.857399 4.81213 3.74026
323 2 0.0454312 1.74325 0.266315 7.55674
324 2 0.0668409 1.91215 1.5105 8.82044
325 1 -0.117267 1.89713 0.434322 8.62216
329 2 0.0403408 -0.592021 2.27921 0.0815688
360 2 0.0933622 -2.71555 4.62267 1.30831
2 2 -0.00883142 3.43198 0.782034 3.64099
30 4 0.666482 6.23976 3.33966 1.51563
32 4 1.06023 4.29519 5.4631 0.357221
33 4 1.124 5.33971 4.50287 8.43104
35 4 0.682485 4.15277 6.13227 6.12288
103 2 0.0292146 2.46923 1.61038 5.91505
104 2 0.106135 2.68568 3.06209 6.90804
130 2 0.0200318 6.57395 1.68646 3.36082
131 2 0.0462364 4.99497 1.54099 2.57336
132 2 0.0438208 5.27517 2.84322 3.73923
202 1 -0.123948 5.73965 2.2501 2.94567
243 3 -0.706498 6.84164 2.34682 0.335184
245 3 -0.665464 4.84342 4.10925 1.0826
246 3 -0.809185 4.69733 3.19625 9.12624
249 3 -0.710573 2.94185 5.59526 5.16166
250 3 -0.707666 4.23765 5.2439 7.50036
335 2 0.055846 7.42596 0.283519 1.44481
10 4 0.723155 2.33355 1.45483 11.9965
17 4 1.02684 0.38093 4.27438 15.6024
18 4 0.698418 -0.933905 5.66193 13.1102
34 4 1.03832 0.400758 6.14817 10.3823
37 4 1.0354 2.13482 6.11348 17.6053
69 2 -0.0351544 2.07776 0.25283 11.0309
71 2 0.012622 -1.13996 5.70816 18.1728
73 2 -0.00500705 -1.65029 4.41046 12.4821
110 2 0.0291489 0.381329 2.56085 11.0553
111 2 0.0530268 0.846951 3.34345 12.5846
112 2 0.0189557 -0.00970742 1.78621 12.6038
113 2 0.0834843 2.26536 3.17137 14.5002
114 2 0.0716861 1.00461 1.96951 14.8673
115 2 0.0621001 2.06107 2.59745 16.1497
121 2 0.0101553 -2.89148 6.23583 14.4485
140 2 0.0747577 2.11098 4.30744 10.4635
144 2 0.0750479 1.99334 5.71347 12.5941
195 1 -0.148575 0.740601 2.38376 12.0755
196 1 -0.111325 1.52614 2.85208 15.2342
205 1 -0.101418 2.01865 5.28771 10.0029
230 3 -0.702786 -1.07603 3.78891 16.2073
231 3 -0.708305 0.0800179 5.14625 14.2643
247 3 -0.732639 -0.834282 5.21235 9.77556
248 3 -0.652216 -0.0131683 6.35337 11.9456
253 3 -0.756396 1.18662 5.21962 16.6543
326 2 0.0749314 0.789212 1.82997 17.3744
327 1 -0.0857188 -0.181712 1.77126 17.8981
24 4 1.0779 7.53697 1.79858 17.545
26 4 1.50913 4.80281 2.10717 10.3301
27 4 1.12717 8.59476 0.27769 13.7031
28 4 1.12845 4.87207 2.61375 16.2446
29 4 1.12273 6.99925 2.67525 12.4793
36 4 1.06157 5.79291 4.69847 14.4864
78 2 0.0165242 4.09851 2.71731 17.6096
141 2 0.0923957 2.85974 5.91325 10.2997
142 2 0.0654694 2.77512 5.22962 14.0975
143 2 0.101404 3.29914 4.48994 12.5691
206 1 -0.117727 2.93496 5.40754 13.0335
224 3 -0.735597 2.81374 0.735474 13.356
237 3 -0.703704 4.65154 0.61366 9.69723
238 3 -0.729546 3.54494 2.36393 11.3646
239 3 -0.800712 4.29999 1.33903 15.4457
240 3 -0.741691 6.46852 2.44275 16.4861
241 3 -0.783963 6.24262 2.23093 11.0964
242 3 -0.721279 7.41524 1.33669 13.3311
251 3 -0.746594 4.68845 4.07573 15.5193
252 3 -0.712083 5.90399 3.6021 13.2904
254 3 -0.701431 3.28492 5.22801 18.376
317 2 0.0204064 4.06347 0.511311 17.9434
347 2 0.113259 8.16646 0.419709 9.92248
6 4 0.619143 -5.3377 12.2076 9.07048
12 4 0.905419 -3.87154 6.81342 4.36625
20 4 1.45917 -3.04473 8.48408 9.17552
21 4 0.633392 -3.68311 10.6151 7.08441
74 2 0.000213287 -4.39398 9.37637 6.42428
105 2 0.047508 -4.53121 8.10844 2.45549
106 2 0.0470235 -2.75776 8.00028 2.50898
107 2 0.0101725 -3.61317 9.1415 3.57557
109 2 0.0154842 -2.73973 8.16465 0.465917
148 2 0.0288336 -3.26641 12.068 5.21921
193 1 -0.140358 -3.65196 8.15258 3.10905
208 1 -0.153467 -2.61744 11.4012 5.79869
228 3 -0.728087 -2.6261 6.72776 5.44767
233 3 -0.809845 -2.46852 7.38715 8.14824
234 3 -0.759401 -2.95172 9.94897 8.40745
235 3 -0.634176 -4.76892 11.6826 7.6129
309 4 0.591716 -5.99098 12.0533 0.294237
310 2 0.0131258 -4.34403 10.2119 0.284169
311 2 0.0328307 -5.32059 10.1728 1.76263
312 2 0.0183501 -4.00738 11.3536 1.60011
313 1 -0.1496 -4.80596 10.8337 1.05995
322 2 0.00109071 -7.79193 12.8123 9.16282
331 2 0.0636957 -5.93186 9.43953 4.88018
332 2 0.0701652 -5.89317 11.0591 5.62204
333 2 0.0314145 -5.40923 10.8431 3.93107
334 1 -0.0944805 -6.10777 10.5019 4.70463
370 3 -0.609704 -7.82335 12.5126 3.78661
13 4 0.653009 -0.889442 6.52946 0.492733
16 4 1.12123 -1.73725 6.91965 6.78037
39 4 1.62549 3.1224 7.79558 2.15263
40 4 0.261429 0.573827 9.86694 4.65581
42 4 0.692854 1.28558 8.50614 8.6143
79 2 -0.0489179 0.743212 6.90585 5.26081
80 2 -0.080912 -0.681084 8.0236 6.44846
83 2 0.0326738 1.93059 9.18521 5.01498
84 2 -0.00104278 -0.0515309 10.229 6.03652
86 2 0.00631601 0.345822 9.6724 8.19968
87 2 -0.0176991 1.62063 7.65535 7.36274
108 2 0.0310474 -1.18847 8.95059 0.838503
128 2 0.0203415 -1.69462 12.0952 2.99532
129 2 0.00814625 -1.41972 11.1271 1.53503
145 2 0.105453 0.0533468 8.55672 2.71621
146 2 0.0186774 -1.35173 9.47419 3.30183
147 2 0.0618012 -0.910106 7.93562 4.06212
149 2 0.00336393 -2.1856 10.6554 5.12903
150 2 0.0222029 -1.80685 11.9917 6.22716
194 1 -0.142011 -1.67456 8.18043 0.23944
201 1 -0.159136 -1.14154 12.0557 2.05115
207 1 -0.0997954 -0.514048 8.84139 3.60664
255 3 -0.655879 0.691282 6.59531 0.088042
257 3 -0.826702 2.00833 7.01324 3.01823
259 3 -0.642122 0.871829 11.2432 3.86271
260 3 -0.821511 2.3956 8.82441 1.11789
344 2 0.0894668 -0.346293 11.4949 9.10709
345 2 0.0898776 -1.88227 12.3528 8.82616
346 1 -0.0562486 -0.81214 12.4822 9.00005
8 4 1.4249 -5.25223 12.9386 14.6262
22 4 0.680531 -3.55322 10.1572 14.0739
75 2 -0.032846 -2.83688 9.87322 15.4467
88 2 0.00368271 -2.2941 11.3062 10.7973
99 2 0.0939646 -5.83995 9.88323 9.6982
100 2 0.038618 -6.35383 10.9818 10.9802
101 2 0.0823633 -4.64001 10.5831 10.7926
119 2 0.0832004 -2.70045 7.36827 13.0767
125 2 0.0131246 -4.71885 7.97027 14.036
126 2 0.0710698 -5.26798 9.05993 12.7408
127 2 0.0286216 -5.82212 9.30403 14.4084
191 1 -0.0881615 -5.56834 10.7818 10.251
198 1 -0.116585 -2.17333 6.80839 13.8507
200 1 -0.128414 -4.96971 9.00603 13.7936
232 3 -0.695039 -4.56125 8.03829 9.57091
236 3 -0.684615 -4.09049 11.7009 14.1585
263 3 -0.747606 -2.20828 8.7069 10.5751
264 3 -0.722516 -2.39972 9.95597 12.9449
314 4 0.936691 -7.02713 11.0157 16.6226
315 3 -0.672235 -6.73086 11.4797 18.1223
316 3 -0.752207 -6.38555 11.9755 15.5255
337 2 0.00880202 -2.44311 12.2592 18.1344
364 2 0.0179108 -3.80263 7.75344 17.9291
38 4 1.09951 4.23239 6.73097 12.9362
43 4 1.14706 -1.73992 10.0012 11.4771
44 4 1.1321 2.55877 9.26761 13.9243
45 4 1.49158 1.12983 11.0587 11.7715
120 2 0.0503164 -1.66355 7.51808 14.5092
151 2 0.0345405 2.26191 8.26199 16.4829
152 2 0.0615178 3.4829 7.14945 15.804
154 2 0.0528568 0.989459 7.53752 14.859
155 2 0.108225 0.312444 8.46796 13.5131
156 2 0.021495 0.409865 9.20558 15.123
209 1 -0.125487 2.99479 7.49651 16.7112
210 1 -0.145228 0.91856 8.53397 14.4213
262 3 -0.640484 0.469786 7.60842 9.66339
266 3 -0.797682 -0.128528 10.0512 11.5344
319 2 -0.00128357 -0.906724 11.6978 14.3322
320 2 -0.0442951 1.05763 9.95177 18.1682
330 2 0.00973869 -1.09194 8.63527 17.8199
336 2 0.0427057 -1.74375 12.2568 16.5081
338 2 0.0312563 -0.69467 12.0192 17.9186
339 1 -0.149858 -1.57193 12.5539 17.5482
25 4 0.275611 8.83024 0.808125 7.63456
47 4 1.10086 10.2984 2.21007 3.80382
50 4 1.00381 10.3807 2.81627 9.17671
56 4 0.298027 10.5861 6.26492 0.0634611
77 2 0.00122089 7.78604 1.84001 7.10819
81 2 -0.0656354 6.49429 4.03034 7.47896
94 2 0.00797917 10.5632 6.22312 9.14991
133 2 0.0365398 7.45584 5.42831 1.08841
134 2 0.067634 8.50352 4.33983 2.00797
135 2 0.0260949 7.17353 5.20543 2.81356
137 2 0.0288638 5.91192 5.02301 4.88104
138 2 0.031416 6.55958 6.39724 5.80909
157 2 0.0201051 8.13306 1.9234 4.94605
158 2 0.00678825 8.10361 3.36285 3.90587
159 2 0.0695181 8.966 3.40139 5.45538
161 2 0.0400637 8.60345 4.11036 8.17148
170 2 0.09175 9.49026 6.20007 3.65802
172 2 0.0268332 8.33022 5.61689 4.86229
203 1 -0.122477 7.47646 4.69316 1.89692
204 1 -0.113441 5.73086 6.06007 5.18481
211 1 -0.142534 8.70771 2.77985 4.59508
212 1 -0.144929 8.81112 3.83026 9.20583
216 1 -0.116279 8.99284 6.4406 4.60215
269 3 -0.679359 10.0517 0.976927 2.74338
271 3 -0.566009 10.1814 1.60506 8.08939
288 3 -0.71237 10.556 5.22377 6.66167
358 2 0.113351 10.076 1.77435 0.359906
51 4 1.58958 12.6888 2.07342 5.68955
55 4 1.05635 12.0064 4.60678 2.38564
57 4 1.14842 11.9089 4.59724 7.29708
72 2 0.00612768 14.8485 3.80983 8.42563
93 2 0.0253861 12.8887 5.73424 7.66313
166 2 0.0329901 12.9743 3.90099 0.213362
167 2 0.0608287 13.6608 2.95279 1.55192
214 1 -0.127857 13.3304 3.94035 1.24382
272 3 -0.691265 13.848 2.05817 4.54604
273 3 -0.772661 11.271 1.65967 5.00624
274 3 -0.727549 13.0051 1.05351 6.90062
280 3 -0.724442 11.031 3.47417 3.07091
281 3 -0.61058 12.7726 5.3905 3.6087
282 3 -0.642477 11.0491 5.61891 1.52119
283 3 -0.748675 11.6196 3.78092 8.67454
284 3 -0.74733 12.6397 3.61646 6.24186
348 2 0.0391431 15.0784 1.44126 1.52273
349 2 0.0449018 16.0205 0.0656095 2.12918
350 2 0.0542052 14.4534 0.466785 2.85253
351 1 -0.142257 15.0166 0.43046 1.91919
352 2 0.041109 15.396 1.27711 8.69576
354 1 -0.155774 14.7418 0.478895 9.06635
357 2 0.0809558 11.4548 2.37763 1.2564
359 1 -0.10484 11.0394 2.2674 0.269493
371 3 -0.672195 12.8245 0.0245375 0.156019
53 4 1.51829 10.2643 1.70214 15.9987
82 2 -0.0186322 7.18679 4.8542 15.1847
160 2 0.0575207 7.96909 3.25822 9.59372
162 2 0.0476006 8.92528 4.74269 9.78579
163 2 0.0622943 8.29855 4.68239 11.849
164 2 0.0944891 9.34286 3.22604 11.833
165 2 0.0540813 8.81981 3.92948 13.3721
173 2 0.027787 9.54381 6.04769 13.5249
213 1 -0.124856 8.52354 3.73433 12.3357
256 3 -0.749099 5.41676 6.19959 13.9836
276 3 -0.793255 9.68165 0.838082 14.7714
278 3 -0.803191 9.05835 2.09125 17.0266
279 3 -0.671512 10.8483 2.22564 10.6084
285 3 -0.816217 5.99471 5.44023 9.57322
289 3 -0.758943 10.9017 3.10949 15.464
342 2 0.0442027 6.54691 5.36132 17.3176
343 1 -0.138679 6.02874 6.2272 17.7298
366 2 0.078339 9.27767 4.70982 18.2701
367 2 0.0829639 10.4334 4.79226 16.9401
368 2 0.0147146 9.22408 6.06046 17.1242
369 1 -0.109995 9.89102 5.3881 17.6768
9 4 0.944112 15.3965 2.25693 16.6542
48 4 1.07859 12.6105 1.39087 17.8723
52 4 0.698175 14.5176 0.178752 14.6922
54 4 0.705118 12.1044 2.12685 11.5999
60 4 0.711056 11.9188 3.68429 14.3589
90 2 0.00588452 13.5053 0.906469 13.7433
91 2 -0.0213127 13.3847 2.72541 10.9486
92 2 0.021261 12.3675 0.622863 11.8949
95 2 0.0116695 13.3859 3.65283 14.8752
96 2 -0.0348729 11.5193 5.17702 14.1767
116 2 0.0719065 12.9868 5.36741 10.8732
117 2 0.047476 11.4597 5.04315 11.7192
118 2 0.0337209 12.5194 6.34175 12.2914
197 1 -0.104383 12.1452 5.83159 11.4006
270 3 -0.73352 13.8274 2.23796 17.1588
275 3 -0.666603 15.506 1.29041 15.3272
277 3 -0.721315 11.4867 0.853587 16.7315
290 3 -0.679716 11.8157 2.89866 12.9742
328 2 0.0822824 16.6152 0.762085 18.2693
353 2 0.0147464 14.0851 0.919826 9.82484
356 2 0.0414123 11.3484 3.44107 18.441
363 2 0.0392149 13.654 6.04876 17.478
23 4 0.934047 0.680198 12.0568 2.46466
41 4 1.21202 1.93129 10.1163 0.266801
46 4 1.03292 5.24307 11.8696 0.830138
49 4 1.06148 4.83475 12.4216 7.67345
62 4 1.05304 4.58288 10.1995 3.36217
76 2 0.0728783 0.373459 12.7452 6.41797
85 2 0.0537609 3.78703 7.59489 6.5656
136 2 0.0948924 5.68059 6.69842 4.29768
179 2 0.0995081 3.09272 11.3182 5.04294
180 2 0.11924 3.04878 12.1449 3.47115
181 2 0.075438 4.47384 12.2597 4.48667
219 1 -0.0888743 3.67032 11.5943 4.16525
258 3 -0.807254 4.08002 6.72838 1.39313
261 3 -0.727857 1.56583 11.3708 1.24116
293 3 -0.778769 3.97458 8.66982 3.2543
294 3 -0.717931 4.85756 10.5966 1.79053
297 3 -0.716703 5.84368 8.07861 9.26641
298 3 -0.645435 2.68307 9.12133 9.16377
299 3 -0.707115 3.66359 11.4495 8.28677
302 3 -0.804129 5.89263 10.0172 4.31841
303 3 -0.7306 6.28307 9.04278 6.73433
304 3 -0.810453 5.73666 11.6103 6.5619
19 4 0.61589 9.02021 10.9119 4.21378
59 4 0.637003 10.2942 6.68523 5.92092
64 4 0.674394 6.94672 8.52815 8.12628
66 4 1.46332 6.47172 10.3782 5.78793
98 2 -0.0124611 7.60865 7.15006 7.75892
122 2 0.0544453 9.11867 10.0671 1.91895
123 2 0.0959983 7.43673 10.305 2.39451
124 2 0.0443827 8.31752 8.88153 2.96229
168 2 0.0538452 10.3095 8.49485 1.08752
169 2 0.0447264 8.79608 7.575 1.13752
171 2 0.0303261 8.38883 7.33955 4.46439
182 2 0.0406113 9.41316 8.84731 6.70457
183 2 0.0679565 10.9756 8.44776 7.43031
184 2 0.0206337 9.50783 7.68759 8.05774
185 2 0.0471084 8.56059 10.3845 8.01813
199 1 -0.102461 8.40826 9.94811 2.74059
215 1 -0.104459 9.66456 7.82072 0.519527
220 1 -0.12896 9.99782 8.04559 7.15873
221 1 -0.132093 8.05279 9.84229 8.81696
287 3 -0.587489 11.6778 7.19366 5.20385
301 3 -0.74958 8.04868 10.7356 5.5472
58 4 1.50466 6.06239 6.8605 10.3718
65 4 1.05353 3.23567 10.6084 9.61262
67 4 1.56786 4.27414 10.5929 16.2999
153 2 0.0790776 3.74534 7.9288 17.3709
188 2 0.0513548 5.57278 10.3023 10.3231
189 2 0.139031 4.46156 9.6659 11.5362
190 2 0.0236992 4.70766 11.4209 11.4082
222 1 -0.103187 4.63971 10.4885 10.8459
265 3 -0.743373 3.64561 8.17964 13.3755
267 3 -0.796247 2.22224 10.3789 12.7756
268 3 -0.770664 0.562667 12.4617 12.3651
286 3 -0.790594 4.88415 6.94251 11.4645
296 3 -0.718952 6.6369 11.4265 18.2931
300 3 -0.739806 1.92897 11.3558 10.3549
305 3 -0.816133 3.31714 10.0462 15.1339
306 3 -0.77987 5.67645 9.70415 16.4853
307 3 -0.663528 4.81247 12.0737 15.857
308 3 -0.783868 3.46241 10.6012 17.7185
321 2 0.0164397 6.46273 11.8091 13.8819
341 2 0.0669732 5.60405 6.81172 16.9157
355 2 -0.0061421 6.49789 12.3388 9.53422
15 4 0.534182 11.2702 7.01566 10.3035
61 4 0.662365 8.681 7.81349 11.9551
63 4 1.11064 7.00929 10.1947 17.3216
97 2 -0.0313815 7.45584 8.94925 18.1645
174 2 0.0665831 7.98591 6.7314 14.052
175 2 0.0212252 9.48034 7.65422 14.2657
176 2 0.0457597 8.92806 10.0979 12.86
177 2 0.0671421 7.26809 9.5154 13.0298
178 2 0.0261469 7.82776 10.144 11.469
186 2 0.0495926 8.79976 9.4448 9.50355
187 2 0.0258582 7.41691 10.5452 9.36014
217 1 -0.129091 8.9546 6.96349 13.6006
218 1 -0.123204 8.12178 9.56504 12.3452
291 3 -0.642564 10.0684 7.83507 11.0584
292 3 -0.750079 7.53951 7.00375 11.0662
295 3 -0.624475 8.27721 10.643 16.3872
318 2 -0.0514778 10.5971 9.534 16.4338
340 2 0.0323555 6.75587 6.85503 18.2485
361 2 0.00665658 12.1057 7.11781 16.5918
362 1 -0.131953 12.5266 6.8849 17.5839
365 2 0.0240002 9.77524 8.54863 18.2674
ITEM: TIMESTEP
2
ITEM: NUMBER OF ATOMS
371