ITEM: TIMESTEP
0
ITEM: NUMBER OF ATOMS
371
ITEM: BOX BOUNDS xy xz yz pp pp pp
-8.8510000000000009e+00 1.7777500000000000e+01 -8.8510000000000009e+00
0.0000000000000000e+00 1.3020299999999999e+01 4.5889999999999997e-01
0.0000000000000000e+00 1.8640300000000000e+01 2.0540000000000000e-01
ITEM: ATOMS id type q x y z element
5 4 1.10986 -0.95753 3.06556 4.66472 Si
7 4 0.670743 0.159157 2.64885 7.29431 Si
11 4 0.901664 -0.303767 5.59709 3.46979 Si
14 4 1.07822 -1.43623 4.33153 8.78659 Si
223 3 -0.727834 -0.00904916 3.48619 5.91385 O
225 3 -0.764281 -0.777582 4.02059 3.32088 O
227 3 -0.686855 -1.04108 2.78944 8.35882 O
229 3 -0.694852 -1.84907 5.29657 7.51907 O
317 2 0.0729301 -1.00878 3.82197 1.16777 H
104 2 0.0148419 1.99336 2.48938 8.93699 H
2 2 0.23627 1.40756 1.79102 1.23527 H
70 2 0.0864393 -0.353088 3.67074 1.02885 H
16 4 0.863668 -3.07855 6.3531 7.36917 Si
80 2 0.370308 0.0624323 5.44434 5.83254 H
68 2 0.0332425 0.136122 0.929676 7.02716 H
71 2 -0.0138164 -2.02351 5.37446 0.105095 H
192 1 -0.093994 1.89796 3.19448 8.09036 C
102 2 0.0868794 1.72496 4.25116 8.3698 H
97 2 0.27754 1.3475 2.90997 2.46795 H
13 4 0.688283 -0.800573 6.40016 0.80629 Si
258 3 -0.678735 2.04539 2.40473 1.9192 O
333 2 0.0386624 1.97547 0.620226 5.62247 H
255 3 -0.673306 0.678179 5.98613 0.199664 O
244 3 -0.6612 0.0161879 6.36367 5.29633 O
324 2 0.0675151 3.81207 1.62366 8.72495 H
322 2 0.0114602 2.29284 0.71641 8.30628 H
89 2 0.0785662 3.23447 1.23625 3.18367 H
103 2 0.0601571 2.55244 3.07779 7.22147 H
35 4 0.616425 4.14862 4.81535 5.78836 Si
32 4 0.617134 2.99063 3.65991 0.546351 Si
343 1 -0.0831635 3.46432 5.47603 1.39789 C
245 3 -0.681594 4.36106 2.91713 0.166897 O
243 3 -0.648541 6.64284 1.71518 0.485168 O
342 2 0.0454385 4.50833 5.62552 1.17949 H
325 1 -0.113107 3.37074 0.755327 8.22608 C
341 2 0.097483 2.86353 6.24596 0.912878 H
203 1 -0.134692 5.35182 2.14813 3.24588 C
323 2 0.0419668 3.75144 0.573747 7.22682 H
133 2 0.024294 5.93141 3.0106 3.45998 H
135 2 0.0343878 4.24921 2.23813 3.49903 H
249 3 -0.653089 2.71503 5.26335 5.17878 O
340 2 0.107627 3.23121 5.32349 2.43919 H
134 2 0.0138296 5.82956 1.22536 3.47227 H
30 4 0.624747 5.15088 1.7248 1.03919 Si
250 3 -0.682322 4.42196 4.98376 7.39672 O
129 2 0.0569284 7.88477 0.606681 2.42171 H
33 4 0.984316 5.72604 4.43254 8.39681 Si
130 2 0.0510426 3.21813 0.036394 1.00816 H
345 2 0.0922071 7.29849 1.85413 8.97464 H
246 3 -0.772873 5.53183 2.96765 9.18025 O
139 2 0.0880048 2.53711 6.46184 8.42772 H
17 4 0.72372 -0.422331 4.49052 15.1351 Si
18 4 0.634907 -0.770619 6.03407 12.6258 Si
37 4 0.789207 1.38361 5.45828 17.3982 Si
73 2 0.0392396 -1.78237 4.86738 11.9116 H
110 2 0.0521035 0.641882 2.64086 10.3426 H
111 2 0.089224 0.951601 4.07404 11.4556 H
112 2 0.0403005 0.0813391 2.61577 12.0979 H
114 2 0.0622806 0.134999 2.16181 14.3295 H
115 2 0.0361805 0.0664683 2.27009 16.1064 H
195 1 -0.0992016 0.777075 3.00392 11.3566 C
196 1 -0.0903878 0.50323 2.68943 15.2119 C
231 3 -0.665112 0.0757649 5.24203 13.7854 O
253 3 -0.710361 0.144134 5.40189 16.4242 O
326 2 0.0413737 -0.760837 3.41627 17.7287 H
113 2 0.110631 1.56236 2.88634 15.2263 H
247 3 -0.791311 -0.204557 4.93436 9.64184 O
254 3 -0.666252 1.91239 3.57411 17.8974 O
78 2 0.299589 2.35823 3.23677 17.0357 H
144 2 0.0832755 1.94265 6.42629 12.5682 H
96 2 0.273113 -2.43664 4.89195 15.8936 H
34 4 0.9648 0.408675 6.44254 9.91838 Si
252 3 -0.806749 6.66873 3.32789 14.1404 O
143 2 0.0582146 2.70023 5.10048 11.6262 H
238 3 -0.76148 3.92133 3.07698 11.382 O
239 3 -0.778246 3.45479 1.58808 16.0768 O
319 2 0.345706 5.7813 0.553665 14.3879 H
206 1 -0.0905063 2.56729 5.59624 12.5545 C
205 1 -0.0759932 2.5224 6.25991 9.49049 C
140 2 0.071109 2.89985 5.26894 9.73505 H
142 2 0.0827745 2.5304 4.98014 13.4269 H
153 2 0.0807452 3.84897 5.90436 16.7255 H
224 3 -0.740921 2.8406 2.26417 13.6159 O
344 2 0.113258 8.06847 0.335224 9.54511 H
36 4 1.12181 5.40941 4.25074 14.4212 Si
10 4 0.613502 2.66956 2.29912 11.9894 Si
240 3 -0.723696 6.15753 1.56868 16.4729 O
251 3 -0.783944 4.62202 3.87085 15.7895 O
242 3 -0.763424 7.78095 0.979156 13.6891 O
8 4 1.18333 3.1683 1.0219 14.5725 Si
241 3 -0.827611 6.69283 2.2445 11.5688 O
24 4 0.756677 7.40362 1.39378 17.5195 Si
26 4 1.0833 5.34242 2.7162 10.766 Si
28 4 1.15664 4.75817 2.41674 16.5997 Si
69 2 0.214657 5.39912 0.304634 10.7902 H
209 1 -0.0827777 2.97227 6.53845 16.5729 C
321 2 0.300426 5.96513 0.356158 12.9161 H
152 2 0.0612212 2.71547 6.5762 15.5154 H
12 4 0.910267 -4.21651 6.67499 4.57235 Si
21 4 0.654805 -3.62694 10.2531 7.77285 Si
74 2 0.0535577 -4.12173 8.97922 6.68748 H
105 2 0.0217233 -3.42926 8.96462 3.74992 H
106 2 0.0421771 -4.36515 8.19778 2.37669 H
107 2 0.0881425 -2.70846 7.55838 2.78989 H
202 1 -0.122603 -4.57495 12.6564 1.048 C
193 1 -0.118693 -3.58159 8.08293 3.11628 C
208 1 -0.138778 -2.55405 11.3571 6.38545 C
228 3 -0.739729 -3.51291 7.02199 5.97599 O
234 3 -0.706641 -2.83387 9.60597 9.02432 O
235 3 -0.628288 -5.05743 10.9057 8.09008 O
332 2 0.0655302 -6.00911 11.9808 6.2802 H
334 1 -0.127253 -6.31124 12.5475 5.40512 C
331 2 0.00974904 -5.55409 12.5985 4.65036 H
132 2 0.0473587 -4.1863 12.3263 0.0943876 H
131 2 0.0119402 -4.23099 12.1108 1.90983 H
109 2 0.014983 -2.64001 7.72444 0.305803 H
148 2 0.00874615 -2.99428 11.1164 5.4304 H
123 2 0.0193206 -5.67179 10.254 3.48805 H
150 2 0.034678 -2.80319 12.3592 6.74182 H
370 3 -0.666516 -8.25265 12.2651 3.26428 O
199 1 -0.0967537 -6.53442 9.72914 3.8447 C
6 4 0.425596 -4.85637 12.0797 9.22394 Si
1 4 0.661729 -8.0949 12.0442 1.69487 Si
75 2 0.0061782 -2.67512 10.3175 2.48077 H
19 4 0.672105 -7.68858 11.3753 4.50382 Si
40 4 0.251855 1.26488 9.61373 4.17878 Si
226 3 -0.715133 -0.895903 6.5783 2.38757 O
147 2 0.0361781 -1.25299 9.6153 5.02858 H
201 1 -0.147112 -0.914668 12.3479 2.40902 C
108 2 0.0356682 -1.25354 8.81639 0.478857 H
79 2 0.00254071 2.71818 7.74723 6.1831 H
42 4 0.670007 0.51532 9.1766 8.45074 Si
149 2 0.0236021 -1.5329 11.0876 6.54356 H
260 3 -0.75795 1.83769 8.76617 1.29122 O
31 4 0.789324 2.03727 6.68598 4.94891 Si
207 1 -0.0931141 -0.767821 9.23606 4.15343 C
87 2 -0.00212559 0.260616 9.34476 6.76561 H
145 2 0.111922 -0.748571 8.15328 4.11575 H
146 2 0.0298306 -1.11547 9.69773 3.23885 H
128 2 0.0253519 -1.30722 11.9329 1.48908 H
262 3 -0.643728 -0.100068 7.78065 9.06451 O
257 3 -0.744477 2.5696 7.04165 3.47614 O
298 3 -0.666718 2.16136 9.31918 8.66428 O
335 2 0.00822479 -1.27311 11.8944 3.31352 H
39 4 1.08411 2.80148 8.38437 2.54748 Si
86 2 0.11675 -0.375391 10.4629 9.2696 H
22 4 0.286427 -2.81493 11.0143 14.4282 Si
312 2 0.0427724 -4.54994 10.1372 18.0841 H
100 2 0.0699184 -5.41451 11.788 11.7472 H
191 1 -0.079065 -6.09953 11.713 10.9219 C
200 1 -0.0926974 -4.22616 9.58373 14.3118 C
232 3 -0.728635 -4.96641 9.0105 10.7184 O
101 2 0.129324 -6.40031 10.6939 10.708 H
263 3 -0.764606 -2.40438 9.19313 11.543 O
310 2 0.0212815 -5.33474 9.20035 16.7494 H
20 4 1.18315 -3.38446 8.76734 10.3207 Si
125 2 0.084649 -4.32899 9.31127 13.2594 H
315 3 -0.713327 -6.79739 11.7152 17.2055 O
127 2 0.0217288 -3.81861 8.77545 14.8958 H
126 2 0.059102 -5.13243 9.99821 14.7401 H
236 3 -0.725809 -3.53941 12.8621 13.6868 O
121 2 0.0620717 -2.80432 7.36384 12.7365 H
120 2 0.0469022 -2.34497 6.65266 14.3055 H
93 2 0.278306 -2.37813 6.65823 9.52375 H
99 2 0.00929325 -6.94638 12.4371 10.986 H
237 3 -0.675806 -2.97655 12.4789 10.0445 O
316 3 -0.802245 -6.79033 12.7203 14.6817 O
88 2 0.279576 -2.65542 11.7051 10.4931 H
313 1 -0.131459 -5.25661 9.36229 17.8301 C
311 2 0.0332474 -5.21017 8.4737 18.4425 H
198 1 -0.0935434 -2.06207 7.27997 13.4789 C
314 4 1.13751 -7.67485 12.0929 15.9151 Si
233 3 -0.711685 -3.32756 6.81834 9.32913 O
248 3 -0.669322 0.175826 6.78545 11.5282 O
154 2 0.0685591 1.07514 7.32749 14.3757 H
194 1 -0.12783 -1.18896 8.17738 18.6003 C
119 2 0.0735282 -1.67127 8.21212 13.8006 H
151 2 0.0905447 2.96679 7.49507 17.0241 H
141 2 0.0821224 2.93358 7.08967 10.0853 H
27 4 1.08382 0.0157514 12.636 13.5797 Si
156 2 0.0714604 0.390103 8.98415 14.8265 H
266 3 -0.724253 0.0392047 10.2468 11.1958 O
339 1 -0.115125 -0.660753 12.1944 17.3719 C
330 2 0.0335558 -1.0408 8.11607 17.5386 H
336 2 0.100794 -0.0881722 12.2085 16.4491 H
155 2 0.107244 0.416951 8.48878 13.0904 H
320 2 -0.0354131 0.702672 10.0357 18.1574 H
264 3 -0.700588 -0.984866 10.7084 13.5985 O
210 1 -0.0926595 0.851305 8.35221 14.0743 C
43 4 0.979129 -1.37975 10.3944 12.008 Si
337 2 0.0226516 -1.5202 11.535 17.2844 H
45 4 0.960417 1.46122 10.9267 11.4417 Si
338 2 0.0297591 -0.0602719 12.0635 18.2571 H
38 4 1.12675 4.41368 6.69033 12.8326 Si
25 4 0.268471 9.57475 1.52965 8.0124 Si
137 2 0.0524968 5.24434 5.74284 3.72727 H
157 2 0.0636186 10.5649 1.51733 5.69779 H
158 2 0.0148313 9.00635 1.53188 4.6661 H
159 2 0.0343185 9.77124 3.09807 5.19028 H
171 2 0.0318385 8.80319 4.86478 5.66034 H
172 2 0.052196 8.857 6.09531 4.37554 H
211 1 -0.141535 9.91312 2.05494 5.01687 C
366 2 0.0991878 8.31359 3.4382 1.36698 H
368 2 0.0509045 8.36351 4.22272 3.00728 H
77 2 0.00575837 8.79333 2.54998 6.88788 H
369 1 -0.0817201 8.01638 4.27521 1.96358 C
357 2 0.124936 10.6209 2.18106 0.6232 H
56 4 0.319595 9.19074 5.9239 1.26332 Si
81 2 -0.0355189 6.91914 4.1937 7.20109 H
367 2 0.0415459 7.00204 4.5388 1.80483 H
282 3 -0.626142 10.6257 6.03648 1.95307 O
138 2 0.00260254 6.37136 4.68015 4.66136 H
216 1 -0.125517 8.78609 5.90864 5.4328 C
204 1 -0.128796 5.69897 5.50823 4.67536 C
269 3 -0.740353 10.7547 0.783798 2.51269 O
280 3 -0.75059 10.8765 3.36017 2.54352 O
136 2 0.0523014 6.04134 6.34168 5.2406 H
161 2 0.0740341 10.1167 5.44937 9.21848 H
271 3 -0.572083 10.9853 2.21463 8.42644 O
57 4 0.846874 12.5046 4.63116 7.3238 Si
360 2 0.0677696 13.977 4.24329 1.21309 H
166 2 0.0284879 13.1415 5.53445 0.331469 H
272 3 -0.775762 15.0872 2.15764 5.06128 O
355 2 0.119199 13.7711 1.55906 8.91125 H
371 3 -0.733485 13.0281 0.523984 0.212325 O
274 3 -0.751829 13.077 0.869442 6.52154 O
214 1 -0.0964061 13.0553 4.56968 0.709394 C
47 4 1.10784 11.184 2.04925 3.40489 Si
273 3 -0.770259 12.6625 2.0964 4.02684 O
281 3 -0.650885 13.2142 4.92316 3.63077 O
349 2 0.0191123 16.1934 1.05114 1.61237 H
288 3 -0.720925 11.2163 5.62262 7.26381 O
3 2 0.355399 12.8995 4.16418 4.27147 H
284 3 -0.758999 13.2258 3.74035 6.16555 O
283 3 -0.665175 13.1758 3.83846 9.07637 O
348 2 0.0897342 14.4622 1.52259 2.12669 H
351 1 -0.102503 15.2318 0.770535 2.06727 C
51 4 1.36154 13.5355 2.2138 5.5841 Si
55 4 0.829025 11.6163 4.80458 2.30775 Si
167 2 0.0818602 12.6578 3.88096 0.029792 H
350 2 0.0861816 15.3388 0.136494 2.93982 H
329 2 0.051178 14.7202 2.48892 0.0057809 H
82 2 0.301078 8.85185 2.41961 15.5682 H
163 2 0.0673093 9.5409 3.66242 13.8746 H
164 2 0.0326753 8.79843 4.31259 12.3003 H
165 2 0.0763511 9.80722 2.83378 12.2347 H
213 1 -0.103176 9.22117 3.47128 12.808 C
256 3 -0.788184 5.3846 5.70835 13.6264 O
356 2 0.0917424 10.4701 2.75021 17.6221 H
278 3 -0.696635 8.53188 2.87914 16.4488 O
318 2 0.347616 7.93084 3.36875 15.9575 H
162 2 0.027703 9.99899 5.0891 10.9504 H
364 2 0.0584028 10.059 5.27303 17.5619 H
347 2 0.101064 8.4493 1.95351 10.3133 H
362 1 -0.107405 9.64341 6.22526 17.8373 C
363 2 0.0407266 8.59126 6.35622 17.6018 H
175 2 0.0980716 7.49411 6.51045 13.9596 H
212 1 -0.116361 9.85408 4.71259 9.96457 C
160 2 0.0523044 8.90035 4.19738 9.80436 H
92 2 0.333603 10.298 0.857113 11.8028 H
358 2 0.0685488 10.1942 1.08811 18.3756 H
359 1 -0.0579448 10.7706 1.97178 18.3154 C
117 2 0.0274226 10.8008 6.13754 12.8474 H
29 4 1.06802 7.39822 2.44392 12.9673 Si
346 1 -0.0385921 8.14395 1.4089 9.43741 C
285 3 -0.794345 6.33748 5.50668 9.42231 O
230 3 -0.670493 14.8319 4.29628 15.156 O
354 1 -0.12006 14.2106 0.732052 9.48276 C
90 2 -0.00479002 15.7231 0.544088 12.461 H
116 2 0.0401364 12.2512 5.99692 11.815 H
353 2 0.051506 15.258 0.760441 9.71568 H
53 4 1.16283 11.5895 0.506088 14.6945 Si
60 4 0.662221 13.4227 2.60635 13.5814 Si
54 4 0.634545 13.1209 1.43889 11.2118 Si
72 2 0.265461 13.3511 4.70734 9.54593 H
290 3 -0.65055 13.8559 2.62964 11.9919 O
52 4 0.524245 14.5884 0.458755 13.7674 Si
50 4 0.733897 11.3794 3.13774 9.73584 Si
279 3 -0.659768 11.6253 2.01503 10.9369 O
289 3 -0.7098 11.9631 1.96803 14.0704 O
275 3 -0.672678 15.3689 0.800745 15.1594 O
270 3 -0.669859 13.2706 2.63491 16.9354 O
9 4 0.566262 14.6992 2.51522 16.1397 Si
48 4 0.874355 12.6283 1.29989 17.6021 Si
328 2 0.0522961 16.3326 1.6188 17.7736 H
327 1 -0.108535 15.8741 2.59756 17.8675 C
23 4 0.982585 1.24918 12.0694 2.39748 Si
46 4 1.06693 5.37984 12.3198 0.574881 Si
297 3 -0.675702 6.1141 8.44246 9.14344 O
62 4 1.03356 4.99738 10.5064 3.03048 Si
84 2 0.115041 4.43866 8.99244 7.04069 H
179 2 0.102082 3.59285 11.602 4.98084 H
41 4 1.08512 1.79031 10.0057 0.195694 Si
219 1 -0.0704942 4.14596 12.0443 4.1479 C
76 2 0.0696811 1.02258 12.7067 7.41695 H
261 3 -0.725288 1.76164 11.4257 0.969398 O
293 3 -0.752133 4.15211 9.13146 3.09889 O
294 3 -0.686453 5.02025 10.9639 1.44219 O
83 2 0.128564 4.77291 8.5588 7.35548 H
299 3 -0.736974 4.00353 11.2146 7.66758 O
304 3 -0.792855 6.41134 12.0417 6.67259 O
259 3 -0.664796 1.65468 11.124 3.6624 O
65 4 0.766773 3.11296 10.631 8.94785 Si
49 4 1.04753 4.95841 12.4734 7.35997 Si
181 2 0.0765249 4.99967 12.6258 4.45178 H
180 2 0.123026 3.49887 12.5025 3.42014 H
302 3 -0.775873 6.46599 10.3676 3.66206 O
85 2 0.313411 6.94003 9.51444 3.42782 H
187 2 0.071208 8.96727 10.7444 8.11932 H
215 1 -0.0867626 8.0787 7.55209 2.04547 C
168 2 0.09227 8.61244 8.37324 1.53666 H
365 2 0.0480651 7.04947 7.40563 1.7515 H
303 3 -0.734223 6.81693 9.43928 6.5867 O
220 1 -0.0925128 10.3371 8.58943 6.87925 C
124 2 0.0883912 10.1537 9.29189 3.09458 H
287 3 -0.692142 11.5134 6.83478 4.77416 O
301 3 -0.715333 8.55765 10.8019 5.59577 O
221 1 -0.110269 8.33754 10.5011 8.98637 C
59 4 0.652881 10.6174 6.61536 6.10047 Si
64 4 0.658398 7.22337 9.01879 8.15398 Si
66 4 1.23694 6.94426 10.813 5.79848 Si
98 2 0.00760929 8.39367 7.70194 8.02931 H
169 2 0.0489266 8.23852 7.53337 3.10787 H
4 3 -0.635967 9.37973 10.5227 1.0662 O
183 2 0.0598302 11.1152 9.09056 6.37315 H
182 2 0.072701 9.3457 8.83578 6.52943 H
184 2 0.0527101 10.4393 8.5696 7.96677 H
122 2 0.0678357 11.0022 9.07081 4.67782 H
170 2 0.0317838 8.04913 6.49158 5.96618 H
67 4 1.32083 3.83433 10.6385 16.1979 Si
188 2 0.0719715 5.47806 10.2389 9.88426 H
189 2 0.125982 4.30143 9.11631 10.7156 H
190 2 0.0680179 4.42586 10.8518 11.2772 H
222 1 -0.0709579 4.54061 10.1348 10.4507 C
267 3 -0.792125 2.5595 10.0669 12.2204 O
300 3 -0.677743 1.8772 12.0579 9.72056 O
305 3 -0.817716 2.9403 10.1449 14.9462 O
306 3 -0.802446 5.45817 10.7722 16.0104 O
307 3 -0.710178 4.3645 12.3535 13.4853 O
308 3 -0.765566 3.39551 10.1157 17.6411 O
95 2 0.314789 4.4277 11.4423 13.9809 H
63 4 1.26483 6.65351 11.8163 16.3637 Si
58 4 1.29582 6.3541 6.88355 10.2921 Si
286 3 -0.807097 5.18721 6.96322 11.4673 O
277 3 -0.745422 3.48785 12.7888 16.0412 O
265 3 -0.769039 3.8397 7.99326 13.6498 O
268 3 -0.742082 0.695415 12.9318 12.01 O
276 3 -0.771543 1.1568 12.9139 14.7522 O
44 4 1.06833 2.73614 9.22452 13.6173 Si
176 2 0.0579216 6.28896 9.49706 12.1921 H
352 2 -0.0258163 4.8524 12.6127 9.53217 H
91 2 0.316246 2.3078 12.8359 10.1294 H
197 1 -0.126705 11.6657 6.61734 12.4725 C
309 4 0.625219 10.3101 10.3954 18.1423 Si
94 2 0.0228063 10.5215 7.50086 9.76017 H
217 1 -0.0975104 8.37134 7.13321 14.0159 C
185 2 0.0553156 8.85046 9.97102 9.76902 H
361 2 0.0291603 10.2737 7.08417 17.5812 H
177 2 0.0369323 7.50593 10.7239 11.7422 H
296 3 -0.781071 6.80881 12.1466 17.9451 O
291 3 -0.660995 9.81108 8.85203 11.9315 O
178 2 0.0822103 7.35397 10.1537 13.492 H
61 4 0.64483 8.32176 8.23762 12.1723 Si
15 4 0.65452 11.0674 8.14716 11.2355 Si
173 2 0.0542161 8.38262 7.799 14.8493 H
295 3 -0.780818 8.17207 11.4813 15.7473 O
118 2 0.0327254 12.2986 7.11402 13.2369 H
218 1 -0.0949476 7.23175 9.94948 12.4411 C
292 3 -0.727448 7.82663 7.321 10.8938 O
174 2 0.0285877 9.30713 6.59076 13.9418 H
186 2 0.0337507 7.65594 11.2674 9.34636 H
ITEM: TIMESTEP
100
ITEM: NUMBER OF ATOMS
371
ITEM: BOX BOUNDS xy xz yz pp pp pp
-8.8510000000000009e+00 1.7777500000000000e+01 -8.8510000000000009e+00
0.0000000000000000e+00 1.3280705999999999e+01 4.5889999999999997e-01
0.0000000000000000e+00 1.8640300000000000e+01 2.0950800000000000e-01
ITEM: ATOMS id type q x y z element
5 4 1.2884 -1.09173 3.2209 4.83865 Si
7 4 0.687972 0.270877 2.59074 7.3019 Si
11 4 0.917101 -0.17042 5.57131 3.4307 Si
14 4 1.17038 -1.37419 4.32651 8.59116 Si
223 3 -0.759551 0.0415276 3.36691 5.91646 O
225 3 -0.821335 -0.803872 4.10136 3.56423 O
227 3 -0.736574 -0.929111 2.82888 8.34185 O
229 3 -0.755603 -1.88651 5.18598 7.28929 O
317 2 0.0750386 -0.251479 3.18154 1.51585 H
104 2 0.0387908 2.01875 3.23143 8.95111 H
2 2 0.247808 1.32309 1.90262 1.25108 H
70 2 0.0830706 -0.0610449 3.79588 1.24078 H
16 4 0.828544 -2.98739 6.37892 7.31004 Si
80 2 0.368379 -0.506507 5.97873 5.95725 H
68 2 0.0126864 0.607409 0.876576 7.23013 H
71 2 -0.0020909 -2.08819 5.43994 0.407551 H
192 1 -0.0742901 2.06298 3.36429 7.90414 C
102 2 0.124795 1.83029 4.34807 7.57698 H
97 2 0.231121 1.56821 3.36432 2.31942 H
33 4 1.12909 5.7468 4.45226 8.51509 Si
258 3 -0.653681 2.0228 2.4644 1.8369 O
333 2 0.0305049 2.27668 0.531061 5.58267 H
255 3 -0.697634 0.524498 6.05775 0.211357 O
246 3 -0.824568 5.34997 3.11758 9.18756 O
324 2 0.0139762 2.96868 1.51026 9.20209 H
322 2 0.0229929 2.873 0.837077 7.52992 H
89 2 0.0945137 2.32099 2.29361 4.59072 H
103 2 0.050534 2.79959 2.85586 7.30187 H
35 4 0.577935 4.25871 4.87268 5.9654 Si
32 4 0.546612 3.04752 3.55441 0.414776 Si
343 1 -0.0743115 3.21855 5.44343 1.22354 C
245 3 -0.672494 4.54498 2.91403 0.255411 O
243 3 -0.695907 6.86118 1.52694 0.297825 O
342 2 0.0589812 3.65671 6.048 0.446666 H
325 1 -0.110106 3.49037 1.07081 8.38021 C
341 2 0.114857 2.20147 5.69249 1.39969 H
203 1 -0.13325 5.50729 2.34984 3.10261 C
323 2 0.0881352 4.46126 1.49484 8.13854 H
133 2 0.023927 6.60037 2.25374 3.17854 H
135 2 0.0390413 5.09121 3.33108 3.0064 H
249 3 -0.623934 2.69009 5.00627 5.51702 O
340 2 0.0662638 3.83879 5.25835 2.10362 H
134 2 0.0178714 4.94481 1.71617 3.78643 H
30 4 0.616144 5.33586 1.69456 1.00327 Si
250 3 -0.715942 4.56193 5.0699 7.56917 O
129 2 0.074188 8.05797 0.66433 1.88117 H
17 4 0.787104 -0.312892 4.59598 15.1404 Si
18 4 0.64305 -0.805064 5.87891 12.6408 Si
37 4 0.786593 1.35479 5.48306 17.4958 Si
73 2 0.0444928 -1.63845 4.62041 11.8616 H
110 2 0.033605 0.626506 2.62003 10.8146 H
111 2 0.0644576 1.32913 4.26449 11.198 H
112 2 0.0516565 0.565709 3.30146 12.5212 H
114 2 0.0464047 -0.558047 2.39364 14.2218 H
115 2 0.0448017 0.214431 2.23622 15.8596 H
195 1 -0.102732 1.07132 3.28328 11.5655 C
196 1 -0.112606 0.215457 2.6989 14.8923 C
231 3 -0.691878 0.195061 5.3303 13.8271 O
253 3 -0.712174 0.0804662 5.38162 16.5176 O
326 2 0.0585939 -0.768297 3.56688 17.7347 H
113 2 0.0757939 1.21088 2.79981 14.4813 H
247 3 -0.800925 -0.239735 5.07603 9.43258 O
254 3 -0.673588 1.81786 3.53629 17.8669 O
78 2 0.290535 2.24477 3.08919 17.0714 H
144 2 0.0789075 2.02772 6.26395 12.3086 H
230 3 -0.678564 -2.36059 4.38365 15.2237 O
34 4 0.993462 0.466037 6.46026 9.91011 Si
96 2 0.266 -2.62446 4.8256 16.026 H
143 2 0.082613 3.09491 5.02799 11.6371 H
238 3 -0.721968 4.01136 3.15501 11.5054 O
239 3 -0.805952 3.52359 1.56179 16.1226 O
319 2 0.312927 5.59452 0.747395 14.2535 H
206 1 -0.091046 2.80816 5.56801 12.5072 C
205 1 -0.0745937 2.63963 6.30899 9.51317 C
140 2 0.0638526 2.85336 5.26459 9.685 H
142 2 0.0666299 2.73399 4.95697 13.3783 H
153 2 0.074774 3.88179 6.08759 17.1255 H
224 3 -0.724684 3.12298 2.28323 13.6575 O
152 2 0.0676897 3.06821 5.85963 15.5982 H
36 4 1.18507 5.30621 4.176 14.3125 Si
10 4 0.563578 2.74327 2.26596 12.0441 Si
240 3 -0.767789 6.06216 1.48338 16.6072 O
251 3 -0.800219 4.96006 3.81397 15.8233 O
242 3 -0.753828 7.7107 1.01072 13.8484 O
8 4 1.14444 3.07242 1.006 14.6392 Si
241 3 -0.786794 6.59538 2.05705 11.6307 O
24 4 0.869982 7.46834 1.45448 17.4088 Si
26 4 1.05595 5.30173 2.59528 10.75 Si
28 4 1.23083 4.7624 2.412 16.6308 Si
321 2 0.313345 5.86921 0.323147 12.767 H
209 1 -0.0779656 3.03828 6.34861 16.5363 C
345 2 0.0946714 7.37325 1.32196 9.43261 H
12 4 0.868741 -4.34748 6.58869 4.60145 Si
21 4 0.602484 -3.92489 10.0271 7.66262 Si
74 2 0.0636157 -4.14013 8.52935 6.83315 H
105 2 0.0285106 -3.63356 8.9363 3.77371 H
106 2 0.0556672 -4.84605 8.24564 2.65342 H
107 2 0.0692411 -3.10657 7.66283 2.59618 H
202 1 -0.119196 -4.38568 12.5921 0.964396 C
193 1 -0.105024 -3.92153 8.09843 3.18586 C
208 1 -0.127638 -2.62457 10.9899 6.42521 C
228 3 -0.734502 -3.45258 7.02982 5.89585 O
234 3 -0.727924 -2.968 9.65034 8.98163 O
235 3 -0.629656 -5.23506 10.8958 8.03891 O
332 2 0.0833152 -6.00404 11.7721 6.27197 H
334 1 -0.125998 -6.222 12.3455 5.39856 C
331 2 0.0113488 -5.4331 12.3673 4.65841 H
13 4 0.703711 -0.871053 6.56755 0.799729 Si
131 2 0.019011 -3.51993 11.9971 1.2123 H
109 2 0.0183839 -2.76895 8.21905 0.341314 H
148 2 0.0124862 -2.76639 10.4258 5.50723 H
123 2 0.0190063 -5.68611 10.2331 3.34649 H
150 2 0.0253705 -3.01526 11.9875 6.39944 H
244 3 -0.669897 -0.00716233 6.47472 5.17342 O
199 1 -0.101351 -6.63649 9.77792 3.60942 C
6 4 0.438091 -4.84167 12.0558 9.10155 Si
1 4 0.656787 -8.02751 12.1221 1.74923 Si
75 2 0.00560856 -3.78891 11.1474 2.60791 H
233 3 -0.69342 -3.1817 6.99531 9.25053 O
40 4 0.286536 1.27187 9.75161 4.18442 Si
226 3 -0.677264 -0.807174 6.69701 2.40394 O
147 2 0.0199469 -1.04344 10.179 4.63602 H
201 1 -0.141398 -0.794457 12.5203 2.3704 C
108 2 0.0322158 -1.22768 8.9476 0.692729 H
79 2 0.003333 2.64896 7.61074 6.07287 H
42 4 0.648257 0.648541 9.032 8.40586 Si
149 2 0.0434592 -1.67587 10.8409 6.94894 H
260 3 -0.756812 2.01749 8.80897 1.34992 O
312 2 0.0450461 -5.48267 8.98686 0.630489 H
207 1 -0.0887383 -0.705259 9.28862 4.10131 C
87 2 -0.000796774 0.129085 9.30066 6.75648 H
145 2 0.119182 -0.914276 8.35688 4.64692 H
146 2 0.0578481 -0.861962 9.29249 3.02845 H
128 2 0.0193371 -1.15738 11.675 1.82038 H
262 3 -0.682323 -0.0386266 7.6321 8.89219 O
257 3 -0.743777 2.59503 6.9429 3.47396 O
298 3 -0.668719 2.29035 9.18274 8.64802 O
335 2 0.0101508 -0.990559 12.5013 3.43217 H
39 4 1.07964 2.85979 8.38637 2.68737 Si
86 2 0.0980482 -0.0245353 10.41 9.22062 H
130 2 0.0295128 -5.14854 12.6946 1.73048 H
139 2 0.0894073 2.58502 6.61543 8.46765 H
194 1 -0.134002 -1.73566 8.2049 0.0955405 C
31 4 0.726346 2.08251 6.48768 4.97827 Si
183 2 0.0658814 -6.06839 9.10751 6.84585 H
22 4 0.31422 -2.87861 11.1673 14.2976 Si
69 2 0.242866 -2.85224 12.2408 10.8084 H
100 2 0.047265 -5.75816 12.3341 11.5349 H
191 1 -0.0786666 -6.23698 11.8308 10.6912 C
200 1 -0.0835914 -4.29109 9.70711 14.234 C
232 3 -0.704662 -4.93586 8.90196 10.7277 O
101 2 0.145235 -6.35848 10.7533 10.8503 H
263 3 -0.77737 -2.6267 9.4181 11.6824 O
310 2 0.0256479 -4.51771 9.67743 17.6423 H
20 4 1.18672 -3.37466 8.84387 10.3306 Si
125 2 0.115614 -4.23768 9.30136 13.2292 H
315 3 -0.707224 -6.92923 11.8539 17.1063 O
127 2 0.0205447 -3.95877 8.98762 14.9878 H
126 2 0.0575872 -5.20265 10.224 14.474 H
236 3 -0.703671 -3.67071 12.9372 13.4954 O
121 2 0.0380672 -3.10432 6.77335 12.6734 H
120 2 0.0541393 -2.45873 6.80681 14.3596 H
93 2 0.29766 -2.20928 6.89719 9.40928 H
99 2 0.0180616 -7.05448 12.3739 10.2568 H
237 3 -0.702736 -2.85712 12.362 9.80114 O
316 3 -0.788743 -7.05993 12.8617 14.6064 O
88 2 0.311955 -2.63667 11.4168 9.68992 H
313 1 -0.133104 -5.31003 9.2749 18.2346 C
132 2 0.0766225 -4.32738 12.6218 18.6181 H
198 1 -0.096496 -2.28578 7.00143 13.3401 C
337 2 0.0383686 -1.53927 11.7423 16.7584 H
338 2 0.0363088 -0.604377 11.9984 18.3309 H
248 3 -0.691133 0.023128 6.6764 11.5132 O
154 2 0.0637279 1.0765 7.43961 14.3533 H
344 2 0.129847 -0.307305 12.7582 9.75758 H
119 2 0.0874003 -1.7963 7.94122 13.1922 H
151 2 0.0864585 2.77094 7.42267 16.5477 H
141 2 0.0974282 3.19467 6.96813 10.1585 H
27 4 1.05676 -0.059868 12.5605 13.6616 Si
156 2 0.0766629 0.330706 9.08927 14.6598 H
266 3 -0.740889 0.13528 10.1794 11.2376 O
339 1 -0.109236 -0.726041 12.2231 17.2783 C
330 2 0.0307167 -1.06413 8.42357 17.6852 H
336 2 0.0921563 0.197985 12.2838 16.7121 H
155 2 0.10967 0.329174 8.38039 12.9838 H
320 2 -0.0113472 0.810178 9.64633 18.2277 H
264 3 -0.729137 -1.0971 10.626 13.561 O
210 1 -0.0945971 0.801104 8.41207 13.9592 C
43 4 0.998874 -1.29757 10.3513 12.0144 Si
25 4 0.274306 9.42429 1.62904 7.9307 Si
137 2 0.0589787 5.07418 6.1055 3.87092 H
157 2 0.0429699 10.0102 1.74712 5.51026 H
158 2 0.00744781 8.83966 1.95804 4.19493 H
159 2 0.0378829 9.64898 3.40342 4.90243 H
171 2 0.0331894 8.82089 4.81714 5.78494 H
172 2 0.035613 8.40825 6.33656 4.88889 H
211 1 -0.143565 9.65965 2.34123 4.70774 C
366 2 0.0828689 7.91394 3.661 1.059 H
368 2 0.0744885 8.81393 3.77974 2.63293 H
77 2 0.00420848 8.64276 2.92081 7.03693 H
369 1 -0.0914673 8.12942 4.23067 1.95159 C
357 2 0.119613 10.4275 2.27367 0.753415 H
56 4 0.311686 9.22669 5.91031 1.34208 Si
81 2 -0.0430421 6.8353 3.90378 7.25382 H
367 2 0.0246043 7.1874 4.66781 2.34891 H
282 3 -0.613418 10.7399 6.11163 1.93807 O
138 2 0.00595206 6.38561 4.97674 4.43397 H
216 1 -0.126809 8.68022 5.88172 5.82066 C
204 1 -0.129427 5.68055 5.75242 4.66393 C
269 3 -0.760836 10.8966 0.784583 2.47836 O
280 3 -0.779508 10.9907 3.47446 2.38739 O
350 2 0.0936749 15.7276 0.0928636 2.66841 H
161 2 0.0727063 9.68061 4.88551 9.01806 H
271 3 -0.583867 10.888 2.07946 8.43661 O
57 4 0.855731 12.5 4.65892 7.28464 Si
360 2 0.0445308 13.6801 4.31755 0.633255 H
170 2 0.0308365 8.06411 6.22628 6.63174 H
272 3 -0.833134 15.0373 2.22532 5.07108 O
355 2 0.0848453 13.7704 1.53965 8.83055 H
371 3 -0.737461 13.0576 0.579813 0.172274 O
274 3 -0.785075 13.1842 0.785571 6.41517 O
214 1 -0.10057 12.7529 4.64815 0.31389 C
47 4 1.11478 11.139 2.17247 3.30665 Si
273 3 -0.809185 12.5343 2.01158 4.1071 O
281 3 -0.660592 13.4098 4.91659 3.50742 O
349 2 0.00650362 16.1185 1.14708 1.25135 H
288 3 -0.731324 11.2863 5.71849 7.33769 O
3 2 0.349141 13.2255 4.13605 4.12503 H
284 3 -0.781396 12.9021 3.65235 6.06075 O
283 3 -0.685415 13.1842 4.16702 9.15733 O
348 2 0.091555 14.8422 1.66362 2.42535 H
351 1 -0.11373 15.3791 0.833864 1.95856 C
51 4 1.4386 13.4054 2.14985 5.50766 Si
55 4 0.838304 11.7711 4.86555 2.257 Si
76 2 0.0482683 9.60943 0.30138 6.8288 H
329 2 0.0369441 14.9665 2.387 0.0506171 H
82 2 0.314464 8.87069 1.97342 15.5439 H
163 2 0.0683818 9.42218 3.78821 13.6476 H
164 2 0.050799 8.82007 4.40389 12.0549 H
165 2 0.089121 9.96519 2.94054 12.1247 H
213 1 -0.0958011 9.22813 3.58057 12.6498 C
256 3 -0.739044 5.30409 5.83738 14.095 O
356 2 0.0942031 10.1876 2.59541 17.7556 H
278 3 -0.726417 8.64109 2.7238 16.209 O
318 2 0.355748 8.10794 3.09399 15.5821 H
162 2 0.0185493 10.4896 5.32872 10.6644 H
364 2 0.0706521 9.37782 5.03153 17.7073 H
347 2 0.100143 8.89564 1.60904 10.3309 H
362 1 -0.102683 9.57566 6.08119 17.959 C
252 3 -0.809593 6.68578 3.5866 13.8496 O
48 4 0.922236 12.5098 1.26386 17.6015 Si
212 1 -0.108137 10.0141 4.60346 9.98964 C
160 2 0.0398277 9.25511 4.00621 10.4513 H
92 2 0.321745 10.4533 0.681233 12.4614 H
358 2 0.0795369 10.2502 0.985852 18.6015 H
359 1 -0.065385 10.6819 1.97063 18.4585 C
117 2 0.0245416 11.0299 5.70897 12.4592 H
327 1 -0.108518 16.0876 2.59308 17.8286 C
346 1 -0.0244497 8.40141 0.990768 9.61569 C
285 3 -0.800048 6.57971 5.46938 9.41501 O
328 2 0.0685202 16.6759 1.70244 17.7714 H
354 1 -0.125139 14.1503 0.721892 9.42561 C
90 2 0.00223586 15.6184 0.685351 12.541 H
116 2 0.0427445 12.7731 6.09357 12.0618 H
353 2 0.0555316 15.1986 0.774303 9.64896 H
53 4 1.14742 11.6339 0.240734 14.7384 Si
60 4 0.668626 13.2917 2.5428 13.5621 Si
54 4 0.597778 13.1211 1.43487 11.2376 Si
72 2 0.279471 12.9527 4.92876 9.74826 H
290 3 -0.650063 13.8533 2.65779 12.039 O
52 4 0.549725 14.5678 0.596634 13.9367 Si
50 4 0.720075 11.4813 3.06368 9.59687 Si
279 3 -0.631853 11.6109 2.00049 10.8808 O
289 3 -0.683549 11.9409 1.79038 14.0963 O
275 3 -0.694908 15.1222 1.03614 15.3515 O
270 3 -0.695954 13.094 2.42537 16.7003 O
9 4 0.653216 14.6404 2.62452 16.259 Si
167 2 0.0705934 12.5446 4.17777 18.4349 H
29 4 1.03489 7.42784 2.4221 12.9997 Si
197 1 -0.127152 11.8633 6.4233 12.5297 C
361 2 0.0373146 10.5284 6.45143 17.6401 H
166 2 0.0298756 13.2839 5.85101 18.538 H
23 4 1.02399 1.32875 12.1719 2.26207 Si
46 4 1.08747 5.43197 12.4428 0.600262 Si
297 3 -0.668427 6.04293 8.34173 9.13331 O
62 4 1.06406 5.0554 10.5669 3.01173 Si
84 2 0.144683 4.36061 8.8825 7.30654 H
179 2 0.110435 3.56478 11.4317 4.79293 H
41 4 1.09816 1.8365 9.98306 0.249586 Si
219 1 -0.0475299 4.21366 12.055 4.20351 C
370 3 -0.651906 8.90022 12.1735 3.29505 O
261 3 -0.766311 1.55665 11.5153 0.750612 O
293 3 -0.776672 4.1159 9.25403 3.24007 O
294 3 -0.754679 5.12239 11.1375 1.5125 O
83 2 0.149 4.38633 8.30569 7.8923 H
299 3 -0.721306 3.87834 11.2874 7.70906 O
304 3 -0.776312 6.41512 11.9605 6.82719 O
259 3 -0.67415 1.64694 11.1782 3.51761 O
65 4 0.7533 3.0533 10.656 8.94634 Si
49 4 1.08941 4.96503 12.4781 7.3922 Si
181 2 0.0868227 5.14403 12.4539 4.62722 H
180 2 0.139552 3.64391 12.6122 3.50473 H
302 3 -0.761333 6.40752 10.2025 3.8266 O
85 2 0.308496 6.48499 9.23097 3.82902 H
187 2 0.0720718 9.14366 10.5318 8.4744 H
215 1 -0.0854264 8.08663 7.56842 1.91921 C
168 2 0.0837682 8.3136 8.37928 1.24919 H
365 2 0.0401969 7.06801 7.18254 1.9127 H
303 3 -0.71705 6.53972 9.36365 6.7713 O
220 1 -0.0956079 10.3598 8.55749 7.11585 C
124 2 0.103813 10.0719 9.56499 2.73452 H
287 3 -0.694508 11.3802 6.75253 4.81257 O
301 3 -0.719665 8.65317 10.8063 5.77046 O
221 1 -0.111481 8.43981 10.1097 9.15086 C
59 4 0.664823 10.5858 6.63171 6.21603 Si
64 4 0.67642 7.17665 8.84679 8.14967 Si
66 4 1.15925 7.00136 10.7355 5.96082 Si
98 2 -0.00867597 8.2192 7.5583 7.75733 H
169 2 0.0590743 8.49837 7.7042 2.91459 H
4 3 -0.674795 9.53537 10.6648 0.995923 O
136 2 0.0506336 6.03983 6.52853 5.28988 H
182 2 0.0643209 9.46844 8.93746 6.66793 H
184 2 0.0455053 10.3086 8.3133 8.13547 H
122 2 0.0675561 10.7381 8.98976 4.33411 H
19 4 0.669129 9.571 11.3194 4.55779 Si
67 4 1.26099 3.76255 10.5217 16.2857 Si
188 2 0.0763952 5.56573 10.2019 9.8119 H
189 2 0.132923 4.39094 9.10229 10.6887 H
190 2 0.060549 4.48636 10.8854 11.1454 H
222 1 -0.0672468 4.63438 10.1323 10.3809 C
267 3 -0.788148 2.61766 10.1393 12.2952 O