ITEM: TIMESTEP
0
ITEM: NUMBER OF ATOMS
371
ITEM: BOX BOUNDS xy xz yz pp pp pp
-8.8510000000000009e+00 1.7777500000000000e+01 -8.8510000000000009e+00
0.0000000000000000e+00 1.3020299999999999e+01 4.5889999999999997e-01
0.0000000000000000e+00 1.8640300000000000e+01 2.0540000000000000e-01
ITEM: ATOMS id type q x y z element
5 4 1.10986 -0.95753 3.06556 4.66472 Si
7 4 0.670743 0.159157 2.64885 7.29431 Si
11 4 0.901664 -0.303767 5.59709 3.46979 Si
14 4 1.07822 -1.43623 4.33153 8.78659 Si
223 3 -0.727834 -0.00904916 3.48619 5.91385 O
225 3 -0.764281 -0.777582 4.02059 3.32088 O
227 3 -0.686855 -1.04108 2.78944 8.35882 O
229 3 -0.694852 -1.84907 5.29657 7.51907 O
317 2 0.0729301 -1.00878 3.82197 1.16777 H
104 2 0.0148419 1.99336 2.48938 8.93699 H
2 2 0.23627 1.40756 1.79102 1.23527 H
70 2 0.0864393 -0.353088 3.67074 1.02885 H
16 4 0.863668 -3.07855 6.3531 7.36917 Si
80 2 0.370308 0.0624323 5.44434 5.83254 H
68 2 0.0332425 0.136122 0.929676 7.02716 H
71 2 -0.0138164 -2.02351 5.37446 0.105095 H
192 1 -0.093994 1.89796 3.19448 8.09036 C
102 2 0.0868794 1.72496 4.25116 8.3698 H
97 2 0.27754 1.3475 2.90997 2.46795 H
13 4 0.688283 -0.800573 6.40016 0.80629 Si
258 3 -0.678735 2.04539 2.40473 1.9192 O
333 2 0.0386624 1.97547 0.620226 5.62247 H
255 3 -0.673306 0.678179 5.98613 0.199664 O
244 3 -0.6612 0.0161879 6.36367 5.29633 O
324 2 0.0675151 3.81207 1.62366 8.72495 H
322 2 0.0114602 2.29284 0.71641 8.30628 H
89 2 0.0785662 3.23447 1.23625 3.18367 H
103 2 0.0601571 2.55244 3.07779 7.22147 H
35 4 0.616425 4.14862 4.81535 5.78836 Si
32 4 0.617134 2.99063 3.65991 0.546351 Si
343 1 -0.0831635 3.46432 5.47603 1.39789 C
245 3 -0.681594 4.36106 2.91713 0.166897 O
243 3 -0.648541 6.64284 1.71518 0.485168 O
342 2 0.0454385 4.50833 5.62552 1.17949 H
325 1 -0.113107 3.37074 0.755327 8.22608 C
341 2 0.097483 2.86353 6.24596 0.912878 H
203 1 -0.134692 5.35182 2.14813 3.24588 C
323 2 0.0419668 3.75144 0.573747 7.22682 H
133 2 0.024294 5.93141 3.0106 3.45998 H
135 2 0.0343878 4.24921 2.23813 3.49903 H
249 3 -0.653089 2.71503 5.26335 5.17878 O
340 2 0.107627 3.23121 5.32349 2.43919 H
134 2 0.0138296 5.82956 1.22536 3.47227 H
30 4 0.624747 5.15088 1.7248 1.03919 Si
250 3 -0.682322 4.42196 4.98376 7.39672 O
129 2 0.0569284 7.88477 0.606681 2.42171 H
33 4 0.984316 5.72604 4.43254 8.39681 Si
130 2 0.0510426 3.21813 0.036394 1.00816 H
345 2 0.0922071 7.29849 1.85413 8.97464 H
246 3 -0.772873 5.53183 2.96765 9.18025 O
139 2 0.0880048 2.53711 6.46184 8.42772 H
17 4 0.72372 -0.422331 4.49052 15.1351 Si
18 4 0.634907 -0.770619 6.03407 12.6258 Si
37 4 0.789207 1.38361 5.45828 17.3982 Si
73 2 0.0392396 -1.78237 4.86738 11.9116 H
110 2 0.0521035 0.641882 2.64086 10.3426 H
111 2 0.089224 0.951601 4.07404 11.4556 H
112 2 0.0403005 0.0813391 2.61577 12.0979 H
114 2 0.0622806 0.134999 2.16181 14.3295 H
115 2 0.0361805 0.0664683 2.27009 16.1064 H
195 1 -0.0992016 0.777075 3.00392 11.3566 C
196 1 -0.0903878 0.50323 2.68943 15.2119 C
231 3 -0.665112 0.0757649 5.24203 13.7854 O
253 3 -0.710361 0.144134 5.40189 16.4242 O
326 2 0.0413737 -0.760837 3.41627 17.7287 H
113 2 0.110631 1.56236 2.88634 15.2263 H
247 3 -0.791311 -0.204557 4.93436 9.64184 O
254 3 -0.666252 1.91239 3.57411 17.8974 O
78 2 0.299589 2.35823 3.23677 17.0357 H
144 2 0.0832755 1.94265 6.42629 12.5682 H
96 2 0.273113 -2.43664 4.89195 15.8936 H
34 4 0.9648 0.408675 6.44254 9.91838 Si
252 3 -0.806749 6.66873 3.32789 14.1404 O
143 2 0.0582146 2.70023 5.10048 11.6262 H
238 3 -0.76148 3.92133 3.07698 11.382 O
239 3 -0.778246 3.45479 1.58808 16.0768 O
319 2 0.345706 5.7813 0.553665 14.3879 H
206 1 -0.0905063 2.56729 5.59624 12.5545 C
205 1 -0.0759932 2.5224 6.25991 9.49049 C
140 2 0.071109 2.89985 5.26894 9.73505 H
142 2 0.0827745 2.5304 4.98014 13.4269 H
153 2 0.0807452 3.84897 5.90436 16.7255 H
224 3 -0.740921 2.8406 2.26417 13.6159 O
344 2 0.113258 8.06847 0.335224 9.54511 H
36 4 1.12181 5.40941 4.25074 14.4212 Si
10 4 0.613502 2.66956 2.29912 11.9894 Si
240 3 -0.723696 6.15753 1.56868 16.4729 O
251 3 -0.783944 4.62202 3.87085 15.7895 O
242 3 -0.763424 7.78095 0.979156 13.6891 O
8 4 1.18333 3.1683 1.0219 14.5725 Si
241 3 -0.827611 6.69283 2.2445 11.5688 O
24 4 0.756677 7.40362 1.39378 17.5195 Si
26 4 1.0833 5.34242 2.7162 10.766 Si
28 4 1.15664 4.75817 2.41674 16.5997 Si
69 2 0.214657 5.39912 0.304634 10.7902 H
209 1 -0.0827777 2.97227 6.53845 16.5729 C
321 2 0.300426 5.96513 0.356158 12.9161 H
152 2 0.0612212 2.71547 6.5762 15.5154 H
12 4 0.910267 -4.21651 6.67499 4.57235 Si
21 4 0.654805 -3.62694 10.2531 7.77285 Si
74 2 0.0535577 -4.12173 8.97922 6.68748 H
105 2 0.0217233 -3.42926 8.96462 3.74992 H
106 2 0.0421771 -4.36515 8.19778 2.37669 H
107 2 0.0881425 -2.70846 7.55838 2.78989 H
202 1 -0.122603 -4.57495 12.6564 1.048 C
193 1 -0.118693 -3.58159 8.08293 3.11628 C
208 1 -0.138778 -2.55405 11.3571 6.38545 C
228 3 -0.739729 -3.51291 7.02199 5.97599 O
234 3 -0.706641 -2.83387 9.60597 9.02432 O
235 3 -0.628288 -5.05743 10.9057 8.09008 O
332 2 0.0655302 -6.00911 11.9808 6.2802 H
334 1 -0.127253 -6.31124 12.5475 5.40512 C
331 2 0.00974904 -5.55409 12.5985 4.65036 H
132 2 0.0473587 -4.1863 12.3263 0.0943876 H
131 2 0.0119402 -4.23099 12.1108 1.90983 H
109 2 0.014983 -2.64001 7.72444 0.305803 H
148 2 0.00874615 -2.99428 11.1164 5.4304 H
123 2 0.0193206 -5.67179 10.254 3.48805 H
150 2 0.034678 -2.80319 12.3592 6.74182 H
370 3 -0.666516 -8.25265 12.2651 3.26428 O
199 1 -0.0967537 -6.53442 9.72914 3.8447 C
6 4 0.425596 -4.85637 12.0797 9.22394 Si
1 4 0.661729 -8.0949 12.0442 1.69487 Si
75 2 0.0061782 -2.67512 10.3175 2.48077 H
19 4 0.672105 -7.68858 11.3753 4.50382 Si
40 4 0.251855 1.26488 9.61373 4.17878 Si
226 3 -0.715133 -0.895903 6.5783 2.38757 O
147 2 0.0361781 -1.25299 9.6153 5.02858 H
201 1 -0.147112 -0.914668 12.3479 2.40902 C
108 2 0.0356682 -1.25354 8.81639 0.478857 H
79 2 0.00254071 2.71818 7.74723 6.1831 H
42 4 0.670007 0.51532 9.1766 8.45074 Si
149 2 0.0236021 -1.5329 11.0876 6.54356 H
260 3 -0.75795 1.83769 8.76617 1.29122 O
31 4 0.789324 2.03727 6.68598 4.94891 Si
207 1 -0.0931141 -0.767821 9.23606 4.15343 C
87 2 -0.00212559 0.260616 9.34476 6.76561 H
145 2 0.111922 -0.748571 8.15328 4.11575 H
146 2 0.0298306 -1.11547 9.69773 3.23885 H
128 2 0.0253519 -1.30722 11.9329 1.48908 H
262 3 -0.643728 -0.100068 7.78065 9.06451 O
257 3 -0.744477 2.5696 7.04165 3.47614 O
298 3 -0.666718 2.16136 9.31918 8.66428 O
335 2 0.00822479 -1.27311 11.8944 3.31352 H
39 4 1.08411 2.80148 8.38437 2.54748 Si
86 2 0.11675 -0.375391 10.4629 9.2696 H
22 4 0.286427 -2.81493 11.0143 14.4282 Si
312 2 0.0427724 -4.54994 10.1372 18.0841 H
100 2 0.0699184 -5.41451 11.788 11.7472 H
191 1 -0.079065 -6.09953 11.713 10.9219 C
200 1 -0.0926974 -4.22616 9.58373 14.3118 C
232 3 -0.728635 -4.96641 9.0105 10.7184 O
101 2 0.129324 -6.40031 10.6939 10.708 H
263 3 -0.764606 -2.40438 9.19313 11.543 O
310 2 0.0212815 -5.33474 9.20035 16.7494 H
20 4 1.18315 -3.38446 8.76734 10.3207 Si
125 2 0.084649 -4.32899 9.31127 13.2594 H
315 3 -0.713327 -6.79739 11.7152 17.2055 O
127 2 0.0217288 -3.81861 8.77545 14.8958 H
126 2 0.059102 -5.13243 9.99821 14.7401 H
236 3 -0.725809 -3.53941 12.8621 13.6868 O
121 2 0.0620717 -2.80432 7.36384 12.7365 H
120 2 0.0469022 -2.34497 6.65266 14.3055 H
93 2 0.278306 -2.37813 6.65823 9.52375 H
99 2 0.00929325 -6.94638 12.4371 10.986 H
237 3 -0.675806 -2.97655 12.4789 10.0445 O
316 3 -0.802245 -6.79033 12.7203 14.6817 O
88 2 0.279576 -2.65542 11.7051 10.4931 H
313 1 -0.131459 -5.25661 9.36229 17.8301 C
311 2 0.0332474 -5.21017 8.4737 18.4425 H
198 1 -0.0935434 -2.06207 7.27997 13.4789 C
314 4 1.13751 -7.67485 12.0929 15.9151 Si
233 3 -0.711685 -3.32756 6.81834 9.32913 O
248 3 -0.669322 0.175826 6.78545 11.5282 O
154 2 0.0685591 1.07514 7.32749 14.3757 H
194 1 -0.12783 -1.18896 8.17738 18.6003 C
119 2 0.0735282 -1.67127 8.21212 13.8006 H
151 2 0.0905447 2.96679 7.49507 17.0241 H
141 2 0.0821224 2.93358 7.08967 10.0853 H
27 4 1.08382 0.0157514 12.636 13.5797 Si
156 2 0.0714604 0.390103 8.98415 14.8265 H
266 3 -0.724253 0.0392047 10.2468 11.1958 O
339 1 -0.115125 -0.660753 12.1944 17.3719 C
330 2 0.0335558 -1.0408 8.11607 17.5386 H
336 2 0.100794 -0.0881722 12.2085 16.4491 H
155 2 0.107244 0.416951 8.48878 13.0904 H
320 2 -0.0354131 0.702672 10.0357 18.1574 H
264 3 -0.700588 -0.984866 10.7084 13.5985 O
210 1 -0.0926595 0.851305 8.35221 14.0743 C
43 4 0.979129 -1.37975 10.3944 12.008 Si
337 2 0.0226516 -1.5202 11.535 17.2844 H
45 4 0.960417 1.46122 10.9267 11.4417 Si
338 2 0.0297591 -0.0602719 12.0635 18.2571 H
38 4 1.12675 4.41368 6.69033 12.8326 Si
25 4 0.268471 9.57475 1.52965 8.0124 Si
137 2 0.0524968 5.24434 5.74284 3.72727 H
157 2 0.0636186 10.5649 1.51733 5.69779 H
158 2 0.0148313 9.00635 1.53188 4.6661 H
159 2 0.0343185 9.77124 3.09807 5.19028 H
171 2 0.0318385 8.80319 4.86478 5.66034 H
172 2 0.052196 8.857 6.09531 4.37554 H
211 1 -0.141535 9.91312 2.05494 5.01687 C
366 2 0.0991878 8.31359 3.4382 1.36698 H
368 2 0.0509045 8.36351 4.22272 3.00728 H
77 2 0.00575837 8.79333 2.54998 6.88788 H
369 1 -0.0817201 8.01638 4.27521 1.96358 C
357 2 0.124936 10.6209 2.18106 0.6232 H
56 4 0.319595 9.19074 5.9239 1.26332 Si
81 2 -0.0355189 6.91914 4.1937 7.20109 H
367 2 0.0415459 7.00204 4.5388 1.80483 H
282 3 -0.626142 10.6257 6.03648 1.95307 O
138 2 0.00260254 6.37136 4.68015 4.66136 H
216 1 -0.125517 8.78609 5.90864 5.4328 C
204 1 -0.128796 5.69897 5.50823 4.67536 C
269 3 -0.740353 10.7547 0.783798 2.51269 O
280 3 -0.75059 10.8765 3.36017 2.54352 O
136 2 0.0523014 6.04134 6.34168 5.2406 H
161 2 0.0740341 10.1167 5.44937 9.21848 H
271 3 -0.572083 10.9853 2.21463 8.42644 O
57 4 0.846874 12.5046 4.63116 7.3238 Si
360 2 0.0677696 13.977 4.24329 1.21309 H
166 2 0.0284879 13.1415 5.53445 0.331469 H
272 3 -0.775762 15.0872 2.15764 5.06128 O
355 2 0.119199 13.7711 1.55906 8.91125 H
371 3 -0.733485 13.0281 0.523984 0.212325 O
274 3 -0.751829 13.077 0.869442 6.52154 O
214 1 -0.0964061 13.0553 4.56968 0.709394 C
47 4 1.10784 11.184 2.04925 3.40489 Si
273 3 -0.770259 12.6625 2.0964 4.02684 O
281 3 -0.650885 13.2142 4.92316 3.63077 O
349 2 0.0191123 16.1934 1.05114 1.61237 H
288 3 -0.720925 11.2163 5.62262 7.26381 O
3 2 0.355399 12.8995 4.16418 4.27147 H
284 3 -0.758999 13.2258 3.74035 6.16555 O
283 3 -0.665175 13.1758 3.83846 9.07637 O
348 2 0.0897342 14.4622 1.52259 2.12669 H
351 1 -0.102503 15.2318 0.770535 2.06727 C
51 4 1.36154 13.5355 2.2138 5.5841 Si
55 4 0.829025 11.6163 4.80458 2.30775 Si
167 2 0.0818602 12.6578 3.88096 0.029792 H
350 2 0.0861816 15.3388 0.136494 2.93982 H
329 2 0.051178 14.7202 2.48892 0.0057809 H
82 2 0.301078 8.85185 2.41961 15.5682 H
163 2 0.0673093 9.5409 3.66242 13.8746 H
164 2 0.0326753 8.79843 4.31259 12.3003 H
165 2 0.0763511 9.80722 2.83378 12.2347 H
213 1 -0.103176 9.22117 3.47128 12.808 C
256 3 -0.788184 5.3846 5.70835 13.6264 O
356 2 0.0917424 10.4701 2.75021 17.6221 H
278 3 -0.696635 8.53188 2.87914 16.4488 O
318 2 0.347616 7.93084 3.36875 15.9575 H
162 2 0.027703 9.99899 5.0891 10.9504 H
364 2 0.0584028 10.059 5.27303 17.5619 H
347 2 0.101064 8.4493 1.95351 10.3133 H
362 1 -0.107405 9.64341 6.22526 17.8373 C
363 2 0.0407266 8.59126 6.35622 17.6018 H
175 2 0.0980716 7.49411 6.51045 13.9596 H
212 1 -0.116361 9.85408 4.71259 9.96457 C
160 2 0.0523044 8.90035 4.19738 9.80436 H
92 2 0.333603 10.298 0.857113 11.8028 H
358 2 0.0685488 10.1942 1.08811 18.3756 H
359 1 -0.0579448 10.7706 1.97178 18.3154 C
117 2 0.0274226 10.8008 6.13754 12.8474 H
29 4 1.06802 7.39822 2.44392 12.9673 Si
346 1 -0.0385921 8.14395 1.4089 9.43741 C
285 3 -0.794345 6.33748 5.50668 9.42231 O
230 3 -0.670493 14.8319 4.29628 15.156 O
354 1 -0.12006 14.2106 0.732052 9.48276 C
90 2 -0.00479002 15.7231 0.544088 12.461 H
116 2 0.0401364 12.2512 5.99692 11.815 H
353 2 0.051506 15.258 0.760441 9.71568 H
53 4 1.16283 11.5895 0.506088 14.6945 Si
60 4 0.662221 13.4227 2.60635 13.5814 Si
54 4 0.634545 13.1209 1.43889 11.2118 Si
72 2 0.265461 13.3511 4.70734 9.54593 H
290 3 -0.65055 13.8559 2.62964 11.9919 O
52 4 0.524245 14.5884 0.458755 13.7674 Si
50 4 0.733897 11.3794 3.13774 9.73584 Si
279 3 -0.659768 11.6253 2.01503 10.9369 O
289 3 -0.7098 11.9631 1.96803 14.0704 O
275 3 -0.672678 15.3689 0.800745 15.1594 O
270 3 -0.669859 13.2706 2.63491 16.9354 O
9 4 0.566262 14.6992 2.51522 16.1397 Si
48 4 0.874355 12.6283 1.29989 17.6021 Si
328 2 0.0522961 16.3326 1.6188 17.7736 H
327 1 -0.108535 15.8741 2.59756 17.8675 C
23 4 0.982585 1.24918 12.0694 2.39748 Si
46 4 1.06693 5.37984 12.3198 0.574881 Si
297 3 -0.675702 6.1141 8.44246 9.14344 O
62 4 1.03356 4.99738 10.5064 3.03048 Si
84 2 0.115041 4.43866 8.99244 7.04069 H
179 2 0.102082 3.59285 11.602 4.98084 H
41 4 1.08512 1.79031 10.0057 0.195694 Si
219 1 -0.0704942 4.14596 12.0443 4.1479 C
76 2 0.0696811 1.02258 12.7067 7.41695 H
261 3 -0.725288 1.76164 11.4257 0.969398 O
293 3 -0.752133 4.15211 9.13146 3.09889 O
294 3 -0.686453 5.02025 10.9639 1.44219 O
83 2 0.128564 4.77291 8.5588 7.35548 H
299 3 -0.736974 4.00353 11.2146 7.66758 O
304 3 -0.792855 6.41134 12.0417 6.67259 O
259 3 -0.664796 1.65468 11.124 3.6624 O
65 4 0.766773 3.11296 10.631 8.94785 Si
49 4 1.04753 4.95841 12.4734 7.35997 Si
181 2 0.0765249 4.99967 12.6258 4.45178 H
180 2 0.123026 3.49887 12.5025 3.42014 H
302 3 -0.775873 6.46599 10.3676 3.66206 O
85 2 0.313411 6.94003 9.51444 3.42782 H
187 2 0.071208 8.96727 10.7444 8.11932 H
215 1 -0.0867626 8.0787 7.55209 2.04547 C
168 2 0.09227 8.61244 8.37324 1.53666 H
365 2 0.0480651 7.04947 7.40563 1.7515 H
303 3 -0.734223 6.81693 9.43928 6.5867 O
220 1 -0.0925128 10.3371 8.58943 6.87925 C
124 2 0.0883912 10.1537 9.29189 3.09458 H
287 3 -0.692142 11.5134 6.83478 4.77416 O
301 3 -0.715333 8.55765 10.8019 5.59577 O
221 1 -0.110269 8.33754 10.5011 8.98637 C
59 4 0.652881 10.6174 6.61536 6.10047 Si
64 4 0.658398 7.22337 9.01879 8.15398 Si
66 4 1.23694 6.94426 10.813 5.79848 Si
98 2 0.00760929 8.39367 7.70194 8.02931 H
169 2 0.0489266 8.23852 7.53337 3.10787 H
4 3 -0.635967 9.37973 10.5227 1.0662 O
183 2 0.0598302 11.1152 9.09056 6.37315 H
182 2 0.072701 9.3457 8.83578 6.52943 H
184 2 0.0527101 10.4393 8.5696 7.96677 H
122 2 0.0678357 11.0022 9.07081 4.67782 H
170 2 0.0317838 8.04913 6.49158 5.96618 H
67 4 1.32083 3.83433 10.6385 16.1979 Si
188 2 0.0719715 5.47806 10.2389 9.88426 H
189 2 0.125982 4.30143 9.11631 10.7156 H
190 2 0.0680179 4.42586 10.8518 11.2772 H
222 1 -0.0709579 4.54061 10.1348 10.4507 C
267 3 -0.792125 2.5595 10.0669 12.2204 O
300 3 -0.677743 1.8772 12.0579 9.72056 O
305 3 -0.817716 2.9403 10.1449 14.9462 O
306 3 -0.802446 5.45817 10.7722 16.0104 O
307 3 -0.710178 4.3645 12.3535 13.4853 O
308 3 -0.765566 3.39551 10.1157 17.6411 O
95 2 0.314789 4.4277 11.4423 13.9809 H
63 4 1.26483 6.65351 11.8163 16.3637 Si
58 4 1.29582 6.3541 6.88355 10.2921 Si
286 3 -0.807097 5.18721 6.96322 11.4673 O
277 3 -0.745422 3.48785 12.7888 16.0412 O
265 3 -0.769039 3.8397 7.99326 13.6498 O
268 3 -0.742082 0.695415 12.9318 12.01 O
276 3 -0.771543 1.1568 12.9139 14.7522 O
44 4 1.06833 2.73614 9.22452 13.6173 Si
176 2 0.0579216 6.28896 9.49706 12.1921 H
352 2 -0.0258163 4.8524 12.6127 9.53217 H
91 2 0.316246 2.3078 12.8359 10.1294 H
197 1 -0.126705 11.6657 6.61734 12.4725 C
309 4 0.625219 10.3101 10.3954 18.1423 Si
94 2 0.0228063 10.5215 7.50086 9.76017 H
217 1 -0.0975104 8.37134 7.13321 14.0159 C
185 2 0.0553156 8.85046 9.97102 9.76902 H
361 2 0.0291603 10.2737 7.08417 17.5812 H
177 2 0.0369323 7.50593 10.7239 11.7422 H
296 3 -0.781071 6.80881 12.1466 17.9451 O
291 3 -0.660995 9.81108 8.85203 11.9315 O
178 2 0.0822103 7.35397 10.1537 13.492 H
61 4 0.64483 8.32176 8.23762 12.1723 Si
15 4 0.65452 11.0674 8.14716 11.2355 Si
173 2 0.0542161 8.38262 7.799 14.8493 H
295 3 -0.780818 8.17207 11.4813 15.7473 O
118 2 0.0327254 12.2986 7.11402 13.2369 H
218 1 -0.0949476 7.23175 9.94948 12.4411 C
292 3 -0.727448 7.82663 7.321 10.8938 O
174 2 0.0285877 9.30713 6.59076 13.9418 H
186 2 0.0337507 7.65594 11.2674 9.34636 H
ITEM: TIMESTEP
100
ITEM: NUMBER OF ATOMS
371
ITEM: BOX BOUNDS xy xz yz pp pp pp
-8.8510000000000009e+00 1.7777500000000000e+01 -8.8510000000000009e+00
0.0000000000000000e+00 1.3020299999999999e+01 4.5889999999999997e-01
0.0000000000000000e+00 1.9013106000000001e+01 2.0540000000000000e-01
ITEM: ATOMS id type q x y z element
5 4 1.28837 -1.09169 3.22098 4.83862 Si
7 4 0.687936 0.270882 2.59073 7.30191 Si
11 4 0.915756 -0.170742 5.57173 3.43033 Si
14 4 1.17043 -1.37417 4.32652 8.59116 Si
223 3 -0.759463 0.0415323 3.36691 5.91648 O
225 3 -0.820923 -0.803707 4.10134 3.56414 O
227 3 -0.736611 -0.929108 2.82889 8.34185 O
229 3 -0.755576 -1.88651 5.18598 7.28928 O
317 2 0.0750442 -0.254034 3.18079 1.51259 H
104 2 0.0387992 2.01872 3.23135 8.95113 H
2 2 0.247911 1.3235 1.9018 1.25145 H
70 2 0.0835075 -0.0596301 3.79563 1.24154 H
16 4 0.828493 -2.98739 6.37893 7.31006 Si
80 2 0.368406 -0.506554 5.97877 5.95721 H
68 2 0.012673 0.607452 0.876579 7.23016 H
71 2 -0.00174121 -2.08756 5.4414 0.407165 H
192 1 -0.0742863 2.06298 3.36428 7.90417 C
102 2 0.124806 1.83033 4.34803 7.57697 H
97 2 0.231247 1.56743 3.364 2.31948 H
33 4 1.12933 5.74674 4.45222 8.5152 Si
258 3 -0.653596 2.02268 2.46427 1.83713 O
333 2 0.0304966 2.27681 0.531094 5.58262 H
255 3 -0.697437 0.524555 6.05579 0.212425 O
246 3 -0.82486 5.35 3.11762 9.18766 O
324 2 0.0140583 2.96913 1.51042 9.20213 H
322 2 0.022896 2.87323 0.837475 7.52989 H
89 2 0.0945068 2.32151 2.29028 4.58748 H
103 2 0.0505507 2.79956 2.85586 7.30186 H
35 4 0.577893 4.25872 4.87268 5.96542 Si
32 4 0.546837 3.04722 3.5543 0.414976 Si
343 1 -0.0743572 3.21872 5.4433 1.22354 C
245 3 -0.672659 4.54377 2.91164 0.255801 O
243 3 -0.696243 6.85969 1.52732 0.298541 O
342 2 0.0588983 3.65689 6.04771 0.446553 H
325 1 -0.110298 3.49075 1.07111 8.38012 C
341 2 0.115002 2.20174 5.69254 1.39986 H
203 1 -0.133149 5.50692 2.34911 3.10146 C
323 2 0.0878353 4.46156 1.49518 8.13831 H
133 2 0.0239816 6.60008 2.25313 3.17664 H
135 2 0.0391772 5.09071 3.33015 3.00387 H
249 3 -0.623892 2.6901 5.00627 5.51702 O
340 2 0.0662422 3.83899 5.25823 2.10359 H
134 2 0.0178367 4.94513 1.71672 3.78703 H
30 4 0.617217 5.33501 1.69162 1.00252 Si
250 3 -0.715989 4.56196 5.0699 7.5692 O
129 2 0.0741823 8.05819 0.66413 1.88075 H
17 4 0.787264 -0.312919 4.59606 15.1403 Si
18 4 0.643143 -0.805068 5.87887 12.6408 Si
37 4 0.786458 1.35487 5.48307 17.496 Si
73 2 0.044489 -1.63858 4.62039 11.8618 H
110 2 0.0336037 0.626529 2.62002 10.8146 H
111 2 0.0644703 1.32914 4.2645 11.198 H
112 2 0.0516427 0.565799 3.30146 12.5212 H
114 2 0.046326 -0.558153 2.39412 14.2217 H
115 2 0.0446069 0.21448 2.23517 15.8591 H
195 1 -0.10274 1.07136 3.28328 11.5655 C
196 1 -0.112732 0.215385 2.69878 14.8925 C
231 3 -0.691988 0.194986 5.33023 13.8272 O
253 3 -0.712203 0.0805114 5.38173 16.5177 O
326 2 0.058358 -0.774037 3.56908 17.7213 H
113 2 0.0757653 1.21081 2.7994 14.4816 H
247 3 -0.800914 -0.239735 5.07603 9.43259 O
254 3 -0.673444 1.81793 3.53592 17.867 O
78 2 0.290501 2.24487 3.08894 17.0715 H
144 2 0.0788887 2.02773 6.26393 12.3086 H
230 3 -0.67874 -2.36017 4.38501 15.2233 O
34 4 0.993432 0.466011 6.46026 9.91018 Si
96 2 0.266084 -2.62589 4.82664 16.0246 H
143 2 0.0826409 3.09493 5.02793 11.6372 H
238 3 -0.722075 4.01149 3.15494 11.5053 O
239 3 -0.805963 3.52339 1.56169 16.1225 O
319 2 0.313354 5.59747 0.747954 14.2507 H
206 1 -0.0910476 2.80816 5.56799 12.5072 C
205 1 -0.0745811 2.63958 6.309 9.51319 C
140 2 0.0638775 2.85331 5.26459 9.68501 H
142 2 0.0666002 2.73398 4.95701 13.3783 H
153 2 0.0747246 3.88181 6.0876 17.1255 H
224 3 -0.724731 3.12294 2.28324 13.6575 O
152 2 0.0676517 3.0682 5.8596 15.5982 H
36 4 1.18522 5.3062 4.17607 14.3125 Si
10 4 0.56378 2.74325 2.266 12.0441 Si
240 3 -0.767525 6.06222 1.48346 16.6071 O
251 3 -0.8003 4.96013 3.814 15.8232 O
242 3 -0.753889 7.71066 1.01072 13.8485 O
8 4 1.14476 3.07235 1.00588 14.6391 Si
241 3 -0.786264 6.5963 2.05981 11.6309 O
24 4 0.869648 7.46805 1.45467 17.4098 Si
26 4 1.05741 5.30155 2.5945 10.7497 Si
28 4 1.23065 4.76212 2.41201 16.6306 Si
321 2 0.314252 5.86514 0.322571 12.7628 H
209 1 -0.0780408 3.03833 6.34863 16.5363 C
345 2 0.0945183 7.37193 1.31777 9.43431 H
12 4 0.868711 -4.34743 6.58884 4.60154 Si
21 4 0.601727 -3.92517 10.0266 7.66216 Si
74 2 0.06371 -4.14075 8.5291 6.83271 H
105 2 0.0285058 -3.63363 8.93613 3.77371 H
106 2 0.0557765 -4.84606 8.24593 2.65282 H
107 2 0.0693011 -3.1065 7.66432 2.59438 H
202 1 -0.119683 -4.3786 12.588 0.975447 C
193 1 -0.104931 -3.92153 8.09852 3.18543 C
208 1 -0.128219 -2.62465 10.9898 6.42511 C
228 3 -0.734538 -3.45256 7.02982 5.89585 O
234 3 -0.728822 -2.96807 9.64956 8.98084 O
235 3 -0.629832 -5.23496 10.8959 8.03889 O
332 2 0.0832748 -6.0042 11.7722 6.2721 H
334 1 -0.126033 -6.22199 12.3455 5.39861 C
331 2 0.0113326 -5.43298 12.3671 4.65857 H
13 4 0.701899 -0.87105 6.57005 0.794867 Si
131 2 0.0190204 -3.50935 12.0047 1.22708 H
109 2 0.0182177 -2.77222 8.21131 0.244527 H
148 2 0.0125655 -2.76657 10.4259 5.50705 H
123 2 0.0190433 -5.68606 10.2331 3.34688 H
150 2 0.0248466 -3.01531 11.9875 6.39951 H
244 3 -0.669799 -0.00719439 6.47463 5.17323 O
199 1 -0.101277 -6.63648 9.77787 3.60939 C
6 4 0.439106 -4.84208 12.0565 9.10096 Si
1 4 0.656743 -8.02762 12.122 1.74929 Si
75 2 0.00566699 -3.79077 11.1347 2.62594 H
233 3 -0.693391 -3.1817 6.99535 9.25058 O
40 4 0.286588 1.27184 9.7516 4.18445 Si
226 3 -0.675459 -0.808374 6.69955 2.40214 O
147 2 0.019927 -1.04345 10.179 4.63591 H
201 1 -0.141363 -0.794303 12.5202 2.37028 C
108 2 0.0302739 -1.24256 8.95571 0.608637 H
79 2 0.00333302 2.64895 7.6107 6.07284 H
42 4 0.648068 0.648595 9.03193 8.40588 Si
149 2 0.0426278 -1.67578 10.8408 6.94849 H
260 3 -0.756763 2.0173 8.80883 1.34993 O
312 2 0.0443438 -5.45405 9.01363 0.619451 H
207 1 -0.0886992 -0.705298 9.28863 4.10119 C
87 2 -0.000875732 0.128989 9.30084 6.75661 H
145 2 0.119137 -0.914287 8.35693 4.64689 H
146 2 0.0581362 -0.861784 9.29229 3.02802 H
128 2 0.019441 -1.15666 11.6745 1.82051 H
262 3 -0.682334 -0.038625 7.63206 8.8922 O
257 3 -0.743809 2.595 6.9428 3.47398 O
298 3 -0.6687 2.2904 9.18269 8.64801 O
335 2 0.0101046 -0.990331 12.5015 3.43207 H
39 4 1.07965 2.85977 8.38618 2.68746 Si
86 2 0.0973086 -0.0239758 10.4095 9.22095 H
130 2 0.0293347 -5.13636 12.6731 1.74471 H
139 2 0.0894069 2.58494 6.61544 8.46768 H
194 1 -0.134048 -1.73686 8.19847 0.0208131 C
31 4 0.726595 2.08246 6.48764 4.97828 Si
183 2 0.0658803 -6.06844 9.10756 6.84584 H
22 4 0.314461 -2.87853 11.1673 14.2975 Si
69 2 0.242705 -2.8389 12.1722 10.8026 H
100 2 0.047724 -5.75856 12.3344 11.5345 H
191 1 -0.0783517 -6.23726 11.8308 10.6909 C
200 1 -0.0835515 -4.29101 9.7071 14.2337 C
232 3 -0.704577 -4.9358 8.90201 10.7278 O
101 2 0.145299 -6.35831 10.7534 10.85 H
263 3 -0.777331 -2.62688 9.41797 11.6828 O
310 2 0.0252859 -4.53432 9.65669 17.599 H
20 4 1.1872 -3.37461 8.84406 10.3304 Si
125 2 0.115703 -4.23784 9.30167 13.2289 H
315 3 -0.707379 -6.93007 11.8543 17.1065 O
127 2 0.0205094 -3.95839 8.98734 14.9871 H
126 2 0.0575883 -5.20255 10.2237 14.4742 H
236 3 -0.703549 -3.67082 12.9372 13.4953 O
121 2 0.0380703 -3.10429 6.77328 12.6734 H
120 2 0.0541154 -2.45874 6.80675 14.3596 H
93 2 0.297654 -2.20928 6.89727 9.40925 H
99 2 0.018049 -7.05485 12.3736 10.2562 H
237 3 -0.703078 -2.85893 12.3555 9.80668 O
316 3 -0.788848 -7.06004 12.8616 14.6064 O
88 2 0.311864 -2.61779 11.4223 9.65193 H
313 1 -0.13327 -5.31075 9.27528 18.2226 C
132 2 0.0764902 -4.32519 12.621 18.6203 H
198 1 -0.0965012 -2.28577 7.00136 13.3401 C
337 2 0.0384083 -1.53923 11.7426 16.7585 H
338 2 0.0362913 -0.604264 11.9978 18.3311 H
248 3 -0.691169 0.0231253 6.67629 11.5133 O
154 2 0.0636831 1.07651 7.43963 14.3533 H
344 2 0.128803 -0.309292 12.7563 9.7539 H
119 2 0.0874246 -1.79625 7.94113 13.1923 H
151 2 0.0863893 2.77092 7.42267 16.5477 H
141 2 0.0974307 3.19464 6.96812 10.1585 H
27 4 1.05699 -0.059953 12.5604 13.6615 Si
156 2 0.0765668 0.330723 9.08933 14.6597 H
266 3 -0.740888 0.135434 10.1792 11.2377 O
339 1 -0.109268 -0.726079 12.2232 17.2787 C
330 2 0.0327615 -1.04743 8.40887 17.6056 H
336 2 0.0921023 0.197895 12.2844 16.7125 H
155 2 0.109724 0.32916 8.3803 12.9838 H
320 2 -0.0111572 0.815531 9.65485 18.2033 H
264 3 -0.728964 -1.09714 10.6259 13.5608 O
210 1 -0.0946197 0.801106 8.41206 13.9592 C
43 4 0.997937 -1.29757 10.3512 12.0142 Si
25 4 0.273854 9.42342 1.63168 7.93071 Si
137 2 0.0589882 5.07417 6.10553 3.87094 H
157 2 0.0429719 10.0125 1.75043 5.51065 H
158 2 0.00740484 8.83996 1.95637 4.19602 H
159 2 0.0378205 9.64721 3.4045 4.90007 H
171 2 0.0331612 8.82092 4.81717 5.78486 H
172 2 0.0356082 8.40822 6.33663 4.88893 H
211 1 -0.143649 9.65975 2.34208 4.70728 C
366 2 0.0828909 7.91365 3.66083 1.05928 H
368 2 0.0744905 8.81401 3.77974 2.63283 H
77 2 0.00429105 8.64142 2.93296 7.0485 H
369 1 -0.0914506 8.12941 4.23063 1.95155 C
357 2 0.119661 10.4273 2.2733 0.753725 H
56 4 0.311656 9.22648 5.9104 1.34197 Si
81 2 -0.0431467 6.83473 3.90393 7.25353 H
367 2 0.0246048 7.18748 4.66785 2.34901 H
282 3 -0.613362 10.7397 6.11183 1.93793 O
138 2 0.00593765 6.38555 4.97668 4.43391 H
216 1 -0.126812 8.68022 5.88173 5.82066 C
204 1 -0.129426 5.68055 5.7524 4.66392 C
269 3 -0.760918 10.8966 0.784619 2.47837 O
280 3 -0.779326 10.9908 3.47452 2.38725 O
76 2 0.0479342 9.60755 0.304639 6.81459 H
161 2 0.0727302 9.68068 4.88555 9.0181 H
271 3 -0.583646 10.8881 2.08027 8.4369 O
57 4 0.855834 12.5001 4.65895 7.28465 Si
360 2 0.0446572 13.6875 4.32101 0.62748 H
350 2 0.0936038 15.7289 0.0923225 2.66661 H
272 3 -0.833094 15.0373 2.22534 5.07107 O
355 2 0.0848588 13.7703 1.53972 8.83087 H
371 3 -0.737393 13.0575 0.579918 0.17238 O
274 3 -0.785043 13.1842 0.785552 6.41521 O
214 1 -0.100505 12.7533 4.64668 0.325093 C
47 4 1.11477 11.1389 2.17236 3.30661 Si
273 3 -0.809148 12.5343 2.01158 4.1071 O
281 3 -0.660491 13.4105 4.91653 3.50797 O
349 2 0.00679934 16.1172 1.14864 1.25077 H
288 3 -0.731324 11.2863 5.71849 7.33769 O
3 2 0.349109 13.2254 4.13592 4.12524 H
284 3 -0.781384 12.9021 3.65236 6.06074 O
283 3 -0.68541 13.1845 4.16717 9.15724 O
348 2 0.0916912 14.8408 1.66185 2.42643 H
351 1 -0.113618 15.3785 0.833472 1.95791 C
51 4 1.43853 13.4054 2.14985 5.50768 Si
55 4 0.838175 11.7712 4.86604 2.25827 Si
170 2 0.0308365 8.06411 6.22623 6.63176 H
329 2 0.0368167 14.9852 2.39596 0.0604172 H
82 2 0.314433 8.86982 1.97278 15.5447 H
163 2 0.0683297 9.42239 3.78828 13.6477 H
164 2 0.0508645 8.8201 4.4039 12.055 H
165 2 0.0890987 9.96521 2.94056 12.1247 H
213 1 -0.0957884 9.22826 3.58063 12.6499 C
256 3 -0.739076 5.3041 5.83743 14.0951 O
356 2 0.0940808 10.1883 2.59529 17.7555 H
278 3 -0.72644 8.64081 2.72368 16.2094 O
318 2 0.355769 8.10772 3.09358 15.5824 H
162 2 0.0185507 10.4891 5.32906 10.6646 H
364 2 0.0706318 9.37791 5.03154 17.7073 H
347 2 0.100902 8.89646 1.59961 10.3339 H
362 1 -0.102689 9.57568 6.08124 17.9589 C
252 3 -0.809671 6.68584 3.5867 13.8497 O
48 4 0.922966 12.5096 1.26362 17.6016 Si
212 1 -0.108084 10.0141 4.60359 9.98973 C
160 2 0.0399312 9.25511 4.00612 10.4513 H
92 2 0.321753 10.4534 0.681368 12.4613 H
358 2 0.0794453 10.25 0.98567 18.6014 H
359 1 -0.0655052 10.682 1.97035 18.4587 C
117 2 0.0244889 11.0299 5.70897 12.4592 H
327 1 -0.108319 16.0866 2.5956 17.8318 C
346 1 -0.0245596 8.40099 0.984522 9.61555 C
285 3 -0.800033 6.5797 5.46937 9.415 O
328 2 0.0685761 16.6752 1.7073 17.7482 H
354 1 -0.12513 14.1502 0.721969 9.42591 C
90 2 0.00217589 15.6189 0.686128 12.542 H
116 2 0.0427225 12.7732 6.09357 12.0618 H
353 2 0.0554901 15.1985 0.774252 9.64931 H
53 4 1.14736 11.6338 0.240702 14.7386 Si
60 4 0.668713 13.2916 2.54287 13.5621 Si
54 4 0.597847 13.1213 1.43488 11.238 Si
72 2 0.279442 12.9531 4.92914 9.74814 H
290 3 -0.65025 13.8536 2.65764 12.0397 O
52 4 0.550082 14.5679 0.596472 13.937 Si
50 4 0.71998 11.4817 3.06415 9.5975 Si
279 3 -0.631895 11.6111 2.0005 10.8813 O
289 3 -0.683677 11.941 1.79028 14.0966 O
275 3 -0.695097 15.1223 1.03693 15.3518 O
270 3 -0.696688 13.0959 2.42457 16.7016 O
9 4 0.654054 14.6399 2.62419 16.2592 Si
167 2 0.0706075 12.5459 4.17617 18.4385 H
29 4 1.03575 7.42797 2.42229 12.9999 Si
197 1 -0.127203 11.8633 6.4233 12.5297 C
166 2 0.0299179 13.2679 5.84723 18.5492 H
361 2 0.037234 10.5283 6.45136 17.6393 H
23 4 1.02413 1.32881 12.172 2.26217 Si
46 4 1.08728 5.43132 12.442 0.600075 Si
297 3 -0.668441 6.04293 8.34172 9.13332 O
62 4 1.06395 5.05535 10.5665 3.01241 Si
84 2 0.14472 4.36061 8.88256 7.30652 H
179 2 0.110449 3.56463 11.4321 4.79333 H
41 4 1.09818 1.83745 9.98336 0.249557 Si
219 1 -0.0475332 4.21358 12.0551 4.20368 C
370 3 -0.651896 8.90023 12.1735 3.29515 O
261 3 -0.766387 1.55668 11.5154 0.75069 O
293 3 -0.776714 4.11575 9.25376 3.24021 O
294 3 -0.754545 5.12198 11.1363 1.51271 O
83 2 0.149021 4.38635 8.3057 7.89225 H
299 3 -0.72129 3.87838 11.2874 7.70907 O
304 3 -0.776323 6.4151 11.9605 6.82723 O
259 3 -0.674177 1.64695 11.1782 3.51763 O
65 4 0.753283 3.05332 10.656 8.94631 Si
49 4 1.08947 4.96505 12.4782 7.39233 Si
181 2 0.0868207 5.144 12.4541 4.62723 H
180 2 0.139541 3.64385 12.6121 3.50473 H
302 3 -0.761395 6.40776 10.2025 3.82667 O
85 2 0.308461 6.48546 9.23094 3.82926 H
187 2 0.0720603 9.14366 10.5318 8.47441 H
215 1 -0.0854292 8.0866 7.56843 1.91921 C
168 2 0.0837731 8.31356 8.37932 1.24921 H
365 2 0.0401819 7.06799 7.18255 1.91273 H
303 3 -0.717044 6.53972 9.36364 6.7713 O
220 1 -0.0955961 10.3598 8.5575 7.11586 C
124 2 0.103956 10.0724 9.56489 2.73415 H
287 3 -0.694582 11.3802 6.75253 4.81258 O
301 3 -0.719648 8.65319 10.8063 5.77048 O
221 1 -0.111486 8.4398 10.1097 9.15086 C
59 4 0.664839 10.5858 6.6317 6.21604 Si
64 4 0.676382 7.17665 8.84678 8.14968 Si
66 4 1.15916 7.00136 10.7355 5.96088 Si
98 2 -0.00867701 8.21919 7.55829 7.75733 H
169 2 0.0590676 8.49838 7.70419 2.91458 H
4 3 -0.674608 9.53639 10.6643 0.996216 O
136 2 0.0506274 6.03989 6.52848 5.28987 H
182 2 0.0643269 9.46841 8.93744 6.66795 H
184 2 0.0455238 10.3086 8.31331 8.13547 H
122 2 0.0675509 10.7379 8.98966 4.33405 H
19 4 0.66916 9.57103 11.3194 4.55783 Si
67 4 1.26105 3.76277 10.5217 16.2855 Si
188 2 0.0764022 5.56575 10.2019 9.8119 H
189 2 0.132949 4.39094 9.10229 10.6887 H
190 2 0.0605487 4.48637 10.8854 11.1454 H
222 1 -0.0672038 4.63438 10.1323 10.3809 C
267 3 -0.78814 2.61769 10.1393 12.2952 O