ITEM: TIMESTEP
0
ITEM: NUMBER OF ATOMS
371
ITEM: BOX BOUNDS xy xz yz pp pp pp
-8.8510000000000009e+00 1.7777500000000000e+01 -8.8510000000000009e+00
0.0000000000000000e+00 1.3020299999999999e+01 4.5889999999999997e-01
0.0000000000000000e+00 1.8640300000000000e+01 2.0540000000000000e-01
ITEM: ATOMS id type q x y z element
5 4 1.10986 -0.95753 3.06556 4.66472 Si
7 4 0.670743 0.159157 2.64885 7.29431 Si
11 4 0.901664 -0.303767 5.59709 3.46979 Si
14 4 1.07822 -1.43623 4.33153 8.78659 Si
223 3 -0.727834 -0.00904916 3.48619 5.91385 O
225 3 -0.764281 -0.777582 4.02059 3.32088 O
227 3 -0.686855 -1.04108 2.78944 8.35882 O
229 3 -0.694852 -1.84907 5.29657 7.51907 O
317 2 0.0729301 -1.00878 3.82197 1.16777 H
104 2 0.0148419 1.99336 2.48938 8.93699 H
2 2 0.23627 1.40756 1.79102 1.23527 H
70 2 0.0864393 -0.353088 3.67074 1.02885 H
16 4 0.863668 -3.07855 6.3531 7.36917 Si
80 2 0.370308 0.0624323 5.44434 5.83254 H
68 2 0.0332425 0.136122 0.929676 7.02716 H
71 2 -0.0138164 -2.02351 5.37446 0.105095 H
192 1 -0.093994 1.89796 3.19448 8.09036 C
102 2 0.0868794 1.72496 4.25116 8.3698 H
97 2 0.27754 1.3475 2.90997 2.46795 H
13 4 0.688283 -0.800573 6.40016 0.80629 Si
258 3 -0.678735 2.04539 2.40473 1.9192 O
333 2 0.0386624 1.97547 0.620226 5.62247 H
255 3 -0.673306 0.678179 5.98613 0.199664 O
244 3 -0.6612 0.0161879 6.36367 5.29633 O
324 2 0.0675151 3.81207 1.62366 8.72495 H
322 2 0.0114602 2.29284 0.71641 8.30628 H
89 2 0.0785662 3.23447 1.23625 3.18367 H
103 2 0.0601571 2.55244 3.07779 7.22147 H
35 4 0.616425 4.14862 4.81535 5.78836 Si
32 4 0.617134 2.99063 3.65991 0.546351 Si
343 1 -0.0831635 3.46432 5.47603 1.39789 C
245 3 -0.681594 4.36106 2.91713 0.166897 O
243 3 -0.648541 6.64284 1.71518 0.485168 O
342 2 0.0454385 4.50833 5.62552 1.17949 H
325 1 -0.113107 3.37074 0.755327 8.22608 C
341 2 0.097483 2.86353 6.24596 0.912878 H
203 1 -0.134692 5.35182 2.14813 3.24588 C
323 2 0.0419668 3.75144 0.573747 7.22682 H
133 2 0.024294 5.93141 3.0106 3.45998 H
135 2 0.0343878 4.24921 2.23813 3.49903 H
249 3 -0.653089 2.71503 5.26335 5.17878 O
340 2 0.107627 3.23121 5.32349 2.43919 H
134 2 0.0138296 5.82956 1.22536 3.47227 H
30 4 0.624747 5.15088 1.7248 1.03919 Si
250 3 -0.682322 4.42196 4.98376 7.39672 O
129 2 0.0569284 7.88477 0.606681 2.42171 H
33 4 0.984316 5.72604 4.43254 8.39681 Si
130 2 0.0510426 3.21813 0.036394 1.00816 H
345 2 0.0922071 7.29849 1.85413 8.97464 H
246 3 -0.772873 5.53183 2.96765 9.18025 O
139 2 0.0880048 2.53711 6.46184 8.42772 H
17 4 0.72372 -0.422331 4.49052 15.1351 Si
18 4 0.634907 -0.770619 6.03407 12.6258 Si
37 4 0.789207 1.38361 5.45828 17.3982 Si
73 2 0.0392396 -1.78237 4.86738 11.9116 H
110 2 0.0521035 0.641882 2.64086 10.3426 H
111 2 0.089224 0.951601 4.07404 11.4556 H
112 2 0.0403005 0.0813391 2.61577 12.0979 H
114 2 0.0622806 0.134999 2.16181 14.3295 H
115 2 0.0361805 0.0664683 2.27009 16.1064 H
195 1 -0.0992016 0.777075 3.00392 11.3566 C
196 1 -0.0903878 0.50323 2.68943 15.2119 C
231 3 -0.665112 0.0757649 5.24203 13.7854 O
253 3 -0.710361 0.144134 5.40189 16.4242 O
326 2 0.0413737 -0.760837 3.41627 17.7287 H
113 2 0.110631 1.56236 2.88634 15.2263 H
247 3 -0.791311 -0.204557 4.93436 9.64184 O
254 3 -0.666252 1.91239 3.57411 17.8974 O
78 2 0.299589 2.35823 3.23677 17.0357 H
144 2 0.0832755 1.94265 6.42629 12.5682 H
96 2 0.273113 -2.43664 4.89195 15.8936 H
34 4 0.9648 0.408675 6.44254 9.91838 Si
252 3 -0.806749 6.66873 3.32789 14.1404 O
143 2 0.0582146 2.70023 5.10048 11.6262 H
238 3 -0.76148 3.92133 3.07698 11.382 O
239 3 -0.778246 3.45479 1.58808 16.0768 O
319 2 0.345706 5.7813 0.553665 14.3879 H
206 1 -0.0905063 2.56729 5.59624 12.5545 C
205 1 -0.0759932 2.5224 6.25991 9.49049 C
140 2 0.071109 2.89985 5.26894 9.73505 H
142 2 0.0827745 2.5304 4.98014 13.4269 H
153 2 0.0807452 3.84897 5.90436 16.7255 H
224 3 -0.740921 2.8406 2.26417 13.6159 O
344 2 0.113258 8.06847 0.335224 9.54511 H
36 4 1.12181 5.40941 4.25074 14.4212 Si
10 4 0.613502 2.66956 2.29912 11.9894 Si
240 3 -0.723696 6.15753 1.56868 16.4729 O
251 3 -0.783944 4.62202 3.87085 15.7895 O
242 3 -0.763424 7.78095 0.979156 13.6891 O
8 4 1.18333 3.1683 1.0219 14.5725 Si
241 3 -0.827611 6.69283 2.2445 11.5688 O
24 4 0.756677 7.40362 1.39378 17.5195 Si
26 4 1.0833 5.34242 2.7162 10.766 Si
28 4 1.15664 4.75817 2.41674 16.5997 Si
69 2 0.214657 5.39912 0.304634 10.7902 H
209 1 -0.0827777 2.97227 6.53845 16.5729 C
321 2 0.300426 5.96513 0.356158 12.9161 H
152 2 0.0612212 2.71547 6.5762 15.5154 H
12 4 0.910267 -4.21651 6.67499 4.57235 Si
21 4 0.654805 -3.62694 10.2531 7.77285 Si
74 2 0.0535577 -4.12173 8.97922 6.68748 H
105 2 0.0217233 -3.42926 8.96462 3.74992 H
106 2 0.0421771 -4.36515 8.19778 2.37669 H
107 2 0.0881425 -2.70846 7.55838 2.78989 H
202 1 -0.122603 -4.57495 12.6564 1.048 C
193 1 -0.118693 -3.58159 8.08293 3.11628 C
208 1 -0.138778 -2.55405 11.3571 6.38545 C
228 3 -0.739729 -3.51291 7.02199 5.97599 O
234 3 -0.706641 -2.83387 9.60597 9.02432 O
235 3 -0.628288 -5.05743 10.9057 8.09008 O
332 2 0.0655302 -6.00911 11.9808 6.2802 H
334 1 -0.127253 -6.31124 12.5475 5.40512 C
331 2 0.00974904 -5.55409 12.5985 4.65036 H
132 2 0.0473587 -4.1863 12.3263 0.0943876 H
131 2 0.0119402 -4.23099 12.1108 1.90983 H
109 2 0.014983 -2.64001 7.72444 0.305803 H
148 2 0.00874615 -2.99428 11.1164 5.4304 H
123 2 0.0193206 -5.67179 10.254 3.48805 H
150 2 0.034678 -2.80319 12.3592 6.74182 H
370 3 -0.666516 -8.25265 12.2651 3.26428 O
199 1 -0.0967537 -6.53442 9.72914 3.8447 C
6 4 0.425596 -4.85637 12.0797 9.22394 Si
1 4 0.661729 -8.0949 12.0442 1.69487 Si
75 2 0.0061782 -2.67512 10.3175 2.48077 H
19 4 0.672105 -7.68858 11.3753 4.50382 Si
40 4 0.251855 1.26488 9.61373 4.17878 Si
226 3 -0.715133 -0.895903 6.5783 2.38757 O
147 2 0.0361781 -1.25299 9.6153 5.02858 H
201 1 -0.147112 -0.914668 12.3479 2.40902 C
108 2 0.0356682 -1.25354 8.81639 0.478857 H
79 2 0.00254071 2.71818 7.74723 6.1831 H
42 4 0.670007 0.51532 9.1766 8.45074 Si
149 2 0.0236021 -1.5329 11.0876 6.54356 H
260 3 -0.75795 1.83769 8.76617 1.29122 O
31 4 0.789324 2.03727 6.68598 4.94891 Si
207 1 -0.0931141 -0.767821 9.23606 4.15343 C
87 2 -0.00212559 0.260616 9.34476 6.76561 H
145 2 0.111922 -0.748571 8.15328 4.11575 H
146 2 0.0298306 -1.11547 9.69773 3.23885 H
128 2 0.0253519 -1.30722 11.9329 1.48908 H
262 3 -0.643728 -0.100068 7.78065 9.06451 O
257 3 -0.744477 2.5696 7.04165 3.47614 O
298 3 -0.666718 2.16136 9.31918 8.66428 O
335 2 0.00822479 -1.27311 11.8944 3.31352 H
39 4 1.08411 2.80148 8.38437 2.54748 Si
86 2 0.11675 -0.375391 10.4629 9.2696 H
22 4 0.286427 -2.81493 11.0143 14.4282 Si
312 2 0.0427724 -4.54994 10.1372 18.0841 H
100 2 0.0699184 -5.41451 11.788 11.7472 H
191 1 -0.079065 -6.09953 11.713 10.9219 C
200 1 -0.0926974 -4.22616 9.58373 14.3118 C
232 3 -0.728635 -4.96641 9.0105 10.7184 O
101 2 0.129324 -6.40031 10.6939 10.708 H
263 3 -0.764606 -2.40438 9.19313 11.543 O
310 2 0.0212815 -5.33474 9.20035 16.7494 H
20 4 1.18315 -3.38446 8.76734 10.3207 Si
125 2 0.084649 -4.32899 9.31127 13.2594 H
315 3 -0.713327 -6.79739 11.7152 17.2055 O
127 2 0.0217288 -3.81861 8.77545 14.8958 H
126 2 0.059102 -5.13243 9.99821 14.7401 H
236 3 -0.725809 -3.53941 12.8621 13.6868 O
121 2 0.0620717 -2.80432 7.36384 12.7365 H
120 2 0.0469022 -2.34497 6.65266 14.3055 H
93 2 0.278306 -2.37813 6.65823 9.52375 H
99 2 0.00929325 -6.94638 12.4371 10.986 H
237 3 -0.675806 -2.97655 12.4789 10.0445 O
316 3 -0.802245 -6.79033 12.7203 14.6817 O
88 2 0.279576 -2.65542 11.7051 10.4931 H
313 1 -0.131459 -5.25661 9.36229 17.8301 C
311 2 0.0332474 -5.21017 8.4737 18.4425 H
198 1 -0.0935434 -2.06207 7.27997 13.4789 C
314 4 1.13751 -7.67485 12.0929 15.9151 Si
233 3 -0.711685 -3.32756 6.81834 9.32913 O
248 3 -0.669322 0.175826 6.78545 11.5282 O
154 2 0.0685591 1.07514 7.32749 14.3757 H
194 1 -0.12783 -1.18896 8.17738 18.6003 C
119 2 0.0735282 -1.67127 8.21212 13.8006 H
151 2 0.0905447 2.96679 7.49507 17.0241 H
141 2 0.0821224 2.93358 7.08967 10.0853 H
27 4 1.08382 0.0157514 12.636 13.5797 Si
156 2 0.0714604 0.390103 8.98415 14.8265 H
266 3 -0.724253 0.0392047 10.2468 11.1958 O
339 1 -0.115125 -0.660753 12.1944 17.3719 C
330 2 0.0335558 -1.0408 8.11607 17.5386 H
336 2 0.100794 -0.0881722 12.2085 16.4491 H
155 2 0.107244 0.416951 8.48878 13.0904 H
320 2 -0.0354131 0.702672 10.0357 18.1574 H
264 3 -0.700588 -0.984866 10.7084 13.5985 O
210 1 -0.0926595 0.851305 8.35221 14.0743 C
43 4 0.979129 -1.37975 10.3944 12.008 Si
337 2 0.0226516 -1.5202 11.535 17.2844 H
45 4 0.960417 1.46122 10.9267 11.4417 Si
338 2 0.0297591 -0.0602719 12.0635 18.2571 H
38 4 1.12675 4.41368 6.69033 12.8326 Si
25 4 0.268471 9.57475 1.52965 8.0124 Si
137 2 0.0524968 5.24434 5.74284 3.72727 H
157 2 0.0636186 10.5649 1.51733 5.69779 H
158 2 0.0148313 9.00635 1.53188 4.6661 H
159 2 0.0343185 9.77124 3.09807 5.19028 H
171 2 0.0318385 8.80319 4.86478 5.66034 H
172 2 0.052196 8.857 6.09531 4.37554 H
211 1 -0.141535 9.91312 2.05494 5.01687 C
366 2 0.0991878 8.31359 3.4382 1.36698 H
368 2 0.0509045 8.36351 4.22272 3.00728 H
77 2 0.00575837 8.79333 2.54998 6.88788 H
369 1 -0.0817201 8.01638 4.27521 1.96358 C
357 2 0.124936 10.6209 2.18106 0.6232 H
56 4 0.319595 9.19074 5.9239 1.26332 Si
81 2 -0.0355189 6.91914 4.1937 7.20109 H
367 2 0.0415459 7.00204 4.5388 1.80483 H
282 3 -0.626142 10.6257 6.03648 1.95307 O
138 2 0.00260254 6.37136 4.68015 4.66136 H
216 1 -0.125517 8.78609 5.90864 5.4328 C
204 1 -0.128796 5.69897 5.50823 4.67536 C
269 3 -0.740353 10.7547 0.783798 2.51269 O
280 3 -0.75059 10.8765 3.36017 2.54352 O
136 2 0.0523014 6.04134 6.34168 5.2406 H
161 2 0.0740341 10.1167 5.44937 9.21848 H
271 3 -0.572083 10.9853 2.21463 8.42644 O
57 4 0.846874 12.5046 4.63116 7.3238 Si
360 2 0.0677696 13.977 4.24329 1.21309 H
166 2 0.0284879 13.1415 5.53445 0.331469 H
272 3 -0.775762 15.0872 2.15764 5.06128 O
355 2 0.119199 13.7711 1.55906 8.91125 H
371 3 -0.733485 13.0281 0.523984 0.212325 O
274 3 -0.751829 13.077 0.869442 6.52154 O
214 1 -0.0964061 13.0553 4.56968 0.709394 C
47 4 1.10784 11.184 2.04925 3.40489 Si
273 3 -0.770259 12.6625 2.0964 4.02684 O
281 3 -0.650885 13.2142 4.92316 3.63077 O
349 2 0.0191123 16.1934 1.05114 1.61237 H
288 3 -0.720925 11.2163 5.62262 7.26381 O
3 2 0.355399 12.8995 4.16418 4.27147 H
284 3 -0.758999 13.2258 3.74035 6.16555 O
283 3 -0.665175 13.1758 3.83846 9.07637 O
348 2 0.0897342 14.4622 1.52259 2.12669 H
351 1 -0.102503 15.2318 0.770535 2.06727 C
51 4 1.36154 13.5355 2.2138 5.5841 Si
55 4 0.829025 11.6163 4.80458 2.30775 Si
167 2 0.0818602 12.6578 3.88096 0.029792 H
350 2 0.0861816 15.3388 0.136494 2.93982 H
329 2 0.051178 14.7202 2.48892 0.0057809 H
82 2 0.301078 8.85185 2.41961 15.5682 H
163 2 0.0673093 9.5409 3.66242 13.8746 H
164 2 0.0326753 8.79843 4.31259 12.3003 H
165 2 0.0763511 9.80722 2.83378 12.2347 H
213 1 -0.103176 9.22117 3.47128 12.808 C
256 3 -0.788184 5.3846 5.70835 13.6264 O
356 2 0.0917424 10.4701 2.75021 17.6221 H
278 3 -0.696635 8.53188 2.87914 16.4488 O
318 2 0.347616 7.93084 3.36875 15.9575 H
162 2 0.027703 9.99899 5.0891 10.9504 H
364 2 0.0584028 10.059 5.27303 17.5619 H
347 2 0.101064 8.4493 1.95351 10.3133 H
362 1 -0.107405 9.64341 6.22526 17.8373 C
363 2 0.0407266 8.59126 6.35622 17.6018 H
175 2 0.0980716 7.49411 6.51045 13.9596 H
212 1 -0.116361 9.85408 4.71259 9.96457 C
160 2 0.0523044 8.90035 4.19738 9.80436 H
92 2 0.333603 10.298 0.857113 11.8028 H
358 2 0.0685488 10.1942 1.08811 18.3756 H
359 1 -0.0579448 10.7706 1.97178 18.3154 C
117 2 0.0274226 10.8008 6.13754 12.8474 H
29 4 1.06802 7.39822 2.44392 12.9673 Si
346 1 -0.0385921 8.14395 1.4089 9.43741 C
285 3 -0.794345 6.33748 5.50668 9.42231 O
230 3 -0.670493 14.8319 4.29628 15.156 O
354 1 -0.12006 14.2106 0.732052 9.48276 C
90 2 -0.00479002 15.7231 0.544088 12.461 H
116 2 0.0401364 12.2512 5.99692 11.815 H
353 2 0.051506 15.258 0.760441 9.71568 H
53 4 1.16283 11.5895 0.506088 14.6945 Si
60 4 0.662221 13.4227 2.60635 13.5814 Si
54 4 0.634545 13.1209 1.43889 11.2118 Si
72 2 0.265461 13.3511 4.70734 9.54593 H
290 3 -0.65055 13.8559 2.62964 11.9919 O
52 4 0.524245 14.5884 0.458755 13.7674 Si
50 4 0.733897 11.3794 3.13774 9.73584 Si
279 3 -0.659768 11.6253 2.01503 10.9369 O
289 3 -0.7098 11.9631 1.96803 14.0704 O
275 3 -0.672678 15.3689 0.800745 15.1594 O
270 3 -0.669859 13.2706 2.63491 16.9354 O
9 4 0.566262 14.6992 2.51522 16.1397 Si
48 4 0.874355 12.6283 1.29989 17.6021 Si
328 2 0.0522961 16.3326 1.6188 17.7736 H
327 1 -0.108535 15.8741 2.59756 17.8675 C
23 4 0.982585 1.24918 12.0694 2.39748 Si
46 4 1.06693 5.37984 12.3198 0.574881 Si
297 3 -0.675702 6.1141 8.44246 9.14344 O
62 4 1.03356 4.99738 10.5064 3.03048 Si
84 2 0.115041 4.43866 8.99244 7.04069 H
179 2 0.102082 3.59285 11.602 4.98084 H
41 4 1.08512 1.79031 10.0057 0.195694 Si
219 1 -0.0704942 4.14596 12.0443 4.1479 C
76 2 0.0696811 1.02258 12.7067 7.41695 H
261 3 -0.725288 1.76164 11.4257 0.969398 O
293 3 -0.752133 4.15211 9.13146 3.09889 O
294 3 -0.686453 5.02025 10.9639 1.44219 O
83 2 0.128564 4.77291 8.5588 7.35548 H
299 3 -0.736974 4.00353 11.2146 7.66758 O
304 3 -0.792855 6.41134 12.0417 6.67259 O
259 3 -0.664796 1.65468 11.124 3.6624 O
65 4 0.766773 3.11296 10.631 8.94785 Si
49 4 1.04753 4.95841 12.4734 7.35997 Si
181 2 0.0765249 4.99967 12.6258 4.45178 H
180 2 0.123026 3.49887 12.5025 3.42014 H
302 3 -0.775873 6.46599 10.3676 3.66206 O
85 2 0.313411 6.94003 9.51444 3.42782 H
187 2 0.071208 8.96727 10.7444 8.11932 H
215 1 -0.0867626 8.0787 7.55209 2.04547 C
168 2 0.09227 8.61244 8.37324 1.53666 H
365 2 0.0480651 7.04947 7.40563 1.7515 H
303 3 -0.734223 6.81693 9.43928 6.5867 O
220 1 -0.0925128 10.3371 8.58943 6.87925 C
124 2 0.0883912 10.1537 9.29189 3.09458 H
287 3 -0.692142 11.5134 6.83478 4.77416 O
301 3 -0.715333 8.55765 10.8019 5.59577 O
221 1 -0.110269 8.33754 10.5011 8.98637 C
59 4 0.652881 10.6174 6.61536 6.10047 Si
64 4 0.658398 7.22337 9.01879 8.15398 Si
66 4 1.23694 6.94426 10.813 5.79848 Si
98 2 0.00760929 8.39367 7.70194 8.02931 H
169 2 0.0489266 8.23852 7.53337 3.10787 H
4 3 -0.635967 9.37973 10.5227 1.0662 O
183 2 0.0598302 11.1152 9.09056 6.37315 H
182 2 0.072701 9.3457 8.83578 6.52943 H
184 2 0.0527101 10.4393 8.5696 7.96677 H
122 2 0.0678357 11.0022 9.07081 4.67782 H
170 2 0.0317838 8.04913 6.49158 5.96618 H
67 4 1.32083 3.83433 10.6385 16.1979 Si
188 2 0.0719715 5.47806 10.2389 9.88426 H
189 2 0.125982 4.30143 9.11631 10.7156 H
190 2 0.0680179 4.42586 10.8518 11.2772 H
222 1 -0.0709579 4.54061 10.1348 10.4507 C
267 3 -0.792125 2.5595 10.0669 12.2204 O
300 3 -0.677743 1.8772 12.0579 9.72056 O
305 3 -0.817716 2.9403 10.1449 14.9462 O
306 3 -0.802446 5.45817 10.7722 16.0104 O
307 3 -0.710178 4.3645 12.3535 13.4853 O
308 3 -0.765566 3.39551 10.1157 17.6411 O
95 2 0.314789 4.4277 11.4423 13.9809 H
63 4 1.26483 6.65351 11.8163 16.3637 Si
58 4 1.29582 6.3541 6.88355 10.2921 Si
286 3 -0.807097 5.18721 6.96322 11.4673 O
277 3 -0.745422 3.48785 12.7888 16.0412 O
265 3 -0.769039 3.8397 7.99326 13.6498 O
268 3 -0.742082 0.695415 12.9318 12.01 O
276 3 -0.771543 1.1568 12.9139 14.7522 O
44 4 1.06833 2.73614 9.22452 13.6173 Si
176 2 0.0579216 6.28896 9.49706 12.1921 H
352 2 -0.0258163 4.8524 12.6127 9.53217 H
91 2 0.316246 2.3078 12.8359 10.1294 H
197 1 -0.126705 11.6657 6.61734 12.4725 C
309 4 0.625219 10.3101 10.3954 18.1423 Si
94 2 0.0228063 10.5215 7.50086 9.76017 H
217 1 -0.0975104 8.37134 7.13321 14.0159 C
185 2 0.0553156 8.85046 9.97102 9.76902 H
361 2 0.0291603 10.2737 7.08417 17.5812 H
177 2 0.0369323 7.50593 10.7239 11.7422 H
296 3 -0.781071 6.80881 12.1466 17.9451 O
291 3 -0.660995 9.81108 8.85203 11.9315 O
178 2 0.0822103 7.35397 10.1537 13.492 H
61 4 0.64483 8.32176 8.23762 12.1723 Si
15 4 0.65452 11.0674 8.14716 11.2355 Si
173 2 0.0542161 8.38262 7.799 14.8493 H
295 3 -0.780818 8.17207 11.4813 15.7473 O
118 2 0.0327254 12.2986 7.11402 13.2369 H
218 1 -0.0949476 7.23175 9.94948 12.4411 C
292 3 -0.727448 7.82663 7.321 10.8938 O
174 2 0.0285877 9.30713 6.59076 13.9418 H
186 2 0.0337507 7.65594 11.2674 9.34636 H
ITEM: TIMESTEP
100
ITEM: NUMBER OF ATOMS
371
ITEM: BOX BOUNDS xy xz yz pp pp pp
-8.4781939999999985e+00 1.7777500000000000e+01 -8.4781939999999985e+00
0.0000000000000000e+00 1.3020299999999999e+01 4.5889999999999997e-01
0.0000000000000000e+00 1.8640300000000000e+01 2.0540000000000000e-01
ITEM: ATOMS id type q x y z element
5 4 1.28834 -1.09172 3.22088 4.83862 Si
7 4 0.687934 0.27086 2.59075 7.3019 Si
11 4 0.917142 -0.170438 5.57131 3.43069 Si
14 4 1.17042 -1.3742 4.32652 8.59118 Si
223 3 -0.759533 0.0415074 3.36694 5.91647 O
225 3 -0.821334 -0.803853 4.10133 3.56417 O
227 3 -0.736577 -0.929137 2.82887 8.34185 O
229 3 -0.755581 -1.88651 5.186 7.28931 O
317 2 0.0750425 -0.251628 3.18141 1.51566 H
104 2 0.0387826 2.01851 3.23137 8.9512 H
2 2 0.247863 1.32386 1.90162 1.25122 H
70 2 0.0830716 -0.0611156 3.79573 1.24057 H
16 4 0.82858 -2.98742 6.37895 7.31009 Si
80 2 0.368396 -0.506398 5.97861 5.95724 H
68 2 0.0126846 0.6074 0.876592 7.23006 H
71 2 -0.00210347 -2.08817 5.44004 0.407504 H
192 1 -0.0742902 2.06301 3.36418 7.90423 C
102 2 0.124817 1.83059 4.34794 7.57686 H
97 2 0.231128 1.56718 3.36409 2.31904 H
33 4 1.12925 5.74668 4.45219 8.51523 Si
258 3 -0.653564 2.02265 2.46423 1.83723 O
333 2 0.030519 2.27676 0.531092 5.58274 H
255 3 -0.697619 0.524498 6.05775 0.211361 O
246 3 -0.824656 5.35003 3.11748 9.18764 O
324 2 0.0140151 2.96949 1.51109 9.20234 H
322 2 0.0231685 2.87413 0.834398 7.53171 H
89 2 0.0945417 2.32121 2.29148 4.58835 H
103 2 0.0505045 2.79957 2.85537 7.30217 H
35 4 0.577925 4.25871 4.87267 5.96541 Si
32 4 0.546965 3.04754 3.55392 0.414999 Si
343 1 -0.0744015 3.2189 5.44327 1.22353 C
245 3 -0.672663 4.54354 2.91066 0.256052 O
243 3 -0.696059 6.86187 1.53023 0.297971 O
342 2 0.0589219 3.6572 6.04769 0.446629 H
325 1 -0.110005 3.49152 1.07054 8.38133 C
341 2 0.114848 2.2018 5.69245 1.39953 H
203 1 -0.133212 5.50704 2.3492 3.10185 C
323 2 0.0881534 4.46183 1.49505 8.13839 H
133 2 0.0239046 6.60012 2.25361 3.17835 H
135 2 0.0391352 5.09063 3.33022 3.00466 H
249 3 -0.623918 2.69009 5.0063 5.517 O
340 2 0.0662327 3.839 5.25827 2.10371 H
134 2 0.017883 4.94469 1.7162 3.78641 H
30 4 0.616689 5.33706 1.69252 1.00312 Si
250 3 -0.715982 4.56194 5.06985 7.5692 O
129 2 0.0740899 8.05792 0.66395 1.88058 H
17 4 0.78712 -0.312899 4.59598 15.1404 Si
18 4 0.643084 -0.805055 5.87892 12.6408 Si
37 4 0.786593 1.35479 5.48307 17.4958 Si
73 2 0.0445383 -1.63846 4.62043 11.8616 H
110 2 0.0335925 0.626549 2.62002 10.8146 H
111 2 0.0644739 1.32911 4.26448 11.1981 H
112 2 0.0516444 0.56568 3.30136 12.5212 H
114 2 0.0463961 -0.557962 2.39361 14.2218 H
115 2 0.0448088 0.214393 2.2362 15.8596 H
195 1 -0.102736 1.07132 3.28325 11.5654 C
196 1 -0.112632 0.215487 2.69889 14.8923 C
231 3 -0.691879 0.195046 5.33029 13.8271 O
253 3 -0.712176 0.0804997 5.38162 16.5176 O
326 2 0.0585793 -0.768371 3.56685 17.7349 H
113 2 0.0757869 1.21095 2.79982 14.4814 H
247 3 -0.80092 -0.239748 5.07602 9.43261 O
254 3 -0.673604 1.81789 3.53627 17.8669 O
78 2 0.290559 2.24478 3.08923 17.0714 H
144 2 0.0788896 2.0277 6.26394 12.3086 H
230 3 -0.678527 -2.36058 4.38363 15.2237 O
34 4 0.993417 0.466033 6.46026 9.9101 Si
96 2 0.266001 -2.62443 4.82558 16.026 H
143 2 0.0826272 3.0949 5.02793 11.6372 H
238 3 -0.722043 4.01153 3.15492 11.5053 O
239 3 -0.805881 3.52341 1.56171 16.1226 O
319 2 0.313431 5.59655 0.746194 14.2538 H
206 1 -0.0910489 2.80813 5.56799 12.5072 C
205 1 -0.0746146 2.63963 6.30898 9.51316 C
140 2 0.0638686 2.85337 5.26459 9.685 H
142 2 0.0666212 2.73395 4.957 13.3783 H
153 2 0.0747139 3.88177 6.08756 17.1255 H
224 3 -0.72468 3.1229 2.28324 13.6575 O
152 2 0.0676635 3.06815 5.85969 15.5982 H
36 4 1.18512 5.30621 4.17605 14.3125 Si
10 4 0.563567 2.74325 2.26602 12.0441 Si
240 3 -0.767697 6.06229 1.48338 16.6071 O
251 3 -0.800321 4.96005 3.81399 15.8233 O
242 3 -0.753574 7.71062 1.01051 13.8482 O
8 4 1.14473 3.07252 1.00586 14.639 Si
241 3 -0.785654 6.59609 2.05818 11.6304 O
24 4 0.869625 7.46833 1.45484 17.4093 Si
26 4 1.05689 5.30173 2.59455 10.7498 Si
28 4 1.23093 4.76235 2.41188 16.6306 Si
321 2 0.314818 5.86301 0.324713 12.7633 H
209 1 -0.0779921 3.03825 6.34861 16.5363 C
345 2 0.0963883 7.37125 1.2961 9.43529 H
12 4 0.868793 -4.34746 6.58869 4.60145 Si
21 4 0.602844 -3.92548 10.0268 7.66232 Si
74 2 0.0635256 -4.1417 8.52934 6.8325 H
105 2 0.028502 -3.63348 8.93658 3.77339 H
106 2 0.0556633 -4.84597 8.2457 2.65345 H
107 2 0.0692449 -3.10656 7.66278 2.59616 H
202 1 -0.119552 -4.36994 12.5814 0.966821 C
193 1 -0.105008 -3.92147 8.09841 3.18589 C
208 1 -0.127691 -2.62482 10.9897 6.42514 C
228 3 -0.734476 -3.4526 7.02982 5.89587 O
234 3 -0.728204 -2.96804 9.64876 8.98015 O
235 3 -0.629518 -5.23366 10.8978 8.04107 O
332 2 0.0832158 -6.00412 11.7722 6.27219 H
334 1 -0.126 -6.22199 12.3455 5.3987 C
331 2 0.0113623 -5.43298 12.3672 4.65864 H
13 4 0.703681 -0.871062 6.56761 0.799708 Si
131 2 0.0194003 -3.48903 11.9903 1.19016 H
109 2 0.0183837 -2.76888 8.21993 0.341276 H
148 2 0.012458 -2.76698 10.4261 5.50693 H
123 2 0.0190256 -5.68586 10.2329 3.34676 H
150 2 0.0253986 -3.01505 11.9875 6.39977 H
244 3 -0.669883 -0.00716143 6.47473 5.17343 O
199 1 -0.101321 -6.63647 9.77789 3.60947 C
6 4 0.438614 -4.83774 12.0565 9.10464 Si
1 4 0.656973 -8.02706 12.1223 1.74922 Si
75 2 0.00584291 -3.79659 11.1715 2.58052 H
233 3 -0.693237 -3.18174 6.99541 9.25061 O
40 4 0.286618 1.27188 9.75157 4.18444 Si
226 3 -0.677264 -0.807173 6.69699 2.40393 O
147 2 0.0199511 -1.04348 10.1789 4.6361 H
201 1 -0.141504 -0.794036 12.5201 2.37025 C
108 2 0.032197 -1.2276 8.94834 0.692905 H
79 2 0.00334653 2.64895 7.61078 6.07287 H
42 4 0.64823 0.648601 9.03197 8.40587 Si
149 2 0.0432793 -1.67595 10.8404 6.94844 H
260 3 -0.756807 2.01746 8.80896 1.34989 O
312 2 0.0450427 -5.48212 8.98746 0.630387 H
207 1 -0.088738 -0.705277 9.28862 4.10132 C
87 2 -0.000791246 0.129108 9.30082 6.75659 H
145 2 0.119195 -0.914261 8.35684 4.64685 H
146 2 0.0578443 -0.862043 9.2926 3.02847 H
128 2 0.0191991 -1.15591 11.6743 1.82051 H
262 3 -0.682353 -0.0386189 7.63211 8.89219 O
257 3 -0.743768 2.59502 6.94291 3.47396 O
298 3 -0.668822 2.29039 9.18268 8.64803 O
335 2 0.0101518 -0.990259 12.5014 3.43201 H
39 4 1.07963 2.85978 8.38637 2.68735 Si
86 2 0.0974725 -0.024001 10.4093 9.22095 H
130 2 0.0287887 -5.11739 12.678 1.73633 H
139 2 0.0893961 2.58505 6.6154 8.46764 H
194 1 -0.133995 -1.73559 8.20564 0.0955884 C
31 4 0.726372 2.08249 6.48769 4.97826 Si
183 2 0.0656067 -6.06847 9.10767 6.84581 H
22 4 0.314136 -2.8785 11.1672 14.2976 Si
69 2 0.239419 -2.88353 12.1472 10.7883 H
100 2 0.0470532 -5.75875 12.3336 11.537 H
191 1 -0.0789248 -6.23594 11.831 10.692 C
200 1 -0.0836697 -4.29109 9.70707 14.234 C
232 3 -0.704729 -4.93586 8.9019 10.7277 O
101 2 0.145083 -6.35795 10.7536 10.85 H
263 3 -0.777924 -2.6267 9.41737 11.6829 O
310 2 0.0256805 -4.51799 9.67739 17.6417 H
20 4 1.18604 -3.37466 8.84424 10.3303 Si
125 2 0.115522 -4.2378 9.30132 13.2292 H
315 3 -0.70714 -6.92922 11.8539 17.1063 O
127 2 0.0205582 -3.95877 8.98756 14.9877 H
126 2 0.0575418 -5.20259 10.224 14.4741 H
236 3 -0.704004 -3.67151 12.9379 13.4967 O
121 2 0.0381566 -3.10427 6.77357 12.6734 H
120 2 0.0541448 -2.4588 6.80657 14.3596 H
93 2 0.29768 -2.20935 6.89735 9.40934 H
99 2 0.0181237 -7.05273 12.3744 10.2564 H
237 3 -0.699596 -2.85293 12.3579 9.79574 O
316 3 -0.78878 -7.05997 12.8617 14.6064 O
88 2 0.308242 -2.60222 11.4168 9.67742 H
313 1 -0.133074 -5.30993 9.27503 18.2346 C
132 2 0.0760993 -4.31818 12.6199 18.6257 H
198 1 -0.0964322 -2.28576 7.00143 13.3402 C
337 2 0.0383766 -1.53928 11.7424 16.7588 H
338 2 0.0361473 -0.604015 11.9981 18.3311 H
248 3 -0.691139 0.0231524 6.67642 11.5132 O
154 2 0.0637319 1.07645 7.43971 14.3532 H
344 2 0.13084 -0.289793 12.7633 9.76311 H
119 2 0.0874929 -1.79617 7.9412 13.1926 H
151 2 0.0864856 2.77093 7.42268 16.5478 H
141 2 0.0974061 3.19463 6.96814 10.1585 H
27 4 1.05731 -0.0598864 12.5604 13.6615 Si
156 2 0.0766541 0.330623 9.08933 14.6597 H
266 3 -0.740952 0.135431 10.1793 11.2376 O
339 1 -0.109305 -0.725971 12.2231 17.2786 C
330 2 0.0307121 -1.06416 8.42463 17.6853 H
336 2 0.09216 0.197918 12.284 16.7123 H
155 2 0.109694 0.32915 8.38041 12.9837 H
320 2 -0.0113526 0.810197 9.64645 18.2275 H
264 3 -0.728834 -1.09704 10.6258 13.5608 O
210 1 -0.0945873 0.801028 8.41212 13.9592 C
43 4 0.997667 -1.29749 10.3509 12.0143 Si
25 4 0.271207 9.41719 1.6372 7.93235 Si
137 2 0.058991 5.07421 6.10548 3.87092 H
157 2 0.0432262 10.0116 1.74934 5.5115 H
158 2 0.00742337 8.84014 1.95684 4.19623 H
159 2 0.0377919 9.64763 3.40367 4.90159 H
171 2 0.0330864 8.82092 4.81724 5.78456 H
172 2 0.0356094 8.40826 6.33676 4.88888 H
211 1 -0.143571 9.65987 2.34155 4.70807 C
366 2 0.0830452 7.91396 3.66098 1.059 H
368 2 0.0744964 8.81393 3.77976 2.63294 H
77 2 0.00455507 8.63941 2.94838 7.05852 H
369 1 -0.0914323 8.12941 4.23068 1.9516 C
357 2 0.119644 10.4275 2.27367 0.753418 H
56 4 0.311691 9.22668 5.9103 1.34207 Si
81 2 -0.0431402 6.83411 3.90421 7.25305 H
367 2 0.0245917 7.1874 4.66783 2.3489 H
282 3 -0.613425 10.7399 6.11161 1.93807 O
138 2 0.00593882 6.38558 4.97665 4.43397 H
216 1 -0.126886 8.68023 5.88176 5.82057 C
204 1 -0.129436 5.68056 5.75237 4.66394 C
269 3 -0.76088 10.8967 0.784656 2.47836 O
280 3 -0.779515 10.9907 3.47445 2.38739 O
350 2 0.0936747 15.7276 0.0928396 2.66845 H
161 2 0.0725514 9.68061 4.88562 9.01799 H
271 3 -0.581625 10.8903 2.07361 8.43424 O
57 4 0.855555 12.5 4.65887 7.28473 Si
360 2 0.0445232 13.6802 4.31765 0.633408 H
170 2 0.0307956 8.06413 6.22618 6.63172 H
272 3 -0.833154 15.0373 2.22532 5.07109 O
355 2 0.0849115 13.7704 1.53966 8.83054 H
371 3 -0.737455 13.0576 0.579803 0.172279 O
274 3 -0.784994 13.1844 0.785597 6.41509 O
214 1 -0.100561 12.7529 4.64801 0.313954 C
47 4 1.11485 11.139 2.1725 3.30664 Si
273 3 -0.809199 12.5343 2.01163 4.10706 O
281 3 -0.660621 13.4097 4.91658 3.50743 O
349 2 0.00652827 16.1185 1.14708 1.25142 H
288 3 -0.731345 11.2863 5.71848 7.33768 O
3 2 0.349139 13.2254 4.13603 4.12496 H
284 3 -0.781385 12.9021 3.65238 6.06075 O
283 3 -0.685213 13.1841 4.16687 9.15735 O
348 2 0.0915374 14.8421 1.66356 2.42533 H
351 1 -0.113734 15.3791 0.833838 1.95859 C
51 4 1.43872 13.4054 2.14986 5.50767 Si
55 4 0.838274 11.7711 4.86556 2.25698 Si
76 2 0.0486653 9.60428 0.312253 6.81462 H
329 2 0.0369423 14.9665 2.38692 0.0506618 H
82 2 0.314448 8.8705 1.97319 15.5442 H
163 2 0.0683852 9.42241 3.78825 13.6478 H
164 2 0.0508148 8.82015 4.40391 12.0551 H
165 2 0.0892184 9.9653 2.94059 12.1248 H
213 1 -0.0957602 9.22825 3.58058 12.6499 C
256 3 -0.739089 5.30409 5.83743 14.095 O
356 2 0.0942121 10.1876 2.59543 17.7555 H
278 3 -0.726325 8.6411 2.72392 16.209 O
318 2 0.355751 8.10773 3.09414 15.5823 H
162 2 0.0186718 10.4896 5.32843 10.6643 H
364 2 0.0706335 9.37794 5.03155 17.7073 H
347 2 0.0995614 8.88376 1.61559 10.335 H
362 1 -0.102688 9.57567 6.08122 17.959 C
252 3 -0.809667 6.68579 3.58656 13.8497 O
48 4 0.922213 12.5098 1.26385 17.6015 Si
212 1 -0.108068 10.0142 4.60321 9.98942 C
160 2 0.0398239 9.25508 4.00612 10.4512 H
92 2 0.321756 10.4532 0.681233 12.4611 H
358 2 0.0794967 10.2502 0.985872 18.6014 H
359 1 -0.0653918 10.6819 1.97064 18.4585 C
117 2 0.0245462 11.0298 5.70903 12.4593 H
327 1 -0.108514 16.0875 2.59303 17.8286 C
346 1 -0.023822 8.40758 0.986307 9.6164 C
285 3 -0.800092 6.57968 5.46936 9.41501 O
328 2 0.06855 16.6759 1.7024 17.7712 H
354 1 -0.125106 14.1503 0.721905 9.4256 C
90 2 0.00222639 15.6184 0.685325 12.541 H
116 2 0.0427985 12.7731 6.09355 12.0617 H
353 2 0.0555263 15.1987 0.774326 9.64894 H
53 4 1.14745 11.6339 0.240767 14.7384 Si
60 4 0.668576 13.2917 2.5428 13.5621 Si
54 4 0.597808 13.121 1.43501 11.2374 Si
72 2 0.279586 12.9526 4.92862 9.74824 H
290 3 -0.650008 13.8533 2.65777 12.039 O
52 4 0.549705 14.5678 0.596621 13.9367 Si
50 4 0.717965 11.4811 3.06257 9.59547 Si
279 3 -0.631411 11.6108 2.00052 10.8809 O
289 3 -0.683549 11.9409 1.7904 14.0963 O
275 3 -0.6949 15.1222 1.0361 15.3514 O
270 3 -0.695947 13.0941 2.42538 16.7003 O
9 4 0.653191 14.6404 2.62447 16.259 Si
167 2 0.0706108 12.5448 4.17736 18.4351 H
29 4 1.03518 7.42787 2.42217 12.9997 Si
197 1 -0.127152 11.8633 6.42333 12.5297 C
361 2 0.0373313 10.5284 6.45155 17.6401 H
166 2 0.0298849 13.2838 5.85072 18.5378 H
23 4 1.02413 1.32894 12.1719 2.26214 Si
46 4 1.08745 5.43196 12.4427 0.600255 Si
297 3 -0.668442 6.04295 8.34173 9.1333 O
62 4 1.06401 5.05538 10.5669 3.01175 Si
84 2 0.144682 4.36059 8.88254 7.30645 H
179 2 0.110484 3.56468 11.4318 4.79298 H
41 4 1.09814 1.8365 9.98306 0.249572 Si
219 1 -0.0474918 4.21359 12.055 4.20351 C
370 3 -0.651902 8.90024 12.1735 3.29498 O
261 3 -0.766342 1.5567 11.5153 0.750668 O
293 3 -0.776659 4.11592 9.254 3.24003 O
294 3 -0.754675 5.12236 11.1375 1.51249 O
83 2 0.148985 4.3864 8.30577 7.8922 H
299 3 -0.721352 3.87854 11.2873 7.70905 O
304 3 -0.776326 6.4151 11.9605 6.82719 O
259 3 -0.674184 1.64697 11.1782 3.5176 O
65 4 0.753706 3.05367 10.6556 8.94615 Si
49 4 1.08963 4.96502 12.4781 7.3922 Si
181 2 0.0868262 5.14398 12.4539 4.62723 H
180 2 0.139558 3.64387 12.6122 3.50473 H
302 3 -0.761344 6.40754 10.2025 3.82658 O
85 2 0.308485 6.48501 9.231 3.82903 H
187 2 0.07206 9.14366 10.5318 8.47437 H
215 1 -0.0854212 8.08663 7.5684 1.91922 C
168 2 0.0837624 8.31364 8.37927 1.24922 H
365 2 0.040201 7.06801 7.18256 1.91267 H
303 3 -0.717038 6.53975 9.36366 6.77128 O
220 1 -0.0956713 10.3598 8.55749 7.11581 C
124 2 0.103813 10.072 9.56505 2.73446 H
287 3 -0.694508 11.3802 6.75256 4.81256 O
301 3 -0.719665 8.65315 10.8063 5.77041 O
221 1 -0.111471 8.43981 10.1097 9.15085 C
59 4 0.664884 10.5858 6.63171 6.21601 Si
64 4 0.676447 7.17667 8.84681 8.14967 Si
66 4 1.15922 7.00135 10.7355 5.96081 Si
98 2 -0.00868835 8.21918 7.5583 7.75733 H
169 2 0.0590687 8.49834 7.70417 2.91462 H
4 3 -0.674773 9.53533 10.6648 0.995927 O
136 2 0.0506193 6.03989 6.52847 5.28988 H
182 2 0.0643292 9.46838 8.93739 6.66795 H
184 2 0.0454892 10.3087 8.31332 8.13545 H
122 2 0.06757 10.7379 8.98967 4.33412 H
19 4 0.66915 9.57101 11.3194 4.55776 Si
67 4 1.26103 3.76257 10.5217 16.2857 Si
188 2 0.0763939 5.56576 10.2019 9.81198 H
189 2 0.132906 4.39095 9.10229 10.6887 H
190 2 0.0605503 4.48626 10.8854 11.1454 H
222 1 -0.0672845 4.63437 10.1323 10.3809 C
267 3 -0.788204 2.61771 10.1392 12.2953 O