ITEM: TIMESTEP
0
ITEM: NUMBER OF ATOMS
371
ITEM: BOX BOUNDS xy xz yz pp pp pp
-8.8510000000000009e+00 1.7777500000000000e+01 -8.8510000000000009e+00
0.0000000000000000e+00 1.3020299999999999e+01 4.5889999999999997e-01
0.0000000000000000e+00 1.8640300000000000e+01 2.0540000000000000e-01
ITEM: ATOMS id type q x y z
3 2 -0.0233672 0.357452 0.630871 1.01762
2 2 -0.0265706 2.47349 1.21721 2.21647
345 2 0.0319144 7.40947 0.521268 8.99525
324 2 0.139321 0.969618 0.859773 8.29181
68 2 0.0415252 1.86779 1.21714 6.73712
7 4 1.0847 0.946234 2.45708 5.86232
11 4 1.27831 0.0166247 4.174 2.33706
14 4 1.29309 -0.598787 4.84374 7.43705
30 4 1.09028 5.69789 3.01889 1.50485
31 4 1.29008 1.61331 6.08035 4.02532
72 2 0.00429798 -2.00778 4.09598 7.90811
33 4 1.26264 5.53553 4.33884 8.20522
35 4 1.05395 4.1908 5.54274 5.64597
247 3 -0.818904 0.0454981 5.41423 8.70654
70 2 -0.0279181 1.02329 3.61124 1.09072
237 3 -0.818672 3.64245 0.859417 9.19877
102 2 0.143503 3.43254 1.55214 4.98176
103 2 0.202147 3.39508 3.01103 6.20954
104 2 0.158746 2.51629 3.14957 4.40117
130 2 0.155985 3.91843 2.18044 3.58971
131 2 0.151666 4.26806 1.18553 1.98142
132 2 0.155774 3.35686 2.86453 1.90104
250 3 -0.840998 4.64169 4.91098 7.04436
192 1 -0.681874 2.81849 2.39745 5.43026
202 1 -0.672303 4.15914 2.23068 2.47033
223 3 -0.813898 -0.152746 1.61827 4.92131
225 3 -0.853537 -0.936488 2.95832 2.83183
226 3 -0.829674 -0.780733 5.40923 1.74055
227 3 -0.8025 0.355776 3.62994 6.70152
229 3 -0.835913 -1.12066 6.00227 6.52657
243 3 -0.7833 6.20529 1.92284 0.416721
244 3 -0.864244 1.03046 4.80267 3.36252
245 3 -0.798272 5.05798 4.38799 0.926613
136 2 0.00923247 5.15148 5.04818 4.22408
249 3 -0.832061 2.70218 5.7064 5.16063
32 4 1.23683 4.45437 5.86345 0.576787
139 2 0.253425 2.65633 4.32364 9.31039
246 3 -0.815408 4.69945 3.26377 9.00338
254 3 -0.786214 2.62988 5.60524 0.0475778
135 2 0.113717 6.59948 3.044 3.53972
148 2 0.1541 6.24397 0.101291 7.14261
10 4 1.03475 1.76777 1.75516 11.7764
17 4 1.22396 0.0912653 4.76256 15.4314
141 2 0.213021 3.28384 6.01852 9.34783
24 4 1.28137 7.05735 1.40638 17.5564
26 4 1.46389 4.1646 2.14597 10.0839
252 3 -0.845376 6.02969 3.12186 13.5429
28 4 1.21655 4.27286 1.96223 16.2971
29 4 1.30141 6.54254 2.17533 12.3991
253 3 -0.802793 1.1135 5.61375 16.4901
36 4 1.23663 5.61643 4.04941 14.732
37 4 1.22036 2.02625 6.39473 17.6813
251 3 -0.809579 4.36674 3.50195 15.6822
248 3 -0.793733 0.361372 6.27132 11.2409
327 1 -0.681552 -0.814318 2.61625 18.4144
78 2 -0.0367004 3.61524 1.99068 17.7882
110 2 0.167719 -0.251204 2.97012 10.8759
111 2 0.179991 0.702904 3.73875 12.3726
73 2 0.0448127 -2.25812 6.19249 12.1978
113 2 0.19038 0.678614 2.95983 13.838
114 2 0.201781 0.447728 2.25315 15.6044
115 2 0.194329 1.98438 3.40428 15.2621
69 2 -0.00614752 0.480581 1.16977 10.7269
140 2 0.218746 2.72868 5.20455 10.9751
326 2 0.161853 -0.0662615 3.43524 18.4772
142 2 0.20403 2.90734 4.48656 14.0039
143 2 0.248363 2.98176 4.11463 12.2636
144 2 0.21223 2.04077 5.6972 12.7858
195 1 -0.677967 0.129089 2.75452 11.8915
196 1 -0.666872 0.875016 3.1151 14.9833
205 1 -0.643728 2.55366 5.2911 9.80718
206 1 -0.701001 2.90587 4.94572 12.9794
224 3 -0.787961 2.1004 0.826486 12.9918
230 3 -0.746439 -1.35831 4.28296 16.2198
231 3 -0.799612 -0.202389 5.64622 13.9542
18 4 1.04871 -0.481229 6.43742 12.6286
238 3 -0.824366 2.96908 2.66299 11.0496
239 3 -0.840102 3.36799 0.960464 15.4574
240 3 -0.827695 5.86342 1.45753 16.4767
241 3 -0.790934 5.42527 1.79024 11.2206
242 3 -0.775678 7.5839 0.837172 13.1618
328 2 0.153946 -0.291501 1.6512 18.1747
38 4 1.31117 4.29728 6.2374 13.0692
34 4 1.34536 0.981821 6.38222 9.668
112 2 0.14985 -0.634103 2.22174 12.5865
331 2 0.167873 -5.5231 9.58012 4.20312
201 1 -0.669204 -0.892755 12.7649 2.07602
13 4 1.04318 -0.947096 6.69596 0.800896
16 4 1.24518 -2.27471 7.16927 6.71552
20 4 1.37671 -3.23051 8.73093 9.10947
21 4 1.0619 -3.80412 10.7279 6.91133
325 1 -0.669828 -7.66118 12.5545 8.03011
40 4 0.724029 0.790616 9.47333 4.2539
42 4 0.951819 1.91464 9.12326 8.32658
74 2 -0.00814171 -4.40704 9.89031 5.46935
79 2 0.044315 0.255302 6.79043 4.85608
80 2 0.0126237 -1.46142 8.67219 6.26402
320 2 0.0512545 0.607658 8.97568 0.051285
84 2 -0.00788417 0.196099 8.69831 5.83522
86 2 -0.0191204 0.780783 10.3971 8.255
87 2 -0.0672791 2.03608 8.85081 6.74524
105 2 0.159169 -5.39431 9.0156 2.64845
106 2 0.174112 -3.76468 8.01934 1.95508
107 2 0.122718 -3.6442 9.12428 3.55678
108 2 0.0184812 -1.67761 8.01445 1.66015
262 3 -0.806017 1.26473 7.8193 9.04866
323 2 0.219643 -7.60084 12.3738 6.98913
370 3 -0.796529 -7.77909 11.7569 2.85991
145 2 0.0486911 -0.0147804 8.41313 2.88275
146 2 0.145211 -1.56786 9.24462 4.42628
147 2 0.208817 -1.36658 7.34807 4.41851
12 4 1.27746 -4.46271 7.1206 4.30336
149 2 0.131836 -2.81232 12.3408 5.36563
150 2 0.151014 -1.48187 11.4334 6.49289
193 1 -0.651111 -4.39995 8.50712 2.90686
194 1 -0.658827 -2.80253 7.14649 0.409082
334 1 -0.644805 -6.24392 10.1849 4.98128
207 1 -0.665867 -0.824312 8.36662 4.4349
208 1 -0.662265 -2.5225 11.9966 6.40946
228 3 -0.852115 -3.26936 7.23256 5.52028
233 3 -0.826452 -2.87911 7.13876 8.21957
234 3 -0.885091 -3.13574 9.75342 7.94614
235 3 -0.773849 -4.99611 11.4231 7.58412
312 2 0.0649675 -5.2051 9.18853 0.601068
257 3 -0.889926 2.11077 7.22924 3.03805
259 3 -0.764077 0.456171 10.987 4.06731
333 2 0.153953 -5.88599 11.2745 5.22878
344 2 0.153939 -0.734985 11.113 8.49712
4 3 -0.839126 -6.38625 11.8343 0.627417
1 4 0.927991 -7.17812 12.6213 1.68386
129 2 0.191136 -1.20912 12.5585 1.00066
346 1 -0.63961 -0.17807 12.0987 8.6847
6 4 1.09958 -5.84046 12.2653 8.85273
128 2 0.154662 -1.48554 12.1757 2.88892
109 2 0.19527 -3.44968 6.49336 1.05484
330 2 0.175347 -3.35975 8.12642 0.0676383
83 2 0.084757 2.50729 9.08004 4.28436
88 2 0.0245231 -1.75107 11.7787 9.82837
22 4 1.03372 -3.72947 10.9949 13.6495
121 2 0.234692 -2.56057 8.45406 12.4081
43 4 1.25191 -1.83165 10.5354 10.9902
44 4 1.27743 2.48724 9.11173 13.9145
45 4 1.48238 1.30831 11.1137 11.8666
75 2 0.109459 -2.51134 11.7976 15.0306
311 2 0.143651 -3.654 9.27858 17.2455
99 2 0.270124 -5.36107 10.2373 10.205
27 4 1.28442 -0.151749 12.742 13.9013
101 2 0.228372 -5.53134 11.791 11.3766
119 2 0.139957 -0.61048 8.49166 12.8201
120 2 0.164783 -2.13039 7.7349 14.0649
125 2 0.157445 -1.61847 9.86977 15.0848
126 2 0.0381634 -3.77339 9.30559 14.2867
267 3 -0.839128 1.90035 9.80727 12.6293
8 4 1.42237 -6.21562 12.7528 14.4293
127 2 0.169411 -3.05328 10.2174 16.2379
154 2 0.217838 0.869961 7.45199 15.0269
155 2 0.163981 0.154168 9.02674 14.2494
156 2 0.168461 1.1417 9.14228 15.8406
191 1 -0.670785 -5.88566 11.2613 10.4394
198 1 -0.663109 -1.86329 7.83214 12.9889
200 1 -0.676392 -2.55831 10.4425 15.183
209 1 -0.653684 3.22549 7.37171 16.7407
210 1 -0.691504 0.980887 8.56985 14.8334
232 3 -0.817923 -4.78068 8.58469 9.86086
236 3 -0.844807 -5.19919 11.5694 13.9326
152 2 0.221247 2.90902 7.10946 15.6941
263 3 -0.809968 -2.12222 9.12543 10.3478
264 3 -0.804141 -2.93755 10.8072 12.1875
266 3 -0.81494 -0.307507 10.743 11.4245
339 1 -0.669482 -1.33387 12.2902 17.7253
315 3 -0.837914 -6.5311 10.4314 17.0898
316 3 -0.804812 -7.63683 12.0251 15.1991
319 2 -0.00333138 -0.953967 11.3648 14.5582
313 1 -0.656022 -3.71313 10.0725 18.0863
116 2 0.181725 -3.76913 7.33384 12.4371
336 2 0.181681 -1.57616 11.5884 16.8735
265 3 -0.758121 3.48912 7.53034 13.4932
338 2 0.180108 -0.238881 12.2407 17.9699
317 2 0.0676733 -3.9929 11.5985 17.2973
310 2 0.160822 -2.75283 10.2375 18.5855
347 2 0.259049 0.663224 12.017 9.54942
100 2 0.144503 -7.08729 11.1188 10.4884
309 4 1.02432 -5.5255 10.9278 18.2028
151 2 0.191291 2.87622 8.45274 17.0814
337 2 0.146803 -2.04553 12.1658 18.5783
255 3 -0.802465 0.766535 7.47876 18.6307
71 2 0.127586 -1.94077 6.6608 17.8342
25 4 0.70252 8.92678 1.0589 8.00621
47 4 1.26932 10.9328 1.86955 4.28168
161 2 0.179637 9.99856 5.70608 8.74746
51 4 1.4965 13.5061 2.30501 5.82083
55 4 1.3168 12.1352 4.49886 2.64277
357 2 0.221035 11.0524 2.06351 1.55636
57 4 1.25846 12.346 4.67564 7.44643
170 2 0.168691 8.44113 6.02125 4.52423
350 2 0.146811 15.9798 1.02319 1.57715
358 2 0.190921 10.0122 0.923236 0.465976
93 2 0.0698669 13.3398 5.8963 8.12457
284 3 -0.774582 13.0965 3.83794 6.2116
133 2 0.168284 7.56925 4.56975 2.8206
134 2 0.160713 8.22487 2.8263 2.53904
56 4 0.909961 10.253 5.87878 0.327001
216 1 -0.670376 8.70561 6.07833 5.60885
89 2 0.00984572 15.4932 0.456096 3.1756
157 2 0.163161 8.72205 1.04053 5.0343
158 2 0.174929 8.41584 2.64111 4.09769
159 2 0.148438 9.40078 2.67511 5.8253
366 2 0.194998 8.215 4.28441 0.938368
166 2 0.237063 13.3003 3.25496 0.708351
167 2 0.200576 13.5024 2.52243 2.41425
356 2 0.190592 9.90626 3.05639 0.333877
172 2 0.168705 8.69518 5.02994 6.03427
203 1 -0.653546 7.32773 3.52074 2.67763
288 3 -0.827135 11.0993 5.45039 6.79329
211 1 -0.67655 9.12068 2.04896 4.86945
81 2 -0.0503568 6.85889 3.54673 7.5637
214 1 -0.674634 13.5399 3.49217 1.80782
359 1 -0.650038 10.6231 1.99548 0.500616
269 3 -0.799681 10.6129 0.421057 3.16005
271 3 -0.800438 9.89652 2.14428 8.86083
272 3 -0.841135 14.6538 2.38018 4.64672
273 3 -0.797348 12.0727 1.45403 5.38116
274 3 -0.805263 14.1545 1.53262 7.21476
280 3 -0.797522 11.4422 3.17376 3.4914
281 3 -0.754657 12.9214 5.68029 3.45581
282 3 -0.77157 11.1687 5.21714 1.46656
283 3 -0.816048 11.9263 3.82224 8.7013
77 2 -0.0250351 8.15096 1.75825 6.54645
371 3 -0.781819 13.0653 0.323239 0.23741
5 4 1.31982 15.945 1.92318 3.95965
360 2 0.248906 14.4614 4.09616 1.93549
329 2 0.18266 15.2328 2.2822 0.640439
285 3 -0.836632 6.2143 5.28445 9.27915
355 2 0.178775 16.6755 0.212342 8.94361
335 2 0.182228 8.08697 1.03569 2.3033
9 4 1.17738 15.3993 2.82261 16.9578
48 4 1.22086 12.4445 1.60234 18.0882
368 2 0.157999 8.46866 5.43095 17.9281
53 4 1.38786 9.85874 1.71868 16.1376
54 4 0.993383 11.8228 2.30769 12.2065
60 4 0.956769 11.6275 3.65356 14.9554
82 2 0.005533 6.98697 4.22962 15.7261
212 1 -0.662323 9.64008 4.99764 9.5446
91 2 -0.0260006 13.379 2.01173 11.6432
94 2 -0.00440029 11.1718 6.20696 9.74845
95 2 0.102233 12.777 3.35875 16.2506
96 2 -0.0282311 11.8084 5.34389 14.8154
361 2 0.195551 12.6284 5.45147 17.4918
117 2 0.133291 12.4355 5.76013 11.937
256 3 -0.787819 5.32052 5.67002 14.1891
50 4 1.3459 10.6405 3.27018 9.59998
162 2 0.184669 9.72711 5.43224 10.6319
163 2 0.18449 8.58387 3.53185 12.3045
164 2 0.216691 7.29854 3.89942 10.9392
165 2 0.189953 8.47724 2.41279 10.8141
276 3 -0.840836 9.3193 0.596465 15.1815
92 2 0.0796725 11.1361 0.809877 12.4515
213 1 -0.681699 7.87357 3.11037 11.4671
367 2 0.23264 9.38228 3.89544 17.9039
270 3 -0.753434 13.5726 3.08839 17.5924
275 3 -0.833579 15.5594 1.45263 16.0636
352 2 0.152961 15.5146 1.51568 9.56405
277 3 -0.757134 11.4613 1.1809 16.8418
278 3 -0.778339 8.58003 1.94615 17.2517
279 3 -0.850256 11.0909 3.03145 11.0979
174 2 0.1607 10.1358 6.39482 13.4664
289 3 -0.791759 10.1603 3.3749 15.5223
290 3 -0.831667 12.0787 2.9982 13.6119
175 2 0.191443 8.37919 5.65389 13.3601
341 2 0.161597 6.31785 5.68898 17.3935
364 2 0.144089 11.0776 5.85789 16.4431
369 1 -0.656412 9.1372 4.7797 18.5466
354 1 -0.666614 15.6402 0.399129 9.35982
362 1 -0.649663 11.6949 6.12391 17.3697
286 3 -0.770704 4.98999 6.43005 11.37
160 2 0.188018 8.62418 4.54896 9.36773
19 4 1.115 9.3246 10.6871 4.15161
23 4 1.24476 0.822871 12.1283 2.58144
299 3 -0.790394 4.24777 12.1345 8.57959
46 4 1.33607 5.24351 11.9558 0.994298
215 1 -0.679351 9.51105 7.70614 0.655374
186 2 0.133392 9.06378 10.0745 9.24708
62 4 1.32451 4.62902 10.5042 3.93029
64 4 1.08892 7.28423 8.84019 8.45479
66 4 1.49734 6.88785 10.6088 5.98045
138 2 0.212743 5.38231 6.79845 3.90099
85 2 0.203784 5.12389 7.62539 5.7054
98 2 0.00180495 8.7091 7.83046 8.30132
122 2 0.177191 9.33666 8.3403 3.30302
123 2 0.187494 8.37559 9.65955 2.22953
124 2 0.200817 7.58074 8.86231 3.70461
260 3 -0.857753 2.91732 9.08074 1.19869
59 4 1.12335 10.4682 6.76644 6.15884
168 2 0.156506 8.50187 7.3861 1.01598
171 2 0.136367 8.18243 6.92964 6.19409
179 2 0.151064 2.60198 10.7761 5.48938
180 2 0.282445 2.79222 12.1598 4.21523
181 2 0.207926 4.08134 11.962 5.66822
182 2 0.143178 9.72284 9.06848 7.12722
365 2 0.177023 10.1815 8.10782 1.43032
184 2 0.181057 10.4083 8.19529 8.65511
41 4 1.27377 1.93773 10.0216 0.411462
199 1 -0.661821 8.56277 9.18636 3.24643
351 1 -0.69288 6.97565 12.6807 1.28751
219 1 -0.671716 3.27601 11.4365 4.9578
220 1 -0.702571 10.4769 8.2969 7.53955
322 2 0.156446 9.06181 11.7503 8.67344
204 1 -0.655122 5.59993 6.72205 5.0127
298 3 -0.750095 3.29323 9.50403 8.97071
287 3 -0.799097 11.3019 7.246 4.93993
293 3 -0.777266 4.00188 8.93902 3.79257
294 3 -0.795573 4.81479 11.325 2.45017
183 2 0.180034 11.5619 8.60189 7.31663
49 4 1.3409 5.54022 12.8808 7.92574
349 2 0.196418 7.3293 11.9841 2.12855
301 3 -0.808924 8.37508 10.9916 5.41566
302 3 -0.879324 5.9191 10.5279 4.78963
303 3 -0.815076 6.85689 9.21562 7.06358
304 3 -0.798076 6.39967 11.7938 7.11479
258 3 -0.843817 4.53384 7.07926 1.62343
76 2 0.0457219 0.92817 12.3949 7.28539
348 2 0.162129 7.48272 12.4547 0.275972
261 3 -0.840612 1.41136 11.1594 1.45263
39 4 1.47197 3.34915 7.99428 2.21211
137 2 0.177248 6.76532 6.52239 5.2505
332 2 0.187367 10.8064 9.54022 5.92796
342 2 0.151962 6.58126 6.66641 0.0369062
296 3 -0.836452 5.71568 10.747 0.0215709
15 4 0.988451 11.6031 7.58431 10.7585
58 4 1.53747 6.2003 6.54232 10.3354
61 4 1.04097 8.52756 7.58576 12.0682
63 4 1.23055 6.64443 9.95284 17.5561
292 3 -0.791602 7.60078 6.57781 11.1717
67 4 1.44255 4.22484 10.8493 16.2088
97 2 0.0173132 6.873 8.50102 18.4259
52 4 0.998728 6.33743 12.8545 15.5384
353 2 0.134234 6.63201 12.5397 10.2884
321 2 0.092005 7.46923 11.7316 16.0292
176 2 0.148126 8.3916 10.0512 12.5502
177 2 0.179345 7.27154 9.06359 13.7176
178 2 0.172928 6.61822 9.49298 11.9865
340 2 0.173196 6.22434 7.487 17.021
187 2 0.173656 7.82953 9.91476 10.7902
188 2 0.225844 5.41571 9.68764 10.6505
189 2 0.1769 4.5552 10.665 11.9372
190 2 0.137894 5.9663 11.5202 10.9588
268 3 -0.842548 1.03909 12.2963 12.8765
218 1 -0.66931 7.5592 9.24833 12.6727
222 1 -0.679529 5.06039 10.7212 10.9385
314 4 1.14291 9.72365 10.6176 15.9482
343 1 -0.671221 6.17376 6.71269 17.8682
118 2 0.159588 11.8862 7.11708 13.1845
197 1 -0.673042 12.4747 6.95535 12.2707
291 3 -0.741996 10.0711 8.09136 11.1756
90 2 -0.027512 6.78347 12.8754 13.9188
295 3 -0.802248 8.04706 10.321 16.6877
173 2 0.139029 8.77894 7.20674 14.4795
300 3 -0.799459 2.14684 11.6586 10.5274
305 3 -0.771674 3.25334 10.1157 15.0266
306 3 -0.807279 5.47171 9.78115 16.4696
307 3 -0.805255 4.8621 12.2971 15.6223
308 3 -0.760496 3.0823 10.6959 17.6401
318 2 -0.0244564 10.1051 9.52101 14.778
65 4 1.21375 3.69961 11.0301 9.68533
363 2 0.138332 11.9488 7.32062 17.505
153 2 0.207521 4.38363 7.12088 17.0614
221 1 -0.663944 7.95053 10.2519 9.61879
297 3 -0.79118 6.29965 7.88664 9.46858
185 2 0.188156 7.46494 11.2999 9.39705
169 2 0.17658 9.91966 8.44058 18.3135
217 1 -0.67122 9.06535 6.58061 13.5463
ITEM: TIMESTEP
100
ITEM: NUMBER OF ATOMS
371
ITEM: BOX BOUNDS xy xz yz pp pp pp
-8.4781939999999985e+00 1.7777500000000000e+01 -8.4781939999999985e+00
0.0000000000000000e+00 1.3020299999999999e+01 4.5889999999999997e-01
0.0000000000000000e+00 1.8640300000000000e+01 2.0540000000000000e-01
ITEM: ATOMS id type q x y z
3 2 -0.011564 0.296177 0.612705 1.30039
2 2 -0.0243776 2.60831 1.11476 2.1617
345 2 0.032954 7.32866 0.370558 8.99024
324 2 0.125894 0.914767 0.770805 8.36671
68 2 0.0230409 1.91479 1.2738 6.96411
7 4 1.10765 0.870733 2.48843 6.09493
11 4 1.26474 0.109872 4.19313 2.26586
14 4 1.24906 -0.708098 4.8192 7.46003
30 4 1.10836 5.7109 2.95173 1.5951
31 4 1.28317 1.65595 6.07287 4.01389
72 2 0.00706916 -2.02616 3.97746 8.11446
33 4 1.28388 5.56987 4.269 8.26083
35 4 1.05122 4.24633 5.50436 5.61877
247 3 -0.801286 0.104979 5.48284 8.69086
70 2 -0.0157971 1.23171 3.48181 1.20865
360 2 0.232454 -2.88812 4.39383 1.8351
102 2 0.161771 2.78017 1.48697 4.77773
103 2 0.169647 3.36306 2.38139 6.32414
104 2 0.194618 2.59204 3.47024 4.93375
130 2 0.143277 4.31712 2.55473 3.71022
131 2 0.150566 4.29713 1.01689 2.54752
132 2 0.155582 3.3534 2.61444 2.05685
250 3 -0.823145 4.81862 4.87217 6.97838
192 1 -0.690354 2.66567 2.40686 5.46094
202 1 -0.658866 4.23585 2.14429 2.60102
223 3 -0.829091 -0.134354 1.78018 5.0112
225 3 -0.831898 -0.779021 2.8807 2.75143
226 3 -0.85244 -0.72586 5.23771 1.42144
227 3 -0.808365 0.437916 3.67855 6.93518
229 3 -0.803177 -1.25088 5.86195 6.37254
243 3 -0.79142 6.02233 1.911 0.456192
244 3 -0.860032 0.984043 4.79281 3.47343
245 3 -0.788707 5.15013 4.4246 1.23502
136 2 0.0107478 5.27709 4.91212 4.32289
249 3 -0.83973 2.75857 5.90438 5.18622
32 4 1.22807 4.56974 5.81717 0.607982
148 2 0.15693 5.66117 0.191971 6.80506
246 3 -0.854696 4.70951 3.2573 9.06304
109 2 0.179623 -3.28044 6.35253 0.824451
139 2 0.24632 2.41232 4.48334 9.29513
10 4 1.07882 1.88679 1.77297 11.8689
17 4 1.18469 0.144008 4.83959 15.4892
112 2 0.15679 -0.674344 2.02285 12.6519
24 4 1.29024 7.06751 1.40942 17.5827
26 4 1.44436 4.27115 2.25739 10.1767
252 3 -0.780865 6.0456 3.1278 13.5768
28 4 1.24927 4.39128 1.87737 16.1899
29 4 1.29718 6.58726 2.15505 12.3573
253 3 -0.782498 1.33475 5.40429 16.6221
36 4 1.22436 5.5681 4.1943 14.749
37 4 1.22244 2.18775 6.40612 17.6335
251 3 -0.788672 4.24871 3.36834 15.4607
248 3 -0.809196 0.179833 6.29913 11.2196
327 1 -0.673086 -0.821841 2.63299 18.2941
78 2 -0.0235035 3.66017 2.05481 17.707
110 2 0.154474 -0.409135 2.43862 10.8498
111 2 0.165623 0.539881 3.59414 12.1766
73 2 0.0397389 -2.32031 6.08018 12.3262
113 2 0.179247 0.516752 2.93893 13.7987
114 2 0.173854 0.409338 2.57072 15.7847
115 2 0.226559 2.04455 3.3744 14.9752
69 2 0.0132393 0.808422 1.06828 10.6421
140 2 0.22829 2.75719 5.31312 11.0241
34 4 1.36806 0.90028 6.3563 9.75699
142 2 0.215665 3.03742 4.74661 14.0425
143 2 0.260152 2.88224 4.23138 12.2488
144 2 0.186888 2.01456 5.90445 12.9923
195 1 -0.660476 0.0637655 2.41462 11.8877
196 1 -0.637422 0.899627 3.27485 14.9231
205 1 -0.636652 2.58903 5.42971 9.87549
206 1 -0.672696 2.93806 5.18146 12.9946
224 3 -0.80306 2.08417 0.751369 13.0179
230 3 -0.748078 -1.32038 4.22777 16.2021
231 3 -0.791293 -0.218198 5.71452 13.9235
18 4 1.05927 -0.642136 6.46267 12.6146
238 3 -0.809602 2.76969 2.90164 11.1748
239 3 -0.834761 3.42827 0.872207 15.404
240 3 -0.858728 5.86762 1.42143 16.497
241 3 -0.835236 5.5085 1.84477 11.1189
242 3 -0.809848 7.5199 0.810366 13.0289
328 2 0.148043 -0.423276 1.54951 17.9969
38 4 1.30028 4.27173 6.50832 13.018
326 2 0.206191 -0.116809 3.45565 18.3901
254 3 -0.782206 3.33444 5.70634 18.5151
237 3 -0.819923 3.60795 0.911433 9.44278
141 2 0.216596 3.29253 6.1457 9.32888
331 2 0.187825 -5.46355 9.47092 4.17696
201 1 -0.64064 -0.763134 12.7664 2.17366
13 4 1.06805 -0.793767 6.6801 0.797462
16 4 1.19657 -2.26197 7.18201 6.68531
20 4 1.30729 -3.20735 8.65364 9.09131
21 4 1.0503 -3.84014 10.7439 7.08546
325 1 -0.66059 -7.70013 12.5176 7.97587
40 4 0.702321 0.865278 9.51474 4.28931
42 4 0.93729 1.85428 9.09319 8.37852
74 2 -0.0107162 -4.30942 9.98245 5.58168
79 2 0.0151909 0.36714 7.00251 4.72153
80 2 0.00622863 -1.35969 8.65724 6.37906
83 2 0.0577191 2.50654 8.99681 4.62685
84 2 -0.00158939 0.283812 8.52325 5.87474
86 2 -0.029612 0.712098 10.3307 8.03976
87 2 -0.0454626 2.25852 8.67762 6.83402
105 2 0.156089 -5.0794 8.74464 2.69738
106 2 0.187097 -3.50301 7.83818 1.98757
107 2 0.149983 -3.42744 9.06699 3.40813
108 2 0.00955913 -1.52525 7.93133 1.74017
262 3 -0.7999 1.22672 7.80969 9.13399
323 2 0.205068 -7.58238 12.3706 6.78579
370 3 -0.794894 -7.5447 11.7485 3.05234
145 2 0.0183656 0.225737 8.51577 2.9229
146 2 0.150361 -1.51748 9.47845 4.46637
147 2 0.177156 -1.2825 7.63443 4.22489
12 4 1.2914 -4.45198 6.99227 4.30127
149 2 0.134629 -2.52609 11.9694 5.30048
150 2 0.168397 -1.70895 11.9126 6.99923
193 1 -0.667139 -4.04887 8.29751 2.94948
194 1 -0.656817 -2.62826 7.16239 0.3395
334 1 -0.647523 -6.12587 10.0618 4.83265
207 1 -0.671507 -0.796517 8.58245 4.5104
208 1 -0.680786 -2.67651 12.0523 6.43102
228 3 -0.841621 -3.45433 7.22662 5.58
233 3 -0.829623 -2.79867 7.11412 8.18374
234 3 -0.897982 -3.04102 9.87641 8.07276
235 3 -0.808473 -5.10727 11.5393 7.73644
312 2 0.0786366 -5.17581 8.99335 0.411183
257 3 -0.893673 2.12906 6.99322 2.82748
259 3 -0.773676 0.612101 11.0835 4.15799
333 2 0.16071 -5.72747 11.0663 5.03621
344 2 0.161266 -0.720622 10.9195 8.59701
4 3 -0.822033 -6.61217 11.6226 0.663806
1 4 0.926385 -7.18701 12.5709 1.7582
129 2 0.185055 -1.12345 12.5978 1.02726
346 1 -0.653105 -0.266644 11.9043 8.65963
6 4 1.13018 -5.88189 12.3702 8.77026
128 2 0.15358 -1.44562 12.3289 3.00066
337 2 0.141083 -2.52169 12.0624 0.162705
310 2 0.159136 -3.45941 10.4111 0.338953
330 2 0.177272 -3.23052 8.16721 0.132963
88 2 0.0240702 -1.97904 11.5243 9.5054
22 4 1.02157 -3.68357 11.0892 13.6172
121 2 0.220941 -2.81161 8.38281 12.5277
43 4 1.19784 -1.8949 10.5069 10.9031
44 4 1.36295 2.58974 9.2981 13.8884
45 4 1.4304 1.11814 11.005 11.8486
75 2 0.0891829 -2.66562 12.2705 14.8019
311 2 0.157918 -3.20912 9.49469 17.4995
99 2 0.269128 -5.61817 10.0349 10.0835
27 4 1.30099 -0.181253 12.8515 13.8168
101 2 0.219366 -5.25752 11.7734 10.8787
119 2 0.155056 -0.859124 8.63867 12.8623
120 2 0.148067 -2.08971 7.6264 14.1443
125 2 0.147382 -1.69599 10.0615 14.979
126 2 0.0561889 -3.68191 9.36364 14.425
267 3 -0.870682 2.03239 9.98128 12.5569
8 4 1.44181 -6.32853 12.6845 14.401
127 2 0.158914 -2.93655 10.5124 16.4401
154 2 0.18817 1.06428 7.51752 14.8452
155 2 0.134726 0.233883 9.1458 14.3434
156 2 0.17572 1.17182 9.00882 15.9687
191 1 -0.654544 -5.9779 11.1248 10.2251
198 1 -0.652837 -1.91808 7.81589 13.0096
200 1 -0.651225 -2.64074 10.592 15.2175
209 1 -0.657708 3.17955 7.53061 16.6091
210 1 -0.684029 1.10649 8.6508 14.9378
232 3 -0.783609 -4.90697 8.35601 9.84563
236 3 -0.783667 -5.30021 11.4314 13.8151
152 2 0.202609 2.91492 7.02479 15.5547
263 3 -0.759402 -2.22257 8.91405 10.4755
264 3 -0.787202 -2.95211 10.9469 12.1361
266 3 -0.865217 -0.390707 10.5779 11.4818
339 1 -0.658939 -1.39184 12.3236 17.8418
315 3 -0.799287 -6.53604 10.5261 16.9301
316 3 -0.816682 -7.70627 11.9858 14.9513
319 2 -0.00844816 -1.04203 11.4918 14.4098
313 1 -0.661058 -3.71507 10.1103 18.2756
116 2 0.174783 -3.79153 7.23197 12.6121
336 2 0.178962 -1.77694 11.7025 16.916
265 3 -0.788631 3.58762 7.88346 13.5268
338 2 0.191977 -0.294134 12.1189 18.0731
317 2 0.0464337 -4.10341 11.7433 17.4746
347 2 0.250978 0.636014 11.9108 9.44289
255 3 -0.805886 0.832191 7.44254 18.5098
100 2 0.165709 -7.04786 11.1527 10.4694
309 4 0.996448 -5.53942 10.9043 18.1874
151 2 0.182689 2.8257 8.62934 16.8217
320 2 0.0719989 1.5947 8.9575 18.6028
71 2 0.146241 -1.89568 6.8253 17.8097
25 4 0.672054 8.74777 0.929868 7.9487
47 4 1.31982 11.0104 1.88158 4.21709
161 2 0.163848 9.41599 5.86271 9.19475
51 4 1.52407 13.6091 2.21729 5.92396
55 4 1.30177 12.2146 4.48236 2.63361
357 2 0.210065 11.5074 2.18104 1.69101
57 4 1.2593 12.3493 4.685 7.43683
170 2 0.17313 8.26988 6.31304 4.56472
350 2 0.156609 15.921 1.02122 1.7194
358 2 0.223543 10.0149 1.30821 0.824699
93 2 0.0796845 13.3138 5.96802 7.8674
284 3 -0.781113 13.2625 3.73867 6.46573
133 2 0.172519 7.45176 4.45394 2.80014
134 2 0.17693 8.19626 2.88312 2.01408
56 4 0.919517 10.3088 5.84444 0.199996
216 1 -0.670449 8.52928 6.28409 5.65932
89 2 0.0209595 15.7367 0.443408 3.40015
157 2 0.158325 9.07174 1.04281 5.07186
158 2 0.192757 8.56669 2.6865 4.19461
159 2 0.181762 9.28192 2.79088 5.95783
366 2 0.189308 8.43853 4.09268 0.966202
166 2 0.245617 13.2785 3.38731 0.546036
167 2 0.178449 13.6911 2.7185 2.33652
356 2 0.191171 10.1508 3.11016 0.506595
172 2 0.157457 8.17736 5.37168 6.24797
203 1 -0.666201 7.43125 3.31166 2.64095
288 3 -0.817424 10.9541 5.33549 6.84165
211 1 -0.642308 9.25761 2.17909 5.01576
81 2 -0.0557203 6.89333 3.38606 7.58236
214 1 -0.692763 13.555 3.63934 1.65845
359 1 -0.643154 10.799 2.06338 0.745464
269 3 -0.802637 10.6952 0.700726 3.23485
271 3 -0.719093 9.72595 2.07366 8.77456
272 3 -0.860666 14.6051 2.36543 4.66166
273 3 -0.796141 12.0851 1.55422 5.35932
274 3 -0.83416 14.0891 1.41778 7.26087
280 3 -0.761359 11.2453 3.47935 3.50833
281 3 -0.793037 12.9879 5.58885 3.49005
282 3 -0.737325 11.1963 5.19838 1.31637
283 3 -0.812807 12.1201 3.87618 8.76859
77 2 -0.0264111 8.04642 1.57488 6.47495
371 3 -0.777574 12.972 0.280274 0.353167
5 4 1.29348 16.0143 1.98781 4.0079
335 2 0.16902 8.40358 1.12069 2.369
329 2 0.190629 15.2905 2.46642 0.50346
285 3 -0.86109 6.11176 5.43351 9.13717
355 2 0.158241 16.749 0.130905 8.93612
160 2 0.158559 8.69852 4.14945 9.08211
135 2 0.131754 6.99893 2.6908 3.50874
9 4 1.17228 15.2802 2.82658 16.8863
48 4 1.22104 12.4176 1.57928 18.1848
368 2 0.149949 8.49731 5.4216 18.1324
53 4 1.42379 9.85314 1.72553 16.1321
54 4 0.997321 11.8374 2.27872 12.1759
60 4 0.961647 11.5983 3.62188 14.8764
82 2 -0.00794519 6.81757 4.34776 15.8928
212 1 -0.662063 9.50685 4.84159 9.6662
91 2 -0.0296845 13.3948 1.79724 11.7108
94 2 0.00812458 11.0295 6.0319 9.84028
95 2 0.084751 12.7426 3.49073 16.148
96 2 -0.0308587 11.5678 5.30594 14.6854
361 2 0.19296 12.7063 5.66882 17.3311
117 2 0.13719 12.5843 5.63529 11.7944
256 3 -0.790469 5.24314 5.61277 14.1753
50 4 1.28028 10.7799 3.36321 9.60342
162 2 0.19921 9.29484 4.95086 10.7638
163 2 0.187964 8.65804 3.43286 12.3939
164 2 0.214133 7.40204 4.26623 11.2932
165 2 0.183809 8.22795 2.70868 10.6571
276 3 -0.834711 9.20637 0.734922 15.0944
92 2 0.125505 11.1154 0.753976 12.4387
213 1 -0.678686 7.88038 3.28889 11.5808
367 2 0.201255 9.65998 4.00069 17.8358
270 3 -0.764513 13.4761 3.09769 17.5193
275 3 -0.834827 15.2876 1.41473 16.052
352 2 0.157785 15.3444 1.37775 9.66811
277 3 -0.763233 11.1661 1.08693 17.1955
278 3 -0.771868 8.48284 2.01339 17.2358
279 3 -0.849701 11.1434 3.07113 11.0495
217 1 -0.662456 8.92711 6.38846 13.6916
289 3 -0.828039 10.1891 3.16863 15.4001
290 3 -0.838001 12.1009 2.96947 13.5671
175 2 0.190366 8.64937 5.43219 13.2731
341 2 0.147041 5.79381 5.67107 17.0502
364 2 0.134667 11.1613 5.82035 16.3284
369 1 -0.653729 9.29063 4.77434 18.5987
354 1 -0.680977 15.6413 0.317255 9.45337
362 1 -0.673769 11.7993 6.25523 17.1246
286 3 -0.73984 5.04814 6.42534 11.5119
174 2 0.148006 10.0125 6.55752 13.8558
342 2 0.140482 7.03731 6.5915 18.1216
19 4 1.13734 9.37191 10.6021 4.11877
23 4 1.10654 0.862041 12.0575 2.66151
299 3 -0.777981 4.2232 12.0993 8.6521
46 4 1.34677 5.26818 11.9731 0.936279
215 1 -0.667264 9.70477 7.55066 0.896001
186 2 0.132592 9.12934 10.0389 9.19444
62 4 1.30724 4.61991 10.4766 3.90841
64 4 1.08395 7.35059 8.75121 8.4276
66 4 1.50693 6.9136 10.753 6.08445
138 2 0.237399 5.34959 6.81759 3.73089
85 2 0.219917 4.87833 7.67171 5.44774
98 2 -0.0230118 8.70079 7.65057 8.14546
122 2 0.185296 9.18982 8.29598 3.3811
123 2 0.178883 8.3918 9.49389 2.13702
124 2 0.209352 7.37568 9.05792 3.76839
260 3 -0.882955 3.00564 9.00656 1.29263
59 4 1.08845 10.354 6.66452 6.07491
168 2 0.172042 8.65288 7.45513 1.27868
171 2 0.140417 8.16767 7.29966 6.18298
179 2 0.169179 2.70754 11.1167 5.66681
180 2 0.254632 3.04457 12.2628 4.28256
181 2 0.225681 4.28518 12.0161 5.60441
182 2 0.161739 9.71666 9.08586 7.14947
365 2 0.187022 10.4707 7.75505 1.67859
184 2 0.170459 10.3928 8.07081 8.47734
41 4 1.34293 2.16453 9.9722 0.416129
199 1 -0.65613 8.45831 9.16582 3.22665
351 1 -0.685891 6.95812 12.6424 1.5231
219 1 -0.679727 3.49747 11.5291 4.98303
220 1 -0.695308 10.4216 8.27219 7.39836
322 2 0.165847 8.97872 11.6373 8.49469
204 1 -0.657417 5.46634 6.7681 4.86411
298 3 -0.783613 3.163 9.73295 9.0823
287 3 -0.775266 11.1961 7.27301 4.81382
293 3 -0.80806 3.96146 8.99227 3.91701
294 3 -0.789562 4.82358 11.3495 2.38762
332 2 0.185341 10.8945 9.42687 5.81593
49 4 1.36292 5.60866 12.8468 7.90503
349 2 0.187945 7.23018 11.9395 2.40148
301 3 -0.793266 8.47357 10.983 5.39444
302 3 -0.834814 5.9091 10.4588 4.84588
303 3 -0.825058 7.00301 9.4075 7.11551
304 3 -0.869306 6.39379 12.0359 6.8554
258 3 -0.821228 4.64376 6.96215 1.80639
76 2 0.0366413 0.699648 12.3423 7.13203
348 2 0.160504 7.5392 12.2896 0.52932
261 3 -0.80805 1.36458 10.9742 1.1635
39 4 1.42102 3.40437 7.90635 2.36725
183 2 0.168436 11.4872 8.61065 7.11463
137 2 0.183922 6.5987 6.63082 5.17341
169 2 0.153683 9.83821 8.2822 0.026923
15 4 1.01725 11.5371 7.38619 10.8152
58 4 1.48645 6.25456 6.58875 10.2252
61 4 1.07585 8.53957 7.53919 12.0073
63 4 1.17655 6.50156 9.91564 17.4519
292 3 -0.84081 7.53852 6.67319 11.0647
67 4 1.46541 4.13909 10.8783 16.1292
97 2 0.00055937 6.7318 8.38656 18.2148
52 4 1.02593 6.27208 12.8456 15.4021
353 2 0.147839 6.60708 12.5114 10.3339
321 2 0.0977738 7.43669 11.7343 15.902
176 2 0.162251 8.40056 9.93926 12.3439
177 2 0.147509 7.54836 8.83757 13.6835
178 2 0.200012 6.67227 9.33842 12.0605
340 2 0.185393 5.66611 7.60633 17.1863
187 2 0.177773 7.86487 9.78907 10.6178
188 2 0.249956 5.27841 9.79546 10.4692
189 2 0.198187 4.43498 10.6894 11.967
190 2 0.156167 5.61435 11.6352 10.8047
268 3 -0.791835 1.13278 12.4862 13.0145
218 1 -0.675901 7.61802 9.13963 12.5222
222 1 -0.668729 4.87492 10.7939 10.9314
314 4 1.15342 9.59719 10.5964 15.8241
343 1 -0.696198 5.96074 6.64594 17.7028
118 2 0.159139 11.6904 6.81639 13.101
197 1 -0.653645 12.4571 6.78239 12.2653
291 3 -0.783239 10.0813 7.88307 11.3527
296 3 -0.831039 6.21247 11.0721 18.5091
295 3 -0.788705 8.11031 10.4296 16.6342
173 2 0.153274 8.22152 6.79345 14.5056
300 3 -0.778954 1.94079 11.827 10.6224
305 3 -0.830373 3.31197 10.1867 14.9125
306 3 -0.801671 5.34168 9.67003 16.4202
307 3 -0.832802 4.87786 12.2261 15.5335
308 3 -0.775155 3.35812 10.8015 17.7515
318 2 -0.0264429 9.64173 9.34168 14.8438
65 4 1.26705 3.47582 11.1316 9.72229
363 2 0.1533 12.0425 7.35333 16.9022
153 2 0.20783 4.28385 7.24256 16.9337
221 1 -0.659641 7.99703 10.1786 9.50297
297 3 -0.769919 6.17973 8.1013 9.40712
185 2 0.176372 7.5969 11.289 9.40185
90 2 -0.0336308 6.73011 12.7779 13.8212
ITEM: TIMESTEP
200
ITEM: NUMBER OF ATOMS
371
ITEM: BOX BOUNDS xy xz yz pp pp pp
-8.1053880000000014e+00 1.7777500000000000e+01 -8.1053880000000014e+00
0.0000000000000000e+00 1.3020299999999999e+01 4.5889999999999997e-01
0.0000000000000000e+00 1.8640300000000000e+01 2.0540000000000000e-01