LAMMPS (2 Aug 2023 - Update 2)
  using 1 OpenMP thread(s) per MPI task
# Initialization
units           real
dimension       3
boundary        p p p
# boundary        s s s
atom_style      full
timestep        0.5   # fs

# Define MD parameters
variable nevery equal 10                  # sampling interval
variable nrepeat equal 10                 # number of samples
variable nfreq equal ${nevery}*${nrepeat} # length of one average
variable nfreq equal 10*${nrepeat} 
variable nfreq equal 10*10 
variable nthermo equal ${nfreq}           # interval for thermo output
variable nthermo equal 100           
# 1 ps : 1e3 fs / 0.5 fs = 2e3 steps
# variable nequil equal 20*${nthermo}       # steps of equilibration run 10
variable nrun equal 100*${nthermo}          # stpes of equilibrated run 10
variable nrun equal 100*100          
variable temp equal 300.0                # temperature of initial sample
variable tdamp equal 50.0                 # time constant for thermostat
variable seed equal 123456                # seed for thermostat
variable ufac equal 1.01325e-4         # pressure unit conversion, from atm to Gpa
variable up equal 0.01                  # the deformation magnitude 0.1
variable FF string "SiOCHN_2018.ff C H O Si"          # force field args for pair_coeff
# pair_coeff * * CHONSSi.ff C H O Si
# pair_coeff * * CHOSiNa.ff C H O Si
# pair_coeff * * SiOCHN_2018.ff C H O Si
# pair_coeff * * PDMSDecomp.ff C H O Si
# pair_coeff * * CHONSi.ff C H O Si
# pair_coeff * * CHOFe.ff O Si

# Read the initial sctructure
# box tilt large
variable structure string 333-RV-31

read_data       ${structure}.data
read_data       333-RV-31.data
Reading data file ...
  triclinic box = (0 0 0) to (15.4114 12.7411 17.5034) with tilt (-7.2027 -1.8261 0.3384)
WARNING: Triclinic box skew is large. LAMMPS will run inefficiently. (src/domain.cpp:220)
  2 by 2 by 2 MPI processor grid
  reading atoms ...
  310 atoms
  reading velocities ...
  310 velocities
Finding 1-2 1-3 1-4 neighbors ...
  special bond factors lj:    0        0        0       
  special bond factors coul:  0        0        0       
     0 = max # of 1-2 neighbors
     0 = max # of 1-3 neighbors
     0 = max # of 1-4 neighbors
     1 = max # of special neighbors
  special bonds CPU = 0.001 seconds
  read_data CPU = 0.009 seconds

# Assign the force field
pair_style reaxff NULL safezone 3.0 mincap 150
pair_coeff * * ${FF}
pair_coeff * * SiOCHN_2018.ff C H O Si
WARNING: Van der Waals parameters for element SI indicate inner wall+shielding, but earlier atoms indicate a different van der Waals method. This may cause division-by-zero errors. Keeping van der Waals setting for earlier atoms. (src/REAXFF/reaxff_ffield.cpp:251)
# charge method for reaxff
fix myqeq all qeq/reaxff 1 0.0 10.0 1.0e-6 reaxff maxiter 400

# # Energy minimization
# print "*****Minimization starts.*****"
# minimize 1.0e-6 1.0e-6 100 1000
# min_style cg
# # Save the optimized structure
# write_data ${structure}_opt.data
velocity        all create ${temp} ${seed} dist gaussian
velocity        all create 300 ${seed} dist gaussian
velocity        all create 300 123456 dist gaussian

# # Equilibration
# include ff.mod.lmp
# if "$(is_defined(fix,avgp))" then "unfix avgp"
# if "$(is_defined(fix,avgl))" then "unfix avgl"
# thermo_style custom step temp pe press density vol
# run ${nequil}
# # Save the equilibrated structure
# write_data ${structure}_eq.data

# use tmp to save initial length and tilt
variable tmp equal lx
variable lx0 equal ${tmp}
variable lx0 equal 15.4114
variable tmp equal ly
variable ly0 equal ${tmp}
variable ly0 equal 12.7411
variable tmp equal lz
variable lz0 equal ${tmp}
variable lz0 equal 17.5034

variable tmp equal yz
variable yz0 equal ${tmp}
variable yz0 equal 0.3384
variable tmp equal xz
variable xz0 equal ${tmp}
variable xz0 equal -1.8261
variable tmp equal xy
variable xy0 equal ${tmp}
variable xy0 equal -7.2027

# Write restart
write_restart equil.res
System init for write_restart ...
Neighbor list info ...
  update: every = 1 steps, delay = 0 steps, check = yes
  max neighbors/atom: 2000, page size: 100000
  master list distance cutoff = 12
  ghost atom cutoff = 12
  binsize = 6, bins = 5 3 3
  2 neighbor lists, perpetual/occasional/extra = 2 0 0
  (1) pair reaxff, perpetual
      attributes: half, newton off, ghost
      pair build: half/bin/newtoff/ghost
      stencil: full/ghost/bin/3d
      bin: standard
  (2) fix qeq/reaxff, perpetual, copy from (1)
      attributes: half, newton off
      pair build: copy
      stencil: none
      bin: none

# dir: direction
# uxx Perturbation
variable dir equal 1
include displace.mod.lmp
# Find which length (epsilon) to calculate
if "${dir} == 1" then    "variable len0 equal ${lx0}"    "variable dlen equal lx-${len0}"
variable len0 equal ${lx0}
variable len0 equal 15.4114
variable dlen equal lx-${len0}
variable dlen equal lx-15.4114
if "${dir} == 2" then    "variable len0 equal ${ly0}"    "variable dlen equal ly-${len0}"
if "${dir} == 3" then    "variable len0 equal ${lz0}"    "variable dlen equal lz-${len0}"
if "${dir} == 4" then    "variable len0 equal ${lx0}"    "variable dlen equal 2*(yz-${yz0})"
if "${dir} == 5" then    "variable len0 equal ${ly0}"    "variable dlen equal 2*(xz-${xz0})"
if "${dir} == 6" then    "variable len0 equal ${lz0}"    "variable dlen equal 2*(xy-${xy0})"

# strain vector (epsilon)
variable eps equal v_dlen/v_len0

# stress vector (sigma)
variable sig1 equal -f_avgp[1]*${ufac}
variable sig1 equal -f_avgp[1]*0.000101325
variable sig2 equal -f_avgp[2]*${ufac}
variable sig2 equal -f_avgp[2]*0.000101325
variable sig3 equal -f_avgp[3]*${ufac}
variable sig3 equal -f_avgp[3]*0.000101325
variable sig4 equal -f_avgp[6]*${ufac}
variable sig4 equal -f_avgp[6]*0.000101325
variable sig5 equal -f_avgp[5]*${ufac}
variable sig5 equal -f_avgp[5]*0.000101325
variable sig6 equal -f_avgp[4]*${ufac}
variable sig6 equal -f_avgp[4]*0.000101325

# Reset box and simulation parameters
clear
  using 1 OpenMP thread(s) per MPI task
# box tilt large
read_restart equil.res
Reading restart file ...
  restart file = 2 Aug 2023, LAMMPS = 2 Aug 2023
  restoring atom style full from restart
  triclinic box = (0 0 0) to (15.4114 12.7411 17.5034) with tilt (-7.2027 -1.8261 0.3384)
WARNING: Triclinic box skew is large. LAMMPS will run inefficiently. (src/domain.cpp:220)
  2 by 2 by 2 MPI processor grid
  pair style reaxff stores no restart info
  310 atoms
Finding 1-2 1-3 1-4 neighbors ...
  special bond factors lj:    0        0        0       
  special bond factors coul:  0        0        0       
     0 = max # of 1-2 neighbors
     0 = max # of 1-3 neighbors
     0 = max # of 1-4 neighbors
     1 = max # of special neighbors
  special bonds CPU = 0.000 seconds
  read_restart CPU = 0.004 seconds

# Negative deformation
variable delta equal -${up}*${len0}
variable delta equal -0.01*${len0}
variable delta equal -0.01*15.4114
variable deltaxy equal -${up}*xy
variable deltaxy equal -0.01*xy
variable deltaxz equal -${up}*xz
variable deltaxz equal -0.01*xz
variable deltayz equal -${up}*yz
variable deltayz equal -0.01*yz
print "*****debug*****"
*****debug*****
print "xy = $(xy), deltaxy = ${deltaxy}"
xy = -7.2027000000000001023, deltaxy = 0.072027
print "xz = $(xz), deltaxz = ${deltaxz}"
xz = -1.8261000000000000565, deltaxz = 0.018261
print "yz = $(yz), deltayz = ${deltayz}"
yz = 0.33839999999999997859, deltayz = -0.003384
print "*****"
*****

if "${dir} == 1" then    "fix deform_n all deform ${nthermo} x delta 0 ${delta} xy delta ${deltaxy} xz delta ${deltaxz} remap v units box flip no"
fix deform_n all deform ${nthermo} x delta 0 ${delta} xy delta ${deltaxy} xz delta ${deltaxz} remap v units box flip no
fix deform_n all deform 100 x delta 0 ${delta} xy delta ${deltaxy} xz delta ${deltaxz} remap v units box flip no
fix deform_n all deform 100 x delta 0 -0.154114 xy delta ${deltaxy} xz delta ${deltaxz} remap v units box flip no
fix deform_n all deform 100 x delta 0 -0.154114 xy delta 0.072027 xz delta ${deltaxz} remap v units box flip no
fix deform_n all deform 100 x delta 0 -0.154114 xy delta 0.072027 xz delta 0.018261 remap v units box flip no
if "${dir} == 2" then    "fix deform_n all deform ${nthermo} y delta 0 ${delta} yz delta ${deltayz} remap v units box flip no"
if "${dir} == 3" then    "fix deform_n all deform ${nthermo} z delta 0 ${delta} remap v units box flip no"
if "${dir} == 4" then    "fix deform_n all deform ${nthermo} yz delta ${delta} remap v units box flip no"
if "${dir} == 5" then    "fix deform_n all deform ${nthermo} xz delta ${delta} remap v units box flip no"
if "${dir} == 6" then    "fix deform_n all deform ${nthermo} xy delta ${delta} remap v units box flip no"

# Run MD for Negative deformation
print "*****Negative-deform ${dir} starts.*****"
*****Negative-deform 1 starts.*****
include ff.mod.lmp
# Setup forcefield, system
# undefine any fix ave/* fix before using reset_timestep
if "$(is_defined(fix,avgp))" then "unfix avgp"
if "$(is_defined(fix,avgl))" then "unfix avgl"
reset_timestep 0

# Assign the force field
pair_style reaxff NULL safezone 3.0 mincap 150
pair_coeff * * ${FF}
pair_coeff * * SiOCHN_2018.ff C H O Si
WARNING: Van der Waals parameters for element SI indicate inner wall+shielding, but earlier atoms indicate a different van der Waals method. This may cause division-by-zero errors. Keeping van der Waals setting for earlier atoms. (src/REAXFF/reaxff_ffield.cpp:251)


# charge method for reaxff
fix myqeq all qeq/reaxff 1 0.0 10.0 1.0e-6 reaxff maxiter 400
# Setup neighbor style
neighbor        2 bin
neigh_modify    every 10 delay 0 check yes

# Setup output
thermo		${nthermo}
thermo		100
thermo_style custom step temp pe press vol
# thermo_style custom step vol lx ly lz yz xz xy
thermo_modify norm no
# thermo_modify line multi

# Sample pressure (and length vector)
fix avgp all ave/time  ${nevery} ${nrepeat} ${nfreq} c_thermo_press mode vector
fix avgp all ave/time  10 ${nrepeat} ${nfreq} c_thermo_press mode vector
fix avgp all ave/time  10 10 ${nfreq} c_thermo_press mode vector
fix avgp all ave/time  10 10 100 c_thermo_press mode vector
# variable lx equal lx
# variable ly equal ly
# variable lz equal lz
# fix avgl all ave/time  ${nevery} ${nrepeat} ${nfreq} v_lx v_ly v_lz

# nvt
fix fnvt all nvt temp ${temp} ${temp} ${tdamp}
fix fnvt all nvt temp 300 ${temp} ${tdamp}
fix fnvt all nvt temp 300 300 ${tdamp}
fix fnvt all nvt temp 300 300 50


# Save stress, strain to "./stress_strain/stress_strain.neg${dir}.out"
print "# Stress and strain vectors, ${structure}, negative deformation ${dir}"       file stress_strain/stress_strain.neg${dir}.out screen no
print "# Stress and strain vectors, ${structure}, negative deformation ${dir}"       file stress_strain/stress_strain.neg1.out screen no
fix data all print ${nfreq} "${eps} ${sig1} ${sig2} ${sig3} ${sig4} ${sig5} ${sig6}"       append stress_strain/stress_strain.neg${dir}.out screen no       title "# eps sig1 sig2 sig3 sig4 sig5 sig6"
fix data all print 100 "${eps} ${sig1} ${sig2} ${sig3} ${sig4} ${sig5} ${sig6}"       append stress_strain/stress_strain.neg${dir}.out screen no       title "# eps sig1 sig2 sig3 sig4 sig5 sig6"
fix data all print 100 "${eps} ${sig1} ${sig2} ${sig3} ${sig4} ${sig5} ${sig6}"       append stress_strain/stress_strain.neg1.out screen no       title "# eps sig1 sig2 sig3 sig4 sig5 sig6"

# save trajectory
# if "$(is_defined(dump,dump_neg${dir1}))" then "undump dump_neg${dir1}"
dump dump_neg${dir} all custom/gz ${nthermo} dump/neg_deform${dir}.lammpstrj.gz id type q x y z
dump dump_neg1 all custom/gz ${nthermo} dump/neg_deform${dir}.lammpstrj.gz id type q x y z
dump dump_neg1 all custom/gz 100 dump/neg_deform${dir}.lammpstrj.gz id type q x y z
dump dump_neg1 all custom/gz 100 dump/neg_deform1.lammpstrj.gz id type q x y z
# variable dir1 equal ${dir}
run ${nrun}
run 10000

CITE-CITE-CITE-CITE-CITE-CITE-CITE-CITE-CITE-CITE-CITE-CITE-CITE

Your simulation uses code contributions which should be cited:

- pair reaxff command: doi:10.1016/j.parco.2011.08.005

@Article{Aktulga12,
 author = {H. M. Aktulga and J. C. Fogarty and S. A. Pandit and A. Y. Grama},
 title = {Parallel Reactive Molecular Dynamics: {N}umerical Methods and Algorithmic Techniques},
 journal = {Parallel Computing},
 year =    2012,
 volume =  38,
 number =  {4--5},
 pages =   {245--259}
}

- fix qeq/reaxff command: doi:10.1016/j.parco.2011.08.005

@Article{Aktulga12,
 author = {H. M. Aktulga and J. C. Fogarty and S. A. Pandit and A. Y. Grama},
 title = {Parallel Reactive Molecular Dynamics: {N}umerical Methods and Algorithmic Techniques},
 journal = {Parallel Computing},
 year =    2012,
 volume =  38,
 pages =   {245--259}
}

CITE-CITE-CITE-CITE-CITE-CITE-CITE-CITE-CITE-CITE-CITE-CITE-CITE

Neighbor list info ...
  update: every = 10 steps, delay = 0 steps, check = yes
  max neighbors/atom: 2000, page size: 100000
  master list distance cutoff = 12
  ghost atom cutoff = 12
  binsize = 6, bins = 5 3 3
  2 neighbor lists, perpetual/occasional/extra = 2 0 0
  (1) pair reaxff, perpetual
      attributes: half, newton off, ghost
      pair build: half/bin/newtoff/ghost
      stencil: full/ghost/bin/3d
      bin: standard
  (2) fix qeq/reaxff, perpetual, copy from (1)
      attributes: half, newton off
      pair build: copy
      stencil: none
      bin: none
Per MPI rank memory allocation (min/avg/max) = 119.8 | 120.9 | 122.3 Mbytes
   Step          Temp          PotEng         Press          Volume    
         0   300           -28127.17      -3490.2382      3436.9359    
       100   336.18233     -28163.859      441.36173      3436.5922    
       200   276.9944      -28140.733      5113.7156      3436.2485    
       300   311.8577      -28185.203      19092.17       3435.9048    
       400   306.75773     -28172.266      7063.986       3435.5611    
       500   292.22379     -28156.248     -1825.501       3435.2174    
       600   348.06692     -28213.97       4159.2406      3434.8738    
       700   326.04246     -28240.723      4696.1926      3434.5301    
       800   307.77548     -28256.404     -1417.1274      3434.1864    
       900   285.25905     -28257.235      10964.264      3433.8427    
      1000   270.67121     -28246.078     -956.36835      3433.499     
      1100   302.71769     -28256.302      7134.4443      3433.1553    
      1200   328.61193     -28256.766     -1169.124       3432.8116    
      1300   316.38956     -28249.854      4189.0734      3432.4679    
      1400   282.88656     -28237.661      6224.311       3432.1242    
      1500   306.16089     -28261.858      2656.6201      3431.7805    
      1600   282.6183      -28244.616      7638.3928      3431.4368    
      1700   296.11555     -28258.407     -589.51595      3431.0931    
      1800   297.45646     -28260.393     -6836.3047      3430.7494    
      1900   292.51421     -28249.861     -7131.9037      3430.4057    
      2000   281.13991     -28238.914      7865.9426      3430.062     
      2100   303.18903     -28255.429      3304.3669      3429.7184    
      2200   307.02614     -28255.159      2544.1243      3429.3747    
      2300   305.03417     -28268.097      10375.823      3429.031     
      2400   286.93382     -28263.135      321.1428       3428.6873    
      2500   300.12154     -28293.332      5049.5121      3428.3436    
      2600   282.15171     -28301.076      1079.4107      3427.9999    
      2700   293.64838     -28325.759      9197.7213      3427.6562    
      2800   284.64925     -28329.455      15551.871      3427.3125    
      2900   296.9876      -28350.518      8035.534       3426.9688    
      3000   291.56208     -28370.587      17648.845      3426.6251    
      3100   294.25997     -28370.046      12601.543      3426.2814    
      3200   302.78237     -28347.805      2461.7743      3425.9377    
      3300   297.5555      -28342.641      13503.303      3425.594     
      3400   317.34187     -28356.272      6196.415       3425.2503    
      3500   299.96249     -28364.611      5574.2237      3424.9066    
      3600   304.16539     -28386.573     -9285.0895      3424.5629    
      3700   303.66559     -28377.805      17119.865      3424.2193    
      3800   270.21067     -28335.327      8070.5473      3423.8756    
      3900   313.61715     -28368.225      6000.3542      3423.5319    
      4000   274.70269     -28345.815     -1626.1594      3423.1882    
      4100   301.51608     -28370.359     -4374.3856      3422.8445    
      4200   301.95807     -28389.35      -7217.6102      3422.5008    
      4300   296.91854     -28424.965      2616.8796      3422.1571    
      4400   319.36122     -28459.694      8588.7134      3421.8134    
      4500   291.87649     -28454.654     -1167.0552      3421.4697    
      4600   293.79278     -28467.008      8803.4014      3421.126     
      4700   296.98642     -28458.212     -4153.7389      3420.7823    
      4800   312.0649      -28450.082      1754.7219      3420.4386    
      4900   293.9375      -28429.743      2384.4296      3420.0949    
      5000   327.77498     -28451.181      5602.851       3419.7512    
      5100   279.94517     -28416.045      5748.6435      3419.4075    
      5200   291.20138     -28440.903     -4580.7553      3419.0639    
      5300   278.9458      -28455.158     -8396.7013      3418.7202    
      5400   306.43162     -28492.578     -6449.5998      3418.3765    
      5500   270.43047     -28468.04       7785.4847      3418.0328    
      5600   343.68618     -28506.566     -6417.8486      3417.6891    
      5700   307.91915     -28449.2        7971.9505      3417.3454    
      5800   315.36977     -28478.539      10231.151      3417.0017    
      5900   318.90143     -28503.91      -78.407041      3416.658     
      6000   273.69452     -28471.062     -3786.0032      3416.3143    
      6100   276.9399      -28467.73      -12231.367      3415.9706    
      6200   314.28991     -28471.335      3003.9797      3415.6269    
      6300   319.75756     -28470.423     -3499.2494      3415.2832    
      6400   340.30993     -28510.622     -2516.64        3414.9395    
      6500   307.63453     -28493.335      11436.22       3414.5958    
      6600   289.74854     -28491.303     -10779.009      3414.2521    
      6700   297.85707     -28507.207      11336.511      3413.9084    
      6800   289.86558     -28492.033     -269.80777      3413.5648    
      6900   312.81451     -28486.237     -1321.3898      3413.2211    
      7000   326.89761     -28487.458      5213.1805      3412.8774    
      7100   303.45458     -28483.769      8950.4219      3412.5337    
      7200   293.09952     -28511.827     -3592.1798      3412.19      
      7300   306.85838     -28529.137     -4177.1704      3411.8463    
      7400   291.9184      -28514.817      363.8061       3411.5026    
      7500   298.39906     -28514.038      5503.3653      3411.1589    
      7600   297.13027     -28497.239      5787.3813      3410.8152    
      7700   336.47725     -28514.892     -1644.6969      3410.4715    
      7800   311.86558     -28506.751     -4665.5299      3410.1278    
      7900   294.03808     -28522.341      355.65474      3409.7841    
      8000   285.89519     -28524.013     -841.44626      3409.4404    
      8100   310.23268     -28536.304      7565.7589      3409.0967    
      8200   295.22495     -28508.454      5362.818       3408.753     
      8300   302.03559     -28511.691      9473.5553      3408.4093    
      8400   283.58606     -28502.153     -1358.4612      3408.0657    
      8500   283.37711     -28512.545      6553.3266      3407.722     
      8600   305.09469     -28528.213      17515.546      3407.3783    
      8700   322.44009     -28523.824      1969.1078      3407.0346    
      8800   304.16426     -28501.863     -11484.327      3406.6909    
      8900   295.55209     -28520.19      -909.9172       3406.3472    
      9000   269.96827     -28514.4       -795.91439      3406.0035    
      9100   301.04054     -28536.372      6338.3546      3405.6598    
      9200   265.20724     -28491.422      6653.4569      3405.3161    
      9300   302.92567     -28507.836      12677.753      3404.9724    
      9400   310.23289     -28513.395     -1963.9433      3404.6287    
      9500   298.87        -28508.832     -3420.9327      3404.285     
      9600   308.74505     -28520.243     -9494.6589      3403.9413    
      9700   305.82948     -28526.246      18602.002      3403.5976    
      9800   299.20815     -28547.659      435.65364      3403.2539    
      9900   272.8541      -28530.437      13233.602      3402.9103    
     10000   290.5287      -28523.578     -3760.2888      3402.5666    
Loop time of 383.929 on 8 procs for 10000 steps with 310 atoms

Performance: 1.125 ns/day, 21.329 hours/ns, 26.046 timesteps/s, 8.074 katom-step/s
98.6% CPU use with 8 MPI tasks x 1 OpenMP threads

MPI task timing breakdown:
Section |  min time  |  avg time  |  max time  |%varavg| %total
---------------------------------------------------------------
Pair    | 234.82     | 309.48     | 336.85     | 207.4 | 80.61
Bond    | 0.027793   | 0.029842   | 0.032375   |   1.0 |  0.01
Neigh   | 3.523      | 4.6529     | 5.0779     |  27.3 |  1.21
Comm    | 7.523      | 34.962     | 109.55     | 617.0 |  9.11
Output  | 0.029619   | 0.072384   | 0.17587    |  20.1 |  0.02
Modify  | 34.072     | 34.478     | 35.65      |  10.3 |  8.98
Other   |            | 0.2554     |            |       |  0.07

Nlocal:          38.75 ave          43 max          34 min
Histogram: 1 1 0 1 1 0 1 1 1 1
Nghost:        3126.62 ave        3137 max        3113 min
Histogram: 1 1 0 0 0 2 1 1 1 1
Neighs:          24746 ave       27318 max       21797 min
Histogram: 1 1 0 1 1 0 1 1 0 2

Total # of neighbors = 197968
Ave neighs/atom = 638.60645
Ave special neighs/atom = 0
Neighbor list builds = 189
Dangerous builds = 0
unfix deform_n
unfix data
undump dump_neg${dir}
undump dump_neg1

# Reset box and simulation parameters
clear
  using 1 OpenMP thread(s) per MPI task
# box tilt large
read_restart equil.res
Reading restart file ...
  restart file = 2 Aug 2023, LAMMPS = 2 Aug 2023
  restoring atom style full from restart
  triclinic box = (0 0 0) to (15.4114 12.7411 17.5034) with tilt (-7.2027 -1.8261 0.3384)
WARNING: Triclinic box skew is large. LAMMPS will run inefficiently. (src/domain.cpp:220)
  2 by 2 by 2 MPI processor grid
  pair style reaxff stores no restart info
  310 atoms
Finding 1-2 1-3 1-4 neighbors ...
  special bond factors lj:    0        0        0       
  special bond factors coul:  0        0        0       
     0 = max # of 1-2 neighbors
     0 = max # of 1-3 neighbors
     0 = max # of 1-4 neighbors
     1 = max # of special neighbors
  special bonds CPU = 0.000 seconds
  read_restart CPU = 0.003 seconds

# Positive deformation
variable delta equal ${up}*${len0}
variable delta equal 0.01*${len0}
variable delta equal 0.01*15.4114
variable deltaxy equal ${up}*xy
variable deltaxy equal 0.01*xy
variable deltaxz equal ${up}*xz
variable deltaxz equal 0.01*xz
variable deltayz equal ${up}*yz
variable deltayz equal 0.01*yz
if "${dir} == 1" then    "fix deform_p all deform ${nthermo} x delta 0 ${delta} xy delta ${deltaxy} xz delta ${deltaxz} remap v units box"
fix deform_p all deform ${nthermo} x delta 0 ${delta} xy delta ${deltaxy} xz delta ${deltaxz} remap v units box
fix deform_p all deform 100 x delta 0 ${delta} xy delta ${deltaxy} xz delta ${deltaxz} remap v units box
fix deform_p all deform 100 x delta 0 0.154114 xy delta ${deltaxy} xz delta ${deltaxz} remap v units box
fix deform_p all deform 100 x delta 0 0.154114 xy delta -0.072027 xz delta ${deltaxz} remap v units box
fix deform_p all deform 100 x delta 0 0.154114 xy delta -0.072027 xz delta -0.018261 remap v units box
if "${dir} == 2" then    "fix deform_p all deform ${nthermo} y delta 0 ${delta} yz delta ${deltayz} remap v units box"
if "${dir} == 3" then    "fix deform_p all deform ${nthermo} z delta 0 ${delta} remap v units box"
if "${dir} == 4" then    "fix deform_p all deform ${nthermo} yz delta ${delta} remap v units box"
if "${dir} == 5" then    "fix deform_p all deform ${nthermo} xz delta ${delta} remap v units box"
if "${dir} == 6" then    "fix deform_p all deform ${nthermo} xy delta ${delta} remap v units box"

# Run deformation MD
print "*****Positive-deform ${dir} starts.*****"
*****Positive-deform 1 starts.*****
include ff.mod.lmp
# Setup forcefield, system
# undefine any fix ave/* fix before using reset_timestep
if "$(is_defined(fix,avgp))" then "unfix avgp"
if "$(is_defined(fix,avgl))" then "unfix avgl"
reset_timestep 0

# Assign the force field
pair_style reaxff NULL safezone 3.0 mincap 150
pair_coeff * * ${FF}
pair_coeff * * SiOCHN_2018.ff C H O Si
WARNING: Van der Waals parameters for element SI indicate inner wall+shielding, but earlier atoms indicate a different van der Waals method. This may cause division-by-zero errors. Keeping van der Waals setting for earlier atoms. (src/REAXFF/reaxff_ffield.cpp:251)


# charge method for reaxff
fix myqeq all qeq/reaxff 1 0.0 10.0 1.0e-6 reaxff maxiter 400
# Setup neighbor style
neighbor        2 bin
neigh_modify    every 10 delay 0 check yes

# Setup output
thermo		${nthermo}
thermo		100
thermo_style custom step temp pe press vol
# thermo_style custom step vol lx ly lz yz xz xy
thermo_modify norm no
# thermo_modify line multi

# Sample pressure (and length vector)
fix avgp all ave/time  ${nevery} ${nrepeat} ${nfreq} c_thermo_press mode vector
fix avgp all ave/time  10 ${nrepeat} ${nfreq} c_thermo_press mode vector
fix avgp all ave/time  10 10 ${nfreq} c_thermo_press mode vector
fix avgp all ave/time  10 10 100 c_thermo_press mode vector
# variable lx equal lx
# variable ly equal ly
# variable lz equal lz
# fix avgl all ave/time  ${nevery} ${nrepeat} ${nfreq} v_lx v_ly v_lz

# nvt
fix fnvt all nvt temp ${temp} ${temp} ${tdamp}
fix fnvt all nvt temp 300 ${temp} ${tdamp}
fix fnvt all nvt temp 300 300 ${tdamp}
fix fnvt all nvt temp 300 300 50


# Save stress, strain to "./stress_strain/stress_strain.pos${dir}.out"
print "# Stress and strain vectors, ${structure}, positive deformation ${dir}"       file stress_strain/stress_strain.pos${dir}.out screen no
print "# Stress and strain vectors, ${structure}, positive deformation ${dir}"       file stress_strain/stress_strain.pos1.out screen no
fix data all print ${nfreq} "${eps} ${sig1} ${sig2} ${sig3} ${sig4} ${sig5} ${sig6}"       append stress_strain/stress_strain.pos${dir}.out screen no       title "# eps sig1 sig2 sig3 sig4 sig5 sig6"
fix data all print 100 "${eps} ${sig1} ${sig2} ${sig3} ${sig4} ${sig5} ${sig6}"       append stress_strain/stress_strain.pos${dir}.out screen no       title "# eps sig1 sig2 sig3 sig4 sig5 sig6"
fix data all print 100 "${eps} ${sig1} ${sig2} ${sig3} ${sig4} ${sig5} ${sig6}"       append stress_strain/stress_strain.pos1.out screen no       title "# eps sig1 sig2 sig3 sig4 sig5 sig6"

# # compute MSD and RDF
# compute msd1 all msd
# fix myMSD all ave/time ${nthermo} 1 ${nthermo} c_msd1[1] c_msd1[2] c_msd1[3] c_msd1[4] c_thermo_temp #     file stress_strain/msd_${dir}.out #     title2 "# TimeStep MSD_X MSD_Y MSD_Z MSD_Total Temperture"
# C-C C-Si Si-O C-H Si-Si
# compute rdf1 all rdf 100 1 1 1 4 3 4 1 2 4 4 cutoff 5.0
# fix myRDF all ave/time ${nthermo} 1 ${nthermo} c_rdf1[*] #     file stress_strain/rdf_${dir}.out mode vector #     title3 "# Row r g1(r) coor1(r) ..."

# save trajectory
# if "$(is_defined(dump,dump_pos${dir1}))" then "undump dump_pos${dir1}"
dump dump_pos${dir} all custom/gz ${nthermo} dump/pos_deform${dir}.lammpstrj.gz id type q x y z
dump dump_pos1 all custom/gz ${nthermo} dump/pos_deform${dir}.lammpstrj.gz id type q x y z
dump dump_pos1 all custom/gz 100 dump/pos_deform${dir}.lammpstrj.gz id type q x y z
dump dump_pos1 all custom/gz 100 dump/pos_deform1.lammpstrj.gz id type q x y z
run ${nrun}
run 10000
Neighbor list info ...
  update: every = 10 steps, delay = 0 steps, check = yes
  max neighbors/atom: 2000, page size: 100000
  master list distance cutoff = 12
  ghost atom cutoff = 12
  binsize = 6, bins = 5 3 3
  2 neighbor lists, perpetual/occasional/extra = 2 0 0
  (1) pair reaxff, perpetual
      attributes: half, newton off, ghost
      pair build: half/bin/newtoff/ghost
      stencil: full/ghost/bin/3d
      bin: standard
  (2) fix qeq/reaxff, perpetual, copy from (1)
      attributes: half, newton off
      pair build: copy
      stencil: none
      bin: none
Per MPI rank memory allocation (min/avg/max) = 119.9 | 120.9 | 122.3 Mbytes
   Step          Temp          PotEng         Press          Volume    
         0   300           -28127.17      -3490.2382      3436.9359    
       100   336.18847     -28163.87       440.22405      3437.2796    
       200   277.66922     -28141.206      5052.9228      3437.6233    
       300   312.4912      -28185.441      18255.861      3437.967     
       400   307.71558     -28172.884      8043.2098      3438.3107    
       500   296.65016     -28160.626     -2468.2791      3438.6544    
       600   340.51076     -28217          3357.3087      3438.9981    
       700   330.06844     -28252.354      4928.8864      3439.3418    
       800   306.68126     -28259.864      579.78865      3439.6855    
       900   278.48399     -28254.44       6859.4378      3440.0292    
      1000   280.85801     -28256.568     -421.74148      3440.3729    
      1100   290.06563     -28236.383      8526.3829      3440.7165    
      1200   331.84543     -28270.249     -5013.5969      3441.0602    
      1300   308.50432     -28273.878      1778.5443      3441.4039    
      1400   316.72226     -28297.292      7099.0268      3441.7476    
      1500   327.97142     -28313.541      2918.4709      3442.0913    
      1600   290.13788     -28297.022      7312.4531      3442.435     
      1700   294.10775     -28317.465     -7705.6539      3442.7787    
      1800   303.84938     -28324.326      1934.1579      3443.1224    
      1900   336.10258     -28347.901     -1631.8476      3443.4661    
      2000   331.32128     -28378.677     -8818.4793      3443.8098    
      2100   306.5726      -28377.067      11520.341      3444.1535    
      2200   301.90764     -28385.089      3958.8829      3444.4972    
      2300   310.61483     -28405.211      7860.9282      3444.8409    
      2400   283.18069     -28399.279     -5868.5953      3445.1846    
      2500   250.43669     -28384.99       810.76448      3445.5283    
      2600   269.7597      -28393.007     -12664.52       3445.872     
      2700   294.25517     -28379.463     -928.30529      3446.2156    
      2800   335.4957      -28412.464     -1168.7994      3446.5593    
      2900   305.37648     -28412.641     -7277.5932      3446.903     
      3000   308.98317     -28431.182      4401.9391      3447.2467    
      3100   293.30115     -28421.184      9275.7708      3447.5904    
      3200   301.67073     -28460.128     -3540.6612      3447.9341    
      3300   291.33181     -28463.621      1125.0327      3448.2778    
      3400   316.03477     -28479.169      7001.1359      3448.6215    
      3500   306.01988     -28461.259     -795.15128      3448.9652    
      3600   312.65561     -28484.134     -6215.6628      3449.3089    
      3700   291.36405     -28493.363     -3903.3017      3449.6526    
      3800   284.34133     -28490.883     -2224.9508      3449.9963    
      3900   318.86583     -28517.93      -459.39012      3450.34      
      4000   313.06083     -28497.222      4698.7159      3450.6837    
      4100   317.07189     -28484.022     -3518.6712      3451.0274    
      4200   307.81733     -28500.903      845.76326      3451.371     
      4300   300.99921     -28519.46      -6611.4343      3451.7147    
      4400   304.85941     -28528.782      3560.5378      3452.0584    
      4500   294.99166     -28520.718      16925.48       3452.4021    
      4600   293.08537     -28500.7       -4535.5067      3452.7458    
      4700   309.89423     -28496.753     -2541.1227      3453.0895    
      4800   304.78352     -28517.35       3629.2411      3453.4332    
      4900   301.03768     -28523.729      4309.6885      3453.7769    
      5000   304.48884     -28525.259     -103.53321      3454.1206    
      5100   313.48359     -28554.422     -10609.51       3454.4643    
      5200   272.88524     -28530.454      2899.7107      3454.808     
      5300   293.53514     -28546.773     -6289.2083      3455.1517    
      5400   305.66932     -28545.375      5582.5846      3455.4954    
      5500   291.37138     -28511.799      5807.2051      3455.8391    
      5600   326.1317      -28529.823      7553.2821      3456.1828    
      5700   325.00498     -28553.517      5519.5421      3456.5265    
      5800   289.12987     -28544.39       968.14847      3456.8701    
      5900   269.97236     -28535.166     -9618.9147      3457.2138    
      6000   302.52865     -28539.098      2148.2493      3457.5575    
      6100   307.47772     -28531.346     -846.29361      3457.9012    
      6200   317.02376     -28552.531      82.585521      3458.2449    
      6300   305.93376     -28558.398      3757.4316      3458.5886    
      6400   302.97793     -28566.28      -74.489363      3458.9323    
      6500   279.79101     -28565.262     -9086.3015      3459.276     
      6600   266.66217     -28562.476     -5005.0563      3459.6197    
      6700   287.93213     -28551.48       8546.9008      3459.9634    
      6800   303.32768     -28546.092      9452.0025      3460.3071    
      6900   297.24452     -28536.632      2839.6867      3460.6508    
      7000   306.16624     -28544.858      6914.8026      3460.9945    
      7100   273.6957      -28529.214      7621.0559      3461.3382    
      7200   284.58076     -28557.153     -2.7722201      3461.6819    
      7300   291.47598     -28548.449      4308.1754      3462.0255    
      7400   303.0167      -28535.087     -1950.0553      3462.3692    
      7500   284.06784     -28512.891      4768.1153      3462.7129    
      7600   324.83779     -28550.623      2944.2802      3463.0566    
      7700   291.33895     -28528.708     -491.79015      3463.4003    
      7800   272.37141     -28532.629      4460.8649      3463.744     
      7900   300.18856     -28562.956      4041.0438      3464.0877    
      8000   305.30857     -28544.163     -12903.097      3464.4314    
      8100   294.24976     -28512.583      10424.042      3464.7751    
      8200   323.2436      -28553.386      9206.1445      3465.1188    
      8300   284.12066     -28531.752      7050.0175      3465.4625    
      8400   300.42458     -28548.71       7427.6487      3465.8062    
      8500   312.09358     -28550.938      32.964877      3466.1499    
      8600   275.2329      -28518.431     -2963.6902      3466.4936    
      8700   308.13876     -28550.273      4829.3056      3466.8373    
      8800   314.70224     -28553.318      26276.134      3467.181     
      8900   288.08151     -28529.532      11128.028      3467.5246    
      9000   313.94482     -28556.19       7375.6082      3467.8683    
      9100   284.62318     -28536.053      8958.0519      3468.212     
      9200   298.26976     -28549.511      13982.477      3468.5557    
      9300   320.44301     -28553.452      2066.1068      3468.8994    
      9400   302.52637     -28522.302     -11863.346      3469.2431    
      9500   302.45236     -28536.711     -8097.621       3469.5868    
      9600   291.83116     -28556.509      501.69434      3469.9305    
      9700   297.10376     -28561.274     -2071.606       3470.2742    
      9800   276.80261     -28525.249      9157.3323      3470.6179    
      9900   301.34963     -28535.501      182.23789      3470.9616    
     10000   332.45705     -28566.232      1072.5538      3471.3053    
Loop time of 387.365 on 8 procs for 10000 steps with 310 atoms

Performance: 1.115 ns/day, 21.520 hours/ns, 25.815 timesteps/s, 8.003 katom-step/s
98.6% CPU use with 8 MPI tasks x 1 OpenMP threads

MPI task timing breakdown:
Section |  min time  |  avg time  |  max time  |%varavg| %total
---------------------------------------------------------------
Pair    | 232.72     | 313.66     | 335.04     | 180.0 | 80.97
Bond    | 0.026943   | 0.029375   | 0.032798   |   1.1 |  0.01
Neigh   | 3.6731     | 4.9576     | 5.2635     |  23.6 |  1.28
Comm    | 11.114     | 32.574     | 113.4      | 558.0 |  8.41
Output  | 0.029582   | 0.072599   | 0.17464    |  19.8 |  0.02
Modify  | 35.494     | 35.809     | 37.177     |   9.3 |  9.24
Other   |            | 0.2591     |            |       |  0.07

Nlocal:          38.75 ave          44 max          32 min
Histogram: 1 0 1 1 0 2 0 0 1 2
Nghost:           3091 ave        3147 max        3037 min
Histogram: 1 0 1 1 1 0 3 0 0 1
Neighs:        24255.6 ave       27328 max       20231 min
Histogram: 1 0 1 1 0 2 0 0 1 2

Total # of neighbors = 194045
Ave neighs/atom = 625.95161
Ave special neighs/atom = 0
Neighbor list builds = 198
Dangerous builds = 0
unfix deform_p
unfix data
undump dump_pos${dir}
undump dump_pos1

# Delete dir to make sure it is not reused
variable dir delete
# uyy Perturbation
variable dir equal 2
include displace.mod.lmp
# Find which length (epsilon) to calculate
if "${dir} == 1" then    "variable len0 equal ${lx0}"    "variable dlen equal lx-${len0}"
if "${dir} == 2" then    "variable len0 equal ${ly0}"    "variable dlen equal ly-${len0}"
variable len0 equal ${ly0}
variable len0 equal 12.7411
variable dlen equal ly-${len0}
variable dlen equal ly-12.7411
if "${dir} == 3" then    "variable len0 equal ${lz0}"    "variable dlen equal lz-${len0}"
if "${dir} == 4" then    "variable len0 equal ${lx0}"    "variable dlen equal 2*(yz-${yz0})"
if "${dir} == 5" then    "variable len0 equal ${ly0}"    "variable dlen equal 2*(xz-${xz0})"
if "${dir} == 6" then    "variable len0 equal ${lz0}"    "variable dlen equal 2*(xy-${xy0})"

# strain vector (epsilon)
variable eps equal v_dlen/v_len0

# stress vector (sigma)
variable sig1 equal -f_avgp[1]*${ufac}
variable sig1 equal -f_avgp[1]*0.000101325
variable sig2 equal -f_avgp[2]*${ufac}
variable sig2 equal -f_avgp[2]*0.000101325
variable sig3 equal -f_avgp[3]*${ufac}
variable sig3 equal -f_avgp[3]*0.000101325
variable sig4 equal -f_avgp[6]*${ufac}
variable sig4 equal -f_avgp[6]*0.000101325
variable sig5 equal -f_avgp[5]*${ufac}
variable sig5 equal -f_avgp[5]*0.000101325
variable sig6 equal -f_avgp[4]*${ufac}
variable sig6 equal -f_avgp[4]*0.000101325

# Reset box and simulation parameters
clear
  using 1 OpenMP thread(s) per MPI task
# box tilt large
read_restart equil.res
Reading restart file ...
  restart file = 2 Aug 2023, LAMMPS = 2 Aug 2023
  restoring atom style full from restart
  triclinic box = (0 0 0) to (15.4114 12.7411 17.5034) with tilt (-7.2027 -1.8261 0.3384)
WARNING: Triclinic box skew is large. LAMMPS will run inefficiently. (src/domain.cpp:220)
  2 by 2 by 2 MPI processor grid
  pair style reaxff stores no restart info
  310 atoms
Finding 1-2 1-3 1-4 neighbors ...
  special bond factors lj:    0        0        0       
  special bond factors coul:  0        0        0       
     0 = max # of 1-2 neighbors
     0 = max # of 1-3 neighbors
     0 = max # of 1-4 neighbors
     1 = max # of special neighbors
  special bonds CPU = 0.000 seconds
  read_restart CPU = 0.003 seconds

# Negative deformation
variable delta equal -${up}*${len0}
variable delta equal -0.01*${len0}
variable delta equal -0.01*12.7411
variable deltaxy equal -${up}*xy
variable deltaxy equal -0.01*xy
variable deltaxz equal -${up}*xz
variable deltaxz equal -0.01*xz
variable deltayz equal -${up}*yz
variable deltayz equal -0.01*yz
print "*****debug*****"
*****debug*****
print "xy = $(xy), deltaxy = ${deltaxy}"
xy = -7.2027000000000001023, deltaxy = 0.072027
print "xz = $(xz), deltaxz = ${deltaxz}"
xz = -1.8261000000000000565, deltaxz = 0.018261
print "yz = $(yz), deltayz = ${deltayz}"
yz = 0.33839999999999997859, deltayz = -0.003384
print "*****"
*****

if "${dir} == 1" then    "fix deform_n all deform ${nthermo} x delta 0 ${delta} xy delta ${deltaxy} xz delta ${deltaxz} remap v units box flip no"
if "${dir} == 2" then    "fix deform_n all deform ${nthermo} y delta 0 ${delta} yz delta ${deltayz} remap v units box flip no"
fix deform_n all deform ${nthermo} y delta 0 ${delta} yz delta ${deltayz} remap v units box flip no
fix deform_n all deform 100 y delta 0 ${delta} yz delta ${deltayz} remap v units box flip no
fix deform_n all deform 100 y delta 0 -0.127411 yz delta ${deltayz} remap v units box flip no
fix deform_n all deform 100 y delta 0 -0.127411 yz delta -0.003384 remap v units box flip no
if "${dir} == 3" then    "fix deform_n all deform ${nthermo} z delta 0 ${delta} remap v units box flip no"
if "${dir} == 4" then    "fix deform_n all deform ${nthermo} yz delta ${delta} remap v units box flip no"
if "${dir} == 5" then    "fix deform_n all deform ${nthermo} xz delta ${delta} remap v units box flip no"
if "${dir} == 6" then    "fix deform_n all deform ${nthermo} xy delta ${delta} remap v units box flip no"

# Run MD for Negative deformation
print "*****Negative-deform ${dir} starts.*****"
*****Negative-deform 2 starts.*****
include ff.mod.lmp
# Setup forcefield, system
# undefine any fix ave/* fix before using reset_timestep
if "$(is_defined(fix,avgp))" then "unfix avgp"
if "$(is_defined(fix,avgl))" then "unfix avgl"
reset_timestep 0

# Assign the force field
pair_style reaxff NULL safezone 3.0 mincap 150
pair_coeff * * ${FF}
pair_coeff * * SiOCHN_2018.ff C H O Si
WARNING: Van der Waals parameters for element SI indicate inner wall+shielding, but earlier atoms indicate a different van der Waals method. This may cause division-by-zero errors. Keeping van der Waals setting for earlier atoms. (src/REAXFF/reaxff_ffield.cpp:251)


# charge method for reaxff
fix myqeq all qeq/reaxff 1 0.0 10.0 1.0e-6 reaxff maxiter 400
# Setup neighbor style
neighbor        2 bin
neigh_modify    every 10 delay 0 check yes

# Setup output
thermo		${nthermo}
thermo		100
thermo_style custom step temp pe press vol
# thermo_style custom step vol lx ly lz yz xz xy
thermo_modify norm no
# thermo_modify line multi

# Sample pressure (and length vector)
fix avgp all ave/time  ${nevery} ${nrepeat} ${nfreq} c_thermo_press mode vector
fix avgp all ave/time  10 ${nrepeat} ${nfreq} c_thermo_press mode vector
fix avgp all ave/time  10 10 ${nfreq} c_thermo_press mode vector
fix avgp all ave/time  10 10 100 c_thermo_press mode vector
# variable lx equal lx
# variable ly equal ly
# variable lz equal lz
# fix avgl all ave/time  ${nevery} ${nrepeat} ${nfreq} v_lx v_ly v_lz

# nvt
fix fnvt all nvt temp ${temp} ${temp} ${tdamp}
fix fnvt all nvt temp 300 ${temp} ${tdamp}
fix fnvt all nvt temp 300 300 ${tdamp}
fix fnvt all nvt temp 300 300 50


# Save stress, strain to "./stress_strain/stress_strain.neg${dir}.out"
print "# Stress and strain vectors, ${structure}, negative deformation ${dir}"       file stress_strain/stress_strain.neg${dir}.out screen no
print "# Stress and strain vectors, ${structure}, negative deformation ${dir}"       file stress_strain/stress_strain.neg2.out screen no
fix data all print ${nfreq} "${eps} ${sig1} ${sig2} ${sig3} ${sig4} ${sig5} ${sig6}"       append stress_strain/stress_strain.neg${dir}.out screen no       title "# eps sig1 sig2 sig3 sig4 sig5 sig6"
fix data all print 100 "${eps} ${sig1} ${sig2} ${sig3} ${sig4} ${sig5} ${sig6}"       append stress_strain/stress_strain.neg${dir}.out screen no       title "# eps sig1 sig2 sig3 sig4 sig5 sig6"
fix data all print 100 "${eps} ${sig1} ${sig2} ${sig3} ${sig4} ${sig5} ${sig6}"       append stress_strain/stress_strain.neg2.out screen no       title "# eps sig1 sig2 sig3 sig4 sig5 sig6"

# save trajectory
# if "$(is_defined(dump,dump_neg${dir1}))" then "undump dump_neg${dir1}"
dump dump_neg${dir} all custom/gz ${nthermo} dump/neg_deform${dir}.lammpstrj.gz id type q x y z
dump dump_neg2 all custom/gz ${nthermo} dump/neg_deform${dir}.lammpstrj.gz id type q x y z
dump dump_neg2 all custom/gz 100 dump/neg_deform${dir}.lammpstrj.gz id type q x y z
dump dump_neg2 all custom/gz 100 dump/neg_deform2.lammpstrj.gz id type q x y z
# variable dir1 equal ${dir}
run ${nrun}
run 10000
Neighbor list info ...
  update: every = 10 steps, delay = 0 steps, check = yes
  max neighbors/atom: 2000, page size: 100000
  master list distance cutoff = 12
  ghost atom cutoff = 12
  binsize = 6, bins = 5 3 3
  2 neighbor lists, perpetual/occasional/extra = 2 0 0
  (1) pair reaxff, perpetual
      attributes: half, newton off, ghost
      pair build: half/bin/newtoff/ghost
      stencil: full/ghost/bin/3d
      bin: standard
  (2) fix qeq/reaxff, perpetual, copy from (1)
      attributes: half, newton off
      pair build: copy
      stencil: none
      bin: none
Per MPI rank memory allocation (min/avg/max) = 119.8 | 120.9 | 122.3 Mbytes
   Step          Temp          PotEng         Press          Volume    
         0   300           -28127.17      -3490.2382      3436.9359    
       100   336.18661     -28163.869      441.02058      3436.5922    
       200   277.1298      -28140.788      5117.5285      3436.2485    
       300   312.2595      -28185.304      18400.014      3435.9048    
       400   307.56029     -28172.902      8124.6568      3435.5611    
       500   291.7451      -28155.943     -2370.2254      3435.2174    
       600   346.73155     -28213.682      2696.505       3434.8738    
       700   328.77544     -28243.216      5065.0819      3434.5301    
       800   300.45048     -28248.394      845.22847      3434.1864    
       900   275.7344      -28248.11       8392.3316      3433.8427    
      1000   273.72536     -28250.661      1370.0881      3433.499     
      1100   296.42631     -28247.727      12641.896      3433.1553    
      1200   322.14717     -28253.37      -654.1251       3432.8116    
      1300   295.66102     -28228.118      1542.6389      3432.4679    
      1400   294.79557     -28245.056      1864.5012      3432.1242    
      1500   271.57749     -28250.111      2697.6125      3431.7805    
      1600   261.64736     -28260.043      11131.903      3431.4368    
      1700   274.51646     -28266.949      5824.0631      3431.0931    
      1800   305.39491     -28263.045     -4038.7673      3430.7494    
      1900   293.51435     -28238.961      7038.3944      3430.4057    
      2000   318.97577     -28271.497      8906.0322      3430.062     
      2100   285.7242      -28267.755      3553.5233      3429.7184    
      2200   289.33151     -28282.247     -3644.2665      3429.3747    
      2300   282.28737     -28282.876     -881.82226      3429.031     
      2400   278.25663     -28299.014      9466.7094      3428.6873    
      2500   290.76897     -28336.614     -508.83957      3428.3436    
      2600   283.61367     -28336.107      7351.8653      3427.9999    
      2700   288.4199      -28303.659      2154.9465      3427.6562    
      2800   312.02467     -28310.147     -8296.7343      3427.3125    
      2900   312.42922     -28290.06       13591.59       3426.9688    
      3000   335.10969     -28308.661      10561.649      3426.6251    
      3100   312.72732     -28321.974      12456.891      3426.2814    
      3200   293.37361     -28319.26      -4286.1568      3425.9377    
      3300   290.74794     -28317.354     -10973.218      3425.594     
      3400   294.52015     -28317.181      6338.9635      3425.2503    
      3500   298.60877     -28318.787      9126.2081      3424.9066    
      3600   308.79248     -28326.016     -2391.1298      3424.5629    
      3700   328.09994     -28348.161      8202.3969      3424.2193    
      3800   311.87498     -28353.842      351.737        3423.8756    
      3900   256.6575      -28317.069      1301.4601      3423.5319    
      4000   308.19937     -28345.003      7485.3105      3423.1882    
      4100   316.01021     -28335.23       15849.657      3422.8445    
      4200   320.10627     -28343.849      12805.841      3422.5008    
      4300   283.89764     -28318.175      5532.9267      3422.1571    
      4400   302.04717     -28330.2        4460.2618      3421.8134    
      4500   309.95817     -28325.386      2594.5367      3421.4697    
      4600   306.82307     -28302.792      8341.5609      3421.126     
      4700   329.50828     -28329.376      5028.1291      3420.7823    
      4800   303.94419     -28343.015      2899.7565      3420.4386    
      4900   276.82196     -28324.911      7087.9674      3420.0949    
      5000   276.24449     -28321.836      8014.766       3419.7512    
      5100   322.36635     -28336.662      298.69424      3419.4075    
      5200   296.63758     -28314.421     -1438.0734      3419.0639    
      5300   301.72248     -28329.248      10187.206      3418.7202    
      5400   283.85655     -28314.2        2656.6822      3418.3765    
      5500   265.42197     -28291.714     -2113.4231      3418.0328    
      5600   290.48807     -28311.172      7178.5988      3417.6891    
      5700   319.13572     -28340.859      4403.9602      3417.3454    
      5800   313.86041     -28349.709      2002.7693      3417.0017    
      5900   289.51448     -28348.579      8438.3813      3416.658     
      6000   300.55661     -28365.514     -818.38905      3416.3143    
      6100   310.92865     -28356.669      15562.065      3415.9706    
      6200   321.00466     -28333.415      3865.2539      3415.6269    
      6300   335.71807     -28368.963     -577.81728      3415.2832    
      6400   328.24391     -28389.663      9611.2047      3414.9395    
      6500   301.20161     -28383.887     -9830.9975      3414.5958    
      6600   278.26877     -28383.551      933.47733      3414.2521    
      6700   302.4892      -28418.241      2241.187       3413.9084    
      6800   294.93377     -28432.273      6503.1392      3413.5648    
      6900   293.75929     -28436.061      8217.0036      3413.2211    
      7000   313.51925     -28420.117      19971.191      3412.8774    
      7100   357.23182     -28439.485      1300.9736      3412.5337    
      7200   302.19023     -28416.272     -4533.4932      3412.19      
      7300   303.89575     -28437.614      4765.7175      3411.8463    
      7400   290.40534     -28434.67       7238.54        3411.5026    
      7500   305.97906     -28464.296      11605.411      3411.1589    
      7600   302.4564      -28478.356      17398.082      3410.8152    
      7700   263.23335     -28453.333      3695.0877      3410.4715    
      7800   294.75266     -28453.153     -2584.4888      3410.1278    
      7900   310.94854     -28451.087      11096.334      3409.7841    
      8000   300.4893      -28437.935      6269.7869      3409.4404    
      8100   291.73925     -28430.134      12135.133      3409.0967    
      8200   279.13222     -28413.918      14322.114      3408.753     
      8300   323.50457     -28441.96       9986.6477      3408.4093    
      8400   300.09463     -28419.459     -333.83992      3408.0657    
      8500   311.99618     -28452.55       785.49105      3407.722     
      8600   289.36523     -28455.003      9714.9391      3407.3783    
      8700   293.12395     -28461.398      9277.4221      3407.0346    
      8800   310.76708     -28458.328      13564.676      3406.6909    
      8900   288.1289      -28424.998      752.0455       3406.3472    
      9000   296.68531     -28429.945      11263.272      3406.0035    
      9100   311.44351     -28452.586      11537.235      3405.6598    
      9200   311.98102     -28462.693      6697.8653      3405.3161    
      9300   277.17507     -28456.471     -2082.3425      3404.9724    
      9400   264.71715     -28451.481     -4486.8805      3404.6287    
      9500   309.13553     -28468.2        1630.7053      3404.285     
      9600   294.85601     -28447.648      6804.9692      3403.9413    
      9700   302.49522     -28451.681     -6985.7317      3403.5976    
      9800   334.11193     -28489.983      6747.9935      3403.2539    
      9900   286.62176     -28480.237      3827.8705      3402.9103    
     10000   296.45398     -28495.351      14427.603      3402.5666    
Loop time of 387.568 on 8 procs for 10000 steps with 310 atoms

Performance: 1.115 ns/day, 21.532 hours/ns, 25.802 timesteps/s, 7.999 katom-step/s
98.7% CPU use with 8 MPI tasks x 1 OpenMP threads

MPI task timing breakdown:
Section |  min time  |  avg time  |  max time  |%varavg| %total
---------------------------------------------------------------
Pair    | 305.32     | 326.63     | 338.96     |  59.8 | 84.28
Bond    | 0.027377   | 0.029858   | 0.032692   |   0.8 |  0.01
Neigh   | 4.7009     | 5.0767     | 5.3614     |   8.9 |  1.31
Comm    | 7.8018     | 20.171     | 41.416     | 240.5 |  5.20
Output  | 0.0316     | 0.074065   | 0.17685    |  19.6 |  0.02
Modify  | 34.944     | 35.31      | 35.74      |   3.9 |  9.11
Other   |            | 0.2716     |            |       |  0.07

Nlocal:          38.75 ave          45 max          32 min
Histogram: 2 0 0 2 0 0 1 0 1 2
Nghost:        3162.38 ave        3196 max        3133 min
Histogram: 2 0 0 1 2 1 0 1 0 1
Neighs:        24757.2 ave       28612 max       20505 min
Histogram: 2 0 0 2 0 0 1 0 1 2

Total # of neighbors = 198058
Ave neighs/atom = 638.89677
Ave special neighs/atom = 0
Neighbor list builds = 193
Dangerous builds = 0
unfix deform_n
unfix data
undump dump_neg${dir}
undump dump_neg2

# Reset box and simulation parameters
clear
  using 1 OpenMP thread(s) per MPI task
# box tilt large
read_restart equil.res
Reading restart file ...
  restart file = 2 Aug 2023, LAMMPS = 2 Aug 2023
  restoring atom style full from restart
  triclinic box = (0 0 0) to (15.4114 12.7411 17.5034) with tilt (-7.2027 -1.8261 0.3384)
WARNING: Triclinic box skew is large. LAMMPS will run inefficiently. (src/domain.cpp:220)
  2 by 2 by 2 MPI processor grid
  pair style reaxff stores no restart info
  310 atoms
Finding 1-2 1-3 1-4 neighbors ...
  special bond factors lj:    0        0        0       
  special bond factors coul:  0        0        0       
     0 = max # of 1-2 neighbors
     0 = max # of 1-3 neighbors
     0 = max # of 1-4 neighbors
     1 = max # of special neighbors
  special bonds CPU = 0.000 seconds
  read_restart CPU = 0.003 seconds

# Positive deformation
variable delta equal ${up}*${len0}
variable delta equal 0.01*${len0}
variable delta equal 0.01*12.7411
variable deltaxy equal ${up}*xy
variable deltaxy equal 0.01*xy
variable deltaxz equal ${up}*xz
variable deltaxz equal 0.01*xz
variable deltayz equal ${up}*yz
variable deltayz equal 0.01*yz
if "${dir} == 1" then    "fix deform_p all deform ${nthermo} x delta 0 ${delta} xy delta ${deltaxy} xz delta ${deltaxz} remap v units box"
if "${dir} == 2" then    "fix deform_p all deform ${nthermo} y delta 0 ${delta} yz delta ${deltayz} remap v units box"
fix deform_p all deform ${nthermo} y delta 0 ${delta} yz delta ${deltayz} remap v units box
fix deform_p all deform 100 y delta 0 ${delta} yz delta ${deltayz} remap v units box
fix deform_p all deform 100 y delta 0 0.127411 yz delta ${deltayz} remap v units box
fix deform_p all deform 100 y delta 0 0.127411 yz delta 0.003384 remap v units box
if "${dir} == 3" then    "fix deform_p all deform ${nthermo} z delta 0 ${delta} remap v units box"
if "${dir} == 4" then    "fix deform_p all deform ${nthermo} yz delta ${delta} remap v units box"
if "${dir} == 5" then    "fix deform_p all deform ${nthermo} xz delta ${delta} remap v units box"
if "${dir} == 6" then    "fix deform_p all deform ${nthermo} xy delta ${delta} remap v units box"

# Run deformation MD
print "*****Positive-deform ${dir} starts.*****"
*****Positive-deform 2 starts.*****
include ff.mod.lmp
# Setup forcefield, system
# undefine any fix ave/* fix before using reset_timestep
if "$(is_defined(fix,avgp))" then "unfix avgp"
if "$(is_defined(fix,avgl))" then "unfix avgl"
reset_timestep 0

# Assign the force field
pair_style reaxff NULL safezone 3.0 mincap 150
pair_coeff * * ${FF}
pair_coeff * * SiOCHN_2018.ff C H O Si
WARNING: Van der Waals parameters for element SI indicate inner wall+shielding, but earlier atoms indicate a different van der Waals method. This may cause division-by-zero errors. Keeping van der Waals setting for earlier atoms. (src/REAXFF/reaxff_ffield.cpp:251)


# charge method for reaxff
fix myqeq all qeq/reaxff 1 0.0 10.0 1.0e-6 reaxff maxiter 400
# Setup neighbor style
neighbor        2 bin
neigh_modify    every 10 delay 0 check yes

# Setup output
thermo		${nthermo}
thermo		100
thermo_style custom step temp pe press vol
# thermo_style custom step vol lx ly lz yz xz xy
thermo_modify norm no
# thermo_modify line multi

# Sample pressure (and length vector)
fix avgp all ave/time  ${nevery} ${nrepeat} ${nfreq} c_thermo_press mode vector
fix avgp all ave/time  10 ${nrepeat} ${nfreq} c_thermo_press mode vector
fix avgp all ave/time  10 10 ${nfreq} c_thermo_press mode vector
fix avgp all ave/time  10 10 100 c_thermo_press mode vector
# variable lx equal lx
# variable ly equal ly
# variable lz equal lz
# fix avgl all ave/time  ${nevery} ${nrepeat} ${nfreq} v_lx v_ly v_lz

# nvt
fix fnvt all nvt temp ${temp} ${temp} ${tdamp}
fix fnvt all nvt temp 300 ${temp} ${tdamp}
fix fnvt all nvt temp 300 300 ${tdamp}
fix fnvt all nvt temp 300 300 50


# Save stress, strain to "./stress_strain/stress_strain.pos${dir}.out"
print "# Stress and strain vectors, ${structure}, positive deformation ${dir}"       file stress_strain/stress_strain.pos${dir}.out screen no
print "# Stress and strain vectors, ${structure}, positive deformation ${dir}"       file stress_strain/stress_strain.pos2.out screen no
fix data all print ${nfreq} "${eps} ${sig1} ${sig2} ${sig3} ${sig4} ${sig5} ${sig6}"       append stress_strain/stress_strain.pos${dir}.out screen no       title "# eps sig1 sig2 sig3 sig4 sig5 sig6"
fix data all print 100 "${eps} ${sig1} ${sig2} ${sig3} ${sig4} ${sig5} ${sig6}"       append stress_strain/stress_strain.pos${dir}.out screen no       title "# eps sig1 sig2 sig3 sig4 sig5 sig6"
fix data all print 100 "${eps} ${sig1} ${sig2} ${sig3} ${sig4} ${sig5} ${sig6}"       append stress_strain/stress_strain.pos2.out screen no       title "# eps sig1 sig2 sig3 sig4 sig5 sig6"

# # compute MSD and RDF
# compute msd1 all msd
# fix myMSD all ave/time ${nthermo} 1 ${nthermo} c_msd1[1] c_msd1[2] c_msd1[3] c_msd1[4] c_thermo_temp #     file stress_strain/msd_${dir}.out #     title2 "# TimeStep MSD_X MSD_Y MSD_Z MSD_Total Temperture"
# C-C C-Si Si-O C-H Si-Si
# compute rdf1 all rdf 100 1 1 1 4 3 4 1 2 4 4 cutoff 5.0
# fix myRDF all ave/time ${nthermo} 1 ${nthermo} c_rdf1[*] #     file stress_strain/rdf_${dir}.out mode vector #     title3 "# Row r g1(r) coor1(r) ..."

# save trajectory
# if "$(is_defined(dump,dump_pos${dir1}))" then "undump dump_pos${dir1}"
dump dump_pos${dir} all custom/gz ${nthermo} dump/pos_deform${dir}.lammpstrj.gz id type q x y z
dump dump_pos2 all custom/gz ${nthermo} dump/pos_deform${dir}.lammpstrj.gz id type q x y z
dump dump_pos2 all custom/gz 100 dump/pos_deform${dir}.lammpstrj.gz id type q x y z
dump dump_pos2 all custom/gz 100 dump/pos_deform2.lammpstrj.gz id type q x y z
run ${nrun}
run 10000
Neighbor list info ...
  update: every = 10 steps, delay = 0 steps, check = yes
  max neighbors/atom: 2000, page size: 100000
  master list distance cutoff = 12
  ghost atom cutoff = 12
  binsize = 6, bins = 5 3 3
  2 neighbor lists, perpetual/occasional/extra = 2 0 0
  (1) pair reaxff, perpetual
      attributes: half, newton off, ghost
      pair build: half/bin/newtoff/ghost
      stencil: full/ghost/bin/3d
      bin: standard
  (2) fix qeq/reaxff, perpetual, copy from (1)
      attributes: half, newton off
      pair build: copy
      stencil: none
      bin: none
Per MPI rank memory allocation (min/avg/max) = 119.9 | 120.9 | 122.3 Mbytes
   Step          Temp          PotEng         Press          Volume    
         0   300           -28127.17      -3490.2382      3436.9359    
       100   336.18434     -28163.86       439.55712      3437.2796    
       200   277.52956     -28141.157      5033.0618      3437.6233    
       300   311.98805     -28185.355      19127.29       3437.967     
       400   307.05208     -28172.347      7286.1839      3438.3107    
       500   295.8662      -28159.424     -1662.18        3438.6544    
       600   341.94575     -28218.295      2029.1497      3438.9981    
       700   328.47794     -28251.905      5308.4972      3439.3418    
       800   307.22951     -28260.957      1520.829       3439.6855    
       900   277.28622     -28252.457      10969.021      3440.0292    
      1000   270.23149     -28245.05       5713.5434      3440.3729    
      1100   300.94866     -28247.183      7745.3991      3440.7165    
      1200   296.94336     -28231.174     -523.23096      3441.0602    
      1300   322.9803      -28254.172      1362.8536      3441.4039    
      1400   302.58655     -28254.728     -589.37557      3441.7476    
      1500   301.64473     -28282.973      3390.0097      3442.0913    
      1600   278.49245     -28275.219      2408.2564      3442.435     
      1700   324.96209     -28274.237     -2591.7603      3442.7787    
      1800   333.68341     -28268.908     -2579.788       3443.1224    
      1900   295.16188     -28256.657     -8023.4948      3443.4661    
      2000   303.50758     -28295.459      4052.0911      3443.8098    
      2100   283.37025     -28292.285     -6209.587       3444.1535    
      2200   317.1755      -28312.268      7892.0799      3444.4972    
      2300   334.00271     -28307.367     -8357.4527      3444.8409    
      2400   298.09161     -28286.789      1457.6326      3445.1846    
      2500   324.24576     -28340.627      2900.6694      3445.5283    
      2600   324.98048     -28347.772      6215.7431      3445.872     
      2700   309.08928     -28345.829     -1322.4066      3446.2156    
      2800   290.26877     -28344.236     -1783.006       3446.5593    
      2900   289.94168     -28364.523      1974.9063      3446.903     
      3000   282.32975     -28366.684     -7965.2132      3447.2467    
      3100   287.12757     -28341.17       9947.1027      3447.5904    
      3200   339.74066     -28368.846     -1669.1235      3447.9341    
      3300   333.75571     -28369.826     -2490.013       3448.2778    
      3400   294.15466     -28356.902     -8390.7328      3448.6215    
      3500   289.2712      -28369.589     -1039.8953      3448.9652    
      3600   270.58966     -28343.577      2738.52        3449.3089    
      3700   307.93825     -28365.798      3849.3763      3449.6526    
      3800   317.4273      -28370.148      9502.1552      3449.9963    
      3900   305.12444     -28346.611     -12982.664      3450.34      
      4000   320.1904      -28363.395     -7803.3225      3450.6837    
      4100   300.54324     -28366.486     -5013.2914      3451.0274    
      4200   294.21533     -28365.496      4649.3156      3451.371     
      4300   278.35214     -28334.791     -2986.1274      3451.7147    
      4400   311.11815     -28342.884      12818.964      3452.0584    
      4500   303.27468     -28340.944     -5675.4854      3452.4021    
      4600   307.88448     -28369.593     -7091.7531      3452.7458    
      4700   285.98011     -28368.707     -751.97708      3453.0895    
      4800   295.23991     -28372.695      1795.6649      3453.4332    
      4900   296.56118     -28362.613      18165.559      3453.7769    
      5000   305.54283     -28362.79       10275.369      3454.1206    
      5100   293.19125     -28364.479     -2120.5062      3454.4643    
      5200   282.36949     -28376.973     -2433.7099      3454.808     
      5300   288.68493     -28375.575      1914.6227      3455.1517    
      5400   330.7694      -28377.364     -9259.7954      3455.4954    
      5500   308.58953     -28356.809     -760.54388      3455.8391    
      5600   327.70686     -28386.692      4127.4717      3456.1828    
      5700   268.15739     -28347.913     -4306.4646      3456.5265    
      5800   291.02849     -28373.538     -2314.831       3456.8701    
      5900   330.30583     -28413.742      4894.4541      3457.2138    
      6000   292.54516     -28401.326      2218.9425      3457.5575    
      6100   324.40567     -28446.275      2705.7956      3457.9012    
      6200   321.37729     -28473.853     -13109.727      3458.2449    
      6300   268.59511     -28446.092      633.86607      3458.5886    
      6400   295.95393     -28472.852     -3549.756       3458.9323    
      6500   303.3381      -28470.988     -1452.0373      3459.276     
      6600   315.50038     -28458.938     -2907.0903      3459.6197    
      6700   340.97655     -28466.333      5142.5419      3459.9634    
      6800   309.86712     -28457.69      -644.58081      3460.3071    
      6900   285.65093     -28465.968     -12477.343      3460.6508    
      7000   285.33285     -28474.964      337.46465      3460.9945    
      7100   320.91641     -28496.68       1045.744       3461.3382    
      7200   301.83536     -28455.671      4486.4848      3461.6819    
      7300   309.80862     -28458.273     -10574.425      3462.0255    
      7400   310.05328     -28490.804     -9070.683       3462.3692    
      7500   276.69332     -28477.244     -11294.334      3462.7129    
      7600   293.26125     -28477.436      2403.1196      3463.0566    
      7700   313.17227     -28473.816      3637.0326      3463.4003    
      7800   297.42966     -28456.453     -2962.2427      3463.744     
      7900   283.44877     -28460.236      1649.6346      3464.0877    
      8000   294.84514     -28502.761     -13724.366      3464.4314    
      8100   274.16256     -28483.418     -4455.5156      3464.7751    
      8200   298.15195     -28495.129      17337.882      3465.1188    
      8300   316.86555     -28502.474     -1256.6308      3465.4625    
      8400   305.64743     -28471.397      12720.13       3465.8062    
      8500   307.02369     -28456.714      5517.8222      3466.1499    
      8600   333.61363     -28470.696      6184.9091      3466.4936    
      8700   300.35163     -28462.113     -59.330147      3466.8373    
      8800   307.84035     -28497.062      15672.536      3467.181     
      8900   308.61019     -28501.884      7064.6517      3467.5246    
      9000   286.30365     -28459.429      15210.477      3467.8683    
      9100   307.88544     -28464.535      1221.3125      3468.212     
      9200   312.96008     -28472.695      12263.433      3468.5557    
      9300   293.11752     -28484.153     -2383.5817      3468.8994    
      9400   284.94661     -28493.359     -3153.2986      3469.2431    
      9500   294.53812     -28492.072      2873.5037      3469.5868    
      9600   319.23856     -28492.735     -12505.925      3469.9305    
      9700   315.12996     -28489.502     -713.67844      3470.2742    
      9800   272.22769     -28468.077     -6851.7899      3470.6179    
      9900   288.79654     -28500.646      2719.7099      3470.9616    
     10000   297.13195     -28493.082     -14.10669       3471.3053    
Loop time of 384.859 on 8 procs for 10000 steps with 310 atoms

Performance: 1.122 ns/day, 21.381 hours/ns, 25.984 timesteps/s, 8.055 katom-step/s
98.7% CPU use with 8 MPI tasks x 1 OpenMP threads

MPI task timing breakdown:
Section |  min time  |  avg time  |  max time  |%varavg| %total
---------------------------------------------------------------
Pair    | 278.81     | 316.83     | 336.96     | 108.6 | 82.32
Bond    | 0.028293   | 0.029929   | 0.032532   |   0.7 |  0.01
Neigh   | 4.7998     | 5.5568     | 5.9532     |  14.9 |  1.44
Comm    | 6.3332     | 26.461     | 64.441     | 375.4 |  6.88
Output  | 0.031603   | 0.075792   | 0.18197    |  20.1 |  0.02
Modify  | 35.167     | 35.636     | 36.407     |   5.9 |  9.26
Other   |            | 0.2691     |            |       |  0.07

Nlocal:          38.75 ave          44 max          33 min
Histogram: 1 1 0 0 0 2 3 0 0 1
Nghost:        3096.62 ave        3110 max        3080 min
Histogram: 1 0 0 1 1 2 0 1 1 1
Neighs:        24262.4 ave       27302 max       20817 min
Histogram: 1 0 1 0 0 2 3 0 0 1

Total # of neighbors = 194099
Ave neighs/atom = 626.12581
Ave special neighs/atom = 0
Neighbor list builds = 220
Dangerous builds = 0
unfix deform_p
unfix data
undump dump_pos${dir}
undump dump_pos2

# Delete dir to make sure it is not reused
variable dir delete
# uzz Perturbation
variable dir equal 3
include displace.mod.lmp
# Find which length (epsilon) to calculate
if "${dir} == 1" then    "variable len0 equal ${lx0}"    "variable dlen equal lx-${len0}"
if "${dir} == 2" then    "variable len0 equal ${ly0}"    "variable dlen equal ly-${len0}"
if "${dir} == 3" then    "variable len0 equal ${lz0}"    "variable dlen equal lz-${len0}"
variable len0 equal ${lz0}
variable len0 equal 17.5034
variable dlen equal lz-${len0}
variable dlen equal lz-17.5034
if "${dir} == 4" then    "variable len0 equal ${lx0}"    "variable dlen equal 2*(yz-${yz0})"
if "${dir} == 5" then    "variable len0 equal ${ly0}"    "variable dlen equal 2*(xz-${xz0})"
if "${dir} == 6" then    "variable len0 equal ${lz0}"    "variable dlen equal 2*(xy-${xy0})"

# strain vector (epsilon)
variable eps equal v_dlen/v_len0

# stress vector (sigma)
variable sig1 equal -f_avgp[1]*${ufac}
variable sig1 equal -f_avgp[1]*0.000101325
variable sig2 equal -f_avgp[2]*${ufac}
variable sig2 equal -f_avgp[2]*0.000101325
variable sig3 equal -f_avgp[3]*${ufac}
variable sig3 equal -f_avgp[3]*0.000101325
variable sig4 equal -f_avgp[6]*${ufac}
variable sig4 equal -f_avgp[6]*0.000101325
variable sig5 equal -f_avgp[5]*${ufac}
variable sig5 equal -f_avgp[5]*0.000101325
variable sig6 equal -f_avgp[4]*${ufac}
variable sig6 equal -f_avgp[4]*0.000101325

# Reset box and simulation parameters
clear
  using 1 OpenMP thread(s) per MPI task
# box tilt large
read_restart equil.res
Reading restart file ...
  restart file = 2 Aug 2023, LAMMPS = 2 Aug 2023
  restoring atom style full from restart
  triclinic box = (0 0 0) to (15.4114 12.7411 17.5034) with tilt (-7.2027 -1.8261 0.3384)
WARNING: Triclinic box skew is large. LAMMPS will run inefficiently. (src/domain.cpp:220)
  2 by 2 by 2 MPI processor grid
  pair style reaxff stores no restart info
  310 atoms
Finding 1-2 1-3 1-4 neighbors ...
  special bond factors lj:    0        0        0       
  special bond factors coul:  0        0        0       
     0 = max # of 1-2 neighbors
     0 = max # of 1-3 neighbors
     0 = max # of 1-4 neighbors
     1 = max # of special neighbors
  special bonds CPU = 0.000 seconds
  read_restart CPU = 0.003 seconds

# Negative deformation
variable delta equal -${up}*${len0}
variable delta equal -0.01*${len0}
variable delta equal -0.01*17.5034
variable deltaxy equal -${up}*xy
variable deltaxy equal -0.01*xy
variable deltaxz equal -${up}*xz
variable deltaxz equal -0.01*xz
variable deltayz equal -${up}*yz
variable deltayz equal -0.01*yz
print "*****debug*****"
*****debug*****
print "xy = $(xy), deltaxy = ${deltaxy}"
xy = -7.2027000000000001023, deltaxy = 0.072027
print "xz = $(xz), deltaxz = ${deltaxz}"
xz = -1.8261000000000000565, deltaxz = 0.018261
print "yz = $(yz), deltayz = ${deltayz}"
yz = 0.33839999999999997859, deltayz = -0.003384
print "*****"
*****

if "${dir} == 1" then    "fix deform_n all deform ${nthermo} x delta 0 ${delta} xy delta ${deltaxy} xz delta ${deltaxz} remap v units box flip no"
if "${dir} == 2" then    "fix deform_n all deform ${nthermo} y delta 0 ${delta} yz delta ${deltayz} remap v units box flip no"
if "${dir} == 3" then    "fix deform_n all deform ${nthermo} z delta 0 ${delta} remap v units box flip no"
fix deform_n all deform ${nthermo} z delta 0 ${delta} remap v units box flip no
fix deform_n all deform 100 z delta 0 ${delta} remap v units box flip no
fix deform_n all deform 100 z delta 0 -0.175034 remap v units box flip no
if "${dir} == 4" then    "fix deform_n all deform ${nthermo} yz delta ${delta} remap v units box flip no"
if "${dir} == 5" then    "fix deform_n all deform ${nthermo} xz delta ${delta} remap v units box flip no"
if "${dir} == 6" then    "fix deform_n all deform ${nthermo} xy delta ${delta} remap v units box flip no"

# Run MD for Negative deformation
print "*****Negative-deform ${dir} starts.*****"
*****Negative-deform 3 starts.*****
include ff.mod.lmp
# Setup forcefield, system
# undefine any fix ave/* fix before using reset_timestep
if "$(is_defined(fix,avgp))" then "unfix avgp"
if "$(is_defined(fix,avgl))" then "unfix avgl"
reset_timestep 0

# Assign the force field
pair_style reaxff NULL safezone 3.0 mincap 150
pair_coeff * * ${FF}
pair_coeff * * SiOCHN_2018.ff C H O Si
WARNING: Van der Waals parameters for element SI indicate inner wall+shielding, but earlier atoms indicate a different van der Waals method. This may cause division-by-zero errors. Keeping van der Waals setting for earlier atoms. (src/REAXFF/reaxff_ffield.cpp:251)


# charge method for reaxff
fix myqeq all qeq/reaxff 1 0.0 10.0 1.0e-6 reaxff maxiter 400
# Setup neighbor style
neighbor        2 bin
neigh_modify    every 10 delay 0 check yes

# Setup output
thermo		${nthermo}
thermo		100
thermo_style custom step temp pe press vol
# thermo_style custom step vol lx ly lz yz xz xy
thermo_modify norm no
# thermo_modify line multi

# Sample pressure (and length vector)
fix avgp all ave/time  ${nevery} ${nrepeat} ${nfreq} c_thermo_press mode vector
fix avgp all ave/time  10 ${nrepeat} ${nfreq} c_thermo_press mode vector
fix avgp all ave/time  10 10 ${nfreq} c_thermo_press mode vector
fix avgp all ave/time  10 10 100 c_thermo_press mode vector
# variable lx equal lx
# variable ly equal ly
# variable lz equal lz
# fix avgl all ave/time  ${nevery} ${nrepeat} ${nfreq} v_lx v_ly v_lz

# nvt
fix fnvt all nvt temp ${temp} ${temp} ${tdamp}
fix fnvt all nvt temp 300 ${temp} ${tdamp}
fix fnvt all nvt temp 300 300 ${tdamp}
fix fnvt all nvt temp 300 300 50


# Save stress, strain to "./stress_strain/stress_strain.neg${dir}.out"
print "# Stress and strain vectors, ${structure}, negative deformation ${dir}"       file stress_strain/stress_strain.neg${dir}.out screen no
print "# Stress and strain vectors, ${structure}, negative deformation ${dir}"       file stress_strain/stress_strain.neg3.out screen no
fix data all print ${nfreq} "${eps} ${sig1} ${sig2} ${sig3} ${sig4} ${sig5} ${sig6}"       append stress_strain/stress_strain.neg${dir}.out screen no       title "# eps sig1 sig2 sig3 sig4 sig5 sig6"
fix data all print 100 "${eps} ${sig1} ${sig2} ${sig3} ${sig4} ${sig5} ${sig6}"       append stress_strain/stress_strain.neg${dir}.out screen no       title "# eps sig1 sig2 sig3 sig4 sig5 sig6"
fix data all print 100 "${eps} ${sig1} ${sig2} ${sig3} ${sig4} ${sig5} ${sig6}"       append stress_strain/stress_strain.neg3.out screen no       title "# eps sig1 sig2 sig3 sig4 sig5 sig6"

# save trajectory
# if "$(is_defined(dump,dump_neg${dir1}))" then "undump dump_neg${dir1}"
dump dump_neg${dir} all custom/gz ${nthermo} dump/neg_deform${dir}.lammpstrj.gz id type q x y z
dump dump_neg3 all custom/gz ${nthermo} dump/neg_deform${dir}.lammpstrj.gz id type q x y z
dump dump_neg3 all custom/gz 100 dump/neg_deform${dir}.lammpstrj.gz id type q x y z
dump dump_neg3 all custom/gz 100 dump/neg_deform3.lammpstrj.gz id type q x y z
# variable dir1 equal ${dir}
run ${nrun}
run 10000
Neighbor list info ...
  update: every = 10 steps, delay = 0 steps, check = yes
  max neighbors/atom: 2000, page size: 100000
  master list distance cutoff = 12
  ghost atom cutoff = 12
  binsize = 6, bins = 5 3 3
  2 neighbor lists, perpetual/occasional/extra = 2 0 0
  (1) pair reaxff, perpetual
      attributes: half, newton off, ghost
      pair build: half/bin/newtoff/ghost
      stencil: full/ghost/bin/3d
      bin: standard
  (2) fix qeq/reaxff, perpetual, copy from (1)
      attributes: half, newton off
      pair build: copy
      stencil: none
      bin: none
Per MPI rank memory allocation (min/avg/max) = 119.8 | 120.9 | 122.3 Mbytes
   Step          Temp          PotEng         Press          Volume    
         0   300           -28127.17      -3490.2382      3436.9359    
       100   336.18547     -28163.864      440.53832      3436.5922    
       200   277.10421     -28140.818      5137.421       3436.2485    
       300   311.79982     -28185.109      18973.83       3435.9048    
       400   306.86397     -28172.498      7340.6902      3435.5611    
       500   289.3833      -28153.559     -1703.9528      3435.2174    
       600   349.85421     -28217.781      4226.7596      3434.8738    
       700   323.94199     -28241.498      6892.2196      3434.5301    
       800   307.66302     -28257.779      758.46453      3434.1864    
       900   286.83681     -28261.237      7766.7853      3433.8427    
      1000   272.8038      -28249.351     -2838.4203      3433.499     
      1100   317.20265     -28264.017      5279.4352      3433.1553    
      1200   326.80283     -28255.417      11600.237      3432.8116    
      1300   319.3099      -28248.838      141.64432      3432.4679    
      1400   282.48913     -28240.059     -3107.5539      3432.1242    
      1500   284.83131     -28258.658     -1374.0769      3431.7805    
      1600   287.77309     -28265.594      8601.6087      3431.4368    
      1700   299.50279     -28269.877      7399.4951      3431.0931    
      1800   329.6114      -28270.895     -2386.2336      3430.7494    
      1900   321.17666     -28257.103      6570.0338      3430.4057    
      2000   316.80924     -28262.676      8958.2522      3430.062     
      2100   283.15206     -28245.023      5665.901       3429.7184    
      2200   290.56949     -28264.893      1727.6633      3429.3747    
      2300   311.01351     -28285.919     -4395.7957      3429.031     
      2400   311.67003     -28294.934      1926.0695      3428.6873    
      2500   316.9916      -28302.474      6640.1708      3428.3436    
      2600   303.22503     -28287.155      4505.9665      3427.9999    
      2700   336.70299     -28312.249      362.46006      3427.6562    
      2800   274.87137     -28271.91       1668.5016      3427.3125    
      2900   282.5009      -28303.242      15167.482      3426.9688    
      3000   284.21333     -28296.191      6302.6628      3426.6251    
      3100   315.16541     -28302.099      14726.902      3426.2814    
      3200   311.87833     -28303.929     -2198.5003      3425.9377    
      3300   300.31214     -28321.185      2951.3551      3425.594     
      3400   295.53995     -28320.119     -7769.1312      3425.2503    
      3500   309.4489      -28340.106      4384.501       3424.9066    
      3600   284.7719      -28333.182      4790.5143      3424.5629    
      3700   285.49575     -28334.254      746.16758      3424.2193    
      3800   313.57423     -28333.354      1509.6742      3423.8756    
      3900   335.20784     -28337.085     -881.31955      3423.5319    
      4000   308.65392     -28327.986      12401.715      3423.1882    
      4100   293.48331     -28324.935     -21200.6        3422.8445    
      4200   280.79808     -28316.542      2089.695       3422.5008    
      4300   298.57817     -28348.832      28803.552      3422.1571    
      4400   277.71188     -28362.825      17893.997      3421.8134    
      4500   287.51275     -28374.176      4579.6956      3421.4697    
      4600   294.93452     -28361.77       995.33829      3421.126     
      4700   286.62293     -28338.223      5997.756       3420.7823    
      4800   307.72148     -28342.967      4374.4167      3420.4386    
[...]
      5000   293.21682     -28461.491     -4591.8667      3436.9359    
      5100   289.82166     -28447.172     -1226.1085      3436.9359    
      5200   323.55897     -28450.162      5038.1938      3436.9359    
      5300   311.29407     -28437.436      5321.1795      3436.9359    
      5400   296.43473     -28443.366     -12652.004      3436.9359    
      5500   300.8724      -28463.13      -2675.0916      3436.9359    
      5600   301.38631     -28473.321      1830.0181      3436.9359    
      5700   298.18109     -28482.585      1776.0172      3436.9359    
      5800   293.66138     -28503.299     -2272.0242      3436.9359    
      5900   277.60575     -28515.146      5802.81        3436.9359    
      6000   297.60925     -28525.165      2296.7075      3436.9359    
      6100   295.71225     -28506.067      14896.522      3436.9359    
      6200   313.98978     -28503.269      8607.1583      3436.9359    
      6300   297.63111     -28485.043      5019.8037      3436.9359    
      6400   276.96651     -28464.008     -7746.1634      3436.9359    
      6500   317.45284     -28497.818     -981.80492      3436.9359    
      6600   288.47208     -28475.786      9938.0969      3436.9359    
      6700   299.52527     -28493.379      7131.2987      3436.9359    
      6800   281.58598     -28480.341      8796.3106      3436.9359    
      6900   317.75022     -28500.275      5245.947       3436.9359    
      7000   323.26594     -28480.508     -1530.5855      3436.9359    
      7100   346.18711     -28523.671     -2876.5196      3436.9359    
      7200   299.71772     -28506.827      11365.021      3436.9359    
      7300   321.63217     -28558.698      3151.5094      3436.9359    
      7400   298.71779     -28564.347     -4689.33        3436.9359    
      7500   316.33088     -28595.019      7947.1409      3436.9359    
      7600   296.31419     -28582.533      9798.6147      3436.9359    
      7700   315.16225     -28596.432      3050.6442      3436.9359    
      7800   308.37765     -28579.929      5645.1576      3436.9359    
      7900   289.16916     -28558.462      4744.4784      3436.9359    
      8000   285.0586      -28560.207      4218.3865      3436.9359    
      8100   305.6158      -28569.934     -3517.8417      3436.9359    
      8200   281.17559     -28532.017      16058.979      3436.9359    
      8300   326.00906     -28570.228      13419.289      3436.9359    
      8400   300.25812     -28576.471      344.96197      3436.9359    
      8500   334.39897     -28635.74       1760.8616      3436.9359    
      8600   317.51041     -28656.384      3663.8132      3436.9359    
      8700   288.92703     -28652.746      7047.8269      3436.9359    
      8800   293.06823     -28669.564      10899.477      3436.9359    
      8900   281.01351     -28656.031      4164.9596      3436.9359    
      9000   311.83292     -28658.348      3903.1554      3436.9359    
      9100   322.31845     -28669.137      3382.8105      3436.9359    
      9200   305.75058     -28679.524     -5154.9095      3436.9359    
      9300   333.39952     -28724.076     -14093.753      3436.9359    
      9400   312.04912     -28713.219      4910.1557      3436.9359    
      9500   286.08694     -28704.18      -3065.3252      3436.9359    
      9600   305.14052     -28722.22       6076.6188      3436.9359    
      9700   316.42688     -28717.638      5066.3329      3436.9359    
      9800   293.44293     -28692.638      3731.524       3436.9359    
      9900   338.55897     -28768.762      5493.4194      3436.9359    
     10000   346.87946     -28827.997      289.71287      3436.9359    
Loop time of 416.766 on 8 procs for 10000 steps with 310 atoms

Performance: 1.037 ns/day, 23.154 hours/ns, 23.994 timesteps/s, 7.438 katom-step/s
98.7% CPU use with 8 MPI tasks x 1 OpenMP threads

MPI task timing breakdown:
Section |  min time  |  avg time  |  max time  |%varavg| %total
---------------------------------------------------------------
Pair    | 351.6      | 362.83     | 367.15     |  25.3 | 87.06
Bond    | 0.029308   | 0.032999   | 0.036127   |   1.2 |  0.01
Neigh   | 5.2677     | 5.5162     | 5.8201     |   6.4 |  1.32
Comm    | 7.2667     | 11.523     | 22.739     | 141.8 |  2.76
Output  | 0.041277   | 0.080692   | 0.18051    |  18.2 |  0.02
Modify  | 36.112     | 36.496     | 36.817     |   3.4 |  8.76
Other   |            | 0.2883     |            |       |  0.07

Nlocal:          38.75 ave          41 max          37 min
Histogram: 1 0 3 0 0 2 0 1 0 1
Nghost:        3129.62 ave        3156 max        3099 min
Histogram: 1 1 1 0 1 0 1 0 1 2
Neighs:        24519.8 ave       25758 max       23500 min
Histogram: 1 1 2 0 1 1 0 0 1 1

Total # of neighbors = 196158
Ave neighs/atom = 632.76774
Ave special neighs/atom = 0
Neighbor list builds = 203
Dangerous builds = 0
unfix deform_n
unfix data
undump dump_neg${dir}
undump dump_neg6

# Reset box and simulation parameters
clear
  using 1 OpenMP thread(s) per MPI task
# box tilt large
read_restart equil.res
Reading restart file ...
  restart file = 2 Aug 2023, LAMMPS = 2 Aug 2023
  restoring atom style full from restart
  triclinic box = (0 0 0) to (15.4114 12.7411 17.5034) with tilt (-7.2027 -1.8261 0.3384)
WARNING: Triclinic box skew is large. LAMMPS will run inefficiently. (src/domain.cpp:220)
  2 by 2 by 2 MPI processor grid
  pair style reaxff stores no restart info
  310 atoms
Finding 1-2 1-3 1-4 neighbors ...
  special bond factors lj:    0        0        0       
  special bond factors coul:  0        0        0       
     0 = max # of 1-2 neighbors
     0 = max # of 1-3 neighbors
     0 = max # of 1-4 neighbors
     1 = max # of special neighbors
  special bonds CPU = 0.000 seconds
  read_restart CPU = 0.005 seconds

# Positive deformation
variable delta equal ${up}*${len0}
variable delta equal 0.01*${len0}
variable delta equal 0.01*17.5034
variable deltaxy equal ${up}*xy
variable deltaxy equal 0.01*xy
variable deltaxz equal ${up}*xz
variable deltaxz equal 0.01*xz
variable deltayz equal ${up}*yz
variable deltayz equal 0.01*yz
if "${dir} == 1" then    "fix deform_p all deform ${nthermo} x delta 0 ${delta} xy delta ${deltaxy} xz delta ${deltaxz} remap v units box"
if "${dir} == 2" then    "fix deform_p all deform ${nthermo} y delta 0 ${delta} yz delta ${deltayz} remap v units box"
if "${dir} == 3" then    "fix deform_p all deform ${nthermo} z delta 0 ${delta} remap v units box"
if "${dir} == 4" then    "fix deform_p all deform ${nthermo} yz delta ${delta} remap v units box"
if "${dir} == 5" then    "fix deform_p all deform ${nthermo} xz delta ${delta} remap v units box"
if "${dir} == 6" then    "fix deform_p all deform ${nthermo} xy delta ${delta} remap v units box"
fix deform_p all deform ${nthermo} xy delta ${delta} remap v units box
fix deform_p all deform 100 xy delta ${delta} remap v units box
fix deform_p all deform 100 xy delta 0.175034 remap v units box

# Run deformation MD
print "*****Positive-deform ${dir} starts.*****"
*****Positive-deform 6 starts.*****
include ff.mod.lmp
# Setup forcefield, system
# undefine any fix ave/* fix before using reset_timestep
if "$(is_defined(fix,avgp))" then "unfix avgp"
if "$(is_defined(fix,avgl))" then "unfix avgl"
reset_timestep 0

# Assign the force field
pair_style reaxff NULL safezone 3.0 mincap 150
pair_coeff * * ${FF}
pair_coeff * * SiOCHN_2018.ff C H O Si
WARNING: Van der Waals parameters for element SI indicate inner wall+shielding, but earlier atoms indicate a different van der Waals method. This may cause division-by-zero errors. Keeping van der Waals setting for earlier atoms. (src/REAXFF/reaxff_ffield.cpp:251)


# charge method for reaxff
fix myqeq all qeq/reaxff 1 0.0 10.0 1.0e-6 reaxff maxiter 400
# Setup neighbor style
neighbor        2 bin
neigh_modify    every 10 delay 0 check yes

# Setup output
thermo		${nthermo}
thermo		100
thermo_style custom step temp pe press vol
# thermo_style custom step vol lx ly lz yz xz xy
thermo_modify norm no
# thermo_modify line multi

# Sample pressure (and length vector)
fix avgp all ave/time  ${nevery} ${nrepeat} ${nfreq} c_thermo_press mode vector
fix avgp all ave/time  10 ${nrepeat} ${nfreq} c_thermo_press mode vector
fix avgp all ave/time  10 10 ${nfreq} c_thermo_press mode vector
fix avgp all ave/time  10 10 100 c_thermo_press mode vector
# variable lx equal lx
# variable ly equal ly
# variable lz equal lz
# fix avgl all ave/time  ${nevery} ${nrepeat} ${nfreq} v_lx v_ly v_lz

# nvt
fix fnvt all nvt temp ${temp} ${temp} ${tdamp}
fix fnvt all nvt temp 300 ${temp} ${tdamp}
fix fnvt all nvt temp 300 300 ${tdamp}
fix fnvt all nvt temp 300 300 50


# Save stress, strain to "./stress_strain/stress_strain.pos${dir}.out"
print "# Stress and strain vectors, ${structure}, positive deformation ${dir}"       file stress_strain/stress_strain.pos${dir}.out screen no
print "# Stress and strain vectors, ${structure}, positive deformation ${dir}"       file stress_strain/stress_strain.pos6.out screen no
fix data all print ${nfreq} "${eps} ${sig1} ${sig2} ${sig3} ${sig4} ${sig5} ${sig6}"       append stress_strain/stress_strain.pos${dir}.out screen no       title "# eps sig1 sig2 sig3 sig4 sig5 sig6"
fix data all print 100 "${eps} ${sig1} ${sig2} ${sig3} ${sig4} ${sig5} ${sig6}"       append stress_strain/stress_strain.pos${dir}.out screen no       title "# eps sig1 sig2 sig3 sig4 sig5 sig6"
fix data all print 100 "${eps} ${sig1} ${sig2} ${sig3} ${sig4} ${sig5} ${sig6}"       append stress_strain/stress_strain.pos6.out screen no       title "# eps sig1 sig2 sig3 sig4 sig5 sig6"

# # compute MSD and RDF
# compute msd1 all msd
# fix myMSD all ave/time ${nthermo} 1 ${nthermo} c_msd1[1] c_msd1[2] c_msd1[3] c_msd1[4] c_thermo_temp #     file stress_strain/msd_${dir}.out #     title2 "# TimeStep MSD_X MSD_Y MSD_Z MSD_Total Temperture"
# C-C C-Si Si-O C-H Si-Si
# compute rdf1 all rdf 100 1 1 1 4 3 4 1 2 4 4 cutoff 5.0
# fix myRDF all ave/time ${nthermo} 1 ${nthermo} c_rdf1[*] #     file stress_strain/rdf_${dir}.out mode vector #     title3 "# Row r g1(r) coor1(r) ..."

# save trajectory
# if "$(is_defined(dump,dump_pos${dir1}))" then "undump dump_pos${dir1}"
dump dump_pos${dir} all custom/gz ${nthermo} dump/pos_deform${dir}.lammpstrj.gz id type q x y z
dump dump_pos6 all custom/gz ${nthermo} dump/pos_deform${dir}.lammpstrj.gz id type q x y z
dump dump_pos6 all custom/gz 100 dump/pos_deform${dir}.lammpstrj.gz id type q x y z
dump dump_pos6 all custom/gz 100 dump/pos_deform6.lammpstrj.gz id type q x y z
run ${nrun}
run 10000
Neighbor list info ...
  update: every = 10 steps, delay = 0 steps, check = yes
  max neighbors/atom: 2000, page size: 100000
  master list distance cutoff = 12
  ghost atom cutoff = 12
  binsize = 6, bins = 5 3 3
  2 neighbor lists, perpetual/occasional/extra = 2 0 0
  (1) pair reaxff, perpetual
      attributes: half, newton off, ghost
      pair build: half/bin/newtoff/ghost
      stencil: full/ghost/bin/3d
      bin: standard
  (2) fix qeq/reaxff, perpetual, copy from (1)
      attributes: half, newton off
      pair build: copy
      stencil: none
      bin: none
Per MPI rank memory allocation (min/avg/max) = 119.9 | 120.9 | 122.3 Mbytes
   Step          Temp          PotEng         Press          Volume    
         0   300           -28127.17      -3490.2382      3436.9359    
       100   336.18321     -28163.866      440.57818      3436.9359    
       200   277.08722     -28140.849      5172.0031      3436.9359    
       300   311.57317     -28185.048      19258.915      3436.9359    
       400   306.25392     -28171.893      7374.1098      3436.9359    
       500   292.95883     -28156.61      -1479.3972      3436.9359    
       600   343.52375     -28213.022      4883.5946      3436.9359    
       700   325.95774     -28244.759      3394.8588      3436.9359    
       800   306.27412     -28257.817     -484.21355      3436.9359    
       900   282.05182     -28257.992      7857.7757      3436.9359    
      1000   277.97604     -28253.156      1526.4943      3436.9359    
      1100   300.63661     -28250.911      7200.1106      3436.9359    
      1200   316.40868     -28249.042     -3608.2328      3436.9359    
      1300   325.74336     -28260.565     -265.038        3436.9359    
      1400   293.38914     -28248.449      2942.4711      3436.9359    
      1500   277.87325     -28256.567     -3296.9642      3436.9359    
      1600   274.60831     -28284.942      15375.828      3436.9359    
      1700   260.41689     -28261.195     -5035.82        3436.9359    
      1800   290.95784     -28263.986      1163.7544      3436.9359    
      1900   308.24964     -28266.653     -2803.5776      3436.9359    
      2000   319.64492     -28286.08       7315.0957      3436.9359    
      2100   298.37985     -28290.529      3859.8182      3436.9359    
      2200   297.21057     -28286.683     -59.627668      3436.9359    
      2300   351.49809     -28295.007      6287.2922      3436.9359    
      2400   301.67335     -28260.516      5131.7844      3436.9359    
      2500   292.82516     -28276.03      -3955.0438      3436.9359    
      2600   289.05829     -28282.658     -4660.9582      3436.9359    
      2700   270.8144      -28276.954     -12153.972      3436.9359    
      2800   281.04017     -28297.605     -645.3334       3436.9359    
      2900   255.19583     -28277.987      3669.1692      3436.9359    
      3000   269.09291     -28260.057     -3497.8004      3436.9359    
      3100   298.92703     -28278.375      154.52582      3436.9359    
      3200   288.34909     -28286.479     -2915.51        3436.9359    
      3300   267.92432     -28285.727      268.98047      3436.9359    
      3400   294.16193     -28308.05      -3211.9083      3436.9359    
      3500   289.70609     -28302.474      10127.754      3436.9359    
      3600   291.80563     -28301.182      10074.674      3436.9359    
      3700   308.92428     -28308.858     -2333.3233      3436.9359    
      3800   325.77202     -28365.226     -2761.4833      3436.9359    
      3900   255.94018     -28335.464      65.698219      3436.9359    
      4000   311.52346     -28418.498     -1882.0598      3436.9359    
      4100   285.97867     -28411.057     -4573.9428      3436.9359    
      4200   261.37996     -28379.966     -1666.4267      3436.9359    
      4300   326.47152     -28412.974     -2339.7736      3436.9359    
      4400   320.38604     -28405.322      4520.1775      3436.9359    
      4500   322.12508     -28417.118     -10286.054      3436.9359    
      4600   276.704       -28399.802     -6912.8778      3436.9359    
      4700   280.67478     -28419.366      6774.8982      3436.9359    
      4800   280.60834     -28398.104      5369.7626      3436.9359    
      4900   345.06354     -28443.007      2138.1614      3436.9359    
      5000   284.75538     -28396.805     -5267.1535      3436.9359    
      5100   302.48425     -28417.377     -5845.5544      3436.9359    
      5200   270.66333     -28378.3       -11889.516      3436.9359    
      5300   335.78133     -28416.33       9444.1718      3436.9359    
      5400   281.68358     -28377.312      10848.086      3436.9359    
      5500   296.08232     -28423.721     -419.85244      3436.9359    
      5600   313.02457     -28446.65       155.86195      3436.9359    
      5700   309.31012     -28428.982      1590.9681      3436.9359    
      5800   279.22065     -28386.769     -94.899645      3436.9359    
      5900   331.48615     -28420.144     -3827.3477      3436.9359    
      6000   300.87421     -28385.211      13534.9        3436.9359    
      6100   282.74229     -28400.394     -12506.748      3436.9359    
      6200   302.72773     -28440.678     -60.021652      3436.9359    
      6300   309.72544     -28443.141      3893.9295      3436.9359    
      6400   287.56124     -28397.021      1490.392       3436.9359    
      6500   306.35447     -28410.797     -3668.9477      3436.9359    
      6600   309.79088     -28423.408     -3326.9816      3436.9359    
      6700   278.35424     -28419.967      9497.0916      3436.9359    
      6800   266.28323     -28440.205      3337.8552      3436.9359    
      6900   274.95451     -28431.484     -3881.1631      3436.9359    
      7000   306.84435     -28441.03       9971.2994      3436.9359    
      7100   296.40673     -28411.32      -2960.4006      3436.9359    
      7200   273.01421     -28376.037     -7477.2516      3436.9359    
      7300   327.83181     -28432.113      3755.3841      3436.9359    
      7400   301.81952     -28444.712      6205.8836      3436.9359    
      7500   292.54867     -28435.995     -2865.0227      3436.9359    
      7600   286.34613     -28427.704      11777.984      3436.9359    
      7700   290.15696     -28444.662      697.72966      3436.9359    
      7800   303.50317     -28480.217      1444.9263      3436.9359    
      7900   314.39068     -28493.262      16004.445      3436.9359    
      8000   290.934       -28440.745      10164.903      3436.9359    
      8100   280.63198     -28404.904      8328.7274      3436.9359    
      8200   307.70793     -28433.334     -2474.2577      3436.9359    
      8300   316.30043     -28462.916      3610.472       3436.9359    
      8400   300.74629     -28461.11       3982.2462      3436.9359    
      8500   272.11654     -28452.953      7748.1857      3436.9359    
      8600   276.7698      -28487.665      5985.0329      3436.9359    
      8700   268.29407     -28473.159      5828.9887      3436.9359    
      8800   285.42123     -28460.989      2508.5536      3436.9359    
      8900   307.77128     -28461.73      -4695.2827      3436.9359    
      9000   293.23991     -28430.089      4455.5254      3436.9359    
      9100   320.63756     -28449.431      5287.695       3436.9359    
      9200   280.55349     -28426.585     -6120.1202      3436.9359    
      9300   283.49395     -28450.657     -7625.9103      3436.9359    
      9400   290.99202     -28470.237      3699.3088      3436.9359    
      9500   288.92481     -28458.727      5116.5181      3436.9359    
      9600   299.16832     -28437.384     -6388.6308      3436.9359    
      9700   337.97565     -28467.39      -1256.2685      3436.9359    
      9800   279.32075     -28426.962      4449.978       3436.9359    
      9900   295.84174     -28454.08       5310.7899      3436.9359    
     10000   307.54567     -28442.562     -2525.9865      3436.9359    
Loop time of 415.682 on 8 procs for 10000 steps with 310 atoms

Performance: 1.039 ns/day, 23.093 hours/ns, 24.057 timesteps/s, 7.458 katom-step/s
98.6% CPU use with 8 MPI tasks x 1 OpenMP threads

MPI task timing breakdown:
Section |  min time  |  avg time  |  max time  |%varavg| %total
---------------------------------------------------------------
Pair    | 346.31     | 359.9      | 365.45     |  29.3 | 86.58
Bond    | 0.030621   | 0.033259   | 0.039002   |   1.5 |  0.01
Neigh   | 5.4126     | 5.5759     | 5.7942     |   4.6 |  1.34
Comm    | 6.7428     | 12.306     | 25.932     | 158.5 |  2.96
Output  | 0.0396     | 0.081503   | 0.18115    |  18.0 |  0.02
Modify  | 37.165     | 37.492     | 37.736     |   3.0 |  9.02
Other   |            | 0.2897     |            |       |  0.07

Nlocal:          38.75 ave          45 max          33 min
Histogram: 1 1 0 1 0 3 1 0 0 1
Nghost:        3077.75 ave        3112 max        3052 min
Histogram: 1 1 0 3 0 0 2 0 0 1
Neighs:        24507.6 ave       28354 max       21006 min
Histogram: 1 1 0 1 0 3 1 0 0 1

Total # of neighbors = 196061
Ave neighs/atom = 632.45484
Ave special neighs/atom = 0
Neighbor list builds = 208
Dangerous builds = 0
unfix deform_p
unfix data
undump dump_pos${dir}
undump dump_pos6

# Delete dir to make sure it is not reused
variable dir delete

# Calc and output
# include calc.mod.lmp

Total wall time: 1:19:06
