LAMMPS (2 Aug 2023 - Update 2)
  using 2 OpenMP thread(s) per MPI task
# Initialization
units           real
dimension       3
boundary        p p p
atom_style      full

variable       timestep equal 0.5   # fs
variable       T equal 300.0   # low temperature
variable       Td equal 100*${timestep}  # damping time
variable       Td equal 100*0.5  
# variable       P equal 1.0  # pressure
# variable       Pd equal 10*${Td}  # pressure

variable       nevery equal 1000
variable       nrepeat equal 1
variable       nfreq equal ${nevery}*${nrepeat}
variable       nfreq equal 1000*${nrepeat}
variable       nfreq equal 1000*1
variable       nthermo equal ${nfreq}/10
variable       nthermo equal 1000/10
variable       nequil equal 2000*${nthermo}  # 2000: 100 ps
variable       nequil equal 2000*100  

variable       seed string 123456
variable       structure string 333U-50C-33
variable       FF string "* * SiOCHN_2018.ff C H O Si"          # force field args for pair_coeff
# pair_coeff * * CHONSSi.ff C H O Si
# pair_coeff * * CHOSiNa.ff C H O Si
# pair_coeff * * SiOCHN_2018.ff C H O Si
# pair_coeff * * PDMSDecomp.ff C H O Si
# pair_coeff * * CHONSi.ff C H O Si
# pair_coeff * * CHOFe.ff O Si

timestep        ${timestep}
timestep        0.5

# box tilt large
# Read the initial sctructure
read_data       ${structure}.data
read_data       333U-50C-33.data
Reading data file ...
  triclinic box = (0 0 0) to (15.3172 13.8463 18.3222) with tilt (-7.7318 0.2463 -0.1382)
WARNING: Triclinic box skew is large. LAMMPS will run inefficiently. (src/domain.cpp:220)
  1 by 2 by 2 MPI processor grid
  reading atoms ...
  365 atoms
Finding 1-2 1-3 1-4 neighbors ...
  special bond factors lj:    0        0        0       
  special bond factors coul:  0        0        0       
     0 = max # of 1-2 neighbors
     0 = max # of 1-3 neighbors
     0 = max # of 1-4 neighbors
     1 = max # of special neighbors
  special bonds CPU = 0.001 seconds
  read_data CPU = 0.010 seconds

# Assign the force field
pair_style reaxff NULL safezone 3.0 mincap 150
pair_coeff ${FF}
pair_coeff * * SiOCHN_2018.ff C H O Si
WARNING: Van der Waals parameters for element SI indicate inner wall+shielding, but earlier atoms indicate a different van der Waals method. This may cause division-by-zero errors. Keeping van der Waals setting for earlier atoms. (src/REAXFF/reaxff_ffield.cpp:251)
# Charge equilibration for ReaxFF
fix myqeq all qeq/reaxff 1 0.0 10.0 1.0e-6 reaxff maxiter 400

neighbor        2 bin
neigh_modify    every 10 delay 0 check yes

# Energy minimization
print "*****Minimization starts.*****"
*****Minimization starts.*****
# Print system info
thermo          ${nthermo}
thermo          100
thermo_style    custom step temp press density vol pe etotal
dump dump_opt all custom 1 dump/dump_opt.lammpstrj id type q x y z
minimize 1.0e-6 1.0e-6 100 1000

CITE-CITE-CITE-CITE-CITE-CITE-CITE-CITE-CITE-CITE-CITE-CITE-CITE

Your simulation uses code contributions which should be cited:

- pair reaxff command: doi:10.1016/j.parco.2011.08.005

@Article{Aktulga12,
 author = {H. M. Aktulga and J. C. Fogarty and S. A. Pandit and A. Y. Grama},
 title = {Parallel Reactive Molecular Dynamics: {N}umerical Methods and Algorithmic Techniques},
 journal = {Parallel Computing},
 year =    2012,
 volume =  38,
 number =  {4--5},
 pages =   {245--259}
}

- fix qeq/reaxff command: doi:10.1016/j.parco.2011.08.005

@Article{Aktulga12,
 author = {H. M. Aktulga and J. C. Fogarty and S. A. Pandit and A. Y. Grama},
 title = {Parallel Reactive Molecular Dynamics: {N}umerical Methods and Algorithmic Techniques},
 journal = {Parallel Computing},
 year =    2012,
 volume =  38,
 pages =   {245--259}
}

CITE-CITE-CITE-CITE-CITE-CITE-CITE-CITE-CITE-CITE-CITE-CITE-CITE

Switching to 'neigh_modify every 1 delay 0 check yes' setting during minimization
WARNING: Fix qeq/reaxff group is not charge neutral, net charge = -6.56 (src/REAXFF/fix_qeq_reaxff.cpp:392)
Neighbor list info ...
  update: every = 1 steps, delay = 0 steps, check = yes
  max neighbors/atom: 2000, page size: 100000
  master list distance cutoff = 12
  ghost atom cutoff = 12
  binsize = 6, bins = 4 3 4
  2 neighbor lists, perpetual/occasional/extra = 2 0 0
  (1) pair reaxff, perpetual
      attributes: half, newton off, ghost
      pair build: half/bin/newtoff/ghost
      stencil: full/ghost/bin/3d
      bin: standard
  (2) fix qeq/reaxff, perpetual, copy from (1)
      attributes: half, newton off
      pair build: copy
      stencil: none
      bin: none
Per MPI rank memory allocation (min/avg/max) = 157.6 | 159 | 160 Mbytes
   Step          Temp          Press         Density         Volume         PotEng         TotEng    
         0   0              172056.5       1.701333       3885.8921     -32797.121     -32797.121    
        77   0              1211.5092      1.701333       3885.8921     -35647.605     -35647.605    
Loop time of 40.6002 on 8 procs for 77 steps with 365 atoms

81.9% CPU use with 4 MPI tasks x 2 OpenMP threads

Minimization stats:
  Stopping criterion = energy tolerance
  Energy initial, next-to-last, final = 
      -32797.120824034  -35647.6025734452  -35647.6046846989
  Force two-norm initial, final = 4765.628 639.47105
  Force max component initial, final = 1232.8275 343.3193
  Final line search alpha, max atom move = 0.00018490621 0.063481871
  Iterations, force evaluations = 77 383

MPI task timing breakdown:
Section |  min time  |  avg time  |  max time  |%varavg| %total
---------------------------------------------------------------
Pair    | 17.629     | 21.674     | 24.056     |  52.1 | 53.39
Bond    | 0.0010184  | 0.0050435  | 0.017075   |   9.8 |  0.01
Neigh   | 0          | 0          | 0          |   0.0 |  0.00
Comm    | 6.6432     | 8.8813     | 12.659     |  76.6 | 21.88
Output  | 0.11129    | 0.21376    | 0.28732    |  14.5 |  0.53
Modify  | 9.008      | 9.0737     | 9.1393     |   2.2 | 22.35
Other   |            | 0.7519     |            |       |  1.85

Nlocal:          91.25 ave          94 max          88 min
Histogram: 1 0 0 1 0 0 0 0 1 1
Nghost:        3988.25 ave        4016 max        3960 min
Histogram: 2 0 0 0 0 0 0 0 0 2
Neighs:          58228 ave       59964 max       56239 min
Histogram: 1 0 0 1 0 0 0 1 0 1

Total # of neighbors = 232912
Ave neighs/atom = 638.11507
Ave special neighs/atom = 0
Neighbor list builds = 0
Dangerous builds = 0
min_style cg
# Save the optimized structure
write_data ${structure}_opt.data
write_data 333U-50C-33_opt.data
System init for write_data ...
undump dump_opt
reset_timestep 0

velocity        all create ${T} ${seed} dist gaussian
velocity        all create 300 ${seed} dist gaussian
velocity        all create 300 123456 dist gaussian
# equilibration at low T
print "##### Equilibration starts.##### "
##### Equilibration starts.##### 
velocity        all create ${T} 12345
velocity        all create 300 12345
fix             equil1 all nvt temp ${T} ${T} ${Td}
fix             equil1 all nvt temp 300 ${T} ${Td}
fix             equil1 all nvt temp 300 300 ${Td}
fix             equil1 all nvt temp 300 300 50
# fix             equil1 all npt temp ${T} ${T} ${Td} tri ${P} ${P} ${Pd}

# out put bonds and species information
fix bondinfo all reaxff/bonds ${nthermo} bonds/bonds.reaxff
fix bondinfo all reaxff/bonds 100 bonds/bonds.reaxff
# fix speciesinfo all reaxff/species ${nevery} ${nrepeat} ${nthermo} bonds/species.out

# compute MSD and RDF
compute msd1 all msd
fix myMSD all ave/time 10 10 ${nthermo} c_msd1[1] c_msd1[2] c_msd1[3] c_msd1[4] c_thermo_temp     file msd.out     title2 "# TimeStep MSD_X MSD_Y MSD_Z MSD_Total Temperture"
fix myMSD all ave/time 10 10 100 c_msd1[1] c_msd1[2] c_msd1[3] c_msd1[4] c_thermo_temp     file msd.out     title2 "# TimeStep MSD_X MSD_Y MSD_Z MSD_Total Temperture"
# C-C C-Si Si-O C-H Si-Si
compute rdf1 all rdf 200 1 1 1 4 3 4 1 2 4 4 cutoff 5.0
fix myRDF all ave/time ${nevery} ${nrepeat} ${nfreq} c_rdf1[*]     file rdf.out mode vector     title3 "# Row r g1(r) coor1(r) ..."
fix myRDF all ave/time 1000 ${nrepeat} ${nfreq} c_rdf1[*]     file rdf.out mode vector     title3 "# Row r g1(r) coor1(r) ..."
fix myRDF all ave/time 1000 1 ${nfreq} c_rdf1[*]     file rdf.out mode vector     title3 "# Row r g1(r) coor1(r) ..."
fix myRDF all ave/time 1000 1 1000 c_rdf1[*]     file rdf.out mode vector     title3 "# Row r g1(r) coor1(r) ..."

thermo_style    custom step temp press pe etotal
# Save trajectory
dump dump_eq all custom/gz ${nthermo} dump/dump_eq.lammpstrj.gz id type x y z q
dump dump_eq all custom/gz 100 dump/dump_eq.lammpstrj.gz id type x y z q

run ${nequil}
run 200000
WARNING: Compute rdf cutoff less than neighbor cutoff - forcing a needless neighbor list build (src/compute_rdf.cpp:179)
Neighbor list info ...
  update: every = 10 steps, delay = 0 steps, check = yes
  max neighbors/atom: 2000, page size: 100000
  master list distance cutoff = 12
  ghost atom cutoff = 12
  binsize = 6, bins = 4 3 4
  3 neighbor lists, perpetual/occasional/extra = 2 1 0
  (1) pair reaxff, perpetual
      attributes: half, newton off, ghost
      pair build: half/bin/newtoff/ghost
      stencil: full/ghost/bin/3d
      bin: standard
  (2) compute rdf, occasional
      attributes: half, newton on, cut 7
      pair build: half/bin/newton/tri
      stencil: half/bin/3d/tri
      bin: standard
  (3) fix qeq/reaxff, perpetual, copy from (1)
      attributes: half, newton off
      pair build: copy
      stencil: none
      bin: none
Per MPI rank memory allocation (min/avg/max) = 162.7 | 164 | 165.3 Mbytes
   Step          Temp          Press          PotEng         TotEng    
         0   300            5040.552      -35647.605     -35322.1      
       100   209.47912      15460.345     -35510.262     -35282.974    
       200   256.43563     -1402.589      -35499.652     -35221.416    
       300   304.28749     -10472.485     -35494.028     -35163.871    
       400   300.66902     -5687.6624     -35455.17      -35128.94     
       500   302.8846       7095.9842     -35467.853     -35139.218    
       600   316.14381      16949.87      -35519.859     -35176.838    
       700   324.4777       16295.176     -35582.03      -35229.967    
       800   310.54238      1475.1636     -35611.338     -35274.395    
       900   321.125        6282.1377     -35663.431     -35315.005    
      1000   305.23657      4014.2878     -35697.098     -35365.912    
      1100   293.57128     -2265.3417     -35722.269     -35403.739    
      1200   279.16672     -2938.1472     -35731.335     -35428.435    
      1300   297.74659     -6333.9679     -35752.778     -35429.718    
      1400   309.6742       12295.34      -35750.041     -35414.04     
      1500   322.09196      23541.575     -35782.853     -35433.379    
      1600   312.76273      8671.8914     -35798.377     -35459.025    
      1700   309.43991      16208.568     -35828.065     -35492.319    
      1800   336.25623     -9799.9102     -35897.979     -35533.136    
      1900   304.31469      871.98466     -35908.331     -35578.145    
      2000   308.44144      1080.2578     -35954.355     -35619.692    
      2100   331.86489     -5328.2014     -36006.884     -35646.806    
      2200   298.00646      2961.883      -35999.088     -35675.747    
      2300   316.89617      10833.025     -36053.851     -35710.014    
      2400   305.76096     -1390.285      -36068.691     -35736.936    
      2500   296.91193      4412.253      -36083.147     -35760.993    
      2600   320.65023      16169.115     -36121.121     -35773.211    
      2700   315.22725      6727.3323     -36138.319     -35796.292    
      2800   311.53238     -72.023321     -36164.594     -35826.577    
      2900   308.01495     -3553.8401     -36169.391     -35835.19     
      3000   311.52419     -16172.1       -36199.166     -35861.158    
      3100   330.66429      2041.8502     -36257.318     -35898.542    
      3200   310.0113      -1393.3205     -36265.739     -35929.372    
      3300   317.51263      9993.9435     -36301.477     -35956.971    
      3400   336.87564      12578.9       -36349.243     -35983.728    
      3500   330.17358      14025.376     -36387.512     -36029.268    
      3600   317.92354      17240.096     -36409.344     -36064.392    
      3700   305.67107      8753.9701     -36421.095     -36089.437    
      3800   319.37295      11263.489     -36451.668     -36105.143    
      3900   298.76939     -1542.354      -36458.345     -36134.176    
      4000   281.37379      121.35019     -36457.771     -36152.476    
      4100   305.21203      4855.4294     -36490.992     -36159.832    
      4200   283.58916      3737.5741     -36499.512     -36191.814    
      4300   318.17963      13216.459     -36568.186     -36222.957    
      4400   335.0199       467.73735     -36613.751     -36250.249    
      4500   329.86056      19940.599     -36650.082     -36292.178    
      4600   315.86036      2991.2801     -36668.618     -36325.905    
      4700   306.57441     -2468.2285     -36686.985     -36354.347    
      4800   313.97379     -3399.6311     -36714.111     -36373.445    
      4900   282.10289     -8359.0437     -36677.749     -36371.663    
      5000   287.39667      5458.1819     -36703.947     -36392.117    
      5100   321.65922      9735.572      -36790.239     -36441.234    
      5200   288.8001       9415.2544     -36798.4       -36485.048    
      5300   291.01422      8539.4965     -36842.726     -36526.971    
      5400   299.42805      2937.8276     -36886.216     -36561.332    
      5500   316.31144      8634.886      -36922.415     -36579.212    
      5600   319.71133     -13058.671     -36934.727     -36587.836    
      5700   267.73051      8411.7512     -36886.684     -36596.193    
      5800   294.77865     -3545.1791     -36929.389     -36609.55     
      5900   284.92161      6248.2044     -36922.786     -36613.642    
      6000   307.39716     -676.80389     -36949.037     -36615.506    
      6100   283.81804     -8829.6169     -36934.365     -36626.419    
      6200   281.91461      5895.5955     -36955.625     -36649.744    
      6300   291.65231      7188.299      -36978.663     -36662.216    
      6400   290.2357       1661.9543     -37000.522     -36685.612    
      6500   280.04212      11627.481     -37017.779     -36713.929    
      6600   275.68726      1195.7047     -37003.972     -36704.847    
      6700   295.4947       1396.6227     -36986.017     -36665.401    
      6800   321.99603      348.95016     -37008.126     -36658.755    
      6900   289.58472      2094.9614     -36992.91      -36678.706    
      7000   291.25556      15787.904     -37022.022     -36706.006    
      7100   297.9353      -603.50416     -37033.763     -36710.499    
      7200   276.30346      6026.6201     -36986.457     -36686.664    
      7300   318.1483       9506.9534     -37021.191     -36675.996    
      7400   318.00619      18828.235     -37032.413     -36687.372    
      7500   302.57414      16387.51      -37038.067     -36709.769    
      7600   277.23222      9812.6106     -37009.794     -36708.993    
      7700   288.85495      11673.175     -37013.854     -36700.442    
      7800   350.69237      18363.827     -37049.013     -36668.506    
      7900   321.5769       5017.4231     -37023.772     -36674.856    
      8000   322.54507      4807.4163     -37071.397     -36721.431    
      8100   299.84034     -5527.12       -37070.831     -36745.5      
      8200   309.94594      2231.2022     -37106.351     -36770.055    
      8300   306.83433      7655.7587     -37119.435     -36786.515    
      8400   291.71332      15715.168     -37106.987     -36790.474    
      8500   300.23463      9201.9061     -37109.767     -36784.008    
      8600   344.96655      6999.5728     -37133.288     -36758.994    
      8700   288.47781      231.15822     -37106.955     -36793.952    
      8800   286.51672      6410.7417     -37123.946     -36813.071    
      8900   294.53401      6555.7738     -37144.947     -36825.373    
      9000   330.08499      12300.594     -37188.435     -36830.287    
      9100   303.26364      9942.4797     -37185.006     -36855.961    
      9200   291.79636      3830.0918     -37187.708     -36871.105    
      9300   293.83025      5828.1303     -37184.06      -36865.25     
      9400   277.03295     -19811.139     -37121.599     -36821.014    
      9500   322.58197     -5859.9202     -37161.751     -36811.744    
      9600   303.53291     -610.83604     -37162.996     -36833.659    
      9700   291.56753      9535.6323     -37169.476     -36853.121    
      9800   291.13651      9228.5373     -37176.913     -36861.025    
      9900   278.79754      3774.1465     -37172.766     -36870.266    
     10000   286.34732     -466.27761     -37187.565     -36876.874    
     10100   288.95283      6526.9054     -37172.186     -36858.668    
     10200   310.78453      3677.832      -37172.841     -36835.635    
     10300   314.95831     -2700.8493     -37177.892     -36836.157    
     10400   296.45202     -3088.8        -37195.169     -36873.514    
     10500   315.72769      9430.7395     -37245.435     -36902.865    
     10600   306.05786     -196.48704     -37263.299     -36931.222    
     10700   286.26626      14230.333     -37260.126     -36949.523    
     10800   275.27189     -6516.6623     -37245.93      -36947.256    
     10900   312.29443      6126.9042     -37252.361     -36913.517    
     11000   338.7868       2125.6056     -37277.54      -36909.952    
     11100   326.58803     -16632.296     -37303.553     -36949.2      
     11200   317.13755      1544.07       -37322.994     -36978.895    
     11300   288.93195      985.80472     -37312.786     -36999.291    
     11400   296.02964     -10397.764     -37320.399     -36999.202    
     11500   314.80392     -14574.759     -37329.291     -36987.724    
     11600   307.21648      6950.2266     -37301.525     -36968.191    
     11700   322.89743      6396.618      -37298.779     -36948.43     
     11800   317.7333       1476.9066     -37300.963     -36956.218    
     11900   290.57274     -3100.059      -37313.807     -36998.531    
     12000   308.16972     -4922.1472     -37344.486     -37010.117    
     12100   278.95369     -4004.9995     -37314.141     -37011.472    
     12200   298.14784      2069.7768     -37317.344     -36993.849    
     12300   319.93082      8713.1273     -37312.856     -36965.727    
     12400   327.32005     -3803.1936     -37310.403     -36955.256    
     12500   307.80823      1067.6173     -37313.95      -36979.973    
     12600   303.01384      5551.4809     -37322.211     -36993.437    
     12700   305.07995      14974.471     -37332.043     -37001.027    
     12800   304.28931      16547.586     -37355.958     -37025.8      
     12900   288.71554      5365.6009     -37355.27      -37042.01     
     13000   303.69106     -5707.1071     -37358.84      -37029.331    
     13100   299.94621     -116.43138     -37348.694     -37023.248    
     13200   314.37229      5336.4887     -37367.581     -37026.482    
     13300   304.59813      2358.6479     -37366.609     -37036.115    
     13400   298.97366      7174.6055     -37369.673     -37045.282    
     13500   304.02171     -6808.0068     -37370.405     -37040.537    
     13600   314.90034      5177.6165     -37377.707     -37036.036    
     13700   323.39861      12978.845     -37378.158     -37027.266    
     13800   299.39613      8302.8613     -37356.53      -37031.681    
     13900   292.82477      5351.2467     -37369.567     -37051.848    
     14000   282.59178      573.89098     -37375.821     -37069.205    
     14100   285.25485     -3685.8717     -37370.082     -37060.576    
     14200   304.09378      2039.6209     -37359.56      -37029.614    
     14300   314.29989     -3069.0645     -37363.119     -37022.099    
     14400   306.11851     -2979.6213     -37371.42      -37039.276    
     14500   293.56553      11483.362     -37371.209     -37052.686    
     14600   300.81695      6189.8738     -37382.815     -37056.424    
     14700   294.87846     -4781.5775     -37374.327     -37054.38     
     14800   296.03114      6560.5682     -37367.954     -37046.756    
     14900   289.55128      11162.234     -37358.644     -37044.477    
     15000   293.46928      6624.0679     -37368.135     -37049.716    
     15100   302.24989      14274.072     -37384.186     -37056.24     
     15200   306.73827      5061.5823     -37389.129     -37056.313    
     15300   311.33755     -4550.4678     -37403.842     -37066.037    
     15400   277.08813      4414.431      -37388.383     -37087.738    
     15500   298.86819     -7346.9851     -37411.082     -37086.806    
     15600   292.88907      8849.4025     -37378.564     -37060.775    
     15700   323.35486      4811.1092     -37385.901     -37035.056    
     15800   316.2764      -4069.1808     -37390.296     -37047.131    
     15900   307.59942      11528.986     -37408.203     -37074.453    
     16000   301.2151       5916.455      -37408.002     -37081.179    
     16100   286.41654      6216.4064     -37390.15      -37079.384    
     16200   294.08676      5342.0518     -37377.538     -37058.45     
     16300   308.51814     -10044.705     -37382.128     -37047.381    
     16400   307.52301      15655.811     -37402.666     -37068.999    
     16500   297.66315      2697.0356     -37421.019     -37098.05     
     16600   293.4194       6914.6758     -37431.36      -37112.996    
     16700   294.51767      10942.903     -37420.135     -37100.579    
     16800   345.54392      7986.9227     -37450.646     -37075.726    
     16900   318.94194     -8247.6424     -37454.246     -37108.189    
     17000   305.39235      15766.543     -37480.161     -37148.806    
     17100   310.04899      3068.5115     -37529.239     -37192.831    
     17200   289.89573     -6984.0237     -37538.127     -37223.586    
     17300   286.3128      -447.38872     -37550.659     -37240.005    
     17400   292.7271       2198.5343     -37554.305     -37236.691    
     17500   287.52232     -2812.2509     -37521.308     -37209.342    
     17600   294.25214     -9167.1006     -37511.49      -37192.222    
     17700   303.7884      -6975.8291     -37530.098     -37200.483    
     17800   300.33261      343.17898     -37549.117     -37223.252    
     17900   286.32782      10691.317     -37560.377     -37249.707    
     18000   274.68112      16520.51      -37553.891     -37255.858    
     18100   308.2882       16857.738     -37541.996     -37207.498    
     18200   306.07688     -7903.3918     -37532.047     -37199.949    
     18300   307.83769     -8145.0762     -37552.344     -37218.335    
     18400   292.8777       7889.5299     -37548.584     -37230.808    
     18500   295.02749     -9301.8366     -37552.828     -37232.719    
     18600   304.78591      1186.2496     -37564.221     -37233.524    
     18700   331.51308      1767.7296     -37630.94      -37271.243    
     18800   292.78895      17238.435     -37614.174     -37296.493    
     18900   286.0388       5748.8369     -37621.46      -37311.103    
     19000   289.7879      -4771.1607     -37632.786     -37318.362    
     19100   297.9206       5204.7338     -37624.503     -37301.254    
     19200   327.64428      6391.5964     -37623.085     -37267.586    
     19300   310.20111      4653.9898     -37609.425     -37272.852    
     19400   283.03194      9370.2407     -37598.271     -37291.177    
     19500   306.5366       290.39955     -37633.331     -37300.734    
     19600   317.16926      9739.2496     -37653.951     -37309.818    
     19700   306.04125      5146.6543     -37649.667     -37317.607    
     19800   272.3928       8800.7842     -37637.385     -37341.834    
     19900   268.2499       13850.097     -37629.561     -37338.506    
     20000   289.76967      4466.0665     -37619.569     -37305.165    
     20100   321.5287       10886.419     -37635.508     -37286.644    
     20200   292.36433      9931.6044     -37604.586     -37287.367    
     20300   281.40218     -4831.9349     -37611.002     -37305.677    
     20400   310.82271      4477.0582     -37658.449     -37321.201    
     20500   281.35559     -5157.4681     -37648.389     -37343.114    
     20600   286.73196      2604.1199     -37634.086     -37322.977    
     20700   288.87962     -1072.8355     -37608.814     -37295.376    
     20800   305.25073     -8827.4015     -37621.706     -37290.505    
     20900   314.82278     -6327.8363     -37628.997     -37287.409    
     21000   311.8533       5520.9242     -37619.338     -37280.972    
     21100   292.43756      2433.0538     -37593.167     -37275.868    
     21200   289.56683      25319.784     -37609.093     -37294.908    
     21300   300.7474       4148.9251     -37642.018     -37315.703    
     21400   283.83394      8128.1576     -37632.188     -37324.223    
     21500   311.85906     -2816.9071     -37633.865     -37295.493    
     21600   309.788        3557.1527     -37604.24      -37268.115    
     21700   302.95209     -3165.1252     -37607.886     -37279.178    
     21800   299.83125      1764.3823     -37630.091     -37304.769    
     21900   296.61157      10051.249     -37629.101     -37307.273    
     22000   314.07244      15278.862     -37640.691     -37299.918    
     22100   276.59746      14464.283     -37604.799     -37304.687    
     22200   296.26091     -6917.1621     -37627.326     -37305.879    
     22300   308.60024      11356.243     -37629.013     -37294.177    
     22400   294.63871      14820.495     -37602.337     -37282.65     
     22500   315.00706      1759.1592     -37617.407     -37275.619    
     22600   326.8162      -628.43044     -37638.921     -37284.321    
     22700   288.84441      12727.031     -37630.108     -37316.708    
     22800   267.86326      14997.916     -37612.403     -37321.767    
     22900   292.19008     -10446.771     -37615.33      -37298.3      
     23000   307.45235     -5743.9126     -37622.842     -37289.252    
     23100   284.42587     -11603.569     -37597.764     -37289.158    
     23200   277.92684     -11288.813     -37595.061     -37293.506    
     23300   315.42716      5029.4178     -37637.554     -37295.311    
     23400   293.14129     -1922.6215     -37642.123     -37324.06     
     23500   261.5258      -3650.0568     -37618.395     -37334.636    
     23600   309.86112      4924.1493     -37643.971     -37307.767    
     23700   308.70855      15108.64      -37623.06      -37288.107    
     23800   308.00166      8900.2853     -37617.563     -37283.377    
     23900   300.29305      2263.9081     -37629.81      -37303.988    
     24000   297.90587      7482.4983     -37643.757     -37320.525    
     24100   285.42402      4935.538      -37623.872     -37314.183    
     24200   283.19127     -1144.9766     -37590.264     -37282.997    
     24300   310.45358      2715.2287     -37610.254     -37273.407    
     24400   318.85826     -9709.8038     -37635.197     -37289.231    
     24500   274.81198      8447.9717     -37611.653     -37313.478    
     24600   287.08582      1917.9484     -37626.14      -37314.648    
     24700   299.38745      2752.6603     -37614.117     -37289.277    
     24800   323.53128      5320.0014     -37617.418     -37266.381    
     24900   300.3537       7616.7471     -37601.79      -37275.901    
     25000   308.58234     -5570.1167     -37636.775     -37301.958    
     25100   288.15919     -761.74741     -37626.143     -37313.486    
     25200   273.45412      10911.511     -37601.756     -37305.054    
     25300   329.43622      4572.5029     -37626.423     -37268.98     
     25400   300.50956      3314.3915     -37592.945     -37266.887    
     25500   306.15137      9025.2207     -37612.868     -37280.689    
     25600   317.2936       19910.248     -37638.98      -37294.711    
     25700   302.72866      6171.7747     -37631.72      -37303.255    
     25800   293.5333       11009.116     -37623.811     -37305.323    
     25900   300.20166     -10486.035     -37613.67      -37287.947    
     26000   316.60895     -7686.2011     -37608.092     -37264.567    
     26100   311.87717      2129.7831     -37597.685     -37259.293    
     26200   282.23319      15108.668     -37604.744     -37298.517    
     26300   309.22408      4740.7916     -37645.055     -37309.542    
     26400   312.82649      2342.9284     -37653.043     -37313.622    
     26500   287.36766      13595.691     -37613.565     -37301.767    
     26600   303.59587      10280.57      -37599.343     -37269.937    
     26700   331.03441     -4579.2258     -37627.198     -37268.02     
     26800   282.07871      8689.408      -37590.6       -37284.54     
     26900   309.17028      13970.442     -37622.643     -37287.188    
     27000   315.26573     -3947.6896     -37645.586     -37303.518    
     27100   304.93256      21530.381     -37646.03      -37315.173    
     27200   279.50264      12137.119     -37615.324     -37312.06     
     27300   292.67781      8246.8049     -37613.487     -37295.928    
     27400   305.41684      4765.7609     -37615.685     -37284.303    
     27500   339.81221      1830.2357     -37643.304     -37274.603    
     27600   299.19745      10260.14      -37615.577     -37290.943    
     27700   267.16477      15704.534     -37611.63      -37321.752    
     27800   279.94545      15652.446     -37629.545     -37325.8      
     27900   305.54531     -4188.4292     -37633.515     -37301.994    
     28000   317.67718     -1608.7632     -37624.168     -37279.483    
     28100   280.47243      14885.387     -37586.252     -37281.936    
     28200   306.19929      10033.211     -37623.116     -37290.885    
     28300   307.23412     -2562.1496     -37633.402     -37300.049    
     28400   278.1613       4077.0393     -37628.42      -37326.611    
     28500   254.67834     -7870.7157     -37608.339     -37332.009    
     28600   310.10325      5995.5678     -37638.179     -37301.712    
     28700   317.17472      17510.869     -37633.013     -37288.874    
     28800   295.87394      2414.059      -37619.17      -37298.142    
     28900   307.50492      1197.0919     -37645.255     -37311.608    
     29000   298.59545     -4511.344      -37628.321     -37304.341    
     29100   310.15182      19608.78      -37600.924     -37264.405    
     29200   327.55858      1012.9957     -37626.874     -37271.468    
     29300   297.12783      7498.3463     -37614.683     -37292.295    
     29400   283.63448      5127.0872     -37606.637     -37298.89     
     29500   315.46163     -15659.11      -37644.263     -37301.983    
     29600   299.01311      10957.21      -37646.59      -37322.156    
     29700   289.52469      2739.7047     -37655.828     -37341.69     
     29800   270.96452      16344.163     -37621.233     -37327.232    
     29900   297.64244      10034.172     -37619.368     -37296.422    
     30000   319.54031     -8298.8712     -37635.284     -37288.578    
     30100   303.73607      13757.259     -37617.534     -37287.976    
     30200   283.09054      2414.4402     -37615.872     -37308.715    
     30300   303.25933      6105.0667     -37660.366     -37331.325    
     30400   296.62842     -1688.2495     -37658.135     -37336.289    
     30500   306.73646      6272.4079     -37630.138     -37297.324    
     30600   297.59479      910.16545     -37602.751     -37279.856    
     30700   314.15379      5647.0629     -37615.471     -37274.61     
     30800   319.82612      9142.5247     -37641.03      -37294.014    
     30900   280.35327      5306.0254     -37626.675     -37322.488    
     31000   278.23193      7524.6621     -37624.002     -37322.116    
     31100   288.40116      17741.594     -37616.36      -37303.44     
     31200   321.18464      5009.4881     -37637.913     -37289.423    
     31300   296.37172      916.89581     -37614.857     -37293.289    
     31400   305.74547      7740.4809     -37625.552     -37293.813    
     31500   299.63912      14818.44      -37622.99      -37297.877    
     31600   305.18451      15214.001     -37654.424     -37323.295    
     31700   282.84629     -8025.8919     -37650.159     -37343.266    
     31800   279.60286      8714.7565     -37627.002     -37323.629    
     31900   290.98183      7325.1662     -37612.52      -37296.801    
     32000   303.88774      1450.6602     -37622.144     -37292.421    
     32100   311.79145     -4303.9857     -37624.821     -37286.523    
     32200   279.77854     -1320.4742     -37602.805     -37299.241    
     32300   281.97559      622.68858     -37632.765     -37326.818    
     32400   266.97704      10907.424     -37624.057     -37334.383    
     32500   309.52795      691.30069     -37633.802     -37297.959    
     32600   299.21849     -5792.7809     -37606.251     -37281.595    
     32700   287.66216      9247.4939     -37594.941     -37282.823    
     32800   290.31382     -4301.4758     -37614.273     -37299.278    
     32900   306.29341      11378.155     -37641.25      -37308.917    
     33000   291.38904      8490.8671     -37606.905     -37290.743    
     33100   324.72901      9018.6958     -37613.884     -37261.548    
     33200   311.61919      8093.4645     -37607.324     -37269.212    
     33300   311.44476      13441.528     -37628.014     -37290.092    
     33400   279.8382      -1498.4542     -37611.787     -37308.159    
     33500   290.61894      3977.0497     -37621.897     -37306.571    
     33600   298.09258      631.87167     -37624.13      -37300.695    
     33700   323.02941      5345.6403     -37631.767     -37281.275    
     33800   292.00438     -556.8596      -37597.271     -37280.442    
     33900   301.92938      9778.8524     -37641.125     -37313.527    
     34000   296.74598      4702.7431     -37651.598     -37329.624    
     34100   308.19948     -1658.4482     -37648.337     -37313.936    
     34200   309.78642      11009.91      -37636.388     -37300.265    
     34300   295.71012      14523.216     -37611.822     -37290.972    
     34400   288.7017       1142.4331     -37604.602     -37291.356    
     34500   278.18438      4644.6872     -37634.807     -37332.973    
     34600   302.55004      8412.7729     -37662.818     -37334.547    
     34700   315.12171      14092.185     -37649.675     -37307.764    
     34800   302.18112      1705.9839     -37620.895     -37293.024    
     34900   299.68316      3289.8896     -37629.235     -37304.074    
     35000   290.06528     -1355.3512     -37633.246     -37318.521    
     35100   284.1312      -7033.4805     -37632.452     -37324.166    
     35200   309.06347      5524.3983     -37637.493     -37302.154    
     35300   304.31323     -10993.292     -37606.515     -37276.331    
     35400   305.89992      8247.172      -37613.03      -37281.124    
     35500   282.54999      23343.169     -37617.627     -37311.056    
     35600   298.3765       8819.4368     -37640.293     -37316.55     
     35700   304.4017       5558.6236     -37638.649     -37308.369    
     35800   300.9973      -5228.4284     -37626.565     -37299.978    
     35900   294.2256       14938.284     -37596.293     -37277.054    
     36000   322.23477      6106.001      -37592.67      -37243.041    
     36100   330.02791     -3166.6422     -37624.184     -37266.099    
     36200   303.88391     -6060.9482     -37628.374     -37298.655    
     36300   290.57176     -1174.1788     -37617.922     -37302.647    
     36400   297.53162      9389.7491     -37632.007     -37309.181    
     36500   278.51305      6734.0742     -37627.837     -37325.646    
     36600   288.6723      -2821.7596     -37643.742     -37330.528    
     36700   322.30662      5644.1239     -37652.613     -37302.905    
     36800   297.21457     -2841.0365     -37604.737     -37282.255    
     36900   292.23751     -10119.271     -37602.247     -37285.165    
     37000   276.74681     -7658.6337     -37613.842     -37313.567    
     37100   293.76079      1564.6684     -37650.854     -37332.119    
     37200   301.74264      3429.6339     -37649.532     -37322.137    
     37300   328.41178      9928.1487     -37630.688     -37274.356    
     37400   323.98078     -136.33514     -37624.451     -37272.927    
     37500   301.98488     -10940.048     -37626.221     -37298.563    
     37600   280.41723      1034.2382     -37623.386     -37319.129    
     37700   267.41089      6747.071      -37611.609     -37321.465    
     37800   280.46854      6148.991      -37597.952     -37293.639    
     37900   315.32         5403.1402     -37622.306     -37280.179    
     38000   320.95054     -140.15307     -37639.17      -37290.934    
     38100   303.32109     -94.050622     -37634.881     -37305.773    
     38200   309.61661      9562.0353     -37655.049     -37319.111    
     38300   274.1198       891.43204     -37621.142     -37323.718    
     38400   300.95994      5320.1184     -37609.668     -37283.122    
     38500   316.66191     -977.29582     -37618.723     -37275.14     
     38600   331.12385     -3411.8228     -37652.049     -37292.774    
     38700   280.08597     -1550.0603     -37621.53      -37317.633    
     38800   277.88788      5157.3763     -37615.708     -37314.195    
     38900   311.02718      1053.3868     -37640.869     -37303.4      
     39000   307.27539      11658.409     -37640.263     -37306.865    
     39100   306.45822     -7752.8851     -37653.977     -37321.466    
     39200   301.04038      1164.9921     -37661.389     -37334.755    
     39300   274.14201     -5864.8366     -37622.812     -37325.364    
     39400   275.33339      2761.248      -37596.796     -37298.055    
     39500   326.715        8193.3007     -37635.673     -37281.183    
     39600   318.79911      15122.92      -37625.698     -37279.796    
     39700   293.23998      3013.6058     -37603.985     -37285.815    
     39800   284.3111       10561.794     -37625.074     -37316.592    
     39900   290.33602      20783.441     -37657.665     -37342.646    
     40000   295.9438       6968.1759     -37653.081     -37331.977    
     40100   317.59378      2375.3658     -37644.902     -37300.308    
     40200   285.19806     -23.54747      -37598.674     -37289.23     
     40300   295.15792      7314.7364     -37606.089     -37285.838    
     40400   298.44681     -2538.0725     -37621.943     -37298.124    
     40500   289.39398      9353.6007     -37638.513     -37324.516    
     40600   280.84197      20790.699     -37640.188     -37335.47     
     40700   297.09879      3872.3089     -37636.199     -37313.843    
     40800   315.92326     -6200.5556     -37625.819     -37283.038    
     40900   312.46239      1152.3075     -37623.138     -37284.112    
     41000   305.61071     -3838.7976     -37627.389     -37295.797    
     41100   286.50329      13275.169     -37626.231     -37315.37     
     41200   290.93423      2911.127      -37661.025     -37345.357    
     41300   281.45384     -3829.0221     -37649.469     -37344.087    
     41400   308.33164      1550.3961     -37642.842     -37308.298    
     41500   282.01616      3985.5169     -37604.051     -37298.059    
     41600   294.39152     -1018.9522     -37612.056     -37292.637    
     41700   304.77487      15012.107     -37622.924     -37292.239    
     41800   311.97668      21898.714     -37618.465     -37279.965    
     41900   322.15791      6192.9312     -37616.986     -37267.44     
     42000   313.35232     -1155.7338     -37628.212     -37288.22     
     42100   266.63441     -1573.4478     -37610.88      -37321.578    
     42200   288.53894     -693.46801     -37628.389     -37315.32     
     42300   283.85229      9018.5737     -37597.461     -37289.477    
     42400   294.60247      11100.738     -37596.738     -37277.09     
     42500   323.28522      296.29149     -37636.867     -37286.098    
     42600   297.04642     -3707.5733     -37632.867     -37310.567    
     42700   281.70476      14596.765     -37616.55      -37310.897    
     42800   282.07518      11321.126     -37615.667     -37309.612    
     42900   304.47369      10325.525     -37629.054     -37298.696    
     43000   324.63615      28618.877     -37638.511     -37286.276    
     43100   333.66691      3980.1083     -37623.982     -37261.948    
     43200   297.90181      3365.5918     -37602.272     -37279.044    
     43300   292.45543      15684.208     -37624.728     -37307.409    
     43400   316.0324      -2727.3577     -37652.953     -37310.053    
     43500   285.50168      7001.669      -37610.298     -37300.525    
     43600   322.24221      7086.2041     -37628.234     -37278.596    
     43700   326.75791      12975.892     -37602.188     -37247.651    
     43800   335.64708      8937.284      -37622.644     -37258.462    
     43900   293.18678     -1537.7274     -37608.542     -37290.43     
     44000   300.48985     -7211.8811     -37616.693     -37290.657    
     44100   286.0903      -20171.719     -37615.865     -37305.453    
     44200   278.32162      5177.0856     -37623.842     -37321.859    
     44300   289.62716      10767.351     -37641.006     -37326.757    
     44400   324.06549     -1443.1154     -37642.66      -37291.044    
     44500   306.84385      301.01036     -37603.829     -37270.899    
     44600   292.10879     -3926.9129     -37594.436     -37277.494    
     44700   289.65873      12900.295     -37622.359     -37308.075    
     44800   298.29588     -4700.148      -37643.504     -37319.849    
     44900   282.00026     -13872.393     -37624.489     -37318.515    
     45000   296.58281      155.36672     -37630.052     -37308.255    
     45100   293.36886      267.5792      -37619.537     -37301.228    
     45200   291.0357       6506.5648     -37640.15      -37324.372    
     45300   304.30563     -7670.5084     -37676.317     -37346.14     
     45400   297.61912      1288.2683     -37658.255     -37335.334    
     45500   312.44489      12292.537     -37643.633     -37304.626    
     45600   301.85216      8214.259      -37633.026     -37305.512    
     45700   302.8331       21403.557     -37649.418     -37320.839    
     45800   300.17832      4436.9899     -37670.494     -37344.796    
     45900   283.97736     -382.56781     -37677.986     -37369.867    
     46000   279.23457      2299.9628     -37703.992     -37401.018    
     46100   275.74545     -51.239509     -37702.277     -37403.089    
     46200   286.94491      1473.1559     -37676.413     -37365.074    
     46300   284.65365      772.55962     -37653.34      -37344.486    
     46400   293.35284      1281.0876     -37643.161     -37324.868    
     46500   294.56103      10302.917     -37629.537     -37309.934    
     46600   320.0445       18164.566     -37653.658     -37306.405    
     46700   302.69185      671.80218     -37668.123     -37339.698    
     46800   296.0209      -1604.7875     -37677.231     -37356.044    
     46900   302.56395     -5322.4723     -37677.652     -37349.366    
     47000   287.45319      16971.033     -37639.844     -37327.953    
     47100   302.11324      3873.9032     -37632.779     -37304.981    
     47200   303.05306      934.94728     -37655.114     -37326.297    
     47300   321.07523      16052.282     -37707.904     -37359.533    
     47400   346.84108      7137.0882     -37767.308     -37390.98     
     47500   281.89679      9804.8874     -37723.735     -37417.873    
     47600   304.09595      3739.7556     -37760.091     -37430.143    
     47700   310.33507      9978.4575     -37762.948     -37426.23     
     47800   313.08958      8931.1073     -37756.626     -37416.919    
     47900   318.24064     -4804.3431     -37728.737     -37383.441    
     48000   332.07759      8366.403      -37746.466     -37386.156    
     48100   301.64958      6520.169      -37742.361     -37415.067    
     48200   300.85012      1145.3724     -37753.441     -37427.014    
     48300   294.87436     -5311.6264     -37756.755     -37436.812    
     48400   287.67291      4948.8618     -37754.724     -37442.594    
     48500   303.2609       5471.5952     -37762.509     -37433.466    
     48600   328.39937     -1421.1264     -37759.136     -37402.817    
     48700   299.47189     -8513.6986     -37731.237     -37406.306    
     48800   286.43705     -3283.9796     -37744.187     -37433.398    
     48900   309.52318     -3457.7133     -37770.812     -37434.975    
     49000   312.86514      5519.8814     -37770.505     -37431.041    
     49100   296.48321     -108.76232     -37757.61      -37435.921    
     49200   301.02563     -470.34405     -37758.132     -37431.515    
     49300   302.69748      6688.6378     -37750.223     -37421.792    
     49400   302.7764      -646.28691     -37741.56      -37413.043    
     49500   314.0512      -3261.6283     -37752.923     -37412.173    
     49600   301.32515      2917.0984     -37757.394     -37430.452    
     49700   313.11679      3042.7012     -37786.215     -37446.478    
     49800   291.0581       758.43197     -37776.59      -37460.788    
     49900   289.44872      11061.172     -37771.086     -37457.03     
     50000   325.57775      4552.6596     -37774.964     -37421.707    
     50100   310.96351     -8132.3157     -37753.981     -37416.581    
     50200   296.24935     -4699.9751     -37747.072     -37425.637    
     50300   274.09355      3540.0165     -37743.449     -37446.053    
     50400   291.06131     -2433.4484     -37779.053     -37463.247    
     50500   270.91747     -1874.9785     -37776.751     -37482.801    
     50600   283.8229      -12973.311     -37788.111     -37480.159    
     50700   317.99419     -4851.4065     -37791.311     -37446.282    
     50800   299.30295      14981.928     -37752.811     -37428.063    
     50900   293.24558      9316.0628     -37747.176     -37429        
     51000   287.40046      4316.5869     -37754.776     -37442.942    
     51100   272.18114     -10601.933     -37758.308     -37462.988    
     51200   293.84582      8418.2223     -37796.654     -37477.827    
     51300   313.6291       6320.3449     -37788.269     -37447.977    
     51400   274.19372     -9832.2877     -37722.589     -37425.085    
     51500   305.44181      14613.79      -37755.783     -37424.374    
     51600   280.75876      5031.978      -37731.042     -37426.415    
     51700   294.71981      4052.7192     -37764.391     -37444.616    
     51800   283.27576      944.23746     -37778.975     -37471.617    
     51900   298.84539      9475.4187     -37778.429     -37454.177    
     52000   274.53121      19305.553     -37733.713     -37435.842    
     52100   286.78169      13572.042     -37742.809     -37431.647    
     52200   326.90347      12.057499     -37790.766     -37436.07     
     52300   293.57854      9278.5506     -37760.36      -37441.823    
     52400   319.64524      7221.3164     -37773.108     -37426.288    
     52500   314.21357      2108.7932     -37754.879     -37413.953    
     52600   292.63404      8120.9725     -37744.082     -37426.57     
     52700   309.32029      19887.29      -37788.365     -37452.748    
     52800   300.2024      -5906.0042     -37783.931     -37458.207    
     52900   295.35538     -5881.6677     -37750.334     -37429.869    
     53000   298.59539      9339.0535     -37731.453     -37407.472    
     53100   303.58166      7557.0599     -37745.214     -37415.823    
     53200   292.38676     -1097.28       -37742.363     -37425.119    
     53300   287.28548     -4073.7845     -37760.232     -37448.523    
     53400   307.84855      3042.1939     -37800.248     -37466.228    
     53500   298.05352     -3485.0376     -37786.431     -37463.039    
     53600   316.24101     -3197.7416     -37767.439     -37424.313    
     53700   308.19748      34.175971     -37746.833     -37412.434    
     53800   297.01351     -2613.0062     -37750.237     -37427.973    
     53900   289.83938      11574.998     -37766.314     -37451.834    
     54000   291.21523      11259.974     -37760.454     -37444.481    
     54100   309.79962     -5534.8167     -37762.434     -37426.296    
     54200   302.81243      459.09152     -37748.814     -37420.258    
     54300   298.48276      14550.533     -37739.785     -37415.927    
     54400   275.2039       12029.109     -37726.963     -37428.363    
     54500   295.05276      2927.7713     -37769.057     -37448.921    
     54600   272.35675     -7846.6473     -37755.515     -37460.004    
     54700   281.99674      3999.7294     -37746.901     -37440.93     
     54800   308.31591     -2287.8695     -37752.724     -37418.197    
     54900   304.91651      6830.4715     -37746.086     -37415.247    
     55000   284.96362      10978.11      -37730.129     -37420.939    
     55100   293.82805      6297.5019     -37776.296     -37457.488    
     55200   280.66983      1529.6935     -37786.31      -37481.779    
     55300   288.96127      11845.231     -37770.414     -37456.887    
     55400   312.66939      2407.0762     -37769.911     -37430.66     
     55500   305.68522      6293.5354     -37756.279     -37424.606    
     55600   287.76948      4919.3923     -37734.021     -37421.787    
     55700   322.98819      8623.6944     -37789.171     -37438.724    
     55800   305.72899      3100.1291     -37798.477     -37466.757    
     55900   293.11755      4575.7326     -37777.972     -37459.936    
     56000   297.9617       1939.414      -37758.781     -37435.488    
     56100   304.46342      2912.3387     -37761.786     -37431.439    
     56200   317.25665     -5629.5572     -37774.458     -37430.23     
     56300   303.10898      14860.34      -37754.277     -37425.399    
     56400   333.13331      19338.462     -37765.807     -37404.352    
     56500   334.38687      14011.793     -37760.574     -37397.759    
     56600   312.12829     -2623.8462     -37768.633     -37429.969    
     56700   316.45425      352.14897     -37787.187     -37443.83     
     56800   275.23479      19264.062     -37749.589     -37450.955    
     56900   285.60676      5944.9858     -37768.225     -37458.338    
     57000   298.00215      4262.9715     -37772.496     -37449.16     
     57100   287.01138      7936.2585     -37730.024     -37418.612    
     57200   310.81085     -8987.9681     -37749.969     -37412.735    
     57300   312.57657      7733.9459     -37777.036     -37437.885    
     57400   286.73091     -272.60886     -37770.085     -37458.978    
     57500   301.80193      4596.1253     -37781.093     -37453.634    
     57600   307.7644      -11613.191     -37778.322     -37444.393    
     57700   301.85316      1176.2823     -37767.856     -37440.341    
     57800   297.90673     -1181.7494     -37761.685     -37438.452    
     57900   323.13159     -2825.1843     -37795.337     -37444.734    
     58000   301.71641      3001.1656     -37780.981     -37453.614    
     58100   298.99162      8428.2328     -37775.857     -37451.446    
     58200   297.05216      6486.2669     -37766.346     -37444.04     
     58300   300.86053      6173.6021     -37752.855     -37426.417    
     58400   325.53361      15856.309     -37764.162     -37410.954    
     58500   273.86355     -625.58809     -37730.157     -37433.011    
     58600   285.21509     -591.84763     -37767.366     -37457.904    
     58700   280.52102      1494.1659     -37760.035     -37455.666    
     58800   320.96874      14069.707     -37782.577     -37434.322    
     58900   319.77821      12214.736     -37775.527     -37428.563    
     59000   319.62383      4043.3911     -37776.199     -37429.402    
     59100   310.52951      8695.5821     -37771.876     -37434.947    
     59200   313.53379     -5670.4414     -37776.738     -37436.549    
     59300   312.17966     -4041.7403     -37777.689     -37438.969    
     59400   277.26244     -228.76386     -37764.417     -37463.583    
     59500   275.85918      2135.5702     -37774.529     -37475.218    
     59600   269.17397     -5065.8727     -37745.333     -37453.275    
     59700   293.50558      2978.2113     -37740.901     -37422.443    
     59800   294.84054     -47.272085     -37753.715     -37433.808    
     59900   293.42812      8362.2008     -37785.498     -37467.124    
     60000   286.20385      3851.7028     -37797.505     -37486.969    
     60100   298.69969      6908.0885     -37813.458     -37489.364    
     60200   304.08588      3104.3982     -37825.177     -37495.239    
     60300   318.20873      915.12917     -37824.104     -37478.843    
     60400   319.40543      18026.663     -37799.86      -37453.3      
     60500   322.24939      9587.7505     -37807.546     -37457.901    
     60600   302.2565      -6639.0572     -37817.261     -37489.309    
     60700   285.02047      1546.9872     -37809.38      -37500.129    
     60800   295.50714      2178.8607     -37811.346     -37490.716    
     60900   291.49378      2284.7051     -37794.805     -37478.53     
     61000   314.21829     -1079.8287     -37814.904     -37473.972    
     61100   314.79716      12594.809     -37792.213     -37450.653    
     61200   341.76783     -2025.5363     -37808.309     -37437.486    
     61300   322.71436     -945.53006     -37813.059     -37462.909    
     61400   290.04788      126.32406     -37802.573     -37487.866    
     61500   302.27891      998.03788     -37806.389     -37478.412    
     61600   297.77723     -2973.1078     -37796.577     -37473.485    
     61700   308.61336      2437.7012     -37803.903     -37469.053    
     61800   320.03846     -3425.0006     -37804.028     -37456.782    
     61900   314.1121       6610.1437     -37792.332     -37451.516    
     62000   287.58244      4193.4829     -37787.865     -37475.833    
     62100   293.53173      7765.2327     -37815.758     -37497.272    
     62200   288.83776      1462.9325     -37808.53      -37495.136    
     62300   301.41625      716.82593     -37800.609     -37473.568    
     62400   310.53431      14282.399     -37781.326     -37444.391    
     62500   295.88529     -7217.9802     -37772.345     -37451.305    
     62600   299.37687     -7033.4052     -37795.955     -37471.127    
     62700   296.35513     -663.98364     -37809.765     -37488.215    
     62800   288.3356      -3043.1279     -37803.212     -37490.363    
     62900   309.79857      10561.053     -37807.309     -37471.173    
     63000   346.54998      2792.7657     -37815.735     -37439.723    
     63100   304.34164      12633.237     -37787.574     -37457.359    
     63200   295.41176      14936.604     -37793.964     -37473.438    
     63300   292.07384      6444.8719     -37792.423     -37475.518    
     63400   290.37667      3001.5033     -37797.489     -37482.426    
     63500   287.93976     -3398.3408     -37797.055     -37484.636    
     63600   306.46434      6492.012      -37819.429     -37486.911    
     63700   306.74645      15401.3       -37821.778     -37488.953    
     63800   295.2737       8689.808      -37805.344     -37484.968    
     63900   308.08718      3422.1361     -37806.155     -37471.876    
     64000   317.50378     -11880.938     -37800.101     -37455.605    
     64100   336.35396     -2552.4699     -37816.161     -37451.212    
     64200   302.08845      12615.871     -37804.42      -37476.649    
     64300   287.50626      7867.196      -37811.348     -37499.399    
     64400   290.26151      11425.115     -37809.376     -37494.438    
     64500   282.19584      3033.2073     -37776.62      -37470.434    
     64600   305.23406     -1995.9256     -37790.779     -37459.595    
     64700   305.32796     -10239.58      -37797.082     -37465.796    
     64800   301.33287      1906.9506     -37803.954     -37477.003    
     64900   297.96224     -3227.3709     -37813.83      -37490.537    
     65000   290.758       -4985.1117     -37817.631     -37502.154    
     65100   314.89012     -4022.3622     -37815.469     -37473.809    
     65200   310.09154      9117.1119     -37783.883     -37447.429    
     65300   300.84155      10917.9       -37784.479     -37458.062    
     65400   263.47931     -3835.3464     -37768.335     -37482.456    
     65500   291.11571     -1472.5875     -37802.757     -37486.892    
     65600   305.43664     -4138.6085     -37813.199     -37481.795    
     65700   312.35869      4658.6835     -37814.949     -37476.035    
     65800   297.69875     -3011.0715     -37816.349     -37493.341    
     65900   284.41946      9521.8531     -37837.103     -37528.504    
     66000   269.04887     -2899.8269     -37815.248     -37523.326    
     66100   302.85511     -14972.251     -37831.507     -37502.905    
     66200   308.96914      8506.5428     -37823.332     -37488.096    
     66300   312.47542      8818.906      -37812.747     -37473.706    
     66400   296.62463      2054.8182     -37787.557     -37465.715    
     66500   305.63529      4931.6258     -37822.46      -37490.841    
     66600   281.51915      2180.628      -37818.442     -37512.99     
     66700   284.19442     -12285.148     -37811.396     -37503.041    
     66800   294.16519     -841.04357     -37798.014     -37478.841    
     66900   314.27975      8446.6982     -37814.819     -37473.821    
     67000   302.06749      8207.4309     -37805.187     -37477.439    
     67100   302.00074      10022.981     -37813.947     -37486.272    
     67200   305.88245     -1075.564      -37816.951     -37485.064    
     67300   311.11868      8920.2891     -37811.738     -37474.17     
     67400   303.09978      2301.8962     -37791.028     -37462.161    
     67500   293.68636      5354.9414     -37775.857     -37457.203    
     67600   303.13677      12075.617     -37798.882     -37469.974    
     67700   298.19781      10318.306     -37825.908     -37502.359    
     67800   268.2002       12998.309     -37796.937     -37505.936    
     67900   294.05565      1577.3125     -37806.044     -37486.99     
     68000   308.43225      1595.6173     -37810.48      -37475.827    
     68100   315.8145       15973.524     -37817.229     -37474.566    
     68200   307.31897      7781.621      -37812.872     -37479.427    
     68300   300.23346      4520.2596     -37798.321     -37472.563    
     68400   310.91531     -5917.0447     -37774.416     -37437.068    
     68500   319.45013      12377.576     -37767.477     -37420.869    
     68600   297.05543     -12435.185     -37770.084     -37447.775    
     68700   300.04513      16910.334     -37791.159     -37465.605    
     68800   294.01675      88.916554     -37790.497     -37471.484    
     68900   310.0802      -1569.7138     -37807.125     -37470.683    
     69000   292.69723      14203.456     -37812.893     -37495.312    
     69100   272.37282      9107.5158     -37811.614     -37516.085    
     69200   305.51383      5446.2786     -37831.856     -37500.369    
     69300   328.31022      3544.6496     -37838.029     -37481.807    
     69400   290.97953     -1560.5312     -37795.481     -37479.764    
     69500   289.23643      430.12447     -37789.836     -37476.011    
     69600   290.89295      4723.0766     -37770.727     -37455.103    
     69700   321.16075      3635.3085     -37784.468     -37436.004    
     69800   296.29145     -16745.845     -37788.378     -37466.898    
     69900   320.50805     -9638.9008     -37836.441     -37488.685    
     70000   284.71897     -4538.6243     -37803.03      -37494.106    
     70100   320.57477      6244.5963     -37825.893     -37478.065    
     70200   315.74239     -3353.6538     -37802.047     -37459.461    
     70300   315.05251     -254.40162     -37797.601     -37455.764    
     70400   276.36678      318.23275     -37768.225     -37468.363    
     70500   303.29646      10380.569     -37818.95      -37489.869    
     70600   283.06155      9244.2491     -37806.778     -37499.652    
     70700   312.62194      10243.394     -37818.083     -37478.883    
     70800   321.43775      2165.1276     -37802.221     -37453.456    
     70900   339.86721      4892.0674     -37829.665     -37460.904    
     71000   312.06344      1826.4881     -37816.24      -37477.646    
     71100   278.90808      5714.1041     -37794.474     -37491.855    
     71200   288.68472     -281.32546     -37800.12      -37486.892    
     71300   288.72603      1107.009      -37800.422     -37487.15     
     71400   287.43719      5800.5924     -37796.082     -37484.209    
     71500   332.29352      6968.7863     -37801.049     -37440.506    
     71600   323.97748      4013.9793     -37796.475     -37444.955    
     71700   335.47164      11812.824     -37834.807     -37470.816    
     71800   308.72461     -7016.7867     -37819.49      -37484.519    
     71900   304.33286      9471.9149     -37818.407     -37488.202    
     72000   292.5064       5391.2454     -37802.072     -37484.698    
     72100   315.89089     -701.59445     -37798.9       -37456.154    
     72200   301.29679      1602.5212     -37768.503     -37441.592    
     72300   300.23295     -3988.0914     -37793.062     -37467.305    
     72400   284.1929      -5839.3675     -37795.591     -37487.238    
     72500   312.02983      4307.6698     -37823.46      -37484.903    
     72600   312.11188      8571.2722     -37810.72      -37472.074    
     72700   321.55052      18352.594     -37807.351     -37458.464    
     72800   324.7217       4371.5175     -37808.172     -37455.845    
     72900   279.74123      12300.653     -37784.468     -37480.945    
     73000   284.27457     -18378.76      -37801.363     -37492.921    
     73100   298.48175     -4861.1518     -37808.934     -37485.076    
     73200   297.79986      1388.4194     -37775.866     -37452.749    
     73300   318.28558      3590.0324     -37795.876     -37450.531    
     73400   289.65892      1312.345      -37785.899     -37471.615    
     73500   313.77423      10357.18      -37818.177     -37477.727    
     73600   314.53351     -7969.4698     -37821.267     -37479.993    
     73700   302.91695     -8880.9183     -37816.894     -37488.225    
     73800   290.87253      372.62062     -37815.15      -37499.549    
     73900   293.09447      2698.4658     -37823.686     -37505.674    
     74000   287.3793       11133.394     -37802.393     -37490.582    
     74100   307.40798     -7988.5313     -37792.157     -37458.614    
     74200   300.68542     -6385.6637     -37785.367     -37459.118    
     74300   298.3998       968.21805     -37795.567     -37471.799    
     74400   297.3445      -8691.1189     -37826.222     -37503.599    
     74500   283.79251      8374.4777     -37822.457     -37514.538    
     74600   277.956        5694.9608     -37802.317     -37500.731    
     74700   300.89807      2476.1996     -37810.814     -37484.335    
     74800   285.14876     -11357.123     -37781.72      -37472.329    
     74900   286.05579     -6621.2599     -37780.563     -37470.188    
     75000   283.74347     -2038.2589     -37801.253     -37493.387    
     75100   279.7256      -9333.4363     -37819.554     -37516.047    
     75200   313.27742      3104.2554     -37837.003     -37497.092    
     75300   309.25718      4944.2351     -37814.54      -37478.992    
     75400   289.48438      7572.4077     -37789.098     -37475.003    
     75500   329.98008      5391.3168     -37822.531     -37464.497    
     75600   283.27601      4300.9095     -37787.857     -37480.498    
     75700   274.24664      4358.4976     -37815.146     -37517.585    
     75800   277.3986       5485.166      -37815.029     -37514.048    
     75900   304.79783     -1139.027      -37825.472     -37494.761    
     76000   310.25283     -8313.7514     -37814.862     -37478.233    
     76100   308.63389     -7524.1093     -37803.794     -37468.922    
     76200   304.50602     -7642.4914     -37806.069     -37475.675    
     76300   284.32306     -8093.5384     -37816.922     -37508.428    
     76400   265.9863      -4027.6549     -37809.23      -37520.631    
     76500   318.48795      1890.8709     -37828.571     -37483.007    
     76600   299.43817     -3985.513      -37795.404     -37470.51     
     76700   329.10445      9004.9316     -37835.903     -37478.819    
     76800   286.24253      10355.668     -37801.436     -37490.859    
     76900   289.14078      8554.9018     -37809.875     -37496.153    
     77000   286.5527       4723.5427     -37789.893     -37478.979    
     77100   308.43886     -3437.4351     -37788.624     -37453.964    
     77200   289.03529      10717.097     -37776.89      -37463.282    
     77300   295.88711      15400.088     -37802.686     -37481.644    
     77400   299.89056      16966.766     -37810.903     -37485.517    
     77500   295.05241      7269.063      -37803.392     -37483.256    
     77600   310.9444       9770.2762     -37822.084     -37484.705    
     77700   283.59961      5693.6935     -37792.787     -37485.077    
     77800   290.30031     -1670.0846     -37794.457     -37479.476    
     77900   302.99461      1844.5367     -37785.821     -37457.067    
     78000   319.98836      1201.2897     -37787.661     -37440.469    
     78100   317.3349       6.6266894     -37809         -37464.687    
     78200   296.06018     -1953.5247     -37814.504     -37493.275    
     78300   258.6618      -18784.096     -37766.798     -37486.147    
     78400   297.34843     -10966.285     -37787.822     -37465.195    
     78500   310.26903      9289.3107     -37794.254     -37457.607    
     78600   288.121        2677.3875     -37778.518     -37465.902    
     78700   299.0594       6080.744      -37821.821     -37497.337    
     78800   290.74015     -8029.4953     -37824.28      -37508.823    
     78900   299.20786     -18095.77      -37814.399     -37489.754    
     79000   312.40755     -7449.7818     -37802.523     -37463.556    
     79100   303.25743      7967.5837     -37789.312     -37460.273    
     79200   303.8161       4707.5253     -37802.042     -37472.397    
     79300   300.59584      18874.576     -37812.851     -37486.7      
     79400   302.81917     -527.41557     -37828.227     -37499.663    
     79500   300.44346     -14348.272     -37830.521     -37504.535    
     79600   303.26333      5020.128      -37821.479     -37492.434    
     79700   315.70649      3951.9227     -37805.497     -37462.95     
     79800   313.57566      21237.538     -37797.385     -37457.151    
     79900   306.35492      12949.405     -37802.844     -37470.444    
     80000   285.0354       6882.9762     -37815.618     -37506.35     
     80100   297.14224     -347.10589     -37825.397     -37502.994    
     80200   285.2912      -444.22266     -37802.557     -37493.012    
     80300   325.02063      5350.8013     -37826.105     -37473.453    
     80400   330.933        8698.4861     -37823.336     -37464.269    
     80500   315.55066      3097.026      -37814.992     -37472.615    
     80600   288.88231      952.33636     -37811.909     -37498.467    
     80700   283.06714     -3175.1731     -37810.602     -37503.47     
     80800   291.6973      -1834.7897     -37804.239     -37487.743    
     80900   303.95394      6974.208      -37794.352     -37464.558    
     81000   313.46209      6386.8796     -37805.129     -37465.018    
     81100   300.45208      1649.9291     -37827.895     -37501.9      
     81200   287.58201     -7272.3606     -37829.119     -37517.088    
     81300   290.29682     -1266.6135     -37812.075     -37497.099    
     81400   292.71627     -12279.27      -37798.044     -37480.443    
     81500   301.35024      10285.593     -37799.745     -37472.776    
     81600   286.78198     -1220.6447     -37781.297     -37470.135    
     81700   301.9753       16651.809     -37822.574     -37494.926    
     81800   303.88274     -8690.832      -37840.361     -37510.644    
     81900   291.78195      4298.6642     -37820.817     -37504.229    
     82000   284.20637     -362.22734     -37779.388     -37471.019    
     82100   302.70797     -1523.0502     -37786.401     -37457.959    
     82200   302.27523     -757.33689     -37797.573     -37469.6      
     82300   293.96468      4165.294      -37802.448     -37483.492    
     82400   310.70252     -226.5279      -37839.546     -37502.429    
     82500   262.27825      1177.7889     -37816.678     -37532.102    
     82600   278.6678       675.36556     -37820.228     -37517.869    
     82700   293.01327      5105.5941     -37812.029     -37494.105    
     82800   297.58227     -4152.3433     -37808.678     -37485.797    
     82900   308.50087     -6315.5688     -37817.208     -37482.48     
     83000   307.87969      5385.9048     -37814.716     -37480.662    
     83100   322.86266      1346.6186     -37818.582     -37468.272    
     83200   297.66515      11971.596     -37777.339     -37454.368    
     83300   306.22548      23527.66      -37801.712     -37469.453    
     83400   274.5066       11576.985     -37798.078     -37500.234    
     83500   309.02324     -472.45163     -37838.951     -37503.656    
     83600   295.41919      3202.449      -37812.42      -37491.886    
     83700   313.0114      -1479.9775     -37801.918     -37462.296    
     83800   297.04695      2702.3393     -37755.405     -37433.104    
     83900   330.83629      622.40968     -37785.526     -37426.564    
     84000   290.89901     -3900.3618     -37789.144     -37473.515    
     84100   288.81227      4084.4884     -37814.852     -37501.487    
     84200   295.06179      5057.3899     -37825.431     -37505.285    
     84300   285.03809      5803.603      -37793.342     -37484.071    
     84400   304.93565     -3012.2852     -37793.741     -37462.881    
     84500   295.54397      6230.2043     -37784.243     -37463.574    
     84600   301.46416      2469.7394     -37809.897     -37482.804    
     84700   299.07301      505.90433     -37837.054     -37512.555    
     84800   293.53898      16970.037     -37829.398     -37510.904    
     84900   313.4273       12338.924     -37831.684     -37491.61     
     85000   288.35507      8404.5276     -37791.867     -37478.998    
     85100   312.88233      10830.943     -37811.169     -37471.687    
     85200   303.38648     -944.96576     -37805.345     -37476.166    
     85300   308.89641     -11446.168     -37817.744     -37482.587    
     85400   292.78599     -2583.8062     -37812.607     -37494.93     
     85500   280.7847      -429.74529     -37817.741     -37513.085    
     85600   292.26929      6385.1262     -37821.883     -37504.767    
     85700   330.6923       1318.5211     -37832.061     -37473.255    
     85800   301.58724      4870.2        -37793.467     -37466.24     
     85900   281.2152       4010.7284     -37781.315     -37476.192    
     86000   300.12901     -5426.7373     -37816.436     -37490.792    
     86100   280.85952     -137.76097     -37825.712     -37520.975    
     86200   297.69227      8239.2214     -37848.984     -37525.983    
     86300   292.28766     -4425.3001     -37809.417     -37492.28     
     86400   299.11861     -15280.401     -37799.026     -37474.478    
     86500   301.35525      8093.7716     -37798.185     -37471.21     
     86600   294.3658      -6826.4142     -37804.754     -37485.363    
     86700   270.2855      -7570.5673     -37792.264     -37499        
     86800   276.93511      3762.5917     -37804.183     -37503.704    
     86900   290.59532     -5030.562      -37800.499     -37485.199    
     87000   324.80729      9954.3986     -37813.909     -37461.488    
     87100   299.86658      9140.8426     -37789.262     -37463.903    
     87200   285.64342     -424.20536     -37796.644     -37486.716    
     87300   260.2228       8955.0781     -37800.831     -37518.485    
     87400   275.83549      7844.6405     -37812.68      -37513.395    
     87500   289.57893      19403.188     -37812.003     -37497.805    
     87600   311.72359      1997.9997     -37821.465     -37483.241    
     87700   307.57984     -2583.1201     -37807.567     -37473.839    
     87800   301.36407     -4269.023      -37782.918     -37455.933    
     87900   333.08336      1734.4236     -37785.069     -37423.668    
     88000   302.01488     -13741.685     -37773.297     -37445.606    
     88100   299.55076      3085.5075     -37796.22      -37471.203    
     88200   285.31251      15834.835     -37790.582     -37481.014    
     88300   285.59947      9144.0897     -37793.281     -37483.401    
     88400   319.78019      8857.1167     -37822.784     -37475.818    
     88500   311.20849      8047.7521     -37809.287     -37471.622    
     88600   317.47873     -2438.8958     -37809.494     -37465.025    
     88700   325.44766     -2551.9446     -37808.352     -37455.236    
     88800   285.42676      3595.698      -37785.709     -37476.017    
     88900   288.05548      5305.2483     -37814.537     -37501.992    
     89000   286.11196     -8203.5737     -37812.646     -37502.21     
     89100   295.3303      -1898.5107     -37803.261     -37482.823    
     89200   312.29912     -1748.6493     -37794.078     -37455.229    
     89300   319.78291     -4756.0652     -37800.729     -37453.759    
     89400   303.14612      8681.2893     -37795.688     -37466.77     
     89500   299.82223      15340.969     -37806.969     -37481.657    
     89600   301.61853     -3862.3191     -37823.769     -37496.508    
     89700   285.1199       5907.8458     -37818.835     -37509.476    
     89800   282.48197      5536.1035     -37816.704     -37510.206    
     89900   288.21997      7528.6255     -37790.47      -37477.747    
     90000   300.27783     -5938.9746     -37786.92      -37461.114    
     90100   310.81838      238.05965     -37802.568     -37465.325    
     90200   292.40842      741.67911     -37812.575     -37495.308    
     90300   290.16707     -4450.039      -37821.717     -37506.881    
     90400   289.10615      4863.1629     -37809.743     -37496.059    
     90500   296.31502      17563.533     -37801.554     -37480.047    
     90600   287.31438      2058.379      -37782.708     -37470.967    
     90700   300.02845      5469.4601     -37794.169     -37468.634    
     90800   293.64232      2025.339      -37804.109     -37485.503    
     90900   275.9989       1605.1292     -37821.524     -37522.061    
     91000   297.58395      1513.8556     -37835.146     -37512.263    
     91100   291.61909      5422.559      -37805.037     -37488.626    
     91200   295.42311      4299.6642     -37797.589     -37477.05     
     91300   303.48298     -1162.2391     -37796.924     -37467.64     
     91400   298.68637      21416.464     -37792.282     -37468.203    
     91500   283.94071      957.46771     -37802.014     -37493.934    
     91600   291.10838      15522.035     -37828.127     -37512.27     
     91700   312.15149      9001.3772     -37835         -37496.311    
     91800   306.4919      -1547.6241     -37801.103     -37468.555    
     91900   305.2902       841.94379     -37791.707     -37460.462    
     92000   275.93653      9484.3468     -37767.953     -37468.558    
     92100   306.14554     -4619.7238     -37812.574     -37480.402    
     92200   298.38844     -6150.0523     -37821.009     -37497.253    
     92300   287.78624      10392.509     -37826.037     -37513.784    
     92400   268.82163     -305.4629      -37827.886     -37536.211    
     92500   286.95439      11401.468     -37830.894     -37519.544    
     92600   286.06361      9396.428      -37796.897     -37486.514    
     92700   313.01377      1365.8012     -37808.546     -37468.921    
     92800   295.48137      6520.3841     -37782.973     -37462.371    
     92900   309.62914     -7787.1111     -37817.186     -37481.233    
     93000   295.76575      5817.0659     -37828.091     -37507.181    
     93100   301.21252      1043.7058     -37830.084     -37503.264    
     93200   303.70508     -11246.965     -37817.075     -37487.55     
     93300   299.64319      3746.9712     -37808.592     -37483.474    
     93400   289.12447      3695.6044     -37793.774     -37480.069    
     93500   288.52996      9777.7597     -37783.197     -37470.137    
     93600   324.79953     -197.54181     -37795.773     -37443.361    
     93700   320.05122     -3310.9167     -37794.93      -37447.669    
     93800   295.33266      8027.2258     -37811.661     -37491.221    
     93900   298.9281       581.69322     -37826.168     -37501.827    
     94000   279.90362      6423.2001     -37800.037     -37496.337    
     94100   296.68164     -6956.2393     -37795.849     -37473.945    
     94200   299.36536      3154.4131     -37775.632     -37450.817    
     94300   298.58542     -7013.6521     -37782.926     -37458.956    
     94400   289.60327      7703.1063     -37795.73      -37481.506    
     94500   298.58442      10825.489     -37809.477     -37485.509    
     94600   320.91709      14256.428     -37833.056     -37484.856    
     94700   290.98145     -4154.8668     -37810.196     -37494.476    
     94800   298.72781     -3941.1523     -37814.857     -37490.733    
     94900   299.26157     -5625.7758     -37786.065     -37461.362    
     95000   297.47186     -20036.43      -37772.673     -37449.911    
     95100   290.02461      4359.6934     -37783.177     -37468.496    
     95200   300.12867      9935.9219     -37826.103     -37500.459    
     95300   291.33509      8809.7461     -37833.325     -37517.222    
     95400   273.68086     -6075.5598     -37803.618     -37506.67     
     95500   302.83249      1416.1565     -37809.228     -37480.65     
     95600   293.91679     -3504.8536     -37789.551     -37470.647    
     95700   292.02414     -15783.968     -37787.428     -37470.578    
     95800   280.84964      8597.2682     -37790.061     -37485.335    
     95900   306.28282      2221.3926     -37830.891     -37498.569    
     96000   289.30638      2579.5176     -37821.746     -37507.845    
     96100   313.34896      3931.0724     -37834.237     -37494.249    
     96200   299.69548      1638.3691     -37787.666     -37462.492    
     96300   299.87561      8164.9847     -37782.056     -37456.687    
     96400   294.97579     -8860.5482     -37794.969     -37474.916    
     96500   306.14276     -7675.6666     -37826.138     -37493.969    
     96600   304.53338      9354.2706     -37824.885     -37494.461    
     96700   312.62736      1334.789      -37829.275     -37490.07     
     96800   294.09283      1551.5057     -37802.205     -37483.11     
     96900   328.76837      5019.7457     -37816.127     -37459.409    
     97000   321.04835      5180.9198     -37796.696     -37448.354    
     97100   289.6452      -557.80046     -37797.996     -37483.727    
     97200   268.66364      10915.135     -37795.936     -37504.432    
     97300   294.4109       4131.5743     -37813.94      -37494.5      
     97400   307.15266      1918.4216     -37808.03      -37474.764    
     97500   322.54117      3974.5772     -37814.451     -37464.489    
     97600   288.64966      1779.3304     -37784.98      -37471.791    
[...]
    174500   291.47738      4579.909      -37807.776     -37491.519    
    174600   316.17668     -4575.9537     -37830.004     -37486.948    
    174700   303.65478      35.686129     -37813.426     -37483.956    
    174800   313.39938     -6549.1984     -37803.29      -37463.247    
    174900   325.83443     -3669.0223     -37800.268     -37446.732    
    175000   285.89807      4562.2855     -37796.51      -37486.306    
    175100   288.20623      11146.785     -37813.055     -37500.347    
    175200   278.77748      7860.9169     -37799.404     -37496.927    
    175300   312.6319       7845.5008     -37809.617     -37470.406    
    175400   327.3917       15008.542     -37818.996     -37463.771    
    175500   314.65339      4957.5447     -37818.318     -37476.914    
    175600   302.66062     -2631.325      -37813.185     -37484.793    
    175700   292.98114     -2098.0188     -37800.261     -37482.373    
    175800   295.27176     -11696.651     -37790.244     -37469.87     
    175900   284.3229      -6974.5181     -37775.863     -37467.369    
    176000   282.48661     -1536.356      -37797.714     -37491.211    
    176100   292.0043      -8303.7565     -37827.394     -37510.565    
    176200   299.67238     -8328.4487     -37826.815     -37501.666    
    176300   314.40422      6448.6612     -37818.526     -37477.393    
    176400   301.3263       8283.1321     -37798.982     -37472.039    
    176500   315.86899      6096.6628     -37814.151     -37471.428    
    176600   302.32857      8760.9769     -37813.24      -37485.209    
    176700   281.86088      5560.2106     -37807.917     -37502.094    
    176800   273.98966      7312.3706     -37817.57      -37520.287    
    176900   283.72843      16305.269     -37825.988     -37518.139    
    177000   306.78642     -3716.934      -37811.095     -37478.228    
    177100   323.55425     -5021.2056     -37815.568     -37464.507    
    177200   324.93305      5156.4145     -37818.194     -37465.636    
    177300   304.11632      391.90345     -37824.108     -37494.137    
    177400   294.75158      2498.8958     -37822.789     -37502.979    
    177500   294.97783      7753.0829     -37807.964     -37487.909    
    177600   287.86144      11315.367     -37788.641     -37476.307    
    177700   301.13217      12807.474     -37800.804     -37474.071    
    177800   312.97893      6540.218      -37818.902     -37479.315    
    177900   303.77417     -5053.7529     -37819.48      -37489.88     
    178000   300.02805      8928.7884     -37827.326     -37501.791    
    178100   303.39957      10254.104     -37846.765     -37517.572    
    178200   288.50228     -1518.7847     -37825.09      -37512.061    
    178300   308.4728       57.204719     -37812.195     -37477.498    
    178400   295.8445      -7734.9532     -37788.115     -37467.12     
    178500   293.06865     -6519.1668     -37788.787     -37470.803    
    178600   305.13952      14966.377     -37819.293     -37488.212    
    178700   275.05043      11605.866     -37818.473     -37520.039    
    178800   293.04764      8767.0622     -37833.783     -37515.822    
    178900   310.2476       18354.141     -37828.005     -37491.382    
    179000   298.48535      2887.5136     -37804.27      -37480.409    
    179100   305.9888      -4462.7018     -37804.381     -37472.378    
    179200   298.89057      6849.3126     -37790.099     -37465.799    
    179300   312.91776     -6989.4323     -37795.92      -37456.399    
    179400   304.05177      8863.1017     -37789.533     -37459.632    
    179500   307.6768       3871.7098     -37821.287     -37487.453    
    179600   297.31635      4935.5367     -37827.094     -37504.502    
    179700   285.82754      2985.7333     -37807.786     -37497.659    
    179800   312.03619      6122.9834     -37806.652     -37468.088    
    179900   298.15027      7826.9868     -37794.183     -37470.686    
    180000   291.1178       7973.9041     -37797.06      -37481.193    
    180100   306.37212     -8377.6696     -37817.279     -37484.86     
    180200   307.59139     -12428.643     -37820.814     -37487.072    
    180300   288.59741      259.82095     -37811.479     -37498.346    
    180400   271.14023     -103.46979     -37795.057     -37500.866    
    180500   298.42419      8262.2053     -37801.181     -37477.387    
    180600   302.96514      3498.2764     -37788.125     -37459.404    
    180700   298.28424     -1867.0062     -37786.132     -37462.489    
    180800   269.21939      6797.4294     -37788.522     -37496.415    
    180900   306.80288     -2695.432      -37845.338     -37512.452    
    181000   306.41501     -3313.897      -37839.194     -37506.729    
    181100   307.59772      771.56501     -37821.48      -37487.731    
    181200   323.08556     -814.17361     -37807.812     -37457.259    
    181300   292.02571      7087.2676     -37770.302     -37453.45     
    181400   298.88468      5032.462      -37789.473     -37465.178    
    181500   298.73043      4452.1879     -37804.666     -37480.539    
    181600   275.31965      16652.674     -37798.588     -37499.862    
    181700   276.12409      5579.5055     -37797.504     -37497.906    
    181800   308.49857      16362.581     -37790.008     -37455.283    
    181900   324.9756       3177.0207     -37808.925     -37456.322    
    182000   301.42288      12050.739     -37809.04      -37481.992    
    182100   296.30544      6659.5997     -37816.074     -37494.578    
    182200   308.24734      5949.3302     -37825.498     -37491.045    
    182300   308.59589     -2810.9281     -37814.173     -37479.342    
    182400   308.43586     -2587.2235     -37780.584     -37445.927    
    182500   317.77589      8311.5728     -37784.181     -37439.39     
    182600   298.07882     -3813.1125     -37791.575     -37468.155    
    182700   289.83209     -3497.2159     -37799.674     -37485.202    
    182800   293.89569     -11200.731     -37806.929     -37488.048    
    182900   291.37685      4707.1077     -37795.8       -37479.652    
    183000   318.46419      4849.7086     -37790.231     -37444.693    
    183100   337.4846       1632.7818     -37800.703     -37434.528    
    183200   324.7392       7559.5923     -37804.841     -37452.494    
    183300   301.8976       6388.9475     -37803.093     -37475.53     
    183400   298.12733      10469.134     -37816.06      -37492.587    
    183500   299.41131      1525.093      -37814.427     -37489.561    
    183600   294.08748      13386.304     -37790.194     -37471.104    
    183700   312.4488       197.932       -37782.657     -37443.646    
    183800   339.5925       240.54978     -37802.701     -37434.238    
    183900   317.5853      -1543.7783     -37820.106     -37475.521    
    184000   295.78094      6490.0609     -37810.941     -37490.015    
    184100   294.49035      8222.9532     -37809.389     -37489.863    
    184200   298.84669      15361.769     -37799.062     -37474.809    
    184300   303.30992     -3837.9038     -37786.823     -37457.727    
    184400   306.19506      647.17199     -37809.024     -37476.797    
    184500   272.97846     -5288.4763     -37800.791     -37504.606    
    184600   282.24911      11598.094     -37808.391     -37502.146    
    184700   292.09571      3572.2084     -37802.351     -37485.423    
    184800   321.39372      9797.2192     -37805.613     -37456.896    
    184900   313.95069     -3588.8085     -37786.535     -37445.894    
    185000   315.72372      10369.427     -37800.806     -37458.241    
    185100   298.59662      9256.2885     -37795.285     -37471.304    
    185200   291.40102      14555.679     -37804.028     -37487.853    
    185300   291.18177      3795.7314     -37812.084     -37496.147    
    185400   283.15059      3061.7554     -37802.002     -37494.78     
    185500   298.44987      3659.8148     -37801.012     -37477.189    
    185600   308.73382     -1928.2337     -37789.996     -37455.015    
    185700   299.47808     -8868.2304     -37787.604     -37462.666    
    185800   276.96222     -3463.0097     -37789.64      -37489.132    
    185900   305.72024      1696.1722     -37822.422     -37490.711    
    186000   298.39313     -13486.071     -37814.385     -37490.624    
    186100   306.3417      -562.65349     -37824.902     -37492.517    
    186200   295.0753       3651.2686     -37811.77      -37491.609    
    186300   307.84666      434.25313     -37814.314     -37480.296    
    186400   324.81739      21507.738     -37791.397     -37438.965    
    186500   307.56857      16987.434     -37776.56      -37442.843    
    186600   305.26713      11082.744     -37800.042     -37468.823    
    186700   315.36091      8810.1875     -37822.136     -37479.965    
    186800   261.56938      5081.158      -37771.573     -37487.766    
    186900   297.90333      13387.723     -37807.044     -37483.815    
    187000   291.15631      11729.162     -37780.468     -37464.559    
    187100   311.37814      3509.5046     -37783.632     -37445.782    
    187200   298.03842      14358.585     -37787.781     -37464.405    
    187300   280.69202      670.67122     -37794.033     -37489.478    
    187400   293.30179      5706.3214     -37806.603     -37488.366    
    187500   306.12976     -5712.7249     -37808.62      -37476.465    
    187600   315.45088      6921.7577     -37809.613     -37467.344    
    187700   319.34576     -6532.5276     -37785.766     -37439.271    
    187800   326.56853      6233.3486     -37792.205     -37437.874    
    187900   310.11877      9966.6577     -37807.829     -37471.346    
    188000   305.70242      2166.1563     -37818.092     -37486.401    
    188100   298.53759      4559.2154     -37806.189     -37482.271    
    188200   309.60299      2128.6458     -37805.729     -37469.806    
    188300   318.33334      2303.9244     -37795.487     -37450.09     
    188400   333.16291      9192.4418     -37814         -37452.513    
    188500   295.24336      2035.5407     -37804.33      -37483.987    
    188600   275.32594      4761.1489     -37791.171     -37492.438    
    188700   310.33026      5055.202      -37817.583     -37480.871    
    188800   319.65517      7390.8551     -37802.935     -37456.105    
    188900   320.35111     -2183.6193     -37771.776     -37424.191    
    189000   310.23597      4127.4469     -37773.027     -37436.416    
    189100   303.68486     -1149.6915     -37807.472     -37477.97     
    189200   311.56392      8689.9807     -37826.492     -37488.441    
    189300   298.28205      10581.3       -37813.353     -37489.712    
    189400   316.77244      3806.3628     -37814.25      -37470.547    
    189500   337.9904       3807.3146     -37821.12      -37454.395    
    189600   283.84892      2836.9625     -37782.338     -37474.358    
    189700   279.11097     -6812.2281     -37807.391     -37504.552    
    189800   296.73306      7658.303      -37820.228     -37498.269    
    189900   288.05361      4722.3649     -37800.473     -37487.931    
    190000   297.03994      548.75973     -37789.063     -37466.77     
    190100   290.52013      6221.8382     -37751.418     -37436.2      
    190200   284.10854     -6872.2285     -37759.371     -37451.109    
    190300   288.11105      15635.979     -37777.315     -37464.71     
    190400   304.07001      762.03395     -37806.901     -37476.98     
    190500   312.81726      4853.1052     -37836.696     -37497.284    
    190600   295.48514     -4818.3965     -37822.063     -37501.457    
    190700   307.23099      10677.551     -37811.348     -37477.998    
    190800   311.27936     -3828.897      -37776.032     -37438.289    
    190900   307.39935      21880.302     -37784.958     -37451.426    
    191000   308.79532      5582.298      -37811.739     -37476.691    
    191100   283.76152      5937.787      -37798.685     -37490.8      
    191200   295.73307      6860.7187     -37817.396     -37496.521    
    191300   293.05633     -789.85965     -37791.186     -37473.216    
    191400   299.79373     -1815.9369     -37769.017     -37443.736    
    191500   303.75988      13548.375     -37788.195     -37458.611    
    191600   314.20954      6715.1151     -37825.533     -37484.611    
    191700   307.83405      5398.306      -37827.91      -37493.905    
    191800   292.27409      8150.4441     -37810.415     -37493.293    
    191900   313.58925      12020.55      -37810.449     -37470.2      
    192000   306.80551      305.86541     -37774.521     -37441.632    
    192100   299.52486      19770.699     -37779.528     -37454.539    
    192200   287.20456      2291.1279     -37804.014     -37492.392    
    192300   292.64455      1080.8018     -37810.089     -37492.565    
    192400   328.72818      3515.0554     -37848.85      -37492.175    
    192500   310.96548      3746.0806     -37825.707     -37488.305    
    192600   316.94571     -6483.7116     -37814.166     -37470.275    
    192700   336.92237      10891.867     -37811.256     -37445.691    
    192800   300.88264      12670.434     -37776.997     -37450.535    
    192900   293.40223     -294.94036     -37807.257     -37488.911    
    193000   271.67706     -3987.6501     -37786.11      -37491.336    
    193100   294.87269      10346.857     -37798.074     -37478.133    
    193200   299.68834      260.96009     -37795.805     -37470.639    
    193300   288.34241      24776.334     -37772.395     -37459.54     
    193400   300.96395      10894.452     -37777.32      -37450.77     
    193500   305.67981      5690.106      -37808.849     -37477.182    
    193600   289.91522      6093.7542     -37812.374     -37497.812    
    193700   307.31471      1768.7132     -37837.176     -37503.735    
    193800   312.09897      8304.3594     -37828.935     -37490.303    
    193900   316.95194     -46.312566     -37792.966     -37449.068    
    194000   323.56565     -1179.841      -37800.96      -37449.886    
    194100   302.94513      762.72119     -37803.953     -37475.253    
    194200   277.41022      4025.8515     -37788.391     -37487.397    
    194300   272.16458      10232.993     -37787.545     -37492.242    
    194400   299.32523     -272.17998     -37809.303     -37484.531    
    194500   316.78095      826.78204     -37788.149     -37444.437    
    194600   343.99733      961.21617     -37808.515     -37435.273    
    194700   319.05493     -4435.3216     -37807.369     -37461.189    
    194800   307.86329      20804.073     -37814.033     -37479.996    
    194900   313.84977      10076.885     -37829.139     -37488.607    
    195000   272.51408     -3202.9373     -37795.191     -37499.509    
    195100   288.61478     -8515.6554     -37811.101     -37497.95     
    195200   314.39107      7617.6113     -37804.69      -37463.571    
    195300   300.55318      9568.1599     -37779.425     -37453.32     
    195400   297.10516      11496.748     -37789.62      -37467.257    
    195500   290.23004     -3377.9303     -37810.54      -37495.636    
    195600   299.96562      2994.4369     -37834.971     -37509.504    
    195700   279.04273      5122.2904     -37800.231     -37497.466    
    195800   291.38735      16989.288     -37797.878     -37481.719    
    195900   309.18951      5601.4296     -37808.011     -37472.536    
    196000   303.87714      13180.365     -37799.661     -37469.95     
    196100   305.5894       11239.332     -37828.858     -37497.289    
    196200   271.59795     -11458.481     -37813.399     -37518.712    
    196300   297.75279      1473.3534     -37831.834     -37508.768    
    196400   285.82298      5541.5939     -37791.756     -37481.634    
    196500   300.01249     -2364.4683     -37795.909     -37470.391    
    196600   299.24978      10014.351     -37799.589     -37474.899    
    196700   293.69544      10185.918     -37803.962     -37485.298    
    196800   298.7882      -783.15505     -37839.806     -37515.616    
    196900   299.46452      16271.456     -37857.194     -37532.271    
    197000   277.22673     -4082.9418     -37815.127     -37514.332    
    197100   281.53299     -985.99138     -37797.961     -37492.494    
    197200   305.65913      16857.14      -37820.958     -37489.314    
    197300   310.74313      1096.4165     -37812.605     -37475.444    
    197400   315.93967     -2332.9392     -37805.83      -37463.031    
    197500   303.25982      7776.0619     -37799.605     -37470.564    
    197600   279.03456      3547.1651     -37808.937     -37506.18     
    197700   283.2032       15197.971     -37824.41      -37517.13     
    197800   304.23935      6375.7461     -37824.262     -37494.158    
    197900   315.16112      3550.5811     -37823.262     -37481.308    
    198000   313.15085     -3826.8652     -37823.86      -37484.086    
    198100   305.35355      7926.7151     -37825.895     -37494.582    
    198200   300.38434     -4315.5667     -37840.493     -37514.572    
    198300   263.16533      2228.6999     -37818.342     -37532.803    
    198400   285.11408     -192.03196     -37815.725     -37506.372    
    198500   300.52716     -3118.3186     -37806.169     -37480.092    
    198600   310.09501     -1706.5483     -37814.174     -37477.716    
    198700   310.80469      5046.6443     -37819.239     -37482.011    
    198800   288.39225     -675.36976     -37813.209     -37500.299    
    198900   284.3588       7746.8719     -37836.482     -37527.949    
    199000   290.50644      16617.005     -37839.746     -37524.543    
    199100   303.81051      482.58487     -37816.178     -37486.539    
    199200   281.91511     -295.73093     -37787.903     -37482.021    
    199300   285.49923      4741.0808     -37794.176     -37484.406    
    199400   289.87097      9339.3721     -37796.698     -37482.184    
    199500   305.63851      13592.004     -37804.368     -37472.745    
    199600   316.87693      1857.1313     -37815.085     -37471.269    
    199700   308.83281      1859.8736     -37826.91      -37491.822    
    199800   291.8757       4506.8622     -37822.64      -37505.95     
    199900   309.99737     -108.4088      -37818.194     -37481.842    
    200000   313.73092     -3711.8441     -37799.655     -37459.252    
Loop time of 17612.1 on 8 procs for 200000 steps with 365 atoms

Performance: 0.491 ns/day, 48.923 hours/ns, 11.356 timesteps/s, 4.145 katom-step/s
84.9% CPU use with 4 MPI tasks x 2 OpenMP threads

MPI task timing breakdown:
Section |  min time  |  avg time  |  max time  |%varavg| %total
---------------------------------------------------------------
Pair    | 10892      | 11070      | 11196      | 106.3 | 62.85
Bond    | 0.65616    | 0.71043    | 0.74052    |   3.9 |  0.00
Neigh   | 145.32     | 147.18     | 151.21     |  19.7 |  0.84
Comm    | 3744.8     | 3870.9     | 4051.4     | 180.8 | 21.98
Output  | 4.8898     | 6.6354     | 9.1486     |  70.9 |  0.04
Modify  | 2482.9     | 2487       | 2492.7     |   7.3 | 14.12
Other   |            | 30.1       |            |       |  0.17

Nlocal:          91.25 ave          99 max          80 min
Histogram: 1 0 0 0 0 1 0 0 1 1
Nghost:        4077.25 ave        4113 max        4057 min
Histogram: 1 1 1 0 0 0 0 0 0 1
Neighs:        58180.5 ave       62543 max       51478 min
Histogram: 1 0 0 0 0 1 0 0 1 1

Total # of neighbors = 232722
Ave neighs/atom = 637.59452
Ave special neighs/atom = 0
Neighbor list builds = 3239
Dangerous builds = 0
# Save the equilibrated structure
write_data ${structure}_eq.data
write_data 333U-50C-33_eq.data
System init for write_data ...
WARNING: Compute rdf cutoff less than neighbor cutoff - forcing a needless neighbor list build (src/compute_rdf.cpp:179)
undump dump_eq
unfix myMSD
unfix myRDF
Total wall time: 4:54:13
