LAMMPS (2 Aug 2023 - Update 2)
OMP_NUM_THREADS environment is not set. Defaulting to 1 thread. (src/comm.cpp:98)
  using 1 OpenMP thread(s) per MPI task
Reading data file ...
  triclinic box = (0 0 0) to (15.7087 13.0868 17.5248) with tilt (-8.2042 -0.1458 -2.0056)
WARNING: Triclinic box skew is large. LAMMPS will run inefficiently. (src/domain.cpp:220)
  1 by 1 by 1 MPI processor grid
  reading atoms ...
  331 atoms
Finding 1-2 1-3 1-4 neighbors ...
  special bond factors lj:    0        0        0       
  special bond factors coul:  0        0        0       
     0 = max # of 1-2 neighbors
     0 = max # of 1-3 neighbors
     0 = max # of 1-4 neighbors
     1 = max # of special neighbors
  special bonds CPU = 0.000 seconds
  read_data CPU = 0.005 seconds
*****Minimization starts.*****

CITE-CITE-CITE-CITE-CITE-CITE-CITE-CITE-CITE-CITE-CITE-CITE-CITE

Your simulation uses code contributions which should be cited:
- pair reaxff command: doi:10.1016/j.parco.2011.08.005
- fix qeq/reaxff command: doi:10.1016/j.parco.2011.08.005
The log file lists these citations in BibTeX format.

CITE-CITE-CITE-CITE-CITE-CITE-CITE-CITE-CITE-CITE-CITE-CITE-CITE

Switching to 'neigh_modify every 1 delay 0 check yes' setting during minimization
WARNING: Fix qeq/reaxff group is not charge neutral, net charge = 27.88 (src/REAXFF/fix_qeq_reaxff.cpp:392)
Neighbor list info ...
  update: every = 1 steps, delay = 0 steps, check = yes
  max neighbors/atom: 2000, page size: 100000
  master list distance cutoff = 12
  ghost atom cutoff = 12
  binsize = 6, bins = 5 3 3
  2 neighbor lists, perpetual/occasional/extra = 2 0 0
  (1) pair reaxff, perpetual
      attributes: half, newton off, ghost
      pair build: half/bin/newtoff/ghost
      stencil: full/ghost/bin/3d
      bin: standard
  (2) fix qeq/reaxff, perpetual, copy from (1)
      attributes: half, newton off
      pair build: copy
      stencil: none
      bin: none
Setting up cg style minimization ...
  Unit style    : real
  Current step  : 0
Per MPI rank memory allocation (min/avg/max) = 248.7 | 248.7 | 248.7 Mbytes
   Step          Temp          Press         Density         PotEng         TotEng    
         0   0              141055.58      1.400369      -34729.82      -34729.82     
        11   0              2159.4487      1.400369      -36001.794     -36001.794    
Loop time of 10.5481 on 1 procs for 11 steps with 331 atoms

22.3% CPU use with 1 MPI tasks x 1 OpenMP threads

Minimization stats:
  Stopping criterion = energy tolerance
  Energy initial, next-to-last, final = 
      -34729.819771052  -36001.7896174698  -36001.7935153421
  Force two-norm initial, final = 1956.832 350.68525
  Force max component initial, final = 221.80846 87.444818
  Final line search alpha, max atom move = 0.0015396813 0.13463715
  Iterations, force evaluations = 11 21

MPI task timing breakdown:
Section |  min time  |  avg time  |  max time  |%varavg| %total
---------------------------------------------------------------
Pair    | 8.4715     | 8.4715     | 8.4715     |   0.0 | 80.31
Bond    | 1.5727e-05 | 1.5727e-05 | 1.5727e-05 |   0.0 |  0.00
Neigh   | 0          | 0          | 0          |   0.0 |  0.00
Comm    | 0.0013698  | 0.0013698  | 0.0013698  |   0.0 |  0.01
Output  | 0          | 0          | 0          |   0.0 |  0.00
Modify  | 2.0743     | 2.0743     | 2.0743     |   0.0 | 19.67
Other   |            | 0.0008933  |            |       |  0.01

Nlocal:            331 ave         331 max         331 min
Histogram: 1 0 0 0 0 0 0 0 0 0
Nghost:           6029 ave        6029 max        6029 min
Histogram: 1 0 0 0 0 0 0 0 0 0
Neighs:         184910 ave      184910 max      184910 min
Histogram: 1 0 0 0 0 0 0 0 0 0

Total # of neighbors = 184910
Ave neighs/atom = 558.64048
Ave special neighs/atom = 0
Neighbor list builds = 0
Dangerous builds not checked
System init for write_data ...
*****Equilibration starts.*****
Setting up Verlet run ...
  Unit style    : real
  Current step  : 0
  Time step     : 0.5
Per MPI rank memory allocation (min/avg/max) = 247.1 | 247.1 | 247.1 Mbytes
   Step          Temp          Press         Density         PotEng         TotEng    
         0   300            5903.6095      1.400369      -36001.794     -35706.693    
       100   306.22753     -10817.151      1.3607323     -35975.427     -35674.201    
       200   349.80658     -4226.6282      1.349714      -36024.419     -35680.326    
       300   372.24645     -6050.3353      1.3518127     -36122.403     -35756.236    
       400   394.45577     -4151.7189      1.356049      -36236.144     -35848.131    
       500   331.61164      5328.5492      1.3667387     -36272.231     -35946.036    
       600   329.54085     -32.740832      1.3751775     -36343.884     -36019.725    
       700   299.8815       2056.9078      1.3950183     -36384.58      -36089.596    
       800   285.5763      -1690.2278      1.3854954     -36415.813     -36134.901    
       900   297.7468       4784.579       1.3836678     -36447.564     -36154.681    
      1000   297.50191      2170.6315      1.3873369     -36444.038     -36151.395    
      1100   297.38541      3873.6677      1.3806456     -36430.412     -36137.884    
      1200   301.05293      5971.472       1.3668679     -36425.507     -36129.371    
      1300   303.93021      4766.7782      1.3514933     -36424.218     -36125.252    
      1400   313.80434      7322.9015      1.357225      -36442.781     -36134.102    
      1500   322.88575     -1004.0909      1.3675879     -36478.02      -36160.408    
      1600   307.64259      4555.0874      1.3857225     -36497.819     -36195.201    
      1700   284.56771      5350.387       1.3867299     -36497.251     -36217.331    
      1800   300.18324     -15088.257      1.3898122     -36512.321     -36217.04     
      1900   299.24026     -2156.2348      1.382402      -36509.339     -36214.986    
      2000   318.04203      1425.9269      1.3927059     -36513.593     -36200.746    
      2100   321.43303      956.21122      1.3928007     -36499.93      -36183.747    
      2200   315.40549      3453.7957      1.3949785     -36503.305     -36193.051    
      2300   297.68325      3952.9353      1.391126      -36519.688     -36226.867    
      2400   286.27827     -3660.001       1.3809466     -36512.813     -36231.21     
      2500   289.07657     -5446.2814      1.3872158     -36503.155     -36218.8      
      2600   319.19593      15959.435      1.3870328     -36518.198     -36204.216    
      2700   318.47136      7856.9985      1.3985326     -36504.149     -36190.879    
