ITEM: TIMESTEP
0
ITEM: NUMBER OF ATOMS
274
ITEM: BOX BOUNDS xy xz yz pp pp pp
-6.8378337592739848e+00 1.6034194898944897e+01 -7.2417507619762391e+00
1.4261246741381672e-01 1.4681712468889812e+01 9.5201190164704363e-01
3.6248658245259335e-01 1.6408513417547596e+01 7.5442493630369512e-01
ITEM: ATOMS id type x y z
15 4 -0.471963 4.10491 1.91685
18 4 -1.27255 6.89696 5.77639
86 3 -0.984008 5.26766 6.66561
105 3 0.335287 5.16159 2.82183
70 1 3.67443 7.2302 5.20005
79 3 0.653502 1.66745 4.45165
17 4 0.243777 4.41478 7.3345
83 3 -1.75517 5.02546 0.807426
106 3 0.0245462 7.12027 4.68423
56 1 0.598404 3.10699 0.832473
26 4 7.31725 0.285786 2.87562
172 2 1.6954 3.29422 1.27235
34 4 1.03969 6.32382 3.68405
85 3 0.960871 3.31365 6.53506
13 4 1.59214 2.00148 5.65844
27 4 4.3395 2.88624 4.25693
33 4 4.65855 4.91387 2.13427
65 1 6.86233 0.794552 6.60658
96 3 3.0228 2.42578 5.01627
97 3 6.15008 1.28095 2.25025
100 3 5.53452 2.98445 5.26199
103 3 3.91489 4.19862 3.32876
107 3 3.55095 5.51862 1.07791
148 2 4.68677 1.63973 3.19525
28 4 6.15254 2.4343 0.819354
200 2 2.43321 5.80009 4.65121
177 2 1.29181 6.60616 7.23803
195 2 6.94796 0.943833 7.7298
163 2 4.21865 5.53964 5.26734
80 3 1.77334 0.673171 6.66408
58 1 1.72066 5.73844 7.76191
178 2 2.48266 5.12592 7.11835
180 2 -2.68218 7.20016 3.88232
194 2 5.82587 0.516855 6.17705
171 2 0.473225 1.98611 0.676776
104 3 5.6834 3.85056 1.48704
20 4 -0.41173 5.99618 10.6366
84 3 -0.116284 3.82548 8.77264
88 3 -0.172573 4.96532 11.8713
19 4 0.413995 4.09476 13.131
145 2 1.01299 5.8361 9.57277
114 3 0.745249 7.43031 15.2316
16 4 -0.633724 7.36389 16.0587
170 2 1.44086 4.45055 15.8463
152 2 4.97243 4.31834 9.11429
176 2 2.29576 6.17339 8.59159
203 2 2.87132 3.9515 8.98224
108 3 3.60011 4.1768 9.6623
14 4 1.39763 1.56244 11.6131
29 4 3.84401 2.17173 10.023
31 4 4.72948 3.18247 14.8124
32 4 6.87228 2.34718 10.9054
37 4 5.61075 4.70048 12.0752
87 3 1.01038 2.46859 12.993
99 3 2.96402 1.72457 11.2489
101 3 6.09894 2.61245 15.7134
102 3 5.44304 2.06869 10.2495
110 3 5.04157 3.9359 13.4196
197 2 2.30714 2.23265 14.2588
112 3 1.41713 5.2397 14.0267
153 2 4.33857 4.91905 10.9483
149 2 3.3918 3.88039 15.6899
38 4 1.904 6.7428 14.3186
267 2 2.8722 1.66471 15.9655
66 1 3.23058 2.04777 14.9807
113 3 3.26104 6.8645 15.0202
35 4 4.51896 7.18111 15.8847
150 2 7.11906 1.30282 12.2814
98 3 3.47326 1.53914 8.57469
81 3 0.436516 1.98584 10.4472
93 3 -0.328486 7.51894 11.1223
186 2 -2.54904 7.42443 9.51096
196 2 4.07605 1.11476 14.3969
185 2 -1.76543 5.70584 8.85077
121 3 2.85868 10.0658 6.28338
175 2 -2.18525 7.38724 2.16574
42 4 2.0153 11.0831 5.12365
57 1 -1.51269 7.88611 1.40228
174 2 -0.43553 7.88583 1.76706
11 4 -4.49709 14.0646 7.87784
89 3 -1.52535 8.06634 6.9584
173 2 -1.81234 8.99692 1.31727
21 4 -2.06769 9.21335 7.9439
23 4 -3.45481 11.6246 6.18068
39 4 -0.92045 11.6762 4.48858
91 3 -3.67345 10.1224 6.95583
92 3 -3.29116 12.9057 7.13275
115 3 -0.557295 13.3097 4.27265
116 3 -2.3159 11.6146 5.13744
146 2 -4.96666 11.7656 5.28869
155 2 -1.26023 10.9939 2.93295
156 2 -1.13162 13.0774 7.5337
117 3 0.27276 12.9499 1.60947
120 3 0.40761 11.0727 5.17654
268 2 -0.579926 10.2673 1.50265
245 2 -2.87861 11.111 1.95646
240 1 -2.07323 11.005 1.15057
151 2 2.61497 7.62886 2.63816
208 2 3.47561 7.80958 4.22642
207 2 2.90452 7.48225 5.96626
262 2 3.39168 8.03752 0.514129
199 2 0.82216 8.46851 2.90163
67 1 1.46328 7.5829 2.3769
205 2 1.60493 9.00285 8.12443
238 4 -0.351137 11.9702 0.613032
198 2 1.31779 7.41612 1.29813
193 2 0.488736 13.9904 6.10187
230 2 1.38482 12.5377 7.77691
252 2 2.00533 9.22649 0.890493
261 3 -1.81666 7.74845 15.1033
228 2 1.43294 12.6324 9.77644
239 4 1.98799 12.3395 13.7674
147 2 1.80247 10.5589 13.2756
244 3 1.34313 12.4589 15.2503
188 2 2.32764 8.80837 11.645
154 2 1.91339 7.85679 12.9473
204 2 2.99044 7.82632 8.94502
90 3 -5.24525 13.061 8.93984
24 4 -0.320608 8.9576 11.8356
25 4 -2.35707 11.6848 11.3778
41 4 -0.586559 11.8744 8.7669
64 1 -2.67487 12.68 12.8802
95 3 -1.69266 9.88183 11.947
119 3 -1.22359 12.3424 10.3652
191 2 -2.44611 12.0952 13.8015
192 2 -3.7182 13.0668 12.8077
266 2 -1.8354 13.5413 12.6431
187 2 -2.48591 9.18366 10.373
94 3 -3.81254 11.5741 10.638
62 1 -2.80513 8.61212 9.46044
235 2 -2.73917 9.56435 13.2637
189 2 0.46427 8.92812 13.4422
249 2 0.139403 14.0197 13.5052
63 1 1.48728 9.48511 11.9099
247 2 0.704382 12.7483 11.9434
241 1 1.00665 13.6107 12.8156
69 1 2.53637 8.94249 8.91674
190 2 1.05431 10.3009 10.8357
206 2 2.17288 9.25752 9.98669
78 1 1.2503 12.003 8.86674
157 2 1.74423 10.7716 8.87134
118 3 -0.997805 10.4038 8.47056
269 2 -1.50579 11.4105 16.1887
246 2 -1.15851 13.3523 16.3349
68 1 7.80749 6.16159 8.22079
48 4 5.53427 6.76909 4.45235
223 2 8.28101 6.89799 2.24587
109 3 7.0223 3.66375 7.24359
129 3 5.63558 6.33074 2.89765
131 3 6.8287 6.88806 5.35978
50 4 8.2294 7.04088 6.23851
72 1 10.1622 3.31491 8.34677
36 4 6.5761 4.67541 8.33364
202 2 6.08007 6.34516 7.69416
123 3 8.34905 2.79803 5.22474
222 2 8.55627 5.72189 3.73518
273 2 8.64759 0.739997 7.48019
76 1 8.96824 6.6422 3.18856
165 2 8.73216 5.55426 7.30089
122 3 8.67987 1.07921 3.19578
130 3 9.12627 5.31358 0.600067
162 2 10.6029 6.52403 2.69673
47 4 9.86077 4.94827 2.00724
82 3 13.4712 2.96855 2.97648
179 2 11.6818 5.4849 5.02851
59 1 11.7928 6.70053 4.93157
43 4 9.27375 2.38001 4.0105
1 4 13.8063 1.56635 3.752
8 2 11.352 1.27038 6.69279
128 3 9.55019 3.67771 3.02886
158 2 12.2168 2.13087 5.39645
9 2 10.7541 1.79247 4.62434
161 2 11.5039 4.91991 1.55402
224 2 9.40578 6.39522 5.18395
3 1 12.5225 1.01184 5.15128
159 2 9.97363 3.12567 7.14996
5 3 13.5218 0.39699 2.71237
217 2 6.58498 6.96073 1.60152
254 3 13.6297 1.44065 8.21172
30 4 6.93271 2.70982 5.96173
260 2 8.39539 1.79244 0.646617
7 2 11.8056 0.365623 4.46655
166 2 7.94423 5.08815 9.6086
132 3 6.11026 6.16049 12.3728
51 4 6.79143 6.92428 13.7854
124 3 8.09729 2.07661 9.81493
270 2 13.062 1.40097 16.382
264 2 13.6371 4.78698 14.8766
234 2 11.6742 6.76303 11.6618
133 3 8.01625 6.20043 14.5458
201 2 8.09365 7.26547 8.54623
257 1 8.80254 3.43039 16.1161
111 3 6.88251 3.82627 11.4003
259 2 8.82467 3.2448 14.9943
134 3 5.7558 7.13481 14.9221
61 1 12.5904 5.4695 9.98463
60 1 13.606 3.77424 14.2463
183 2 11.7121 6.06138 10.4185
184 2 12.5249 4.37804 10.1752
256 2 9.46288 4.04228 8.86756
181 2 12.6636 3.75056 13.6754
182 2 13.8418 2.73042 14.8537
12 4 14.0362 2.43584 9.42742
44 4 9.27364 1.71664 8.77412
46 4 11.603 1.8141 11.4905
73 1 10.5578 3.08158 12.3015
125 3 12.479 2.61624 10.4006
10 2 15.1836 1.95103 15.9832
214 2 9.5583 2.80895 11.8428
215 2 11.0312 4.11849 11.984
216 2 10.6357 2.75238 13.4577
232 1 11.6469 6.75542 12.827
127 3 12.2893 1.05723 12.652
271 2 14.2783 0.990301 14.6088
237 2 10.8213 6.06474 13.2818
236 2 12.6978 6.3076 13.1051
49 4 9.11331 7.04041 15.6006
4 1 14.4798 1.01558 15.7134
258 2 9.22525 4.42532 16.4023
126 3 10.3219 0.630813 10.139
213 2 11.2629 3.30761 8.68323
53 4 8.8665 10.1923 7.39928
40 4 3.73097 9.31882 7.43762
212 2 8.93435 7.48118 3.9214
74 1 7.14994 7.44912 0.642593
168 2 6.61972 13.7129 5.89291
242 1 2.80586 9.90355 0.46197
210 2 3.40096 13.0884 4.79743
164 2 4.96801 8.48701 4.5585
2 4 5.78981 13.198 1.52493
52 4 3.59542 10.9514 2.0229
71 1 2.59892 12.8222 5.58172
77 1 8.08862 11.5341 6.42088
135 3 4.66382 12.1195 1.69743
136 3 2.76036 10.8656 3.47577
211 2 3.11598 12.4909 6.57319
225 2 7.01132 11.4577 6.97031
251 2 4.34712 9.42611 1.37091
137 3 8.59235 8.69842 6.86404
250 2 2.2658 11.465 0.725009
255 2 1.6905 13.4852 5.67155
140 3 5.17739 12.8644 8.02247
227 2 8.41713 12.6018 6.43176
274 2 7.84939 8.18948 0.996555
226 2 8.06143 11.1373 5.35591
253 4 5.55654 14.1769 7.27265
209 2 4.63684 7.90074 6.69238
263 2 11.0391 7.28634 5.54796
139 3 4.83163 10.2027 8.14513
6 2 7.17032 12.651 0.420591
248 2 1.83176 14.3667 12.4812
144 2 8.56329 13.6727 11.6711
218 2 7.34755 8.6093 15.9205
233 3 10.1343 8.13109 14.7418
160 2 5.7534 13.6319 15.0432
220 2 5.80924 9.22447 11.5076
45 4 5.06127 13.4576 13.482
54 4 4.77349 11.583 8.98557
55 4 6.55014 11.6149 11.5766
75 1 6.42227 9.78593 12.2579
141 3 8.3997 12.1073 11.1791
142 3 5.68269 11.6735 10.2297
143 3 6.02317 12.5087 12.7434
169 2 7.64303 9.67383 12.088
221 2 7.39424 8.50207 13.3612
229 2 3.12201 11.7919 9.40958
243 3 3.61062 12.8375 13.5689
219 2 6.07717 9.81906 13.3592
167 2 3.95802 10.4771 15.4423
22 4 9.34519 11.7665 9.86828
138 3 8.94044 10.4647 8.94864
231 4 11.6253 8.09478 14.1076
265 2 10.7193 8.80149 9.19573
272 2 3.74358 14.2239 9.34484
ITEM: TIMESTEP
100
ITEM: NUMBER OF ATOMS
274
ITEM: BOX BOUNDS xy xz yz pp pp pp
-6.8378337592739848e+00 1.6034194898944897e+01 -7.2417507619762391e+00
1.4261246741381672e-01 1.4681712468889812e+01 9.5201190164704363e-01
3.6248658245259335e-01 1.6408513417547596e+01 7.5442493630369512e-01
ITEM: ATOMS id type x y z
15 4 -0.460481 4.09843 2.04064
18 4 -1.20091 6.85441 6.03807
86 3 -0.978516 5.38908 6.58285
105 3 0.411203 5.30409 2.78049
194 2 5.78136 0.563045 6.18079
79 3 0.694933 1.29148 4.52682
17 4 0.14451 4.39744 7.29323
83 3 -1.72533 5.02763 0.74967
106 3 0.0208887 7.13046 4.66267
56 1 0.513269 3.11288 0.828412
171 2 0.104561 1.97585 0.833254
172 2 1.59696 3.24861 1.38105
34 4 1.00142 6.49061 3.55568
85 3 0.693039 3.26282 6.37709
13 4 1.56609 1.91605 5.64461
27 4 4.18678 2.7655 4.21011
33 4 4.76608 5.04374 2.16436
65 1 6.86819 0.700966 6.67395
96 3 3.01211 2.27029 5.10983
97 3 5.99254 1.35614 2.35679
100 3 5.60677 2.86216 4.94466
103 3 3.96422 4.1493 3.44056
107 3 3.74121 5.50463 0.931631
148 2 4.48604 1.56972 3.02877
28 4 6.06796 2.58129 0.983832
200 2 2.55031 6.02413 4.12407
177 2 1.18673 6.73886 7.83196
195 2 6.71362 1.05396 7.77992
163 2 4.15191 5.69075 5.20153
80 3 1.5383 0.745848 6.75103
58 1 1.63219 5.66629 7.57649
178 2 2.07506 5.71224 6.53728
26 4 7.38831 0.339819 2.85098
70 1 3.67215 7.25491 5.17568
20 4 -0.359517 5.99687 10.6141
84 3 -0.267182 3.87972 8.78745
88 3 0.0497412 5.00463 11.7582
19 4 0.442081 4.12205 13.1935
145 2 0.912002 5.96684 9.37895
114 3 0.675378 7.38957 15.31
16 4 -0.689936 7.21123 16.096
170 2 1.39113 4.42885 15.8602
152 2 5.1229 4.38954 9.37426
186 2 -2.59062 7.37576 9.54174
203 2 3.36648 3.8792 8.74093
108 3 3.69936 4.16675 9.70008
14 4 1.47925 1.67696 11.6419
29 4 3.90896 2.12775 10.0116
31 4 4.81823 3.31294 14.6619
32 4 6.84568 2.30658 10.8228
37 4 5.6463 4.72571 12.0436
87 3 1.09267 2.67528 12.7838
99 3 3.01224 1.65587 11.3027
101 3 6.04553 3.06703 15.8092
102 3 5.42049 1.91914 10.2684
110 3 5.1567 3.92416 13.2715
197 2 2.47932 2.55225 14.1718
112 3 1.54647 5.10727 13.9585
153 2 4.28769 4.81329 11.0077
149 2 3.36452 4.10725 15.3109
38 4 1.76145 6.67555 14.2936
267 2 2.98546 2.06171 15.9389
66 1 3.30291 2.208 14.8343
113 3 3.10612 6.86236 15.0011
35 4 4.37661 7.1751 15.7871
150 2 7.2205 1.25403 12.1602
98 3 3.48514 1.42842 8.59477
81 3 0.52446 1.72199 10.3947
93 3 -0.468999 7.49506 11.1868
261 3 -1.93449 7.63432 15.1721
196 2 3.865 1.23849 14.4641
176 2 2.26209 5.14002 8.39751
121 3 2.83866 10.1569 6.27961
175 2 -2.05732 7.27101 2.30749
42 4 2.09176 10.9967 5.01736
57 1 -1.46416 7.74368 1.47481
174 2 -0.337412 7.90321 1.79097
11 4 -4.4883 13.9728 7.91385
89 3 -1.52728 8.05437 7.08301
173 2 -1.90623 8.74542 1.11572
21 4 -1.97957 9.27224 7.94655
23 4 -3.5387 11.7379 6.10267
39 4 -0.910718 11.691 4.36993
91 3 -3.55323 10.4228 7.10478
92 3 -3.34226 13.037 7.13679
115 3 -0.352536 13.2634 4.14119
116 3 -2.33215 11.5872 5.12185
146 2 -5.11797 11.9117 5.44084
155 2 -1.00115 10.8043 2.89534
156 2 -1.10147 12.848 7.48018
117 3 0.310375 13.0014 1.5563
120 3 0.259198 10.9535 4.97778
268 2 -0.423613 10.2749 1.40847
245 2 -2.37892 11.3274 2.14787
240 1 -1.96207 10.9988 1.19493
151 2 2.75362 7.72797 2.25274
208 2 3.31553 7.68545 4.18903
207 2 2.95987 7.58197 5.9859
180 2 -2.59701 7.36336 3.99038
199 2 1.15716 8.67517 2.83777
67 1 1.5886 7.77591 2.25836
205 2 1.35693 8.95928 8.08093
238 4 -0.34432 11.9741 0.542292
198 2 1.07572 7.63386 1.2349
193 2 0.356663 13.5716 6.4144
230 2 1.50396 12.5444 8.18011
252 2 1.88037 9.25639 0.569916
269 2 -2.5534 10.1238 0.828972
246 2 -1.29102 13.1604 16.3595
228 2 1.60261 12.4091 10.1279
239 4 2.02921 12.3015 13.8192
147 2 1.99641 10.5477 13.2413
244 3 1.24777 12.4509 15.175
188 2 2.20666 8.58369 11.498
118 3 -0.944699 10.404 8.50838
204 2 2.59464 7.72983 8.88693
90 3 -5.42103 13.0821 9.01032
24 4 -0.320361 9.04141 11.8396
25 4 -2.50807 11.6738 11.2521
41 4 -0.582269 11.876 8.84098
64 1 -2.62644 12.7052 12.764
95 3 -1.68237 10.0291 11.9529
119 3 -1.15497 12.3592 10.2541
191 2 -2.21977 12.0757 13.6304
192 2 -3.68561 13.1116 12.981
266 2 -1.86696 13.6019 12.48
187 2 -2.46624 9.12769 10.299
94 3 -3.89538 11.5387 10.5669
62 1 -2.77368 8.49855 9.36821
235 2 -2.68956 9.17172 12.8528
189 2 0.665427 9.07823 13.4473
249 2 0.225146 13.984 13.3072
63 1 1.52244 9.39795 11.8775
247 2 0.609259 12.4849 12.0349
241 1 1.02698 13.4027 12.6543
69 1 2.26764 8.82258 8.82069
190 2 1.04373 10.1933 10.8181
206 2 1.9813 9.12546 9.91762
78 1 1.32172 11.897 9.14178
157 2 1.70866 10.7463 9.04582
154 2 1.7256 7.65573 12.8206
262 2 4.21638 8.78034 16.3953
68 1 7.95228 5.99872 8.19792
48 4 5.59406 6.90678 4.4508
223 2 8.25928 6.85755 2.281
109 3 6.82655 3.48681 7.23296
129 3 5.60913 6.4431 2.95008
131 3 6.88411 6.8813 5.39975
50 4 8.30137 7.07168 6.27952
104 3 5.87866 4.13942 1.46024
36 4 6.61674 4.59128 8.33803
202 2 6.22829 6.2313 7.61736
123 3 8.33533 2.64419 5.06179
222 2 8.58981 5.70577 3.83941
273 2 8.69763 0.948352 7.48165
76 1 8.99151 6.63498 3.24901
165 2 8.93584 5.67943 7.32978
122 3 8.92704 0.990119 3.19103
130 3 8.90621 5.09608 0.836577
162 2 10.5454 6.41828 2.85263
47 4 9.91377 4.84697 1.97809
82 3 13.4854 3.0183 3.09643
179 2 11.6033 5.82122 4.81694
59 1 11.9208 6.88476 4.98235
43 4 9.3257 2.37823 3.82719
1 4 13.8754 1.49297 3.74657
8 2 11.3916 1.38673 6.6698
128 3 9.52326 3.66396 2.93297
158 2 12.3637 2.3833 5.27281
9 2 10.8574 2.01401 4.50953
161 2 11.5265 4.71372 1.34203
224 2 9.51276 6.52859 5.16903
3 1 12.5463 1.20623 5.19827
159 2 10.3359 3.14105 7.40316
5 3 13.5217 0.45924 2.58417
217 2 6.54178 7.06124 1.58823
253 4 12.8967 0.559649 7.33343
30 4 6.95445 2.54229 5.9355
260 2 8.44552 1.5584 0.675666
7 2 11.8127 0.649312 4.49111
258 2 8.28472 3.47094 0.477041
166 2 7.99655 4.99 9.60344
132 3 6.21487 6.1875 12.4888
51 4 6.84159 6.89789 13.7968
124 3 8.03609 2.06418 9.82185
270 2 12.9625 1.416 16.3089
264 2 13.8578 4.63247 15.3128
234 2 11.8017 6.83661 11.677
133 3 8.1224 6.112 14.4969
201 2 8.17414 7.03013 8.64449
257 1 8.7897 3.19557 16.2822
111 3 6.90147 3.79419 11.3654
259 2 8.49455 3.07593 15.1895
134 3 5.58048 7.30757 14.7621
61 1 12.5846 5.50806 10.1618
60 1 13.6989 3.80401 14.4786
183 2 11.641 6.00615 10.5929
184 2 12.5654 4.36022 10.2711
256 2 9.52312 4.25754 8.76059
181 2 12.8734 4.02439 13.7517
182 2 13.8712 2.64125 14.8799
12 4 14.043 2.41702 9.5307
44 4 9.27048 1.75614 8.92348
46 4 11.5798 1.92053 11.5041
73 1 10.5397 3.18382 12.3014
125 3 12.584 2.56294 10.5543
10 2 15.2382 1.74625 16.0203
214 2 9.51418 2.95489 11.8325
215 2 10.888 4.28346 12.07
216 2 10.6298 3.02802 13.4452
232 1 11.7091 6.53619 12.779
127 3 12.1621 1.05032 12.7117
185 2 12.7149 5.76207 8.99988
237 2 10.6873 6.07068 12.9409
236 2 12.5783 5.92443 13.2232
49 4 9.13394 7.0624 15.6335
4 1 14.592 0.881591 15.6587
213 2 11.1409 3.45734 9.05938
126 3 10.3723 0.65658 10.1739
72 1 10.194 3.35935 8.52867
272 2 11.0973 0.578101 9.4245
254 3 13.6111 1.41017 8.42054
271 2 14.5528 0.980074 14.5293
53 4 9.06727 10.1148 7.58454
40 4 3.55553 9.41507 7.49756
212 2 8.96745 7.61533 3.92941
74 1 7.15436 7.4752 0.685478
168 2 6.72556 13.9603 5.98902
242 1 2.81572 9.9309 0.43928
210 2 2.93147 13.2859 4.52902
164 2 4.92632 8.58051 4.65236
2 4 5.66311 13.338 1.45023
52 4 3.56507 11.037 1.96344
71 1 2.43571 12.7977 5.38038
77 1 8.02107 11.1947 6.46021
135 3 4.77377 12.0496 1.68946
136 3 2.81362 10.861 3.4358
211 2 3.04103 12.6229 6.32642
225 2 7.00678 10.9762 6.97985
251 2 4.23615 9.40539 1.27182
137 3 8.74639 8.61811 6.95096
250 2 2.31732 11.6496 0.696745
255 2 1.4558 13.3696 5.58777
140 3 5.06563 12.9196 7.91896
227 2 8.40926 12.3046 6.6574
274 2 7.9091 8.19187 1.02211
226 2 8.08888 10.7807 5.39843
263 2 11.2208 7.48913 5.73542
209 2 4.47719 8.02405 6.81975
139 3 4.63574 10.3 8.19101
265 2 10.7892 8.6627 9.08998
144 2 8.64927 13.8755 12.1192
218 2 7.41937 8.65575 15.9022
233 3 10.132 7.98682 14.704
160 2 5.6755 13.9764 14.9227
220 2 5.80516 9.20873 11.561
45 4 4.95897 13.4773 13.4339
54 4 4.76368 11.6791 8.9268
55 4 6.5746 11.6402 11.5402
75 1 6.71102 9.75877 12.0193
141 3 8.31742 12.1752 11.2899
142 3 5.69809 11.6304 10.2266
143 3 5.80008 12.3072 12.8272
169 2 7.76892 9.53612 11.6808
221 2 7.56441 8.27348 12.9629
229 2 3.21728 12.0504 9.62774
243 3 3.43587 12.9439 13.933
219 2 6.59461 9.82727 13.1189
167 2 3.99122 10.8676 15.3846
22 4 9.28101 11.9 10.0505
138 3 8.79694 10.454 9.07034
231 4 11.6319 7.94279 14.057
248 2 1.78768 14.0458 12.1271
6 2 8.08489 13.3579 16.2708
ITEM: TIMESTEP
200
ITEM: NUMBER OF ATOMS
274
ITEM: BOX BOUNDS xy xz yz pp pp pp
-6.8378337592739848e+00 1.6034194898944897e+01 -7.2417507619762391e+00
1.4261246741381672e-01 1.4681712468889812e+01 9.5201190164704363e-01
3.6248658245259335e-01 1.6408513417547596e+01 7.5442493630369512e-01
ITEM: ATOMS id type x y z
15 4 -0.526859 4.10306 2.03481
18 4 -1.16259 6.99403 5.9117
86 3 -1.03146 5.22617 6.70416
105 3 0.342592 5.37587 2.68898
207 2 3.0576 6.90824 6.49504
79 3 0.684434 1.22448 4.14157
17 4 0.10498 4.26958 7.20443
194 2 5.80183 0.535648 6.30297
106 3 0.259912 7.12898 4.76919
56 1 0.494833 3.00222 0.968729
171 2 0.0728843 1.93604 0.996142
172 2 1.57918 3.10578 1.37169
34 4 1.219 6.52403 3.65718
85 3 0.835946 3.13252 6.12442
13 4 1.57078 1.86845 5.4879
27 4 4.25727 2.69863 4.0633
33 4 4.84708 5.05544 2.25132
65 1 6.88295 0.821246 6.72334
96 3 2.91826 2.40992 4.85908
97 3 6.04509 1.49941 2.23304
100 3 5.58397 2.60505 4.89179
103 3 4.06674 4.15344 3.35289
107 3 3.8575 5.58866 1.03878
148 2 4.48346 1.47654 2.97543
28 4 6.14698 2.64199 1.09121
200 2 2.7939 6.01485 4.24022
177 2 0.987062 6.48696 7.62716
195 2 6.98701 1.11947 7.85085
163 2 4.45008 5.46702 5.30201
80 3 1.58373 0.681712 6.67809
58 1 1.50997 5.51049 7.66237
178 2 2.22506 5.26431 6.78373
70 1 3.70355 7.02217 5.57614
180 2 -2.65785 7.10259 4.00092
83 3 -1.91042 4.68454 0.945295
20 4 -0.426587 6.11632 10.7095
84 3 -0.113218 3.75181 8.74304
88 3 -0.198156 5.18021 11.9571
19 4 0.590119 4.22736 13.2025
145 2 0.774463 6.04257 9.44726
114 3 0.664574 7.30759 15.2398
16 4 -0.720504 7.21885 16.1504
170 2 1.31832 4.21128 15.9258
152 2 5.13491 4.34919 9.0961
196 2 4.36772 1.23063 14.251
203 2 3.23795 3.80534 8.84269
108 3 3.77123 4.08896 9.74114
14 4 1.48723 1.61895 11.5752
29 4 3.94343 2.0558 10.0382
31 4 4.80855 3.38792 14.7639
32 4 6.92721 2.22009 10.7962
37 4 5.75623 4.60985 12.0957
87 3 1.08345 2.50666 12.7845
99 3 3.04483 1.64755 11.3294
101 3 5.78695 3.21099 16.0282
102 3 5.55021 1.78829 10.2108
110 3 5.24434 3.89471 13.362
197 2 2.54134 2.00392 13.8683
112 3 1.61216 5.26588 13.9703
153 2 4.35824 4.85099 11.0415
149 2 3.17482 3.88829 15.1812
38 4 1.82447 6.74251 14.3745
267 2 3.12117 1.71648 15.69
66 1 3.44175 2.05267 14.6725
113 3 3.20381 6.98702 15.0896
35 4 4.55092 7.28923 15.8449
150 2 7.16677 1.21266 12.1711
98 3 3.25202 1.45807 8.66262
81 3 0.671347 1.85276 10.2189
176 2 2.08671 5.29165 8.621
261 3 -1.86548 7.58045 15.026
185 2 -1.71919 5.69496 8.8853
121 3 2.65389 10.3104 6.20544
175 2 -2.22175 7.39403 2.109
42 4 1.97806 11.066 4.96322
57 1 -1.52209 7.81974 1.29558
174 2 -0.376771 7.83193 1.76029
11 4 -4.59901 13.9807 7.88704
89 3 -1.25938 8.16101 7.0847
173 2 -1.85384 9.02018 1.15637
21 4 -1.94315 9.32651 8.04216
23 4 -3.40049 11.7851 6.20521
39 4 -0.929415 11.6611 4.36516
91 3 -3.51205 10.347 7.07155
92 3 -3.3571 13.0688 6.99126
115 3 -0.407692 13.1977 4.04995
116 3 -2.33313 11.6627 5.07648
146 2 -4.83805 11.6951 5.34745
155 2 -1.37603 10.8891 2.85753
156 2 -1.03038 12.9397 7.62274
117 3 0.0532151 12.9496 1.54143
120 3 0.316705 10.9151 4.97516
268 2 -0.546587 10.2534 1.34449
245 2 -2.81563 11.1902 2.0122
240 1 -2.16724 11.0149 1.07376
151 2 2.7243 7.98831 2.75399
208 2 3.1824 7.61376 4.71229
26 4 0.0811873 14.0341 2.71992
269 2 -2.6337 10.1704 0.399797
199 2 0.860539 8.73692 2.70148
67 1 1.56834 7.86503 2.36403
205 2 1.30276 9.03036 8.06416
238 4 -0.50441 11.9727 0.495789
198 2 1.44135 7.24424 1.39547
193 2 0.466659 13.9099 6.44744
230 2 1.49904 12.676 8.31216
262 2 3.49648 8.03107 0.636035
246 2 -1.41417 13.2345 16.1797
228 2 1.50503 12.4458 10.2397
239 4 1.9826 12.2605 13.7684
147 2 1.99785 10.4905 13.1482
244 3 1.21377 12.4144 15.1812
188 2 2.39698 8.60441 11.6205
118 3 -0.857314 10.3701 8.41815
204 2 2.51376 7.65998 8.64223
90 3 -5.26875 12.9215 8.93506
24 4 -0.361911 9.01601 11.8981
25 4 -2.42846 11.7654 11.3906
41 4 -0.577434 11.832 8.84833
64 1 -2.64409 13.0599 12.6844
95 3 -1.56428 10.0638 12.1046
119 3 -1.36381 12.2475 10.2694
191 2 -1.99773 12.83 13.5473
192 2 -3.74083 13.1839 12.9692
266 2 -2.23539 13.9734 12.0825
187 2 -2.48495 9.2962 10.4432
94 3 -3.90453 11.5276 10.751
62 1 -2.77993 8.66992 9.55169
235 2 -2.71712 9.15694 12.8797
189 2 0.569947 9.07045 13.4385
249 2 0.203046 13.6942 13.4229
63 1 1.54143 9.34991 11.8777
247 2 0.355417 12.5761 11.8415
241 1 0.862707 13.2555 12.5724
69 1 2.24031 8.76862 8.76815
190 2 1.18585 10.0467 10.8807
206 2 2.0244 8.92721 9.90683
78 1 1.32589 11.9342 9.20856
157 2 1.74139 10.7612 9.08082
154 2 1.72152 7.71133 12.956
252 2 3.37967 9.87595 15.9408
93 3 -0.566916 7.57965 11.26
186 2 -2.55157 7.48911 9.72104
68 1 7.9205 6.04891 8.23331
48 4 5.49016 6.9747 4.5793
223 2 8.28623 6.94717 2.33434
109 3 6.86788 3.73954 6.95421
129 3 5.59203 6.64218 3.0088
131 3 6.99112 6.98698 5.55887
50 4 8.35387 7.07194 6.45787
104 3 6.17609 4.10792 1.79428
36 4 6.61084 4.68132 8.17892
202 2 6.25749 6.52548 7.82474
123 3 8.31524 2.46382 5.04105
222 2 8.43204 5.81589 3.86925
273 2 8.71891 0.921351 7.49538
76 1 8.93912 6.67553 3.32746
165 2 9.04731 5.41251 7.02873
122 3 8.68779 1.06889 2.92962
130 3 9.04905 5.21038 0.652472
162 2 10.6621 6.24898 2.99681
47 4 9.71343 4.89106 2.15531
82 3 13.5851 3.19099 3.28363
179 2 11.3896 5.97532 5.46312
253 4 12.7945 0.487384 7.35717
43 4 9.26388 2.15563 3.87436
1 4 13.8308 1.55177 3.68938
8 2 11.4293 1.45007 6.61125
128 3 9.56697 3.52366 3.06381
158 2 12.2099 2.22072 5.17377
9 2 10.7883 1.62386 4.53441
161 2 11.3906 4.57086 1.67091
224 2 9.45981 6.53304 5.2223
3 1 12.5554 1.048 5.12769
159 2 9.66311 3.57364 7.42246
5 3 13.3256 0.57786 2.53691
260 2 8.44988 1.68894 0.455903
30 4 6.93088 2.58139 5.82392
59 1 11.8677 6.99055 5.08357
213 2 11.3928 3.11245 8.24495
166 2 7.95702 4.858 9.52885
132 3 6.25282 6.14154 12.4446
51 4 6.73836 6.93707 13.7645
124 3 8.15817 1.94415 9.8388
270 2 13.1521 1.44195 16.0951
264 2 13.9552 4.50494 15.2837
234 2 11.2026 6.64821 11.6839
133 3 7.94562 6.32714 14.7737
201 2 8.44281 6.87949 8.76767
257 1 8.7718 3.33036 16.1804
111 3 6.9176 3.75589 11.2223
259 2 8.43279 3.18458 15.12
134 3 5.69878 7.56675 14.8089
61 1 12.5917 5.53994 10.0501
60 1 13.9907 3.743 14.4114
183 2 11.6557 6.10762 10.3919
184 2 12.5927 4.38534 10.4068
256 2 10.1744 4.26745 9.12056
181 2 13.0155 3.69804 13.795
182 2 14.2715 2.52196 14.8066
12 4 14.0856 2.39569 9.454
44 4 9.37597 1.79167 8.82882
46 4 11.559 1.8898 11.6456
73 1 10.4336 3.21778 12.0533
125 3 12.7089 2.5787 10.7247
10 2 15.4541 1.51735 15.587
214 2 9.39763 3.04079 11.5809
215 2 10.9052 4.23792 11.6934
216 2 10.3367 3.02902 13.2561
232 1 11.4048 6.32917 12.7771
127 3 11.9838 1.01865 12.9618
272 2 11.117 0.665576 9.46358
237 2 10.5088 5.82895 13.3474
236 2 12.4319 5.82596 12.9689
49 4 9.11024 6.96424 15.6667
254 3 13.2901 1.50497 8.4378
258 2 9.30581 4.35321 16.2987
126 3 10.4068 0.679872 10.3079
72 1 10.316 3.34513 8.45602
53 4 9.06502 10.0745 7.51734
40 4 3.51461 9.47709 7.60191
212 2 8.98464 7.60412 3.89327
74 1 7.28135 7.54803 0.732835
168 2 6.71436 13.9653 6.0266
6 2 7.23882 12.5405 0.541013
210 2 2.82425 13.1359 4.23583
164 2 4.65388 8.54682 4.78509
2 4 5.72752 13.3259 1.39362
52 4 3.55204 11.0098 1.90642
71 1 2.41453 12.8975 5.20212
77 1 8.19628 11.1727 6.37606
135 3 4.59002 12.1737 1.66128
136 3 2.71655 10.7864 3.41053
211 2 3.14637 13.0791 5.99287
225 2 7.08893 11.0277 6.79706
251 2 4.29525 9.40876 1.46141
137 3 8.8149 8.53957 7.07682
250 2 2.13017 11.1347 0.569879
255 2 1.38586 13.4352 5.43746
140 3 5.04493 12.8601 7.92849
227 2 8.51567 12.2326 6.42594
274 2 8.16562 8.24021 1.06125
226 2 8.24213 10.758 5.2914
263 2 11.336 7.89002 5.49407
209 2 4.57922 8.10798 6.92268
217 2 6.62251 7.1486 1.63043
7 2 4.6298 14.0982 4.73978
265 2 10.8009 8.8546 9.20166
144 2 8.594 13.7974 12.0856
218 2 7.65932 8.78821 15.9684
233 3 10.1141 7.86948 14.7216
160 2 5.81051 13.3805 15.0347
220 2 6.74587 9.27768 10.7932
45 4 4.97188 13.3386 13.5272
54 4 4.64398 11.8157 9.05367
55 4 6.61309 11.7477 11.478
75 1 6.82297 9.83091 11.7878
141 3 8.27244 12.3192 11.3908
142 3 5.76082 11.7934 10.1652
143 3 5.92723 12.3622 12.7569
169 2 7.83672 9.682 12.22
221 2 7.3394 8.27514 12.8849
229 2 3.1726 12.3085 9.81222
243 3 3.4216 12.7422 13.6302
219 2 5.95819 9.73386 12.6148
167 2 4.65787 11.0407 15.4542
22 4 9.29553 11.7231 9.96231
138 3 8.73208 10.4074 9.17409
231 4 11.563 7.77799 13.91
271 2 7.21007 14.1469 14.5181
242 1 4.01874 10.6871 16.2708
248 2 1.74443 13.9304 12.1706
4 1 7.37768 14.492 15.5579
139 3 4.37376 10.4054 8.46914
ITEM: TIMESTEP
300
ITEM: NUMBER OF ATOMS
274
ITEM: BOX BOUNDS xy xz yz pp pp pp
-6.8378337592739848e+00 1.6034194898944897e+01 -7.2417507619762391e+00
1.4261246741381672e-01 1.4681712468889812e+01 9.5201190164704363e-01
3.6248658245259335e-01 1.6408513417547596e+01 7.5442493630369512e-01
ITEM: ATOMS id type x y z
15 4 -0.495569 4.17939 2.13194
18 4 -1.13455 6.80953 6.01868
86 3 -0.959887 5.34099 6.5723
105 3 0.483663 5.13966 2.81376
207 2 3.03768 6.64523 6.68922
79 3 0.49791 1.36162 4.29535
17 4 0.196851 4.29841 7.29376
194 2 5.8992 0.551082 6.43054
106 3 0.127725 7.09202 4.71442
56 1 0.708897 3.24018 1.05745
171 2 0.560979 2.13535 1.41068
172 2 1.76491 3.58444 1.19695
34 4 1.1678 6.47477 3.70017
85 3 0.818385 3.15182 6.27065
13 4 1.50768 1.85192 5.51742
27 4 4.27463 2.78879 3.99406
33 4 4.96841 5.15272 2.27049
65 1 6.96856 0.851668 6.79893
96 3 3.01241 2.26001 4.73562
97 3 6.00082 1.2526 2.09956
100 3 5.55761 2.64986 4.87057
103 3 4.04172 4.36549 3.32922
107 3 4.19423 5.53787 0.993613
148 2 4.58306 1.67083 2.79196
28 4 6.11028 2.76062 0.94831
200 2 2.68096 5.8723 4.55493
177 2 1.4071 6.5489 7.65119
195 2 6.9103 1.2654 7.85296
163 2 4.58391 5.34656 5.45372
80 3 1.81161 0.583331 6.45312
58 1 1.6364 5.43259 7.92728
178 2 2.4179 5.04788 7.16515
70 1 3.71925 6.86407 5.80421
59 1 -2.62008 7.08732 4.94424
83 3 -1.74492 4.86791 0.952495
20 4 -0.573333 6.06733 10.7725
84 3 -0.489733 3.75923 8.72635
88 3 -0.072956 5.06821 12.0332
19 4 0.591598 4.21805 13.3314
145 2 0.576597 5.95932 9.50475
114 3 0.776333 7.16792 15.3677
16 4 -0.63711 7.26389 15.8963
170 2 1.2694 4.2297 16.0166
152 2 5.2044 4.37604 9.25603
196 2 4.14289 1.0872 14.2913
203 2 3.21547 3.97093 9.08758
108 3 3.86018 4.05264 9.8473
14 4 1.57638 1.52469 11.5612
29 4 4.00876 2.02082 9.94194
31 4 4.77717 3.25198 14.835
32 4 6.89559 2.24854 10.7261
37 4 5.81259 4.57889 12.2937
87 3 1.22452 2.67059 12.7064
99 3 3.11506 1.52749 11.184
101 3 5.86926 3.31923 16.0748
102 3 5.57497 1.79947 10.0121
110 3 5.15689 3.79298 13.4665
197 2 2.58344 2.29867 14.0408
112 3 1.75467 5.26731 14.079
153 2 4.50731 4.71155 11.1694
149 2 3.19819 3.80669 15.3841
38 4 1.99766 6.75948 14.4518
267 2 2.84086 1.60656 15.8051
66 1 3.40997 1.92742 14.8534
113 3 3.28846 6.94716 15.2919
35 4 4.633 7.3603 15.9601
150 2 7.19908 0.957674 11.8938
98 3 3.37724 1.4966 8.51224
81 3 0.534485 1.83939 10.2974
176 2 1.91531 5.33438 9.00559
261 3 -1.85225 7.48422 14.8791
186 2 -2.50126 7.44478 9.72223
121 3 2.68638 10.1924 6.3085
198 2 1.06965 7.74397 1.49058
42 4 1.96246 11.0655 4.84801
57 1 -1.51819 7.63775 1.33026
174 2 -0.500853 7.66224 1.87495
11 4 -4.47512 13.9895 7.75214
89 3 -1.37338 7.97423 7.17313
173 2 -1.85332 8.71812 1.07473
21 4 -1.83075 9.28712 8.00448
23 4 -3.39002 11.6646 6.23622
39 4 -1.02184 11.7406 4.22215
91 3 -3.44344 10.2526 7.09199
92 3 -3.20992 13.0154 7.09906
115 3 -0.707382 13.3999 3.99361
116 3 -2.23922 11.6469 5.19094
146 2 -4.88614 11.6564 5.37153
155 2 -1.58703 10.9901 2.76432
156 2 -1.12869 13.0966 7.70473
117 3 -0.00952011 12.9076 1.41495
120 3 0.387123 10.8803 4.72279
268 2 -0.733083 10.1491 1.45466
245 2 -2.97017 10.5518 1.73106
240 1 -2.2366 10.7237 0.946226
151 2 2.75685 7.74535 2.58554
208 2 3.20021 7.43849 5.01756
180 2 -2.26547 7.35285 3.88278
193 2 0.541406 13.7981 6.52055
199 2 1.11914 8.79962 3.00925
67 1 1.525 7.87527 2.52231
205 2 1.15223 9.16389 8.02412
238 4 -0.626269 11.8237 0.409042
262 2 3.36802 8.07725 0.782366
26 4 -0.00450927 13.9687 2.67857
40 4 3.38962 9.54643 7.59447
209 2 4.20456 7.9197 7.26683
263 2 -3.18226 7.8437 5.50184
175 2 -2.26725 7.12536 1.98715
269 2 -1.57492 11.005 16.0586
228 2 1.4886 12.44 10.3576
239 4 1.84562 12.0683 13.7325
147 2 1.95274 10.2686 13.4565
244 3 1.06907 12.2556 15.1298
188 2 2.11736 8.59263 11.6804
118 3 -0.894833 10.4106 8.40155
204 2 2.46196 7.80604 8.76705
90 3 -5.10911 12.9454 8.79035
24 4 -0.408236 9.04903 12.0339
25 4 -2.44524 11.7086 11.3873
41 4 -0.657741 11.9804 8.89732
64 1 -2.56866 13.095 12.6346
95 3 -1.6394 10.1592 12.3366
119 3 -1.34883 12.3298 10.2999
191 2 -2.10019 12.8585 13.6285
192 2 -3.63454 13.4156 12.7343
266 2 -1.98533 13.9093 12.0773
187 2 -2.33993 9.26491 10.3352
94 3 -3.84965 11.3483 10.7785
62 1 -2.66205 8.56767 9.46647
235 2 -2.73446 9.24796 13.0469
189 2 0.573283 8.9633 13.5441
249 2 0.182414 13.7745 13.1419
63 1 1.39977 9.3525 11.9523
247 2 0.379029 12.1484 11.94
241 1 0.874685 13.1382 12.4839
69 1 2.05791 8.93261 8.80501
190 2 1.13901 10.2336 11.0765
206 2 1.85372 9.17146 9.93389
78 1 1.22066 12.0642 9.35616
157 2 1.5929 10.9134 9.15914
154 2 1.91172 7.78133 13.0411
252 2 3.67855 9.91247 15.5507
93 3 -0.603139 7.59699 11.3093
246 2 -1.4613 13.0818 16.165
230 2 1.48607 12.7903 8.46274