ITEM: TIMESTEP
0
ITEM: NUMBER OF ATOMS
274
ITEM: BOX BOUNDS xy xz yz pp pp pp
-6.8378337592739848e+00 1.6194655167295849e+01 -7.2417507619762391e+00
1.4261246741381672e-01 1.4521252200538862e+01 1.1124721699979936e+00
3.6248658245259335e-01 1.6408513417547596e+01 5.9396466795274505e-01
ITEM: ATOMS id type x y z
15 4 -0.456419 4.08937 1.91685
18 4 -1.21841 6.84282 5.77639
86 3 -0.920977 5.20463 6.66561
105 3 0.35988 5.13699 2.82183
70 1 3.7228 7.18182 5.20005
79 3 0.694394 1.62656 4.45165
17 4 0.313497 4.34506 7.3345
83 3 -1.75072 5.02101 0.807426
106 3 0.0677637 7.07706 4.68423
56 1 0.603104 3.10229 0.832473
26 4 7.34238 0.260655 2.87562
172 2 1.7045 3.28512 1.27235
34 4 1.0729 6.29061 3.68405
85 3 1.0226 3.25192 6.53506
13 4 1.6451 1.94852 5.65844
27 4 4.37844 2.84729 4.25693
33 4 4.67626 4.89615 2.13427
65 1 6.92477 0.732111 6.60658
96 3 3.06934 2.37924 5.01627
97 3 6.16896 1.26207 2.25025
100 3 5.58352 2.93546 5.26199
103 3 3.94456 4.16896 3.32876
107 3 3.55811 5.51146 1.07791
148 2 4.7151 1.6114 3.19525
28 4 6.15711 2.42974 0.819354
200 2 2.4761 5.75721 4.65121
177 2 1.36056 6.5374 7.23803
195 2 7.02163 0.870159 7.7298
163 2 4.2677 5.49059 5.26734
80 3 1.83636 0.610155 6.66408
58 1 1.79465 5.66445 7.76191
178 2 2.55022 5.05836 7.11835
180 2 -2.64698 7.16497 3.88232
194 2 5.88402 0.458709 6.17705
171 2 0.476368 1.98297 0.676776
104 3 5.69464 3.83931 1.48704
20 4 -0.308988 5.89344 10.6366
84 3 -0.0321829 3.74138 8.77264
88 3 -0.0574849 4.85024 11.8713
19 4 0.54168 3.96707 13.131
145 2 1.1051 5.744 9.57277
114 3 0.89394 7.28162 15.2316
16 4 -0.476762 7.20693 16.0587
170 2 1.5957 4.29571 15.8463
152 2 5.05995 4.23082 9.11429
176 2 2.37805 6.0911 8.59159
203 2 2.95752 3.8653 8.98224
108 3 3.6931 4.0838 9.6623
14 4 1.51014 1.44994 11.6131
29 4 3.94061 2.07512 10.023
31 4 4.87398 3.03797 14.8124
32 4 6.9777 2.24175 10.9054
37 4 5.72787 4.58336 12.0752
87 3 1.13668 2.34229 12.993
99 3 3.07288 1.61571 11.2489
101 3 6.25245 2.45894 15.7134
102 3 5.54191 1.96982 10.2495
110 3 5.17214 3.80533 13.4196
197 2 2.4461 2.09369 14.2588
112 3 1.55377 5.10306 14.0267
153 2 4.44442 4.81319 10.9483
149 2 3.54508 3.72711 15.6899
38 4 2.04356 6.60324 14.3186
267 2 3.02823 1.50868 15.9655
66 1 3.37676 1.90159 14.9807
113 3 3.40762 6.71793 15.0202
35 4 4.67418 7.02589 15.8847
150 2 7.23825 1.18363 12.2814
98 3 3.55538 1.45702 8.57469
81 3 0.537363 1.885 10.4472
93 3 -0.220887 7.41134 11.1223
186 2 -2.45755 7.33294 9.51096
196 2 4.21639 0.974419 14.3969
185 2 -1.68055 5.62095 8.85077
121 3 2.91789 10.0066 6.28338
175 2 -2.16721 7.36921 2.16574
42 4 2.06291 11.0355 5.12365
57 1 -1.50229 7.87571 1.40228
174 2 -0.421484 7.87178 1.76706
11 4 -4.42193 13.9894 7.87784
89 3 -1.45939 8.00038 6.9584
173 2 -1.80279 8.98738 1.31727
21 4 -1.99187 9.13754 7.9439
23 4 -3.39663 11.5664 6.18068
39 4 -0.879189 11.6349 4.48858
91 3 -3.60752 10.0565 6.95583
92 3 -3.22346 12.838 7.13275
115 3 -0.518193 13.2706 4.27265
116 3 -2.26815 11.5668 5.13744
146 2 -4.9174 11.7163 5.28869
155 2 -1.23452 10.9682 2.93295
156 2 -1.05991 13.0057 7.5337
117 3 0.28523 12.9374 1.60947
120 3 0.455751 11.0246 5.17654
268 2 -0.568524 10.2559 1.50265
245 2 -2.86267 11.095 1.95646
240 1 -2.06535 10.9971 1.15057
151 2 2.63772 7.6061 2.63816
208 2 3.51425 7.77094 4.22642
207 2 2.96056 7.42621 5.96626
262 2 3.3932 8.036 0.514129
199 2 0.847552 8.44312 2.90163
67 1 1.48342 7.56276 2.3769
205 2 1.68255 8.92523 8.12443
238 4 -0.348632 11.9677 0.613032
198 2 1.32715 7.40676 1.29813
193 2 0.546129 13.933 6.10187
230 2 1.45896 12.4636 7.77691
252 2 2.01061 9.22121 0.890493
261 3 -1.66925 7.60104 15.1033
228 2 1.52708 12.5383 9.77644
239 4 2.12204 12.2055 13.7674
147 2 1.93161 10.4298 13.2756
244 3 1.49201 12.31 15.2503
188 2 2.44047 8.69555 11.645
154 2 2.03924 7.73095 12.9473
204 2 3.07626 7.74049 8.94502
90 3 -5.15948 12.9753 8.93984
24 4 -0.205877 8.84287 11.8356
25 4 -2.24691 11.5746 11.3778
41 4 -0.502515 11.7904 8.7669
64 1 -2.54969 12.5549 12.8802
95 3 -1.57682 9.76598 11.947
119 3 -1.12357 12.2424 10.3652
191 2 -2.31172 11.9609 13.8015
192 2 -3.59375 12.9423 12.8077
266 2 -1.71259 13.4185 12.6431
187 2 -2.38581 9.08355 10.373
94 3 -3.70979 11.4714 10.638
62 1 -2.71415 8.52114 9.46044
235 2 -2.61016 9.43533 13.2637
189 2 0.595067 8.79732 13.4422
249 2 0.27083 13.8882 13.5052
63 1 1.60276 9.36964 11.9099
247 2 0.820191 12.6325 11.9434
241 1 1.13118 13.4862 12.8156
69 1 2.62191 8.85695 8.91674
190 2 1.15904 10.1962 10.8357
206 2 2.26912 9.16128 9.98669
78 1 1.33534 11.9179 8.86674
157 2 1.82932 10.6865 8.87134
118 3 -0.916724 10.3227 8.47056
269 2 -1.34753 11.2522 16.1887
246 2 -0.998791 13.1926 16.3349
68 1 7.88608 6.08301 8.22079
48 4 5.57517 6.72819 4.45235
223 2 8.29985 6.87915 2.24587
109 3 7.09111 3.59494 7.24359
129 3 5.66093 6.30539 2.89765
131 3 6.87867 6.83808 5.35978
50 4 8.28816 6.98212 6.23851
72 1 10.242 3.23507 8.34677
36 4 6.65581 4.5957 8.33364
202 2 6.15339 6.27184 7.69416
123 3 8.39767 2.74941 5.22474
222 2 8.58999 5.68816 3.73518
273 2 8.71876 0.668819 7.48019
76 1 8.99651 6.61394 3.18856
165 2 8.80154 5.48488 7.30089
122 3 8.7082 1.05087 3.19578
130 3 9.12865 5.3112 0.600067
162 2 10.6262 6.50068 2.69673
47 4 9.87722 4.93183 2.00724
82 3 13.4973 2.94241 2.97648
179 2 11.7285 5.43824 5.02851
59 1 11.8385 6.65484 4.93157
43 4 9.31023 2.34353 4.0105
1 4 13.8402 1.53245 3.752
8 2 11.4153 1.20707 6.69279
128 3 9.57686 3.65104 3.02886
158 2 12.2672 2.08053 5.39645
9 2 10.7967 1.74985 4.62434
161 2 11.5158 4.90799 1.55402
224 2 9.454 6.34701 5.18395
3 1 12.5704 0.96395 5.15128
159 2 10.0415 3.05779 7.14996
5 3 13.5453 0.373491 2.71237
217 2 6.59737 6.94834 1.60152
254 3 13.7082 1.36216 8.21172
30 4 6.9887 2.65383 5.96173
260 2 8.39824 1.78959 0.646617
7 2 11.8466 0.324582 4.46655
166 2 8.0367 4.99569 9.6086
132 3 6.23036 6.04039 12.3728
51 4 6.92566 6.79005 13.7854
124 3 8.19181 1.98209 9.81493
270 2 13.2222 1.24077 16.382
264 2 13.7822 4.64184 14.8766
234 2 11.7872 6.65003 11.6618
133 3 8.15808 6.0586 14.5458
201 2 8.17549 7.18364 8.54623
257 1 8.96007 3.27285 16.1161
111 3 6.99289 3.71589 11.4003
259 2 8.97099 3.09848 14.9943
134 3 5.9014 6.98922 14.9221
61 1 12.6866 5.37327 9.98463
60 1 13.7449 3.63541 14.2463
183 2 11.8127 5.96082 10.4185
184 2 12.623 4.27991 10.1752
256 2 9.54793 3.95723 8.86756
181 2 12.7967 3.61743 13.6754
182 2 13.9867 2.58551 14.8537
12 4 14.1268 2.34519 9.42742
44 4 9.35775 1.63253 8.77412
46 4 11.7143 1.70282 11.4905
73 1 10.6772 2.96219 12.3015
125 3 12.5794 2.51586 10.4006
10 2 15.3398 1.79482 15.9832
214 2 9.67311 2.69415 11.8428
215 2 11.1474 4.00227 11.984
216 2 10.7666 2.62143 13.4577
232 1 11.7715 6.63078 12.827
127 3 12.4122 0.934333 12.652
271 2 14.4208 0.847838 14.6088
237 2 10.9505 5.93554 13.2818
236 2 12.8253 6.18017 13.1051
49 4 9.26569 6.88803 15.6006
4 1 14.6333 0.862071 15.7134
258 2 9.38565 4.26492 16.4023
126 3 10.4197 0.533048 10.139
213 2 11.3461 3.2244 8.68323
53 4 8.93687 10.122 7.39928
40 4 3.80172 9.24807 7.43762
212 2 8.96994 7.44559 3.9214
74 1 7.15275 7.44632 0.642593
168 2 6.67502 13.6576 5.89291
242 1 2.80685 9.90256 0.46197
210 2 3.44531 13.044 4.79743
164 2 5.00997 8.44505 4.5585
2 4 5.80144 13.1864 1.52493
52 4 3.61203 10.9348 2.0229
71 1 2.65111 12.77 5.58172
77 1 8.1492 11.4735 6.42088
135 3 4.67717 12.1062 1.69743
136 3 2.79149 10.8344 3.47577
211 2 3.17809 12.4288 6.57319
225 2 7.0774 11.3916 6.97031
251 2 4.35721 9.41602 1.37091
137 3 8.65737 8.63341 6.86404
250 2 2.26943 11.4613 0.725009
255 2 1.74359 13.4321 5.67155
140 3 5.25399 12.7878 8.02247
227 2 8.47782 12.5411 6.43176
274 2 7.85573 8.18314 0.996555
226 2 8.11136 11.0874 5.35591
253 4 5.62564 14.1078 7.27265
209 2 4.70014 7.83744 6.69238
263 2 11.091 7.23448 5.54796
139 3 4.90945 10.1248 8.14513
6 2 7.1709 12.6504 0.420591
248 2 1.95294 14.2455 12.4812
144 2 8.67637 13.5596 11.6711
218 2 7.50313 8.45372 15.9205
233 3 10.2781 7.98729 14.7418
160 2 5.9002 13.4851 15.0432
220 2 5.92069 9.11302 11.5076
45 4 5.19247 13.3264 13.482
54 4 4.85972 11.4967 8.98557
55 4 6.66229 11.5027 11.5766
75 1 6.54123 9.66698 12.2579
141 3 8.50786 11.9991 11.1791
142 3 5.78136 11.5748 10.2297
143 3 6.14698 12.3849 12.7434
169 2 7.76028 9.55657 12.088
221 2 7.52423 8.37208 13.3612
229 2 3.21248 11.7014 9.40958
243 3 3.74269 12.7055 13.5689
219 2 6.20714 9.68909 13.3592
167 2 4.10882 10.3263 15.4423
22 4 9.44025 11.6715 9.86828
138 3 9.0263 10.3789 8.94864
231 4 11.7628 7.95733 14.1076
265 2 10.8077 8.71316 9.19573
272 2 3.8334 14.134 9.34484
ITEM: TIMESTEP
100
ITEM: NUMBER OF ATOMS
274
ITEM: BOX BOUNDS xy xz yz pp pp pp
-6.8378337592739848e+00 1.6194655167295849e+01 -7.2417507619762391e+00
1.4261246741381672e-01 1.4521252200538862e+01 1.1124721699979936e+00
3.6248658245259335e-01 1.6408513417547596e+01 5.9396466795274505e-01
ITEM: ATOMS id type x y z
15 4 -0.448603 4.08883 2.0521
18 4 -1.13784 6.78714 6.04156
86 3 -0.912054 5.32349 6.60402
105 3 0.429659 5.28391 2.77426
26 4 7.42469 0.320751 2.85019
79 3 0.729819 1.25063 4.53107
17 4 0.208338 4.3242 7.29525
83 3 -1.72833 5.03168 0.75156
106 3 0.0699053 7.08081 4.66808
56 1 0.521832 3.08465 0.81455
171 2 0.138112 1.94549 0.840237
172 2 1.59872 3.26121 1.35123
34 4 1.03484 6.46366 3.55531
85 3 0.758567 3.18419 6.37132
13 4 1.62693 1.85989 5.65231
27 4 4.22653 2.73039 4.20991
33 4 4.77649 5.01646 2.16628
65 1 6.9301 0.64138 6.67841
96 3 3.07053 2.21741 5.10317
97 3 6.02774 1.34129 2.34021
100 3 5.65792 2.82181 4.94491
103 3 3.98664 4.12152 3.44449
107 3 3.72519 5.48259 0.937507
148 2 4.47529 1.52782 3.04642
28 4 6.07922 2.56782 0.972979
200 2 2.56334 5.99369 4.10111
177 2 1.27062 6.63809 7.85527
195 2 6.79935 1.01534 7.78181
163 2 4.17188 5.6422 5.22278
80 3 1.61424 0.677453 6.74713
58 1 1.70665 5.57257 7.57492
178 2 2.14014 5.64028 6.53646
194 2 5.8351 0.503246 6.21806
176 2 2.36897 5.07337 8.38253
30 4 7.00845 2.48234 5.93665
70 1 3.70563 7.21056 5.15803
20 4 -0.25285 5.88922 10.6113
84 3 -0.184297 3.7946 8.7864
88 3 0.147291 4.88869 11.7562
19 4 0.57284 3.99369 13.1927
145 2 1.05245 5.87709 9.41502
114 3 0.831469 7.26119 15.3068
16 4 -0.530745 7.04405 16.1067
170 2 1.5526 4.18348 15.8962
152 2 5.21165 4.32143 9.42128
186 2 -2.48745 7.26664 9.56728
203 2 3.45769 3.7997 8.76306
108 3 3.79395 4.0792 9.71931
14 4 1.5788 1.57675 11.6421
29 4 4.01333 2.03065 10.0136
31 4 4.96548 3.17022 14.6619
32 4 6.95683 2.18615 10.8252
37 4 5.77699 4.60465 12.0606
87 3 1.20691 2.55869 12.7908
99 3 3.11152 1.55105 11.2911
101 3 6.20192 2.90249 15.8
102 3 5.52158 1.81366 10.2628
110 3 5.29664 3.80258 13.2889
197 2 2.63002 2.44455 14.1647
112 3 1.68918 4.98657 13.9264
153 2 4.40098 4.68727 11.0361
149 2 3.5339 3.96406 15.3357
38 4 1.91185 6.53138 14.2957
267 2 3.10585 1.91193 15.9096
66 1 3.44355 2.05903 14.821
113 3 3.25928 6.69401 15.0213
35 4 4.53614 7.01134 15.8042
150 2 7.31639 1.11605 12.1685
98 3 3.56764 1.3655 8.58725
81 3 0.615467 1.64393 10.3806
93 3 -0.368928 7.39013 11.1974
261 3 -1.7941 7.47921 15.1895
196 2 3.97534 1.08329 14.4346
121 3 2.89247 10.1019 6.28037
175 2 -2.07418 7.24019 2.33144
42 4 2.14623 10.9435 5.02198
57 1 -1.47572 7.71741 1.50178
174 2 -0.354743 7.87585 1.81544
11 4 -4.42136 13.9082 7.91667
89 3 -1.47914 7.97365 7.07796
173 2 -1.93313 8.72017 1.15202
21 4 -1.92026 9.18694 7.95008
23 4 -3.47337 11.6674 6.10436
39 4 -0.857833 11.6457 4.36358
91 3 -3.49024 10.3577 7.10604
92 3 -3.27444 12.9685 7.12124
115 3 -0.320031 13.2416 4.13915
116 3 -2.28067 11.5195 5.10024
146 2 -5.05816 11.8398 5.44327
155 2 -0.917486 10.7373 2.88357
156 2 -1.01952 12.7897 7.47668
117 3 0.336765 12.9749 1.55755
120 3 0.318969 10.9238 4.98379
268 2 -0.415204 10.2458 1.36845
245 2 -2.30213 11.3575 2.20303
240 1 -1.94636 10.9991 1.23846
151 2 2.74017 7.76505 2.27224
208 2 3.35236 7.63193 4.1537
207 2 2.98645 7.56122 5.97198
180 2 -2.52298 7.31153 4.02675
199 2 1.14159 8.67394 2.82176
67 1 1.58951 7.77757 2.26291
205 2 1.44443 8.85075 8.0997
238 4 -0.339632 11.9793 0.539347
198 2 1.11145 7.63044 1.23725
193 2 0.399331 13.5093 6.42567
230 2 1.60658 12.4629 8.17805
252 2 1.89151 9.24442 0.583742
269 2 -2.58742 10.1494 0.91364
262 2 3.26104 8.00559 0.391173
246 2 -2.23284 12.4214 0.365424
154 2 1.89503 7.54324 12.8343
228 2 1.68568 12.3306 10.1426
239 4 2.16331 12.1753 13.8004
147 2 2.20338 10.4219 13.2122
244 3 1.37767 12.302 15.1557
188 2 2.29314 8.44788 11.4587
118 3 -0.868578 10.3365 8.49893
204 2 2.72496 7.64795 8.8745
90 3 -5.33017 13.0108 9.01243
24 4 -0.212375 8.92206 11.8479
25 4 -2.40325 11.5706 11.259
41 4 -0.483125 11.7985 8.84034
64 1 -2.52353 12.5898 12.7672
95 3 -1.5927 9.91945 11.9731
119 3 -1.04832 12.2729 10.2652
191 2 -2.13448 11.9302 13.6211
192 2 -3.59953 12.9845 12.9752
266 2 -1.75292 13.4975 12.509
187 2 -2.34728 9.04013 10.309
94 3 -3.79824 11.4426 10.563
62 1 -2.67649 8.40836 9.37482
235 2 -2.55265 8.9958 12.8573
189 2 0.795566 8.95288 13.4618
249 2 0.343784 13.8397 13.3261
63 1 1.64556 9.2762 11.8802
247 2 0.740589 12.3546 12.0215
241 1 1.14681 13.2961 12.655
69 1 2.35818 8.73846 8.83071
190 2 1.1562 10.056 10.8582
206 2 2.07509 9.02296 9.93317
78 1 1.41598 11.8135 9.15159
157 2 1.80177 10.6624 9.07185
68 1 8.01856 5.92678 8.19362
48 4 5.62847 6.85834 4.46143
223 2 8.26528 6.83994 2.27109
109 3 6.87599 3.41917 7.24071
129 3 5.63973 6.4159 2.95145
131 3 6.93026 6.8253 5.4089
50 4 8.35674 7.00962 6.26874
104 3 5.88874 4.12425 1.45002
36 4 6.68112 4.52779 8.34129
202 2 6.31215 6.15699 7.62066
123 3 8.38398 2.58306 5.06187
222 2 8.60784 5.68784 3.81096
273 2 8.77227 0.92224 7.43394
76 1 8.99525 6.60745 3.23994
165 2 9.00611 5.59365 7.30228
122 3 8.96848 0.95541 3.17897
130 3 8.92821 5.05024 0.816369
162 2 10.5681 6.40205 2.84092
47 4 9.93142 4.82766 1.97645
82 3 13.5167 2.991 3.1201
179 2 11.6644 5.75138 4.80497
59 1 11.978 6.82748 4.99587
43 4 9.36949 2.33959 3.81796
1 4 13.9128 1.4546 3.76208
8 2 11.4932 1.32866 6.76606
128 3 9.54057 3.6407 2.92323
158 2 12.3361 2.29126 5.36193
9 2 10.918 1.99293 4.4913
161 2 11.5583 4.70327 1.35226
224 2 9.55657 6.46799 5.14349
3 1 12.5716 1.14404 5.18488
159 2 10.4461 3.04293 7.38742
5 3 13.5545 0.434919 2.58325
217 2 6.55612 7.04242 1.59417
253 4 12.9719 0.481626 7.33365
258 2 8.33992 3.5446 0.479264
260 2 8.43778 1.54611 0.653905
7 2 11.8309 0.580539 4.54893
166 2 8.08059 4.91948 9.60046
132 3 6.33947 6.0665 12.4988
51 4 6.96785 6.78113 13.7983
124 3 8.12352 1.95091 9.81919
270 2 13.1184 1.28176 16.3403
264 2 13.983 4.48074 15.3199
234 2 11.9048 6.74507 11.6727
133 3 8.29351 5.99587 14.489
201 2 8.24632 6.95759 8.62705
257 1 8.9467 3.01868 16.2584
111 3 7.01558 3.67165 11.3732
259 2 8.65288 2.93242 15.161
134 3 5.73271 7.16427 14.7785
61 1 12.6856 5.40746 10.1537
60 1 13.831 3.66478 14.4892
183 2 11.7428 5.90166 10.5774
184 2 12.6622 4.27837 10.2613
256 2 9.60066 4.12895 8.74877
181 2 13.0056 3.89843 13.7647
182 2 14.0061 2.50946 14.8715
12 4 14.1319 2.32734 9.52313
44 4 9.35664 1.65958 8.90745
46 4 11.6758 1.81749 11.4979
73 1 10.6531 3.06197 12.3321
125 3 12.6935 2.46393 10.5608
10 2 15.3819 1.59786 16.0103
214 2 9.61568 2.81497 11.8631
215 2 11.0168 4.14227 12.0889
216 2 10.7694 2.88845 13.4583
232 1 11.8337 6.41269 12.7816
127 3 12.281 0.932226 12.693
185 2 12.8165 5.67527 8.99806
237 2 10.8357 5.87298 12.9422
236 2 12.7341 5.82119 13.1821
49 4 9.28836 6.91975 15.6065
4 1 14.7323 0.725391 15.6414
213 2 11.2583 3.43525 9.02299
126 3 10.4628 0.562013 10.1784
72 1 10.312 3.2826 8.52836
254 3 13.704 1.32092 8.41068
271 2 14.6734 0.809159 14.515
272 2 11.1707 0.482137 9.35405
53 4 9.14899 10.0377 7.58378
40 4 3.61284 9.35812 7.49211
212 2 8.94508 7.58686 3.93016
74 1 7.15062 7.47334 0.695288
168 2 6.75635 13.9118 5.9096
242 1 2.8317 9.91446 0.439938
210 2 3.01517 13.2227 4.54219
164 2 4.99743 8.53045 4.71677
2 4 5.66475 13.3355 1.44265
52 4 3.58674 11.016 1.96009
71 1 2.49651 12.7395 5.38932
77 1 8.08953 11.1181 6.48912
135 3 4.77812 12.0501 1.6694
136 3 2.85541 10.8227 3.4291
211 2 3.07541 12.5681 6.34539
225 2 7.08338 10.9091 7.01263
251 2 4.28234 9.38855 1.20807
137 3 8.81247 8.54123 6.93581
250 2 2.3328 11.6227 0.718003
255 2 1.52356 13.3104 5.56653
140 3 5.16654 12.8403 7.91944
227 2 8.48802 12.2374 6.68751
274 2 7.89786 8.19588 1.04057
226 2 8.13052 10.721 5.41079
263 2 11.2856 7.41468 5.77406
209 2 4.50657 7.97236 6.79469
139 3 4.70556 10.2319 8.17733
265 2 10.8641 8.58665 9.11591
144 2 8.75496 13.7671 12.1245
218 2 7.56869 8.50019 15.9361
233 3 10.2852 7.86186 14.7047
160 2 5.81123 13.8612 14.9289
220 2 5.93933 9.04494 11.5637
45 4 5.08541 13.3645 13.428
54 4 4.84883 11.6022 8.92136
55 4 6.67993 11.5189 11.5404
75 1 6.82628 9.63622 11.996
141 3 8.42826 12.0811 11.2927
142 3 5.79324 11.5255 10.2228
143 3 5.91991 12.1902 12.8264
169 2 7.88789 9.44824 11.6363
221 2 7.68623 8.17431 12.9739
229 2 3.31803 11.9784 9.62431
243 3 3.55038 12.8455 13.9232
219 2 6.73806 9.69203 13.1087
167 2 4.15317 10.6826 15.3808
22 4 9.3895 11.8149 10.0474
138 3 8.88131 10.3716 9.06773
231 4 11.7596 7.80133 14.08
248 2 1.88702 13.9718 12.1249
6 2 8.22624 13.2069 16.229
ITEM: TIMESTEP
200
ITEM: NUMBER OF ATOMS
274
ITEM: BOX BOUNDS xy xz yz pp pp pp
-6.8378337592739848e+00 1.6194655167295849e+01 -7.2417507619762391e+00
1.4261246741381672e-01 1.4521252200538862e+01 1.1124721699979936e+00
3.6248658245259335e-01 1.6408513417547596e+01 5.9396466795274505e-01
ITEM: ATOMS id type x y z
15 4 -0.507488 4.08614 2.05703
18 4 -1.10899 6.91128 5.93363
86 3 -0.940445 5.15138 6.696
105 3 0.389534 5.35159 2.69486
70 1 3.71673 7.01842 5.57669
79 3 0.678963 1.15973 4.16418
17 4 0.191516 4.17424 7.18579
207 2 2.9495 6.74875 6.33295
106 3 0.313905 7.06078 4.80118
56 1 0.489681 2.978 0.933986
171 2 0.101851 1.9458 0.883784
172 2 1.51292 3.02372 1.37571
34 4 1.24317 6.5093 3.66641
85 3 0.874284 3.08289 6.1521
13 4 1.60565 1.78413 5.5047
27 4 4.32797 2.65187 4.07376
33 4 4.86294 5.01915 2.25212
65 1 6.9492 0.760872 6.71893
96 3 2.97999 2.362 4.84919
97 3 6.12042 1.46729 2.21497
100 3 5.64425 2.55651 4.88707
103 3 4.11323 4.10684 3.36034
107 3 3.8526 5.56461 1.04363
148 2 4.4833 1.41698 2.94655
28 4 6.18175 2.61059 1.0627
200 2 2.79986 5.96781 4.23935
177 2 1.0976 6.40856 7.62576
195 2 7.07147 1.09184 7.83035
163 2 4.47289 5.44151 5.32049
80 3 1.62834 0.615852 6.68104
58 1 1.59548 5.43122 7.66653
178 2 2.30489 5.19026 6.79792
180 2 -2.55463 6.97738 4.00642
194 2 5.88133 0.478867 6.33421
20 4 -0.337916 5.99733 10.7087
84 3 -0.034128 3.6661 8.74531
88 3 -0.108254 5.06465 11.9733
19 4 0.69307 4.11399 13.1778
145 2 0.878833 5.89773 9.4669
114 3 0.814163 7.17414 15.2696
16 4 -0.576531 7.06584 16.1793
170 2 1.56227 4.05796 15.9441
152 2 5.22216 4.26205 9.14345
185 2 -1.5268 5.54638 8.85435
203 2 3.26212 3.74187 8.95064
108 3 3.86469 4.00436 9.79057
14 4 1.57843 1.53345 11.5786
29 4 4.03678 1.97451 10.0315
31 4 4.96644 3.237 14.7818
32 4 7.01978 2.12105 10.7773
37 4 5.90076 4.49922 12.1208
87 3 1.16301 2.40581 12.7498
99 3 3.15499 1.51985 11.3258
101 3 5.93253 3.0021 16.0242
102 3 5.64433 1.69384 10.1922
110 3 5.38906 3.77688 13.3949
197 2 2.72404 2.22113 14.0566
112 3 1.73171 5.14883 13.9611
153 2 4.50106 4.73775 11.0734
149 2 3.39698 3.77719 15.2375
38 4 1.96499 6.62005 14.3832
267 2 3.34598 1.36276 15.6724
66 1 3.63564 1.87227 14.6961
113 3 3.34579 6.83215 15.1028
35 4 4.69732 7.12146 15.883
150 2 7.30492 1.10082 12.1361
98 3 3.34843 1.39956 8.64125
81 3 0.767868 1.76515 10.2196
176 2 2.19538 5.2343 8.61338
261 3 -1.71553 7.42192 15.0767
196 2 4.2741 1.21401 14.027
186 2 -2.45121 7.37335 9.73868
121 3 2.72769 10.251 6.19682
175 2 -2.23832 7.44088 2.12625
42 4 2.0437 11.0335 4.95921
57 1 -1.5427 7.86137 1.31442
174 2 -0.376567 7.87072 1.79972
11 4 -4.49972 13.908 7.86683
89 3 -1.19778 8.08124 7.10517
173 2 -1.82111 9.03468 1.20267
21 4 -1.87078 9.2474 8.06946
23 4 -3.33134 11.717 6.19138
39 4 -0.859804 11.609 4.37787
91 3 -3.4385 10.2739 7.0699
92 3 -3.2678 13.004 6.96594
115 3 -0.370937 13.1652 4.0211
116 3 -2.28201 11.606 5.04655
146 2 -4.79729 11.6459 5.36775
155 2 -1.22092 10.7937 2.83881
156 2 -0.949853 12.8842 7.64766
117 3 0.0825826 12.9221 1.52866
120 3 0.383637 10.9053 4.99996
268 2 -0.576117 10.2063 1.29846
245 2 -2.71786 11.2994 2.11822
240 1 -2.16041 11.0083 1.12865
151 2 2.72304 8.02685 2.70427
208 2 3.21222 7.68105 4.71479
269 2 -2.74202 10.2131 0.586663
26 4 0.130081 13.9981 2.71096
199 2 0.86583 8.73134 2.78989
67 1 1.56567 7.88802 2.3927
205 2 1.38138 8.98325 8.01115
238 4 -0.507655 11.9519 0.488009
198 2 1.39259 7.31009 1.35523
193 2 0.536397 13.8368 6.43469
230 2 1.62184 12.592 8.37521
262 2 3.45383 8.00764 0.674241
154 2 1.91379 7.63751 13.0039
228 2 1.58297 12.2871 10.2817
239 4 2.0828 12.1456 13.7535
147 2 2.08352 10.3756 13.1003
244 3 1.32821 12.3211 15.1591
188 2 2.51222 8.5096 11.5665
118 3 -0.778765 10.308 8.42541
204 2 2.65586 7.59628 8.60145
90 3 -5.1597 12.8455 8.92268
24 4 -0.234241 8.88762 11.9194
25 4 -2.34199 11.6783 11.4086
41 4 -0.487706 11.7576 8.86754
64 1 -2.58278 12.982 12.6895
95 3 -1.46046 9.95909 12.1177
119 3 -1.26763 12.158 10.3057
191 2 -1.92659 12.653 13.521
192 2 -3.67163 13.1121 12.9834
266 2 -2.17407 13.878 12.1225
187 2 -2.35025 9.24025 10.5131
94 3 -3.80501 11.4488 10.7296
62 1 -2.69284 8.60345 9.57493
235 2 -2.52845 9.08564 12.9786
189 2 0.703684 8.95582 13.4506
249 2 0.30532 13.5527 13.3724
63 1 1.65177 9.2183 11.8458
247 2 0.472701 12.4051 11.8374
241 1 0.97472 13.1235 12.5373
69 1 2.31118 8.68495 8.74355
190 2 1.29818 9.95964 10.9247
206 2 2.10968 8.85817 9.93569
78 1 1.41363 11.82 9.2386
157 2 1.81809 10.6512 9.0915
246 2 -1.29503 12.9969 16.1852
93 3 -0.44884 7.46815 11.2727
252 2 3.59606 9.66616 15.9046
68 1 7.97552 5.98634 8.24485
48 4 5.52107 6.91719 4.57637
223 2 8.28225 6.94541 2.32903
109 3 6.95568 3.68828 6.96798
129 3 5.61261 6.59048 3.00156
131 3 7.03163 6.91903 5.55807
50 4 8.39609 6.98993 6.44556
104 3 6.18298 4.08096 1.75418
36 4 6.68823 4.624 8.19719
202 2 6.28978 6.43152 7.87018
123 3 8.36888 2.40944 5.05415
222 2 8.44087 5.73005 3.84857
273 2 8.78395 0.804962 7.53009
76 1 8.94062 6.62029 3.30234
165 2 9.07092 5.30702 7.00451
122 3 8.7414 1.02759 2.9226
130 3 9.04306 5.2194 0.616478
162 2 10.6968 6.15195 2.97823
47 4 9.71426 4.87307 2.12368
82 3 13.6042 3.18641 3.28203
179 2 11.4179 5.88592 5.43763
260 2 8.50921 1.66998 0.497712
43 4 9.30816 2.11917 3.86596
1 4 13.8595 1.50312 3.69293
8 2 11.4986 1.32971 6.64462
128 3 9.57756 3.48835 2.98901
158 2 12.3128 2.15882 5.22429
9 2 10.852 1.57305 4.50352
161 2 11.4263 4.4657 1.74353
224 2 9.51941 6.4655 5.18595
3 1 12.6014 0.96973 5.13146
159 2 9.80077 3.47629 7.4361
5 3 13.3555 0.561601 2.51971
59 1 11.9307 6.85324 5.08358
30 4 6.99635 2.52413 5.81845
83 3 12.7453 4.69236 0.986925
213 2 11.4571 2.96212 8.32742
166 2 8.06645 4.74578 9.49738
132 3 6.41901 6.01858 12.4716
51 4 6.87889 6.82965 13.7833
124 3 8.23939 1.84402 9.80831
254 3 13.3962 1.41092 8.4354
264 2 14.102 4.38686 15.3491
234 2 11.2852 6.68598 11.85
133 3 8.10861 6.20434 14.7663
201 2 8.44896 6.83628 8.7861
257 1 8.92478 3.11341 16.1285
111 3 7.01859 3.64926 11.2239
259 2 8.57411 2.9026 15.038
134 3 5.84533 7.40096 14.8431
61 1 12.7043 5.47198 9.99952
60 1 14.1102 3.64258 14.4164
183 2 11.759 6.03231 10.1777
184 2 12.6182 4.36218 10.4095
256 2 10.2457 4.19245 9.10439
181 2 13.1047 3.62306 13.8101
182 2 14.4016 2.42721 14.7675
12 4 14.1711 2.30613 9.43966
44 4 9.47153 1.68826 8.81288
46 4 11.6499 1.77441 11.6204
73 1 10.531 3.10161 12.0912
125 3 12.7936 2.48173 10.7016
10 2 15.5515 1.4466 15.7058
214 2 9.52531 2.9356 11.5912
215 2 10.9861 4.15095 11.7559
216 2 10.4382 2.93051 13.228
232 1 11.4999 6.18772 12.8025
127 3 12.1231 0.919732 12.9141
258 2 9.37979 4.13694 16.2141
237 2 10.7372 5.44675 13.2338
236 2 12.5951 5.81136 12.8858
49 4 9.27369 6.79116 15.6783
272 2 11.2181 0.53004 9.51069
270 2 13.255 1.24786 16.1481
126 3 10.5122 0.581315 10.2982
72 1 10.3822 3.26603 8.44137
53 4 9.15598 9.98329 7.52399
40 4 3.57552 9.41988 7.56725
212 2 9.02854 7.51302 3.89777
74 1 7.2706 7.51726 0.734532
168 2 6.7736 13.8958 5.95353
217 2 6.62751 7.12588 1.64627
210 2 2.87206 13.1298 4.22125
164 2 4.7394 8.44986 4.75498
2 4 5.72954 13.3329 1.37379
52 4 3.57419 10.9787 1.88385
71 1 2.49125 12.8687 5.19815
77 1 8.27536 11.0949 6.38899
135 3 4.59072 12.1705 1.63623
136 3 2.76776 10.7286 3.41832
211 2 3.2231 13.1154 5.97282
225 2 7.18504 10.9783 6.83246
251 2 4.35475 9.39596 1.40225
137 3 8.88923 8.46579 7.08094
250 2 2.04053 11.167 0.626002
255 2 1.42349 13.3755 5.44182
140 3 5.15276 12.7817 7.93724
227 2 8.63118 12.1336 6.44755
274 2 8.18118 8.22404 1.0203
226 2 8.327 10.669 5.29779
263 2 11.424 7.77183 5.47843
209 2 4.64652 8.01683 6.79041
7 2 4.59868 14.0203 4.76082
6 2 7.21718 12.5493 0.42566
253 4 5.64663 14.1852 7.36027
265 2 10.8785 8.8517 9.27386
144 2 8.707 13.7047 11.9689
218 2 7.75673 8.62181 15.9479
233 3 10.3077 7.7527 14.7418
160 2 5.96996 13.3089 15.0348
220 2 6.90722 9.13867 10.7879
45 4 5.08665 13.2354 13.5104
54 4 4.72187 11.717 9.05917
55 4 6.7077 11.6473 11.469
75 1 6.90975 9.73509 11.7455
141 3 8.37423 12.2191 11.3774
142 3 5.84686 11.7008 10.1677
143 3 6.02685 12.2277 12.7621
169 2 7.9245 9.6071 12.227
221 2 7.40318 8.2125 12.9289
229 2 3.25814 12.223 9.8107
243 3 3.53066 12.6555 13.6105
219 2 6.05779 9.59046 12.5377
167 2 4.81438 10.9423 15.4687
22 4 9.3987 11.6483 9.97137
138 3 8.8345 10.3248 9.178
231 4 11.7066 7.66884 13.9671
242 1 4.19741 10.5076 16.2674
271 2 7.36529 14.1531 14.4982
248 2 1.81356 13.8011 12.0979
4 1 7.53835 14.3968 15.567
139 3 4.45338 10.3078 8.46197
ITEM: TIMESTEP
300
ITEM: NUMBER OF ATOMS
274
ITEM: BOX BOUNDS xy xz yz pp pp pp
-6.8378337592739848e+00 1.6194655167295849e+01 -7.2417507619762391e+00
1.4261246741381672e-01 1.4521252200538862e+01 1.1124721699979936e+00
3.6248658245259335e-01 1.6408513417547596e+01 5.9396466795274505e-01
ITEM: ATOMS id type x y z
15 4 -0.485978 4.17308 2.14236
18 4 -1.03356 6.71639 6.07066
86 3 -0.861937 5.24773 6.6034
105 3 0.514594 5.1321 2.78385
70 1 3.71982 6.77713 5.81956
79 3 0.539136 1.31451 4.23801
17 4 0.248347 4.20561 7.3001
207 2 2.90717 6.32536 6.61786
106 3 0.178784 7.04354 4.75303
56 1 0.59975 3.16882 1.03465
171 2 0.464992 2.06776 1.30883
172 2 1.68728 3.52272 1.22868
34 4 1.19632 6.43831 3.72699
85 3 0.898945 3.08002 6.26714
13 4 1.57072 1.77528 5.50319
27 4 4.35019 2.72174 3.98942
33 4 4.97477 5.1055 2.26869
65 1 7.04357 0.756149 6.74245
96 3 3.05356 2.18348 4.7349
97 3 6.09961 1.2032 2.18024
100 3 5.58901 2.59387 4.89139
103 3 4.08816 4.30566 3.34938
107 3 4.15707 5.50065 1.00137
148 2 4.57748 1.57704 2.765
28 4 6.13268 2.72069 0.913961
200 2 2.75772 5.9344 4.35337
177 2 1.66815 6.36812 7.37615
195 2 7.00544 1.17077 7.78853
163 2 4.64659 5.31508 5.48692
80 3 1.90261 0.503298 6.44232
58 1 1.75555 5.32036 7.96461
178 2 2.54992 4.69507 7.39062
180 2 -2.27149 7.14247 3.88305
194 2 6.01748 0.447308 6.42427
83 3 -1.77927 4.90856 0.981933
59 1 -2.57537 6.88912 4.93524
175 2 -2.26572 7.05152 2.06057
20 4 -0.493468 5.94813 10.762
84 3 -0.387503 3.64676 8.74457
88 3 -0.00503434 4.9391 12.0046
19 4 0.672749 4.16436 13.3525
145 2 0.572174 5.94143 9.37684
114 3 0.929807 7.05764 15.4175
16 4 -0.479425 7.16468 15.9552
170 2 1.45195 3.96965 15.9306
152 2 5.21337 4.3028 9.20627
196 2 4.16732 1.00975 14.3876
203 2 3.22767 3.90675 9.16261
108 3 3.93994 3.96827 9.91746
14 4 1.66817 1.4303 11.5849
29 4 4.08113 1.94394 9.93718
31 4 4.94466 3.10562 14.8521
32 4 6.97448 2.15663 10.7093
37 4 5.94973 4.4634 12.3121
87 3 1.38142 2.51536 12.7064
99 3 3.19889 1.43084 11.1773
101 3 6.00424 3.07441 16.0738
102 3 5.66226 1.73114 9.98099
110 3 5.33563 3.67139 13.5
197 2 2.63587 2.06426 13.9338
112 3 1.85899 5.17526 14.0734
153 2 4.62786 4.61284 11.2254
149 2 3.407 3.73817 15.3191
38 4 2.13734 6.64453 14.4639
267 2 2.99606 1.61334 15.724
66 1 3.44948 1.85112 14.7405
113 3 3.44263 6.8037 15.2939
35 4 4.76876 7.17041 16.0012
150 2 7.33627 0.869255 11.8679
98 3 3.44709 1.43315 8.5122
81 3 0.62884 1.74341 10.3055
176 2 2.03807 5.46171 9.04058
261 3 -1.67759 7.39999 14.8954
186 2 -2.40466 7.36268 9.69666
185 2 -1.62864 5.47847 8.83741
121 3 2.78413 10.1564 6.28966
198 2 1.12726 7.70716 1.49316
42 4 2.02614 11.0518 4.88102
57 1 -1.53419 7.65086 1.39984
174 2 -0.394511 7.69536 1.89716
11 4 -4.40017 13.918 7.74925
89 3 -1.3383 7.89589 7.18483
173 2 -1.86969 8.77429 1.20842
21 4 -1.75145 9.21419 8.02198
23 4 -3.30849 11.5953 6.22538
39 4 -0.927533 11.6544 4.26009
91 3 -3.35967 10.224 7.09206
92 3 -3.11075 12.9507 7.07392
115 3 -0.65356 13.3463 3.99304
116 3 -2.19826 11.5843 5.15528
146 2 -4.84799 11.5173 5.42927
155 2 -1.51439 10.9555 2.81464
156 2 -1.06028 13.0523 7.72846
117 3 -0.020626 12.8889 1.40027
120 3 0.454944 10.8507 4.7713
268 2 -0.753382 10.117 1.36089
245 2 -2.9225 10.6754 1.82917
240 1 -2.26584 10.7374 0.983293
151 2 2.73423 7.78406 2.69979
208 2 3.24275 7.43015 5.09392
193 2 0.626806 13.7529 6.47726
262 2 3.37464 8.07057 0.859696
199 2 1.00791 8.77046 2.99279
67 1 1.48797 7.8944 2.50999
205 2 1.23316 9.09195 7.9954
238 4 -0.655278 11.8074 0.370717
26 4 0.0206561 13.9379 2.68255
263 2 -3.02488 7.79331 5.56847
250 2 2.04111 10.8784 0.66623
154 2 1.99719 7.72152 13.1194
228 2 1.58105 12.3132 10.3711
239 4 1.98642 11.9264 13.7182
147 2 2.03573 10.0701 13.5461
244 3 1.21909 12.1694 15.1018
188 2 2.27416 8.53899 11.7085
118 3 -0.792893 10.3303 8.3922
204 2 2.43781 7.7253 8.58209
90 3 -4.98462 12.8616 8.78739
24 4 -0.296293 8.92115 12.0579
25 4 -2.37669 11.6194 11.3936
41 4 -0.56935 11.9021 8.91149
64 1 -2.4882 12.9951 12.668
95 3 -1.5407 10.0755 12.3273
119 3 -1.27328 12.2423 10.308
191 2 -2.11557 12.7318 13.6938
192 2 -3.58795 13.2939 12.7073
266 2 -1.89624 13.8186 12.2116
187 2 -2.25789 9.15755 10.3468
94 3 -3.79343 11.2551 10.8122
62 1 -2.56281 8.49883 9.49874
235 2 -2.58198 9.1319 13.1351
189 2 0.587312 8.81868 13.6019
249 2 0.318954 13.6343 13.2347
63 1 1.51575 9.27967 12.0019
247 2 0.524799 12.0885 11.9594
241 1 0.976683 13.0344 12.5124
69 1 2.12429 8.84781 8.71846
190 2 1.37091 10.1274 11.0787
206 2 1.92227 9.02309 9.805
78 1 1.3077 11.9709 9.36432
157 2 1.68158 10.7938 9.10846
230 2 1.53861 12.7495 8.52212
93 3 -0.498501 7.48118 11.3215
252 2 3.91129 9.69437 15.533
246 2 -1.31539 12.9125 16.1418