ITEM: TIMESTEP
0
ITEM: NUMBER OF ATOMS
274
ITEM: BOX BOUNDS xy xz yz pp pp pp
-6.9756805099257075e+00 1.6194655167295849e+01 -7.3795975126279618e+00
1.4261246741381672e-01 1.4681712468889812e+01 1.1124721699979936e+00
3.6248658245259335e-01 1.6408513417547596e+01 7.5442493630369512e-01
ITEM: ATOMS id type x y z
15 4 -0.495311 4.10491 1.91685
18 4 -1.28341 6.89696 5.77639
86 3 -0.969264 5.26766 6.66561
105 3 0.310847 5.16159 2.82183
70 1 3.6542 7.2302 5.20005
79 3 0.681068 1.66745 4.45165
17 4 0.274054 4.41478 7.3345
83 3 -1.79934 5.02546 0.807426
106 3 1.8978e-05 7.12027 4.68423
56 1 0.573681 3.10699 0.832473
26 4 7.34213 0.285786 2.87562
172 2 1.67341 3.29422 1.27235
34 4 1.01265 6.32382 3.68405
85 3 0.993788 3.31365 6.53506
13 4 1.629 2.00148 5.65844
27 4 4.35284 2.88624 4.25693
33 4 4.62938 4.91387 2.13427
65 1 6.92119 0.794552 6.60658
96 3 3.04869 2.42578 5.01627
97 3 6.15847 1.28095 2.25025
100 3 5.5574 2.98445 5.26199
103 3 3.90539 4.19862 3.32876
107 3 3.50469 5.51862 1.07791
148 2 4.70146 1.63973 3.19525
28 4 6.1344 2.4343 0.819354
200 2 2.42154 5.80009 4.65121
177 2 1.29916 6.60616 7.23803
195 2 7.01708 0.943833 7.7298
163 2 4.21603 5.53964 5.26734
80 3 1.83402 0.673171 6.66408
58 1 1.74217 5.73844 7.76191
178 2 2.50356 5.12592 7.11835
180 2 -2.7159 7.20016 3.88232
194 2 5.88301 0.516855 6.17705
171 2 0.45808 1.98611 0.676776
104 3 5.65809 3.85056 1.48704
20 4 -0.362694 5.99618 10.6366
84 3 -0.0650574 3.82548 8.77264
88 3 -0.100301 4.96532 11.8713
19 4 0.508162 4.09476 13.131
145 2 1.05249 5.8361 9.57277
114 3 0.828054 7.43031 15.2316
16 4 -0.541595 7.36389 16.0587
170 2 1.5599 4.45055 15.8463
152 2 5.02231 4.31834 9.11429
176 2 2.32161 6.17339 8.59159
203 2 2.92348 3.9515 8.98224
108 3 3.65713 4.1768 9.6623
14 4 1.50123 1.56244 11.6131
29 4 3.92486 2.17173 10.023
31 4 4.85038 3.18247 14.8124
32 4 6.96062 2.34718 10.9054
37 4 5.6878 4.70048 12.0752
87 3 1.11936 2.46859 12.993
99 3 3.06218 1.72457 11.2489
101 3 6.23496 2.61245 15.7134
102 3 5.5273 2.06869 10.2495
110 3 5.14035 3.9359 13.4196
197 2 2.43174 2.23265 14.2588
112 3 1.50922 5.2397 14.0267
153 2 4.40164 4.91905 10.9483
149 2 3.5149 3.88039 15.6899
38 4 1.98412 6.7428 14.3186
267 2 3.02035 1.66471 15.9655
66 1 3.36458 2.04777 14.9807
113 3 3.34729 6.8645 15.0202
35 4 4.6111 7.18111 15.8847
150 2 7.23225 1.30282 12.2814
98 3 3.54528 1.53914 8.57469
81 3 0.523672 1.98584 10.4472
93 3 -0.289592 7.51894 11.1223
186 2 -2.52607 7.42443 9.51096
196 2 4.21327 1.11476 14.3969
185 2 -1.73219 5.70584 8.85077
121 3 2.82144 10.0658 6.28338
175 2 -2.23881 7.38724 2.16574
42 4 1.95574 11.0831 5.12365
57 1 -1.57923 7.88611 1.40228
174 2 -0.498256 7.88583 1.76706
11 4 -4.55762 14.0646 7.87784
89 3 -1.53553 8.06634 6.9584
173 2 -1.89088 8.99692 1.31727
21 4 -2.07902 9.21335 7.9439
23 4 -3.50871 11.6246 6.18068
39 4 -0.992585 11.6762 4.48858
91 3 -3.70422 10.1224 6.95583
92 3 -3.34791 12.9057 7.13275
115 3 -0.648025 13.3097 4.27265
116 3 -2.38062 11.6146 5.13744
146 2 -5.03131 11.7656 5.28869
155 2 -1.34183 10.9939 2.93295
156 2 -1.18589 13.0774 7.5337
117 3 0.157743 12.9499 1.60947
120 3 0.348713 11.0727 5.17654
268 2 -0.669235 10.2673 1.50265
245 2 -2.97161 11.111 1.95646
240 1 -2.1736 11.005 1.15057
151 2 2.56393 7.62886 2.63816
208 2 3.4394 7.80958 4.22642
207 2 2.88979 7.48225 5.96626
262 2 3.31432 8.03752 0.514129
199 2 0.765487 8.46851 2.90163
67 1 1.40997 7.5829 2.3769
205 2 1.5976 9.00285 8.12443
238 4 -0.46679 11.9702 0.613032
198 2 1.25485 7.41612 1.29813
193 2 0.41035 13.9904 6.10187
230 2 1.3385 12.5377 7.77691
252 2 1.92002 9.22649 0.890493
261 3 -1.73838 7.74845 15.1033
228 2 1.40661 12.6324 9.77644
239 4 2.00637 12.3395 13.7674
147 2 1.83351 10.5589 13.2756
244 3 1.37584 12.4589 15.2503
188 2 2.35911 8.80837 11.645
154 2 1.96802 7.85679 12.9473
204 2 3.00346 7.82632 8.94502
90 3 -5.28463 13.061 8.93984
24 4 -0.288633 8.9576 11.8356
25 4 -2.35716 11.6848 11.3778
41 4 -0.615881 11.8744 8.7669
64 1 -2.66918 12.68 12.8802
95 3 -1.66876 9.88183 11.947
119 3 -1.24086 12.3424 10.3652
191 2 -2.42493 12.0952 13.8015
192 2 -3.71714 13.0668 12.8077
266 2 -1.84081 13.5413 12.6431
187 2 -2.47151 9.18366 10.373
94 3 -3.81927 11.5741 10.638
62 1 -2.79456 8.61212 9.46044
235 2 -2.69831 9.56435 13.2637
189 2 0.513362 8.92812 13.4422
249 2 0.138239 14.0197 13.5052
63 1 1.51476 9.48511 11.9099
247 2 0.699579 12.7483 11.9434
241 1 1.00235 13.6107 12.8156
69 1 2.53794 8.94249 8.91674
190 2 1.06238 10.3009 10.8357
206 2 2.1825 9.25752 9.98669
78 1 1.22074 12.003 8.86674
157 2 1.72703 10.7716 8.87134
118 3 -1.01552 10.4038 8.47056
269 2 -1.45277 11.4105 16.1887
246 2 -1.12338 13.3523 16.3349
68 1 7.82958 6.16159 8.22079
48 4 5.51083 6.76909 4.45235
223 2 8.23318 6.89799 2.24587
109 3 7.05913 3.66375 7.24359
129 3 5.60024 6.33074 2.89765
131 3 6.81357 6.88806 5.35978
50 4 8.22194 7.04088 6.23851
72 1 10.214 3.31491 8.34677
36 4 6.61423 4.67541 8.33364
202 2 6.09481 6.34516 7.69416
123 3 8.3734 2.79803 5.22474
222 2 8.53579 5.72189 3.73518
273 2 8.71614 0.739997 7.48019
76 1 8.93284 6.6422 3.18856
165 2 8.75069 5.55426 7.30089
122 3 8.70017 1.07921 3.19578
130 3 9.07705 5.31358 0.600067
162 2 10.5635 6.52403 2.69673
47 4 9.82994 4.94827 2.00724
82 3 13.4703 2.96855 2.97648
179 2 11.6772 5.4849 5.02851
59 1 11.7751 6.70053 4.93157
43 4 9.28957 2.38001 4.0105
1 4 13.8276 1.56635 3.752
8 2 11.407 1.27038 6.69279
128 3 9.54276 3.67771 3.02886
158 2 12.2497 2.13087 5.39645
9 2 10.7822 1.79247 4.62434
161 2 11.4686 4.91991 1.55402
224 2 9.39374 6.39522 5.18395
3 1 12.5639 1.01184 5.15128
159 2 10.0149 3.12567 7.14996
5 3 13.5438 0.39699 2.71237
217 2 6.52978 6.96073 1.60152
254 3 13.6989 1.44065 8.21172
30 4 6.96566 2.70982 5.96173
260 2 8.38187 1.79244 0.646617
7 2 11.8463 0.365623 4.46655
166 2 7.99159 5.08815 9.6086
132 3 6.17583 6.16049 12.3728
51 4 6.86415 6.92428 13.7854
124 3 8.17691 2.07661 9.81493
270 2 13.2171 1.40097 16.382
264 2 13.7426 4.78698 14.8766
234 2 11.7263 6.76303 11.6618
133 3 8.10417 6.20043 14.5458
201 2 8.10811 7.26547 8.54623
257 1 8.9346 3.43039 16.1161
111 3 6.96124 3.82627 11.4003
259 2 8.94685 3.2448 14.9943
134 3 5.83832 7.13481 14.9221
61 1 12.6379 5.4695 9.98463
60 1 13.7151 3.77424 14.2463
183 2 11.7582 6.06138 10.4185
184 2 12.5853 4.37804 10.1752
256 2 9.51293 4.04228 8.86756
181 2 12.7669 3.75056 13.6754
182 2 13.9676 2.73042 14.8537
12 4 14.1082 2.43584 9.42742
44 4 9.34597 1.71664 8.77412
46 4 11.7028 1.8141 11.4905
73 1 10.6534 3.08158 12.3015
125 3 12.5594 2.61624 10.4006
10 2 15.3291 1.95103 15.9832
214 2 9.65184 2.80895 11.8428
215 2 11.1131 4.11849 11.984
216 2 10.7467 2.75238 13.4577
232 1 11.7113 6.75542 12.827
127 3 12.4089 1.05723 12.652
271 2 14.419 0.990301 14.6088
237 2 10.8974 6.06474 13.2818
236 2 12.7696 6.3076 13.1051
49 4 9.20388 7.04041 15.6006
4 1 14.6318 1.01558 15.7134
258 2 9.35036 4.42532 16.4023
126 3 10.4194 0.630813 10.139
213 2 11.3184 3.30761 8.68323
53 4 8.83968 10.1923 7.39928
40 4 3.71329 9.31882 7.43762
212 2 8.89823 7.48118 3.9214
74 1 7.07981 7.44912 0.642593
168 2 6.54192 13.7129 5.89291
242 1 2.70929 9.90355 0.46197
210 2 3.31794 13.0884 4.79743
164 2 4.9285 8.48701 4.5585
2 4 5.67143 13.198 1.52493
52 4 3.50472 10.9514 2.0229
71 1 2.52677 12.8222 5.58172
77 1 8.03814 11.5341 6.42088
135 3 4.55802 12.1195 1.69743
136 3 2.68572 10.8656 3.47577
211 2 3.05752 12.4909 6.57319
225 2 6.96735 11.4577 6.97031
251 2 4.26485 9.42611 1.37091
137 3 8.57487 8.69842 6.86404
250 2 2.15637 11.465 0.725009
255 2 1.61266 13.4852 5.67155
140 3 5.13038 12.8644 8.02247
227 2 8.35608 12.6018 6.43176
274 2 7.77556 8.18948 0.996555
226 2 8.00376 11.1373 5.35591
253 4 5.48855 14.1769 7.27265
209 2 4.62553 7.90074 6.69238
263 2 11.022 7.28634 5.54796
139 3 4.81251 10.2027 8.14513
6 2 7.04584 12.651 0.420591
248 2 1.8164 14.3667 12.4812
144 2 8.54639 13.6727 11.6711
218 2 7.42578 8.6093 15.9205
233 3 10.205 8.13109 14.7418
160 2 5.77221 13.6319 15.0432
220 2 5.83511 9.22447 11.5076
45 4 5.06549 13.4576 13.482
54 4 4.74937 11.583 8.98557
55 4 6.55284 11.6149 11.5766
75 1 6.45039 9.78593 12.2579
141 3 8.3933 12.1073 11.1791
142 3 5.67069 11.6735 10.2297
143 3 6.02914 12.5087 12.7434
169 2 7.67048 9.67383 12.088
221 2 7.44674 8.50207 13.3612
229 2 3.10024 11.7919 9.40958
243 3 3.62195 12.8375 13.5689
219 2 6.11648 9.81906 13.3592
167 2 4.01256 10.4771 15.4423
22 4 9.32848 11.7665 9.86828
138 3 8.92712 10.4647 8.94864
231 4 11.6897 8.09478 14.1076
265 2 10.7252 8.80149 9.19573
272 2 3.69681 14.2239 9.34484
ITEM: TIMESTEP
100
ITEM: NUMBER OF ATOMS
274
ITEM: BOX BOUNDS xy xz yz pp pp pp
-6.9756805099257075e+00 1.6194655167295849e+01 -7.3795975126279618e+00
1.4261246741381672e-01 1.4681712468889812e+01 1.1124721699979936e+00
3.6248658245259335e-01 1.6408513417547596e+01 7.5442493630369512e-01
ITEM: ATOMS id type x y z
15 4 -0.488662 4.09664 2.04634
18 4 -1.18914 6.84139 6.02873
86 3 -0.952566 5.38174 6.59316
105 3 0.381024 5.3248 2.75965
194 2 5.85602 0.53953 6.18181
79 3 0.709162 1.30259 4.52438
17 4 0.181721 4.3932 7.28909
83 3 -1.76473 5.02521 0.759576
106 3 -0.0147252 7.12801 4.67653
56 1 0.488137 3.11993 0.82974
26 4 7.43887 0.333566 2.84735
172 2 1.59579 3.27914 1.36804
34 4 0.963009 6.49446 3.56087
85 3 0.722735 3.26312 6.37306
13 4 1.59561 1.91578 5.64848
27 4 4.19814 2.76725 4.21654
33 4 4.73132 5.03832 2.16793
65 1 6.91833 0.71624 6.67155
96 3 3.05214 2.27001 5.1164
97 3 5.9889 1.36589 2.34532
100 3 5.63795 2.86247 4.94072
103 3 3.95815 4.1534 3.44692
107 3 3.68184 5.49754 0.942017
148 2 4.46961 1.55851 3.03852
28 4 6.04554 2.58736 0.976983
200 2 2.50888 6.00979 4.12244
177 2 1.23527 6.73536 7.84944
195 2 6.80024 0.995963 7.79169
163 2 4.13908 5.71216 5.20687
80 3 1.59587 0.748986 6.75592
58 1 1.66541 5.6668 7.567
178 2 2.08195 5.71814 6.51958
171 2 0.0771199 1.97383 0.818985
176 2 2.31555 5.14421 8.378
70 1 3.6359 7.24318 5.15735
59 1 -2.75971 6.87679 4.99184
20 4 -0.305326 6.00076 10.6063
84 3 -0.205067 3.88335 8.78966
88 3 0.120566 5.00997 11.742
19 4 0.53394 4.13152 13.1856
145 2 0.967119 5.95745 9.38859
114 3 0.769078 7.40467 15.3076
16 4 -0.589899 7.21474 16.1006
170 2 1.49875 4.42944 15.8746
152 2 5.18396 4.39035 9.4202
186 2 -2.55805 7.35975 9.55473
203 2 3.4218 3.8893 8.75615
108 3 3.75353 4.16356 9.7098
14 4 1.565 1.68413 11.6526
29 4 3.99045 2.11746 10.018
31 4 4.93065 3.30016 14.6697
32 4 6.9361 2.29498 10.8281
37 4 5.7449 4.71284 12.0476
87 3 1.19237 2.67607 12.7833
99 3 3.0909 1.63773 11.2954
101 3 6.16604 3.06128 15.8081
102 3 5.50226 1.92687 10.2692
110 3 5.26434 3.92161 13.2855
197 2 2.59604 2.55181 14.1765
112 3 1.63839 5.13118 13.9295
153 2 4.36704 4.78379 11.0113
149 2 3.48036 4.11261 15.3437
38 4 1.85403 6.6851 14.2944
267 2 3.08961 2.05827 15.9397
66 1 3.41216 2.2064 14.8296
113 3 3.19881 6.8545 15.0195
35 4 4.478 7.16498 15.7961
150 2 7.31019 1.22537 12.1771
98 3 3.56988 1.44665 8.57987
81 3 0.601019 1.73541 10.39
93 3 -0.429654 7.50307 11.1869
261 3 -1.85376 7.62516 15.1806
196 2 3.97768 1.21551 14.4535
121 3 2.78751 10.1643 6.27806
175 2 -2.12423 7.23394 2.3181
42 4 2.04501 11.0003 5.01478
57 1 -1.53148 7.73411 1.48322
174 2 -0.407109 7.90602 1.81189
11 4 -4.55093 13.9875 7.90842
89 3 -1.54947 8.05388 7.08051
173 2 -1.99946 8.72326 1.14124
21 4 -2.00587 9.26414 7.95097
23 4 -3.58982 11.7302 6.11005
39 4 -0.971344 11.6838 4.37078
91 3 -3.59609 10.4356 7.12422
92 3 -3.40402 13.0599 7.11632
115 3 -0.429855 13.2532 4.13127
116 3 -2.3866 11.5684 5.11547
146 2 -5.1777 11.8848 5.42635
155 2 -1.04363 10.7539 2.91819
156 2 -1.13212 12.8392 7.48408
117 3 0.196133 13.0201 1.55263
120 3 0.203347 10.9585 4.98034
268 2 -0.50578 10.2644 1.41675
245 2 -2.43364 11.3248 2.20551
240 1 -2.04813 10.9748 1.24154
151 2 2.72157 7.7864 2.31791
208 2 3.29803 7.67696 4.16338
207 2 2.91237 7.60272 5.94846
180 2 -2.60462 7.3667 4.02332
199 2 1.04595 8.6837 2.83667
67 1 1.53929 7.79915 2.25761
205 2 1.34055 8.92852 8.08883
238 4 -0.45977 11.9747 0.549015
198 2 1.05547 7.60226 1.22571
193 2 0.3435 13.6939 6.35179
230 2 1.50664 12.5416 8.18593
252 2 1.79446 9.24246 0.512976
269 2 -2.64703 10.0876 0.908124
246 2 -1.25541 13.1362 16.4016
228 2 1.57159 12.4194 10.1405
239 4 2.03229 12.3099 13.8106
147 2 2.01291 10.5477 13.2168
244 3 1.26103 12.464 15.1733
188 2 2.20016 8.5885 11.4827
118 3 -0.964653 10.3989 8.50241
204 2 2.59977 7.74808 8.88321
90 3 -5.45563 13.0822 9.01131
24 4 -0.285334 9.04307 11.8432
25 4 -2.51096 11.6633 11.2523
41 4 -0.59343 11.873 8.83803
64 1 -2.63215 12.6951 12.7604
95 3 -1.66079 10.0309 11.9496
119 3 -1.15693 12.3624 10.2451
191 2 -2.24166 12.0498 13.6203
192 2 -3.69756 13.0861 12.975
266 2 -1.86892 13.5933 12.4838
187 2 -2.45404 9.12105 10.3078
94 3 -3.90988 11.537 10.5665
62 1 -2.77416 8.48922 9.37317
235 2 -2.63467 9.14596 12.807
189 2 0.68125 9.09032 13.4334
249 2 0.20353 13.974 13.3052
63 1 1.5367 9.40627 11.8667
247 2 0.615135 12.495 12.0142
241 1 1.01555 13.4266 12.6624
69 1 2.25242 8.8217 8.82003
190 2 1.0486 10.2778 10.7214
206 2 1.98186 9.13042 9.92112
78 1 1.30789 11.8967 9.14211
157 2 1.69972 10.7396 9.0549
154 2 1.83993 7.69114 12.8273
262 2 4.28832 8.77463 16.3845
68 1 7.98667 5.99399 8.18775
48 4 5.56851 6.89407 4.46346
223 2 8.2222 6.86971 2.25225
109 3 6.84155 3.48833 7.23435
129 3 5.57793 6.43967 2.94682
131 3 6.86757 6.87459 5.40502
50 4 8.29334 7.08619 6.2632
258 2 8.27996 3.5044 0.487946
36 4 6.65464 4.58508 8.34605
202 2 6.25099 6.23421 7.63894
123 3 8.37595 2.6398 5.07095
222 2 8.55213 5.73128 3.80201
273 2 8.75698 1.00764 7.47616
76 1 8.93875 6.65671 3.22952
165 2 8.94418 5.65672 7.2764
122 3 8.95125 0.989219 3.17497
130 3 8.87081 5.06466 0.827539
162 2 10.4925 6.4589 2.83972
47 4 9.8843 4.8535 1.97422
82 3 13.4852 3.02125 3.11015
179 2 11.5999 5.78705 4.81527
104 3 5.84358 4.14757 1.43937
43 4 9.36336 2.37927 3.81463
1 4 13.8882 1.48336 3.75045
8 2 11.4295 1.35367 6.70755
128 3 9.5087 3.66933 2.93412
158 2 12.3982 2.40318 5.18996
9 2 10.8763 2.00463 4.4941
161 2 11.4798 4.70115 1.35289
224 2 9.50801 6.56244 5.13497
3 1 12.5398 1.17739 5.20653
159 2 10.4148 3.13143 7.37647
5 3 13.5523 0.46173 2.57882
217 2 6.50457 7.06409 1.5795
253 4 12.9634 0.553808 7.34674
30 4 6.99364 2.54192 5.93446
260 2 8.41631 1.55183 0.626816
7 2 11.857 0.610694 4.51934
166 2 8.07089 5.00089 9.59457
132 3 6.29686 6.18148 12.4798
51 4 6.9138 6.90751 13.7882
124 3 8.10871 2.05851 9.83048
185 2 12.7602 5.7495 9.01085
264 2 13.9577 4.6326 15.3014
234 2 11.8354 6.85206 11.6875
133 3 8.20991 6.1257 14.495
201 2 8.21263 7.02603 8.61246
257 1 8.91514 3.2014 16.2691
111 3 7.00181 3.78446 11.3772
259 2 8.59164 3.12697 15.1743
134 3 5.67043 7.32122 14.7563
61 1 12.6347 5.50558 10.1749
60 1 13.7949 3.80387 14.482
183 2 11.6758 6.00717 10.6032
184 2 12.6266 4.35794 10.2915
256 2 9.61803 4.27084 8.71418
181 2 12.9608 4.01611 13.7563
182 2 14.0079 2.63377 14.8796
12 4 14.1186 2.42463 9.52638
44 4 9.33853 1.7567 8.91892
46 4 11.6665 1.91099 11.4998
73 1 10.6384 3.17105 12.3285
125 3 12.6743 2.55229 10.5474
10 2 15.3969 1.77368 16.0043
214 2 9.59682 2.93894 11.8849
215 2 10.9674 4.28107 12.1092
216 2 10.753 2.99302 13.4796
232 1 11.7797 6.54806 12.8028
127 3 12.2926 1.05495 12.6972
126 3 10.4466 0.655746 10.1874
237 2 10.726 6.08159 13.0324
236 2 12.6809 5.89594 13.2041
49 4 9.22643 7.07716 15.6128
4 1 14.7563 0.886458 15.6457
213 2 11.2447 3.49496 9.01383
72 1 10.2861 3.37413 8.50796
270 2 13.1288 1.4286 16.3262
272 2 11.1649 0.582443 9.384
254 3 13.6939 1.41664 8.41056
271 2 14.7052 0.966553 14.5253
53 4 9.04507 10.1116 7.59751
40 4 3.51743 9.42297 7.49045
212 2 8.89419 7.64095 3.9097
74 1 7.10004 7.46994 0.66195
168 2 6.611 13.9563 5.96734
242 1 2.73561 9.9214 0.436136
210 2 2.8881 13.3175 4.55396
164 2 4.9262 8.56479 4.7068
2 4 5.54643 13.3468 1.44919
52 4 3.45826 11.0272 1.96397
71 1 2.37167 12.8054 5.3859
77 1 7.98 11.1744 6.49697
135 3 4.67051 12.0458 1.68176
136 3 2.72536 10.8565 3.43805
211 2 2.97443 12.6546 6.35263
225 2 6.97261 10.9627 7.02576
251 2 4.13577 9.386 1.2926
137 3 8.72231 8.61444 6.93064
250 2 2.20549 11.6212 0.712694
255 2 1.43342 13.397 5.56326
140 3 5.0159 12.9189 7.94555
227 2 8.37145 12.3048 6.67787
274 2 7.86474 8.19374 0.978241
226 2 8.00952 10.7787 5.4223
263 2 11.2447 7.44642 5.78246
209 2 4.41266 8.02916 6.81257
139 3 4.60793 10.2996 8.18174
265 2 10.7769 8.64132 9.11063
144 2 8.62673 13.8819 12.1626
218 2 7.52249 8.65204 15.899
233 3 10.22 8.00931 14.6899
160 2 5.70493 14.0147 14.9187
220 2 5.81624 9.19373 11.5863
45 4 4.967 13.4883 13.4331
54 4 4.73654 11.6704 8.9341
55 4 6.57088 11.6358 11.5439
75 1 6.71755 9.75453 12.0243
141 3 8.30783 12.1734 11.2948
142 3 5.6813 11.6198 10.2306
143 3 5.80233 12.3178 12.8224
169 2 7.77306 9.53717 11.6663
221 2 7.62848 8.30595 12.9681
229 2 3.19764 12.0126 9.6646
243 3 3.43378 12.9546 13.9165
219 2 6.61711 9.81879 13.1334
167 2 4.11552 10.9202 15.4016
22 4 9.27132 11.9013 10.0533
138 3 8.77194 10.4407 9.08839
231 4 11.6887 7.92254 14.0676
248 2 1.76255 14.0887 12.1477
6 2 8.11741 13.3789 16.2721
ITEM: TIMESTEP
200
ITEM: NUMBER OF ATOMS
274
ITEM: BOX BOUNDS xy xz yz pp pp pp
-6.9756805099257075e+00 1.6194655167295849e+01 -7.3795975126279618e+00
1.4261246741381672e-01 1.4681712468889812e+01 1.1124721699979936e+00
3.6248658245259335e-01 1.6408513417547596e+01 7.5442493630369512e-01
ITEM: ATOMS id type x y z
15 4 -0.558319 4.1151 2.03875
18 4 -1.18615 6.97963 5.93276
86 3 -0.999772 5.24366 6.71728
105 3 0.317681 5.37839 2.69183
207 2 2.90181 6.78728 6.36862
79 3 0.702188 1.20178 4.16353
17 4 0.150777 4.27738 7.19513
194 2 5.86328 0.557887 6.25778
106 3 0.260075 7.15295 4.76622
56 1 0.46963 3.00454 0.969016
70 1 3.66436 7.0792 5.58169
172 2 1.54868 3.09972 1.34587
34 4 1.2058 6.56376 3.64908
85 3 0.869138 3.13507 6.12956
13 4 1.60029 1.86004 5.4992
27 4 4.273 2.68738 4.07936
33 4 4.82399 5.05922 2.24199
65 1 6.94254 0.817515 6.73784
96 3 2.95389 2.40886 4.861
97 3 6.07135 1.49313 2.24448
100 3 5.61578 2.61633 4.89291
103 3 4.07017 4.13422 3.35473
107 3 3.81082 5.58517 1.04261
148 2 4.45296 1.45193 2.95412
28 4 6.12048 2.63314 1.07328
200 2 2.78046 6.04456 4.26594
177 2 1.04533 6.48853 7.54566
195 2 6.98286 1.09989 7.84683
163 2 4.41323 5.51081 5.33788
80 3 1.61513 0.673951 6.69327
58 1 1.56544 5.51794 7.64805
178 2 2.29209 5.23006 6.78754
171 2 0.0449378 1.95202 1.01839
180 2 -2.63197 7.02087 3.98668
83 3 -1.95882 4.67261 0.935833
26 4 7.34773 0.279916 2.70517
20 4 -0.372362 6.12441 10.6933
84 3 -0.0517189 3.76103 8.75449
88 3 -0.142725 5.17558 11.9406
19 4 0.679576 4.25556 13.1782
145 2 0.832438 6.01009 9.42888
114 3 0.768931 7.35072 15.235
16 4 -0.622734 7.22392 16.1535
170 2 1.4461 4.21298 15.93
152 2 5.16452 4.35069 9.12784
185 2 -1.66747 5.70645 8.87093
203 2 3.25964 3.82226 8.93742
108 3 3.84249 4.08769 9.77178
14 4 1.55505 1.62177 11.5768
29 4 4.00988 2.05671 10.0445
31 4 4.91985 3.35606 14.7824
32 4 7.00125 2.23652 10.7971
37 4 5.87517 4.60862 12.1135
87 3 1.19666 2.5252 12.7629
99 3 3.11056 1.60635 11.3259
101 3 5.86291 3.16784 16.0388
102 3 5.62202 1.81037 10.2162
110 3 5.35976 3.89025 13.3927
197 2 2.63826 1.98798 13.8475
112 3 1.67587 5.30485 13.9372
153 2 4.49654 4.81587 11.057
149 2 3.32276 3.88831 15.229
38 4 1.91592 6.77263 14.3646
267 2 3.19147 1.74389 15.7118
66 1 3.52305 2.03274 14.6753
113 3 3.30373 6.97492 15.0764
35 4 4.64246 7.28155 15.8523
150 2 7.28702 1.22065 12.1514
98 3 3.33509 1.46992 8.64386
81 3 0.739491 1.85648 10.2282
196 2 4.42101 1.24921 14.3032
261 3 -1.78686 7.57041 15.0636
176 2 2.14458 5.36758 8.59397
186 2 -2.52236 7.46579 9.73689
121 3 2.61033 10.3128 6.19922
175 2 -2.17925 7.34395 2.17712
42 4 1.91253 11.089 4.98504
57 1 -1.56592 7.82196 1.31303
174 2 -0.444567 7.84964 1.77371
11 4 -4.65441 13.9851 7.86698
89 3 -1.29334 8.15901 7.09695
173 2 -1.92185 8.97857 1.24518
21 4 -1.9528 9.31692 8.05597
23 4 -3.45598 11.7853 6.20903
39 4 -0.978496 11.6497 4.39732
91 3 -3.54575 10.3594 7.10637
92 3 -3.4179 13.097 6.95437
115 3 -0.502516 13.1837 4.02166
116 3 -2.39566 11.6545 5.06601
146 2 -4.92178 11.6522 5.37217
155 2 -1.36376 10.8368 2.88029
156 2 -1.10689 12.8888 7.60023
117 3 -0.046815 12.9703 1.52263
120 3 0.270064 10.9406 5.05093
268 2 -0.665145 10.2596 1.37058
245 2 -2.85043 11.2349 2.09853
240 1 -2.27932 10.9759 1.14584
151 2 2.69329 7.99376 2.69691
208 2 3.16503 7.73407 4.73102
262 2 3.39575 8.00764 0.656726
269 2 -2.84754 10.1399 0.555809
199 2 0.825895 8.70657 2.78533
67 1 1.50517 7.92417 2.35374
205 2 1.29915 9.03006 8.11309
238 4 -0.635313 11.9697 0.495117
198 2 1.34689 7.30823 1.4156
193 2 0.367783 13.8682 6.4694
230 2 1.45049 12.7085 8.24088
246 2 -1.3945 13.1603 16.2018
228 2 1.467 12.4715 10.184
239 4 1.96953 12.2921 13.7671
147 2 1.96335 10.5118 13.1756
244 3 1.21617 12.4345 15.1803
188 2 2.48416 8.66705 11.6055
118 3 -0.868991 10.3552 8.42406
204 2 2.53415 7.69605 8.56189
90 3 -5.28119 12.9025 8.93475
24 4 -0.332173 9.02191 11.8845
25 4 -2.43303 11.7581 11.3922
41 4 -0.606872 11.8305 8.83294
64 1 -2.67018 13.0461 12.6797
95 3 -1.53668 10.0566 12.0884
119 3 -1.37094 12.2552 10.2646
191 2 -2.01108 12.7636 13.5233
192 2 -3.77029 13.166 12.9624
266 2 -2.26603 13.9674 12.1057
187 2 -2.47265 9.31591 10.4407
94 3 -3.9189 11.5153 10.7425
62 1 -2.7881 8.68148 9.56932
235 2 -2.65634 9.16052 12.8605
189 2 0.693176 9.08085 13.4168
249 2 0.189361 13.7276 13.4113
63 1 1.58612 9.3823 11.8572
247 2 0.306055 12.5426 11.8736
241 1 0.837939 13.2623 12.5612
69 1 2.21898 8.78077 8.75017
190 2 1.20754 10.0155 10.9124
206 2 2.0493 8.94775 9.96737
78 1 1.30701 11.9589 9.15775
157 2 1.73545 10.7702 9.04008
154 2 1.83807 7.74487 12.928
93 3 -0.49994 7.58041 11.2615
252 2 3.46906 9.86401 15.9309
68 1 7.96275 6.00792 8.23393
48 4 5.46791 6.96447 4.58353
223 2 8.2498 6.93914 2.32838
109 3 6.95689 3.74229 6.95361
129 3 5.55456 6.62389 2.99068
131 3 6.98374 6.9785 5.56113
50 4 8.34919 7.0653 6.44518
59 1 11.8693 6.90541 5.09633
36 4 6.67654 4.65881 8.19329
202 2 6.27304 6.44902 7.87054
123 3 8.34736 2.45662 5.03866
222 2 8.41028 5.81759 3.87885
273 2 8.78771 0.900323 7.53118
76 1 8.89962 6.68875 3.28879
165 2 9.09498 5.41428 6.97618
122 3 8.72811 1.07791 2.91919
130 3 8.98413 5.24461 0.578267
162 2 10.6433 6.21834 2.93665
47 4 9.66934 4.91594 2.13883
82 3 13.5783 3.19373 3.27635
179 2 11.3612 5.88592 5.47632
104 3 6.13024 4.11964 1.78244
43 4 9.28179 2.16957 3.87121
1 4 13.8417 1.555 3.70169
8 2 11.4795 1.42783 6.64903
128 3 9.55322 3.5403 3.0302
158 2 12.3014 2.21088 5.27371
9 2 10.8803 1.71906 4.51396
161 2 11.3432 4.61109 1.65616
224 2 9.47244 6.58877 5.17544
3 1 12.6033 1.01499 5.12836
159 2 9.81039 3.55921 7.41464
5 3 13.3448 0.571574 2.53443
260 2 8.42262 1.67795 0.486361
253 4 12.8495 0.485682 7.37062
30 4 6.9763 2.59291 5.82445
213 2 11.4645 3.04419 8.32958
166 2 8.05916 4.86953 9.53834
132 3 6.36262 6.15065 12.4468
51 4 6.83449 6.9511 13.7645
124 3 8.22024 1.95026 9.82279
258 2 9.40935 4.36912 16.2753
264 2 14.0413 4.55625 15.2828
234 2 11.3073 6.60145 11.6549
133 3 8.05736 6.33066 14.7544
201 2 8.42665 6.85033 8.76208
257 1 8.89903 3.33454 16.1473
111 3 7.01022 3.76949 11.2388
259 2 8.50621 3.1731 15.0672
134 3 5.79545 7.53869 14.813
61 1 12.6409 5.54165 10.0347
60 1 14.0976 3.77159 14.4004
183 2 11.7214 6.13807 10.4306
184 2 12.6348 4.3875 10.4137
256 2 10.1923 4.28357 9.08642
181 2 13.1414 3.71391 13.7941
182 2 14.4018 2.58873 14.811
12 4 14.1573 2.39637 9.43153
44 4 9.45124 1.77428 8.81897
46 4 11.6446 1.8636 11.6343
73 1 10.5309 3.21858 12.0919
125 3 12.7669 2.5532 10.7011
10 2 15.586 1.55683 15.5522
214 2 9.516 3.02828 11.6188
215 2 10.9713 4.18702 11.7562
216 2 10.4569 2.99894 13.2522
232 1 11.4759 6.30881 12.8278
127 3 12.1239 1.01407 12.9399
126 3 10.4797 0.667664 10.3115
237 2 10.6243 5.73616 13.377
236 2 12.5044 5.85361 13.019
49 4 9.22423 6.95528 15.66
270 2 13.2932 1.43923 16.1001
254 3 13.3809 1.49106 8.43497
72 1 10.3628 3.35855 8.42995
53 4 9.04765 10.0514 7.53289
40 4 3.48761 9.4807 7.57342
212 2 8.97746 7.58604 3.86818
74 1 7.22183 7.54852 0.726121
168 2 6.61408 13.9326 5.98817
6 2 7.10162 12.5785 0.530918
210 2 2.77449 13.3183 4.21798
164 2 4.65225 8.55718 4.76794
2 4 5.59968 13.3213 1.39348
52 4 3.45785 10.9938 1.90656
71 1 2.41263 12.9037 5.16302
77 1 8.1458 11.1716 6.41961
135 3 4.48 12.1817 1.62971
136 3 2.66002 10.7738 3.39822
211 2 3.23019 12.9441 6.02027
225 2 7.07215 11.0674 6.88684
251 2 4.19956 9.39519 1.43016
137 3 8.80664 8.53499 7.07762
250 2 1.97005 11.1427 0.634876
255 2 1.35984 13.3794 5.55149
140 3 4.98907 12.8734 7.96045
227 2 8.50118 12.2102 6.47885
274 2 8.07323 8.26633 1.00498
226 2 8.17617 10.7532 5.3196
263 2 11.3513 7.85422 5.51539
209 2 4.55192 8.0543 6.88378
7 2 4.38241 14.0721 5.02422
217 2 6.56315 7.15393 1.62466
265 2 10.8015 8.89315 9.23253
144 2 8.46154 13.8082 12.1101
218 2 7.73845 8.77398 15.9573
233 3 10.2112 7.8604 14.7245
160 2 5.81797 13.442 15.0488
220 2 6.63722 9.22048 10.8349
45 4 4.97193 13.3443 13.5235
54 4 4.60346 11.7864 9.08676
55 4 6.59264 11.7307 11.4803
75 1 6.8051 9.8184 11.7914
141 3 8.26681 12.329 11.3998
142 3 5.73727 11.7558 10.1797
143 3 5.93134 12.3525 12.7725
169 2 7.85032 9.63216 12.1468
221 2 7.40724 8.28915 12.8946
229 2 3.12775 12.2361 9.84285
243 3 3.40537 12.7698 13.6318
219 2 5.99623 9.73262 12.6843
167 2 4.75451 11.0536 15.4754
22 4 9.28425 11.7057 9.97482
138 3 8.71486 10.3892 9.1913
231 4 11.6355 7.76553 13.9201
248 2 1.73723 13.9119 12.1025
271 2 7.20071 14.1805 14.5076
242 1 4.1087 10.6758 16.2734
4 1 7.38641 14.5413 15.5424
139 3 4.34022 10.396 8.45508
272 2 3.78649 14.3431 9.51235
ITEM: TIMESTEP
300
ITEM: NUMBER OF ATOMS
274
ITEM: BOX BOUNDS xy xz yz pp pp pp
-6.9756805099257075e+00 1.6194655167295849e+01 -7.3795975126279618e+00
1.4261246741381672e-01 1.4681712468889812e+01 1.1124721699979936e+00
3.6248658245259335e-01 1.6408513417547596e+01 7.5442493630369512e-01
ITEM: ATOMS id type x y z
15 4 -0.478929 4.16791 2.18341
18 4 -1.10356 6.80303 6.04806
86 3 -0.87151 5.34652 6.58781
105 3 0.441041 5.19659 2.81764
207 2 2.84667 6.38511 6.61456
79 3 0.454747 1.35238 4.31882
17 4 0.200478 4.29568 7.28915
194 2 6.00635 0.565408 6.30817
106 3 0.125489 7.12175 4.72413
56 1 0.693898 3.252 1.07118
70 1 3.67242 6.83804 5.78775
172 2 1.72805 3.65252 1.1543
34 4 1.12696 6.50218 3.68709
85 3 0.803829 3.12186 6.27015
13 4 1.49376 1.84883 5.54647
27 4 4.30139 2.77811 4.02391
33 4 4.92387 5.15936 2.27647
65 1 7.0794 0.818255 6.74732
96 3 2.98226 2.25681 4.7598
97 3 6.06344 1.26369 2.17963
100 3 5.58038 2.64351 4.86775
103 3 4.03874 4.36304 3.36893
107 3 4.10874 5.5133 1.0014
148 2 4.58936 1.63653 2.79369
28 4 6.0928 2.74064 0.934818
200 2 2.70575 6.04663 4.30267
177 2 1.55297 6.41368 7.38161
195 2 6.98989 1.18895 7.8407
163 2 4.61344 5.38055 5.43991
80 3 1.82111 0.587786 6.46457
58 1 1.73731 5.38799 7.98394
178 2 2.49921 4.72254 7.39223
171 2 0.567808 2.21411 1.52057
180 2 -2.30287 7.12507 3.87488
83 3 -1.78783 4.87814 0.926798
59 1 -2.62674 6.93676 4.94319
20 4 -0.51301 6.06195 10.7436
84 3 -0.452937 3.76127 8.75549
88 3 -0.00708268 5.0824 11.9994
19 4 0.650127 4.23591 13.3205
145 2 0.496046 6.0059 9.36705
114 3 0.87525 7.18069 15.3517
16 4 -0.530875 7.26245 15.8863
170 2 1.34248 4.14245 16.0023
152 2 5.25068 4.33116 9.24787
176 2 2.03926 5.60899 9.09424
203 2 3.32331 3.97378 9.06881
108 3 3.93183 4.06939 9.90571
14 4 1.66356 1.50343 11.5491
29 4 4.07742 2.02399 9.92957
31 4 4.87792 3.23231 14.8463
32 4 6.96921 2.24167 10.7365
37 4 5.90783 4.56407 12.298
87 3 1.29423 2.69147 12.7038
99 3 3.19671 1.49781 11.1863
101 3 5.97125 3.25147 16.1227
102 3 5.64363 1.8253 10.003
110 3 5.27344 3.79214 13.4889
197 2 2.68673 2.29597 13.9821
112 3 1.86129 5.32373 14.0551
153 2 4.56504 4.74855 11.198
149 2 3.31585 3.82209 15.3241
38 4 2.10449 6.80228 14.4283
267 2 2.85858 1.58232 15.6899
66 1 3.46491 1.93785 14.7917
113 3 3.38815 6.97166 15.2764
35 4 4.72497 7.34579 15.9672
150 2 7.2536 0.971924 11.9053
98 3 3.43637 1.50028 8.50415
81 3 0.62129 1.8249 10.2953
196 2 4.154 1.08206 14.3009
261 3 -1.71546 7.50244 14.8699
186 2 -2.51882 7.46332 9.82035
121 3 2.68518 10.2399 6.29638
263 2 -3.14085 7.83306 5.49926
42 4 1.94088 11.0889 4.86799
57 1 -1.58829 7.69969 1.2729
174 2 -0.471187 7.6405 1.713
11 4 -4.55785 13.9879 7.755
89 3 -1.43021 7.98754 7.14075
173 2 -1.99775 8.82848 1.09409
21 4 -1.85229 9.2719 8.01826
23 4 -3.44878 11.6535 6.22657
39 4 -1.02406 11.7277 4.3036
91 3 -3.46331 10.2816 7.11628
92 3 -3.28845 13.0348 7.07688
115 3 -0.756312 13.4231 4.0271
116 3 -2.31874 11.6575 5.17588
146 2 -4.97655 11.5729 5.42812
155 2 -1.60818 11.02 2.81872
156 2 -1.17082 13.0846 7.67216
117 3 -0.177798 12.9289 1.43039
120 3 0.389107 10.9734 4.8283
268 2 -0.7915 10.2079 1.43347
245 2 -3.05814 10.7971 1.92127
240 1 -2.40544 10.792 1.05855
151 2 2.66953 7.74927 2.59331
208 2 3.20195 7.45648 5.0461
262 2 3.40137 8.1161 0.787497
26 4 -0.110792 13.9931 2.66816
199 2 1.03313 8.89056 2.99531
67 1 1.4438 7.93866 2.50016
205 2 1.17853 9.23336 8.02592
238 4 -0.743496 11.8386 0.408121
198 2 0.985379 7.72818 1.43214
193 2 0.521985 13.742 6.4471
40 4 3.38336 9.5446 7.55914
175 2 -2.35003 7.23513 1.96665
246 2 -1.46054 13.0474 16.1639
228 2 1.42851 12.5023 10.3126
239 4 1.82613 12.0712 13.7282
147 2 1.97735 10.2674 13.4377
244 3 1.08184 12.2965 15.1231
188 2 2.09019 8.55663 11.5502
118 3 -0.916906 10.4048 8.39052
204 2 2.40954 7.82701 8.71097
90 3 -5.11808 12.9348 8.81042
24 4 -0.316437 9.03335 11.98
25 4 -2.47024 11.7197 11.3759
41 4 -0.706733 11.9721 8.87635
64 1 -2.58231 13.0957 12.6408
95 3 -1.61591 10.1943 12.2764
119 3 -1.3893 12.3476 10.2527
191 2 -2.10055 12.8335 13.6347
192 2 -3.67853 13.3468 12.7609
266 2 -2.04034 13.9434 12.0997
187 2 -2.24596 9.26731 10.3456
94 3 -3.89557 11.3309 10.7941
62 1 -2.6283 8.55512 9.51238
235 2 -2.60236 9.17892 13.037
189 2 0.622571 8.89555 13.4981
249 2 0.112438 13.7673 13.1307
63 1 1.47866 9.34695 11.9282
247 2 0.425893 12.1511 11.9119
241 1 0.856081 13.1651 12.5058
69 1 2.03203 8.99128 8.77647
190 2 1.17478 10.3259 11.0038
206 2 1.8124 9.17801 9.87781
78 1 1.18475 12.0858 9.32614
157 2 1.57915 10.9626 9.13668
154 2 1.98554 7.81514 13.0625
93 3 -0.497521 7.59205 11.2613
252 2 3.7771 9.87143 15.5924
230 2 1.40479 12.8207 8.40991
269 2 -1.66714 10.9656 16.3057