ITEM: TIMESTEP
0
ITEM: NUMBER OF ATOMS
274
ITEM: BOX BOUNDS xy xz yz pp pp pp
-6.6999870086222622e+00 1.6194655167295849e+01 -7.1039040113245164e+00
1.4261246741381672e-01 1.4681712468889812e+01 1.1124721699979936e+00
3.6248658245259335e-01 1.6408513417547596e+01 7.5442493630369512e-01
ITEM: ATOMS id type x y z
15 4 -0.417527 4.10491 1.91685
18 4 -1.15341 6.89696 5.77639
86 3 -0.87269 5.26766 6.66561
105 3 0.408914 5.16159 2.82183
70 1 3.7914 7.2302 5.20005
79 3 0.70772 1.66745 4.45165
17 4 0.352941 4.41478 7.3345
83 3 -1.7021 5.02546 0.807426
106 3 0.135508 7.12027 4.68423
56 1 0.632527 3.10699 0.832473
26 4 7.34263 0.285786 2.87562
172 2 1.73559 3.29422 1.27235
34 4 1.13315 6.32382 3.68405
85 3 1.0514 3.31365 6.53506
13 4 1.6612 2.00148 5.65844
27 4 4.40405 2.88624 4.25693
33 4 4.72314 4.91387 2.13427
65 1 6.92835 0.794552 6.60658
96 3 3.08998 2.42578 5.01627
97 3 6.17946 1.28095 2.25025
100 3 5.60963 2.98445 5.26199
103 3 3.98372 4.19862 3.32876
107 3 3.61153 5.51862 1.07791
148 2 4.72874 1.63973 3.19525
28 4 6.17981 2.4343 0.819354
200 2 2.53065 5.80009 4.65121
177 2 1.42197 6.60616 7.23803
195 2 7.02618 0.943833 7.7298
163 2 4.31936 5.53964 5.26734
80 3 1.8387 0.673171 6.66408
58 1 1.84713 5.73844 7.76191
178 2 2.59688 5.12592 7.11835
180 2 -2.57806 7.20016 3.88232
194 2 5.88503 0.516855 6.17705
171 2 0.494655 1.98611 0.676776
104 3 5.73119 3.85056 1.48704
20 4 -0.255283 5.99618 10.6366
84 3 0.000691694 3.82548 8.77264
88 3 -0.0146688 4.96532 11.8713
19 4 0.575198 4.09476 13.131
145 2 1.1577 5.8361 9.57277
114 3 0.959826 7.43031 15.2316
16 4 -0.411929 7.36389 16.0587
170 2 1.6315 4.45055 15.8463
152 2 5.09759 4.31834 9.11429
176 2 2.43449 6.17339 8.59159
203 2 2.99156 3.9515 8.98224
108 3 3.72907 4.1768 9.6623
14 4 1.51905 1.56244 11.6131
29 4 3.95636 2.17173 10.023
31 4 4.89759 3.18247 14.8124
32 4 6.99479 2.34718 10.9054
37 4 5.76795 4.70048 12.0752
87 3 1.154 2.46859 12.993
99 3 3.08358 1.72457 11.2489
101 3 6.26993 2.61245 15.7134
102 3 5.55652 2.06869 10.2495
110 3 5.20393 3.9359 13.4196
197 2 2.46047 2.23265 14.2588
112 3 1.59832 5.2397 14.0267
153 2 4.48721 4.91905 10.9483
149 2 3.57525 3.88039 15.6899
38 4 2.10301 6.7428 14.3186
267 2 3.03612 1.66471 15.9655
66 1 3.38894 2.04777 14.9807
113 3 3.46794 6.8645 15.0202
35 4 4.73727 7.18111 15.8847
150 2 7.24425 1.30282 12.2814
98 3 3.56549 1.53914 8.57469
81 3 0.551054 1.98584 10.4472
93 3 -0.152183 7.51894 11.1223
186 2 -2.38903 7.42443 9.51096
196 2 4.21951 1.11476 14.3969
185 2 -1.62891 5.70584 8.85077
121 3 3.01434 10.0658 6.28338
175 2 -2.09562 7.38724 2.16574
42 4 2.17008 11.0831 5.12365
57 1 -1.42534 7.88611 1.40228
174 2 -0.344712 7.88583 1.76706
11 4 -4.28625 14.0646 7.87784
89 3 -1.38326 8.06634 6.9584
173 2 -1.71469 8.99692 1.31727
21 4 -1.90473 9.21335 7.9439
23 4 -3.28454 11.6246 6.18068
39 4 -0.765793 11.6762 4.48858
91 3 -3.51082 10.1224 6.95583
92 3 -3.09901 12.9057 7.13275
115 3 -0.388361 13.3097 4.27265
116 3 -2.15567 11.6146 5.13744
146 2 -4.80348 11.7656 5.28869
155 2 -1.12722 10.9939 2.93295
156 2 -0.933933 13.0774 7.5337
117 3 0.412716 12.9499 1.60947
120 3 0.562789 11.0727 5.17654
268 2 -0.467813 10.2673 1.50265
245 2 -2.75374 11.111 1.95646
240 1 -1.95709 11.005 1.15057
151 2 2.71151 7.62886 2.63816
208 2 3.5891 7.80958 4.22642
207 2 3.03132 7.48225 5.96626
262 2 3.47208 8.03752 0.514129
199 2 0.929617 8.46851 2.90163
67 1 1.55688 7.5829 2.3769
205 2 1.76751 9.00285 8.12443
238 4 -0.230473 11.9702 0.613032
198 2 1.39944 7.41612 1.29813
193 2 0.681909 13.9904 6.10187
230 2 1.57943 12.5377 7.77691
252 2 2.1012 9.22649 0.890493
261 3 -1.60012 7.74845 15.1033
228 2 1.64755 12.6324 9.77644
239 4 2.2377 12.3395 13.7674
147 2 2.0297 10.5589 13.2756
244 3 1.60817 12.4589 15.2503
188 2 2.52182 8.80837 11.645
154 2 2.11047 7.85679 12.9473
204 2 3.14907 7.82632 8.94502
90 3 -5.03432 13.061 8.93984
24 4 -0.123122 8.9576 11.8356
25 4 -2.13667 11.6848 11.3778
41 4 -0.389148 11.8744 8.7669
64 1 -2.43021 12.68 12.8802
95 3 -1.48487 9.88183 11.947
119 3 -1.00627 12.3424 10.3652
191 2 -2.19851 12.0952 13.8015
192 2 -3.47036 13.0668 12.8077
266 2 -1.58438 13.5413 12.6431
187 2 -2.30011 9.18366 10.373
94 3 -3.6003 11.5741 10.638
62 1 -2.63373 8.61212 9.46044
235 2 -2.52201 9.56435 13.2637
189 2 0.676773 8.92812 13.4422
249 2 0.403421 14.0197 13.5052
63 1 1.69075 9.48511 11.9099
247 2 0.940803 12.7483 11.9434
241 1 1.26001 13.6107 12.8156
69 1 2.70589 8.94249 8.91674
190 2 1.2557 10.3009 10.8357
206 2 2.35575 9.25752 9.98669
78 1 1.44995 12.003 8.86674
157 2 1.9316 10.7716 8.87134
118 3 -0.817924 10.4038 8.47056
269 2 -1.24229 11.4105 16.1887
246 2 -0.874204 13.3523 16.3349
68 1 7.94257 6.16159 8.22079
48 4 5.63951 6.76909 4.45235
223 2 8.36652 6.89799 2.24587
109 3 7.12309 3.66375 7.24359
129 3 5.72162 6.33074 2.89765
131 3 6.94378 6.88806 5.35978
50 4 8.35438 7.04088 6.23851
72 1 10.27 3.31491 8.34677
36 4 6.69739 4.67541 8.33364
202 2 6.21196 6.34516 7.69416
123 3 8.42194 2.79803 5.22474
222 2 8.6442 5.72189 3.73518
273 2 8.72139 0.739997 7.48019
76 1 9.06017 6.6422 3.18856
165 2 8.8524 5.55426 7.30089
122 3 8.71624 1.07921 3.19578
130 3 9.18024 5.31358 0.600067
162 2 10.6889 6.52403 2.69673
47 4 9.9245 4.94827 2.00724
82 3 13.5243 2.96855 2.97648
179 2 11.7797 5.4849 5.02851
59 1 11.9019 6.70053 4.93157
43 4 9.33089 2.38001 4.0105
1 4 13.8529 1.56635 3.752
8 2 11.4236 1.27038 6.69279
128 3 9.61095 3.67771 3.02886
158 2 12.2847 2.13087 5.39645
9 2 10.8112 1.79247 4.62434
161 2 11.5631 4.91991 1.55402
224 2 9.51426 6.39522 5.18395
3 1 12.5768 1.01184 5.15128
159 2 10.0681 3.12567 7.14996
5 3 13.5467 0.39699 2.71237
217 2 6.66497 6.96073 1.60152
254 3 13.7175 1.44065 8.21172
30 4 7.01174 2.70982 5.96173
260 2 8.4146 1.79244 0.646617
7 2 11.8469 0.365623 4.46655
166 2 8.0818 5.08815 9.6086
132 3 6.28489 6.16049 12.3728
51 4 6.98717 6.92428 13.7854
124 3 8.20671 2.07661 9.81493
270 2 13.2272 1.40097 16.382
264 2 13.8219 4.78698 14.8766
234 2 11.8481 6.76303 11.6618
133 3 8.21199 6.20043 14.5458
201 2 8.24287 7.26547 8.54623
257 1 8.98554 3.43039 16.1161
111 3 7.02454 3.82627 11.4003
259 2 8.99513 3.2448 14.9943
134 3 5.96448 7.13481 14.9221
61 1 12.7353 5.4695 9.98463
60 1 13.7747 3.77424 14.2463
183 2 11.8672 6.06138 10.4185
184 2 12.6608 4.37804 10.1752
256 2 9.58293 4.04228 8.86756
181 2 12.8265 3.75056 13.6754
182 2 14.0057 2.73042 14.8537
12 4 14.1455 2.43584 9.42742
44 4 9.36954 1.71664 8.77412
46 4 11.7258 1.8141 11.4905
73 1 10.701 3.08158 12.3015
125 3 12.5994 2.61624 10.4006
10 2 15.3506 1.95103 15.9832
214 2 9.69437 2.80895 11.8428
215 2 11.1817 4.11849 11.984
216 2 10.7866 2.75238 13.4577
232 1 11.8318 6.75542 12.827
127 3 12.4156 1.05723 12.652
271 2 14.4225 0.990301 14.6088
237 2 11.0037 6.06474 13.2818
236 2 12.8809 6.3076 13.1051
49 4 9.3275 7.04041 15.6006
4 1 14.6348 1.01558 15.7134
258 2 9.42094 4.42532 16.4023
126 3 10.4199 0.630813 10.139
213 2 11.3739 3.30761 8.68323
53 4 9.03406 10.1923 7.39928
40 4 3.89016 9.31882 7.43762
212 2 9.04165 7.48118 3.9214
74 1 7.22568 7.44912 0.642593
168 2 6.80812 13.7129 5.89291
242 1 2.90442 9.90355 0.46197
210 2 3.57268 13.0884 4.79743
164 2 5.09144 8.48701 4.5585
2 4 5.93144 13.198 1.52493
52 4 3.71933 10.9514 2.0229
71 1 2.77546 12.8222 5.58172
77 1 8.26027 11.5341 6.42088
135 3 4.79631 12.1195 1.69743
136 3 2.89725 10.8656 3.47577
211 2 3.29865 12.4909 6.57319
225 2 7.18744 11.4577 6.97031
251 2 4.44957 9.42611 1.37091
137 3 8.73987 8.69842 6.86404
250 2 2.38248 11.465 0.725009
255 2 1.87452 13.4852 5.67155
140 3 5.37761 12.8644 8.02247
227 2 8.59956 12.6018 6.43176
274 2 7.9359 8.18948 0.996555
226 2 8.21896 11.1373 5.35591
253 4 5.76274 14.1769 7.27265
209 2 4.77474 7.90074 6.69238
263 2 11.16 7.28634 5.54796
139 3 5.0064 10.2027 8.14513
6 2 7.29596 12.651 0.420591
248 2 2.08949 14.3667 12.4812
144 2 8.80636 13.6727 11.6711
218 2 7.58049 8.6093 15.9205
233 3 10.3513 8.13109 14.7418
160 2 6.0282 13.6319 15.0432
220 2 6.00627 9.22447 11.5076
45 4 5.31945 13.4576 13.482
54 4 4.97007 11.583 8.98557
55 4 6.77174 11.6149 11.5766
75 1 6.63207 9.78593 12.2579
141 3 8.62242 12.1073 11.1791
142 3 5.89203 11.6735 10.2297
143 3 6.26482 12.5087 12.7434
169 2 7.85008 9.67383 12.088
221 2 7.60171 8.50207 13.3612
229 2 3.32472 11.7919 9.40958
243 3 3.86343 12.8375 13.5689
219 2 6.29779 9.81906 13.3592
167 2 4.20507 10.4771 15.4423
22 4 9.55202 11.7665 9.86828
138 3 9.12549 10.4647 8.94864
231 4 11.8358 8.09478 14.1076
265 2 10.8901 8.80149 9.19573
272 2 3.96999 14.2239 9.34484
ITEM: TIMESTEP
100
ITEM: NUMBER OF ATOMS
274
ITEM: BOX BOUNDS xy xz yz pp pp pp
-6.6999870086222622e+00 1.6194655167295849e+01 -7.1039040113245164e+00
1.4261246741381672e-01 1.4681712468889812e+01 1.1124721699979936e+00
3.6248658245259335e-01 1.6408513417547596e+01 7.5442493630369512e-01
ITEM: ATOMS id type x y z
15 4 -0.400932 4.10255 2.05414
18 4 -1.08102 6.8575 6.03394
86 3 -0.870717 5.40041 6.59779
105 3 0.493844 5.30474 2.78067
194 2 5.86832 0.567934 6.25568
79 3 0.748846 1.28575 4.52176
17 4 0.248691 4.39685 7.29296
83 3 -1.67335 5.03769 0.771795
106 3 0.116303 7.1204 4.66068
56 1 0.541686 3.07781 0.816377
171 2 0.094758 1.95377 0.816672
172 2 1.64475 3.18379 1.32184
34 4 1.09596 6.49797 3.55667
85 3 0.782871 3.25239 6.36202
13 4 1.63962 1.91634 5.65387
27 4 4.25185 2.76748 4.21807
33 4 4.82472 5.04257 2.1709
65 1 6.95487 0.705253 6.69821
96 3 3.09321 2.25993 5.10251
97 3 6.04975 1.35665 2.34769
100 3 5.67478 2.86295 4.96203
103 3 4.03045 4.15621 3.45446
107 3 3.78998 5.52268 0.945499
148 2 4.51709 1.55994 3.06684
28 4 6.10777 2.58611 0.968487
200 2 2.63712 6.02598 4.12069
177 2 1.267 6.71053 7.80954
195 2 6.84819 1.09061 7.80725
163 2 4.24466 5.67896 5.22271
80 3 1.62257 0.755091 6.75892
58 1 1.75342 5.65768 7.56325
178 2 2.17955 5.69297 6.51985
26 4 7.41111 0.348943 2.84114
70 1 3.77454 7.24987 5.18072
20 4 -0.194092 5.99639 10.6138
84 3 -0.153651 3.8724 8.78526
88 3 0.212822 5.00003 11.7549
19 4 0.619632 4.12762 13.2039
145 2 1.06037 5.9602 9.36799
114 3 0.89627 7.39173 15.3046
16 4 -0.463826 7.19435 16.1003
170 2 1.56312 4.38673 15.8892
152 2 5.25494 4.38122 9.42311
261 3 -1.73057 7.63892 15.1684
203 2 3.4812 3.92281 8.79168
108 3 3.8354 4.18017 9.74011
14 4 1.5973 1.68067 11.6459
29 4 4.02243 2.12985 10.0101
31 4 4.99477 3.31291 14.6581
32 4 6.95816 2.30378 10.8227
37 4 5.80481 4.73669 12.0492
87 3 1.23837 2.67726 12.802
99 3 3.12644 1.64447 11.2912
101 3 6.2209 3.08508 15.8053
102 3 5.53531 1.92695 10.2597
110 3 5.32441 3.93734 13.282
197 2 2.64134 2.57411 14.1716
112 3 1.73062 5.10971 13.9456
153 2 4.43204 4.86577 11.0303
149 2 3.54134 4.11657 15.3183
38 4 1.96828 6.65137 14.2914
267 2 3.14112 2.03258 15.9162
66 1 3.47024 2.1999 14.822
113 3 3.32337 6.82363 15.0082
35 4 4.59561 7.1767 15.7894
150 2 7.32662 1.24119 12.1439
98 3 3.58208 1.43146 8.59059
81 3 0.628345 1.72326 10.3954
93 3 -0.289467 7.49612 11.1865
186 2 -2.41985 7.39389 9.55734
196 2 3.99453 1.24382 14.4251
176 2 2.39988 5.1789 8.38737
121 3 3.00343 10.1561 6.28911
175 2 -2.02354 7.2504 2.29145
42 4 2.25594 10.9952 5.0183
57 1 -1.40575 7.73329 1.47458
174 2 -0.273609 7.8884 1.79377
11 4 -4.27734 13.9841 7.9207
89 3 -1.38723 8.05786 7.08111
173 2 -1.84076 8.75744 1.11961
21 4 -1.8197 9.27648 7.9528
23 4 -3.36473 11.7355 6.10501
39 4 -0.748464 11.6883 4.38055
91 3 -3.39103 10.4239 7.1006
92 3 -3.14045 13.0265 7.13768
115 3 -0.195302 13.2749 4.14622
116 3 -2.17695 11.5792 5.10549
146 2 -4.95318 11.9193 5.48121
155 2 -0.838087 10.7747 2.90637
156 2 -0.907078 12.8609 7.46645
117 3 0.47989 12.9877 1.56201
120 3 0.431978 10.9598 4.99424
268 2 -0.284259 10.2907 1.39993
245 2 -2.20043 11.4036 2.21395
240 1 -1.83876 11.0514 1.24764
151 2 2.79594 7.76959 2.25276
208 2 3.40052 7.69692 4.18937
207 2 3.07234 7.58235 6.01265
180 2 -2.49425 7.40544 4.00578
199 2 1.19937 8.68097 2.83038
67 1 1.65795 7.78395 2.2505
205 2 1.54401 8.97322 8.11172
238 4 -0.21211 11.9918 0.543972
198 2 1.16303 7.64145 1.22378
193 2 0.572652 13.5814 6.43398
230 2 1.69381 12.5502 8.15299
252 2 1.99819 9.25847 0.591153
269 2 -2.46067 10.1828 0.91983
262 2 3.32771 8.01678 0.38387
246 2 -0.993321 13.1972 16.4058
228 2 1.78045 12.42 10.1288
239 4 2.30199 12.3066 13.8152
147 2 2.28358 10.5643 13.1838
244 3 1.50786 12.4354 15.1619
188 2 2.40163 8.57494 11.5127
118 3 -0.758925 10.4159 8.49977
204 2 2.77039 7.73434 8.87686
90 3 -5.2125 13.0934 9.01306
24 4 -0.128216 9.03415 11.8342
25 4 -2.30006 11.6822 11.2547
41 4 -0.381303 11.877 8.82562
64 1 -2.41308 12.7152 12.7612
95 3 -1.48499 10.0341 11.9637
119 3 -0.950892 12.3602 10.2537
191 2 -2.01959 12.0732 13.6308
192 2 -3.47946 13.1294 12.9673
266 2 -1.64196 13.6207 12.4887
187 2 -2.28057 9.14244 10.2873
94 3 -3.69451 11.535 10.5659
62 1 -2.59711 8.51639 9.38345
235 2 -2.51748 9.18272 12.8478
189 2 0.890058 9.08446 13.4393
249 2 0.463076 13.9872 13.2911
63 1 1.72746 9.39186 11.8907
247 2 0.883296 12.4925 12.0214
241 1 1.29115 13.3978 12.6549
69 1 2.45417 8.81541 8.82772
190 2 1.20871 10.1516 10.8186
206 2 2.18825 9.1139 9.94651
78 1 1.51441 11.8943 9.13903
157 2 1.90728 10.739 9.05151
154 2 1.91629 7.65018 12.8242
68 1 8.07109 5.99353 8.18698
48 4 5.68519 6.89978 4.45132
223 2 8.32001 6.84317 2.27842
109 3 6.90503 3.49726 7.22922
129 3 5.69622 6.42548 2.9541
131 3 7.00649 6.89818 5.40157
50 4 8.4208 7.07023 6.26887
104 3 5.92657 4.13944 1.45376
36 4 6.72328 4.59871 8.33956
202 2 6.36093 6.21823 7.63137
123 3 8.40031 2.63346 5.05184
222 2 8.67294 5.71187 3.80942
273 2 8.79265 0.969941 7.43891
76 1 9.06179 6.62412 3.22393
165 2 9.03875 5.67779 7.3082
122 3 8.95687 0.979418 3.16571
130 3 8.96262 5.07907 0.83106
162 2 10.6488 6.42099 2.82749
47 4 9.96938 4.83884 1.97199
82 3 13.5377 3.02894 3.11722
179 2 11.7426 5.83388 4.7943
59 1 12.028 6.88736 4.98451
43 4 9.37416 2.36149 3.80972
1 4 13.9255 1.4867 3.75128
8 2 11.5414 1.44869 6.76079
128 3 9.58119 3.65182 2.92271
158 2 12.4198 2.3357 5.31465
9 2 10.9364 2.02239 4.49985
161 2 11.569 4.70687 1.33486
224 2 9.61135 6.53485 5.13793
3 1 12.598 1.16883 5.18485
159 2 10.4541 3.11656 7.37919
5 3 13.5484 0.455076 2.58688
217 2 6.61944 7.04321 1.60208
253 4 12.9808 0.556404 7.34501
30 4 7.0275 2.54684 5.93823
260 2 8.47592 1.53688 0.627391
7 2 11.8217 0.634095 4.56855
258 2 8.33659 3.48561 0.475957
166 2 8.1373 4.97273 9.59632
132 3 6.398 6.18781 12.4967
51 4 7.03835 6.88651 13.7958
124 3 8.13311 2.05836 9.81044
270 2 13.1001 1.4268 16.319
264 2 14.0507 4.64509 15.3227
234 2 11.9795 6.84992 11.6865
133 3 8.33105 6.10349 14.4754
201 2 8.30746 7.0105 8.63852
257 1 8.98349 3.18572 16.2598
111 3 7.03039 3.79427 11.3605
259 2 8.65983 3.08183 15.1645
134 3 5.79441 7.29978 14.7661
61 1 12.7385 5.51878 10.1752
60 1 13.8655 3.81815 14.4897
183 2 11.8053 6.0339 10.6057
184 2 12.711 4.40364 10.2817
256 2 9.60533 4.24574 8.75445
181 2 13.036 4.03089 13.7747
182 2 14.0391 2.65367 14.8798
12 4 14.1496 2.40674 9.52836
44 4 9.38123 1.74718 8.91835
46 4 11.6916 1.93197 11.499
73 1 10.6578 3.18519 12.3078
125 3 12.6955 2.57108 10.5485
10 2 15.3656 1.75452 16.0175
214 2 9.621 2.91191 11.8242
215 2 11.0065 4.26905 12.0371
216 2 10.7633 3.04074 13.4555
232 1 11.9091 6.53974 12.7945
127 3 12.2811 1.04937 12.7033
126 3 10.4634 0.668382 10.1845
237 2 10.9063 6.04702 12.96
236 2 12.7991 5.95111 13.2237
49 4 9.33551 7.06626 15.6329
4 1 14.7237 0.876185 15.6469
213 2 11.2682 3.46356 9.03432
72 1 10.3127 3.34566 8.52192
185 2 12.8711 5.77651 9.02653
254 3 13.7096 1.3903 8.42872
271 2 14.6725 0.959789 14.5199
272 2 11.2074 0.583837 9.40629
53 4 9.22998 10.1136 7.58656
40 4 3.73074 9.41915 7.49329
212 2 9.01978 7.60058 3.91076
74 1 7.20417 7.469 0.673485
168 2 6.91787 13.9717 5.93072
242 1 2.91014 9.9482 0.427346
210 2 3.1402 13.2594 4.50958
164 2 5.01823 8.5767 4.64786
2 4 5.79914 13.3355 1.44354
52 4 3.70157 11.0472 1.9649
71 1 2.6216 12.7964 5.36033
77 1 8.17857 11.2103 6.48068
135 3 4.90123 12.0606 1.68688
136 3 2.96545 10.8488 3.44077
211 2 3.20493 12.6084 6.33597
225 2 7.16944 10.9808 7.02518
251 2 4.35103 9.43733 1.2208
137 3 8.88671 8.62412 6.95156
250 2 2.41995 11.6578 0.706862
255 2 1.64793 13.3843 5.5307
140 3 5.28344 12.9248 7.91192
227 2 8.59835 12.3043 6.71601
274 2 7.98969 8.19716 0.983201
226 2 8.24646 10.8083 5.41238
263 2 11.3479 7.46416 5.78146
209 2 4.60485 8.02321 6.78127
139 3 4.81677 10.3022 8.18626
265 2 10.9457 8.69133 9.0888
144 2 8.91488 13.8752 12.1442
218 2 7.60954 8.64227 15.9081
233 3 10.3433 7.97723 14.7056
160 2 5.93481 13.9669 14.9243
220 2 6.01515 9.20092 11.5732
45 4 5.21864 13.4793 13.4363
54 4 4.95638 11.6817 8.91749
55 4 6.78826 11.6344 11.5311
75 1 6.93456 9.75027 12.003
141 3 8.52132 12.1745 11.2827
142 3 5.90164 11.6147 10.2177
143 3 6.03737 12.3021 12.8181
169 2 7.98231 9.51625 11.6384
221 2 7.76967 8.25963 12.9526
229 2 3.42183 12.0755 9.60851
243 3 3.70236 12.9683 13.9553
219 2 6.84541 9.83353 13.1094
167 2 4.22773 10.8422 15.3642
22 4 9.49433 11.9062 10.0507
138 3 8.98563 10.4543 9.07149
231 4 11.8364 7.94569 14.0659
248 2 2.04494 14.039 12.1306
6 2 8.35568 13.3507 16.2354
ITEM: TIMESTEP
200
ITEM: NUMBER OF ATOMS
274
ITEM: BOX BOUNDS xy xz yz pp pp pp
-6.6999870086222622e+00 1.6194655167295849e+01 -7.1039040113245164e+00
1.4261246741381672e-01 1.4681712468889812e+01 1.1124721699979936e+00
3.6248658245259335e-01 1.6408513417547596e+01 7.5442493630369512e-01
ITEM: ATOMS id type x y z
15 4 -0.460408 4.11308 2.07009
18 4 -1.06219 6.99412 5.91397
86 3 -0.927025 5.2222 6.70421
105 3 0.43148 5.33021 2.67418
194 2 5.86844 0.553384 6.38931
79 3 0.682168 1.18711 4.16488
17 4 0.210825 4.245 7.18483
83 3 -1.86082 4.70691 0.986831
106 3 0.349377 7.1245 4.76023
56 1 0.539902 2.95062 0.99511
171 2 0.0830487 1.93247 1.0561
172 2 1.61445 2.96825 1.39248
34 4 1.30107 6.54187 3.6428
85 3 0.878067 3.15141 6.12719
13 4 1.62455 1.8531 5.50447
27 4 4.33019 2.69675 4.06969
33 4 4.91403 5.06554 2.26398
65 1 6.97295 0.820641 6.74204
96 3 2.9917 2.42659 4.85436
97 3 6.10615 1.51574 2.17927
100 3 5.65976 2.59731 4.88935
103 3 4.14485 4.15288 3.36212
107 3 3.91251 5.63791 1.07847
148 2 4.57455 1.48308 2.93292
28 4 6.1879 2.63326 1.05763
200 2 2.91375 6.04584 4.23415
177 2 1.06555 6.46328 7.66715
195 2 7.13219 1.14089 7.85177
163 2 4.54389 5.55034 5.28217
80 3 1.64186 0.706883 6.69552
58 1 1.62813 5.4999 7.63996
178 2 2.30447 5.29967 6.71528
180 2 -2.53961 7.13951 4.00805
70 1 3.79195 7.03368 5.60145
207 2 3.15607 6.8944 6.49929
20 4 -0.263308 6.11975 10.7076
84 3 0.00722157 3.72846 8.74157
88 3 -0.0249098 5.18168 11.9682
19 4 0.754758 4.237 13.1867
145 2 0.95211 6.02932 9.44649
114 3 0.892199 7.28959 15.2867
16 4 -0.504848 7.23583 16.1709
170 2 1.60274 4.10766 15.9817
152 2 5.26921 4.35436 9.11047
261 3 -1.64161 7.58575 15.0413
203 2 3.33726 3.84256 8.8984
108 3 3.90321 4.09446 9.781
14 4 1.60988 1.60237 11.5969
29 4 4.04548 2.06209 10.0456
31 4 4.99103 3.39668 14.7756
32 4 7.04348 2.23459 10.759
37 4 5.91246 4.62417 12.0903
87 3 1.21492 2.50684 12.8034
99 3 3.15423 1.61306 11.3248
101 3 5.96833 3.21308 16.0093
102 3 5.66212 1.77156 10.1926
110 3 5.39602 3.91939 13.374
197 2 2.74519 2.10505 13.9038
112 3 1.80363 5.26508 13.9452
153 2 4.49046 4.90115 11.064
149 2 3.37089 3.89193 15.2254
38 4 2.03323 6.72945 14.3843
267 2 3.34458 1.56996 15.6891
66 1 3.66373 2.00658 14.6923
113 3 3.42263 6.93406 15.0894
35 4 4.76839 7.28907 15.8549
150 2 7.3059 1.22132 12.1511
98 3 3.34929 1.4891 8.65031
81 3 0.750401 1.86968 10.2676
196 2 4.5231 1.28565 14.1836
185 2 -1.50984 5.64261 8.91443
176 2 2.21949 5.23005 8.57036
121 3 2.8557 10.3144 6.19753
175 2 -2.20101 7.50978 2.11438
42 4 2.16342 11.067 4.95807
57 1 -1.4611 7.88147 1.27805
174 2 -0.354865 7.91892 1.71733
11 4 -4.36927 13.9918 7.88936
89 3 -1.13161 8.15443 7.08303
173 2 -1.7531 8.98334 1.05115
21 4 -1.77463 9.33716 8.04638
23 4 -3.22164 11.7859 6.21452
39 4 -0.74549 11.647 4.38922
91 3 -3.35564 10.3583 7.07094
92 3 -3.14631 13.0691 6.99297
115 3 -0.240438 13.1941 4.02099
116 3 -2.16953 11.6588 5.06183
146 2 -4.66441 11.7072 5.33516
155 2 -1.08345 10.8264 2.8796
156 2 -0.830271 12.9184 7.60457
117 3 0.208813 12.9303 1.54765
120 3 0.500944 10.9549 5.02986
268 2 -0.447897 10.2512 1.33871
245 2 -2.52751 11.4081 2.12488
240 1 -2.02689 11.0425 1.14421
151 2 2.77638 7.99364 2.68106
208 2 3.25423 7.6461 4.7489
269 2 -2.63245 10.171 0.711691
262 2 3.52014 8.07022 0.611383
199 2 0.9115 8.72994 2.77804
67 1 1.62251 7.8859 2.35745
205 2 1.47789 9.04674 8.05556
238 4 -0.352403 11.9628 0.513157
198 2 1.40031 7.29965 1.46495
193 2 0.686111 13.8988 6.43812
230 2 1.68482 12.6686 8.30155
26 4 0.273537 14.0118 2.70066
246 2 -1.19176 13.0794 16.1533
228 2 1.68131 12.417 10.2426
239 4 2.22479 12.2641 13.7544
147 2 2.2329 10.4749 13.1368
244 3 1.47112 12.4553 15.1609
188 2 2.60728 8.60991 11.664
118 3 -0.669623 10.3768 8.41086
204 2 2.72367 7.68843 8.62183
90 3 -5.0405 12.9305 8.94964
24 4 -0.132331 9.01375 11.9142
25 4 -2.23881 11.7774 11.3923
41 4 -0.388023 11.8318 8.84284
64 1 -2.46774 13.0881 12.6533
95 3 -1.35177 10.0665 12.1113
119 3 -1.17111 12.2554 10.2628
191 2 -1.80967 12.8393 13.516
192 2 -3.55758 13.1991 12.9366
266 2 -2.06778 13.9773 12.0569
187 2 -2.23678 9.30403 10.4839
94 3 -3.70683 11.5318 10.7575
62 1 -2.59566 8.69907 9.58041
235 2 -2.49799 9.20155 12.9562
189 2 0.748609 9.07722 13.466
249 2 0.475505 13.763 13.429
63 1 1.73002 9.34313 11.8775
247 2 0.60942 12.5823 11.8724
241 1 1.13317 13.2786 12.5537
69 1 2.41348 8.76482 8.77399
190 2 1.40959 10.1327 10.799
206 2 2.22935 8.92181 9.94711
78 1 1.51309 11.9113 9.20734
157 2 1.91772 10.7287 9.0753
154 2 1.9293 7.7386 12.9991
252 2 3.58597 9.95734 15.9833
93 3 -0.362789 7.5914 11.2634
186 2 -2.38641 7.49747 9.71746
68 1 8.01735 6.0595 8.19034
48 4 5.59227 6.97535 4.59196
223 2 8.33569 6.92232 2.3126
109 3 6.96486 3.74035 6.96054
129 3 5.67074 6.62497 3.03128
131 3 7.07516 6.98322 5.55791
50 4 8.44171 7.06175 6.43836
104 3 6.21355 4.11013 1.7553
36 4 6.72171 4.69279 8.17842
202 2 6.31755 6.52589 7.84379
123 3 8.38931 2.44678 5.03468
222 2 8.45277 5.78084 3.87012
273 2 8.81383 0.905104 7.49271
76 1 8.97203 6.63097 3.3213
165 2 9.14666 5.38463 6.97303
122 3 8.7275 1.05232 2.92328
130 3 9.11367 5.19937 0.659347
162 2 10.7096 6.2042 3.00653
47 4 9.7607 4.88239 2.1315
82 3 13.6319 3.20392 3.29556
179 2 11.4816 5.98933 5.47264
260 2 8.46256 1.67765 0.438987
43 4 9.33028 2.15102 3.85735
1 4 13.8791 1.52439 3.69501
8 2 11.5294 1.42179 6.64911
128 3 9.62271 3.49318 3.02042
158 2 12.2463 2.20234 5.21065
9 2 10.8259 1.58581 4.47034
161 2 11.4483 4.52099 1.70205
224 2 9.57636 6.50483 5.20332
3 1 12.6073 1.02807 5.12552
159 2 9.80732 3.57342 7.43098
5 3 13.3645 0.588385 2.52287
59 1 11.9646 7.00087 5.11055
253 4 12.8981 0.481927 7.3698
30 4 7.01817 2.58105 5.82776
213 2 11.5726 3.19576 8.22908
166 2 8.08197 4.86766 9.50434
132 3 6.45425 6.14664 12.437
51 4 6.93674 6.93117 13.7623
124 3 8.26586 1.93936 9.81828
254 3 13.4086 1.49228 8.44954
264 2 14.1491 4.55049 15.3106
234 2 11.4193 6.67812 11.7089
133 3 8.14464 6.2978 14.7659
201 2 8.52202 6.90586 8.76053
257 1 8.94219 3.32194 16.1285
111 3 7.01468 3.7559 11.1815
259 2 8.59948 3.17581 15.0397
134 3 5.90979 7.56371 14.8089
61 1 12.7573 5.56307 10.0509
60 1 14.1652 3.78925 14.4258
183 2 11.8321 6.13906 10.2906
184 2 12.7541 4.46678 10.502
256 2 10.2002 4.13053 9.19158
181 2 13.1684 3.75611 13.8134
182 2 14.4388 2.58842 14.8131
12 4 14.1936 2.38989 9.45094
44 4 9.48764 1.79246 8.8372
46 4 11.6732 1.89173 11.6392
73 1 10.5328 3.23802 12.0715
125 3 12.8039 2.60537 10.7185
10 2 15.5808 1.58727 15.642
214 2 9.53924 3.05088 11.5546
215 2 10.9875 4.25035 11.7541
216 2 10.4462 2.99889 13.2071
232 1 11.6164 6.31805 12.7955
127 3 12.1033 1.04475 12.9456
126 3 10.514 0.679296 10.2983
237 2 10.7339 5.77402 13.3408
236 2 12.6559 5.83439 12.9661
49 4 9.3189 6.94879 15.6598
270 2 13.281 1.36786 16.1251
272 2 11.2374 0.621445 9.47451
72 1 10.4441 3.33678 8.38565
258 2 9.46828 4.3226 16.2342
53 4 9.22806 10.0735 7.51967
40 4 3.69474 9.47099 7.58807
212 2 9.11043 7.55467 3.88907
74 1 7.31774 7.52067 0.714202
168 2 6.91574 14.0078 5.968
217 2 6.67392 7.10677 1.61689
210 2 3.01934 13.1532 4.20143
164 2 4.73011 8.54739 4.76051
2 4 5.85465 13.3351 1.38633
52 4 3.68519 10.9892 1.89062
71 1 2.61561 12.8994 5.17749
77 1 8.34831 11.1814 6.40327
135 3 4.73175 12.156 1.6756
136 3 2.84978 10.7481 3.38781
211 2 3.36448 13.1163 5.94803
225 2 7.2362 11.102 6.77402
251 2 4.38229 9.36892 1.38881
137 3 8.94792 8.55132 7.07191
250 2 2.2359 11.2963 0.737586
255 2 1.57865 13.4284 5.42786
140 3 5.26944 12.8595 7.92781
227 2 8.70079 12.2417 6.43838
274 2 8.21937 8.22573 1.04784
226 2 8.37936 10.7746 5.32483
263 2 11.4299 7.90248 5.53062
209 2 4.74221 8.09538 6.88357
7 2 4.75702 14.0383 4.78761
6 2 7.33886 12.5415 0.429785
265 2 10.9809 8.94037 9.28526
144 2 8.84449 13.7954 12.1532
218 2 7.83154 8.76343 15.9282
233 3 10.3247 7.87498 14.7332
160 2 6.1056 13.4316 15.0291
220 2 7.00181 9.27466 10.7916
45 4 5.22696 13.3625 13.5292
54 4 4.83457 11.8025 9.05646
55 4 6.82068 11.7357 11.4686
75 1 7.03635 9.8167 11.7848
141 3 8.45092 12.3459 11.3973
142 3 5.95512 11.7761 10.1731
143 3 6.13911 12.3537 12.7518
169 2 8.06828 9.72618 12.2309
221 2 7.55354 8.27125 12.8964
229 2 3.34226 12.3034 9.79708
243 3 3.66705 12.7503 13.6228
219 2 6.1689 9.69741 12.6088
167 2 4.78818 11.1257 15.3973
22 4 9.5037 11.7243 9.95693
138 3 8.93606 10.4101 9.17352
231 4 11.7781 7.76915 13.9296
248 2 2.01347 13.9321 12.1196
271 2 7.49865 14.2444 14.4811
242 1 4.27486 10.725 16.2782
4 1 7.68182 14.5353 15.5474
139 3 4.576 10.3833 8.45583
ITEM: TIMESTEP
300
ITEM: NUMBER OF ATOMS
274
ITEM: BOX BOUNDS xy xz yz pp pp pp
-6.6999870086222622e+00 1.6194655167295849e+01 -7.1039040113245164e+00
1.4261246741381672e-01 1.4681712468889812e+01 1.1124721699979936e+00
3.6248658245259335e-01 1.6408513417547596e+01 7.5442493630369512e-01
ITEM: ATOMS id type x y z
15 4 -0.417439 4.17557 2.18619
18 4 -1.02368 6.79511 6.03379
86 3 -0.885813 5.32675 6.56975
105 3 0.570059 5.15094 2.85216
194 2 5.98101 0.49974 6.44297
79 3 0.529834 1.34687 4.26956
17 4 0.266964 4.28603 7.28077
83 3 -1.71382 4.90222 0.954843
106 3 0.22347 7.09115 4.69669
56 1 0.748343 3.24462 1.05225
171 2 0.537109 2.17508 1.45941
172 2 1.8472 3.48229 1.13961
34 4 1.23922 6.44937 3.68964
85 3 0.884891 3.15758 6.24751
13 4 1.56718 1.84454 5.49825
27 4 4.36081 2.77644 3.9878
33 4 5.02511 5.17627 2.29439
65 1 7.06629 0.8272 6.75596
96 3 3.05058 2.25277 4.72035
97 3 6.08469 1.27428 2.1262
100 3 5.59529 2.62795 4.8796
103 3 4.10569 4.37845 3.34372
107 3 4.24193 5.55997 0.996554
148 2 4.6167 1.69434 2.73093
28 4 6.14052 2.73776 0.913214
200 2 2.73386 5.85227 4.50641
177 2 1.50805 6.48843 7.58399
195 2 7.03541 1.23839 7.79886
163 2 4.66328 5.37104 5.44576
80 3 1.8926 0.592204 6.46757
58 1 1.76768 5.40653 7.90244
178 2 2.56285 5.01112 7.16547
59 1 -2.55906 7.04834 4.9472
70 1 3.77662 6.84889 5.76897
207 2 3.12297 6.77004 6.6776
20 4 -0.390197 6.06547 10.7949
84 3 -0.383231 3.74236 8.72964
88 3 0.112871 5.0434 11.9861
19 4 0.777638 4.23271 13.3406
145 2 0.74373 5.99266 9.47928
114 3 0.998183 7.17048 15.3906
16 4 -0.409443 7.31317 15.9503
170 2 1.53164 4.16734 16.0197
152 2 5.32601 4.33181 9.27837
261 3 -1.61862 7.49589 14.8974
203 2 3.30665 3.97745 9.1395
108 3 3.99378 4.06405 9.88479
14 4 1.68422 1.5227 11.59
29 4 4.10374 2.01405 9.9419
31 4 4.96646 3.27124 14.8307
32 4 6.98863 2.26821 10.7126
37 4 5.94248 4.60395 12.2622
87 3 1.35857 2.65296 12.7261
99 3 3.21075 1.53975 11.1866
101 3 6.02194 3.31251 16.0617
102 3 5.68429 1.77581 9.97477
110 3 5.33629 3.79448 13.4467
197 2 2.81333 2.19317 13.9847
112 3 1.93561 5.26727 14.0847
153 2 4.61518 4.77677 11.1795
149 2 3.41705 3.86486 15.3455
38 4 2.20025 6.75279 14.4582
267 2 3.06112 1.60616 15.7533
66 1 3.58594 1.92 14.8191
113 3 3.51477 6.9361 15.2671
35 4 4.83098 7.3688 15.974
150 2 7.33333 0.988141 11.8642
98 3 3.44638 1.50665 8.52473
81 3 0.633614 1.84759 10.3362
196 2 4.31907 1.12226 14.3962
176 2 2.06806 5.29467 8.95843
111 3 6.97318 3.63772 11.4662
121 3 2.87783 10.2094 6.32162
193 2 0.792451 13.7903 6.48624
42 4 2.13728 11.0593 4.89025
57 1 -1.45108 7.67667 1.36996
174 2 -0.409425 7.68042 1.86289
11 4 -4.25774 14.0068 7.74823
89 3 -1.24584 7.97194 7.18653
173 2 -1.75531 8.79277 1.16069
21 4 -1.66413 9.28719 8.01587
23 4 -3.19612 11.6852 6.23168
39 4 -0.790005 11.7066 4.28719
91 3 -3.2668 10.2834 7.1106
92 3 -2.97557 13.0297 7.06998
115 3 -0.544569 13.4151 3.98184
116 3 -2.07122 11.6342 5.17341
146 2 -4.72183 11.6573 5.34989
155 2 -1.3397 10.9416 2.86422
156 2 -0.927085 13.1257 7.68536
117 3 0.114384 12.9086 1.39021
120 3 0.598952 10.9217 4.82783
268 2 -0.692722 10.1496 1.41358
245 2 -2.78551 10.9889 1.91638
240 1 -2.16829 10.7708 1.05888
151 2 2.81769 7.68474 2.59219
208 2 3.22719 7.42206 5.03059
209 2 4.36131 7.93485 7.17282
262 2 3.48448 8.14211 0.789916
199 2 1.23157 8.88291 2.91093
67 1 1.58926 7.85913 2.48952
205 2 1.31419 9.17767 8.09226
238 4 -0.537568 11.8031 0.400559
198 2 1.14163 7.58699 1.42523
180 2 -2.2934 7.27178 3.85875
263 2 -3.04671 7.90839 5.53818
26 4 0.144812 13.9735 2.67199
175 2 -2.15036 7.13075 2.07449
40 4 3.56322 9.53148 7.58474
250 2 2.12006 11.0216 0.750358
118 3 -0.69899 10.4167 8.37887
246 2 -1.16103 13.018 16.0515
228 2 1.57605 12.4767 10.4142
239 4 2.12219 12.0713 13.7045
147 2 2.07962 10.2889 13.3785
244 3 1.34341 12.2982 15.1288
188 2 2.43031 8.68695 11.6809
186 2 -2.35594 7.48847 9.79936
204 2 2.499 7.82594 8.69836
90 3 -4.87359 12.942 8.78995
24 4 -0.227328 9.06122 12.0343
25 4 -2.25701 11.7105 11.3844
41 4 -0.438055 11.982 8.88852
64 1 -2.32714 13.0728 12.6435
95 3 -1.41723 10.0971 12.3143
119 3 -1.16855 12.29 10.2815
191 2 -1.97882 12.7624 13.7011
192 2 -3.40315 13.4852 12.6436
266 2 -1.62103 13.8346 12.158
187 2 -2.10987 9.31338 10.332
94 3 -3.67061 11.3319 10.8009
62 1 -2.46017 8.60064 9.48357
235 2 -2.44546 9.17156 13.0104
189 2 0.720467 9.03079 13.5667
249 2 0.305024 13.787 13.1001
63 1 1.6269 9.37545 11.9619
247 2 0.61776 12.2124 11.9426
241 1 1.07739 13.1418 12.5255
69 1 2.22005 8.92253 8.78845
190 2 1.38412 10.2837 11.1099
206 2 2.05217 9.15521 9.8691
78 1 1.40515 12.089 9.36814
157 2 1.8345 10.8639 9.14797
154 2 2.08258 7.80748 13.0843