ITEM: TIMESTEP
0
ITEM: NUMBER OF ATOMS
366
ITEM: BOX BOUNDS xy xz yz pp pp pp
-8.2538999999999998e+00 1.6741099999999999e+01 -8.2538999999999998e+00
-6.4910000000000001e-01 1.3422400000000000e+01 6.1619999999999997e-01
0.0000000000000000e+00 1.6908999999999999e+01 -6.4910000000000001e-01
ITEM: ATOMS id type q x y z element
3 4 0.670553 1.16937 2.576 5.09234 Si
8 4 1.03124 0.0490267 4.12906 7.43096 Si
64 1 -0.138029 0.759595 3.35019 3.21478 C
65 1 -0.0967934 0.542493 0.589586 5.00657 C
67 1 -0.108177 -1.33403 5.8008 7.15486 C
98 3 -0.723759 0.119082 3.28522 6.02706 O
201 2 0.0310237 -0.346076 3.33421 3.19443 H
202 2 0.000645437 1.211 2.54753 2.62873 H
203 2 0.0367406 1.26352 4.28145 3.27104 H
204 2 0.0442013 1.52213 0.164897 4.89101 H
125 3 -0.663955 1.47596 4.92202 7.7862 O
208 2 0.0807194 -2.23869 5.20449 7.12928 H
291 2 0.0237995 -2.04879 5.52964 2.87176 H
310 1 -0.057121 1.78711 1.23836 7.79395 C
292 2 0.0331928 -2.14837 5.68824 4.68548 H
288 1 -0.142803 -2.22887 6.16742 3.71487 C
205 2 0.0211188 -0.00769945 0.507599 4.07557 H
311 2 0.0943556 0.820545 0.872852 7.68505 H
359 2 0.0125935 -0.784628 5.25471 1.03663 H
339 2 0.0145354 2.08793 1.3579 0.158898 H
355 2 0.124865 0.00961338 0.240783 5.87718 H
317 1 -0.0841594 -1.12502 4.92949 0.0457683 C
209 2 0.0140727 -0.796729 6.16474 6.22259 H
318 2 0.110186 -1.98986 4.30223 0.0113328 H
358 2 0.0215251 -0.599901 2.55862 0.346789 H
312 2 0.105874 2.30062 1.43641 6.87354 H
20 4 1.59802 7.74447 -0.0541686 1.78379 Si
344 2 0.0630666 4.57617 5.16688 0.0512763 H
343 2 0.0288285 4.06973 6.10632 1.45729 H
345 2 0.0455597 2.84663 5.01476 0.651946 H
126 3 -0.692847 5.05651 4.75852 6.73575 O
119 3 -0.873306 7.71957 0.586114 6.6957 O
114 3 -0.672552 2.75729 2.68382 5.4423 O
71 1 -0.114086 4.73798 3.61669 3.61171 C
362 2 0.000665861 2.60772 1.03155 3.08802 H
25 4 1.64693 6.86736 1.77277 5.99868 Si
70 1 -0.118899 3.67621 0.921828 3.21585 C
120 3 -0.704653 5.36466 3.08742 0.0717186 O
342 1 -0.117239 3.7716 5.63999 0.541334 C
217 2 0.0541285 4.3397 1.27719 2.42382 H
241 2 0.125444 2.22436 5.15276 5.51352 H
78 1 -0.0819752 2.51261 6.20408 5.54838 C
341 2 0.0396228 2.81048 2.5173 1.22043 H
118 3 -0.740206 5.28911 1.41834 5.65337 O
219 2 0.0362917 4.53161 3.27928 2.59595 H
218 2 0.0448262 4.22035 4.52254 3.90613 H
216 2 0.102027 3.96058 -0.065005 3.58612 H
115 3 -0.843527 6.95333 1.13099 0.948139 O
21 4 0.742548 4.10527 2.09951 4.81647 Si
220 2 0.0641889 5.74827 3.5623 4.03617 H
29 4 1.58292 5.75322 3.9198 7.94313 Si
338 1 -0.117966 2.41205 2.33341 0.248015 C
361 2 0.0134367 3.80662 0.116335 0.599384 H
6 4 1.37694 1.30162 1.58559 11.0734 Si
10 4 1.51839 -0.0981204 3.65651 13.2124 Si
30 4 0.626533 1.99249 5.77571 9.15051 Si
76 1 -0.0630927 1.41438 4.79126 10.824 C
95 3 -0.812077 -0.0272411 1.3227 10.0668 O
96 3 -0.648596 1.57383 -0.0633884 11.424 O
336 2 0.0757384 1.55513 1.23014 14.2252 H
99 3 -0.798121 -0.935933 2.99962 14.4427 O
100 3 -0.819075 0.715135 2.47924 12.4175 O
319 2 0.0806487 0.239584 4.00179 16.2713 H
102 3 -0.826396 -2.24859 5.98426 10.2216 O
103 3 -0.828401 -0.893896 4.66926 12.2185 O
127 3 -0.729783 1.29752 4.41541 13.7809 O
233 2 0.127986 2.19113 4.04725 11.005 H
234 2 0.122233 0.475883 4.297 10.58 H
235 2 0.0538406 1.37462 5.61925 11.546 H
340 2 0.0399493 2.41708 2.43692 16.7491 H
315 2 0.0152423 0.48952 0.529903 16.0361 H
12 4 1.22804 -1.5883 6.05022 11.687 Si
101 3 -0.760643 -2.81503 5.71061 16.0584 O
314 1 -0.142715 -0.258467 1.04619 16.6565 C
7 4 0.757304 -1.23538 6.00761 16.073 Si
313 2 0.11647 1.97987 2.01045 8.57625 H
97 3 -0.819282 -0.584404 3.38302 8.75402 O
122 3 -0.862705 7.09697 0.314027 12.5742 O
249 2 0.0958729 4.9375 4.08399 11.3054 H
335 2 -0.00372426 2.99448 0.164311 14.7223 H
303 2 0.0270281 4.98975 4.2058 15.0926 H
123 3 -0.822867 4.70975 3.00969 8.8405 O
81 1 -0.113118 4.70287 4.8737 11.995 C
130 3 -0.719575 3.54723 6.15502 9.48837 O
250 2 0.0590208 3.74629 4.74045 12.4574 H
298 1 -0.099783 4.38018 3.36657 14.6538 C
302 2 0.04512 4.67274 2.96782 13.7303 H
297 1 -0.0527053 5.48738 0.197384 14.9789 C
296 4 0.279244 4.82116 1.86574 15.9774 Si
300 2 0.116525 5.41669 0.481282 13.9201 H
334 1 -0.113706 2.49695 0.718067 13.9357 C
299 2 0.119558 6.44436 0.0626792 15.4693 H
337 2 0.0688532 3.23035 1.33235 13.3776 H
24 4 1.47771 4.27992 1.84979 9.94891 Si
27 4 1.2413 6.90698 1.61716 11.6346 Si
304 2 0.0869046 3.30284 3.51801 14.6589 H
116 3 -0.736321 4.06136 0.31834 9.23231 O
117 3 -0.851333 2.71927 2.20988 10.5133 O
121 3 -0.819186 5.34586 1.87415 11.2103 O
301 2 0.0339448 4.79477 -0.56975 15.244 H
15 4 1.15164 -3.0889 9.10492 7.59982 Si
17 4 1.43413 -4.54719 11.2693 5.80474 Si
106 3 -0.755421 -6.04001 11.1548 5.02365 O
107 3 -0.743879 -4.31301 9.97 6.90339 O
108 3 -0.74706 -4.62796 12.4859 6.94244 O
133 3 -0.790675 -3.34244 11.4846 4.641 O
214 2 0.061388 -2.95719 7.47393 5.64675 H
324 1 -0.143151 -6.80305 12.3161 2.47914 C
328 1 -0.0673481 -4.9472 9.8841 0.701713 C
329 2 0.063388 -4.49086 9.81249 1.70469 H
332 1 -0.0828349 -3.69776 12.8153 0.887257 C
333 2 0.0678304 -3.7656 12.4145 1.88889 H
254 2 0.0240101 -2.68821 9.42679 2.69456 H
326 2 0.0285944 -5.78566 12.1616 2.21731 H
293 2 0.0168908 -3.49639 8.03547 1.70347 H
69 1 -0.121272 -2.2635 8.25051 5.94673 C
213 2 0.0547966 -2.09675 9.03108 5.18994 H
331 2 0.0423812 -5.92526 10.3704 0.73632 H
289 1 -0.0811027 -4.38798 7.42475 1.77998 C
104 3 -0.709789 -3.44977 7.75098 8.43052 O
330 2 0.109944 -4.75305 9.05339 0.0479987 H
1 4 1.23351 -5.31551 13.0061 8.31412 Si
360 2 0.127465 -2.67038 13.0675 0.628164 H
327 2 0.0121474 -6.98875 13.2406 2.91001 H
207 2 0.0749836 -1.2252 6.42116 8.0433 H
252 2 0.0390799 1.39328 6.83477 1.60089 H
256 2 0.0885038 -1.8579 10.5107 1.55406 H
240 2 0.052916 2.04068 6.74053 6.34529 H
132 3 -0.833975 -1.64614 12.7475 2.8218 O
83 1 -0.11991 -1.85186 10.0569 2.48907 C
323 2 0.108611 -1.99534 8.82546 0.0591103 H
139 3 -0.844474 0.748337 11.841 7.04778 O
251 2 0.0219264 2.15034 7.08804 3.26802 H
257 2 0.0188489 1.92005 8.7841 6.06593 H
134 3 -0.810497 1.38517 10.1239 0.916872 O
215 2 0.0239838 -1.37422 7.90986 6.39693 H
138 3 -0.845488 -0.703882 11.1266 4.94518 O
322 2 -0.00113386 -1.59539 7.73925 1.43168 H
255 2 0.0411147 -0.887078 9.58974 2.7426 H
258 2 0.0202784 0.327166 8.6399 5.24526 H
38 4 1.28782 0.703034 11.0877 5.63875 Si
321 2 0.10332 -0.332393 8.32822 0.272748 H
230 2 0.0387329 1.48592 8.30139 8.43325 H
259 2 0.0478596 0.438007 8.90202 7.09133 H
354 3 -0.849985 0.0172678 12.2464 0.674976 O
253 2 0.0252632 0.622578 7.96582 2.83671 H
320 1 -0.103286 -1.35909 8.08323 0.450655 C
290 2 0.0133411 -1.79992 7.14217 3.60653 H
35 4 1.17379 -1.85184 11.5428 3.90101 Si
82 1 -0.144546 1.5388 7.54026 2.43121 C
84 1 -0.14152 0.878733 9.00768 6.08119 C
23 4 1.64845 -0.0597448 13.0415 7.85732 Si
239 2 0.0175094 2.5228 6.68925 4.59058 H
4 4 0.703002 -5.99775 12.6054 12.6724 Si
14 4 0.279396 -3.41555 10.5986 16.5435 Si
18 4 1.66682 -2.9553 8.24959 13.3277 Si
19 4 1.5807 -4.18358 10.4633 11.3297 Si
68 1 -0.0932003 -4.79409 10.5473 15.0213 C
105 3 -0.843296 -6.45351 12.0162 8.85055 O
109 3 -0.875281 -3.83485 7.63089 14.546 O
110 3 -0.838229 -2.61621 6.86706 12.5732 O
111 3 -0.872223 -5.69947 10.2217 10.5773 O
112 3 -0.890305 -3.80499 9.25755 12.361 O
113 3 -0.704979 -4.61967 11.8045 12.254 O
137 3 -0.84294 -2.85092 10.8167 10.4949 O
145 3 -0.71125 -1.98344 9.91505 16.1318 O
210 2 0.0749183 -5.20436 9.58677 15.0797 H
211 2 0.114373 -4.12301 10.7452 14.1827 H
212 2 -0.0016349 -5.52491 11.3573 15.207 H
135 3 -0.8183 -1.93148 9.74442 8.47698 O
140 3 -0.883138 1.96764 7.19631 13.373 O
128 3 -0.740424 2.21284 6.32229 15.8826 O
41 4 1.60843 1.36281 10.9261 11.1808 Si
26 4 1.63426 -0.156074 12.7431 13.3185 Si
144 3 -0.847022 -1.05543 11.5879 14.2133 O
146 3 -0.862136 -0.0300051 10.6243 10.2716 O
142 3 -0.902564 -1.6314 9.05833 13.7898 O
231 2 0.0740094 1.51947 7.99689 10.1289 H
136 3 -0.802482 -1.27476 12.3946 8.81141 O
143 3 -0.851388 0.49172 9.76337 15.5776 O
238 2 0.106153 -0.536023 8.47221 11.2365 H
237 2 0.0107896 0.688074 7.06448 11.1614 H
28 4 0.63781 3.77316 6.5673 16.3456 Si
36 4 1.65002 1.44103 10.5024 16.692 Si
37 4 1.57653 -1.50915 10.9146 9.5635 Si
39 4 1.53209 2.76631 8.50281 12.8128 Si
40 4 1.55709 -0.981593 10.0843 14.8428 Si
75 1 -0.109504 1.14074 7.64219 9.22392 C
77 1 -0.0727811 -0.0931993 7.55493 11.6916 C
129 3 -0.7543 -0.261135 6.32599 14.8038 O
236 2 0.153207 0.144079 7.78278 12.7179 H
232 2 0.0457368 0.0508559 7.46514 9.21851 H
147 3 -0.870729 1.86132 9.57313 11.957 O
32 4 1.32604 1.32248 6.21929 14.5023 Si
22 4 1.149 6.85079 2.59153 0.363545 Si
42 4 1.65511 9.05848 1.9203 3.84861 Si
51 4 1.03358 8.96502 6.38891 0.291596 Si
72 1 -0.0936211 7.09892 3.8845 1.98839 C
86 1 -0.0958843 8.63392 5.7142 4.39993 C
87 1 -0.102958 9.54676 4.37206 6.95305 C
124 3 -0.860714 6.78612 2.98435 7.07346 O
149 3 -0.814877 8.81176 0.678612 2.74931 O
150 3 -0.939774 7.70462 2.18891 4.68567 O
164 3 -0.866599 9.41356 3.13121 2.79603 O
168 3 -0.803046 9.66442 5.01168 0.862859 O
221 2 0.107131 7.98834 4.54845 1.87056 H
222 2 0.093291 7.09073 3.18966 2.81186 H
223 2 0.0309826 6.14565 4.38516 1.8742 H
263 2 0.0527055 7.91637 5.25301 5.08521 H
264 2 0.0948632 9.39936 5.03654 4.10576 H
266 2 0.11331 9.05418 3.48048 6.61166 H
268 2 0.0898658 8.83327 4.98567 7.4616 H
267 2 -0.0107312 10.0798 4.81288 6.14737 H
31 4 0.368872 4.52017 6.19452 6.21976 Si
265 2 0.0929334 8.26558 6.2274 3.54971 H
245 2 0.0375628 6.16739 6.18248 4.36603 H
170 3 -0.747041 11.3243 2.3715 7.39189 O
166 3 -0.750346 11.2944 4.85767 3.16532 O
295 2 0.105199 11.7684 6.6474 0.989523 H
260 2 0.0365962 12.6719 4.22485 5.6563 H
316 2 0.0443594 14.5403 1.01572 0.251853 H
261 2 0.0911501 12.5653 3.5239 4.02116 H
363 2 0.022131 14.1247 1.81161 2.48871 H
262 2 0.0628498 13.8335 2.93568 5.14596 H
306 1 -0.110201 13.5021 1.24096 3.11864 C
308 2 0.0712347 12.6727 1.78738 3.43662 H
309 2 0.050622 14.0627 0.793695 3.88335 H
307 3 -0.797304 12.3012 0.538888 0.554889 O
44 4 1.63869 13.4371 0.0324439 7.34874 Si
287 4 0.648068 11.8637 6.33253 3.45354 Si
155 3 -0.847708 10.343 1.76531 4.79362 O
46 4 1.17384 11.5865 1.88207 5.82764 Si
50 4 1.4584 10.4561 4.01583 1.88734 Si
52 4 1.11763 10.9299 3.70485 8.22671 Si
85 1 -0.119409 12.8642 3.36116 5.03985 C
152 3 -0.857966 14.3658 1.2217 7.90752 O
156 3 -0.819997 12.4667 0.614804 6.15029 O
165 3 -0.837946 11.4789 2.92053 1.1486 O
269 2 0.0845668 11.3901 6.35928 7.12448 H
45 4 1.63516 9.49194 1.61657 9.92162 Si
48 4 1.68913 9.66267 1.52751 15.0446 Si
73 1 -0.0994192 7.31617 3.21216 12.994 C
154 3 -0.862117 8.03381 1.7744 10.5441 O
158 3 -0.879017 8.89873 0.348675 14.3285 O
160 3 -0.817711 8.52765 2.19518 16.0166 O
169 3 -0.777101 9.91675 3.11092 9.39654 O
172 3 -0.836232 6.65614 4.9723 8.87043 O
175 3 -0.868988 10.152 2.70327 14.0158 O
180 3 -0.844968 9.85539 4.90423 12.341 O
224 2 0.118941 8.32865 2.94851 13.3053 H
248 2 0.0163399 5.46499 5.26276 12.6632 H
350 1 -0.134156 7.98284 5.40705 15.8993 C
352 2 0.0888478 8.3191 4.49787 15.3736 H
153 3 -0.818684 9.28783 0.480081 8.74038 O
179 3 -0.784883 8.55223 6.08422 10.0932 O
226 2 0.0722464 7.27949 4.11431 12.3452 H
225 2 0.0312959 6.62705 3.09552 13.8088 H
351 2 0.0210812 7.05429 5.2459 16.4566 H
56 4 1.18095 9.82585 6.08893 11.1543 Si
43 4 1.60957 12.2411 1.2002 16.8343 Si
49 4 1.73811 12.3177 1.932 11.2554 Si
55 4 1.66531 10.8979 3.98095 13.1868 Si
5 4 1.16868 14.6183 1.535 14.9644 Si
171 3 -0.850694 11.9522 4.91071 8.50371 O
159 3 -0.814534 10.755 0.95114 16.1459 O
157 3 -0.834601 14.5352 0.125769 14.0905 O
161 3 -0.863779 13.5067 2.22314 10.2045 O
176 3 -0.836908 11.997 3.13675 12.3444 O
163 3 -0.852009 12.7339 0.713184 12.1907 O
151 3 -0.805455 13.2236 1.80066 15.6845 O
162 3 -0.825258 10.8235 1.37649 10.8876 O
177 3 -0.844645 11.4589 5.03104 14.2744 O
2 4 1.63862 14.8812 2.00338 9.26497 Si
9 4 1.44848 12.4386 6.11546 9.49795 Si
47 4 1.67245 13.4911 -0.469708 12.9513 Si
58 4 1.40003 3.33757 11.0995 3.88775 Si
79 1 -0.0463698 4.63814 7.78293 7.53569 C
92 1 -0.0826497 3.29052 10.7469 7.52742 C
131 3 -0.680502 3.49063 8.58831 0.305152 O
183 3 -0.771711 3.41348 9.8188 2.83777 O
184 3 -0.698375 3.38019 12.3838 2.86565 O
185 3 -0.849837 2.01994 11.246 4.77442 O
192 3 -0.795605 4.88228 10.7022 4.98663 O
242 2 0.114011 5.36481 8.45183 7.00542 H
274 2 0.0369107 5.85378 7.85351 2.68873 H
278 2 0.058029 4.18806 10.2108 7.31086 H
279 2 0.134129 3.02243 11.5877 6.88768 H
247 2 0.0363823 4.8497 7.41306 3.93613 H
80 1 -0.104259 5.63721 7.03938 4.67465 C
244 2 0.0321748 3.61696 8.21184 7.6233 H
275 2 0.0846185 5.47784 9.41846 1.84859 H
280 2 0.0388884 2.5264 10.1228 7.86592 H
305 4 0.795667 4.3786 13.2702 1.96922 Si
347 2 0.0430014 5.92857 11.1132 1.81458 H
90 1 -0.0814324 6.05144 8.89098 2.57836 C
34 4 1.04348 2.51696 9.15325 1.56281 Si
282 2 0.0939837 4.28695 11.3383 0.036579 H
349 2 0.0137288 6.54843 12.5543 0.923172 H
276 2 0.108399 6.1525 9.44667 3.50783 H
187 3 -0.701778 8.67568 8.29154 5.74312 O
188 3 -0.829908 9.03125 9.57181 8.32102 O
193 3 -0.857709 6.82595 9.77354 6.64779 O
191 3 -0.855514 7.37358 11.1285 4.47504 O
294 2 0.141391 10.7306 7.81259 2.01663 H
246 2 0.0863464 6.30745 7.81451 5.06718 H
348 2 0.0498982 6.57515 12.4549 2.75639 H
364 2 0.169539 10.5656 8.01012 7.62076 H
194 3 -0.883212 6.12872 12.4062 6.57913 O
346 1 -0.133378 6.12987 12.1949 1.84503 C
13 4 1.1197 8.89355 10.886 3.92298 Si
54 4 0.71329 9.76255 7.17432 5.31897 Si
57 4 0.647612 8.11086 8.77005 1.9954 Si
59 4 1.46444 7.96155 8.77805 7.2602 Si
61 4 1.56837 6.31144 11.0162 5.67967 Si
88 1 -0.0515704 10.4885 6.94823 7.22072 C
174 3 -0.670525 11.1209 7.2935 4.53083 O
181 3 -0.699791 8.5234 7.19651 1.66873 O
182 3 -0.673699 9.18555 9.58947 2.91288 O
186 3 -0.89421 7.39928 7.45951 8.06223 O
325 2 0.0133307 8.61904 12.1089 1.71495 H
91 1 -0.14491 7.9173 9.79639 0.202127 C
366 2 0.0110254 8.15059 10.7692 0.514774 H
270 2 0.0534841 9.68006 6.4283 7.65682 H
33 4 1.05438 4.42561 6.62407 10.77 Si
60 4 1.24339 3.92361 11.5784 9.39693 Si
62 4 1.25543 3.74271 10.8066 14.6846 Si
74 1 -0.100208 4.97704 6.9302 14.7174 C
93 1 -0.108851 5.32821 10.424 15.9285 C
141 3 -0.805119 3.79718 7.76642 11.6953 O
173 3 -0.801348 5.9621 7.12263 10.2931 O
190 3 -0.829122 2.58092 11.5258 10.2845 O
195 3 -0.850627 3.64289 9.37494 13.913 O
196 3 -0.851732 4.20797 11.9152 13.5916 O
197 3 -0.806769 2.61084 11.1468 15.7471 O
199 3 -0.823681 5.16748 10.6898 9.88235 O
200 3 -0.863001 6.177 12.2395 11.8157 O
283 2 0.0277431 6.155 11.0404 15.5955 H
284 2 0.116832 5.18801 9.65211 12.775 H
229 2 0.0670194 4.36443 6.81422 13.8403 H
189 3 -0.828507 4.58069 12.9045 8.75368 O
228 2 0.0748948 5.2615 7.93806 14.8747 H
148 3 -0.840603 0.89356 11.9501 12.3734 O
94 1 -0.0923669 6.20279 9.47345 12.3583 C
281 2 0.055633 5.49104 9.39629 15.7838 H
286 2 0.121475 6.28648 8.59781 11.7332 H
227 2 0.00789587 5.82582 6.25821 14.7723 H
243 2 0.149558 5.02002 7.39028 8.52928 H
11 4 1.53925 11.9331 6.21393 15.3109 Si
53 4 1.51623 7.12784 6.46575 9.30472 Si
178 3 -0.826721 11.1734 6.4383 10.4105 O
365 2 0.0105906 7.54318 9.05079 16.7976 H
285 2 0.0085888 7.07518 9.64026 12.998 H
353 2 0.0221155 8.03581 6.23244 15.2391 H
272 2 0.085979 10.1193 7.81282 13.1629 H
271 2 0.128637 9.63532 8.73841 11.7143 H
206 2 0.0186387 8.56461 11.782 14.5549 H
273 2 0.0179134 8.46037 7.7112 12.7608 H
357 2 0.116415 7.85748 11.6592 12.9376 H
356 2 0.0262349 9.14945 10.4797 13.5293 H
277 2 0.0576787 9.22836 8.68595 16.4441 H
16 4 1.72746 9.26425 10.6393 9.53294 Si
63 4 1.31318 6.39449 10.9996 10.8526 Si
66 1 -0.114492 8.71494 11.4375 13.5669 C
89 1 -0.0848714 9.4512 7.82759 12.3313 C
167 3 -0.804505 10.6757 6.62892 16.3435 O
198 3 -0.883263 7.86365 10.6961 10.3714 O
ITEM: TIMESTEP
100
ITEM: NUMBER OF ATOMS
366
ITEM: BOX BOUNDS xy xz yz pp pp pp
-8.4189779999999992e+00 1.7075921999999998e+01 -8.4189779999999992e+00
-6.4910000000000001e-01 1.3422400000000000e+01 6.2852399999999997e-01
0.0000000000000000e+00 1.6908999999999999e+01 -6.4910000000000001e-01
ITEM: ATOMS id type q x y z element
3 4 0.615323 1.0877 2.56615 5.04356 Si
8 4 1.06559 0.211657 4.14821 7.52085 Si
64 1 -0.146916 0.665259 3.40848 3.2001 C
65 1 -0.0880382 0.542217 0.547165 5.08526 C
67 1 -0.111958 -1.17516 5.60463 6.81645 C
98 3 -0.720719 0.194613 3.25488 6.17163 O
201 2 0.0274809 -0.367984 3.6432 3.28239 H
202 2 0.00216316 0.920209 2.62546 2.5268 H
203 2 0.0309023 1.35108 4.27387 3.24271 H
204 2 0.0859677 1.2897 -0.127838 5.44031 H
125 3 -0.71272 1.50563 4.99472 8.0209 O
208 2 0.0710952 -2.10426 5.03137 6.739 H
291 2 0.015116 -1.9042 5.83546 2.79921 H
310 1 -0.0506669 1.71022 1.14522 7.86919 C
292 2 0.030296 -2.24036 5.45971 4.49087 H
288 1 -0.147534 -2.31179 6.19291 3.72315 C
205 2 0.0112463 0.385559 0.410456 4.03719 H
311 2 0.133831 0.681597 0.69592 7.87822 H
359 2 0.0236842 -0.154098 5.35116 0.723078 H
339 2 0.0169211 2.28224 1.16684 0.272846 H
361 2 0.0134473 3.5388 0.0838003 0.417012 H
317 1 -0.0971417 -0.921458 4.97455 0.0845993 C
209 2 0.0207572 -0.779588 5.9932 5.88359 H
318 2 0.0676698 -1.77638 4.50119 0.557543 H
240 2 0.0596684 1.98149 6.40057 6.34655 H
312 2 0.111607 2.10139 1.45852 6.88288 H
338 1 -0.117893 2.62027 2.15704 0.44386 C
220 2 0.0619437 5.41331 4.22372 4.29288 H
343 2 0.0377514 4.19138 6.21392 1.28499 H
345 2 0.0461842 2.78705 5.28245 0.695524 H
126 3 -0.745307 5.00904 4.79 6.87817 O
119 3 -0.895844 7.3968 0.488127 6.88807 O
114 3 -0.645487 2.69984 2.6582 5.42526 O
71 1 -0.116997 4.81056 3.60931 3.64086 C
362 2 -0.00426716 3.0562 0.85404 2.89101 H
25 4 1.64 6.76471 1.74491 6.1445 Si
70 1 -0.100982 3.9578 0.566569 3.43345 C
29 4 1.70388 5.69352 3.91611 7.99304 Si
342 1 -0.109784 3.68176 5.70707 0.452227 C
217 2 0.107231 4.91783 0.555596 2.9187 H
241 2 0.138063 2.45766 4.8742 5.62924 H
78 1 -0.0779333 2.62213 5.92974 5.58927 C
341 2 0.036687 3.05669 2.30798 1.37297 H
118 3 -0.754627 5.18765 1.6776 5.81394 O
219 2 0.0248204 5.30016 3.00642 2.89389 H
218 2 0.0277836 3.87393 4.08871 3.38067 H
340 2 0.0369705 1.89285 2.86298 0.167121 H
115 3 -0.834191 6.88397 1.01681 1.04272 O
21 4 0.711289 4.0697 2.12671 4.75304 Si
207 2 0.0509691 -1.0651 6.12899 7.76087 H
239 2 0.0131428 2.68949 6.38162 4.55838 H
6 4 1.51926 1.15581 1.48713 11.0084 Si
10 4 1.59639 -0.014636 3.66501 13.1262 Si
30 4 0.688861 2.02919 5.83971 9.28713 Si
76 1 -0.0681866 1.37864 4.74912 10.8742 C
95 3 -0.819128 -0.0659542 1.45405 9.82898 O
96 3 -0.739866 1.65213 0.00654944 11.4898 O
336 2 0.069073 1.54474 1.07565 13.9612 H
99 3 -0.851662 -0.807782 2.95409 14.2746 O
100 3 -0.889823 0.620079 2.48939 12.1523 O
319 2 0.10326 0.0467267 3.74605 16.132 H
102 3 -0.803708 -2.21022 6.01778 10.2352 O
103 3 -0.817378 -0.973014 4.71144 12.3396 O
127 3 -0.779031 1.18043 4.47561 13.995 O
233 2 0.121208 2.31168 4.13158 11.0213 H
234 2 0.142738 0.486143 4.27126 10.4693 H
235 2 0.0295815 1.25152 5.46042 11.6727 H
344 2 0.0545662 4.88668 4.51656 16.5923 H
315 2 0.0265107 0.326792 0.182732 16.0726 H
12 4 1.20713 -1.71278 6.0492 11.7668 Si
101 3 -0.766646 -2.70201 5.67843 16.0003 O
314 1 -0.150448 -0.208936 1.03866 16.5479 C
7 4 0.779676 -1.17475 5.9882 16.0715 Si
313 2 0.118578 1.86337 1.90185 8.62877 H
97 3 -0.772411 -0.612858 3.55764 8.84212 O
122 3 -0.799765 6.93286 0.255038 12.4035 O
249 2 0.120366 4.8762 4.15699 11.217 H
335 2 0.00164796 2.76588 0.264742 15.0984 H
303 2 0.0295746 4.99001 3.9971 14.4754 H
123 3 -0.843525 4.69532 2.99476 8.89604 O
81 1 -0.104806 4.71409 4.94197 11.9369 C
130 3 -0.713426 3.59249 6.05782 9.50907 O
250 2 0.0424213 3.81233 4.85408 12.5509 H
298 1 -0.0983611 4.33591 3.20086 14.4309 C
302 2 0.0598861 4.42258 2.66556 13.4661 H
297 1 -0.0602938 5.30516 0.202182 14.7869 C
296 4 0.284795 4.81775 1.84474 15.9505 Si
300 2 0.104704 5.1817 0.527757 13.7631 H
334 1 -0.127819 2.56756 0.63976 14.0767 C
299 2 0.120278 6.31231 -0.057286 15.0996 H
337 2 0.0449792 3.42168 1.14963 13.6476 H
24 4 1.49017 4.20021 1.86117 9.96112 Si
27 4 1.17394 6.81399 1.66515 11.614 Si
304 2 0.0787139 3.29621 3.39252 14.6574 H
116 3 -0.737521 4.03933 0.311261 9.28397 O
117 3 -0.836119 2.58426 2.16608 10.5029 O
121 3 -0.813073 5.29093 2.05173 11.1902 O
120 3 -0.679047 6.04209 2.46747 16.8348 O
358 2 0.0173622 0.352136 1.92725 16.8634 H
15 4 1.15558 -3.01431 9.0366 7.71192 Si
17 4 1.47986 -4.45484 11.1796 5.83367 Si
106 3 -0.736348 -5.94261 10.9095 5.13154 O
107 3 -0.773189 -4.11248 9.99093 6.99114 O
108 3 -0.765834 -4.75525 12.5982 6.69592 O
133 3 -0.862724 -3.41373 11.5138 4.61188 O
214 2 0.0618102 -2.94666 8.02967 5.4934 H
324 1 -0.160123 -6.699 12.1585 2.32973 C
328 1 -0.0922237 -5.00846 9.82135 0.838368 C
329 2 0.0438088 -4.34186 9.83593 1.67171 H
332 1 -0.101871 -3.97343 12.7893 0.717827 C
333 2 0.0409213 -4.11664 12.4404 1.70983 H
254 2 0.0222336 -2.43245 9.17908 3.30427 H
326 2 0.0177279 -5.64048 12.1213 2.32873 H
293 2 0.0127178 -3.53846 7.92321 1.88241 H
69 1 -0.128746 -2.09639 8.50306 6.00882 C
213 2 0.0774355 -1.731 9.44269 5.60418 H
331 2 0.0314885 -5.99265 10.1584 1.15391 H
289 1 -0.0769179 -4.41029 7.30744 1.79723 C
216 2 0.124526 -4.42274 13.153 4.10488 H
330 2 0.101096 -4.96143 8.90254 0.247166 H
1 4 1.21633 -5.2161 12.9955 8.17474 Si
360 2 0.121955 -2.95722 13.1206 0.580978 H
327 2 0.0139513 -7.1183 13.0896 2.69828 H
230 2 0.0233903 1.429 7.95387 8.25685 H
252 2 0.0532031 0.752454 7.44389 1.37389 H
256 2 0.0523493 -2.67165 10.2985 1.90667 H
20 4 1.53095 -0.514784 13.3412 1.90853 Si
132 3 -0.836487 -1.60548 12.7835 3.03249 O
83 1 -0.119589 -2.03833 9.90744 2.70429 C
323 2 0.0644631 -2.41646 8.57442 0.630259 H
139 3 -0.88256 0.716848 11.8069 7.02492 O
251 2 0.0223736 2.27357 6.73034 2.17741 H
257 2 0.0152798 2.0001 8.9598 6.20346 H
134 3 -0.787362 1.30182 10.1157 0.774355 O
215 2 0.0153898 -1.346 7.76737 6.3867 H
138 3 -0.84311 -0.684393 11.1432 4.9304 O
322 2 0.000310166 -1.13133 7.5304 1.37842 H
255 2 0.0574741 -1.08663 9.6356 2.44802 H
258 2 0.0157499 0.531398 8.50162 5.26776 H
38 4 1.27239 0.790164 11.1213 5.57902 Si
321 2 0.135973 -0.746955 8.72004 0.052724 H
23 4 1.76847 -0.0492542 12.9459 7.87077 Si
259 2 0.0629534 0.352806 9.09831 7.00731 H
354 3 -0.837281 -0.0188242 12.1922 0.881255 O
253 2 0.0229623 1.07958 7.92778 3.12713 H
320 1 -0.0972717 -1.44143 8.08894 0.529815 C
290 2 0.0144881 -1.96007 7.20618 3.88377 H
35 4 1.22457 -1.91595 11.547 3.99687 Si
82 1 -0.134626 1.47691 7.54538 2.16195 C
84 1 -0.139573 0.921954 9.11349 6.10039 C
4 4 0.760475 -5.99124 12.5919 12.7318 Si
14 4 0.331441 -3.47156 10.5022 16.5417 Si
18 4 1.61771 -2.99288 8.26093 13.3694 Si
19 4 1.52906 -4.2091 10.4761 11.4503 Si
68 1 -0.0975292 -4.9074 10.6293 15.1339 C
105 3 -0.810058 -6.1737 11.8043 8.6534 O
109 3 -0.845961 -3.94041 7.71836 14.5801 O
110 3 -0.803414 -2.76689 6.74691 12.7654 O
111 3 -0.80816 -5.45445 10.0363 10.3714 O
112 3 -0.880578 -3.9142 9.12461 12.4086 O
113 3 -0.775208 -4.7275 11.6312 12.4559 O
137 3 -0.844592 -2.76959 10.8919 10.6753 O
145 3 -0.724124 -2.01488 10.0479 16.0399 O
210 2 0.0865099 -5.30151 9.60056 14.9593 H
211 2 0.109617 -4.28092 11.0734 14.3699 H
212 2 -0.0018244 -5.58236 11.2809 15.6041 H
104 3 -0.727164 -3.68675 7.74521 8.47188 O
140 3 -0.854182 1.97378 7.28036 13.3375 O
128 3 -0.698662 2.22801 6.39933 15.8588 O
41 4 1.694 1.30027 10.929 11.1037 Si
26 4 1.66481 -0.135692 12.8058 13.249 Si
144 3 -0.883924 -0.952837 11.6563 14.0438 O
146 3 -0.901239 -0.0626127 10.5728 10.3061 O
142 3 -0.90786 -1.65917 9.02813 13.9045 O
231 2 0.10661 1.61018 8.37959 9.95909 H
136 3 -0.832038 -1.19258 12.2579 8.84571 O
143 3 -0.852721 0.393672 9.91425 15.5643 O
238 2 0.101709 -0.564866 8.35253 11.2862 H
237 2 0.0205233 0.69464 6.96872 11.2965 H
28 4 0.649302 3.79596 6.6481 16.2739 Si
36 4 1.58601 1.39589 10.6452 16.6654 Si
37 4 1.67661 -1.52929 10.8878 9.65284 Si
39 4 1.56024 2.69643 8.56084 12.6229 Si
40 4 1.63697 -1.01069 10.1762 14.8032 Si
75 1 -0.108104 1.11844 7.70934 9.2366 C
77 1 -0.0752236 -0.185918 7.45613 11.7424 C
129 3 -0.689112 -0.390384 6.44149 14.7287 O
236 2 0.155596 0.055911 7.68507 12.8148 H
232 2 0.0560572 0.0562218 7.56238 9.30241 H
147 3 -0.895204 1.65601 9.44372 11.6952 O
32 4 1.24118 1.30639 6.24117 14.4332 Si
301 2 0.0330105 -3.61154 12.8312 15.1119 H
135 3 -0.846548 -1.81341 9.78463 8.47314 O
22 4 1.1081 6.85082 2.52795 0.432389 Si
42 4 1.55678 9.13984 1.75196 4.02033 Si
51 4 1.13927 9.14822 6.29531 0.389042 Si
72 1 -0.094287 7.00486 3.93195 2.00324 C
86 1 -0.0872963 8.58547 5.59099 4.35516 C
87 1 -0.12184 9.33141 4.40691 6.70623 C
124 3 -0.856013 6.80651 2.952 7.24866 O
149 3 -0.769051 8.99461 0.539727 2.91866 O
150 3 -0.88532 7.73349 2.10202 4.84214 O
164 3 -0.85818 9.45556 2.98066 2.93843 O
168 3 -0.806422 9.63584 4.85128 0.936556 O
221 2 0.107271 7.89009 4.47383 1.74989 H
222 2 0.0849362 7.13513 3.32221 2.86265 H
223 2 0.0388092 6.13962 4.56373 1.94396 H
263 2 0.0388231 7.85948 5.69517 5.1204 H
264 2 0.0927128 9.2077 4.68347 4.35081 H
266 2 0.104865 9.11627 3.4259 6.30259 H
268 2 0.0882751 8.51044 4.79771 7.32095 H
267 2 -0.0266198 9.9219 5.03073 6.09593 H
31 4 0.410339 4.59446 6.18372 6.278 Si
265 2 0.104829 8.32041 6.00231 3.38009 H
245 2 0.0304103 5.79185 5.7594 3.83717 H
170 3 -0.746963 11.4281 2.59892 7.38096 O
166 3 -0.793225 11.1706 4.95616 3.10852 O
295 2 0.107947 11.9108 6.41573 1.16721 H
260 2 0.0560751 12.9672 4.08934 5.95661 H
316 2 0.0261106 14.5863 1.40486 0.38514 H
261 2 0.0539031 12.5975 3.636 4.26897 H
363 2 0.00884814 14.5548 1.41901 3.18907 H
262 2 0.0636491 13.9755 2.78895 5.1957 H
306 1 -0.121646 13.519 1.57964 3.04359 C
308 2 0.0656679 13.3111 2.44782 2.43819 H
309 2 0.0584902 12.8731 1.37725 3.88961 H
307 3 -0.802627 12.2322 0.547746 0.585564 O
44 4 1.48554 13.538 -0.0255481 7.37675 Si
287 4 0.644311 11.826 6.39598 3.5088 Si
155 3 -0.824535 10.3143 1.65315 5.11317 O
46 4 1.12041 11.691 1.85698 5.95998 Si
50 4 1.51581 10.4559 3.93528 2.01888 Si
52 4 1.12233 10.6831 3.80065 8.10386 Si
85 1 -0.12354 13.0325 3.31827 5.20652 C
152 3 -0.826834 14.4955 1.27346 7.76476 O
156 3 -0.760992 12.4869 0.435371 6.21282 O
165 3 -0.837397 11.4312 3.00373 1.07627 O
355 2 0.12366 15.7537 0.565548 5.69207 H
269 2 0.0676481 11.1987 6.35977 7.12917 H
305 4 0.800485 12.814 -0.0305426 1.96024 Si
45 4 1.693 9.408 1.60811 9.85529 Si
48 4 1.64365 9.62033 1.58702 15.0844 Si
73 1 -0.090938 7.47467 3.31898 12.8293 C
154 3 -0.823714 7.91796 1.7885 10.4502 O
158 3 -0.905902 8.76231 0.416732 14.268 O
160 3 -0.811771 8.58014 2.1946 16.2041 O
169 3 -0.779208 9.81941 3.07617 9.22806 O
172 3 -0.852544 6.52484 4.99089 8.85854 O
175 3 -0.855099 10.0996 2.78366 14.057 O
180 3 -0.784467 9.72228 4.76875 12.1299 O
224 2 0.122403 8.43222 3.00962 13.0869 H
248 2 0.0229303 5.61015 5.23965 12.4625 H
350 1 -0.100934 8.26287 5.28023 15.8969 C
352 2 0.0913228 8.68001 4.76559 15.0718 H
153 3 -0.882206 9.18667 0.358706 8.83119 O
179 3 -0.820001 8.55803 6.2328 10.1497 O
226 2 0.100263 7.4984 4.17569 12.1787 H
225 2 0.027321 6.8477 3.47434 13.7538 H
351 2 0.0566876 7.54381 4.78399 16.5372 H
56 4 1.22027 9.82673 6.06469 11.1679 Si
43 4 1.65649 12.2305 1.20157 16.7906 Si
49 4 1.69566 12.2247 1.90435 11.3362 Si
55 4 1.50116 10.8544 3.99899 13.1869 Si
5 4 1.28387 14.6469 1.67877 14.9769 Si
47 4 1.67909 13.5965 -0.354227 12.9881 Si
159 3 -0.842648 10.8762 1.01008 15.9439 O
157 3 -0.863297 14.5918 0.388387 14.0517 O
161 3 -0.815092 13.4298 2.17921 10.1997 O
176 3 -0.768754 11.8929 3.35086 11.961 O
163 3 -0.879976 12.6925 0.854026 12.4719 O
151 3 -0.823289 13.2667 1.91039 15.7725 O
162 3 -0.840485 10.7203 1.45421 10.7983 O
177 3 -0.833472 11.3232 5.09848 14.311 O
2 4 1.57004 14.7248 2.13159 9.17396 Si
9 4 1.44854 12.4272 6.07888 9.4581 Si
227 2 0.00828434 5.74638 5.94978 14.675 H
178 3 -0.823376 11.2311 6.2289 10.4706 O
171 3 -0.791668 11.9488 4.88389 8.51176 O
58 4 1.47016 3.41168 11.1513 3.78385 Si
79 1 -0.05174 4.66114 7.90774 7.50293 C
92 1 -0.0857602 3.39096 10.7197 7.50063 C
131 3 -0.683835 3.53123 8.61084 0.304589 O
183 3 -0.804128 3.26457 9.833 2.75363 O
184 3 -0.73932 3.65848 12.4478 2.90039 O
185 3 -0.848122 2.12503 11.3155 4.74113 O
192 3 -0.796693 4.96685 10.8003 4.78607 O
242 2 0.112541 5.231 8.64914 6.94576 H
274 2 0.0601284 5.98716 7.81991 2.27917 H
278 2 0.0726029 4.29863 10.2674 7.09973 H
279 2 0.132025 3.17065 11.6055 6.97232 H
247 2 0.0314274 4.92054 7.33892 4.12914 H
80 1 -0.108962 5.65115 6.6462 4.50662 C
244 2 0.0228672 3.62687 8.13447 7.57391 H
275 2 0.0714785 5.73424 9.5777 1.81875 H
280 2 0.0375218 2.53983 10.0579 7.75016 H
325 2 0.0106049 8.89504 11.7365 1.50959 H
347 2 0.0228365 6.22415 11.7938 1.06663 H
90 1 -0.0647715 6.19209 8.86119 2.47703 C
34 4 1.09558 2.46156 9.22636 1.48058 Si
270 2 0.0709875 9.60951 6.55663 7.94107 H
349 2 0.0102364 7.15262 13.3163 1.40978 H
276 2 0.0997583 6.16197 9.10471 3.50845 H
187 3 -0.685339 8.63701 8.32277 5.73892 O
188 3 -0.861668 8.93459 9.42756 8.33115 O
193 3 -0.848829 6.74611 9.88489 6.6532 O
191 3 -0.859526 7.58511 11.2232 4.43243 O
294 2 0.10247 10.7485 7.76537 1.76753 H
246 2 0.073576 6.56828 7.04736 4.92748 H
348 2 0.0819157 6.71352 12.1158 2.74854 H
364 2 0.189215 10.5671 8.05774 7.51956 H
194 3 -0.870881 6.2126 12.3097 6.53971 O
346 1 -0.139832 6.49438 12.5287 1.77805 C
13 4 1.13659 9.0363 10.8156 3.90832 Si
54 4 0.692629 9.71402 7.15392 5.32297 Si
57 4 0.629245 8.15988 8.69634 1.90126 Si
59 4 1.48979 7.93166 8.85917 7.20444 Si
61 4 1.59054 6.40022 11.0835 5.56163 Si
88 1 -0.0429288 10.3451 6.99921 7.26989 C
174 3 -0.650805 11.117 7.39017 4.59707 O
181 3 -0.735522 8.27225 7.08865 1.55714 O
182 3 -0.659736 9.01941 9.36333 3.18899 O
186 3 -0.865885 7.38645 7.42664 7.86549 O
366 2 0.00799371 8.10696 10.7737 0.329848 H
91 1 -0.154732 7.90405 9.76419 0.116474 C
243 2 0.133211 5.06769 7.52498 8.4075 H
33 4 1.05049 4.50873 6.65691 10.7427 Si
60 4 1.21094 3.9273 11.5915 9.38228 Si
62 4 1.19583 3.7635 10.8005 14.7084 Si
74 1 -0.112671 4.97929 6.64317 14.5292 C
93 1 -0.110033 5.35359 10.4887 15.8868 C
141 3 -0.837177 3.79716 7.85998 11.6689 O
173 3 -0.811164 6.03309 6.93157 10.2625 O
190 3 -0.856517 2.61323 11.4162 10.3405 O
195 3 -0.830836 3.36143 9.48027 13.8296 O
196 3 -0.831727 4.42387 12.0049 13.8004 O
197 3 -0.764271 2.64576 11.3074 15.7744 O
199 3 -0.759493 5.22115 10.7828 9.87629 O