ITEM: TIMESTEP
0
ITEM: NUMBER OF ATOMS
366
ITEM: BOX BOUNDS xy xz yz pp pp pp
-8.2538999999999998e+00 1.6741099999999999e+01 -8.2538999999999998e+00
-6.4910000000000001e-01 1.3422400000000000e+01 6.1619999999999997e-01
0.0000000000000000e+00 1.6908999999999999e+01 -6.4910000000000001e-01
ITEM: ATOMS id type q x y z element
3 4 0.670553 1.16937 2.576 5.09234 Si
8 4 1.03124 0.0490267 4.12906 7.43096 Si
64 1 -0.138029 0.759595 3.35019 3.21478 C
65 1 -0.0967934 0.542493 0.589586 5.00657 C
67 1 -0.108177 -1.33403 5.8008 7.15486 C
98 3 -0.723759 0.119082 3.28522 6.02706 O
201 2 0.0310237 -0.346076 3.33421 3.19443 H
202 2 0.000645437 1.211 2.54753 2.62873 H
203 2 0.0367406 1.26352 4.28145 3.27104 H
204 2 0.0442013 1.52213 0.164897 4.89101 H
125 3 -0.663955 1.47596 4.92202 7.7862 O
208 2 0.0807194 -2.23869 5.20449 7.12928 H
291 2 0.0237995 -2.04879 5.52964 2.87176 H
310 1 -0.057121 1.78711 1.23836 7.79395 C
292 2 0.0331928 -2.14837 5.68824 4.68548 H
288 1 -0.142803 -2.22887 6.16742 3.71487 C
205 2 0.0211188 -0.00769945 0.507599 4.07557 H
311 2 0.0943556 0.820545 0.872852 7.68505 H
359 2 0.0125935 -0.784628 5.25471 1.03663 H
339 2 0.0145354 2.08793 1.3579 0.158898 H
355 2 0.124865 0.00961338 0.240783 5.87718 H
317 1 -0.0841594 -1.12502 4.92949 0.0457683 C
209 2 0.0140727 -0.796729 6.16474 6.22259 H
318 2 0.110186 -1.98986 4.30223 0.0113328 H
358 2 0.0215251 -0.599901 2.55862 0.346789 H
312 2 0.105874 2.30062 1.43641 6.87354 H
20 4 1.59802 7.74447 -0.0541686 1.78379 Si
344 2 0.0630666 4.57617 5.16688 0.0512763 H
343 2 0.0288285 4.06973 6.10632 1.45729 H
345 2 0.0455597 2.84663 5.01476 0.651946 H
126 3 -0.692847 5.05651 4.75852 6.73575 O
119 3 -0.873306 7.71957 0.586114 6.6957 O
114 3 -0.672552 2.75729 2.68382 5.4423 O
71 1 -0.114086 4.73798 3.61669 3.61171 C
362 2 0.000665861 2.60772 1.03155 3.08802 H
25 4 1.64693 6.86736 1.77277 5.99868 Si
70 1 -0.118899 3.67621 0.921828 3.21585 C
120 3 -0.704653 5.36466 3.08742 0.0717186 O
342 1 -0.117239 3.7716 5.63999 0.541334 C
217 2 0.0541285 4.3397 1.27719 2.42382 H
241 2 0.125444 2.22436 5.15276 5.51352 H
78 1 -0.0819752 2.51261 6.20408 5.54838 C
341 2 0.0396228 2.81048 2.5173 1.22043 H
118 3 -0.740206 5.28911 1.41834 5.65337 O
219 2 0.0362917 4.53161 3.27928 2.59595 H
218 2 0.0448262 4.22035 4.52254 3.90613 H
216 2 0.102027 3.96058 -0.065005 3.58612 H
115 3 -0.843527 6.95333 1.13099 0.948139 O
21 4 0.742548 4.10527 2.09951 4.81647 Si
220 2 0.0641889 5.74827 3.5623 4.03617 H
29 4 1.58292 5.75322 3.9198 7.94313 Si
338 1 -0.117966 2.41205 2.33341 0.248015 C
361 2 0.0134367 3.80662 0.116335 0.599384 H
6 4 1.37694 1.30162 1.58559 11.0734 Si
10 4 1.51839 -0.0981204 3.65651 13.2124 Si
30 4 0.626533 1.99249 5.77571 9.15051 Si
76 1 -0.0630927 1.41438 4.79126 10.824 C
95 3 -0.812077 -0.0272411 1.3227 10.0668 O
96 3 -0.648596 1.57383 -0.0633884 11.424 O
336 2 0.0757384 1.55513 1.23014 14.2252 H
99 3 -0.798121 -0.935933 2.99962 14.4427 O
100 3 -0.819075 0.715135 2.47924 12.4175 O
319 2 0.0806487 0.239584 4.00179 16.2713 H
102 3 -0.826396 -2.24859 5.98426 10.2216 O
103 3 -0.828401 -0.893896 4.66926 12.2185 O
127 3 -0.729783 1.29752 4.41541 13.7809 O
233 2 0.127986 2.19113 4.04725 11.005 H
234 2 0.122233 0.475883 4.297 10.58 H
235 2 0.0538406 1.37462 5.61925 11.546 H
340 2 0.0399493 2.41708 2.43692 16.7491 H
315 2 0.0152423 0.48952 0.529903 16.0361 H
12 4 1.22804 -1.5883 6.05022 11.687 Si
101 3 -0.760643 -2.81503 5.71061 16.0584 O
314 1 -0.142715 -0.258467 1.04619 16.6565 C
7 4 0.757304 -1.23538 6.00761 16.073 Si
313 2 0.11647 1.97987 2.01045 8.57625 H
97 3 -0.819282 -0.584404 3.38302 8.75402 O
122 3 -0.862705 7.09697 0.314027 12.5742 O
249 2 0.0958729 4.9375 4.08399 11.3054 H
335 2 -0.00372426 2.99448 0.164311 14.7223 H
303 2 0.0270281 4.98975 4.2058 15.0926 H
123 3 -0.822867 4.70975 3.00969 8.8405 O
81 1 -0.113118 4.70287 4.8737 11.995 C
130 3 -0.719575 3.54723 6.15502 9.48837 O
250 2 0.0590208 3.74629 4.74045 12.4574 H
298 1 -0.099783 4.38018 3.36657 14.6538 C
302 2 0.04512 4.67274 2.96782 13.7303 H
297 1 -0.0527053 5.48738 0.197384 14.9789 C
296 4 0.279244 4.82116 1.86574 15.9774 Si
300 2 0.116525 5.41669 0.481282 13.9201 H
334 1 -0.113706 2.49695 0.718067 13.9357 C
299 2 0.119558 6.44436 0.0626792 15.4693 H
337 2 0.0688532 3.23035 1.33235 13.3776 H
24 4 1.47771 4.27992 1.84979 9.94891 Si
27 4 1.2413 6.90698 1.61716 11.6346 Si
304 2 0.0869046 3.30284 3.51801 14.6589 H
116 3 -0.736321 4.06136 0.31834 9.23231 O
117 3 -0.851333 2.71927 2.20988 10.5133 O
121 3 -0.819186 5.34586 1.87415 11.2103 O
301 2 0.0339448 4.79477 -0.56975 15.244 H
15 4 1.15164 -3.0889 9.10492 7.59982 Si
17 4 1.43413 -4.54719 11.2693 5.80474 Si
106 3 -0.755421 -6.04001 11.1548 5.02365 O
107 3 -0.743879 -4.31301 9.97 6.90339 O
108 3 -0.74706 -4.62796 12.4859 6.94244 O
133 3 -0.790675 -3.34244 11.4846 4.641 O
214 2 0.061388 -2.95719 7.47393 5.64675 H
324 1 -0.143151 -6.80305 12.3161 2.47914 C
328 1 -0.0673481 -4.9472 9.8841 0.701713 C
329 2 0.063388 -4.49086 9.81249 1.70469 H
332 1 -0.0828349 -3.69776 12.8153 0.887257 C
333 2 0.0678304 -3.7656 12.4145 1.88889 H
254 2 0.0240101 -2.68821 9.42679 2.69456 H
326 2 0.0285944 -5.78566 12.1616 2.21731 H
293 2 0.0168908 -3.49639 8.03547 1.70347 H
69 1 -0.121272 -2.2635 8.25051 5.94673 C
213 2 0.0547966 -2.09675 9.03108 5.18994 H
331 2 0.0423812 -5.92526 10.3704 0.73632 H
289 1 -0.0811027 -4.38798 7.42475 1.77998 C
104 3 -0.709789 -3.44977 7.75098 8.43052 O
330 2 0.109944 -4.75305 9.05339 0.0479987 H
1 4 1.23351 -5.31551 13.0061 8.31412 Si
360 2 0.127465 -2.67038 13.0675 0.628164 H
327 2 0.0121474 -6.98875 13.2406 2.91001 H
207 2 0.0749836 -1.2252 6.42116 8.0433 H
252 2 0.0390799 1.39328 6.83477 1.60089 H
256 2 0.0885038 -1.8579 10.5107 1.55406 H
240 2 0.052916 2.04068 6.74053 6.34529 H
132 3 -0.833975 -1.64614 12.7475 2.8218 O
83 1 -0.11991 -1.85186 10.0569 2.48907 C
323 2 0.108611 -1.99534 8.82546 0.0591103 H
139 3 -0.844474 0.748337 11.841 7.04778 O
251 2 0.0219264 2.15034 7.08804 3.26802 H
257 2 0.0188489 1.92005 8.7841 6.06593 H
134 3 -0.810497 1.38517 10.1239 0.916872 O
215 2 0.0239838 -1.37422 7.90986 6.39693 H
138 3 -0.845488 -0.703882 11.1266 4.94518 O
322 2 -0.00113386 -1.59539 7.73925 1.43168 H
255 2 0.0411147 -0.887078 9.58974 2.7426 H
258 2 0.0202784 0.327166 8.6399 5.24526 H
38 4 1.28782 0.703034 11.0877 5.63875 Si
321 2 0.10332 -0.332393 8.32822 0.272748 H
230 2 0.0387329 1.48592 8.30139 8.43325 H
259 2 0.0478596 0.438007 8.90202 7.09133 H
354 3 -0.849985 0.0172678 12.2464 0.674976 O
253 2 0.0252632 0.622578 7.96582 2.83671 H
320 1 -0.103286 -1.35909 8.08323 0.450655 C
290 2 0.0133411 -1.79992 7.14217 3.60653 H
35 4 1.17379 -1.85184 11.5428 3.90101 Si
82 1 -0.144546 1.5388 7.54026 2.43121 C
84 1 -0.14152 0.878733 9.00768 6.08119 C
23 4 1.64845 -0.0597448 13.0415 7.85732 Si
239 2 0.0175094 2.5228 6.68925 4.59058 H
4 4 0.703002 -5.99775 12.6054 12.6724 Si
14 4 0.279396 -3.41555 10.5986 16.5435 Si
18 4 1.66682 -2.9553 8.24959 13.3277 Si
19 4 1.5807 -4.18358 10.4633 11.3297 Si
68 1 -0.0932003 -4.79409 10.5473 15.0213 C
105 3 -0.843296 -6.45351 12.0162 8.85055 O
109 3 -0.875281 -3.83485 7.63089 14.546 O
110 3 -0.838229 -2.61621 6.86706 12.5732 O
111 3 -0.872223 -5.69947 10.2217 10.5773 O
112 3 -0.890305 -3.80499 9.25755 12.361 O
113 3 -0.704979 -4.61967 11.8045 12.254 O
137 3 -0.84294 -2.85092 10.8167 10.4949 O
145 3 -0.71125 -1.98344 9.91505 16.1318 O
210 2 0.0749183 -5.20436 9.58677 15.0797 H
211 2 0.114373 -4.12301 10.7452 14.1827 H
212 2 -0.0016349 -5.52491 11.3573 15.207 H
135 3 -0.8183 -1.93148 9.74442 8.47698 O
140 3 -0.883138 1.96764 7.19631 13.373 O
128 3 -0.740424 2.21284 6.32229 15.8826 O
41 4 1.60843 1.36281 10.9261 11.1808 Si
26 4 1.63426 -0.156074 12.7431 13.3185 Si
144 3 -0.847022 -1.05543 11.5879 14.2133 O
146 3 -0.862136 -0.0300051 10.6243 10.2716 O
142 3 -0.902564 -1.6314 9.05833 13.7898 O
231 2 0.0740094 1.51947 7.99689 10.1289 H
136 3 -0.802482 -1.27476 12.3946 8.81141 O
143 3 -0.851388 0.49172 9.76337 15.5776 O
238 2 0.106153 -0.536023 8.47221 11.2365 H
237 2 0.0107896 0.688074 7.06448 11.1614 H
28 4 0.63781 3.77316 6.5673 16.3456 Si
36 4 1.65002 1.44103 10.5024 16.692 Si
37 4 1.57653 -1.50915 10.9146 9.5635 Si
39 4 1.53209 2.76631 8.50281 12.8128 Si
40 4 1.55709 -0.981593 10.0843 14.8428 Si
75 1 -0.109504 1.14074 7.64219 9.22392 C
77 1 -0.0727811 -0.0931993 7.55493 11.6916 C
129 3 -0.7543 -0.261135 6.32599 14.8038 O
236 2 0.153207 0.144079 7.78278 12.7179 H
232 2 0.0457368 0.0508559 7.46514 9.21851 H
147 3 -0.870729 1.86132 9.57313 11.957 O
32 4 1.32604 1.32248 6.21929 14.5023 Si
22 4 1.149 6.85079 2.59153 0.363545 Si
42 4 1.65511 9.05848 1.9203 3.84861 Si
51 4 1.03358 8.96502 6.38891 0.291596 Si
72 1 -0.0936211 7.09892 3.8845 1.98839 C
86 1 -0.0958843 8.63392 5.7142 4.39993 C
87 1 -0.102958 9.54676 4.37206 6.95305 C
124 3 -0.860714 6.78612 2.98435 7.07346 O
149 3 -0.814877 8.81176 0.678612 2.74931 O
150 3 -0.939774 7.70462 2.18891 4.68567 O
164 3 -0.866599 9.41356 3.13121 2.79603 O
168 3 -0.803046 9.66442 5.01168 0.862859 O
221 2 0.107131 7.98834 4.54845 1.87056 H
222 2 0.093291 7.09073 3.18966 2.81186 H
223 2 0.0309826 6.14565 4.38516 1.8742 H
263 2 0.0527055 7.91637 5.25301 5.08521 H
264 2 0.0948632 9.39936 5.03654 4.10576 H
266 2 0.11331 9.05418 3.48048 6.61166 H
268 2 0.0898658 8.83327 4.98567 7.4616 H
267 2 -0.0107312 10.0798 4.81288 6.14737 H
31 4 0.368872 4.52017 6.19452 6.21976 Si
265 2 0.0929334 8.26558 6.2274 3.54971 H
245 2 0.0375628 6.16739 6.18248 4.36603 H
170 3 -0.747041 11.3243 2.3715 7.39189 O
166 3 -0.750346 11.2944 4.85767 3.16532 O
295 2 0.105199 11.7684 6.6474 0.989523 H
260 2 0.0365962 12.6719 4.22485 5.6563 H
316 2 0.0443594 14.5403 1.01572 0.251853 H
261 2 0.0911501 12.5653 3.5239 4.02116 H
363 2 0.022131 14.1247 1.81161 2.48871 H
262 2 0.0628498 13.8335 2.93568 5.14596 H
306 1 -0.110201 13.5021 1.24096 3.11864 C
308 2 0.0712347 12.6727 1.78738 3.43662 H
309 2 0.050622 14.0627 0.793695 3.88335 H
307 3 -0.797304 12.3012 0.538888 0.554889 O
44 4 1.63869 13.4371 0.0324439 7.34874 Si
287 4 0.648068 11.8637 6.33253 3.45354 Si
155 3 -0.847708 10.343 1.76531 4.79362 O
46 4 1.17384 11.5865 1.88207 5.82764 Si
50 4 1.4584 10.4561 4.01583 1.88734 Si
52 4 1.11763 10.9299 3.70485 8.22671 Si
85 1 -0.119409 12.8642 3.36116 5.03985 C
152 3 -0.857966 14.3658 1.2217 7.90752 O
156 3 -0.819997 12.4667 0.614804 6.15029 O
165 3 -0.837946 11.4789 2.92053 1.1486 O
269 2 0.0845668 11.3901 6.35928 7.12448 H
45 4 1.63516 9.49194 1.61657 9.92162 Si
48 4 1.68913 9.66267 1.52751 15.0446 Si
73 1 -0.0994192 7.31617 3.21216 12.994 C
154 3 -0.862117 8.03381 1.7744 10.5441 O
158 3 -0.879017 8.89873 0.348675 14.3285 O
160 3 -0.817711 8.52765 2.19518 16.0166 O
169 3 -0.777101 9.91675 3.11092 9.39654 O
172 3 -0.836232 6.65614 4.9723 8.87043 O
175 3 -0.868988 10.152 2.70327 14.0158 O
180 3 -0.844968 9.85539 4.90423 12.341 O
224 2 0.118941 8.32865 2.94851 13.3053 H
248 2 0.0163399 5.46499 5.26276 12.6632 H
350 1 -0.134156 7.98284 5.40705 15.8993 C
352 2 0.0888478 8.3191 4.49787 15.3736 H
153 3 -0.818684 9.28783 0.480081 8.74038 O
179 3 -0.784883 8.55223 6.08422 10.0932 O
226 2 0.0722464 7.27949 4.11431 12.3452 H
225 2 0.0312959 6.62705 3.09552 13.8088 H
351 2 0.0210812 7.05429 5.2459 16.4566 H
56 4 1.18095 9.82585 6.08893 11.1543 Si
43 4 1.60957 12.2411 1.2002 16.8343 Si
49 4 1.73811 12.3177 1.932 11.2554 Si
55 4 1.66531 10.8979 3.98095 13.1868 Si
5 4 1.16868 14.6183 1.535 14.9644 Si
171 3 -0.850694 11.9522 4.91071 8.50371 O
159 3 -0.814534 10.755 0.95114 16.1459 O
157 3 -0.834601 14.5352 0.125769 14.0905 O
161 3 -0.863779 13.5067 2.22314 10.2045 O
176 3 -0.836908 11.997 3.13675 12.3444 O
163 3 -0.852009 12.7339 0.713184 12.1907 O
151 3 -0.805455 13.2236 1.80066 15.6845 O
162 3 -0.825258 10.8235 1.37649 10.8876 O
177 3 -0.844645 11.4589 5.03104 14.2744 O
2 4 1.63862 14.8812 2.00338 9.26497 Si
9 4 1.44848 12.4386 6.11546 9.49795 Si
47 4 1.67245 13.4911 -0.469708 12.9513 Si
58 4 1.40003 3.33757 11.0995 3.88775 Si
79 1 -0.0463698 4.63814 7.78293 7.53569 C
92 1 -0.0826497 3.29052 10.7469 7.52742 C
131 3 -0.680502 3.49063 8.58831 0.305152 O
183 3 -0.771711 3.41348 9.8188 2.83777 O
184 3 -0.698375 3.38019 12.3838 2.86565 O
185 3 -0.849837 2.01994 11.246 4.77442 O
192 3 -0.795605 4.88228 10.7022 4.98663 O
242 2 0.114011 5.36481 8.45183 7.00542 H
274 2 0.0369107 5.85378 7.85351 2.68873 H
278 2 0.058029 4.18806 10.2108 7.31086 H
279 2 0.134129 3.02243 11.5877 6.88768 H
247 2 0.0363823 4.8497 7.41306 3.93613 H
80 1 -0.104259 5.63721 7.03938 4.67465 C
244 2 0.0321748 3.61696 8.21184 7.6233 H
275 2 0.0846185 5.47784 9.41846 1.84859 H
280 2 0.0388884 2.5264 10.1228 7.86592 H
305 4 0.795667 4.3786 13.2702 1.96922 Si
347 2 0.0430014 5.92857 11.1132 1.81458 H
90 1 -0.0814324 6.05144 8.89098 2.57836 C
34 4 1.04348 2.51696 9.15325 1.56281 Si
282 2 0.0939837 4.28695 11.3383 0.036579 H
349 2 0.0137288 6.54843 12.5543 0.923172 H
276 2 0.108399 6.1525 9.44667 3.50783 H
187 3 -0.701778 8.67568 8.29154 5.74312 O
188 3 -0.829908 9.03125 9.57181 8.32102 O
193 3 -0.857709 6.82595 9.77354 6.64779 O
191 3 -0.855514 7.37358 11.1285 4.47504 O
294 2 0.141391 10.7306 7.81259 2.01663 H
246 2 0.0863464 6.30745 7.81451 5.06718 H
348 2 0.0498982 6.57515 12.4549 2.75639 H
364 2 0.169539 10.5656 8.01012 7.62076 H
194 3 -0.883212 6.12872 12.4062 6.57913 O
346 1 -0.133378 6.12987 12.1949 1.84503 C
13 4 1.1197 8.89355 10.886 3.92298 Si
54 4 0.71329 9.76255 7.17432 5.31897 Si
57 4 0.647612 8.11086 8.77005 1.9954 Si
59 4 1.46444 7.96155 8.77805 7.2602 Si
61 4 1.56837 6.31144 11.0162 5.67967 Si
88 1 -0.0515704 10.4885 6.94823 7.22072 C
174 3 -0.670525 11.1209 7.2935 4.53083 O
181 3 -0.699791 8.5234 7.19651 1.66873 O
182 3 -0.673699 9.18555 9.58947 2.91288 O
186 3 -0.89421 7.39928 7.45951 8.06223 O
325 2 0.0133307 8.61904 12.1089 1.71495 H
91 1 -0.14491 7.9173 9.79639 0.202127 C
366 2 0.0110254 8.15059 10.7692 0.514774 H
270 2 0.0534841 9.68006 6.4283 7.65682 H
33 4 1.05438 4.42561 6.62407 10.77 Si
60 4 1.24339 3.92361 11.5784 9.39693 Si
62 4 1.25543 3.74271 10.8066 14.6846 Si
74 1 -0.100208 4.97704 6.9302 14.7174 C
93 1 -0.108851 5.32821 10.424 15.9285 C
141 3 -0.805119 3.79718 7.76642 11.6953 O
173 3 -0.801348 5.9621 7.12263 10.2931 O
190 3 -0.829122 2.58092 11.5258 10.2845 O
195 3 -0.850627 3.64289 9.37494 13.913 O
196 3 -0.851732 4.20797 11.9152 13.5916 O
197 3 -0.806769 2.61084 11.1468 15.7471 O
199 3 -0.823681 5.16748 10.6898 9.88235 O
200 3 -0.863001 6.177 12.2395 11.8157 O
283 2 0.0277431 6.155 11.0404 15.5955 H
284 2 0.116832 5.18801 9.65211 12.775 H
229 2 0.0670194 4.36443 6.81422 13.8403 H
189 3 -0.828507 4.58069 12.9045 8.75368 O
228 2 0.0748948 5.2615 7.93806 14.8747 H
148 3 -0.840603 0.89356 11.9501 12.3734 O
94 1 -0.0923669 6.20279 9.47345 12.3583 C
281 2 0.055633 5.49104 9.39629 15.7838 H
286 2 0.121475 6.28648 8.59781 11.7332 H
227 2 0.00789587 5.82582 6.25821 14.7723 H
243 2 0.149558 5.02002 7.39028 8.52928 H
11 4 1.53925 11.9331 6.21393 15.3109 Si
53 4 1.51623 7.12784 6.46575 9.30472 Si
178 3 -0.826721 11.1734 6.4383 10.4105 O
365 2 0.0105906 7.54318 9.05079 16.7976 H
285 2 0.0085888 7.07518 9.64026 12.998 H
353 2 0.0221155 8.03581 6.23244 15.2391 H
272 2 0.085979 10.1193 7.81282 13.1629 H
271 2 0.128637 9.63532 8.73841 11.7143 H
206 2 0.0186387 8.56461 11.782 14.5549 H
273 2 0.0179134 8.46037 7.7112 12.7608 H
357 2 0.116415 7.85748 11.6592 12.9376 H
356 2 0.0262349 9.14945 10.4797 13.5293 H
277 2 0.0576787 9.22836 8.68595 16.4441 H
16 4 1.72746 9.26425 10.6393 9.53294 Si
63 4 1.31318 6.39449 10.9996 10.8526 Si
66 1 -0.114492 8.71494 11.4375 13.5669 C
89 1 -0.0848714 9.4512 7.82759 12.3313 C
167 3 -0.804505 10.6757 6.62892 16.3435 O
198 3 -0.883263 7.86365 10.6961 10.3714 O
ITEM: TIMESTEP
100
ITEM: NUMBER OF ATOMS
366
ITEM: BOX BOUNDS xy xz yz pp pp pp
-8.2538999999999998e+00 1.6741099999999999e+01 -8.2538999999999998e+00
-6.4910000000000001e-01 1.3422400000000000e+01 6.1619999999999997e-01
0.0000000000000000e+00 1.7247180000000000e+01 -6.4910000000000001e-01
ITEM: ATOMS id type q x y z element
3 4 0.615685 1.08768 2.56596 5.04365 Si
8 4 1.06557 0.211679 4.14809 7.52083 Si
64 1 -0.146854 0.66486 3.40825 3.20015 C
65 1 -0.0878071 0.536519 0.54765 5.08486 C
67 1 -0.111923 -1.17512 5.60457 6.81643 C
98 3 -0.720949 0.194905 3.25497 6.17161 O
201 2 0.0275052 -0.368225 3.64334 3.28367 H
202 2 0.00226889 0.918588 2.62518 2.52659 H
203 2 0.0309351 1.35132 4.27316 3.24214 H
204 2 0.0866334 1.27496 -0.129837 5.45831 H
125 3 -0.712881 1.50561 4.99468 8.02088 O
208 2 0.0711849 -2.10419 5.03138 6.73903 H
291 2 0.0151151 -1.90412 5.83529 2.79924 H
310 1 -0.0506232 1.71001 1.14538 7.86872 C
292 2 0.0303456 -2.24039 5.46002 4.49101 H
288 1 -0.147498 -2.31167 6.19304 3.72309 C
205 2 0.0109874 0.401353 0.408613 4.03249 H
311 2 0.133868 0.681303 0.696216 7.87726 H
359 2 0.0237299 -0.153639 5.35092 0.722621 H
339 2 0.0169777 2.28177 1.14863 0.269213 H
340 2 0.0369841 1.8634 2.85215 0.127161 H
317 1 -0.0971105 -0.921455 4.97455 0.0845012 C
209 2 0.0207401 -0.779564 5.99312 5.88356 H
318 2 0.0676086 -1.77636 4.5016 0.557868 H
240 2 0.0596462 1.98151 6.40047 6.34667 H
312 2 0.111565 2.10189 1.45904 6.88281 H
338 1 -0.117601 2.59402 2.15004 0.430219 C
220 2 0.0618875 5.40777 4.22714 4.29739 H
343 2 0.0375816 4.15867 6.22864 1.3032 H
345 2 0.0465205 2.77851 5.28159 0.690519 H
126 3 -0.745382 5.009 4.78976 6.87799 O
119 3 -0.896351 7.39706 0.488399 6.88832 O
114 3 -0.64554 2.69973 2.65745 5.42469 O
71 1 -0.116438 4.81202 3.61046 3.64124 C
362 2 -0.00408859 3.05194 0.853447 2.89893 H
25 4 1.64019 6.76435 1.74477 6.14518 Si
70 1 -0.100471 3.96287 0.572161 3.42979 C
29 4 1.70392 5.69357 3.9162 7.99306 Si
342 1 -0.110137 3.67583 5.71037 0.46009 C
217 2 0.106641 4.91559 0.571294 2.90304 H
241 2 0.137963 2.45763 4.87424 5.62908 H
78 1 -0.0780162 2.62216 5.92977 5.5893 C
341 2 0.0379908 3.00839 2.33445 1.36162 H
118 3 -0.754673 5.18736 1.67774 5.81479 O
219 2 0.026664 5.30274 3.01321 2.89216 H
218 2 0.0280194 3.87403 4.08534 3.37979 H
361 2 0.0136708 3.54901 0.0865696 0.41162 H
115 3 -0.831926 6.90591 1.01734 1.04551 O
21 4 0.7113 4.07064 2.1273 4.7529 Si
207 2 0.0510049 -1.06498 6.12891 7.76085 H
239 2 0.013072 2.68953 6.38183 4.55847 H
6 4 1.51933 1.15577 1.48716 11.0086 Si
10 4 1.59656 -0.0146355 3.66487 13.1267 Si
30 4 0.689156 2.02933 5.83978 9.28702 Si
76 1 -0.0680454 1.37876 4.74896 10.874 C
95 3 -0.819072 -0.0659249 1.45407 9.8289 O
96 3 -0.739721 1.65221 0.00665339 11.4903 O
336 2 0.068705 1.54648 1.07417 13.9671 H
99 3 -0.85192 -0.807571 2.95413 14.2749 O
100 3 -0.889732 0.620294 2.48953 12.1524 O
319 2 0.103304 0.0456219 3.74624 16.1314 H
102 3 -0.803646 -2.21024 6.01776 10.2352 O
103 3 -0.817146 -0.973015 4.71134 12.3397 O
127 3 -0.779128 1.1802 4.47638 13.9953 O
233 2 0.121285 2.31107 4.13146 11.0217 H
234 2 0.142815 0.486204 4.27105 10.4694 H
235 2 0.0295774 1.25156 5.46008 11.6726 H
344 2 0.054343 4.90375 4.51111 16.6182 H
315 2 0.0264444 0.32709 0.183373 16.0733 H
12 4 1.2068 -1.71292 6.04934 11.7669 Si
101 3 -0.766749 -2.70184 5.67848 16 O
314 1 -0.150705 -0.210561 1.03825 16.5487 C
7 4 0.779936 -1.17472 5.98818 16.0714 Si
313 2 0.118583 1.86278 1.90143 8.62837 H
97 3 -0.772439 -0.612904 3.55759 8.84209 O
122 3 -0.79976 6.93268 0.25511 12.4038 O
249 2 0.120409 4.87599 4.15697 11.2171 H
335 2 0.00166518 2.77447 0.263183 15.0969 H
303 2 0.0284754 5.01295 3.99859 14.5048 H
123 3 -0.843629 4.69552 2.99449 8.89596 O
81 1 -0.104735 4.71408 4.94178 11.9371 C
130 3 -0.713576 3.59252 6.05796 9.50924 O
250 2 0.0426447 3.81308 4.85297 12.5522 H
298 1 -0.100273 4.35455 3.20671 14.4483 C
302 2 0.0587009 4.44896 2.673 13.4831 H
297 1 -0.0612942 5.31658 0.214289 14.7959 C
296 4 0.289993 4.823 1.84563 15.9699 Si
300 2 0.104137 5.18898 0.533716 13.7704 H
334 1 -0.127602 2.57074 0.640437 14.0773 C
299 2 0.119693 6.32623 -0.037828 15.1054 H
337 2 0.045737 3.42114 1.15353 13.646 H
24 4 1.49069 4.2002 1.86095 9.96113 Si
27 4 1.17372 6.81381 1.66514 11.6139 Si
304 2 0.078119 3.31296 3.404 14.6618 H
116 3 -0.737413 4.03938 0.311534 9.28348 O
117 3 -0.83596 2.58435 2.16592 10.5029 O
121 3 -0.813041 5.29088 2.05162 11.1897 O
120 3 -0.682772 6.02277 2.44014 16.8889 O
358 2 0.0172214 0.347987 1.92786 16.8658 H
15 4 1.15524 -3.01434 9.03652 7.71179 Si
17 4 1.46723 -4.46268 11.1796 5.84188 Si
106 3 -0.736817 -5.94312 10.9086 5.13181 O
107 3 -0.772547 -4.11442 9.9908 6.99294 O
108 3 -0.767391 -4.75523 12.5941 6.69347 O
133 3 -0.850311 -3.40386 11.5232 4.59563 O
214 2 0.0617779 -2.94539 8.02988 5.49228 H
324 1 -0.159802 -6.69723 12.1588 2.33037 C
328 1 -0.0921639 -5.00806 9.82209 0.838081 C
329 2 0.0439742 -4.34155 9.83628 1.67133 H
332 1 -0.101383 -3.96758 12.7895 0.720187 C
333 2 0.0406498 -4.12533 12.4356 1.70925 H
254 2 0.0222119 -2.43278 9.18422 3.30429 H
326 2 0.0178776 -5.63806 12.1194 2.32615 H
293 2 0.0127951 -3.53824 7.92389 1.88253 H
69 1 -0.128778 -2.09522 8.50353 6.00758 C
213 2 0.0772627 -1.73036 9.44331 5.60312 H
331 2 0.0314551 -5.992 10.1593 1.15392 H
289 1 -0.076938 -4.41009 7.30791 1.79726 C
216 2 0.12816 -4.39247 13.1518 4.10385 H
330 2 0.101094 -4.96084 8.90324 0.247278 H
1 4 1.21476 -5.21526 12.9949 8.17391 Si
360 2 0.124186 -2.93995 13.1237 0.605275 H
327 2 0.0142275 -7.12133 13.0867 2.70809 H
20 4 1.53113 -0.481105 13.342 1.91422 Si
252 2 0.0532266 0.752031 7.44175 1.37349 H
256 2 0.0525439 -2.66956 10.3063 1.90692 H
230 2 0.0234324 1.42885 7.95397 8.25686 H
132 3 -0.83064 -1.60235 12.7857 3.03817 O
83 1 -0.120381 -2.03647 9.91088 2.70299 C
323 2 0.0645212 -2.41672 8.57378 0.630397 H
139 3 -0.883476 0.715945 11.8072 7.02438 O
251 2 0.0221597 2.27029 6.72853 2.18195 H
257 2 0.0149891 1.9991 8.96077 6.20294 H
134 3 -0.78738 1.30174 10.1136 0.772611 O
215 2 0.0154372 -1.34486 7.76817 6.3861 H
138 3 -0.848457 -0.682994 11.1446 4.92858 O
322 2 0.000300314 -1.13135 7.52991 1.37821 H
255 2 0.0568705 -1.0852 9.63768 2.44597 H
258 2 0.0155105 0.530876 8.502 5.26727 H
38 4 1.2773 0.787948 11.1215 5.57898 Si
321 2 0.136142 -0.747217 8.71997 0.0527828 H
23 4 1.76937 -0.0496181 12.9462 7.8711 Si
259 2 0.0628471 0.352 9.09825 7.00677 H
354 3 -0.838666 -0.00964731 12.1892 0.882338 O
253 2 0.0227955 1.07588 7.92898 3.12635 H
320 1 -0.0972479 -1.44152 8.08855 0.529726 C
290 2 0.0145206 -1.95985 7.20637 3.88337 H
35 4 1.22996 -1.90422 11.5478 3.99119 Si
82 1 -0.134798 1.47503 7.54443 2.16276 C
84 1 -0.140018 0.920938 9.11441 6.09977 C
4 4 0.760525 -5.99074 12.5925 12.7323 Si
14 4 0.331348 -3.47105 10.5028 16.542 Si
18 4 1.61824 -2.99265 8.26092 13.3693 Si
19 4 1.52905 -4.20922 10.4762 11.4503 Si
68 1 -0.0975489 -4.90648 10.6302 15.1343 C
105 3 -0.809638 -6.17389 11.8042 8.65341 O
109 3 -0.845874 -3.94032 7.71839 14.5799 O
110 3 -0.803682 -2.7668 6.74709 12.7654 O
111 3 -0.808103 -5.45452 10.0362 10.3714 O
112 3 -0.880562 -3.91422 9.12457 12.4086 O
113 3 -0.775241 -4.72771 11.6311 12.4558 O
137 3 -0.844349 -2.7696 10.8919 10.6754 O
145 3 -0.72383 -2.01411 10.0476 16.0408 O
210 2 0.0866094 -5.29933 9.60123 14.9582 H
211 2 0.109586 -4.28072 11.0761 14.3707 H
212 2 -0.00185195 -5.58209 11.2805 15.6054 H
104 3 -0.727094 -3.68669 7.74532 8.47163 O
140 3 -0.854334 1.97383 7.28035 13.338 O
128 3 -0.698587 2.22817 6.39852 15.859 O
41 4 1.69412 1.30028 10.929 11.1037 Si
26 4 1.66543 -0.13564 12.8055 13.2488 Si
144 3 -0.883933 -0.952572 11.6564 14.0441 O
146 3 -0.901375 -0.0626231 10.5727 10.3061 O
142 3 -0.908415 -1.65968 9.02832 13.9045 O
231 2 0.106524 1.60992 8.37955 9.95893 H
136 3 -0.832645 -1.19239 12.2579 8.84563 O
143 3 -0.852088 0.393886 9.91025 15.5614 O
238 2 0.101671 -0.564936 8.35266 11.2866 H
237 2 0.0205129 0.694505 6.96864 11.2967 H
28 4 0.648595 3.79648 6.64593 16.2756 Si
36 4 1.58716 1.39808 10.6423 16.6626 Si
37 4 1.67664 -1.52899 10.8882 9.65266 Si
39 4 1.56042 2.69652 8.56057 12.623 Si
40 4 1.63704 -1.01114 10.1759 14.8026 Si
75 1 -0.108123 1.11846 7.70939 9.23666 C
77 1 -0.0752162 -0.185965 7.45629 11.7428 C
129 3 -0.689082 -0.389872 6.44151 14.729 O
236 2 0.155685 0.056108 7.6849 12.8148 H
232 2 0.0560446 0.056268 7.56233 9.3025 H
147 3 -0.895094 1.65598 9.44386 11.6951 O
32 4 1.2421 1.30724 6.24091 14.4335 Si
301 2 0.0336112 -3.58954 12.8394 15.1184 H
135 3 -0.846405 -1.81356 9.78486 8.47303 O
22 4 1.11632 6.85684 2.524 0.440782 Si
42 4 1.55197 9.14383 1.75355 4.02392 Si
51 4 1.13855 9.14859 6.29515 0.389399 Si
72 1 -0.0938488 7.01244 3.93259 2.01006 C
86 1 -0.0873988 8.58561 5.59123 4.35523 C
87 1 -0.121832 9.33145 4.40691 6.70624 C
124 3 -0.856037 6.80701 2.95229 7.24869 O
149 3 -0.775726 9.00022 0.532497 2.91636 O
150 3 -0.883458 7.73225 2.10297 4.84226 O
164 3 -0.857659 9.45626 2.98143 2.93828 O
168 3 -0.80752 9.63794 4.85125 0.935091 O
221 2 0.106456 7.89649 4.46935 1.75779 H
222 2 0.0855549 7.13962 3.33298 2.87649 H
223 2 0.03936 6.15476 4.57306 1.95555 H
263 2 0.038792 7.86023 5.6961 5.121 H
264 2 0.0926994 9.20635 4.6827 4.3502 H
266 2 0.104999 9.11633 3.42579 6.30288 H
268 2 0.0882509 8.51041 4.79779 7.32067 H
267 2 -0.0265537 9.9219 5.03073 6.09576 H
31 4 0.4101 4.59453 6.18365 6.27807 Si
265 2 0.104737 8.32153 6.00466 3.38075 H
245 2 0.0303421 5.79132 5.75963 3.83713 H
170 3 -0.746625 11.4288 2.59908 7.38238 O
166 3 -0.793553 11.1709 4.95593 3.10789 O
295 2 0.107844 11.9114 6.41618 1.16734 H
260 2 0.0560422 12.9677 4.0886 5.95571 H
316 2 0.0262906 14.5823 1.40366 0.383432 H
261 2 0.0538501 12.598 3.63471 4.26872 H
363 2 0.00891261 14.5442 1.39045 3.1729 H
262 2 0.0635867 13.9768 2.78898 5.19501 H
306 1 -0.121428 13.51 1.56985 3.03936 C
308 2 0.0653977 13.3133 2.44111 2.43454 H
309 2 0.0576565 12.874 1.38248 3.89492 H
307 3 -0.802675 12.2162 0.551925 0.577056 O
44 4 1.48589 13.5386 -0.0260792 7.37732 Si
287 4 0.644275 11.826 6.39594 3.50861 Si
155 3 -0.825659 10.314 1.65659 5.11627 O
46 4 1.12046 11.6924 1.85753 5.96095 Si
50 4 1.51554 10.4569 3.93647 2.01806 Si
52 4 1.12249 10.683 3.80077 8.10421 Si
85 1 -0.123632 13.0332 3.31728 5.20623 C
152 3 -0.826859 14.4957 1.27326 7.76465 O
156 3 -0.761003 12.4877 0.435523 6.21342 O
165 3 -0.839312 11.431 3.00424 1.07442 O
355 2 0.122938 15.7402 0.57026 5.67622 H
269 2 0.0676766 11.1987 6.35995 7.12911 H
305 4 0.797251 12.7864 -0.029626 1.96126 Si
45 4 1.6938 9.4081 1.60809 9.85483 Si
48 4 1.63861 9.61288 1.58913 15.0889 Si
73 1 -0.0912613 7.4743 3.31923 12.8283 C
154 3 -0.823691 7.91813 1.7885 10.4501 O
158 3 -0.904917 8.76143 0.416098 14.2678 O
160 3 -0.817627 8.56261 2.19707 16.2009 O
169 3 -0.779463 9.81935 3.07597 9.2281 O
172 3 -0.852819 6.5247 4.99093 8.85816 O
175 3 -0.852576 10.1003 2.78464 14.0577 O
180 3 -0.784966 9.7225 4.76836 12.1302 O
224 2 0.122189 8.43353 3.00658 13.0846 H
248 2 0.0229486 5.61028 5.23949 12.4625 H
350 1 -0.101416 8.26316 5.28053 15.8967 C
352 2 0.0910703 8.68083 4.76544 15.072 H
153 3 -0.882638 9.1867 0.358697 8.83117 O
179 3 -0.81975 8.55811 6.23278 10.1499 O
226 2 0.100373 7.49837 4.17692 12.179 H
225 2 0.0262666 6.85109 3.47607 13.7546 H
351 2 0.0552669 7.54436 4.78468 16.5373 H
56 4 1.22026 9.82693 6.0643 11.1682 Si
43 4 1.66324 12.2271 1.20774 16.7845 Si
49 4 1.69565 12.2244 1.90456 11.3362 Si
55 4 1.5019 10.8542 3.9996 13.1867 Si
5 4 1.28499 14.647 1.67929 14.9777 Si
47 4 1.6799 13.5967 -0.353836 12.9878 Si
159 3 -0.844452 10.8729 1.01187 15.9448 O
157 3 -0.863243 14.5919 0.388697 14.0517 O
161 3 -0.814971 13.4298 2.1793 10.1997 O
176 3 -0.768806 11.8923 3.35103 11.9614 O
163 3 -0.879832 12.6924 0.853986 12.4718 O
151 3 -0.825967 13.2668 1.91369 15.7695 O
162 3 -0.840383 10.7199 1.45419 10.7983 O
177 3 -0.833788 11.3231 5.09821 14.3111 O
2 4 1.5698 14.7248 2.13152 9.17371 Si
9 4 1.44836 12.4272 6.07897 9.45809 Si
227 2 0.00798317 5.74766 5.94944 14.6763 H
178 3 -0.823382 11.2311 6.2289 10.4705 O
171 3 -0.791682 11.9489 4.88395 8.51184 O
58 4 1.46935 3.40751 11.145 3.78931 Si
79 1 -0.0517629 4.66107 7.90763 7.50307 C
92 1 -0.0859397 3.39062 10.7198 7.50027 C
131 3 -0.683333 3.53136 8.61201 0.302759 O
183 3 -0.804679 3.26511 9.83053 2.75274 O
184 3 -0.7372 3.63398 12.443 2.90767 O
185 3 -0.850562 2.12212 11.3139 4.74367 O
192 3 -0.798426 4.97192 10.7989 4.78906 O
242 2 0.112516 5.23041 8.64894 6.94558 H
274 2 0.0601871 5.98826 7.82025 2.27817 H
278 2 0.0725337 4.2985 10.2677 7.09948 H
279 2 0.131938 3.17023 11.6056 6.97198 H
247 2 0.0314086 4.92071 7.33944 4.12955 H
80 1 -0.108886 5.65116 6.64639 4.50668 C
244 2 0.0228568 3.62682 8.13447 7.57392 H
275 2 0.0716715 5.73184 9.57685 1.81672 H
280 2 0.0374651 2.53964 10.0578 7.74985 H
325 2 0.0104675 8.9043 11.7268 1.5107 H
347 2 0.0233499 6.20564 11.8027 1.07287 H
90 1 -0.0646191 6.19126 8.86196 2.4753 C
34 4 1.09562 2.46195 9.22514 1.48003 Si
270 2 0.0708893 9.60944 6.55629 7.94085 H
349 2 0.0104995 7.11887 13.3348 1.41764 H
276 2 0.0999511 6.16254 9.10647 3.50647 H
187 3 -0.685376 8.63685 8.32318 5.73904 O
188 3 -0.861878 8.93459 9.42757 8.33129 O
193 3 -0.849479 6.74623 9.8851 6.65329 O
191 3 -0.859419 7.58612 11.2235 4.43218 O
294 2 0.102443 10.7486 7.76557 1.76732 H
246 2 0.073597 6.56855 7.04711 4.92738 H
348 2 0.0813316 6.67987 12.1359 2.75661 H
364 2 0.189269 10.5668 8.05747 7.52025 H
194 3 -0.871769 6.21291 12.3096 6.53967 O
346 1 -0.139272 6.46361 12.5433 1.78267 C
13 4 1.13739 9.03779 10.8156 3.90881 Si
54 4 0.69267 9.71418 7.15444 5.32313 Si
57 4 0.629969 8.16035 8.69728 1.90046 Si
59 4 1.48981 7.93153 8.85918 7.20476 Si
61 4 1.59415 6.40069 11.0834 5.56218 Si
88 1 -0.0429407 10.3451 6.99926 7.26992 C
174 3 -0.650729 11.117 7.39027 4.59707 O
181 3 -0.735304 8.2719 7.08922 1.55776 O
182 3 -0.660086 9.01846 9.36352 3.18801 O
186 3 -0.866087 7.38644 7.42652 7.86577 O
366 2 0.00799044 8.09402 10.7743 0.319982 H
91 1 -0.154897 7.90641 9.76091 0.117978 C
243 2 0.133191 5.06764 7.5249 8.40749 H
33 4 1.05085 4.50875 6.65686 10.7428 Si
60 4 1.21115 3.92737 11.5916 9.38221 Si
62 4 1.19682 3.76488 10.8003 14.7072 Si
74 1 -0.112614 4.97973 6.64174 14.5309 C
93 1 -0.109076 5.35303 10.4888 15.8942 C
141 3 -0.837275 3.79728 7.8598 11.6689 O
173 3 -0.811197 6.03301 6.93167 10.2626 O
190 3 -0.856504 2.61332 11.4161 10.3405 O
195 3 -0.830953 3.36239 9.47938 13.8296 O
196 3 -0.832306 4.42552 12.0048 13.8003 O
197 3 -0.765058 2.64573 11.3045 15.773 O
199 3 -0.759621 5.22112 10.7827 9.87614 O