ITEM: TIMESTEP
0
ITEM: NUMBER OF ATOMS
366
ITEM: BOX BOUNDS xy xz yz pp pp pp
-8.2538999999999998e+00 1.6741099999999999e+01 -8.2538999999999998e+00
-6.4910000000000001e-01 1.3422400000000000e+01 6.1619999999999997e-01
0.0000000000000000e+00 1.6908999999999999e+01 -6.4910000000000001e-01
ITEM: ATOMS id type q x y z
3 4 1.04845 0.749599 2.53725 4.7515
8 4 1.25193 -0.268124 4.12615 7.38832
361 2 0.174421 3.79125 0.210111 0.789359
21 4 1.19168 4.06846 2.06882 4.3792
216 2 0.281726 5.23884 -0.0438768 3.26624
312 2 0.224193 1.44301 0.651529 6.43002
338 1 -0.650029 2.69776 1.89883 0.332566
64 1 -0.675934 0.389807 3.51299 3.25573
65 1 -0.675483 -0.300365 0.843823 4.72323
67 1 -0.674392 -1.62236 5.30462 6.91031
70 1 -0.648046 4.21258 0.341418 3.51385
71 1 -0.669305 4.25101 3.27513 2.87394
78 1 -0.664477 2.68335 5.58658 5.05273
98 3 -0.784774 0.182344 3.275 6.08223
114 3 -0.751314 2.56953 2.11828 4.9398
239 2 0.15992 2.27685 6.52964 4.4098
118 3 -0.78898 5.36939 2.10102 5.24773
119 3 -0.812929 7.06696 0.468544 6.86449
220 2 0.165735 4.93484 4.25601 3.29671
125 3 -0.810142 1.24673 5.27073 7.62026
25 4 1.56011 6.81804 1.91896 6.18165
201 2 0.181556 -0.529041 4.29501 3.45635
202 2 0.1513 0.262563 2.82707 2.32964
203 2 0.151926 1.33507 4.11144 3.17898
290 2 0.158508 -1.40772 6.36583 4.30065
341 2 0.163116 3.25473 2.38239 1.29564
339 2 0.142859 2.24742 0.862993 0.51464
311 2 0.275203 0.556564 0.465143 7.94263
209 2 0.165742 -1.76365 5.41073 5.71722
115 3 -0.8373 6.90401 1.14873 1.23283
217 2 0.144382 3.60257 0.743831 2.58402
218 2 0.146788 3.23259 3.60121 2.45776
219 2 0.177869 4.8244 2.56211 2.18267
342 1 -0.647389 4.28935 5.76455 0.677617
344 2 0.18089 3.53802 4.92431 0.545478
241 2 0.183969 2.67203 4.64241 4.46767
358 2 0.141162 -1.13741 2.04999 0.519852
288 1 -0.664646 -2.05143 5.63986 3.72614
291 2 0.155063 -1.65274 5.40678 2.6242
292 2 0.162448 -2.25009 4.58384 4.25953
359 2 0.192781 -0.931403 4.084 0.193037
310 1 -0.670862 1.45711 0.864818 7.53688
240 2 0.277301 2.15034 5.42471 6.11829
313 2 0.22596 1.6065 1.95907 7.84305
317 1 -0.651678 -1.26032 5.10826 0.672616
318 2 0.145061 -0.485631 5.68341 1.2767
319 2 0.167877 -2.24022 4.95089 1.30111
207 2 0.157217 -1.04685 6.27828 7.28083
204 2 0.199773 0.390637 -0.0501574 4.55457
208 2 0.240452 -2.53531 5.07156 7.50994
126 3 -0.800596 5.0467 4.88624 6.65532
20 4 1.56358 7.99789 -0.0481703 1.90429
6 4 1.60247 1.2072 1.5671 10.988
120 3 -0.765064 5.83985 2.01541 16.4244
334 1 -0.675424 2.01453 0.068142 14.3535
10 4 1.62197 0.00952194 3.84632 13.0148
315 2 0.15846 0.892282 2.38166 16.4856
24 4 1.55944 4.02449 1.98382 9.73035
336 2 0.165857 2.61437 1.11235 14.1785
27 4 1.39968 6.76524 1.67216 11.861
299 2 0.239145 6.06347 -0.451071 15.2577
76 1 -0.66199 1.28473 5.20729 10.3996
81 1 -0.679038 4.6492 5.24267 11.5352
95 3 -0.863909 -0.0623328 1.32655 10.0923
96 3 -0.829371 1.58661 0.222332 11.8365
7 4 1.22145 -0.851382 6.02202 16.3553
99 3 -0.847503 -0.824699 3.06843 14.1602
100 3 -0.825889 0.734817 2.80431 12.0749
335 2 0.19313 0.881524 0.184314 14.2679
102 3 -0.817511 -2.63625 5.76237 10.208
103 3 -0.844825 -0.988952 4.84171 12.3048
116 3 -0.811635 3.94218 0.624618 8.7693
117 3 -0.889015 2.5135 2.22975 10.3089
121 3 -0.784553 5.21653 1.8645 10.9046
122 3 -0.835599 6.96598 0.420627 12.784
123 3 -0.810764 4.51701 3.23856 8.80251
127 3 -0.834556 1.36134 4.70478 13.6316
12 4 1.43292 -1.83432 6.07459 11.6203
233 2 0.268315 1.79778 4.20142 10.3907
234 2 0.196985 0.1478 5.10282 10.1316
235 2 0.197287 1.43914 5.8271 11.4054
249 2 0.237826 4.83097 4.34489 10.7173
316 2 0.160349 0.404039 0.62328 15.9142
296 4 0.933275 4.57853 1.5112 15.7262
297 1 -0.629188 4.93718 -0.157102 14.9346
298 1 -0.691079 3.73486 2.7669 14.2909
97 3 -0.793508 -0.951298 3.34677 8.66452
300 2 0.212604 4.85709 0.253377 13.8534
32 4 1.53585 1.63711 6.02796 14.4057
302 2 0.174106 4.04216 2.35408 13.317
303 2 0.19836 4.2849 3.68872 14.4734
304 2 0.221229 2.66156 2.87871 14.376
226 2 0.163175 5.57732 3.02878 13.5383
314 1 -0.683805 0.066314 1.63744 16.3228
30 4 1.1948 1.81894 6.07833 8.79003
250 2 0.199966 3.67029 5.08349 12.0804
340 2 0.145091 2.56033 1.97869 16.7232
128 3 -0.783809 3.07117 5.86265 15.5123
101 3 -0.827545 -2.43794 6.0597 15.9269
337 2 0.144204 2.4113 -0.455531 15.2841
332 1 -0.633837 -3.86885 12.6506 1.00593
15 4 1.34143 -2.98792 9.04523 7.59242
17 4 1.56422 -4.32561 11.1234 5.80397
293 2 0.173971 -2.95669 7.55564 1.53495
35 4 1.42889 -1.63035 11.3571 4.11044
244 2 0.166305 3.3279 7.65286 6.48333
69 1 -0.673583 -2.27953 8.16884 6.08704
82 1 -0.677898 1.74234 8.08731 3.22384
83 1 -0.68781 -1.89184 9.59773 3.23325
84 1 -0.671244 1.18089 9.48962 6.03294
106 3 -0.786944 -5.55332 10.975 4.6638
107 3 -0.855971 -4.02006 9.93827 6.84062
108 3 -0.784462 -4.79428 12.4634 6.60652
132 3 -0.822341 -1.40425 12.438 2.91722
133 3 -0.840883 -2.89747 11.4984 5.02224
134 3 -0.815748 1.08481 10.0632 1.22427
138 3 -0.84017 -0.265792 11.295 4.83323
213 2 0.183194 -2.2875 8.81309 5.09202
214 2 0.205579 -2.99305 7.30867 5.96145
215 2 0.156512 -1.24116 7.87058 6.37058
230 2 0.181439 0.968781 8.35223 7.71934
326 2 0.153408 -5.83754 13.1094 3.04575
331 2 0.25248 -5.45829 9.87731 1.80516
289 1 -0.662457 -3.98181 7.02737 1.83294
252 2 0.148606 1.90135 7.14054 2.59073
253 2 0.162361 0.685113 8.37562 3.51481
254 2 0.184626 -1.81072 9.95007 2.13009
255 2 0.166841 -2.9286 9.24177 3.54086
256 2 0.157378 -0.990688 9.01712 3.68775
1 4 1.41582 -5.38804 13.0877 8.09211
258 2 0.168384 1.38489 8.94306 4.99611
259 2 0.187238 0.0844386 9.32875 6.44389
330 2 0.209593 -4.52368 9.00526 0.503225
327 2 0.156827 -7.93082 13.2241 2.87623
360 2 0.2493 -2.75031 12.8372 0.884838
320 1 -0.667724 -1.16922 8.08651 0.756361
325 2 0.147151 -6.9343 11.9937 1.66746
322 2 0.149415 -1.44493 7.73266 1.84468
23 4 1.67299 -0.2277 13.1105 7.94612
324 1 -0.661368 -7.01062 12.5798 2.72751
321 2 0.270562 -0.203919 8.67052 0.734388
251 2 0.162236 2.5541 8.29436 3.94019
333 2 0.155437 -4.22573 11.9277 2.00367
328 1 -0.698986 -4.44632 9.83414 1.28538
329 2 0.171354 -3.48385 9.78008 1.99713
323 2 0.18606 -2.05655 8.695 0.254584
354 3 -0.853192 0.289045 12.6082 0.664388
135 3 -0.845083 -1.75124 9.67933 8.37598
362 2 0.225778 -4.63397 12.9865 4.19918
279 2 0.177129 2.52031 8.83996 8.41052
257 2 0.158271 2.05132 9.38388 6.86674
38 4 1.39897 1.10271 11.3195 5.66104
129 3 -0.820058 0.326317 6.21631 15.3744
28 4 1.13063 4.1899 6.48518 16.4993
238 2 0.199006 -0.76192 7.87633 10.0798
18 4 1.58087 -3.00202 8.39897 13.3972
19 4 1.61121 -4.21712 10.5438 11.3385
212 2 0.12655 -5.72104 11.7925 15.9958
26 4 1.62385 -0.0566612 12.8521 13.2934
211 2 0.208534 -4.77332 10.8674 14.5691
37 4 1.60594 -1.5861 10.8587 9.5887
39 4 1.56969 2.63519 8.53178 12.976
40 4 1.59897 -0.998766 10.1717 14.9558
41 4 1.60933 0.980666 10.8061 11.3054
68 1 -0.668265 -5.27207 10.8193 15.577
75 1 -0.679734 0.853845 7.76281 8.7018
77 1 -0.659981 -0.542852 7.45426 11.1941
301 2 0.180909 -4.14575 12.4219 15.1338
105 3 -0.839326 -6.34896 11.9867 8.85214
109 3 -0.847439 -3.98615 7.92687 14.5947
110 3 -0.833726 -2.71396 6.98319 12.5787
111 3 -0.862518 -5.62545 10.1314 10.6204
112 3 -0.867268 -3.58654 9.43674 12.2454
113 3 -0.808049 -4.6026 11.8412 12.3907
232 2 0.167591 -0.306478 7.56246 8.82155
231 2 0.194026 1.25592 8.35095 9.57961
237 2 0.19365 0.506221 7.03843 11.2265
14 4 0.962226 -3.64539 10.4778 16.8432
136 3 -0.84053 -1.12607 12.258 8.91581
137 3 -0.828185 -3.13898 11.0306 10.2897
140 3 -0.871874 1.77623 7.24786 13.3648
142 3 -0.852023 -1.58891 8.97644 14.0459
143 3 -0.856843 0.232397 9.81989 15.8532
144 3 -0.861541 -0.645772 11.5817 14.1662
145 3 -0.80316 -2.31132 10.4238 16.0179
146 3 -0.860551 -0.490308 10.3855 10.6158
147 3 -0.848791 1.60644 9.68107 12.1607
236 2 0.260634 -0.705979 8.28218 12.0154
4 4 1.21304 -6.02045 12.5424 12.7617
130 3 -0.791993 3.24008 6.35881 9.30355
104 3 -0.777859 -3.75084 7.61765 8.6572
36 4 1.58215 1.32538 10.5817 16.8603
22 4 1.34098 6.83107 2.48323 0.42459
42 4 1.56454 9.28236 1.84722 3.84133
305 4 1.14933 13.3051 0.0114998 1.72301
46 4 1.43422 11.8481 1.74013 5.85884
50 4 1.58923 10.3941 3.94321 1.99677
263 2 0.17749 7.75188 6.35068 4.92135
52 4 1.36836 10.5147 3.57667 8.04401
72 1 -0.675348 6.80472 3.93839 1.61207
85 1 -0.673387 13.358 2.82239 5.203
205 2 0.162979 15.0917 1.01407 3.78017
87 1 -0.688692 9.50506 4.04449 6.51344
124 3 -0.855714 6.73752 2.98766 7.4323
149 3 -0.830452 9.1218 0.557744 2.83842
150 3 -0.851818 7.98349 1.975 4.99791
270 2 0.21265 9.5193 6.23873 7.34743
155 3 -0.835514 10.6904 1.78812 4.6536
156 3 -0.824472 12.7224 0.490709 6.11182
164 3 -0.852046 9.30728 3.18087 2.92571
165 3 -0.855783 11.3213 2.95609 1.10589
166 3 -0.831807 11.2733 4.80888 3.12769
168 3 -0.865995 9.58144 4.97789 1.08018
170 3 -0.844926 11.3557 2.42327 7.20064
221 2 0.269767 7.84387 4.44018 1.47142
222 2 0.200391 6.66751 3.51739 2.62134
223 2 0.191236 5.86785 4.65475 1.30866
246 2 0.183771 6.1866 4.87865 3.82757
260 2 0.18191 12.7388 3.15218 4.25545
261 2 0.202235 14.2452 2.12187 5.04958
269 2 0.172 10.9845 5.45234 6.42997
245 2 0.125393 5.05938 6.31501 3.12827
264 2 0.217077 9.13619 5.21448 4.42898
355 2 0.231081 15.2679 0.846123 5.659
266 2 0.251852 8.97859 3.1126 5.93305
267 2 0.162717 10.1391 4.63217 5.78923
268 2 0.191799 8.73802 4.69676 7.09468
287 4 1.10626 12.0346 6.18497 3.41408
80 1 -0.670753 5.76188 5.91221 3.99751
306 1 -0.655377 14.0413 1.73864 2.2271
307 3 -0.769857 12.2964 0.529601 0.480956
308 2 0.190387 13.9193 2.55296 1.43441
309 2 0.184627 13.7952 2.13046 3.30238
152 3 -0.872193 14.4874 0.713485 8.21531
51 4 1.27504 9.22893 6.30186 0.244582
295 2 0.238816 11.9247 6.15916 1.1285
262 2 0.181643 13.5951 3.74445 5.90138
86 1 -0.682325 8.71203 6.22872 4.31737
44 4 1.56703 13.5578 -0.260817 7.3718
29 4 1.59248 5.68919 4.06169 7.92812
345 2 0.143991 4.53881 6.13471 1.82303
363 2 0.0967226 15.2159 1.25499 2.1265
31 4 0.966755 4.5264 5.90566 5.56732
2 4 1.59287 14.7526 1.80277 9.3711
5 4 1.35381 14.8059 1.89126 15.0556
350 1 -0.706196 8.64343 5.42058 15.6765
45 4 1.66597 9.26933 1.72176 9.93886
351 2 0.195044 9.28362 5.7493 14.8041
48 4 1.63404 9.77397 1.57277 15.1173
49 4 1.64731 12.1638 1.88595 11.4773
55 4 1.60393 10.8239 4.05614 13.4058
153 3 -0.870861 8.8414 0.67939 8.83101
228 2 0.152782 6.10182 6.04858 14.7923
151 3 -0.835482 13.4471 2.10116 15.9649
353 2 0.221781 8.59472 4.29388 15.726
154 3 -0.835981 8.04146 1.89691 10.9613
157 3 -0.80749 14.5205 0.263152 14.196
158 3 -0.843823 9.00389 0.453088 14.2434
159 3 -0.86848 11.1642 1.14093 15.7186
160 3 -0.836102 8.67139 2.04263 16.3772
161 3 -0.816556 13.4216 2.04329 10.4209
162 3 -0.790746 10.775 1.35373 10.7604
163 3 -0.846286 12.5415 0.829437 12.5718
169 3 -0.850093 9.56426 3.13308 9.19815
73 1 -0.658342 6.71523 3.12688 13.0854
172 3 -0.826533 6.37613 5.2188 8.94522
175 3 -0.859586 10.0038 2.90416 14.2015
176 3 -0.802764 11.7822 3.30419 12.3145
177 3 -0.817053 11.7395 5.08004 14.4262
47 4 1.64212 13.4898 -0.329842 13.1435
180 3 -0.818941 9.74756 4.9797 12.6333
224 2 0.189476 6.81135 4.04129 12.3577
225 2 0.23854 7.55012 3.15527 13.796
9 4 1.53753 12.0673 6.19654 9.59539
352 2 0.169004 7.66091 6.00458 15.6355
43 4 1.641 12.3259 1.3509 16.7356
248 2 0.158581 5.55891 5.53146 12.1614
171 3 -0.791712 11.5639 4.90822 8.5516
343 2 0.147551 5.89486 5.01223 16.8693
13 4 1.30421 9.08732 10.9532 3.73151
348 2 0.172465 5.98508 11.1362 1.33274
54 4 1.20228 9.92597 7.35487 5.32069
57 4 1.0362 7.68445 8.86179 1.60196
58 4 1.48847 3.85243 11.2945 3.87338
59 4 1.54578 8.04824 8.78826 7.37571
61 4 1.54943 6.42033 10.7829 5.76342
79 1 -0.665663 4.41269 7.73034 6.27546
131 3 -0.807689 3.14003 8.35235 0.576344
283 2 0.209648 4.25744 11.0261 0.165753
90 1 -0.658201 6.06877 8.67981 2.52418
349 2 0.164297 7.41744 12.3304 1.73378
347 2 0.160965 6.49786 12.5075 0.0303459
139 3 -0.796639 0.871477 12.054 7.11163
92 1 -0.669797 3.52286 9.48565 8.26365
174 3 -0.809325 11.3083 7.20248 4.5474
181 3 -0.751859 8.24246 7.39353 1.53716
182 3 -0.778205 9.06511 9.89962 2.57903
183 3 -0.828942 3.40068 10.1951 2.68504
184 3 -0.766957 4.52835 12.6251 3.02676
185 3 -0.775957 2.44305 11.6505 4.70216
186 3 -0.845895 7.72622 7.17015 7.89535
187 3 -0.768469 9.0315 8.56199 5.9139
189 3 -0.773116 4.02062 12.3644 8.28898
191 3 -0.809014 7.63573 10.9596 4.62436
192 3 -0.845604 4.99747 10.6814 5.01144
193 3 -0.832755 6.73149 9.46728 6.77181
194 3 -0.818829 6.34903 12.0639 6.77595
242 2 0.210939 4.60036 8.5315 5.48727
243 2 0.248433 5.11736 7.79307 7.15017
346 1 -0.670111 6.41853 12.1873 1.1076
34 4 1.3198 2.41141 9.30561 1.78154
364 2 0.268369 11.248 7.11149 7.48984
274 2 0.183501 5.88606 7.66843 3.08719
275 2 0.184884 5.29974 8.80524 1.65014
276 2 0.201731 6.14178 9.65623 3.18696
88 1 -0.661337 10.4859 6.47862 6.82011
278 2 0.195847 3.68314 9.93228 7.21463
247 2 0.170564 6.58982 6.71668 4.18281
265 2 0.261424 8.66 6.67373 3.23342
294 2 0.213026 11.2445 7.8221 2.103
16 4 1.58347 9.24241 10.6276 9.55264
33 4 1.20754 4.38631 6.8178 10.6188
53 4 1.53052 7.07274 6.58865 9.30318
60 4 1.38805 3.51744 11.1321 9.2503
62 4 1.40151 3.76536 10.7508 14.9523
63 4 1.37098 6.18269 11.0709 11.1708
179 3 -0.812713 8.24571 6.39813 10.5221
74 1 -0.66797 5.75645 7.00076 15.3322
89 1 -0.671371 9.49253 7.86079 12.5686
93 1 -0.671485 5.25914 10.1203 16.0189
94 1 -0.678137 6.07941 9.67411 12.4692
141 3 -0.820141 3.73138 7.9875 11.92
178 3 -0.829521 10.9773 6.53562 10.6687
366 2 0.168405 7.12807 9.30804 16.4234
173 3 -0.801447 5.82156 7.47897 9.92014
66 1 -0.688122 8.91255 11.1103 13.0266
188 3 -0.873617 8.82009 9.59837 8.46595
190 3 -0.782665 2.04042 11.1019 9.98403
195 3 -0.84853 3.31347 9.36997 14.1446
196 3 -0.832804 4.40326 11.8912 13.9372
197 3 -0.823273 2.6253 11.0152 16.0929
198 3 -0.796254 7.73544 10.9005 10.3158
199 3 -0.799263 4.83656 10.8979 10.3163
200 3 -0.826607 6.07201 12.4948 11.9172
227 2 0.18303 5.21985 7.66087 14.56
229 2 0.15378 6.61296 7.67448 15.7891
271 2 0.152412 8.37783 7.92727 12.7816
272 2 0.250467 9.87719 8.70033 11.8185
273 2 0.20285 10.0935 7.75162 13.5302
91 1 -0.684211 8.15312 8.83946 16.675
281 2 0.1625 6.05403 10.7775 15.6125
282 2 0.180597 5.43412 8.96158 15.8182
277 2 0.14992 9.02695 9.62836 16.4737
284 2 0.160252 7.10744 9.15203 12.1646
285 2 0.288689 5.16247 8.99148 12.1684
286 2 0.177984 6.09346 10.0906 13.496
148 3 -0.828346 0.782124 12.2492 12.0172
356 2 0.236671 8.51947 10.9631 11.9208
357 2 0.175732 8.15249 11.5976 13.6981
365 2 0.163226 8.4678 7.84922 16.2085
11 4 1.52684 12.2421 6.36338 15.3257
280 2 0.236036 4.44748 8.90602 8.7095
167 3 -0.832338 11.1647 6.36996 16.6379
206 2 0.171802 9.37679 10.1429 13.5109
210 2 0.162679 10.1155 9.91319 15.6329
56 4 1.35416 9.59523 6.28794 11.4871
ITEM: TIMESTEP
100
ITEM: NUMBER OF ATOMS
366
ITEM: BOX BOUNDS xy xz yz pp pp pp
-8.2538999999999998e+00 1.6741099999999999e+01 -8.2538999999999998e+00
-3.2660199999999939e-01 1.3422400000000000e+01 6.1619999999999997e-01
0.0000000000000000e+00 1.6908999999999999e+01 -3.2660199999999939e-01
ITEM: ATOMS id type q x y z
3 4 1.17535 0.92996 2.65981 4.79451
8 4 1.2768 -0.208971 4.17467 7.37007
361 2 0.169369 3.81177 0.273238 0.612385
21 4 1.18242 4.0348 1.97596 4.32192
20 4 1.54676 7.79877 0.0168005 1.87867
312 2 0.213947 1.36174 0.390281 6.17801
338 1 -0.66271 2.66231 1.93293 0.412544
64 1 -0.653916 0.394603 3.69415 3.33491
65 1 -0.678433 -0.0998804 0.973293 4.72271
67 1 -0.666945 -1.65381 5.31471 7.04165
70 1 -0.671081 4.14706 0.35704 3.36221
71 1 -0.662714 4.00843 3.39546 2.9464
78 1 -0.676198 2.69894 5.48698 5.01667
98 3 -0.807166 0.278991 3.3597 6.01864
114 3 -0.816624 2.45653 2.27698 4.6627
239 2 0.160988 2.29745 6.27181 4.33466
118 3 -0.787966 5.31675 1.94769 5.25548
119 3 -0.79689 6.99137 0.493511 6.92451
220 2 0.1663 4.68153 4.33105 3.34186
125 3 -0.794695 1.25658 5.25947 7.75817
25 4 1.50926 6.84397 1.93636 6.1808
201 2 0.182116 -0.557735 4.40515 3.61209
202 2 0.142476 0.155804 2.75327 2.65191
203 2 0.157571 1.30554 4.29837 3.03323
290 2 0.154474 -1.57657 6.44015 4.46015
341 2 0.153861 3.17759 2.44094 1.3982
339 2 0.158222 2.06721 1.02735 0.696273
311 2 0.241682 0.375558 0.311342 7.82688
209 2 0.153613 -1.82753 5.49185 5.82312
115 3 -0.864555 6.84221 1.27827 1.34269
217 2 0.148249 3.61212 0.665737 2.28213
218 2 0.16708 2.95055 3.56432 2.64435
219 2 0.162678 4.60859 2.72672 2.25227
342 1 -0.655456 4.19679 5.86149 0.739237
344 2 0.174989 3.55168 4.93955 0.658502
241 2 0.216755 2.76345 4.53525 4.53801
216 2 0.288122 5.14434 -0.117538 3.22092
288 1 -0.673735 -2.13854 5.66341 3.8174
291 2 0.141292 -1.64197 5.47758 2.69131
292 2 0.154624 -2.26433 4.56048 4.32299
359 2 0.187055 -1.0132 3.83982 0.262971
310 1 -0.686715 1.31325 0.642354 7.28377
240 2 0.261863 2.09029 5.39301 6.01749
313 2 0.227545 1.48397 1.71958 7.39016
317 1 -0.641394 -1.28129 4.94638 0.767984
318 2 0.153179 -0.520303 5.29516 1.46496
319 2 0.172213 -2.27628 4.86914 1.2571
207 2 0.148974 -1.0897 6.27658 7.57545
204 2 0.192363 0.486725 0.0176654 4.60379
208 2 0.25662 -2.61757 4.99235 7.65069
23 4 1.64273 8.06199 -0.298779 7.91874
345 2 0.164548 4.2158 6.23477 1.8039
6 4 1.61546 1.21933 1.69904 10.8738
120 3 -0.781619 5.98935 2.02417 16.3564
334 1 -0.676952 1.84648 0.128034 14.2457
10 4 1.51459 0.184652 3.90053 13.0855
315 2 0.169962 0.743393 2.21216 16.428
24 4 1.53946 4.16361 1.97329 9.65174
336 2 0.161539 2.57394 1.12739 14.2277
27 4 1.39801 6.77933 1.576 11.9154
299 2 0.256404 5.9422 -0.329837 15.0367
76 1 -0.682343 1.165 5.1158 10.3109
81 1 -0.684791 4.65014 5.26962 11.4932
95 3 -0.844871 -0.0604907 1.39879 9.94849
96 3 -0.79991 1.72808 0.309139 11.515
7 4 1.19567 -0.85299 5.9788 16.4741
99 3 -0.772018 -0.595501 2.95654 14.3304
100 3 -0.790815 0.588893 2.54641 12.0451
335 2 0.235871 0.725882 0.337655 14.1939
102 3 -0.848156 -2.52237 5.79595 10.1906
103 3 -0.845552 -0.862962 4.86865 12.2948
116 3 -0.810429 3.86655 0.667533 8.78447
117 3 -0.840467 2.54873 2.41856 10.3015
121 3 -0.789039 5.26024 1.81896 10.9052
122 3 -0.807369 6.84923 0.278801 12.762
123 3 -0.851475 4.56083 3.18838 8.65549
127 3 -0.854425 1.60804 4.5984 13.4711
12 4 1.43417 -1.79443 6.01837 11.6516
233 2 0.270808 1.78238 4.11159 10.3712
234 2 0.213255 0.144298 4.94332 9.93263
235 2 0.179172 1.23855 5.70019 11.3105
249 2 0.223281 5.08317 4.50586 10.7004
316 2 0.166761 0.398692 0.332395 16.0685
296 4 0.913607 4.58699 1.57686 15.7799
297 1 -0.640117 4.87647 -0.0731531 14.901
298 1 -0.657425 3.74532 2.80124 14.3834
97 3 -0.824497 -0.822056 3.17451 8.4697
300 2 0.213358 4.5948 0.293714 13.8332
32 4 1.48074 1.71361 5.94503 14.4348
302 2 0.173074 3.88656 2.30424 13.3396
303 2 0.193192 4.21624 3.87326 14.4845
304 2 0.206408 2.62817 2.87107 14.6224
226 2 0.172804 5.6005 2.91839 13.6613
314 1 -0.669198 0.00902205 1.35818 16.4482
30 4 1.14348 1.7505 6.1965 8.91366
250 2 0.204696 3.60916 5.02667 11.9135
340 2 0.140207 2.61351 2.11873 16.83
128 3 -0.785376 2.98555 5.87338 15.4709
101 3 -0.795095 -2.39698 6.06267 15.9387
129 3 -0.800123 0.335793 5.89506 15.4944
332 1 -0.661428 -3.76251 12.7176 0.836735
15 4 1.337 -3.05107 9.01051 7.55856
17 4 1.55544 -4.4871 11.2554 5.82322
293 2 0.179854 -3.08812 7.53102 1.43268
35 4 1.40015 -1.67768 11.3348 4.19253
257 2 0.149324 2.13708 9.26172 6.67651
69 1 -0.665847 -2.12492 8.08789 6.23915
82 1 -0.681679 1.69261 8.00882 3.01757
83 1 -0.685344 -2.09501 9.61193 3.33519
84 1 -0.65716 1.20275 9.36944 5.97713
106 3 -0.826323 -5.70077 10.979 4.62871
107 3 -0.821128 -4.16132 9.97717 6.83916
108 3 -0.819055 -4.8638 12.5215 6.63625
132 3 -0.805497 -1.49135 12.4418 2.94996
133 3 -0.811094 -3.06718 11.6134 4.9677
134 3 -0.802949 1.29618 10.3017 1.13419
138 3 -0.861112 -0.326419 11.1391 4.90374
213 2 0.174276 -2.13271 8.71531 5.19414
214 2 0.184328 -2.79776 7.16592 6.06511
215 2 0.164876 -1.11579 7.74599 6.693
230 2 0.16736 1.04015 8.49522 7.80519
326 2 0.178744 -5.86535 12.9561 2.8144
331 2 0.233667 -5.75048 9.73969 1.64492
289 1 -0.66902 -4.03976 6.95498 1.74892
252 2 0.160458 1.66817 7.08687 2.31116
253 2 0.14647 0.600861 8.42229 3.24924
254 2 0.181707 -2.0539 10.0002 2.2618
255 2 0.186366 -3.14038 9.21795 3.66495
256 2 0.158726 -1.23506 8.94674 3.63133
1 4 1.43135 -5.51064 13.0794 8.09516
258 2 0.166265 1.33372 8.89185 4.80159
259 2 0.186945 0.234287 9.12605 6.45999
330 2 0.221871 -4.52464 8.97009 0.312867
327 2 0.159498 -7.7104 13.2534 2.88996
360 2 0.25802 -2.69281 12.9603 0.659093
320 1 -0.680609 -1.35182 8.19561 0.646416
325 2 0.164823 -6.9132 11.9755 1.64465
322 2 0.134584 -1.1744 7.7193 1.70176
38 4 1.43375 1.05815 11.2877 5.68939
324 1 -0.692036 -6.88007 12.541 2.61072
321 2 0.253538 -0.421795 8.7217 0.269833
251 2 0.14561 2.42795 7.98027 3.91398
333 2 0.169809 -3.9213 12.266 1.89982
328 1 -0.674989 -4.63901 9.66737 1.2426
329 2 0.175461 -3.7836 9.50104 2.00241
323 2 0.189988 -2.32378 8.74613 0.507952
354 3 -0.842592 -0.152481 12.5263 0.603226
135 3 -0.848039 -1.85458 9.7445 8.33962
362 2 0.213426 -4.71574 13.0946 4.032
244 2 0.128883 3.23138 7.60959 6.2657
279 2 0.182875 2.60584 8.89653 8.38864
36 4 1.58309 1.373 10.657 16.8312
28 4 1.10971 4.18516 6.52227 16.4918
238 2 0.191295 -0.942559 7.92096 10.3469
18 4 1.52568 -3.00529 8.28062 13.4454
19 4 1.60125 -4.25526 10.5375 11.2914
212 2 0.130512 -5.60715 11.7977 15.8818
26 4 1.62622 -0.0666823 12.7451 13.3658
211 2 0.224153 -4.81295 10.6278 14.6182
37 4 1.59849 -1.68313 10.8458 9.54631
39 4 1.57285 2.62532 8.6086 12.8848
40 4 1.62501 -0.932093 10.1394 14.9321
41 4 1.62274 1.03767 10.8801 11.2344
68 1 -0.669382 -5.1508 10.7876 15.6694
75 1 -0.669699 0.884318 7.90905 8.83378
77 1 -0.651893 -0.490746 7.40928 11.305
301 2 0.193312 -4.1263 12.5079 15.169
105 3 -0.846655 -6.16607 11.9258 8.97105
109 3 -0.835149 -4.12198 7.83764 14.5052
110 3 -0.869965 -2.57861 6.9194 12.7066
111 3 -0.874109 -5.64589 10.0848 10.6579
112 3 -0.808403 -3.83129 9.39611 12.3357
113 3 -0.769983 -4.61555 11.9307 12.4148
232 2 0.168689 -0.2956 7.74315 9.08049
231 2 0.200928 1.41621 8.43464 9.70728
237 2 0.164783 0.602173 6.94582 11.15
14 4 0.955065 -3.58036 10.5026 16.8711
136 3 -0.824783 -1.16193 12.2325 8.87288
137 3 -0.857787 -3.14366 10.977 10.2849
140 3 -0.827488 1.8223 7.42631 13.6516
142 3 -0.832935 -1.50464 9.03499 13.9281
143 3 -0.830258 0.359096 9.78968 15.8136
144 3 -0.877905 -0.644676 11.5347 14.2043
145 3 -0.790921 -2.2836 10.3411 15.9695
146 3 -0.817687 -0.48576 10.4493 10.6618
147 3 -0.85076 1.52673 9.70485 12.1539
236 2 0.27979 -0.58151 8.06457 12.2593
4 4 1.19949 -6.04107 12.61 12.6123
130 3 -0.810137 3.27645 6.71464 9.38712
104 3 -0.804083 -3.63408 7.61876 8.63742
337 2 0.144994 -6.16732 12.8066 15.035
22 4 1.37916 6.78264 2.51308 0.396647
42 4 1.53189 9.43418 1.84411 3.79031
343 2 0.138249 5.29546 5.83578 0.154593
46 4 1.39514 11.9795 1.6117 5.77719
50 4 1.48927 10.1878 3.90174 1.95604
263 2 0.166154 7.85056 6.45678 5.0351
52 4 1.36549 10.6594 3.58757 8.06149
72 1 -0.662154 6.63479 3.90548 1.71715
85 1 -0.664239 13.4216 2.77896 5.2678
205 2 0.168647 15.3008 1.16626 3.88301
87 1 -0.664698 9.44758 4.07861 6.72845
124 3 -0.841035 6.95668 3.18212 7.12912
149 3 -0.808185 9.07897 0.577375 2.71252
150 3 -0.794275 8.26885 1.87989 5.1521
270 2 0.203977 9.74897 6.07908 7.4468
155 3 -0.826866 10.8711 1.68089 4.50046
156 3 -0.804122 12.7495 0.318732 6.04243
164 3 -0.842519 9.09269 3.26415 3.05337
165 3 -0.86326 11.0112 2.75004 1.22419
166 3 -0.792655 11.266 4.8156 3.10119
168 3 -0.850911 9.55243 4.94325 0.783741
170 3 -0.803369 11.3894 2.44452 7.23039
221 2 0.243126 7.60024 4.48394 1.6622
222 2 0.200689 6.49684 3.36962 2.70601
223 2 0.187995 5.70409 4.56029 1.42704
246 2 0.187136 6.2748 4.78393 3.79528
260 2 0.174673 12.9065 3.17125 4.31337
261 2 0.198698 14.3551 2.09924 5.09706
269 2 0.153926 11.1359 5.44796 6.39133
245 2 0.140057 5.249 6.21667 3.09741
264 2 0.212342 9.31973 5.29276 4.37448
355 2 0.217292 15.4962 0.853212 5.76234
266 2 0.280076 9.07574 3.12746 6.10718
267 2 0.141604 10.1398 4.69042 6.01233
268 2 0.230025 8.5551 4.71757 7.0484
287 4 1.08249 12.134 6.16647 3.41908
80 1 -0.666104 5.86269 5.84083 3.99966
306 1 -0.660197 14.048 1.55377 2.35255
307 3 -0.775348 12.1856 0.43284 0.697239
308 2 0.184949 13.77 2.26847 1.50852
309 2 0.180813 13.8415 2.00921 3.42579
152 3 -0.808327 14.0557 0.903936 8.21205
51 4 1.29224 9.24373 6.37158 0.172558
295 2 0.227478 11.8546 6.13865 1.0203
262 2 0.181658 13.7055 3.77263 5.95026
86 1 -0.677347 8.85616 6.33729 4.35928
126 3 -0.752809 4.98187 5.17071 6.80876
88 1 -0.654905 10.6287 6.42361 6.85703
358 2 0.147905 14.9305 1.88765 0.62675
363 2 0.117274 15.1454 1.08998 2.1522
31 4 0.948923 4.56261 6.0429 5.53071
29 4 1.51757 5.72206 4.07004 7.99519
2 4 1.60956 14.6771 1.94077 9.33529
5 4 1.31345 14.8065 1.70729 15.1272
350 1 -0.703861 8.69866 5.6664 15.6422
45 4 1.61995 9.36211 1.79418 10.0219
248 2 0.165897 5.38836 5.44928 12.3069
48 4 1.61753 9.82641 1.60784 15.087
49 4 1.65548 12.1125 2.03285 11.5986
55 4 1.62492 10.8485 4.17772 13.3623
153 3 -0.816817 9.03437 0.628208 8.83412
228 2 0.148468 6.00811 5.99077 14.7577
151 3 -0.845033 13.3294 2.03995 16.1592
353 2 0.224565 8.73318 4.55403 15.4552
154 3 -0.82901 8.12619 1.80174 11.0982
157 3 -0.827626 14.7709 0.403936 14.1737
158 3 -0.819246 9.1054 0.430676 14.2264
159 3 -0.866399 10.9764 1.03645 15.9367
160 3 -0.801204 8.57057 2.11393 16.2693
161 3 -0.786247 13.4407 2.16045 10.4097
162 3 -0.826988 10.7489 1.5749 10.8676
163 3 -0.868859 12.5403 0.999768 12.6944
169 3 -0.817927 9.70715 3.24533 9.28864
73 1 -0.663381 6.71894 2.96079 13.1589
172 3 -0.859754 6.56098 4.98159 9.02203
175 3 -0.860639 10.0857 2.93371 14.1515
176 3 -0.817269 11.9625 3.46975 12.284
177 3 -0.912331 11.5495 5.07583 14.4175
47 4 1.58077 13.4895 -0.233051 13.1694
180 3 -0.83605 9.74694 5.07048 12.517
224 2 0.188143 6.77168 3.90758 12.5633
225 2 0.233934 7.56626 2.87623 13.9423
9 4 1.56473 12.1975 6.20941 9.54008
171 3 -0.798327 11.7591 4.99791 8.53835
43 4 1.62788 12.2074 1.30928 16.8889
352 2 0.167742 7.65423 6.10211 15.4898
13 4 1.35541 9.07553 10.9868 3.77605
348 2 0.167497 5.90942 11.1419 1.172
54 4 1.19548 10.0855 7.3586 5.29821
57 4 1.08392 7.80465 8.81092 1.66718
58 4 1.55355 3.75708 11.3288 3.93913
59 4 1.5858 8.01879 8.69193 7.27746
61 4 1.53747 6.43555 10.7354 5.73316
79 1 -0.650118 4.54425 7.76229 6.15615
131 3 -0.772606 3.197 8.29146 0.667917
283 2 0.193328 4.34622 10.9521 0.0450477
90 1 -0.660934 6.20772 8.70323 2.5798
349 2 0.178005 7.3725 12.2138 1.7801
265 2 0.275807 8.65193 6.70318 3.25341
139 3 -0.816786 0.83409 12.2876 7.01282
92 1 -0.659423 3.60664 9.50907 8.17242
174 3 -0.813375 11.4276 7.32631 4.453
181 3 -0.764083 8.31356 7.27214 1.67434
182 3 -0.810657 8.77517 9.91122 2.60406
183 3 -0.831568 3.46796 10.1727 2.73455
184 3 -0.815181 4.19512 12.6062 3.08531
185 3 -0.836568 2.37528 11.4374 4.87241
186 3 -0.847653 7.46534 7.31517 8.00132
187 3 -0.818726 9.06089 8.34952 6.15025
189 3 -0.828421 3.97363 12.3398 8.28496
191 3 -0.821269 7.70482 11.1175 4.65991
192 3 -0.857167 5.05705 10.693 4.85604
193 3 -0.855892 6.66336 9.49734 6.65684
194 3 -0.83009 6.35329 11.9967 6.88372
242 2 0.242748 4.81543 8.80278 5.69961
243 2 0.247608 5.07524 7.56044 7.13785
346 1 -0.684656 6.37461 12.21 1.17539
188 3 -0.805867 8.88566 9.54775 8.36371
364 2 0.272185 11.35 7.05236 7.48459
274 2 0.183942 6.04852 7.71344 3.18659
275 2 0.175722 5.54377 8.77449 1.60121
276 2 0.237422 6.06561 9.55842 3.20557
294 2 0.236512 11.1716 7.61124 1.91271
278 2 0.182586 3.63979 9.89948 7.11669
247 2 0.166707 6.69414 6.586 4.3341
44 4 1.56452 5.19007 12.9679 7.43346
305 4 1.21983 4.85748 13.2899 1.86405
347 2 0.163311 6.52477 12.5855 0.158478
34 4 1.30516 2.45881 9.32567 1.92426
280 2 0.242959 4.57076 8.85392 8.42417
16 4 1.5936 9.3261 10.5533 9.59557
33 4 1.2902 4.36611 6.89261 10.5935
53 4 1.55521 7.10288 6.4321 9.34389
60 4 1.42406 3.53376 11.1092 9.23538
62 4 1.38669 3.87678 10.7471 14.819
63 4 1.34462 6.14077 11.0704 10.9852
179 3 -0.798991 8.23469 6.35309 10.4826
74 1 -0.676021 5.71752 7.00485 15.2122
89 1 -0.683583 9.31322 7.77299 12.7331
93 1 -0.669954 5.34298 10.1277 15.8754
94 1 -0.643279 5.9748 9.75249 12.2954
141 3 -0.841001 3.6219 7.97377 11.8485
178 3 -0.806272 10.9974 6.45308 10.5653
366 2 0.166111 7.14235 9.19117 16.3309
173 3 -0.787551 5.85195 7.37933 10.108
66 1 -0.715244 8.95171 11.1386 12.8715
56 4 1.36485 9.60108 6.34139 11.5361
190 3 -0.844095 2.06983 11.0922 10.0221
195 3 -0.831209 3.62324 9.35376 13.9085
196 3 -0.838831 4.48867 11.9921 13.9831
197 3 -0.810397 2.59198 11.0388 15.8667
198 3 -0.811089 7.84631 10.8011 10.2088
199 3 -0.836173 4.83329 10.7592 10.1536
200 3 -0.825567 5.90607 12.379 11.9396
227 2 0.211762 5.08897 7.58314 14.512
229 2 0.154621 6.56669 7.65772 15.7702
271 2 0.158555 8.32152 7.4456 13.2609
272 2 0.20832 9.18977 8.67158 12.0384
273 2 0.237369 10.2507 7.86105 13.4186
91 1 -0.677364 8.11987 8.644 16.6411
281 2 0.161518 6.18234 10.8228 15.5664
282 2 0.180082 5.52897 8.96969 15.6349
277 2 0.152155 9.04662 9.29667 16.4189
284 2 0.174106 6.9305 9.11598 12.0327
285 2 0.302064 5.00975 9.04936 12.0231
286 2 0.201548 6.01374 10.1669 13.3165
148 3 -0.821903 0.807288 12.2666 12.1275
356 2 0.245701 8.63566 10.8212 11.8484
357 2 0.183306 8.20186 11.7516 13.4105
365 2 0.169226 8.29484 7.54811 16.1446
11 4 1.47258 12.1195 6.2595 15.2593
351 2 0.1843 9.37582 6.20935 14.8217
167 3 -0.832092 11.057 6.59471 16.6288
206 2 0.188522 9.48452 10.3505 13.4319
210 2 0.153035 10.1981 9.96093 15.9714
ITEM: TIMESTEP
200
ITEM: NUMBER OF ATOMS
366
ITEM: BOX BOUNDS xy xz yz pp pp pp
-8.2538999999999998e+00 1.6741099999999999e+01 -8.2538999999999998e+00
-4.1039999999998855e-03 1.3422400000000000e+01 6.1619999999999997e-01
0.0000000000000000e+00 1.6908999999999999e+01 -4.1039999999998855e-03
ITEM: ATOMS id type q x y z
3 4 1.06471 0.860739 2.70414 4.80636
8 4 1.26407 -0.297331 4.23383 7.45469
345 2 0.141368 3.53325 6.2337 1.67189
21 4 1.19571 4.10677 2.04721 4.40048
204 2 0.223101 0.346406 0.101501 4.77441
312 2 0.200943 1.22276 0.632143 6.39793
338 1 -0.63138 2.67473 1.76752 0.401573
64 1 -0.645149 0.436529 3.85191 3.37464
65 1 -0.697549 -0.225048 1.0467 4.77638
67 1 -0.661907 -1.74601 5.35619 7.05417
70 1 -0.68397 3.89115 0.462294 3.31339