ITEM: TIMESTEP
0
ITEM: NUMBER OF ATOMS
366
ITEM: BOX BOUNDS xy xz yz pp pp pp
-8.2538999999999998e+00 1.6741099999999999e+01 -8.2538999999999998e+00
-6.4910000000000001e-01 1.3422400000000000e+01 6.1619999999999997e-01
0.0000000000000000e+00 1.6908999999999999e+01 -6.4910000000000001e-01
ITEM: ATOMS id type q x y z
3 4 1.04845 0.749599 2.53725 4.7515
8 4 1.25193 -0.268124 4.12615 7.38832
361 2 0.174421 3.79125 0.210111 0.789359
21 4 1.19168 4.06846 2.06882 4.3792
216 2 0.281726 5.23884 -0.0438768 3.26624
312 2 0.224193 1.44301 0.651529 6.43002
338 1 -0.650029 2.69776 1.89883 0.332566
64 1 -0.675934 0.389807 3.51299 3.25573
65 1 -0.675483 -0.300365 0.843823 4.72323
67 1 -0.674392 -1.62236 5.30462 6.91031
70 1 -0.648046 4.21258 0.341418 3.51385
71 1 -0.669305 4.25101 3.27513 2.87394
78 1 -0.664477 2.68335 5.58658 5.05273
98 3 -0.784774 0.182344 3.275 6.08223
114 3 -0.751314 2.56953 2.11828 4.9398
239 2 0.15992 2.27685 6.52964 4.4098
118 3 -0.78898 5.36939 2.10102 5.24773
119 3 -0.812929 7.06696 0.468544 6.86449
220 2 0.165735 4.93484 4.25601 3.29671
125 3 -0.810142 1.24673 5.27073 7.62026
25 4 1.56011 6.81804 1.91896 6.18165
201 2 0.181556 -0.529041 4.29501 3.45635
202 2 0.1513 0.262563 2.82707 2.32964
203 2 0.151926 1.33507 4.11144 3.17898
290 2 0.158508 -1.40772 6.36583 4.30065
341 2 0.163116 3.25473 2.38239 1.29564
339 2 0.142859 2.24742 0.862993 0.51464
311 2 0.275203 0.556564 0.465143 7.94263
209 2 0.165742 -1.76365 5.41073 5.71722
115 3 -0.8373 6.90401 1.14873 1.23283
217 2 0.144382 3.60257 0.743831 2.58402
218 2 0.146788 3.23259 3.60121 2.45776
219 2 0.177869 4.8244 2.56211 2.18267
342 1 -0.647389 4.28935 5.76455 0.677617
344 2 0.18089 3.53802 4.92431 0.545478
241 2 0.183969 2.67203 4.64241 4.46767
358 2 0.141162 -1.13741 2.04999 0.519852
288 1 -0.664646 -2.05143 5.63986 3.72614
291 2 0.155063 -1.65274 5.40678 2.6242
292 2 0.162448 -2.25009 4.58384 4.25953
359 2 0.192781 -0.931403 4.084 0.193037
310 1 -0.670862 1.45711 0.864818 7.53688
240 2 0.277301 2.15034 5.42471 6.11829
313 2 0.22596 1.6065 1.95907 7.84305
317 1 -0.651678 -1.26032 5.10826 0.672616
318 2 0.145061 -0.485631 5.68341 1.2767
319 2 0.167877 -2.24022 4.95089 1.30111
207 2 0.157217 -1.04685 6.27828 7.28083
204 2 0.199773 0.390637 -0.0501574 4.55457
208 2 0.240452 -2.53531 5.07156 7.50994
126 3 -0.800596 5.0467 4.88624 6.65532
20 4 1.56358 7.99789 -0.0481703 1.90429
6 4 1.60247 1.2072 1.5671 10.988
120 3 -0.765064 5.83985 2.01541 16.4244
334 1 -0.675424 2.01453 0.068142 14.3535
10 4 1.62197 0.00952194 3.84632 13.0148
315 2 0.15846 0.892282 2.38166 16.4856
24 4 1.55944 4.02449 1.98382 9.73035
336 2 0.165857 2.61437 1.11235 14.1785
27 4 1.39968 6.76524 1.67216 11.861
299 2 0.239145 6.06347 -0.451071 15.2577
76 1 -0.66199 1.28473 5.20729 10.3996
81 1 -0.679038 4.6492 5.24267 11.5352
95 3 -0.863909 -0.0623328 1.32655 10.0923
96 3 -0.829371 1.58661 0.222332 11.8365
7 4 1.22145 -0.851382 6.02202 16.3553
99 3 -0.847503 -0.824699 3.06843 14.1602
100 3 -0.825889 0.734817 2.80431 12.0749
335 2 0.19313 0.881524 0.184314 14.2679
102 3 -0.817511 -2.63625 5.76237 10.208
103 3 -0.844825 -0.988952 4.84171 12.3048
116 3 -0.811635 3.94218 0.624618 8.7693
117 3 -0.889015 2.5135 2.22975 10.3089
121 3 -0.784553 5.21653 1.8645 10.9046
122 3 -0.835599 6.96598 0.420627 12.784
123 3 -0.810764 4.51701 3.23856 8.80251
127 3 -0.834556 1.36134 4.70478 13.6316
12 4 1.43292 -1.83432 6.07459 11.6203
233 2 0.268315 1.79778 4.20142 10.3907
234 2 0.196985 0.1478 5.10282 10.1316
235 2 0.197287 1.43914 5.8271 11.4054
249 2 0.237826 4.83097 4.34489 10.7173
316 2 0.160349 0.404039 0.62328 15.9142
296 4 0.933275 4.57853 1.5112 15.7262
297 1 -0.629188 4.93718 -0.157102 14.9346
298 1 -0.691079 3.73486 2.7669 14.2909
97 3 -0.793508 -0.951298 3.34677 8.66452
300 2 0.212604 4.85709 0.253377 13.8534
32 4 1.53585 1.63711 6.02796 14.4057
302 2 0.174106 4.04216 2.35408 13.317
303 2 0.19836 4.2849 3.68872 14.4734
304 2 0.221229 2.66156 2.87871 14.376
226 2 0.163175 5.57732 3.02878 13.5383
314 1 -0.683805 0.066314 1.63744 16.3228
30 4 1.1948 1.81894 6.07833 8.79003
250 2 0.199966 3.67029 5.08349 12.0804
340 2 0.145091 2.56033 1.97869 16.7232
128 3 -0.783809 3.07117 5.86265 15.5123
101 3 -0.827545 -2.43794 6.0597 15.9269
337 2 0.144204 2.4113 -0.455531 15.2841
332 1 -0.633837 -3.86885 12.6506 1.00593
15 4 1.34143 -2.98792 9.04523 7.59242
17 4 1.56422 -4.32561 11.1234 5.80397
293 2 0.173971 -2.95669 7.55564 1.53495
35 4 1.42889 -1.63035 11.3571 4.11044
244 2 0.166305 3.3279 7.65286 6.48333
69 1 -0.673583 -2.27953 8.16884 6.08704
82 1 -0.677898 1.74234 8.08731 3.22384
83 1 -0.68781 -1.89184 9.59773 3.23325
84 1 -0.671244 1.18089 9.48962 6.03294
106 3 -0.786944 -5.55332 10.975 4.6638
107 3 -0.855971 -4.02006 9.93827 6.84062
108 3 -0.784462 -4.79428 12.4634 6.60652
132 3 -0.822341 -1.40425 12.438 2.91722
133 3 -0.840883 -2.89747 11.4984 5.02224
134 3 -0.815748 1.08481 10.0632 1.22427
138 3 -0.84017 -0.265792 11.295 4.83323
213 2 0.183194 -2.2875 8.81309 5.09202
214 2 0.205579 -2.99305 7.30867 5.96145
215 2 0.156512 -1.24116 7.87058 6.37058
230 2 0.181439 0.968781 8.35223 7.71934
326 2 0.153408 -5.83754 13.1094 3.04575
331 2 0.25248 -5.45829 9.87731 1.80516
289 1 -0.662457 -3.98181 7.02737 1.83294
252 2 0.148606 1.90135 7.14054 2.59073
253 2 0.162361 0.685113 8.37562 3.51481
254 2 0.184626 -1.81072 9.95007 2.13009
255 2 0.166841 -2.9286 9.24177 3.54086
256 2 0.157378 -0.990688 9.01712 3.68775
1 4 1.41582 -5.38804 13.0877 8.09211
258 2 0.168384 1.38489 8.94306 4.99611
259 2 0.187238 0.0844386 9.32875 6.44389
330 2 0.209593 -4.52368 9.00526 0.503225
327 2 0.156827 -7.93082 13.2241 2.87623
360 2 0.2493 -2.75031 12.8372 0.884838
320 1 -0.667724 -1.16922 8.08651 0.756361
325 2 0.147151 -6.9343 11.9937 1.66746
322 2 0.149415 -1.44493 7.73266 1.84468
23 4 1.67299 -0.2277 13.1105 7.94612
324 1 -0.661368 -7.01062 12.5798 2.72751
321 2 0.270562 -0.203919 8.67052 0.734388
251 2 0.162236 2.5541 8.29436 3.94019
333 2 0.155437 -4.22573 11.9277 2.00367
328 1 -0.698986 -4.44632 9.83414 1.28538
329 2 0.171354 -3.48385 9.78008 1.99713
323 2 0.18606 -2.05655 8.695 0.254584
354 3 -0.853192 0.289045 12.6082 0.664388
135 3 -0.845083 -1.75124 9.67933 8.37598
362 2 0.225778 -4.63397 12.9865 4.19918
279 2 0.177129 2.52031 8.83996 8.41052
257 2 0.158271 2.05132 9.38388 6.86674
38 4 1.39897 1.10271 11.3195 5.66104
129 3 -0.820058 0.326317 6.21631 15.3744
28 4 1.13063 4.1899 6.48518 16.4993
238 2 0.199006 -0.76192 7.87633 10.0798
18 4 1.58087 -3.00202 8.39897 13.3972
19 4 1.61121 -4.21712 10.5438 11.3385
212 2 0.12655 -5.72104 11.7925 15.9958
26 4 1.62385 -0.0566612 12.8521 13.2934
211 2 0.208534 -4.77332 10.8674 14.5691
37 4 1.60594 -1.5861 10.8587 9.5887
39 4 1.56969 2.63519 8.53178 12.976
40 4 1.59897 -0.998766 10.1717 14.9558
41 4 1.60933 0.980666 10.8061 11.3054
68 1 -0.668265 -5.27207 10.8193 15.577
75 1 -0.679734 0.853845 7.76281 8.7018
77 1 -0.659981 -0.542852 7.45426 11.1941
301 2 0.180909 -4.14575 12.4219 15.1338
105 3 -0.839326 -6.34896 11.9867 8.85214
109 3 -0.847439 -3.98615 7.92687 14.5947
110 3 -0.833726 -2.71396 6.98319 12.5787
111 3 -0.862518 -5.62545 10.1314 10.6204
112 3 -0.867268 -3.58654 9.43674 12.2454
113 3 -0.808049 -4.6026 11.8412 12.3907
232 2 0.167591 -0.306478 7.56246 8.82155
231 2 0.194026 1.25592 8.35095 9.57961
237 2 0.19365 0.506221 7.03843 11.2265
14 4 0.962226 -3.64539 10.4778 16.8432
136 3 -0.84053 -1.12607 12.258 8.91581
137 3 -0.828185 -3.13898 11.0306 10.2897
140 3 -0.871874 1.77623 7.24786 13.3648
142 3 -0.852023 -1.58891 8.97644 14.0459
143 3 -0.856843 0.232397 9.81989 15.8532
144 3 -0.861541 -0.645772 11.5817 14.1662
145 3 -0.80316 -2.31132 10.4238 16.0179
146 3 -0.860551 -0.490308 10.3855 10.6158
147 3 -0.848791 1.60644 9.68107 12.1607
236 2 0.260634 -0.705979 8.28218 12.0154
4 4 1.21304 -6.02045 12.5424 12.7617
130 3 -0.791993 3.24008 6.35881 9.30355
104 3 -0.777859 -3.75084 7.61765 8.6572
36 4 1.58215 1.32538 10.5817 16.8603
22 4 1.34098 6.83107 2.48323 0.42459
42 4 1.56454 9.28236 1.84722 3.84133
305 4 1.14933 13.3051 0.0114998 1.72301
46 4 1.43422 11.8481 1.74013 5.85884
50 4 1.58923 10.3941 3.94321 1.99677
263 2 0.17749 7.75188 6.35068 4.92135
52 4 1.36836 10.5147 3.57667 8.04401
72 1 -0.675348 6.80472 3.93839 1.61207
85 1 -0.673387 13.358 2.82239 5.203
205 2 0.162979 15.0917 1.01407 3.78017
87 1 -0.688692 9.50506 4.04449 6.51344
124 3 -0.855714 6.73752 2.98766 7.4323
149 3 -0.830452 9.1218 0.557744 2.83842
150 3 -0.851818 7.98349 1.975 4.99791
270 2 0.21265 9.5193 6.23873 7.34743
155 3 -0.835514 10.6904 1.78812 4.6536
156 3 -0.824472 12.7224 0.490709 6.11182
164 3 -0.852046 9.30728 3.18087 2.92571
165 3 -0.855783 11.3213 2.95609 1.10589
166 3 -0.831807 11.2733 4.80888 3.12769
168 3 -0.865995 9.58144 4.97789 1.08018
170 3 -0.844926 11.3557 2.42327 7.20064
221 2 0.269767 7.84387 4.44018 1.47142
222 2 0.200391 6.66751 3.51739 2.62134
223 2 0.191236 5.86785 4.65475 1.30866
246 2 0.183771 6.1866 4.87865 3.82757
260 2 0.18191 12.7388 3.15218 4.25545
261 2 0.202235 14.2452 2.12187 5.04958
269 2 0.172 10.9845 5.45234 6.42997
245 2 0.125393 5.05938 6.31501 3.12827
264 2 0.217077 9.13619 5.21448 4.42898
355 2 0.231081 15.2679 0.846123 5.659
266 2 0.251852 8.97859 3.1126 5.93305
267 2 0.162717 10.1391 4.63217 5.78923
268 2 0.191799 8.73802 4.69676 7.09468
287 4 1.10626 12.0346 6.18497 3.41408
80 1 -0.670753 5.76188 5.91221 3.99751
306 1 -0.655377 14.0413 1.73864 2.2271
307 3 -0.769857 12.2964 0.529601 0.480956
308 2 0.190387 13.9193 2.55296 1.43441
309 2 0.184627 13.7952 2.13046 3.30238
152 3 -0.872193 14.4874 0.713485 8.21531
51 4 1.27504 9.22893 6.30186 0.244582
295 2 0.238816 11.9247 6.15916 1.1285
262 2 0.181643 13.5951 3.74445 5.90138
86 1 -0.682325 8.71203 6.22872 4.31737
44 4 1.56703 13.5578 -0.260817 7.3718
29 4 1.59248 5.68919 4.06169 7.92812
345 2 0.143991 4.53881 6.13471 1.82303
363 2 0.0967226 15.2159 1.25499 2.1265
31 4 0.966755 4.5264 5.90566 5.56732
2 4 1.59287 14.7526 1.80277 9.3711
5 4 1.35381 14.8059 1.89126 15.0556
350 1 -0.706196 8.64343 5.42058 15.6765
45 4 1.66597 9.26933 1.72176 9.93886
351 2 0.195044 9.28362 5.7493 14.8041
48 4 1.63404 9.77397 1.57277 15.1173
49 4 1.64731 12.1638 1.88595 11.4773
55 4 1.60393 10.8239 4.05614 13.4058
153 3 -0.870861 8.8414 0.67939 8.83101
228 2 0.152782 6.10182 6.04858 14.7923
151 3 -0.835482 13.4471 2.10116 15.9649
353 2 0.221781 8.59472 4.29388 15.726
154 3 -0.835981 8.04146 1.89691 10.9613
157 3 -0.80749 14.5205 0.263152 14.196
158 3 -0.843823 9.00389 0.453088 14.2434
159 3 -0.86848 11.1642 1.14093 15.7186
160 3 -0.836102 8.67139 2.04263 16.3772
161 3 -0.816556 13.4216 2.04329 10.4209
162 3 -0.790746 10.775 1.35373 10.7604
163 3 -0.846286 12.5415 0.829437 12.5718
169 3 -0.850093 9.56426 3.13308 9.19815
73 1 -0.658342 6.71523 3.12688 13.0854
172 3 -0.826533 6.37613 5.2188 8.94522
175 3 -0.859586 10.0038 2.90416 14.2015
176 3 -0.802764 11.7822 3.30419 12.3145
177 3 -0.817053 11.7395 5.08004 14.4262
47 4 1.64212 13.4898 -0.329842 13.1435
180 3 -0.818941 9.74756 4.9797 12.6333
224 2 0.189476 6.81135 4.04129 12.3577
225 2 0.23854 7.55012 3.15527 13.796
9 4 1.53753 12.0673 6.19654 9.59539
352 2 0.169004 7.66091 6.00458 15.6355
43 4 1.641 12.3259 1.3509 16.7356
248 2 0.158581 5.55891 5.53146 12.1614
171 3 -0.791712 11.5639 4.90822 8.5516
343 2 0.147551 5.89486 5.01223 16.8693
13 4 1.30421 9.08732 10.9532 3.73151
348 2 0.172465 5.98508 11.1362 1.33274
54 4 1.20228 9.92597 7.35487 5.32069
57 4 1.0362 7.68445 8.86179 1.60196
58 4 1.48847 3.85243 11.2945 3.87338
59 4 1.54578 8.04824 8.78826 7.37571
61 4 1.54943 6.42033 10.7829 5.76342
79 1 -0.665663 4.41269 7.73034 6.27546
131 3 -0.807689 3.14003 8.35235 0.576344
283 2 0.209648 4.25744 11.0261 0.165753
90 1 -0.658201 6.06877 8.67981 2.52418
349 2 0.164297 7.41744 12.3304 1.73378
347 2 0.160965 6.49786 12.5075 0.0303459
139 3 -0.796639 0.871477 12.054 7.11163
92 1 -0.669797 3.52286 9.48565 8.26365
174 3 -0.809325 11.3083 7.20248 4.5474
181 3 -0.751859 8.24246 7.39353 1.53716
182 3 -0.778205 9.06511 9.89962 2.57903
183 3 -0.828942 3.40068 10.1951 2.68504
184 3 -0.766957 4.52835 12.6251 3.02676
185 3 -0.775957 2.44305 11.6505 4.70216
186 3 -0.845895 7.72622 7.17015 7.89535
187 3 -0.768469 9.0315 8.56199 5.9139
189 3 -0.773116 4.02062 12.3644 8.28898
191 3 -0.809014 7.63573 10.9596 4.62436
192 3 -0.845604 4.99747 10.6814 5.01144
193 3 -0.832755 6.73149 9.46728 6.77181
194 3 -0.818829 6.34903 12.0639 6.77595
242 2 0.210939 4.60036 8.5315 5.48727
243 2 0.248433 5.11736 7.79307 7.15017
346 1 -0.670111 6.41853 12.1873 1.1076
34 4 1.3198 2.41141 9.30561 1.78154
364 2 0.268369 11.248 7.11149 7.48984
274 2 0.183501 5.88606 7.66843 3.08719
275 2 0.184884 5.29974 8.80524 1.65014
276 2 0.201731 6.14178 9.65623 3.18696
88 1 -0.661337 10.4859 6.47862 6.82011
278 2 0.195847 3.68314 9.93228 7.21463
247 2 0.170564 6.58982 6.71668 4.18281
265 2 0.261424 8.66 6.67373 3.23342
294 2 0.213026 11.2445 7.8221 2.103
16 4 1.58347 9.24241 10.6276 9.55264
33 4 1.20754 4.38631 6.8178 10.6188
53 4 1.53052 7.07274 6.58865 9.30318
60 4 1.38805 3.51744 11.1321 9.2503
62 4 1.40151 3.76536 10.7508 14.9523
63 4 1.37098 6.18269 11.0709 11.1708
179 3 -0.812713 8.24571 6.39813 10.5221
74 1 -0.66797 5.75645 7.00076 15.3322
89 1 -0.671371 9.49253 7.86079 12.5686
93 1 -0.671485 5.25914 10.1203 16.0189
94 1 -0.678137 6.07941 9.67411 12.4692
141 3 -0.820141 3.73138 7.9875 11.92
178 3 -0.829521 10.9773 6.53562 10.6687
366 2 0.168405 7.12807 9.30804 16.4234
173 3 -0.801447 5.82156 7.47897 9.92014
66 1 -0.688122 8.91255 11.1103 13.0266
188 3 -0.873617 8.82009 9.59837 8.46595
190 3 -0.782665 2.04042 11.1019 9.98403
195 3 -0.84853 3.31347 9.36997 14.1446
196 3 -0.832804 4.40326 11.8912 13.9372
197 3 -0.823273 2.6253 11.0152 16.0929
198 3 -0.796254 7.73544 10.9005 10.3158
199 3 -0.799263 4.83656 10.8979 10.3163
200 3 -0.826607 6.07201 12.4948 11.9172
227 2 0.18303 5.21985 7.66087 14.56
229 2 0.15378 6.61296 7.67448 15.7891
271 2 0.152412 8.37783 7.92727 12.7816
272 2 0.250467 9.87719 8.70033 11.8185
273 2 0.20285 10.0935 7.75162 13.5302
91 1 -0.684211 8.15312 8.83946 16.675
281 2 0.1625 6.05403 10.7775 15.6125
282 2 0.180597 5.43412 8.96158 15.8182
277 2 0.14992 9.02695 9.62836 16.4737
284 2 0.160252 7.10744 9.15203 12.1646
285 2 0.288689 5.16247 8.99148 12.1684
286 2 0.177984 6.09346 10.0906 13.496
148 3 -0.828346 0.782124 12.2492 12.0172
356 2 0.236671 8.51947 10.9631 11.9208
357 2 0.175732 8.15249 11.5976 13.6981
365 2 0.163226 8.4678 7.84922 16.2085
11 4 1.52684 12.2421 6.36338 15.3257
280 2 0.236036 4.44748 8.90602 8.7095
167 3 -0.832338 11.1647 6.36996 16.6379
206 2 0.171802 9.37679 10.1429 13.5109
210 2 0.162679 10.1155 9.91319 15.6329
56 4 1.35416 9.59523 6.28794 11.4871
ITEM: TIMESTEP
100
ITEM: NUMBER OF ATOMS
366
ITEM: BOX BOUNDS xy xz yz pp pp pp
-8.4189779999999992e+00 1.7075921999999998e+01 -8.4189779999999992e+00
-6.4910000000000001e-01 1.3422400000000000e+01 6.2852399999999997e-01
0.0000000000000000e+00 1.6908999999999999e+01 -6.4910000000000001e-01
ITEM: ATOMS id type q x y z
3 4 1.17481 0.929517 2.65945 4.79451
8 4 1.27694 -0.209406 4.17443 7.36994
361 2 0.169324 3.81152 0.273001 0.612172
21 4 1.17957 4.03627 1.97541 4.32262
20 4 1.54675 7.79841 0.0168374 1.87888
312 2 0.21368 1.36008 0.391043 6.17806
338 1 -0.662988 2.66231 1.93299 0.412436
64 1 -0.653645 0.391931 3.69224 3.33358
65 1 -0.678148 -0.10014 0.971431 4.71931
67 1 -0.666943 -1.65384 5.31447 7.04104
70 1 -0.670441 4.14536 0.356934 3.36194
71 1 -0.663169 4.00782 3.39401 2.94702
78 1 -0.676236 2.69986 5.48702 5.01697
98 3 -0.807019 0.278924 3.35981 6.01874
114 3 -0.81578 2.45677 2.27687 4.66269
239 2 0.161086 2.29688 6.27121 4.33455
118 3 -0.786764 5.31985 1.93712 5.26208
119 3 -0.803531 7.03095 0.493423 6.92413
220 2 0.165608 4.67812 4.32966 3.34085
125 3 -0.794516 1.25644 5.25955 7.75836
25 4 1.51244 6.85011 1.93047 6.18602
201 2 0.182154 -0.558615 4.40579 3.61048
202 2 0.141928 0.149475 2.75005 2.6519
203 2 0.157626 1.30342 4.29338 3.02922
290 2 0.154555 -1.57525 6.44229 4.45955
341 2 0.154005 3.17726 2.44076 1.39785
339 2 0.157928 2.0675 1.02717 0.695999
311 2 0.241965 0.37332 0.312185 7.82575
209 2 0.153626 -1.82755 5.49221 5.82254
115 3 -0.864504 6.84221 1.27845 1.34266
217 2 0.148625 3.61587 0.666965 2.28041
218 2 0.167203 2.95028 3.56222 2.64339
219 2 0.162205 4.61106 2.72369 2.25197
342 1 -0.657203 4.20457 5.87361 0.745763
344 2 0.174567 3.57559 4.94339 0.646202
241 2 0.216718 2.76488 4.53558 4.53847
216 2 0.287946 5.1455 -0.120476 3.2217
288 1 -0.673718 -2.13768 5.66547 3.81725
291 2 0.141164 -1.64194 5.48035 2.69081
292 2 0.15458 -2.26323 4.56104 4.32246
359 2 0.187429 -1.01284 3.83887 0.262447
310 1 -0.68648 1.31237 0.642091 7.28358
240 2 0.261905 2.09135 5.39278 6.01823
313 2 0.227463 1.4838 1.71923 7.39016
317 1 -0.641053 -1.28113 4.94654 0.768068
318 2 0.153098 -0.520496 5.29589 1.46561
319 2 0.172158 -2.27627 4.86992 1.25672
207 2 0.148921 -1.08927 6.27666 7.57501
204 2 0.192049 0.494597 0.0194039 4.60538
208 2 0.25674 -2.61739 4.99262 7.65037
345 2 0.166033 4.23971 6.19242 1.81317
6 4 1.61535 1.21905 1.699 10.8738
120 3 -0.781834 5.98916 2.0242 16.3564
334 1 -0.676876 1.84704 0.127931 14.2451
10 4 1.51451 0.184543 3.90033 13.0856
315 2 0.169305 0.745855 2.20398 16.4489
24 4 1.53822 4.16379 1.9736 9.65168
336 2 0.161557 2.57413 1.12751 14.2273
27 4 1.39706 6.77772 1.57608 11.9163
299 2 0.25641 5.94203 -0.329929 15.0365
76 1 -0.682163 1.16536 5.11598 10.3107
81 1 -0.684665 4.65022 5.26944 11.4932
95 3 -0.845016 -0.0606375 1.39866 9.94832
96 3 -0.799753 1.72803 0.309098 11.5152
7 4 1.19582 -0.852966 5.97895 16.474
99 3 -0.771721 -0.595742 2.9562 14.3308
100 3 -0.790963 0.588956 2.54656 12.0451
335 2 0.236076 0.72576 0.337616 14.1929
102 3 -0.848183 -2.52249 5.79589 10.1906
103 3 -0.845659 -0.862946 4.86865 12.2948
116 3 -0.810967 3.86721 0.667164 8.78406
117 3 -0.840152 2.54864 2.41857 10.3014
121 3 -0.789263 5.2596 1.8187 10.9058
122 3 -0.807157 6.84851 0.278534 12.7626
123 3 -0.851661 4.56109 3.18875 8.65525
127 3 -0.854318 1.60789 4.59845 13.471
12 4 1.43393 -1.79451 6.01833 11.6515
233 2 0.270844 1.78243 4.11112 10.3719
234 2 0.213042 0.14465 4.94419 9.93044
235 2 0.179194 1.23781 5.7008 11.3102
249 2 0.223253 5.08352 4.50558 10.7007
316 2 0.166667 0.406812 0.336773 16.0783
296 4 0.913306 4.58685 1.57669 15.7798
297 1 -0.640056 4.87632 -0.0733264 14.901
298 1 -0.657445 3.74508 2.80127 14.3836
97 3 -0.82443 -0.822154 3.17422 8.46966
300 2 0.213226 4.59444 0.293629 13.8334
32 4 1.48012 1.71364 5.94483 14.4349
302 2 0.172981 3.88649 2.30419 13.3396
303 2 0.193125 4.21637 3.87344 14.4843
304 2 0.206598 2.62796 2.87113 14.6228
226 2 0.17279 5.60041 2.91822 13.6612
314 1 -0.669955 0.0054353 1.35729 16.4481
30 4 1.14363 1.75023 6.19651 8.91406
250 2 0.204704 3.60921 5.02592 11.9137
340 2 0.139926 2.61342 2.11862 16.8295
128 3 -0.784937 2.98671 5.87105 15.4719
101 3 -0.795065 -2.397 6.06266 15.9386
129 3 -0.800016 0.3359 5.89521 15.4942
332 1 -0.66136 -3.76293 12.7173 0.836958
15 4 1.33642 -3.05034 9.01253 7.55994
17 4 1.55425 -4.48714 11.2552 5.82309
293 2 0.179851 -3.08813 7.53091 1.43259
35 4 1.39959 -1.67748 11.3342 4.19233
257 2 0.148597 2.14162 9.26121 6.68282
69 1 -0.665854 -2.12434 8.08976 6.24066
82 1 -0.681672 1.69228 8.00774 3.01655
83 1 -0.685826 -2.09514 9.61218 3.33612
84 1 -0.656047 1.20187 9.36852 5.9779
106 3 -0.826246 -5.70079 10.9792 4.62841
107 3 -0.821281 -4.16047 9.97753 6.83998
108 3 -0.8192 -4.86336 12.5217 6.63617
132 3 -0.805637 -1.492 12.4424 2.95017
133 3 -0.811128 -3.06681 11.6141 4.96792
134 3 -0.8034 1.29606 10.3021 1.1344
138 3 -0.862096 -0.326194 11.1398 4.90581
213 2 0.174339 -2.13284 8.71666 5.19499
214 2 0.184301 -2.79574 7.16688 6.06721
215 2 0.164822 -1.1149 7.75039 6.69506
230 2 0.167593 1.03707 8.49391 7.80543
326 2 0.177887 -5.86914 12.9554 2.81213
331 2 0.233858 -5.75034 9.74018 1.64513
289 1 -0.669114 -4.03973 6.95498 1.74906
252 2 0.160974 1.66865 7.08647 2.30881
253 2 0.146494 0.600953 8.42109 3.24709
254 2 0.181877 -2.05332 9.99911 2.2639
255 2 0.186439 -3.13981 9.21787 3.66554
256 2 0.158873 -1.23519 8.94893 3.63405
1 4 1.43031 -5.51128 13.0795 8.0949
258 2 0.166061 1.33458 8.89373 4.79972
259 2 0.186941 0.235522 9.1226 6.45959
330 2 0.22211 -4.5251 8.96787 0.313879
327 2 0.159299 -7.71653 13.2569 2.88762
360 2 0.257886 -2.69322 12.9595 0.658712
320 1 -0.680574 -1.35171 8.19553 0.646459
325 2 0.165358 -6.92663 11.9727 1.64097
322 2 0.134635 -1.17422 7.71891 1.7015
38 4 1.43744 1.06059 11.2899 5.68958
324 1 -0.691248 -6.88883 12.5397 2.6072
321 2 0.253478 -0.421728 8.72202 0.270245
251 2 0.145842 2.42746 7.97885 3.91223
333 2 0.169734 -3.92109 12.2656 1.90089
328 1 -0.674946 -4.63905 9.66757 1.24242
329 2 0.175455 -3.78432 9.50104 2.00224
323 2 0.189973 -2.32366 8.7466 0.508529
354 3 -0.842596 -0.152171 12.5263 0.603476
135 3 -0.848611 -1.8532 9.74967 8.34139
362 2 0.213384 -4.71681 13.0935 4.03148
244 2 0.129177 3.23251 7.6082 6.26401
23 4 1.64266 -0.166322 13.1175 7.91025
279 2 0.183307 2.60942 8.9004 8.38988
36 4 1.58305 1.37285 10.657 16.8311
28 4 1.11031 4.1865 6.52433 16.4932
238 2 0.191407 -0.943093 7.92199 10.348
18 4 1.52553 -3.00527 8.28072 13.4454
19 4 1.59955 -4.25267 10.5388 11.2892
212 2 0.130346 -5.60231 11.7998 15.8802
26 4 1.62646 -0.0668804 12.7452 13.3658
211 2 0.223997 -4.81333 10.6259 14.6193
37 4 1.59984 -1.67534 10.8464 9.54457
39 4 1.57248 2.62512 8.60845 12.8849
40 4 1.62502 -0.932198 10.1394 14.9321
41 4 1.62377 1.03521 10.8808 11.2326
68 1 -0.668768 -5.15171 10.7872 15.6701
75 1 -0.669881 0.88394 7.90765 8.83405
77 1 -0.651877 -0.490915 7.40946 11.3053
301 2 0.192954 -4.12661 12.5067 15.1694
105 3 -0.846533 -6.16595 11.9257 8.97108
109 3 -0.8352 -4.12187 7.83778 14.505
110 3 -0.869978 -2.57861 6.91953 12.7066
111 3 -0.873565 -5.64408 10.0856 10.6568
112 3 -0.807971 -3.83007 9.39705 12.3341
113 3 -0.769654 -4.61467 11.9302 12.4133
232 2 0.168255 -0.295926 7.73907 9.08287
231 2 0.200898 1.41661 8.43238 9.70651
237 2 0.164708 0.602086 6.94603 11.1496
14 4 0.955441 -3.58063 10.5027 16.8709
136 3 -0.82684 -1.12448 12.2253 8.86616
137 3 -0.8567 -3.14015 10.9842 10.2816
140 3 -0.827594 1.82244 7.42637 13.6516
142 3 -0.832945 -1.50475 9.03491 13.9281
143 3 -0.830437 0.359069 9.78966 15.8136
144 3 -0.877855 -0.644574 11.5347 14.2042
145 3 -0.791041 -2.28364 10.3412 15.9696
146 3 -0.81896 -0.488792 10.4495 10.6593
147 3 -0.850128 1.52534 9.7046 12.1525
236 2 0.279858 -0.581676 8.06392 12.2604
4 4 1.19934 -6.04066 12.6098 12.612
130 3 -0.810097 3.27631 6.71459 9.3871
104 3 -0.804033 -3.63285 7.6199 8.63811
337 2 0.144829 -6.16725 12.8067 15.0347
22 4 1.37936 6.78255 2.51319 0.396453
42 4 1.53247 9.43263 1.84417 3.78997
343 2 0.138147 5.30705 5.85395 0.170688
46 4 1.39636 11.9755 1.61884 5.77163
50 4 1.48935 10.1874 3.9026 1.95677
263 2 0.166321 7.84647 6.45441 5.02949
52 4 1.36642 10.6602 3.58833 8.06142
72 1 -0.662128 6.63575 3.9053 1.71682
85 1 -0.664843 13.4211 2.77822 5.2614
205 2 0.168848 15.2999 1.16004 3.88024
87 1 -0.663544 9.44896 4.08042 6.72825
124 3 -0.8416 6.95637 3.17853 7.13068
149 3 -0.808729 9.07902 0.577137 2.71281
150 3 -0.79382 8.26829 1.87882 5.15297
270 2 0.204369 9.74869 6.08026 7.44739
155 3 -0.828682 10.8698 1.68159 4.49933
156 3 -0.804658 12.7366 0.318892 6.03897
164 3 -0.843012 9.09231 3.26423 3.05353
165 3 -0.863499 11.0111 2.75062 1.22529
166 3 -0.793118 11.2659 4.81546 3.1012
168 3 -0.851088 9.55243 4.94325 0.783864
170 3 -0.803311 11.3893 2.44602 7.23076
221 2 0.243228 7.60217 4.48302 1.66303
222 2 0.200304 6.49696 3.37035 2.70662
223 2 0.187099 5.70682 4.56231 1.42868
246 2 0.186558 6.26448 4.78457 3.78097
260 2 0.174501 12.9065 3.1707 4.30784
261 2 0.198868 14.3531 2.09727 5.09231
269 2 0.154012 11.1427 5.45308 6.39165
245 2 0.139742 5.2242 6.21486 3.10873
264 2 0.212451 9.31697 5.2955 4.37581
355 2 0.217717 15.4941 0.853819 5.75844
266 2 0.279394 9.07686 3.12732 6.10697
267 2 0.141159 10.1466 4.69185 6.01126
268 2 0.229298 8.55276 4.72328 7.0423
287 4 1.0824 12.1339 6.16646 3.41909
80 1 -0.666616 5.85564 5.84337 3.99324
306 1 -0.662852 14.0387 1.53928 2.35175
307 3 -0.779684 12.1682 0.435593 0.685126
308 2 0.185454 13.7592 2.25896 1.51522
309 2 0.181304 13.8338 1.9912 3.42219
152 3 -0.797267 14.0464 0.912306 8.21907
51 4 1.29229 9.2437 6.37161 0.172546
295 2 0.227382 11.8545 6.13833 1.0207
262 2 0.181107 13.7065 3.77387 5.9479
86 1 -0.677736 8.85487 6.33713 4.35887
126 3 -0.752753 4.9827 5.16966 6.80884
88 1 -0.654866 10.6288 6.42436 6.85761
358 2 0.147706 14.9542 1.87068 0.637779
363 2 0.120865 15.1178 1.07809 2.15263
31 4 0.948701 4.56309 6.04277 5.52993
29 4 1.5178 5.72273 4.0687 7.99455
2 4 1.61094 14.6774 1.94121 9.3358
5 4 1.31588 14.8076 1.70685 15.1283
350 1 -0.704012 8.69834 5.66619 15.6422
45 4 1.61869 9.36921 1.79831 10.0252
248 2 0.16593 5.38843 5.44908 12.3073
48 4 1.61809 9.82538 1.608 15.0863
49 4 1.65634 12.1156 2.03345 11.5999
55 4 1.62517 10.8482 4.17818 13.3628
153 3 -0.809748 9.07542 0.629032 8.83673
228 2 0.148693 6.00308 5.98891 14.7612
151 3 -0.844729 13.3321 2.04083 16.1578
353 2 0.224518 8.73284 4.55389 15.4549
154 3 -0.82835 8.12539 1.80097 11.0977
157 3 -0.827827 14.7709 0.404053 14.1742
158 3 -0.819439 9.10553 0.430745 14.2263
159 3 -0.86599 10.9759 1.03733 15.9361
160 3 -0.801412 8.57066 2.11375 16.2692
161 3 -0.78638 13.4427 2.1606 10.4086
162 3 -0.827651 10.7511 1.57917 10.8736
163 3 -0.86907 12.5417 0.999476 12.6957
169 3 -0.817431 9.70761 3.25272 9.29043
73 1 -0.663544 6.71857 2.96083 13.1594
172 3 -0.859512 6.56114 4.98086 9.02091
175 3 -0.860765 10.0857 2.93374 14.1516
176 3 -0.817227 11.9633 3.47072 12.2849
177 3 -0.912467 11.5495 5.07602 14.4178
47 4 1.58135 13.4903 -0.232995 13.1706
180 3 -0.83618 9.74689 5.07038 12.5171
224 2 0.188139 6.77159 3.90708 12.563
225 2 0.233854 7.56594 2.87623 13.943
9 4 1.56458 12.1976 6.20961 9.54002
171 3 -0.798218 11.7604 4.99797 8.53777
43 4 1.62999 12.2071 1.30943 16.8875
352 2 0.168025 7.65579 6.1015 15.4895
13 4 1.35424 9.0752 10.9876 3.77551
348 2 0.16472 5.88971 11.1379 1.17639
54 4 1.19522 10.0854 7.3593 5.29793
57 4 1.08392 7.8046 8.81098 1.667
58 4 1.55563 3.75822 11.3296 3.93936
59 4 1.58545 8.01809 8.69268 7.27703
61 4 1.53975 6.43418 10.7389 5.73612
79 1 -0.650473 4.54446 7.76165 6.15561
131 3 -0.772029 3.19496 8.29324 0.666233
283 2 0.192565 4.33995 10.9516 0.0443269
90 1 -0.660974 6.20806 8.70475 2.57911
349 2 0.176337 7.35148 12.2311 1.81892
265 2 0.275685 8.65403 6.70297 3.25292
139 3 -0.818773 0.866216 12.2857 7.00891
92 1 -0.663749 3.60937 9.49833 8.16618
174 3 -0.81356 11.4276 7.32627 4.45276
181 3 -0.764043 8.31357 7.27218 1.6743
182 3 -0.810358 8.77537 9.91144 2.60397
183 3 -0.83217 3.468 10.1714 2.73338
184 3 -0.82179 4.18092 12.6053 3.09226
185 3 -0.836785 2.37427 11.4368 4.87059
186 3 -0.84725 7.46529 7.31545 8.00126
187 3 -0.818457 9.06048 8.34987 6.15018
189 3 -0.83836 3.96159 12.3409 8.28518
191 3 -0.820838 7.70293 11.1174 4.66234
192 3 -0.858128 5.06005 10.6931 4.85848
193 3 -0.855934 6.66307 9.49948 6.65627
194 3 -0.829304 6.33323 11.9968 6.88489
242 2 0.2431 4.81717 8.80155 5.69912
243 2 0.247505 5.07488 7.55743 7.13652
346 1 -0.679469 6.34914 12.2274 1.19226
188 3 -0.805674 8.88573 9.5477 8.36376
364 2 0.271951 11.349 7.05437 7.48495
274 2 0.184598 6.04845 7.71545 3.18517
275 2 0.175988 5.54378 8.77578 1.60094
276 2 0.237528 6.06511 9.5592 3.20542
294 2 0.236393 11.1716 7.61132 1.91287
278 2 0.183679 3.6366 9.88941 7.12713
247 2 0.166956 6.69237 6.58807 4.31763
44 4 1.56456 5.14794 12.951 7.42979
305 4 1.2265 4.82117 13.2859 1.86598
347 2 0.16254 6.51771 12.6097 0.174113
34 4 1.30566 2.45818 9.32535 1.92356
280 2 0.245407 4.55107 8.84752 8.40817
16 4 1.5936 9.32652 10.5534 9.59559
33 4 1.29025 4.36639 6.89257 10.5934
53 4 1.55508 7.10244 6.43169 9.34356
60 4 1.42537 3.53132 11.1122 9.23856
62 4 1.38695 3.87668 10.7469 14.8189
63 4 1.3443 6.14208 11.0711 10.9851
179 3 -0.798558 8.23442 6.35322 10.4826
74 1 -0.67619 5.71635 7.00478 15.2136
89 1 -0.683614 9.31336 7.77308 12.7329
93 1 -0.670162 5.34268 10.1281 15.8756
94 1 -0.642742 5.97499 9.75063 12.2971
141 3 -0.840909 3.62185 7.97396 11.8486
178 3 -0.80628 10.9975 6.4531 10.5652
366 2 0.165829 7.14134 9.19118 16.3312
173 3 -0.787088 5.85202 7.37921 10.1078
66 1 -0.715236 8.95218 11.1383 12.8714
56 4 1.36484 9.6011 6.34134 11.5361
190 3 -0.844989 2.06762 11.0917 10.0229
195 3 -0.83157 3.62267 9.35424 13.9085
196 3 -0.838703 4.48867 11.9919 13.9833
197 3 -0.810389 2.59192 11.0388 15.8668
198 3 -0.811002 7.84741 10.8008 10.2086
199 3 -0.836247 4.83355 10.7577 10.1544
200 3 -0.825615 5.9062 12.3791 11.94
227 2 0.21169 5.07628 7.58077 14.5206
229 2 0.154827 6.56637 7.65896 15.769
271 2 0.158638 8.32129 7.44637 13.2602
272 2 0.208383 9.19079 8.67157 12.038
273 2 0.237288 10.2505 7.86088 13.4189
91 1 -0.677306 8.11918 8.64371 16.6412
281 2 0.161785 6.18279 10.8236 15.5722
282 2 0.179949 5.52926 8.97019 15.636
277 2 0.151676 9.04705 9.29806 16.4183
284 2 0.174453 6.92854 9.11305 12.0378
285 2 0.302341 5.00922 9.04768 12.025
286 2 0.201527 6.01302 10.1668 13.3183
148 3 -0.821893 0.806086 12.2667 12.127
356 2 0.245698 8.63731 10.8208 11.8485
357 2 0.183311 8.20255 11.7513 13.4108
365 2 0.169361 8.29408 7.54856 16.1447
11 4 1.47283 12.1195 6.25963 15.2593
351 2 0.184183 9.37625 6.20963 14.8221
167 3 -0.832144 11.0569 6.59455 16.6287
206 2 0.188568 9.48554 10.3503 13.4313
210 2 0.152328 10.1823 9.96855 15.9689
ITEM: TIMESTEP
200
ITEM: NUMBER OF ATOMS
366
ITEM: BOX BOUNDS xy xz yz pp pp pp
-8.5840560000000004e+00 1.7410743999999998e+01 -8.5840560000000004e+00
-6.4910000000000001e-01 1.3422400000000000e+01 6.4084799999999997e-01
0.0000000000000000e+00 1.6908999999999999e+01 -6.4910000000000001e-01
ITEM: ATOMS id type q x y z
3 4 1.04109 0.752756 2.70361 4.7358
8 4 1.22411 -0.330198 4.20997 7.41908
361 2 0.173711 3.92208 0.230517 0.528674
21 4 1.17717 4.11873 2.06576 4.46649
208 2 0.230518 -2.59274 4.74904 7.47252
312 2 0.193407 1.21517 0.466591 6.27183
338 1 -0.641217 2.70523 1.84883 0.331369
64 1 -0.653698 0.321697 3.86234 3.37189
65 1 -0.659188 -0.287765 1.03572 4.78799
67 1 -0.684181 -1.74915 5.29446 6.89223