LAMMPS (2 Aug 2023 - Update 2)
  using 1 OpenMP thread(s) per MPI task
Reading data file ...
  triclinic box = (0 0 0) to (17.6144 14.9838 17.4642) with tilt (-6.9346 2.088 0.8795)
  2 by 2 by 2 MPI processor grid
  reading atoms ...
  365 atoms
Finding 1-2 1-3 1-4 neighbors ...
  special bond factors lj:    0        0        0       
  special bond factors coul:  0        0        0       
     0 = max # of 1-2 neighbors
     0 = max # of 1-3 neighbors
     0 = max # of 1-4 neighbors
     1 = max # of special neighbors
  special bonds CPU = 0.001 seconds
  read_data CPU = 0.008 seconds
WARNING: Van der Waals parameters for element SI indicate inner wall+shielding, but earlier atoms indicate a different van der Waals method. This may cause division-by-zero errors. Keeping van der Waals setting for earlier atoms. (src/REAXFF/reaxff_ffield.cpp:251)
System init for write_restart ...
WARNING: Fix qeq/reaxff group is not charge neutral, net charge = -6.56 (src/REAXFF/fix_qeq_reaxff.cpp:392)
Neighbor list info ...
  update: every = 1 steps, delay = 0 steps, check = yes
  max neighbors/atom: 2000, page size: 100000
  master list distance cutoff = 12
  ghost atom cutoff = 12
  binsize = 6, bins = 5 3 3
  2 neighbor lists, perpetual/occasional/extra = 2 0 0
  (1) pair reaxff, perpetual
      attributes: half, newton off, ghost
      pair build: half/bin/newtoff/ghost
      stencil: full/ghost/bin/3d
      bin: standard
  (2) fix qeq/reaxff, perpetual, copy from (1)
      attributes: half, newton off
      pair build: copy
      stencil: none
      bin: none
  using 1 OpenMP thread(s) per MPI task
Reading restart file ...
  restart file = 2 Aug 2023, LAMMPS = 2 Aug 2023
  restoring atom style full from restart
  triclinic box = (0 0 0) to (17.6144 14.9838 17.4642) with tilt (-6.9346 2.088 0.8795)
  2 by 2 by 2 MPI processor grid
  pair style reaxff stores no restart info
  365 atoms
Finding 1-2 1-3 1-4 neighbors ...
  special bond factors lj:    0        0        0       
  special bond factors coul:  0        0        0       
     0 = max # of 1-2 neighbors
     0 = max # of 1-3 neighbors
     0 = max # of 1-4 neighbors
     1 = max # of special neighbors
  special bonds CPU = 0.000 seconds
  read_restart CPU = 0.004 seconds
*****Positive-deform 3 starts.*****
WARNING: Van der Waals parameters for element SI indicate inner wall+shielding, but earlier atoms indicate a different van der Waals method. This may cause division-by-zero errors. Keeping van der Waals setting for earlier atoms. (src/REAXFF/reaxff_ffield.cpp:251)

CITE-CITE-CITE-CITE-CITE-CITE-CITE-CITE-CITE-CITE-CITE-CITE-CITE

Your simulation uses code contributions which should be cited:
- pair reaxff command: doi:10.1016/j.parco.2011.08.005
- fix qeq/reaxff command: doi:10.1016/j.parco.2011.08.005
The log file lists these citations in BibTeX format.

CITE-CITE-CITE-CITE-CITE-CITE-CITE-CITE-CITE-CITE-CITE-CITE-CITE

WARNING: Compute rdf cutoff less than neighbor cutoff - forcing a needless neighbor list build (src/compute_rdf.cpp:179)
WARNING: Fix qeq/reaxff group is not charge neutral, net charge = -6.56 (src/REAXFF/fix_qeq_reaxff.cpp:392)
Neighbor list info ...
  update: every = 10 steps, delay = 0 steps, check = no
  max neighbors/atom: 2000, page size: 100000
  master list distance cutoff = 12
  ghost atom cutoff = 12
  binsize = 6, bins = 5 3 3
  3 neighbor lists, perpetual/occasional/extra = 2 1 0
  (1) pair reaxff, perpetual
      attributes: half, newton off, ghost
      pair build: half/bin/newtoff/ghost
      stencil: full/ghost/bin/3d
      bin: standard
  (2) compute rdf, occasional
      attributes: half, newton on, cut 7
      pair build: half/bin/newton/tri
      stencil: half/bin/3d/tri
      bin: standard
  (3) fix qeq/reaxff, perpetual, copy from (1)
      attributes: half, newton off
      pair build: copy
      stencil: none
      bin: none
Setting up Verlet run ...
  Unit style    : real
  Current step  : 0
  Time step     : 0.5
Per MPI rank memory allocation (min/avg/max) = 118.1 | 119 | 119.8 Mbytes
   Step          Temp          Press          Volume           Lz          Density    
         0   300            117786.24      4609.3376      17.4642        1.4343051    
       100   1547.6345      10605.103      4611.6423      17.472932      1.4335883    
       200   830.79543     -1437.2376      4613.9469      17.481664      1.4328722    
       300   611.50994     -9245.8206      4616.2516      17.490396      1.4321568    
       400   446.12137     -1234.9181      4618.5563      17.499128      1.4314422    
       500   340.28565     -6964.6417      4620.8609      17.507861      1.4307283    
       600   303.51672     -6044.0362      4623.1656      17.516593      1.430015     
       700   251.11224     -312.10262      4625.4703      17.525325      1.4293025    
       800   264.67606     -3530.9358      4627.775       17.534057      1.4285907    
       900   309.69249      7858.6787      4630.0796      17.542789      1.4278796    
      1000   336.08301     -5434.1991      4632.3843      17.551521      1.4271692    
      1100   327.52181     -12825.719      4634.689       17.560253      1.4264596    
      1200   316.25841     -10428.31       4636.9936      17.568985      1.4257506    
      1300   289.0068      -3489.4162      4639.2983      17.577717      1.4250423    
      1400   313.10305     -5820.5703      4641.603       17.586449      1.4243347    
      1500   276.08788      5224.4593      4643.9076      17.595182      1.4236279    
      1600   294.05573      10867.465      4646.2123      17.603914      1.4229217    
      1700   335.03062     -9610.5949      4648.517       17.612646      1.4222162    
      1800   308.58556     -2053.1812      4650.8216      17.621378      1.4215115    
      1900   294.49371     -1714.6746      4653.1263      17.63011       1.4208074    
      2000   285.56922      1579.7952      4655.431       17.638842      1.420104     
      2100   288.75628     -10732.473      4657.7356      17.647574      1.4194014    
      2200   290.22832     -4586.7608      4660.0403      17.656306      1.4186994    
      2300   310.96857      2669.2784      4662.345       17.665038      1.4179981    
      2400   311.51436      2954.9144      4664.6497      17.67377       1.4172975    
      2500   303.64105     -6854.7336      4666.9543      17.682503      1.4165976    
      2600   313.10342     -4849.6378      4669.259       17.691235      1.4158984    
      2700   315.66436     -3042.4512      4671.5637      17.699967      1.4151999    
      2800   304.69504     -1034.0974      4673.8683      17.708699      1.4145021    
      2900   293.51316      6000.7818      4676.173       17.717431      1.4138049    
      3000   283.59243     -9091.0465      4678.4777      17.726163      1.4131085    
      3100   282.76912      1185.4517      4680.7823      17.734895      1.4124127    
      3200   298.60247      2188.4382      4683.087       17.743627      1.4117176    
      3300   341.34569     -8179.457       4685.3917      17.752359      1.4110232    
      3400   297.68403     -10792.059      4687.6963      17.761091      1.4103295    
      3500   278.57129     -3214.0344      4690.001       17.769824      1.4096364    
      3600   294.08545     -3156.3522      4692.3057      17.778556      1.4089441    
      3700   322.89062     -18841.931      4694.6103      17.787288      1.4082524    
      3800   321.32559     -5833.8768      4696.915       17.79602       1.4075614    
      3900   302.59014     -4739.3164      4699.2197      17.804752      1.4068711    
      4000   276.06711     -473.0245       4701.5244      17.813484      1.4061814    
      4100   291.55815     -14991.181      4703.829       17.822216      1.4054925    
      4200   301.42075     -8143.8975      4706.1337      17.830948      1.4048042    
      4300   326.34694     -10303.464      4708.4384      17.83968       1.4041166    
      4400   310.4811       6947.0928      4710.743       17.848412      1.4034296    
      4500   299.64812     -1900.8717      4713.0477      17.857145      1.4027434    
      4600   297.35963     -3318.2176      4715.3524      17.865877      1.4020578    
      4700   292.20096     -5856.7168      4717.657       17.874609      1.4013728    
      4800   298.80738     -9005.7422      4719.9617      17.883341      1.4006886    
      4900   320.34596     -11315.113      4722.2664      17.892073      1.400005     
      5000   312.41255      148.90354      4724.571       17.900805      1.399322     
      5100   293.83568     -656.20463      4726.8757      17.909537      1.3986398    
      5200   300.0526      -13385.692      4729.1804      17.918269      1.3979582    
      5300   306.15397     -4190.2666      4731.485       17.927001      1.3972772    
      5400   300.74676      7887.7376      4733.7897      17.935733      1.396597     
      5500   319.36378     -2340.3523      4736.0944      17.944466      1.3959174    
      5600   322.7176      -1487.1285      4738.3991      17.953198      1.3952384    
      5700   295.03828     -6614.9532      4740.7037      17.96193       1.3945601    
      5800   304.93032      6032.746       4743.0084      17.970662      1.3938825    
      5900   290.54818     -410.09752      4745.3131      17.979394      1.3932055    
      6000   317.09517     -9101.4611      4747.6177      17.988126      1.3925292    
      6100   302.16467     -15166.609      4749.9224      17.996858      1.3918535    
      6200   311.10258      3675.7337      4752.2271      18.00559       1.3911785    
      6300   297.21385     -13958.322      4754.5317      18.014322      1.3905042    
      6400   256.84441      2726.8589      4756.8364      18.023054      1.3898305    
      6500   295.09863     -13036.72       4759.1411      18.031787      1.3891575    
      6600   312.19684     -4561.2482      4761.4457      18.040519      1.3884851    
      6700   335.58721     -3405.4125      4763.7504      18.049251      1.3878133    
      6800   299.22975     -7199.7527      4766.0551      18.057983      1.3871422    
      6900   291.90905      1150.8878      4768.3597      18.066715      1.3864718    
      7000   274.36245     -6772.155       4770.6644      18.075447      1.385802     
      7100   292.8756      -9973.8384      4772.9691      18.084179      1.3851329    
      7200   298.12741     -5324.4341      4775.2738      18.092911      1.3844644    
      7300   320.31929     -8289.1408      4777.5784      18.101643      1.3837965    
      7400   310.06478     -4637.7709      4779.8831      18.110375      1.3831293    
      7500   303.72958     -3181.751       4782.1878      18.119108      1.3824627    
      7600   299.35979     -6203.1062      4784.4924      18.12784       1.3817968    
      7700   307.02182     -5848.4108      4786.7971      18.136572      1.3811315    
      7800   320.92314     -4636.9785      4789.1018      18.145304      1.3804669    
      7900   296.92056     -14205.445      4791.4064      18.154036      1.3798029    
      8000   300.17359     -15870.111      4793.7111      18.162768      1.3791395    
      8100   290.91252     -15014.612      4796.0158      18.1715        1.3784768    
      8200   271.03453     -3445.7797      4798.3204      18.180232      1.3778147    
      8300   291.71598     -1455.4718      4800.6251      18.188964      1.3771532    
      8400   300.63305     -1416.1565      4802.9298      18.197696      1.3764924    
      8500   316.9303      -18521.526      4805.2344      18.206429      1.3758322    
      8600   299.55668     -9643.7033      4807.5391      18.215161      1.3751727    
      8700   276.34101     -16651.685      4809.8438      18.223893      1.3745137    
      8800   285.20097      3059.7821      4812.1485      18.232625      1.3738554    
      8900   290.85416     -4930.6226      4814.4531      18.241357      1.3731978    
      9000   306.00967     -5021.2308      4816.7578      18.250089      1.3725407    
      9100   320.31962     -18979.162      4819.0625      18.258821      1.3718843    
      9200   300.91483     -7851.3365      4821.3671      18.267553      1.3712286    
      9300   298.29235     -7451.4825      4823.6718      18.276285      1.3705734    
      9400   291.87278     -10282.371      4825.9765      18.285017      1.3699189    
      9500   289.30945     -19746.031      4828.2811      18.29375       1.369265     
      9600   311.00677      9603.9402      4830.5858      18.302482      1.3686117    
      9700   305.99709     -9250.2943      4832.8905      18.311214      1.3679591    
      9800   322.9576      -11061.84       4835.1951      18.319946      1.367307     
      9900   274.32218     -104.237        4837.4998      18.328678      1.3666556    
     10000   269.24885     -6598.1687      4839.8045      18.33741       1.3660048    
     10100   304.62933     -4621.8556      4842.1091      18.346142      1.3653547    
     10200   325.16215     -4579.3298      4844.4138      18.354874      1.3647051    
     10300   295.05579     -6072.0548      4846.7185      18.363606      1.3640562    
     10400   299.85381     -4228.369       4849.0232      18.372338      1.3634079    
     10500   309.37913     -7872.1207      4851.3278      18.38107       1.3627602    
     10600   283.50646     -950.29187      4853.6325      18.389803      1.3621131    
     10700   297.76933     -6997.1375      4855.9372      18.398535      1.3614666    
     10800   289.33359     -3653.2124      4858.2418      18.407267      1.3608208    
     10900   308.5485      -2950.9357      4860.5465      18.415999      1.3601755    
     11000   295.79872     -8908.4478      4862.8512      18.424731      1.3595309    
     11100   287.71889     -16135.562      4865.1558      18.433463      1.3588869    
     11200   307.79303     -3392.0442      4867.4605      18.442195      1.3582434    
     11300   287.49185     -24136.716      4869.7652      18.450927      1.3576006    
     11400   304.24671     -9316.2745      4872.0698      18.459659      1.3569584    
     11500   295.75194     -5250.1897      4874.3745      18.468392      1.3563169    
     11600   309.85824     -11978.575      4876.6792      18.477124      1.3556759    
     11700   301.66851     -11667.346      4878.9839      18.485856      1.3550355    
     11800   279.49921     -6165.0083      4881.2885      18.494588      1.3543957    
     11900   324.29236     -14280.513      4883.5932      18.50332       1.3537566    
     12000   312.24458     -5767.1879      4885.8979      18.512052      1.353118     
     12100   303.85413     -6739.9098      4888.2025      18.520784      1.35248      
     12200   311.74825     -9161.5275      4890.5072      18.529516      1.3518427    
     12300   290.89667     -4728.5313      4892.8119      18.538248      1.3512059    
     12400   294.28336     -11468.212      4895.1165      18.54698       1.3505698    
     12500   306.66235     -2099.1868      4897.4212      18.555713      1.3499342    
     12600   312.40385     -21647.753      4899.7259      18.564445      1.3492992    
     12700   304.26927     -13331.514      4902.0305      18.573177      1.3486649    
     12800   289.55728     -9822.4913      4904.3352      18.581909      1.3480311    
     12900   290.16317     -12105.636      4906.6399      18.590641      1.3473979    
     13000   298.13337     -12676.359      4908.9445      18.599373      1.3467653    
     13100   322.4888      -14515.534      4911.2492      18.608105      1.3461333    
     13200   309.0379      -5666.7189      4913.5539      18.616837      1.345502     
     13300   308.07576     -9662.9693      4915.8586      18.625569      1.3448711    
     13400   290.65712     -15928.375      4918.1632      18.634301      1.3442409    
     13500   301.18213     -19455.811      4920.4679      18.643034      1.3436113    
     13600   308.28216     -13723.593      4922.7726      18.651766      1.3429823    
     13700   307.94661     -16784.967      4925.0772      18.660498      1.3423538    
     13800   310.65641     -5249.1961      4927.3819      18.66923       1.341726     
     13900   291.01367     -9037.1762      4929.6866      18.677962      1.3410987    
     14000   286.08376     -10779.928      4931.9912      18.686694      1.340472     
     14100   277.78251      1103.0324      4934.2959      18.695426      1.3398459    
     14200   323.84398     -4669.4225      4936.6006      18.704158      1.3392204    
     14300   313.80705     -4210.858       4938.9052      18.71289       1.3385955    
     14400   306.62712     -14030.852      4941.2099      18.721622      1.3379712    
     14500   310.30398     -25026.716      4943.5146      18.730355      1.3373474    
     14600   281.99675     -2041.6933      4945.8192      18.739087      1.3367242    
     14700   284.26211     -2301.3558      4948.1239      18.747819      1.3361016    
     14800   297.12986     -12899.723      4950.4286      18.756551      1.3354796    
     14900   307.21644     -9478.3777      4952.7333      18.765283      1.3348581    
     15000   301.97969     -17135.78       4955.0379      18.774015      1.3342373    
     15100   290.10659     -7762.2384      4957.3426      18.782747      1.333617     
     15200   291.95402     -8971.1008      4959.6473      18.791479      1.3329973    
     15300   283.47467     -9816.3954      4961.9519      18.800211      1.3323782    
     15400   304.11674     -9315.3171      4964.2566      18.808943      1.3317596    
     15500   288.01931     -3888.1107      4966.5613      18.817675      1.3311416    
     15600   310.54268     -8862.0769      4968.8659      18.826408      1.3305242    
     15700   289.6906      -22541.276      4971.1706      18.83514       1.3299074    
     15800   298.48376     -10411.969      4973.4753      18.843872      1.3292911    
     15900   270.46244     -4127.6841      4975.7799      18.852604      1.3286754    
     16000   308.59164     -13487.437      4978.0846      18.861336      1.3280603    
     16100   289.96377     -4879.9005      4980.3893      18.870068      1.3274457    
     16200   320.97046     -10648.097      4982.6939      18.8788        1.3268317    
     16300   318.89369     -14477.416      4984.9986      18.887532      1.3262183    
     16400   280.49437     -23034.157      4987.3033      18.896264      1.3256054    
     16500   302.57267     -403.98731      4989.608       18.904997      1.3249931    
     16600   284.78551     -12198.948      4991.9126      18.913729      1.3243814    
     16700   315.84058     -11543.961      4994.2173      18.922461      1.3237703    
     16800   320.52017     -8930.7741      4996.522       18.931193      1.3231597    
     16900   308.78197     -4477.3516      4998.8266      18.939925      1.3225496    
     17000   306.76471     -8682.8386      5001.1313      18.948657      1.3219402    
     17100   302.79355     -7505.1404      5003.436       18.957389      1.3213313    
     17200   279.72319     -2528.6155      5005.7406      18.966121      1.3207229    
     17300   281.84807     -4913.7544      5008.0453      18.974853      1.3201151    
     17400   283.96585     -10706.254      5010.35        18.983585      1.3195079    
     17500   307.0216      -23380.851      5012.6546      18.992318      1.3189012    
     17600   288.86668     -8695.3704      5014.9593      19.00105       1.3182951    
     17700   303.28445     -17643.76       5017.264       19.009782      1.3176896    
     17800   293.64595     -9660.4513      5019.5686      19.018514      1.3170846    
     17900   316.75193     -12182.519      5021.8733      19.027246      1.3164801    
     18000   306.00605     -14277.236      5024.178       19.035978      1.3158762    
     18100   283.59923     -14399.729      5026.4827      19.04471       1.3152729    
     18200   286.98053     -20064.261      5028.7873      19.053442      1.3146701    
     18300   312.23959     -17094.249      5031.092       19.062174      1.3140679    
     18400   305.96842     -14114.698      5033.3967      19.070906      1.3134662    
     18500   314.44947     -16032.578      5035.7013      19.079639      1.3128651    
     18600   305.15116     -17185.117      5038.006       19.088371      1.3122645    
     18700   276.98664     -8220.0222      5040.3107      19.097103      1.3116645    
     18800   299.90314     -3752.2296      5042.6153      19.105835      1.311065     
     18900   294.69207     -12089.296      5044.92        19.114567      1.310466     
     19000   312.93182     -26076.639      5047.2247      19.123299      1.3098677    
     19100   314.60183     -11732.09       5049.5293      19.132031      1.3092698    
     19200   282.68935     -21642.192      5051.834       19.140763      1.3086725    
     19300   292.93964     -16927.994      5054.1387      19.149495      1.3080758    
     19400   299.06597     -7187.5895      5056.4433      19.158227      1.3074796    
     19500   292.2253      -9088.8616      5058.748       19.16696       1.3068839    
     19600   297.7288      -16769.272      5061.0527      19.175692      1.3062888    
     19700   295.58374     -13108.212      5063.3574      19.184424      1.3056942    
     19800   276.64353     -17455.891      5065.662       19.193156      1.3051002    
     19900   278.21965     -5501.7456      5067.9667      19.201888      1.3045067    
     20000   292.31312     -10360.469      5070.2714      19.21062       1.3039137    
     20100   318.96653     -20967.194      5072.576       19.219352      1.3033213    
     20200   297.17932     -15037.36       5074.8807      19.228084      1.3027294    
     20300   309.21558     -22807.137      5077.1854      19.236816      1.3021381    
     20400   287.99192     -14914.753      5079.49        19.245548      1.3015473    
     20500   281.80614     -20281.607      5081.7947      19.254281      1.300957     
     20600   297.4885      -10558.471      5084.0994      19.263013      1.3003673    
     20700   307.52657     -12690.135      5086.404       19.271745      1.2997781    
     20800   315.74756     -11388.6        5088.7087      19.280477      1.2991894    
     20900   302.27252     -18122.933      5091.0134      19.289209      1.2986012    
     21000   284.63952     -11744.213      5093.318       19.297941      1.2980136    
     21100   279.87868     -20517.301      5095.6227      19.306673      1.2974266    
     21200   305.61045     -19127.352      5097.9274      19.315405      1.29684      
     21300   288.29691     -14127.34       5100.2321      19.324137      1.296254     
     21400   305.90472     -12031.94       5102.5367      19.332869      1.2956685    
     21500   299.77301     -8914.7342      5104.8414      19.341602      1.2950836    
     21600   281.17263     -7768.922       5107.1461      19.350334      1.2944992    
     21700   296.48413     -15661.267      5109.4507      19.359066      1.2939153    
     21800   303.99734     -17509.188      5111.7554      19.367798      1.2933319    
     21900   314.36345      300.99856      5114.0601      19.37653       1.2927491    
     22000   285.89505     -862.84799      5116.3647      19.385262      1.2921667    
     22100   307.22997     -8684.7182      5118.6694      19.393994      1.2915849    
     22200   287.01275     -14609.692      5120.9741      19.402726      1.2910037    
     22300   304.13439     -13344.573      5123.2787      19.411458      1.2904229    
     22400   297.58582     -16608.215      5125.5834      19.42019       1.2898427    
     22500   327.15972     -10238.279      5127.8881      19.428923      1.289263     
     22600   306.04333     -11450.614      5130.1927      19.437655      1.2886838    
     22700   288.35618     -14983.362      5132.4974      19.446387      1.2881051    
     22800   291.76348     -17572.744      5134.8021      19.455119      1.287527     
     22900   320.49195     -14375.118      5137.1068      19.463851      1.2869494    
     23000   321.16093     -17751.093      5139.4114      19.472583      1.2863723    
     23100   295.50122     -13773.962      5141.7161      19.481315      1.2857957    
     23200   294.30446     -18097.319      5144.0208      19.490047      1.2852196    
     23300   290.15527      717.64902      5146.3254      19.498779      1.284644     
     23400   319.22258     -11470.085      5148.6301      19.507511      1.284069     
     23500   327.61495     -16254.338      5150.9348      19.516244      1.2834945    
     23600   270.49523     -4121.4971      5153.2394      19.524976      1.2829205    
     23700   277.65105     -18987.792      5155.5441      19.533708      1.282347     
     23800   299.85057     -28232.653      5157.8488      19.54244       1.281774     
     23900   315.10944     -11324.164      5160.1534      19.551172      1.2812015    
     24000   302.28612     -13469.389      5162.4581      19.559904      1.2806295    
     24100   280.97257     -9960.9783      5164.7628      19.568636      1.2800581    
     24200   291.76283     -20087.423      5167.0675      19.577368      1.2794871    
     24300   297.27356     -9530.8357      5169.3721      19.5861        1.2789167    
     24400   323.50512     -11811.228      5171.6768      19.594832      1.2783468    
     24500   303.80437     -11423.214      5173.9815      19.603565      1.2777774    
     24600   313.08488     -9603.4516      5176.2861      19.612297      1.2772084    
     24700   303.72428     -15400.852      5178.5908      19.621029      1.27664      
     24800   300.07671     -10282.911      5180.8955      19.629761      1.2760721    
     24900   297.32814     -15578.626      5183.2001      19.638493      1.2755047    
     25000   329.68981     -23655.573      5185.5048      19.647225      1.2749378    
     25100   319.94499     -22318.994      5187.8095      19.655957      1.2743715    
     25200   310.7768      -9950.5402      5190.1141      19.664689      1.2738056    
     25300   302.41864     -14070.372      5192.4188      19.673421      1.2732402    
     25400   296.0987      -9884.5266      5194.7235      19.682153      1.2726753    
     25500   296.22165     -17514.347      5197.0281      19.690886      1.2721109    
     25600   289.19235     -20480.851      5199.3328      19.699618      1.2715471    
     25700   317.91762     -8294.6714      5201.6375      19.70835       1.2709837    
     25800   299.16346     -17951.396      5203.9422      19.717082      1.2704208    
     25900   328.42774     -24296.904      5206.2468      19.725814      1.2698584    
     26000   297.80809     -22548.231      5208.5515      19.734546      1.2692965    
     26100   286.98009     -7499.9705      5210.8562      19.743278      1.2687351    
     26200   312.35686     -13554.14       5213.1608      19.75201       1.2681743    
     26300   288.83032     -11644.217      5215.4655      19.760742      1.2676139    
     26400   307.0127      -23109.573      5217.7702      19.769474      1.267054     
     26500   301.96307     -7914.4295      5220.0748      19.778207      1.2664946    
     26600   289.65177     -12863.071      5222.3795      19.786939      1.2659356    
     26700   314.47198     -15734.545      5224.6842      19.795671      1.2653772    
     26800   322.02534     -22707.859      5226.9888      19.804403      1.2648193    
     26900   303.82177     -3033.376       5229.2935      19.813135      1.2642619    
     27000   295.2545      -21958.279      5231.5982      19.821867      1.2637049    
     27100   303.56821     -14890.501      5233.9028      19.830599      1.2631485    
     27200   295.53447     -12946.646      5236.2075      19.839331      1.2625925    
     27300   301.1141      -14852.545      5238.5122      19.848063      1.262037     
     27400   308.72298     -9646.3186      5240.8169      19.856795      1.261482     
     27500   306.06214     -12025.387      5243.1215      19.865528      1.2609275    
     27600   320.58816     -13525.946      5245.4262      19.87426       1.2603735    
     27700   316.06317     -10569.73       5247.7309      19.882992      1.25982      
     27800   288.90449     -13675.915      5250.0355      19.891724      1.259267     
     27900   282.01246     -11031.03       5252.3402      19.900456      1.2587144    
     28000   288.86832     -15292.766      5254.6449      19.909188      1.2581623    
     28100   296.21603     -12817.365      5256.9495      19.91792       1.2576108    
     28200   295.57378     -15435.79       5259.2542      19.926652      1.2570597    
     28300   302.73664     -10688.064      5261.5589      19.935384      1.256509     
     28400   295.9732      -17318.782      5263.8635      19.944116      1.2559589    
     28500   306.89767     -12161.392      5266.1682      19.952849      1.2554093    
     28600   285.32873     -20873.271      5268.4729      19.961581      1.2548601    
     28700   288.04039     -21884.7        5270.7775      19.970313      1.2543114    
     28800   311.43385     -17200.168      5273.0822      19.979045      1.2537632    
     28900   311.4965      -13130.926      5275.3869      19.987777      1.2532154    
     29000   308.05965     -20060.992      5277.6916      19.996509      1.2526682    
     29100   310.17383     -11076.863      5279.9962      20.005241      1.2521214    
     29200   299.62214     -20349.666      5282.3009      20.013973      1.2515751    
     29300   290.33108     -8637.6037      5284.6056      20.022705      1.2510293    
     29400   317.29858     -16945.589      5286.9102      20.031437      1.2504839    
     29500   299.70969     -21110.096      5289.2149      20.04017       1.2499391    
     29600   309.33458     -18015.831      5291.5196      20.048902      1.2493947    
     29700   307.86776     -21954.176      5293.8242      20.057634      1.2488507    
     29800   312.65998     -16100.981      5296.1289      20.066366      1.2483073    
     29900   283.17871     -9021.5738      5298.4336      20.075098      1.2477643    
     30000   301.76778     -4682.0836      5300.7382      20.08383       1.2472218    
     30100   309.6981      -13445.095      5303.0429      20.092562      1.2466798    
     30200   298.93396     -4985.0088      5305.3476      20.101294      1.2461382    
     30300   291.60373     -20384.404      5307.6522      20.110026      1.2455971    
     30400   296.37667     -18465.883      5309.9569      20.118758      1.2450565    
     30500   308.66061     -20459.059      5312.2616      20.127491      1.2445163    
     30600   306.44896     -14693.911      5314.5663      20.136223      1.2439767    
     30700   305.7794      -7527.1398      5316.8709      20.144955      1.2434374    
     30800   298.36463     -13857.819      5319.1756      20.153687      1.2428987    
     30900   307.73809     -14697.424      5321.4803      20.162419      1.2423604    
     31000   297.67702     -2694.9175      5323.7849      20.171151      1.2418226    
     31100   280.40584     -20751.929      5326.0896      20.179883      1.2412852    
     31200   289.26743     -10382.733      5328.3943      20.188615      1.2407483    
     31300   294.38714     -10213.052      5330.6989      20.197347      1.2402119    
     31400   298.6176      -19176.279      5333.0036      20.206079      1.239676     
     31500   283.85555     -13362.544      5335.3083      20.214812      1.2391405    
     31600   306.44193     -8599.172       5337.6129      20.223544      1.2386054    
     31700   321.63415     -7179.7014      5339.9176      20.232276      1.2380708    
     31800   289.46069     -16886.843      5342.2223      20.241008      1.2375367    
     31900   281.17556     -12682.197      5344.5269      20.24974       1.2370031    
     32000   306.91947     -15076.311      5346.8316      20.258472      1.2364699    
     32100   295.31394     -13313.011      5349.1363      20.267204      1.2359372    
     32200   295.47678     -19343.772      5351.441       20.275936      1.2354049    
     32300   275.68342     -14484.456      5353.7456      20.284668      1.2348731    
     32400   305.05546     -21643.686      5356.0503      20.2934        1.2343417    
     32500   316.47711     -15901.261      5358.355       20.302133      1.2338108    
     32600   300.92452     -20019.995      5360.6596      20.310865      1.2332804    
     32700   293.07112     -16763.508      5362.9643      20.319597      1.2327504    
     32800   321.79495     -20108.043      5365.269       20.328329      1.2322209    
     32900   317.12551     -13121.464      5367.5736      20.337061      1.2316918    
     33000   289.90727     -12060.94       5369.8783      20.345793      1.2311632    
     33100   301.02529     -10234.076      5372.183       20.354525      1.230635     
     33200   328.92606     -12736.135      5374.4876      20.363257      1.2301073    
     33300   333.07441     -11846.86       5376.7923      20.371989      1.22958      
     33400   285.83622     -16830.788      5379.097       20.380721      1.2290532    
     33500   296.30133     -17063.56       5381.4016      20.389454      1.2285268    
     33600   317.92412     -26935.198      5383.7063      20.398186      1.2280009    
     33700   294.55662     -24185.291      5386.011       20.406918      1.2274755    
     33800   312.34645     -28099.691      5388.3157      20.41565       1.2269505    
     33900   321.75861     -20812.704      5390.6203      20.424382      1.2264259    
     34000   294.2638      -16346.741      5392.925       20.433114      1.2259018    
     34100   299.88756     -7890.4522      5395.2297      20.441846      1.2253781    
     34200   296.0452      -17908.133      5397.5343      20.450578      1.2248549    
     34300   303.18562     -11897.379      5399.839       20.45931       1.2243321    
     34400   308.86057     -23995.073      5402.1437      20.468042      1.2238098    
     34500   310.30258     -22933.424      5404.4483      20.476775      1.2232879    
     34600   300.29783     -9101.8295      5406.753       20.485507      1.2227665    
     34700   295.63594     -24170.675      5409.0577      20.494239      1.2222455    
     34800   289.35997     -20078.174      5411.3623      20.502971      1.2217249    
     34900   293.27743     -15115.296      5413.667       20.511703      1.2212048    
     35000   315.82756     -22302.812      5415.9717      20.520435      1.2206852    
     35100   314.90204     -13642.144      5418.2763      20.529167      1.220166     
     35200   323.56039     -23493.084      5420.581       20.537899      1.2196472    
     35300   305.21838     -20807.795      5422.8857      20.546631      1.2191288    
     35400   295.24538     -14222.495      5425.1904      20.555363      1.2186109    
     35500   305.10199     -16653.259      5427.495       20.564096      1.2180935    
     35600   291.10954     -27369.033      5429.7997      20.572828      1.2175765    
     35700   321.86446     -16568.283      5432.1044      20.58156       1.2170599    
     35800   312.00484     -24074.386      5434.409       20.590292      1.2165437    
     35900   287.8232      -17081.703      5436.7137      20.599024      1.216028     
     36000   295.56618     -20235.669      5439.0184      20.607756      1.2155128    
     36100   297.10698     -23700.312      5441.323       20.616488      1.2149979    
     36200   285.202       -21369.541      5443.6277      20.62522       1.2144836    
     36300   311.21991     -18667.567      5445.9324      20.633952      1.2139696    
     36400   297.3389      -22236.76       5448.237       20.642684      1.2134561    
     36500   302.83086     -13642.714      5450.5417      20.651416      1.212943     
     36600   305.95076     -14850.531      5452.8464      20.660149      1.2124303    
     36700   313.6774      -13671.983      5455.1511      20.668881      1.2119181    
     36800   305.33912     -22560.546      5457.4557      20.677613      1.2114063    
     36900   294.83269     -19093.278      5459.7604      20.686345      1.210895     
     37000   279.98749     -18207.632      5462.0651      20.695077      1.210384     
     37100   315.67381     -6677.6113      5464.3697      20.703809      1.2098735    
     37200   310.86817     -17118.745      5466.6744      20.712541      1.2093635    
     37300   295.89913     -26774.02       5468.9791      20.721273      1.2088538    
     37400   291.52898     -26216.756      5471.2837      20.730005      1.2083446    
     37500   303.59705     -22665.992      5473.5884      20.738738      1.2078359    
     37600   316.83532     -15774.598      5475.8931      20.74747       1.2073275    
     37700   295.60087     -13455.981      5478.1977      20.756202      1.2068196    
     37800   288.74696     -21500.34       5480.5024      20.764934      1.2063121    
     37900   270.47918     -13111.213      5482.8071      20.773666      1.205805     
     38000   283.21284     -24867.023      5485.1117      20.782398      1.2052984    
     38100   311.59712     -18044.617      5487.4164      20.79113       1.2047922    
     38200   311.56325     -19604.074      5489.7211      20.799862      1.2042864    
     38300   286.58232     -14112.192      5492.0258      20.808594      1.203781     
     38400   310.2517      -18704.39       5494.3304      20.817326      1.2032761    
     38500   292.07538     -20503.587      5496.6351      20.826059      1.2027716    
     38600   301.86423     -6086.6003      5498.9398      20.834791      1.2022675    
     38700   295.50766     -18237.394      5501.2444      20.843523      1.2017638    
     38800   304.56649     -14183.353      5503.5491      20.852255      1.2012605    
     38900   318.9505      -13543.976      5505.8538      20.860987      1.2007577    
     39000   285.58487     -13167.252      5508.1584      20.869719      1.2002553    
     39100   304.3703      -15154.39       5510.4631      20.878451      1.1997533    
     39200   302.0697      -20606.687      5512.7678      20.887183      1.1992517    
     39300   310.51369     -19610.444      5515.0724      20.895915      1.1987506    
     39400   311.50429     -25222.827      5517.3771      20.904647      1.1982499    
     39500   308.1986      -14870.718      5519.6818      20.91338       1.1977495    
     39600   288.71761     -16166.862      5521.9864      20.922112      1.1972496    
     39700   315.38851     -20978.515      5524.2911      20.930844      1.1967502    
     39800   307.94246     -16827.042      5526.5958      20.939576      1.1962511    
     39900   333.79146     -24360.871      5528.9005      20.948308      1.1957525    
     40000   308.17745     -21356.473      5531.2051      20.95704       1.1952542    
     40100   292.95643     -21399.951      5533.5098      20.965772      1.1947564    
     40200   281.93022     -18962.574      5535.8145      20.974504      1.194259     
     40300   290.55619     -14819.029      5538.1191      20.983236      1.193762     
     40400   296.91618     -21934.288      5540.4238      20.991968      1.1932655    
     40500   314.45434     -18292.675      5542.7285      21.000701      1.1927693    
     40600   304.94162     -22531.64       5545.0331      21.009433      1.1922735    
     40700   285.33974     -11986.46       5547.3378      21.018165      1.1917782    
     40800   295.27926     -17826.356      5549.6425      21.026897      1.1912833    
     40900   300.32586     -18631.523      5551.9471      21.035629      1.1907888    
     41000   303.25355     -19268.539      5554.2518      21.044361      1.1902947    
     41100   301.83125     -14260.707      5556.5565      21.053093      1.189801     
     41200   306.42202     -11964.218      5558.8611      21.061825      1.1893077    
     41300   304.09351     -12236.057      5561.1658      21.070557      1.1888148    
     41400   286.86579     -17205.316      5563.4705      21.079289      1.1883224    
     41500   293.54317     -15764.843      5565.7752      21.088021      1.1878303    
     41600   281.82793     -19891.527      5568.0798      21.096754      1.1873386    
     41700   279.2672      -12891.618      5570.3845      21.105486      1.1868474    
     41800   308.85094     -17711.648      5572.6892      21.114218      1.1863566    
     41900   322.99767     -14856.145      5574.9938      21.12295       1.1858661    
     42000   312.83847     -15724.176      5577.2985      21.131682      1.1853761    
     42100   290.9587      -19240.865      5579.6032      21.140414      1.1848865    
     42200   294.17397     -12559.611      5581.9078      21.149146      1.1843973    
     42300   281.42356     -18606.578      5584.2125      21.157878      1.1839084    
     42400   290.78658     -27305.209      5586.5172      21.16661       1.18342      
     42500   312.23612     -15162.448      5588.8218      21.175343      1.182932     
     42600   302.76926     -21362.27       5591.1265      21.184075      1.1824444    
     42700   285.93767     -18124.591      5593.4312      21.192807      1.1819572    
     42800   286.67571     -17919.067      5595.7358      21.201539      1.1814704    
     42900   286.92432     -12608.512      5598.0405      21.210271      1.180984     
     43000   284.66395     -20852.811      5600.3452      21.219003      1.180498     
     43100   302.38283     -27024.634      5602.6499      21.227735      1.1800124    
     43200   308.78362     -16305.252      5604.9545      21.236467      1.1795272    
     43300   291.7099      -30115.92       5607.2592      21.245199      1.1790424    
     43400   275.04746     -29470.344      5609.5639      21.253931      1.178558     
     43500   268.41919     -28464.482      5611.8685      21.262664      1.178074     
     43600   313.62147     -14148.066      5614.1732      21.271396      1.1775904    
     43700   302.26457     -22245.628      5616.4779      21.280128      1.1771072    
     43800   313.55601     -23295.407      5618.7825      21.28886       1.1766243    
     43900   286.61302     -13906.271      5621.0872      21.297592      1.1761419    
     44000   295.3069      -24688.25       5623.3919      21.306324      1.1756599    
     44100   276.63295     -20536.393      5625.6965      21.315056      1.1751783    
     44200   289.773       -20632.838      5628.0012      21.323788      1.174697     
     44300   311.3497      -16613.742      5630.3059      21.33252       1.1742162    
     44400   309.1544      -22754.627      5632.6105      21.341252      1.1737357    
     44500   300.19542     -24615.779      5634.9152      21.349985      1.1732557    
     44600   283.24068     -15080.945      5637.2199      21.358717      1.172776     
     44700   299.86671     -18225.883      5639.5246      21.367449      1.1722968    
     44800   301.24498     -21449.247      5641.8292      21.376181      1.1718179    
     44900   292.50678     -24238.26       5644.1339      21.384913      1.1713394    
     45000   300.09932     -26572.312      5646.4386      21.393645      1.1708613    
     45100   301.78351     -16513.155      5648.7432      21.402377      1.1703836    
     45200   297.93975     -22201.85       5651.0479      21.411109      1.1699063    
     45300   289.56099     -27051.788      5653.3526      21.419841      1.1694293    
     45400   300.89768     -21031.659      5655.6572      21.428573      1.1689528    
     45500   318.25961     -16910.868      5657.9619      21.437306      1.1684766    
     45600   309.2613      -13971.738      5660.2666      21.446038      1.1680009    
     45700   318.45939     -12518.696      5662.5712      21.45477       1.1675255    
     45800   288.21153     -18521.5        5664.8759      21.463502      1.1670505    
     45900   280.25793     -23783.132      5667.1806      21.472234      1.1665759    
     46000   301.16947     -14747.53       5669.4852      21.480966      1.1661017    
     46100   323.69637     -15863.504      5671.7899      21.489698      1.1656279    
     46200   322.47879     -20690.815      5674.0946      21.49843       1.1651544    
     46300   295.43073     -27405.024      5676.3993      21.507162      1.1646813    
     46400   282.40902     -21732.041      5678.7039      21.515894      1.1642087    
     46500   309.95076     -17915.925      5681.0086      21.524627      1.1637364    
     46600   297.85193     -23901.962      5683.3133      21.533359      1.1632645    
     46700   285.7637      -18078.247      5685.6179      21.542091      1.1627929    
     46800   297.54814     -20082.226      5687.9226      21.550823      1.1623218    
     46900   294.5066      -20091.387      5690.2273      21.559555      1.161851     
     47000   284.98629     -19117.883      5692.5319      21.568287      1.1613806    
     47100   308.68084     -28575.826      5694.8366      21.577019      1.1609106    
     47200   295.90253     -22524.028      5697.1413      21.585751      1.160441     
     47300   296.3759      -22663.577      5699.4459      21.594483      1.1599718    
     47400   294.97993     -25110.388      5701.7506      21.603215      1.1595029    
     47500   315.06219     -26140.211      5704.0553      21.611947      1.1590344    
     47600   300.05939     -22854.935      5706.3599      21.62068       1.1585663    
     47700   313.61991     -17689.422      5708.6646      21.629412      1.1580986    
     47800   288.38169     -17666.127      5710.9693      21.638144      1.1576312    
     47900   282.18825     -32641.746      5713.274       21.646876      1.1571642    
     48000   330.56186     -23437.661      5715.5786      21.655608      1.1566976    
     48100   305.06983     -17564.203      5717.8833      21.66434       1.1562314    
     48200   299.24521     -17683.368      5720.188       21.673072      1.1557656    
     48300   301.64421     -12989.257      5722.4926      21.681804      1.1553001    
     48400   290.72331     -15414.88       5724.7973      21.690536      1.154835     
     48500   285.45802     -22386.917      5727.102       21.699269      1.1543703    
     48600   282.05033     -28224.505      5729.4066      21.708001      1.1539059    
     48700   289.47013     -28651.467      5731.7113      21.716733      1.153442     
     48800   307.32358     -24083.63       5734.016       21.725465      1.1529784    
     48900   315.09508     -19358.612      5736.3206      21.734197      1.1525151    
     49000   305.33129     -10268.889      5738.6253      21.742929      1.1520523    
     49100   302.97071     -11833.863      5740.93        21.751661      1.1515898    
     49200   295.83286     -15729.764      5743.2347      21.760393      1.1511277    
     49300   301.22994     -17624.326      5745.5393      21.769125      1.1506659    
     49400   296.79088     -14902.275      5747.844       21.777857      1.1502046    
     49500   318.392       -18803.244      5750.1487      21.78659       1.1497436    
     49600   316.15077     -18201.092      5752.4533      21.795322      1.1492829    
     49700   306.0322      -16972.676      5754.758       21.804054      1.1488227    
     49800   294.40749     -19882.924      5757.0627      21.812786      1.1483628    
     49900   271.38906     -21527.097      5759.3673      21.821518      1.1479032    
     50000   292.81165     -23097.05       5761.672       21.83025       1.1474441    
     50100   314.19287     -20068.279      5763.9767      21.838982      1.1469853    
     50200   307.74796     -17847.318      5766.2813      21.847714      1.1465268    
     50300   319.09443     -24460.724      5768.586       21.856446      1.1460688    
     50400   299.72778     -18089.056      5770.8907      21.865178      1.1456111    
     50500   296.0324      -19531.193      5773.1953      21.873911      1.1451538    
     50600   311.61887     -30467.015      5775.5         21.882643      1.1446968    
     50700   313.7898      -23792.954      5777.8047      21.891375      1.1442402    
     50800   297.4067      -18518.135      5780.1094      21.900107      1.143784     
     50900   308.06875     -27668.679      5782.414       21.908839      1.1433281    
     51000   282.5654      -21700.606      5784.7187      21.917571      1.1428726    
     51100   286.39926     -24772.945      5787.0234      21.926303      1.1424174    
     51200   296.35896     -20672.128      5789.328       21.935035      1.1419626    
     51300   296.6547      -23128.576      5791.6327      21.943767      1.1415082    
     51400   326.64912     -27374.483      5793.9374      21.952499      1.1410542    
     51500   321.3732      -20268.46       5796.242       21.961232      1.1406005    
     51600   295.20073     -25703.029      5798.5467      21.969964      1.1401471    
     51700   283.73737     -22258.949      5800.8514      21.978696      1.1396941    
     51800   303.43969     -20887.475      5803.156       21.987428      1.1392415    
     51900   282.47912     -23213.224      5805.4607      21.99616       1.1387893    
     52000   282.68617     -21512.464      5807.7654      22.004892      1.1383374    
     52100   308.9835      -19728.69       5810.07        22.013624      1.1378858    
     52200   303.93903     -22275.647      5812.3747      22.022356      1.1374346    
     52300   306.19325     -22504.446      5814.6794      22.031088      1.1369838    
     52400   304.5465      -25943.609      5816.9841      22.03982       1.1365333    
     52500   282.96168     -15627.284      5819.2887      22.048552      1.1360832    
     52600   283.93658     -20289.965      5821.5934      22.057285      1.1356335    
     52700   290.62287     -19956.176      5823.8981      22.066017      1.1351841    
     52800   308.6637      -19668.467      5826.2027      22.074749      1.134735     
     52900   297.87934     -22681.615      5828.5074      22.083481      1.1342863    
     53000   321.86538     -13716.853      5830.8121      22.092213      1.133838     
     53100   303.92373     -25471.763      5833.1167      22.100945      1.13339      
     53200   294.33005     -15829.215      5835.4214      22.109677      1.1329424    
     53300   278.49341     -13491.51       5837.7261      22.118409      1.1324951    
     53400   316.56321     -25221.076      5840.0307      22.127141      1.1320482    
     53500   312.01875     -17100.918      5842.3354      22.135874      1.1316016    
     53600   306.65523     -20236.064      5844.6401      22.144606      1.1311554    
     53700   288.96033     -19746.526      5846.9447      22.153338      1.1307096    
     53800   309.59297     -17681.942      5849.2494      22.16207       1.130264     
     53900   296.01627     -22358.679      5851.5541      22.170802      1.1298189    
     54000   294.85616     -21025.607      5853.8588      22.179534      1.1293741    
     54100   303.93257     -29034.308      5856.1634      22.188266      1.1289296    
     54200   287.05038     -23590.254      5858.4681      22.196998      1.1284855    
     54300   289.69038     -29456.377      5860.7728      22.20573       1.1280417    
     54400   300.63232     -26717.456      5863.0774      22.214462      1.1275983    
     54500   296.17767     -19208.096      5865.3821      22.223195      1.1271553    
     54600   301.9544      -22749.454      5867.6868      22.231927      1.1267126    
     54700   292.52407     -26278.811      5869.9914      22.240659      1.1262702    
     54800   289.92187     -23484.648      5872.2961      22.249391      1.1258282    
     54900   301.14325     -23404.997      5874.6008      22.258123      1.1253865    
     55000   297.69519     -31569.658      5876.9054      22.266855      1.1249452    
     55100   337.11993     -28099.79       5879.2101      22.275587      1.1245042    
     55200   298.6742      -18693.484      5881.5148      22.284319      1.1240635    
     55300   284.85469     -24358.128      5883.8194      22.293051      1.1236233    
     55400   270.08553     -20607.674      5886.1241      22.301783      1.1231833    
     55500   321.05019     -28108.07       5888.4288      22.310516      1.1227437    
     55600   301.40998     -16427.14       5890.7335      22.319248      1.1223044    
     55700   295.34865     -19873.7        5893.0381      22.32798       1.1218655    
     55800   315.99156     -24896.599      5895.3428      22.336712      1.121427     
     55900   298.58777     -22929.107      5897.6475      22.345444      1.1209887    
     56000   273.71908     -23446.21       5899.9521      22.354176      1.1205508    
     56100   284.69593     -20596.709      5902.2568      22.362908      1.1201133    
     56200   306.69963     -23379.84       5904.5615      22.37164       1.1196761    
     56300   304.49213     -29586.59       5906.8661      22.380372      1.1192392    
     56400   304.92515     -25233.81       5909.1708      22.389104      1.1188027    
     56500   301.94577     -19327.642      5911.4755      22.397837      1.1183665    
     56600   295.96339     -24114.343      5913.7801      22.406569      1.1179307    
     56700   300.73282     -17774.681      5916.0848      22.415301      1.1174952    
     56800   328.58531     -21319.845      5918.3895      22.424033      1.11706      
     56900   310.52982     -21434.145      5920.6941      22.432765      1.1166252    
     57000   309.39269     -22061          5922.9988      22.441497      1.1161907    
     57100   304.26152     -19771.92       5925.3035      22.450229      1.1157566    
     57200   283.5228      -18667.963      5927.6082      22.458961      1.1153228    
     57300   290.53075     -23605.264      5929.9128      22.467693      1.1148893    
     57400   327.77881     -18322.183      5932.2175      22.476425      1.1144562    
     57500   295.96102     -21205.283      5934.5222      22.485157      1.1140234    
     57600   305.63061     -18229.649      5936.8268      22.49389       1.1135909    
     57700   280.40188     -20245.882      5939.1315      22.502622      1.1131588    
     57800   296.31158     -16823.767      5941.4362      22.511354      1.112727     
     57900   289.71742     -23289.594      5943.7408      22.520086      1.1122955    
     58000   280.96458     -24041.616      5946.0455      22.528818      1.1118644    
     58100   278.40865     -20249.197      5948.3502      22.53755       1.1114336    
     58200   299.29046     -20828.411      5950.6548      22.546282      1.1110032    
     58300   301.31151     -23760.739      5952.9595      22.555014      1.110573     
     58400   303.83745     -30144.927      5955.2642      22.563746      1.1101432    
     58500   315.14515     -26491.919      5957.5688      22.572479      1.1097138    
     58600   309.60077     -27555.484      5959.8735      22.581211      1.1092847    
     58700   290.66029     -15798.685      5962.1782      22.589943      1.1088559    
     58800   283.27185     -24620.26       5964.4829      22.598675      1.1084274    
     58900   301.31702     -21812.415      5966.7875      22.607407      1.1079993    
     59000   328.22063     -19667.2        5969.0922      22.616139      1.1075715    
     59100   312.92294     -27630.07       5971.3969      22.624871      1.107144     
     59200   282.07173     -18834.515      5973.7015      22.633603      1.1067169    
     59300   292.59064     -15807.841      5976.0062      22.642335      1.1062901    
     59400   288.96786     -15490.237      5978.3109      22.651067      1.1058636    
     59500   318.54478     -21070.112      5980.6155      22.6598        1.1054374    
     59600   324.87503     -12622.343      5982.9202      22.668532      1.1050116    
     59700   304.3872      -16529.126      5985.2249      22.677264      1.1045861    
     59800   299.65163     -19804.819      5987.5295      22.685996      1.104161     
     59900   289.94947     -23786.884      5989.8342      22.694728      1.1037361    
     60000   304.68514     -25811.572      5992.1389      22.70346       1.1033116    
     60100   299.52832     -17354.743      5994.4435      22.712192      1.1028874    
     60200   300.46859     -12937.818      5996.7482      22.720924      1.1024636    
     60300   309.40532     -10786.978      5999.0529      22.729656      1.10204      
     60400   310.8986      -12094.498      6001.3576      22.738388      1.1016168    
     60500   295.42438     -18477.251      6003.6622      22.747121      1.1011939    
     60600   275.49634     -20700.659      6005.9669      22.755853      1.1007714    
     60700   300.31288     -24511.276      6008.2716      22.764585      1.1003491    
     60800   307.49364     -16365          6010.5762      22.773317      1.0999272    
     60900   302.88956     -21173.884      6012.8809      22.782049      1.0995056    
     61000   319.5169      -17247.461      6015.1856      22.790781      1.0990844    
     61100   308.37627     -13488.672      6017.4902      22.799513      1.0986634    
     61200   300.87058     -11018.304      6019.7949      22.808245      1.0982428    
     61300   296.62664     -14824.219      6022.0996      22.816977      1.0978225    
     61400   299.64045     -11422.523      6024.4042      22.825709      1.0974025    
     61500   279.80596     -15936.706      6026.7089      22.834442      1.0969829    
     61600   289.89673     -20360.948      6029.0136      22.843174      1.0965635    
     61700   311.16353     -12654.304      6031.3183      22.851906      1.0961445    
     61800   304.53877     -7574.0868      6033.6229      22.860638      1.0957258    
     61900   320.30511     -16664.577      6035.9276      22.86937       1.0953074    
     62000   298.33977     -15849.304      6038.2323      22.878102      1.0948894    
     62100   299.08953     -13757.376      6040.5369      22.886834      1.0944716    
     62200   325.14016     -13490.097      6042.8416      22.895566      1.0940542    
     62300   314.45432     -10519.82       6045.1463      22.904298      1.0936371    
     62400   294.39915     -11028.402      6047.4509      22.91303       1.0932203    
     62500   280.67853     -19899.113      6049.7556      22.921762      1.0928039    
     62600   305.77469     -8402.62        6052.0603      22.930495      1.0923877    
     62700   305.75754     -12738.098      6054.3649      22.939227      1.0919719    
     62800   317.25967     -15980.421      6056.6696      22.947959      1.0915564    
     62900   307.68038     -16958.447      6058.9743      22.956691      1.0911412    
     63000   283.90093     -11894.96       6061.2789      22.965423      1.0907263    
     63100   283.43208     -7219.2571      6063.5836      22.974155      1.0903117    
     63200   295.49382     -4266.5816      6065.8883      22.982887      1.0898975    
     63300   297.45154     -16242.177      6068.193       22.991619      1.0894835    
     63400   313.16745     -14281.25       6070.4976      23.000351      1.0890699    
     63500   307.88724     -18223.65       6072.8023      23.009084      1.0886566    
     63600   280.03146     -19080.61       6075.107       23.017816      1.0882436    
     63700   278.67081     -2556.1147      6077.4116      23.026548      1.0878309    
     63800   299.8279      -13624.472      6079.7163      23.03528       1.0874186    
     63900   325.11808     -15211.266      6082.021       23.044012      1.0870065    
     64000   319.45103     -14356.388      6084.3256      23.052744      1.0865948    
     64100   271.55713     -7896.3397      6086.6303      23.061476      1.0861833    
     64200   315.56682     -16304.881      6088.935       23.070208      1.0857722    
     64300   316.24167     -15242.738      6091.2396      23.07894       1.0853614    
     64400   302.77552     -10732.718      6093.5443      23.087672      1.0849509    
     64500   290.47964     -14308.748      6095.849       23.096405      1.0845407    
     64600   288.41946     -25461.418      6098.1536      23.105137      1.0841308    
     64700   310.10733     -13609.723      6100.4583      23.113869      1.0837213    
     64800   286.59392     -10324.319      6102.763       23.122601      1.083312     
     64900   298.73558     -15366.565      6105.0677      23.131333      1.082903     
     65000   302.45996     -16925.972      6107.3723      23.140065      1.0824944    
     65100   294.44992     -18272.912      6109.677       23.148797      1.0820861    
     65200   313.79086     -10446.615      6111.9817      23.157529      1.081678     
     65300   285.38325     -8841.6287      6114.2863      23.166261      1.0812703    
     65400   301.84426     -6154.1493      6116.591       23.174993      1.0808629    
     65500   299.76738     -7549.292       6118.8957      23.183726      1.0804558    
     65600   295.52202     -18222.956      6121.2003      23.192458      1.080049     
     65700   313.8442      -16302.259      6123.505       23.20119       1.0796425    
     65800   286.80952     -16810.727      6125.8097      23.209922      1.0792363    
     65900   278.13558     -18616.083      6128.1143      23.218654      1.0788304    
     66000   287.49839     -15170.105      6130.419       23.227386      1.0784249    
     66100   271.48948     -19488.916      6132.7237      23.236118      1.0780196    
     66200   303.857       -17652.503      6135.0283      23.24485       1.0776146    
     66300   304.5467      -15108.896      6137.333       23.253582      1.07721      
     66400   292.3886      -8597.8593      6139.6377      23.262314      1.0768056    
     66500   290.07153     -6696.7581      6141.9424      23.271047      1.0764016    
     66600   286.7977      -16442.064      6144.247       23.279779      1.0759978    
     66700   294.30353     -22131.877      6146.5517      23.288511      1.0755944    
     66800   300.41883     -11241.96       6148.8564      23.297243      1.0751912    
     66900   301.81969     -11601.866      6151.161       23.305975      1.0747884    
     67000   311.95986     -7066.7167      6153.4657      23.314707      1.0743858    
     67100   302.24172     -4850.2307      6155.7704      23.323439      1.0739836    
     67200   273.95889     -15323.744      6158.075       23.332171      1.0735816    
     67300   305.36199     -16759.83       6160.3797      23.340903      1.07318      
     67400   290.07002     -16787.081      6162.6844      23.349635      1.0727787    
     67500   320.35746     -10218.876      6164.989       23.358367      1.0723776    
     67600   311.81672     -13708.159      6167.2937      23.3671        1.0719769    
     67700   313.19285     -16318.314      6169.5984      23.375832      1.0715765    
     67800   307.94398     -15395.422      6171.903       23.384564      1.0711763    
     67900   288.99263     -12478.092      6174.2077      23.393296      1.0707765    
     68000   304.19296     -10955.804      6176.5124      23.402028      1.0703769    
     68100   293.82378     -15818.217      6178.8171      23.41076       1.0699777    
     68200   308.23882     -4977.5582      6181.1217      23.419492      1.0695787    
     68300   298.62127     -21130.057      6183.4264      23.428224      1.0691801    
     68400   303.05585     -15060.947      6185.7311      23.436956      1.0687817    
     68500   294.609       -12879.216      6188.0357      23.445689      1.0683837    
     68600   320.51427     -11961.002      6190.3404      23.454421      1.0679859    
     68700   294.72235     -15114.071      6192.6451      23.463153      1.0675884    
     68800   290.35674     -10058.966      6194.9497      23.471885      1.0671913    
     68900   277.72191     -15497.708      6197.2544      23.480617      1.0667944    
     69000   318.69534     -9608.0677      6199.5591      23.489349      1.0663978    
     69100   327.675       -6820.0335      6201.8637      23.498081      1.0660015    
     69200   294.07716     -9820.1674      6204.1684      23.506813      1.0656056    
     69300   294.27389     -18080.578      6206.4731      23.515545      1.0652099    
     69400   297.25553     -12782.359      6208.7777      23.524277      1.0648145    
     69500   280.54995     -16976.821      6211.0824      23.53301       1.0644194    
     69600   294.40143     -17150.615      6213.3871      23.541742      1.0640245    
     69700   282.95423     -15856.534      6215.6918      23.550474      1.06363      
     69800   290.8251      -15640.857      6217.9964      23.559206      1.0632358    
     69900   288.67135     -8968.7081      6220.3011      23.567938      1.0628419    
     70000   305.23787     -19398.599      6222.6058      23.57667       1.0624482    
     70100   293.63717     -8648.503       6224.9104      23.585402      1.0620549    
     70200   283.08041     -25982.055      6227.2151      23.594134      1.0616618    
     70300   270.08878     -20425.298      6229.5198      23.602866      1.061269     
     70400   292.67365     -22859.949      6231.8244      23.611598      1.0608765    
     70500   285.43017     -10313.225      6234.1291      23.620331      1.0604843    
     70600   307.02968     -24848.444      6236.4338      23.629063      1.0600924    
     70700   308.89028     -17769.22       6238.7384      23.637795      1.0597008    
     70800   278.47714     -17034.871      6241.0431      23.646527      1.0593095    
     70900   303.47386     -19508.145      6243.3478      23.655259      1.0589185    
     71000   303.16409     -14504.606      6245.6524      23.663991      1.0585277    
     71100   292.43936     -13046.835      6247.9571      23.672723      1.0581373    
     71200   297.00532     -14793.113      6250.2618      23.681455      1.0577471    
     71300   295.45021     -18507.821      6252.5665      23.690187      1.0573572    
     71400   316.23244     -15254.314      6254.8711      23.698919      1.0569676    
     71500   270.72753     -17759.161      6257.1758      23.707652      1.0565783    
     71600   264.9851      -22866.897      6259.4805      23.716384      1.0561893    
     71700   294.55459     -11128.449      6261.7851      23.725116      1.0558006    
     71800   317.95116     -15190.369      6264.0898      23.733848      1.0554121    
     71900   291.49251     -12979.056      6266.3945      23.74258       1.055024     
     72000   289.00672     -19577.935      6268.6991      23.751312      1.0546361    
     72100   300.63175     -17561.301      6271.0038      23.760044      1.0542485    
     72200   302.27969     -19091.998      6273.3085      23.768776      1.0538612    
     72300   304.33377     -13946.217      6275.6131      23.777508      1.0534742    
     72400   311.88712     -9994.7519      6277.9178      23.78624       1.0530874    
     72500   308.18761     -21597.85       6280.2225      23.794973      1.052701     
     72600   309.6846      -19428.709      6282.5271      23.803705      1.0523148    
     72700   303.28137     -15259.647      6284.8318      23.812437      1.0519289    
     72800   310.22665     -10152.779      6287.1365      23.821169      1.0515433    
     72900   301.44025     -5693.7334      6289.4412      23.829901      1.051158     
     73000   285.72355     -18013.499      6291.7458      23.838633      1.050773     
     73100   285.2081      -14179.949      6294.0505      23.847365      1.0503882    
     73200   302.16152     -23335.333      6296.3552      23.856097      1.0500037    
     73300   315.24235     -22719.441      6298.6598      23.864829      1.0496195    
     73400   321.62647     -19050.127      6300.9645      23.873561      1.0492356    
     73500   307.33618     -16803.125      6303.2692      23.882294      1.048852     
     73600   304.8362      -16857.623      6305.5738      23.891026      1.0484686    
     73700   310.97254     -16028.146      6307.8785      23.899758      1.0480856    
     73800   294.1331      -12295.476      6310.1832      23.90849       1.0477028    
     73900   288.21178     -13190.703      6312.4878      23.917222      1.0473202    
     74000   304.93119     -20278.81       6314.7925      23.925954      1.046938     
     74100   277.40701     -12858.702      6317.0972      23.934686      1.0465561    
     74200   284.08134     -13821.346      6319.4019      23.943418      1.0461744    
     74300   286.08923     -19759.51       6321.7065      23.95215       1.045793     
     74400   299.21876     -18448.603      6324.0112      23.960882      1.0454119    
     74500   291.10907     -14442.103      6326.3159      23.969615      1.045031     
     74600   312.35995     -14531.392      6328.6205      23.978347      1.0446505    
     74700   278.42814     -21798.85       6330.9252      23.987079      1.0442702    
     74800   297.23111     -14796.348      6333.2299      23.995811      1.0438902    
     74900   297.72567     -13439.287      6335.5345      24.004543      1.0435104    
     75000   304.61735     -22622.164      6337.8392      24.013275      1.043131     
     75100   312.44085     -20362.24       6340.1439      24.022007      1.0427518    
     75200   297.14113     -12238.857      6342.4485      24.030739      1.0423729    
     75300   298.61272     -8676.8233      6344.7532      24.039471      1.0419942    
     75400   312.12272     -8166.9474      6347.0579      24.048203      1.0416159    
     75500   292.72727     -11156.87       6349.3625      24.056936      1.0412378    
     75600   272.02338     -10534.585      6351.6672      24.065668      1.04086      
     75700   295.83947     -15659.465      6353.9719      24.0744        1.0404825    
     75800   325.65738     -11895.29       6356.2766      24.083132      1.0401052    
     75900   310.587       -19040.013      6358.5812      24.091864      1.0397282    
     76000   320.42234     -20193.246      6360.8859      24.100596      1.0393515    
     76100   304.11674     -21044.958      6363.1906      24.109328      1.0389751    
     76200   289.96698     -20735.91       6365.4952      24.11806       1.0385989    
     76300   281.64584     -17310.961      6367.7999      24.126792      1.038223     
     76400   303.21694     -17826.501      6370.1046      24.135524      1.0378474    
     76500   297.58203     -17769.271      6372.4092      24.144257      1.037472     
     76600   290.66362     -19589.244      6374.7139      24.152989      1.0370969    
     76700   290.07863     -9973.1229      6377.0186      24.161721      1.0367221    
     76800   294.17539     -13625.178      6379.3232      24.170453      1.0363476    
     76900   285.00649     -22440.384      6381.6279      24.179185      1.0359733    
     77000   307.70346     -21283.22       6383.9326      24.187917      1.0355993    
     77100   325.30103     -22314.819      6386.2372      24.196649      1.0352256    
     77200   309.4845      -7999.8037      6388.5419      24.205381      1.0348521    
     77300   304.72682     -21257.491      6390.8466      24.214113      1.034479     
     77400   283.92048     -13085.292      6393.1513      24.222845      1.034106     
     77500   282.2209      -14260.914      6395.4559      24.231578      1.0337334    
     77600   298.6549      -17602.04       6397.7606      24.24031       1.033361     
     77700   314.75771     -19686.559      6400.0653      24.249042      1.0329889    
     77800   310.64939     -18731.406      6402.3699      24.257774      1.032617     
     77900   282.77119     -4326.8879      6404.6746      24.266506      1.0322455    
     78000   295.33341     -22033.553      6406.9793      24.275238      1.0318742    
     78100   312.52305     -13939.523      6409.2839      24.28397       1.0315031    
     78200   309.54654     -18957.19       6411.5886      24.292702      1.0311323    
     78300   322.28573     -14864.591      6413.8933      24.301434      1.0307618    
     78400   305.41474     -14482.229      6416.1979      24.310166      1.0303916    
     78500   296.63326     -10778.127      6418.5026      24.318899      1.0300216    
     78600   306.05705     -11646.19       6420.8073      24.327631      1.0296519    
     78700   288.4742      -21836.013      6423.1119      24.336363      1.0292824    
     78800   263.18636     -19434.179      6425.4166      24.345095      1.0289133    
     78900   272.25847     -16651.261      6427.7213      24.353827      1.0285443    
     79000   301.87158     -19052.779      6430.026       24.362559      1.0281757    
     79100   295.32615     -15763.66       6432.3306      24.371291      1.0278073    
     79200   297.43429     -14369.969      6434.6353      24.380023      1.0274392    
     79300   307.28202     -16622.245      6436.94        24.388755      1.0270713    
     79400   304.72406     -17670.751      6439.2446      24.397487      1.0267037    
     79500   290.54545     -19106.959      6441.5493      24.40622       1.0263364    
     79600   297.27404     -21968.015      6443.854       24.414952      1.0259693    
     79700   297.44957     -12412.891      6446.1586      24.423684      1.0256025    
     79800   302.07079     -18946.071      6448.4633      24.432416      1.0252359    
     79900   325.63857     -15996.57       6450.768       24.441148      1.0248697    
     80000   301.19248     -12018.652      6453.0726      24.44988       1.0245036    
     80100   297.95669     -15439.608      6455.3773      24.458612      1.0241379    
     80200   296.29722     -11333.26       6457.682       24.467344      1.0237724    
     80300   292.4866      -21895.607      6459.9866      24.476076      1.0234071    
     80400   277.00336     -11027.864      6462.2913      24.484808      1.0230421    
     80500   283.13838     -15784.449      6464.596       24.493541      1.0226774    
     80600   291.34057     -23121.428      6466.9007      24.502273      1.022313     
     80700   295.52807     -17792.46       6469.2053      24.511005      1.0219488    
     80800   297.92865     -12793.859      6471.51        24.519737      1.0215848    
     80900   284.0341      -20547.946      6473.8147      24.528469      1.0212211    
     81000   275.49024     -17522.804      6476.1193      24.537201      1.0208577    
     81100   283.18183     -14013.442      6478.424       24.545933      1.0204945    
     81200   319.35645     -16825.695      6480.7287      24.554665      1.0201316    
     81300   305.23296     -18775.322      6483.0333      24.563397      1.019769     
     81400   315.72298     -14497.708      6485.338       24.572129      1.0194066    
     81500   322.45331     -9041.8251      6487.6427      24.580862      1.0190445    
     81600   295.00989     -12309.139      6489.9473      24.589594      1.0186826    
     81700   301.86843     -5386.9551      6492.252       24.598326      1.018321     
     81800   296.69592     -16027.867      6494.5567      24.607058      1.0179596    
     81900   314.23253     -12403.036      6496.8613      24.61579       1.0175985    
     82000   277.84049     -13696.523      6499.166       24.624522      1.0172376    
     82100   283.08504     -7146.3871      6501.4707      24.633254      1.016877     
     82200   300.94729     -15306.875      6503.7754      24.641986      1.0165167    
     82300   301.88847     -19660.571      6506.08        24.650718      1.0161566    
     82400   308.73972     -17332.125      6508.3847      24.65945       1.0157968    
     82500   290.13687     -11260.996      6510.6894      24.668183      1.0154372    
     82600   283.19168     -18346.861      6512.994       24.676915      1.0150779    
     82700   306.04487     -4631.3383      6515.2987      24.685647      1.0147188    
     82800   301.95601     -19129.201      6517.6034      24.694379      1.01436      
     82900   305.43587     -17219.644      6519.908       24.703111      1.0140015    
     83000   293.12884     -10075.541      6522.2127      24.711843      1.0136432    
     83100   295.478       -10246.89       6524.5174      24.720575      1.0132851    
     83200   299.38435     -11256.53       6526.822       24.729307      1.0129273    
     83300   308.80237     -15074.265      6529.1267      24.738039      1.0125698    
     83400   312.14231     -15538.379      6531.4314      24.746771      1.0122125    
     83500   296.15008     -14966.707      6533.736       24.755504      1.0118554    
     83600   291.69933     -12997.924      6536.0407      24.764236      1.0114986    
     83700   285.11589     -20478.29       6538.3454      24.772968      1.0111421    
     83800   282.77062     -25450.886      6540.6501      24.7817        1.0107858    
     83900   317.61243     -16847.219      6542.9547      24.790432      1.0104298    
     84000   310.07351     -17181.389      6545.2594      24.799164      1.010074     
     84100   305.62277     -15147.919      6547.5641      24.807896      1.0097185    
     84200   311.49959     -14826.933      6549.8687      24.816628      1.0093632    
     84300   291.86475     -14057.891      6552.1734      24.82536       1.0090081    
     84400   286.47465     -21563.278      6554.4781      24.834092      1.0086534    
     84500   300.59171     -11304.952      6556.7827      24.842825      1.0082988    
     84600   317.31927     -13980.241      6559.0874      24.851557      1.0079445    
     84700   321.75579     -18458.163      6561.3921      24.860289      1.0075905    
     84800   323.07161     -7083.902       6563.6967      24.869021      1.0072367    
     84900   312.65246     -16954.458      6566.0014      24.877753      1.0068832    
     85000   293.61229     -12384.57       6568.3061      24.886485      1.0065299    
     85100   287.38556     -13187.261      6570.6107      24.895217      1.0061768    
     85200   293.73847     -15096.379      6572.9154      24.903949      1.005824     
     85300   318.5437      -20231.897      6575.2201      24.912681      1.0054715    
     85400   314.32139     -11650.363      6577.5248      24.921413      1.0051192    
     85500   294.89329     -33359.146      6579.8294      24.930146      1.0047671    
     85600   296.1255      -19490.192      6582.1341      24.938878      1.0044153    
     85700   303.42245     -14702.849      6584.4388      24.94761       1.0040638    
     85800   279.02018     -19123.738      6586.7434      24.956342      1.0037124    
     85900   300.11782     -15723.91       6589.0481      24.965074      1.0033614    
     86000   340.05818     -24200.77       6591.3528      24.973806      1.0030105    
     86100   327.79913     -10037.531      6593.6574      24.982538      1.00266      
     86200   293.07589     -13674.685      6595.9621      24.99127       1.0023096    
     86300   279.59804     -19653.991      6598.2668      25.000002      1.0019595    
     86400   287.35777     -17966.842      6600.5714      25.008734      1.0016097    
     86500   307.74954     -16172.604      6602.8761      25.017467      1.0012601    
     86600   311.43809     -20640.261      6605.1808      25.026199      1.0009107    
     86700   292.31103     -14483.512      6607.4855      25.034931      1.0005616    
     86800   289.16586     -25579.272      6609.7901      25.043663      1.0002127    
     86900   288.99183     -20456.944      6612.0948      25.052395      0.99986412   
     87000   309.1167      -22561.547      6614.3995      25.061127      0.99951573   
     87100   290.46212     -16037.975      6616.7041      25.069859      0.99916759   
[...]
     98600   301.76972     -16435.225      6881.741       26.074051      0.96068659   
     98700   312.43493     -14616.82       6884.0457      26.082783      0.96036497   
     98800   309.88735     -21669.496      6886.3504      26.091515      0.96004356   
     98900   274.10601     -20256.139      6888.655       26.100247      0.95972237   
     99000   307.11822     -17996.824      6890.9597      26.108979      0.95940139   
     99100   310.97464     -23010.159      6893.2644      26.117711      0.95908063   
     99200   298.06489     -20127.861      6895.5691      26.126443      0.95876008   
     99300   299.43292     -21709.347      6897.8737      26.135175      0.95843975   
     99400   295.3202      -26277.034      6900.1784      26.143907      0.95811963   
     99500   273.4363      -19805.092      6902.4831      26.152639      0.95779972   
     99600   298.09116     -22831.636      6904.7877      26.161372      0.95748003   
     99700   305.38981     -26866.245      6907.0924      26.170104      0.95716055   
     99800   308.53692     -16215.653      6909.3971      26.178836      0.95684128   
     99900   298.90188     -17781.585      6911.7017      26.187568      0.95652223   
    100000   303.93137     -19916.624      6914.0064      26.1963        0.95620339   
    100100   286.84147     -27245.538      6916.3111      26.205032      0.95588476   
    100200   316.55251     -26124.046      6918.6157      26.213764      0.95556634   
    100300   343.66704     -20548.57       6920.9204      26.222496      0.95524814   
    100400   281.04944     -25230.94       6923.2251      26.231228      0.95493015   
    100500   303.91256     -17094.579      6925.5297      26.239961      0.95461237   
    100600   299.77408     -18389.987      6927.8344      26.248693      0.9542948    
    100700   286.30887     -25785.535      6930.1391      26.257425      0.95397744   
    100800   297.84653     -21343.955      6932.4438      26.266157      0.95366029   
    100900   300.49327     -17993.688      6934.7484      26.274889      0.95334336   
    101000   322.40489     -23363.364      6937.0531      26.283621      0.95302663   
    101100   299.4079      -26626.203      6939.3578      26.292353      0.95271012   
    101200   295.19795     -24559.347      6941.6624      26.301085      0.95239381   
    101300   307.24658     -19201.732      6943.9671      26.309817      0.95207772   
    101400   298.62406     -21612.426      6946.2718      26.318549      0.95176183   
    101500   303.62226     -18944.64       6948.5764      26.327282      0.95144616   
    101600   282.16046     -15337.692      6950.8811      26.336014      0.95113069   
    101700   296.76764     -16957.71       6953.1858      26.344746      0.95081543   
    101800   310.73917     -28979.705      6955.4904      26.353478      0.95050038   
    101900   304.33901     -22674.404      6957.7951      26.36221       0.95018554   
    102000   292.83309     -28178.376      6960.0998      26.370942      0.94987091   
    102100   292.15603     -22065.995      6962.4044      26.379674      0.94955649   
    102200   316.52282     -26979.828      6964.7091      26.388406      0.94924228   
    102300   310.46492     -19321.641      6967.0138      26.397138      0.94892827   
    102400   293.93332     -21713.601      6969.3185      26.40587       0.94861447   
    102500   292.64079     -24599.124      6971.6231      26.414603      0.94830088   
    102600   287.06023     -18345.953      6973.9278      26.423335      0.94798749   
    102700   295.89141     -24589.556      6976.2325      26.432067      0.94767432   
    102800   313.37822     -22612.406      6978.5371      26.440799      0.94736135   
    102900   308.21167     -26664.603      6980.8418      26.449531      0.94704858   
    103000   288.69504     -27912.526      6983.1465      26.458263      0.94673603   
    103100   289.90877     -28641.381      6985.4511      26.466995      0.94642367   
    103200   276.71235     -20995.678      6987.7558      26.475727      0.94611153   
    103300   290.84635     -33402.652      6990.0605      26.484459      0.94579959   
    103400   312.08014     -26459.787      6992.3651      26.493191      0.94548786   
    103500   290.03336     -17441.401      6994.6698      26.501924      0.94517633   
    103600   299.89968     -25924.899      6996.9745      26.510656      0.94486501   
    103700   294.82689     -23449.031      6999.2791      26.519388      0.94455389   
    103800   307.82876     -26284.447      7001.5838      26.52812       0.94424297   
    103900   320.83624     -19983.439      7003.8885      26.536852      0.94393227   
    104000   298.65496     -23823.989      7006.1932      26.545584      0.94362176   
    104100   284.10157     -20226.88       7008.4978      26.554316      0.94331146   
    104200   305.71722     -27756.866      7010.8025      26.563048      0.94300137   
    104300   310.90131     -29076.859      7013.1072      26.57178       0.94269147   
    104400   323.43361     -16138.643      7015.4118      26.580512      0.94238179   
    104500   319.94565     -23906.246      7017.7165      26.589244      0.9420723    
    104600   305.17174     -23242.087      7020.0212      26.597977      0.94176302   
    104700   285.32549     -26419.697      7022.3258      26.606709      0.94145394   
    104800   294.18839     -26196.688      7024.6305      26.615441      0.94114506   
    104900   295.31533     -27401.037      7026.9352      26.624173      0.94083639   
    105000   303.36252     -20172.676      7029.2398      26.632905      0.94052792   
    105100   328.36627     -27001.689      7031.5445      26.641637      0.94021965   
    105200   305.76788     -25372.283      7033.8492      26.650369      0.93991159   
    105300   295.82801     -28182.901      7036.1538      26.659101      0.93960372   
    105400   291.98891     -25153.263      7038.4585      26.667833      0.93929606   
    105500   303.78504     -24727.951      7040.7632      26.676566      0.9389886    
    105600   278.76815     -25209.796      7043.0679      26.685298      0.93868133   
    105700   298.61152     -20657.818      7045.3725      26.69403       0.93837427   
    105800   330.65655     -24760.325      7047.6772      26.702762      0.93806742   
    105900   319.72359     -22881.303      7049.9819      26.711494      0.93776076   
    106000   281.054       -22446.404      7052.2865      26.720226      0.9374543    
    106100   312.79624     -27855.222      7054.5912      26.728958      0.93714804   
    106200   301.00696     -20588.123      7056.8959      26.73769       0.93684198   
    106300   304.14951     -24635.075      7059.2005      26.746422      0.93653613   
    106400   306.20771     -25024.824      7061.5052      26.755154      0.93623047   
    106500   305.04996     -17794.539      7063.8099      26.763887      0.93592501   
    106600   313.58453     -27964.1        7066.1145      26.772619      0.93561975   
    106700   319.83634     -28124.217      7068.4192      26.781351      0.93531469   
    106800   306.65872     -23267.869      7070.7239      26.790083      0.93500983   
    106900   288.78082     -18828.896      7073.0285      26.798815      0.93470517   
    107000   295.81027     -16981.825      7075.3332      26.807547      0.9344007    
    107100   305.63214     -17099.335      7077.6379      26.816279      0.93409644   
    107200   329.23251     -20522.683      7079.9426      26.825011      0.93379237   
    107300   277.68793     -18860.08       7082.2472      26.833743      0.9334885    
    107400   291.50911     -16267.841      7084.5519      26.842475      0.93318483   
    107500   276.30503     -20146.168      7086.8566      26.851208      0.93288135   
    107600   279.48666     -17764.96       7089.1612      26.85994       0.93257807   
    107700   297.3219      -16990.248      7091.4659      26.868672      0.93227499   
    107800   300.49013     -20174.784      7093.7706      26.877404      0.93197211   
    107900   289.59949     -24139.054      7096.0752      26.886136      0.93166942   
    108000   300.01307     -18590.091      7098.3799      26.894868      0.93136693   
    108100   306.19803     -25962.481      7100.6846      26.9036        0.93106464   
    108200   285.26561     -25302.965      7102.9892      26.912332      0.93076254   
    108300   304.31462     -21430.896      7105.2939      26.921064      0.93046064   
    108400   295.93831     -24375.224      7107.5986      26.929796      0.93015894   
    108500   302.42959     -23527.704      7109.9032      26.938529      0.92985743   
    108600   289.01765     -18216.365      7112.2079      26.947261      0.92955611   
    108700   279.86369     -22567.686      7114.5126      26.955993      0.92925499   
    108800   299.86558     -23019.874      7116.8173      26.964725      0.92895407   
    108900   312.29477     -22340.359      7119.1219      26.973457      0.92865334   
    109000   305.10002     -24913.169      7121.4266      26.982189      0.9283528    
    109100   313.92241     -19703.905      7123.7313      26.990921      0.92805246   
    109200   303.95301     -18506.953      7126.0359      26.999653      0.92775231   
    109300   287.30589     -24147.584      7128.3406      27.008385      0.92745236   
    109400   291.23494     -23444.052      7130.6453      27.017117      0.9271526    
    109500   309.48513     -24825.375      7132.9499      27.025849      0.92685304   
    109600   299.45735     -20761.764      7135.2546      27.034582      0.92655367   
    109700   310.11822     -28593.86       7137.5593      27.043314      0.92625449   
    109800   290.70917     -18834.032      7139.8639      27.052046      0.92595551   
    109900   296.61903     -16874.081      7142.1686      27.060778      0.92565671   
    110000   307.79195     -28361.011      7144.4733      27.06951       0.92535812   
    110100   291.32571     -22738.166      7146.7779      27.078242      0.92505971   
    110200   293.46197     -25629.495      7149.0826      27.086974      0.9247615    
    110300   300.57399     -27985.62       7151.3873      27.095706      0.92446347   
    110400   294.9893      -24194.579      7153.692       27.104438      0.92416564   
    110500   302.39537     -24539.307      7155.9966      27.113171      0.92386801   
    110600   310.7132      -18187.187      7158.3013      27.121903      0.92357056   
    110700   298.92076     -19538.562      7160.606       27.130635      0.9232733    
    110800   313.06203     -24646.926      7162.9106      27.139367      0.92297624   
    110900   332.35058     -20687.67       7165.2153      27.148099      0.92267937   
    111000   319.65118     -16399.737      7167.52        27.156831      0.92238269   
    111100   310.73231     -21973.417      7169.8246      27.165563      0.9220862    
    111200   298.60169     -21351.561      7172.1293      27.174295      0.9217899    
    111300   282.33371     -19882.3        7174.434       27.183027      0.92149379   
    111400   307.83306     -26687.943      7176.7386      27.191759      0.92119787   
    111500   308.90836     -23567.019      7179.0433      27.200492      0.92090214   
    111600   294.60714     -23631.354      7181.348       27.209224      0.9206066    
    111700   287.64231     -16736.749      7183.6527      27.217956      0.92031125   
    111800   286.06931     -15985.714      7185.9573      27.226688      0.92001609   
    111900   320.18129     -14418.95       7188.262       27.23542       0.91972112   
    112000   285.21506     -16602.061      7190.5667      27.244152      0.91942633   
    112100   299.90338     -25159.986      7192.8713      27.252884      0.91913174   
    112200   305.51965     -22303.697      7195.176       27.261616      0.91883733   
    112300   308.58982     -17637.151      7197.4807      27.270348      0.91854312   
    112400   284.36243     -20243.137      7199.7853      27.27908       0.91824909   
    112500   299.66295     -20227.71       7202.09        27.287813      0.91795525   
    112600   321.51206     -18177.518      7204.3947      27.296545      0.9176616    
    112700   294.92129     -16689.199      7206.6993      27.305277      0.91736813   
    112800   285.03435     -21465.654      7209.004       27.314009      0.91707486   
    112900   300.58188     -19098.029      7211.3087      27.322741      0.91678177   
    113000   295.30049     -23409.254      7213.6133      27.331473      0.91648887   
    113100   291.00277     -22732.251      7215.918       27.340205      0.91619615   
    113200   320.05464     -23294.776      7218.2227      27.348937      0.91590363   
    113300   295.87954     -23937.715      7220.5274      27.357669      0.91561129   
    113400   307.13735     -17038.698      7222.832       27.366401      0.91531913   
    113500   321.51538     -25283.655      7225.1367      27.375134      0.91502716   
    113600   306.42861     -21297.924      7227.4414      27.383866      0.91473538   
    113700   304.54528     -20056.873      7229.746       27.392598      0.91444379   
    113800   302.54325     -15995.037      7232.0507      27.40133       0.91415238   
    113900   301.97273     -9273.5594      7234.3554      27.410062      0.91386115   
    114000   289.68989     -16162.033      7236.66        27.418794      0.91357011   
    114100   318.97986     -26524          7238.9647      27.427526      0.91327926   
    114200   315.24058     -18662.191      7241.2694      27.436258      0.91298859   
    114300   270.27614     -16607.229      7243.574       27.44499       0.91269811   
    114400   302.40599     -18207.968      7245.8787      27.453722      0.91240781   
    114500   299.077       -18997.675      7248.1834      27.462454      0.9121177    
    114600   297.58275     -16346.804      7250.488       27.471187      0.91182777   
    114700   293.5396      -22035.981      7252.7927      27.479919      0.91153802   
    114800   292.50194     -24907.822      7255.0974      27.488651      0.91124846   
    114900   285.47374     -25870.299      7257.4021      27.497383      0.91095908   
    115000   307.01247     -23880.767      7259.7067      27.506115      0.91066989   
    115100   289.46281     -26949.56       7262.0114      27.514847      0.91038088   
    115200   308.49103     -13731.976      7264.3161      27.523579      0.91009206   
    115300   307.6917      -20759.692      7266.6207      27.532311      0.90980341   
    115400   299.0847      -25208.221      7268.9254      27.541043      0.90951495   
    115500   285.39531     -26742.475      7271.2301      27.549776      0.90922667   
    115600   281.20129     -23265.622      7273.5347      27.558508      0.90893858   
    115700   298.19134     -23250.445      7275.8394      27.56724       0.90865067   
    115800   306.75935     -25606.417      7278.1441      27.575972      0.90836294   
    115900   319.63748     -24631.012      7280.4487      27.584704      0.90807539   
    116000   300.62768     -25866.965      7282.7534      27.593436      0.90778802   
    116100   289.4797      -24705.751      7285.0581      27.602168      0.90750084   
    116200   271.82584     -25528.643      7287.3627      27.6109        0.90721384   
    116300   304.44369     -25249.537      7289.6674      27.619632      0.90692702   
    116400   285.26167     -18135.215      7291.9721      27.628364      0.90664038   
    116500   313.76148     -21432.794      7294.2768      27.637097      0.90635392   
    116600   325.557       -22199.089      7296.5814      27.645829      0.90606764   
    116700   306.22157     -30412.798      7298.8861      27.654561      0.90578155   
    116800   291.34049     -27075.956      7301.1908      27.663293      0.90549563   
    116900   282.6326      -20033.33       7303.4954      27.672025      0.9052099    
    117000   302.77971     -26689.405      7305.8001      27.680757      0.90492434   
    117100   313.90896     -23031.996      7308.1048      27.689489      0.90463896   
    117200   309.47299     -22236.49       7310.4094      27.698221      0.90435377   
    117300   296.21157     -23687.921      7312.7141      27.706953      0.90406875   
    117400   280.17762     -20017.779      7315.0188      27.715685      0.90378392   
    117500   282.97925     -20555.111      7317.3234      27.724418      0.90349926   
    117600   307.5153      -31332.52       7319.6281      27.73315       0.90321479   
    117700   310.64322     -24866.526      7321.9328      27.741882      0.90293049   
    117800   302.56473     -25576.247      7324.2374      27.750614      0.90264637   
    117900   298.27955     -21529.151      7326.5421      27.759346      0.90236243   
    118000   294.18976     -18968.048      7328.8468      27.768078      0.90207867   
    118100   314.87434     -28251.438      7331.1515      27.77681       0.90179508   
    118200   303.417       -25311.607      7333.4561      27.785542      0.90151168   
    118300   325.09116     -15287.771      7335.7608      27.794274      0.90122845   
    118400   294.99026     -16192.656      7338.0655      27.803006      0.9009454    
    118500   305.58586     -21314.007      7340.3701      27.811739      0.90066253   
    118600   304.77934     -17498.266      7342.6748      27.820471      0.90037984   
    118700   302.97351     -15724.288      7344.9795      27.829203      0.90009732   
    118800   315.94673     -20068.433      7347.2841      27.837935      0.89981498   
    118900   312.78662     -23458.223      7349.5888      27.846667      0.89953282   
    119000   299.17166     -22893.448      7351.8935      27.855399      0.89925083   
    119100   312.15511     -21067.291      7354.1981      27.864131      0.89896902   
    119200   281.15062     -18391.471      7356.5028      27.872863      0.89868739   
    119300   294.08592     -17699.644      7358.8075      27.881595      0.89840594   
    119400   313.60099     -17508.647      7361.1121      27.890327      0.89812466   
    119500   309.56632     -21029.496      7363.4168      27.899059      0.89784355   
    119600   317.59486     -17858.259      7365.7215      27.907792      0.89756263   
    119700   295.31771     -19940.436      7368.0262      27.916524      0.89728188   
    119800   297.61885     -19895.531      7370.3308      27.925256      0.8970013    
    119900   294.77135     -15806.233      7372.6355      27.933988      0.8967209    
    120000   320.4554      -19256.015      7374.9402      27.94272       0.89644067   
Loop time of 3284.11 on 8 procs for 120000 steps with 365 atoms

Performance: 1.579 ns/day, 15.204 hours/ns, 36.540 timesteps/s, 13.337 katom-step/s
98.4% CPU use with 8 MPI tasks x 1 OpenMP threads

MPI task timing breakdown:
Section |  min time  |  avg time  |  max time  |%varavg| %total
---------------------------------------------------------------
Pair    | 1773       | 2337.5     | 2622.3     | 631.0 | 71.18
Bond    | 0.30211    | 0.32486    | 0.34811    |   2.3 |  0.01
Neigh   | 143.3      | 178.39     | 199.53     | 166.4 |  5.43
Comm    | 99.499     | 384.47     | 948.97     |1555.0 | 11.71
Output  | 0.43906    | 0.48107    | 0.52174    |   4.0 |  0.01
Modify  | 359.01     | 380.46     | 416.35     | 115.6 | 11.59
Other   |            | 2.448      |            |       |  0.07

Nlocal:         45.625 ave          56 max          26 min
Histogram: 1 0 1 0 0 0 2 0 2 2
Nghost:        1990.88 ave        2116 max        1886 min
Histogram: 2 2 0 0 0 0 1 1 1 1
Neighs:        15383.9 ave       19530 max        8907 min
Histogram: 1 0 1 0 0 0 3 1 0 2

Total # of neighbors = 123071
Ave neighs/atom = 337.18082
Ave special neighs/atom = 0
Neighbor list builds = 12000
Dangerous builds not checked
Total wall time: 0:54:44
