ITEM: TIMESTEP
0
ITEM: NUMBER OF ATOMS
271
ITEM: BOX BOUNDS xy xz yz pp pp pp
-7.2018999999999993e+00 1.4748699999999999e+01 -6.1971999999999996e+00
-1.8606000000000000e+00 1.3431800000000001e+01 -1.0046999999999999e+00
0.0000000000000000e+00 1.6609600000000000e+01 -1.8606000000000000e+00
ITEM: ATOMS id type q x y z
3 4 1.24845 0.851001 0.961577 5.46463
4 4 1.11109 0.27707 3.66131 7.19647
18 4 0.998162 5.23206 3.87369 1.45206
21 4 1.20816 3.85472 6.08648 5.23121
41 2 0.00654399 2.20845 0.945827 4.45226
50 2 0.0250261 3.85215 2.90413 2.13801
52 2 0.00806223 4.0823 4.47086 5.76165
125 1 -0.667754 3.01217 3.87834 0.871081
67 2 0.180474 -1.34046 5.15485 5.61151
119 1 -0.659541 -1.28323 2.74863 7.87889
64 2 0.173082 -1.24819 1.54004 8.09524
82 2 0.177724 0.575561 4.92588 3.21386
83 2 0.189815 0.354489 5.3279 1.42642
229 2 0.027225 2.12887 3.51913 2.52631
120 1 -0.678686 -0.505988 5.28026 6.33176
126 1 -0.662776 0.481303 5.72215 2.46445
138 3 -0.852437 -0.37327 0.846868 4.53606
139 3 -0.844406 0.815426 -0.310078 6.50906
140 3 -0.790365 0.915059 2.47337 6.05969
193 4 1.16856 5.76801 1.40364 5.66938
68 2 0.145088 0.542928 5.55902 5.88108
80 2 0.240453 2.86755 4.991 1.0612
201 2 0.188832 4.28375 0.807011 3.66846
202 2 0.118626 3.53583 1.7604 5.28314
203 2 0.272129 3.86004 -0.223425 5.32536
206 2 0.161612 4.30024 3.29414 6.91343
213 1 -0.654117 4.17021 0.845899 4.82056
218 3 -0.823706 6.1192 0.282177 6.78443
231 3 -0.792129 -0.219704 2.93359 1.33293
227 4 0.975875 1.29897 2.52151 1.3255
230 3 -0.841815 1.73677 0.952025 1.53727
198 2 0.0969081 -1.01491 2.22137 2.58702
266 2 0.0201128 4.53548 4.99523 0.304208
155 3 -0.815034 2.85007 6.19802 3.94925
153 3 -0.8238 1.30845 4.11958 8.2783
226 3 -0.796096 -3.12728 5.72354 7.4722
269 2 0.240797 -0.691268 -0.264775 7.79277
69 2 0.182079 -0.780154 5.90167 7.25885
15 4 1.06516 3.20264 0.603194 9.69238
150 3 -0.783722 4.10801 0.0438708 10.9106
268 2 0.123631 -1.09693 0.209197 9.63389
42 2 -0.0509428 -1.08565 3.77158 11.7523
48 2 0.00424246 1.96587 1.55612 10.4207
151 3 -0.866983 5.72328 -0.467247 13.1151
81 2 0.124739 2.37815 1.79048 16.3829
66 2 0.174328 -1.4022 3.28235 8.84266
228 2 0.0164976 0.819943 1.03509 16.2743
75 2 0.204668 3.7972 2.97332 10.3905
76 2 0.277973 2.55053 3.11291 8.88756
141 3 -0.817808 -2.57365 5.23814 10.0035
149 3 -0.80584 2.62142 -0.229985 8.48301
6 4 1.2103 -1.30262 5.29237 11.0486
91 2 0.15103 1.92022 4.2734 15.4874
123 1 -0.674113 3.39257 2.48571 9.44802
74 2 0.112489 4.39982 2.12306 8.59717
70 2 0.164945 1.63687 -0.979476 11.8061
17 4 1.28344 5.33129 0.616421 12.0093
255 2 -0.000784102 -2.906 2.62929 16.0472
24 4 0.97572 3.59555 8.032 0.25142
2 4 1.2472 -4.16257 12.3433 7.21288
8 4 1.00065 -1.47568 8.25662 6.45512
9 4 1.4616 -2.43953 10.5604 4.80118
169 3 -0.782275 1.10327 10.8785 4.28075
167 3 -0.835942 -1.08448 11.6579 8.23389
246 2 0.0857206 -2.27879 12.9158 1.25414
25 4 1.34937 0.0536402 11.189 3.06298
27 4 1.28584 2.37782 7.61677 7.36191
170 3 -0.781586 1.82997 8.92337 6.17424
44 2 0.0280296 -0.135492 7.21214 6.07408
45 2 0.0107858 -2.63534 7.09559 6.26996
51 2 0.020999 1.50417 8.46743 3.04953
166 3 -0.809958 -1.5193 8.77955 7.92025
19 4 1.04127 1.99456 6.81433 2.7339
1 4 1.10277 -4.19393 12.8813 1.54445
93 2 0.163074 -0.273352 8.71609 2.86324
94 2 0.208088 1.17142 9.45251 1.84946
95 2 0.16297 -0.587995 9.6618 1.20175
162 3 -0.827854 2.86241 9.36463 0.431979
118 1 -0.657771 -5.0156 10.9387 8.11869
130 1 -0.676376 0.0780039 9.50033 2.12666
142 3 -0.82518 -4.72083 11.7915 2.51567
143 3 -0.817042 -3.7692 9.8069 4.05609
144 3 -0.828308 -1.45391 9.3476 5.32683
145 3 -0.793593 -2.91055 11.6677 5.87817
159 3 -0.76706 2.86579 6.78852 1.46158
160 3 -0.849348 0.467697 12.2648 1.93484
161 3 -0.770487 -1.56022 11.4749 3.63119
165 3 -0.838915 3.45476 6.64895 6.70624
171 3 -0.813829 1.24984 11.4407 6.97098
63 2 0.220422 -4.4147 10.0488 8.29209
7 4 1.36013 -5.01914 10.3188 3.15531
14 4 1.30826 0.192878 12.4586 7.75743
60 2 0.146365 -3.10163 10.9712 0.156675
84 2 0.118591 -0.315773 6.55498 2.78965
29 4 1.3525 1.81976 10.5459 5.82902
164 3 -0.841357 1.17342 6.98054 8.30579
262 2 0.122213 -4.19834 6.66907 15.1389
10 4 1.28401 -2.68158 7.47204 12.9256
11 4 1.14835 -3.383 10.0312 11.2744
129 1 -0.656747 2.0204 5.4147 15.2954
28 4 1.51639 -1.3496 10.3815 9.06994
30 4 1.25229 -1.26522 9.21365 14.9298
43 2 0.0952054 -2.20923 7.67323 8.92522
46 2 -0.00605289 -4.09613 6.58866 13.4045
47 2 0.0613532 -5.094 10.3636 11.1106
55 2 0.0052622 -2.25584 9.49419 16.2398
31 4 1.37743 1.12004 10.2433 11.0825
62 2 0.190793 -5.2367 11.518 9.06141
252 2 0.100688 -5.69565 10.603 16.3551
92 2 0.140484 2.93763 5.74173 14.6321
71 2 0.214141 -2.89392 11.8013 12.5613
99 2 0.215803 1.75212 7.69429 10.9001
100 2 0.242297 -0.0453975 8.04815 11.189
121 1 -0.673839 -4.06666 11.5833 12.2826
16 4 1.30125 -0.0155847 11.5746 13.6614
132 1 -0.666541 1.04103 8.34887 11.4577
5 4 1.19343 -3.2089 6.34616 9.01213
146 3 -0.824441 -1.85957 6.36664 12.1895
147 3 -0.859263 -3.05944 8.7227 12.049
253 2 0.157251 -3.5342 10.4227 15.5969
157 3 -0.810775 2.54393 5.85342 10.1727
238 2 -0.00420856 -4.43285 9.24137 14.8584
168 3 -0.844501 -2.75202 10.3228 9.85881
172 3 -0.850302 -1.98483 7.94586 14.2773
173 3 -0.840494 0.207921 9.01143 15.5069
174 3 -0.832191 -1.21122 10.5835 13.9861
175 3 -0.871254 -0.128949 10.2932 10.1576
101 2 0.192106 1.23624 8.28973 12.5866
72 2 0.167298 -4.63366 11.197 13.1785
267 2 0.201645 1.04655 5.88062 14.9416
20 4 1.46426 1.21351 5.68866 9.28502
154 3 -0.854713 -0.00989837 5.6474 10.3298
117 1 -0.650604 -4.07789 10.2076 16.5293
152 3 -0.829086 6.21057 3.02481 0.56557
247 2 0.117945 11.5067 2.85421 1.65653
56 2 0.00209843 5.94707 4.98152 7.0956
73 2 0.0337033 8.90002 3.28742 0.540685
105 2 0.146385 8.79547 5.91727 4.14442
106 2 0.146953 7.78894 4.29294 4.47532
211 2 0.174027 9.27918 2.60822 7.76837
111 2 0.157989 8.79393 5.93907 1.6765
204 2 0.147739 5.8268 4.10929 5.96069
134 1 -0.663551 7.82078 5.4832 4.59619
220 3 -0.847363 8.25981 0.503934 2.78678
223 3 -0.807698 9.25887 1.50453 5.04173
219 3 -0.842668 12.8301 -0.269122 2.54903
192 4 1.30289 13.1463 0.943819 3.58423
224 3 -0.761906 11.2137 0.498445 6.66645
194 4 1.27379 8.17675 1.66621 3.88899
196 4 1.45462 10.9024 1.59192 5.47437
197 4 0.975999 10.527 4.57629 6.65158
205 2 0.145279 5.97523 2.93485 7.5557
199 2 -0.0371039 8.57187 3.13159 3.13705
200 2 -0.0247532 9.63336 5.38988 5.3872
177 3 -0.789234 5.82921 4.85764 2.52327
257 1 -0.657349 11.4831 3.82344 0.69519
222 3 -0.861846 11.8441 1.57272 4.23272
225 3 -0.789985 11.1776 3.25367 6.13701
221 3 -0.821483 6.69872 1.86692 4.45924
33 4 1.22665 6.35795 6.18042 3.62549
232 4 0.931802 13.0282 2.92983 0.112167
217 1 -0.638132 9.30861 3.81822 7.86772
212 2 0.150829 8.38048 4.4181 7.42596
256 2 0.167967 11.561 4.84558 1.04099
214 1 -0.672833 5.36526 3.21234 6.59166
107 2 0.141814 7.63275 5.82416 5.67907
65 2 0.276218 12.5404 2.93421 7.23051
254 2 0.177979 10.5527 3.72782 0.009101
22 4 1.05147 4.88545 3.6535 12.9125
87 2 0.161337 5.61214 4.68009 15.1853
236 3 -0.802133 12.2875 -1.02059 13.3712
13 4 0.980966 6.46898 0.557747 16.4147
216 1 -0.66601 13.3418 -0.418731 8.74667
79 2 0.16318 7.43326 1.7138 11.2007
234 2 -0.0309586 9.77518 0.00241094 13.9057
86 2 0.171714 6.72155 3.10876 14.7657
122 1 -0.658195 7.94356 1.61924 15.3682
124 1 -0.667622 6.83127 0.831383 10.8111
85 2 0.11303 6.72724 4.76963 13.5602
158 3 -0.821807 4.35496 4.86529 11.9944
156 3 -0.830154 5.06465 2.1883 12.4813
207 2 0.185386 10.4414 2.42853 8.83676
208 2 0.145956 12.0435 1.81681 9.74493
209 2 0.14981 10.3865 1.0231 10.2469
210 2 0.191048 9.51788 4.12303 8.93991
249 2 -0.00122647 7.12166 -0.322054 9.10836
215 1 -0.665351 11.0159 1.54558 9.41777
77 2 0.145318 6.29037 1.06299 9.82859
195 4 1.07892 11.394 0.0241249 8.36064
233 4 1.28073 11.1361 -0.854654 14.5053
113 2 0.168835 7.60661 4.79977 16.4888
235 3 -0.836518 11.6727 -0.101683 15.75
53 2 0.0073857 4.09403 3.69323 14.4495
265 2 0.152598 8.77591 1.09351 14.9377
248 2 0.0977611 6.63315 1.26297 14.631
264 2 0.154376 8.10363 2.75224 15.2352
127 1 -0.65797 6.03191 4.01579 14.3699
78 2 0.174167 7.37062 -0.141548 10.8222
251 2 -0.0273809 13.0978 -0.623942 10.6555
148 3 -0.813186 6.70673 -1.08631 16.5119
12 4 1.46352 1.73458 13.0996 1.49916
259 2 0.242842 8.58374 11.7884 4.86679
32 4 1.15177 6.00151 12.0031 1.77335
36 4 1.29201 7.92266 8.16476 1.63651
135 1 -0.653678 6.61036 7.86733 7.94205
112 2 0.177158 10.0706 7.08918 0.945181
96 2 0.204401 3.69408 11.8293 4.98008
97 2 0.17272 4.20215 10.0719 5.45959
98 2 0.228576 3.89222 11.4003 6.81595
102 2 0.213349 5.94573 9.6396 2.84453
103 2 0.164324 4.31742 10.6811 2.65209
104 2 0.180164 5.66183 10.9886 4.08337
258 2 0.192844 7.31386 10.7008 3.90522
109 2 0.177521 6.15868 7.74625 6.87684
110 2 0.203074 7.72387 7.97365 7.91681
136 1 -0.675184 9.03912 6.7833 0.909211
260 2 0.16876 8.52778 10.0313 5.33186
114 2 0.202518 4.6954 8.32373 8.22134
131 1 -0.668372 3.63992 11.0192 5.7917
133 1 -0.693197 5.47529 10.6687 3.03435
54 2 0.0929997 5.34836 8.26314 0.211194
184 3 -0.780331 6.91222 8.6721 0.310382
163 3 -0.850689 2.90398 12.054 1.0344
261 1 -0.646527 8.40535 10.7681 4.48696
182 3 -0.793303 7.04799 7.58238 2.83618
183 3 -0.808625 9.0353 9.23267 2.16264
116 2 0.176429 3.27324 9.64606 8.21765
185 3 -0.833654 6.96004 11.3803 0.741704
178 3 -0.815191 5.35158 6.56725 4.78901
250 2 0.0898337 4.56102 12.4333 0.971611
61 2 0.165903 8.81945 10.855 7.41335
23 4 1.31069 4.04823 5.94958 10.8096
37 4 1.49544 6.28164 8.49707 16.1612
239 2 0.170454 8.93025 5.86339 15.9728
34 4 1.0636 6.26443 6.10068 8.50393
35 4 1.19495 8.70998 6.73553 10.2034
38 4 1.21961 4.02218 11.0749 10.2017
39 4 1.16196 7.51376 8.84866 11.9533
40 4 1.19022 6.26533 11.713 11.9264
58 2 -0.00439606 4.77904 9.60738 9.63939
59 2 -0.0116354 6.02652 8.04272 12.4111
26 4 1.46864 1.62352 9.02143 16.3355
88 2 0.14982 2.93981 8.04682 11.6049
89 2 0.135068 4.97583 8.05615 11.0357
90 2 0.167343 4.49587 7.58925 12.9011
271 3 -0.834418 7.74722 8.60953 15.6585
237 4 1.01491 8.95938 8.2155 14.6268
128 1 -0.670846 4.1429 7.65834 11.7685
180 3 -0.833368 10.0874 6.95057 9.52516
181 3 -0.789198 7.6803 5.80163 9.19077
179 3 -0.802428 5.07309 6.08604 9.52538
189 3 -0.833301 8.63584 8.32367 13.0259
115 2 0.18707 3.27288 8.25067 9.52434
186 3 -0.818627 4.40174 12.2161 8.98265
187 3 -0.853135 2.51753 10.6675 10.3697
188 3 -0.782432 7.98554 8.1794 10.4685
270 2 0.158673 7.06024 11.9126 9.01548
190 3 -0.862635 4.7446 11.3147 11.5677
191 3 -0.837512 7.22251 10.4172 11.8559
241 4 1.31424 4.09874 9.70353 14.4661
242 2 0.0331822 4.00543 9.35364 12.7742
243 3 -0.866844 5.18525 8.59193 14.9634
244 3 -0.86758 4.29307 11.1965 14.7134
245 3 -0.833545 2.73644 9.32133 15.2373
263 2 0.135841 9.26031 5.74581 13.9725
240 1 -0.656363 9.44521 6.38204 14.9432
57 2 -0.041021 9.01342 5.87156 11.6282
108 2 0.163226 6.15238 8.7116 8.61361
137 1 -0.672093 3.60506 8.57955 8.49609
176 3 -0.822155 1.04532 10.8975 12.6194
49 2 0.106496 0.943063 11.7272 15.0771
ITEM: TIMESTEP
100
ITEM: NUMBER OF ATOMS
271
ITEM: BOX BOUNDS xy xz yz pp pp pp
-7.2018999999999993e+00 1.4748699999999999e+01 -6.1971999999999996e+00
-1.8568788000000001e+00 1.3404936400000000e+01 -1.0046999999999999e+00
0.0000000000000000e+00 1.6609600000000000e+01 -1.8568788000000001e+00
ITEM: ATOMS id type q x y z
3 4 1.26331 0.825827 0.901215 5.43353
4 4 1.13808 0.309041 3.44803 7.2023
69 2 0.174233 -0.796929 5.62481 6.94895
226 3 -0.790809 -3.25108 5.78288 7.30727
41 2 0.000505001 2.05373 0.774876 4.25033
50 2 0.0254642 4.06258 2.82312 1.97804
52 2 -0.02231 4.06959 4.35672 5.47955
125 1 -0.674833 3.20931 3.89908 0.797159
67 2 0.166315 -1.25348 4.75079 5.36532
119 1 -0.670882 -1.2911 2.80184 8.07485
269 2 0.227436 -0.817576 -0.0301346 7.90733
82 2 0.177444 0.460423 5.02989 3.38444
83 2 0.190951 0.65885 5.49881 1.55088
229 2 0.00581614 2.50341 3.47378 2.53922
120 1 -0.665117 -0.394022 5.00826 6.09466
126 1 -0.660165 0.540868 5.81617 2.61447
138 3 -0.856435 -0.508736 0.735896 4.67223
139 3 -0.831944 1.00379 -0.325994 6.44822
140 3 -0.830604 0.925677 2.33744 6.19183
193 4 1.10809 5.59487 1.44194 5.60316
68 2 0.176967 0.49074 5.44536 5.54363
80 2 0.233766 3.10267 4.99937 1.08091
201 2 0.167067 4.18435 0.783173 3.74791
202 2 0.112322 3.31916 1.61405 5.16541
203 2 0.276661 3.63495 -0.354753 5.26818
206 2 0.155731 4.09724 3.2644 6.70068
213 1 -0.663906 3.9864 0.678545 4.85785
218 3 -0.782926 6.00157 0.280463 6.70966
231 3 -0.751691 -0.103129 3.00872 1.4163
227 4 0.911567 1.49993 2.55203 1.364
230 3 -0.815011 1.85499 0.91485 1.49628
198 2 0.0621215 -0.887129 2.24268 2.60723
266 2 0.0102565 4.80214 4.93429 0.180838
65 2 0.249262 -2.14894 2.98603 7.33296
21 4 1.21111 3.98277 6.06714 5.22755
15 4 1.07768 2.94553 0.625057 9.84526
150 3 -0.805527 3.87754 0.11239 11.036
268 2 0.121696 -1.14622 0.434273 9.69643
42 2 -0.0455188 -1.12716 3.9501 11.8395
48 2 0.00338764 1.67216 1.64805 10.2916
151 3 -0.847563 5.83028 -0.409654 13.1009
81 2 0.143094 2.44231 1.82423 16.3682
66 2 0.2082 -1.41462 3.50948 8.9671
228 2 0.0288307 0.98539 0.964156 16.3102
75 2 0.216795 3.85776 2.883 10.5108
76 2 0.267027 2.55911 3.1195 9.17773
141 3 -0.802106 -2.64214 5.08707 9.86896
149 3 -0.773227 2.56559 -0.217071 8.59941
6 4 1.16716 -1.40602 5.39147 11.0395
91 2 0.159003 2.29968 4.4991 15.1332
123 1 -0.685602 3.3606 2.45004 9.58202
74 2 0.143188 4.22626 2.12231 8.70794
70 2 0.168778 1.7495 -0.951739 12.3748
17 4 1.23617 5.26784 0.587826 11.9031
64 2 0.17645 -1.31537 1.69019 8.33543
255 2 0.0249488 -2.91265 2.74893 16.1864
153 3 -0.809164 1.15974 4.06002 8.4656
20 4 1.46088 1.24525 5.60818 9.23733
155 3 -0.795241 2.71936 6.40496 4.21591
2 4 1.26341 -4.17977 12.1966 7.22535
8 4 1.00932 -1.43093 8.21458 6.47192
9 4 1.45125 -2.41799 10.3763 4.69543
169 3 -0.802586 1.09468 10.9341 4.1959
167 3 -0.826881 -1.11036 11.6274 8.08655
246 2 0.0892845 -2.13537 12.548 1.41235
25 4 1.37897 0.0411162 11.1737 3.00756
27 4 1.36865 2.26457 7.65055 7.19473
170 3 -0.802101 1.69437 8.87654 6.2609
44 2 0.0121383 -0.341842 7.00739 6.08567
45 2 0.0369431 -2.74485 7.16781 6.40152
51 2 0.0274549 1.29056 8.51478 3.01426
166 3 -0.78459 -1.36143 8.84105 7.94533
19 4 1.01886 2.03866 6.87085 2.84894
1 4 1.06445 -4.01256 12.8271 1.41584
93 2 0.165169 -0.571648 8.72945 2.73283
94 2 0.203094 0.917188 9.21304 1.5759
95 2 0.163422 -0.815795 9.73127 1.15298
162 3 -0.847467 2.79151 9.45232 0.440836
118 1 -0.664941 -5.07189 10.6595 7.85558
130 1 -0.672477 -0.112778 9.47992 2.03317
142 3 -0.801505 -4.70388 11.7887 2.33463
143 3 -0.803773 -3.67527 9.65161 3.96372
144 3 -0.85144 -1.55303 9.24786 5.35253
145 3 -0.760433 -3.11049 11.4819 5.92957
159 3 -0.769622 2.93937 6.82711 1.4807
160 3 -0.836842 0.31866 12.2593 1.79393
161 3 -0.803849 -1.38272 11.3563 3.67367
164 3 -0.849655 1.30071 6.64312 7.99553
171 3 -0.831695 1.25069 11.4184 7.01413
63 2 0.19064 -4.57987 9.8006 7.34046
7 4 1.27927 -5.07051 10.3664 3.25533
14 4 1.29909 0.212155 12.444 7.66469
29 4 1.3439 1.70154 10.5612 5.78558
84 2 0.115602 -0.235284 6.77874 2.74178
165 3 -0.82448 3.46835 6.81826 6.50398
24 4 0.978612 3.58383 8.12841 0.29691
117 1 -0.662089 -3.79601 10.4009 16.4138
262 2 0.110566 -4.17888 6.87542 15.2161
10 4 1.25755 -2.59329 7.50553 12.9793
11 4 1.11499 -3.4066 10.0847 11.3498
129 1 -0.677736 2.54204 5.58604 15.1831
28 4 1.51803 -1.38938 10.437 9.06078
30 4 1.26961 -1.2151 9.31967 14.9257
43 2 0.0847404 -2.10127 7.69769 8.91538
46 2 -0.0211153 -4.00209 6.61934 13.4482
47 2 0.0565016 -5.06988 10.546 11.4205
55 2 0.0535121 -1.91247 9.89631 16.4537
31 4 1.35059 0.984805 10.115 11.0701
62 2 0.208957 -4.96876 10.7151 8.95157
252 2 0.0798077 -5.47128 10.4904 16.3089
154 3 -0.812715 -0.149222 5.77303 10.2043
71 2 0.221012 -2.6243 11.8591 12.4666
99 2 0.186277 1.38214 7.76743 11.1403
100 2 0.248878 -0.112165 8.12036 12.193
121 1 -0.662085 -3.84536 11.5376 12.602
16 4 1.28012 0.106928 11.6251 13.5845
132 1 -0.675645 0.940169 8.3985 12.0041
5 4 1.21448 -3.1174 6.32664 8.87212
146 3 -0.851358 -1.72681 6.52487 12.1521
147 3 -0.837772 -3.08399 8.69266 12.0169
253 2 0.163724 -3.25041 11.1741 15.7713
157 3 -0.806232 2.56689 5.74505 10.2128
238 2 -0.0043482 -4.6203 9.57709 14.8481
168 3 -0.836097 -2.79552 10.3583 9.8898
172 3 -0.870766 -2.08117 8.09089 14.366
173 3 -0.853481 0.171086 9.04916 15.587
174 3 -0.83612 -1.12994 10.6243 13.932
175 3 -0.885595 -0.22241 10.1686 10.1385
101 2 0.193996 1.53307 8.4907 13.0167
72 2 0.173328 -4.0338 11.1206 13.6394
267 2 0.200807 1.83326 6.2525 14.6545
60 2 0.136732 -3.55296 9.34608 16.1662
152 3 -0.862936 6.44713 3.06524 0.746176
247 2 0.0968184 11.3867 2.97748 1.6074
56 2 -0.00424974 6.01477 4.69552 7.64797
73 2 0.0247104 9.0856 2.78204 0.630816
105 2 0.159038 8.89538 5.93915 4.05734
106 2 0.141139 7.85699 4.22584 4.11182
211 2 0.178362 9.06391 2.81198 7.61188
111 2 0.180089 8.72875 5.86594 1.342
204 2 0.148677 5.79515 3.88142 6.00038
134 1 -0.681233 8.0308 5.34522 4.50505
220 3 -0.871999 8.37299 0.641073 2.71487
223 3 -0.806556 9.23785 1.59047 4.94013
219 3 -0.813129 12.6339 -0.16746 2.78274
192 4 1.29819 13.1456 1.03581 3.61875
224 3 -0.732966 11.0554 0.492994 6.89198
194 4 1.31508 8.24337 1.72718 3.78047
196 4 1.44129 10.8339 1.71384 5.49593
197 4 0.990571 10.4466 4.4727 6.58965
205 2 0.160258 5.76274 2.84364 7.57351
199 2 -0.0375278 8.49661 3.12066 2.87036
200 2 -0.00112089 9.89141 5.12054 5.00856
177 3 -0.815597 5.76342 4.86801 2.66636
257 1 -0.643033 11.3991 4.02181 0.748922
222 3 -0.820514 11.7829 1.5799 4.22158
225 3 -0.845673 11.1582 3.19739 6.06491
221 3 -0.791573 6.7817 1.80537 4.49224
33 4 1.24191 6.48503 6.14961 3.62297
232 4 0.888072 12.9421 3.00419 0.375778
217 1 -0.660532 9.21733 3.87672 7.92779
212 2 0.151668 8.36508 4.49099 7.4953
256 2 0.157501 11.5773 5.04295 1.25892
214 1 -0.693404 5.23125 3.18644 6.63804
107 2 0.134538 7.75476 5.516 5.59421
254 2 0.173403 10.4179 3.95119 0.0292174
18 4 1.02018 5.43719 3.97055 1.45324
22 4 1.07087 4.79408 3.6406 13.0402
87 2 0.161891 5.73271 4.88191 14.9427
236 3 -0.79107 12.461 -0.823532 13.3517
13 4 1.02712 6.55975 0.447226 16.525
216 1 -0.679948 13.4027 -0.294708 8.80993
79 2 0.164647 7.18608 1.83243 10.7894
234 2 -0.0238293 10.1491 0.178214 13.7108
86 2 0.164155 6.7787 3.17917 14.73
122 1 -0.664012 7.81707 1.68125 15.4863
124 1 -0.680838 6.58729 0.887695 10.5306
85 2 0.150678 6.88535 4.67905 13.3983
158 3 -0.833606 4.33567 4.71112 11.9764
251 2 -0.0136269 13.048 -0.723099 10.703
207 2 0.198839 10.239 2.38162 8.89985
208 2 0.122154 11.7274 1.66932 9.95753
209 2 0.1675 9.88872 0.959936 10.0503
210 2 0.202329 9.42866 4.0439 9.02767
249 2 0.00870504 7.14548 -0.304573 9.10243
215 1 -0.643683 10.6762 1.44553 9.37809
77 2 0.154061 6.06113 0.896264 9.54825
148 3 -0.834516 6.79999 -1.1058 16.4416
233 4 1.23103 11.294 -0.845708 14.4768
113 2 0.174369 7.7718 4.69691 16.2771
235 3 -0.788246 11.6833 0.02181 15.8577
53 2 -0.00870044 4.18632 3.79199 14.6226
265 2 0.142715 8.73639 1.11086 15.2296
248 2 0.122344 6.68093 1.21578 14.5547
264 2 0.165669 8.08873 2.73019 15.3626
127 1 -0.660377 6.17577 4.18638 14.1723
78 2 0.167137 7.20809 -0.0745567 10.8027
195 4 1.09102 11.36 -0.0026612 8.44679
49 2 0.0870689 7.33052 -1.42566 14.9459
156 3 -0.790292 4.97471 2.18547 12.6172
12 4 1.39091 1.75939 13.1225 1.50688
259 2 0.217973 8.53502 11.5764 4.98738
32 4 1.12247 5.86905 12.134 1.75115
36 4 1.33387 8.00005 8.1566 1.48605
135 1 -0.668102 6.31281 7.82281 7.77917
112 2 0.163745 10.0772 7.17958 0.955784
96 2 0.193058 3.59481 11.3853 4.56713
97 2 0.172454 4.10187 10.1128 5.89079
98 2 0.247134 3.73763 11.8914 6.37826
102 2 0.206474 5.88734 9.77761 2.98109
103 2 0.170275 4.28276 10.6789 2.54568
104 2 0.180862 5.21596 11.2486 4.07553
258 2 0.216107 7.19418 10.6828 3.92838
109 2 0.208063 5.46289 7.65524 7.0083
110 2 0.180827 7.32761 8.0055 7.30947
136 1 -0.67644 9.04388 6.74353 0.709641
260 2 0.175291 8.30346 9.67645 5.17147
61 2 0.169174 8.61327 10.9024 7.42963
131 1 -0.666511 3.50682 11.0526 5.65828
133 1 -0.664691 5.38237 10.7662 2.99697
54 2 0.0892689 5.273 8.4429 0.592323
184 3 -0.789171 6.94595 8.66439 0.416759
163 3 -0.839219 3.02941 12.1306 1.09275
261 1 -0.656104 8.25775 10.5838 4.48985
182 3 -0.781121 7.1521 7.29648 2.61199
183 3 -0.770535 8.97749 9.23876 2.26164
250 2 0.0951395 4.52646 12.8031 0.873037
185 3 -0.826918 6.85276 11.4553 0.780625
178 3 -0.815702 5.45096 6.63684 4.74685
23 4 1.3174 4.06893 5.84793 10.8889
37 4 1.47704 6.24569 8.52336 16.1518
239 2 0.18091 8.94753 5.86867 15.8581
34 4 1.03879 6.26789 6.11163 8.5941
35 4 1.24211 8.91221 6.84824 10.1064
38 4 1.21116 4.03522 10.9397 10.1257
39 4 1.17691 7.46355 8.81711 11.9347
40 4 1.16239 6.20855 11.6599 11.9546
58 2 -0.027348 4.76753 9.50813 9.54391
59 2 -0.00971861 6.0339 7.96551 12.1177
26 4 1.42151 1.64221 9.01986 16.3382
88 2 0.160728 2.90454 7.92256 11.9397
89 2 0.144605 4.61738 8.26358 11.1097
90 2 0.168966 4.57042 7.14532 12.7678
271 3 -0.825327 7.72775 8.45558 15.7058
237 4 1.05498 8.91877 8.34679 14.6722
128 1 -0.677364 4.07857 7.57919 11.7999
180 3 -0.843571 10.2311 6.8083 9.34156
181 3 -0.782964 7.78557 6.03084 9.24724
179 3 -0.813778 5.18918 6.08731 9.68931
189 3 -0.818224 8.3481 8.39322 13.1485
115 2 0.190161 2.92132 8.10585 9.61039
186 3 -0.817811 4.39066 12.1513 9.08944
187 3 -0.803789 2.51639 10.5421 10.3435
188 3 -0.784552 8.30879 8.33027 10.4785
270 2 0.156663 7.29818 12.0463 9.05359
190 3 -0.85745 4.69884 11.2074 11.5652
191 3 -0.819194 7.22665 10.3921 11.9868
241 4 1.32484 4.11348 9.73331 14.5094
242 2 0.0487881 4.00691 9.27584 12.7963
243 3 -0.859279 5.3425 8.70761 14.8642
244 3 -0.895545 4.42481 11.1977 14.736
245 3 -0.864627 2.80024 9.12454 15.1215
263 2 0.142154 9.41317 5.90188 13.9831
240 1 -0.636874 9.41194 6.5032 14.926
57 2 -0.0384154 9.12959 6.01112 11.6282
108 2 0.161422 6.04384 8.5417 8.58342
137 1 -0.671241 3.29399 8.51428 8.59202
176 3 -0.824585 1.02463 11.048 12.4114
92 2 0.133258 3.6974 5.80059 14.997
116 2 0.192166 3.06611 9.63346 8.46989
114 2 0.181677 4.42596 8.22731 8.31855
ITEM: TIMESTEP
200
ITEM: NUMBER OF ATOMS
271
ITEM: BOX BOUNDS xy xz yz pp pp pp
-7.2018999999999993e+00 1.4748699999999999e+01 -6.1971999999999996e+00
-1.8531575999999994e+00 1.3378072800000000e+01 -1.0046999999999999e+00
0.0000000000000000e+00 1.6609600000000000e+01 -1.8531575999999994e+00
ITEM: ATOMS id type q x y z
3 4 1.24453 0.78752 0.730455 5.50453
4 4 1.10432 0.230423 3.4202 7.28918
69 2 0.180309 -1.19759 5.07357 6.55179
226 3 -0.798504 -3.09601 5.80172 7.27565
41 2 0.0132729 2.16911 0.629634 4.40149
50 2 0.0158747 4.0421 2.86489 2.03653
52 2 -0.0124592 4.41755 4.31338 5.08876
125 1 -0.681646 3.05173 4.02223 0.881398
67 2 0.167193 -0.384034 4.27088 4.99634
119 1 -0.663466 -1.32992 2.78944 8.21381
21 4 1.2338 3.98735 5.99827 5.14097
82 2 0.169679 0.655839 5.15623 3.61873
83 2 0.184879 0.72663 5.30333 1.76807
229 2 0.0209795 2.30363 3.67556 2.58693
120 1 -0.666584 -0.17159 4.86526 5.90991
126 1 -0.673602 0.449955 5.81648 2.73406
138 3 -0.83354 -0.585815 0.56149 4.66195
139 3 -0.834391 0.92098 -0.438295 6.50005
140 3 -0.786446 0.879218 2.17525 6.24857
193 4 1.13401 5.63308 1.42446 5.58268
68 2 0.194596 0.516827 5.71971 5.82726
80 2 0.237795 2.78212 5.13554 1.03363
201 2 0.192663 4.48111 0.625258 3.575
202 2 0.107371 3.46527 1.72191 4.98114
203 2 0.27199 3.7092 -0.388244 5.23044
206 2 0.156659 4.1722 3.40824 6.65964
213 1 -0.638896 4.08855 0.712973 4.66313
218 3 -0.800185 5.85125 0.322032 6.78312
231 3 -0.784349 -0.0895912 2.89583 1.45431
227 4 0.977893 1.44186 2.64091 1.33127
230 3 -0.821872 1.96807 1.10782 1.47671
198 2 0.0813433 -0.867619 2.06689 2.63893
266 2 0.0104161 4.54126 5.21476 0.579736
18 4 0.96886 5.31871 3.98159 1.529
84 2 0.145972 -0.594146 6.3214 2.78566
15 4 1.07038 2.82876 0.607156 9.91764
150 3 -0.772438 3.57214 0.174169 11.2327
268 2 0.137317 -1.08832 0.200189 9.60196
42 2 -0.0447992 -1.05153 4.11777 11.8597
48 2 0.0114418 1.63367 1.81732 10.1249
151 3 -0.84179 5.71283 -0.347472 13.0563
81 2 0.134301 2.40344 1.91797 16.4683
66 2 0.181416 -1.33881 3.41336 9.16926
228 2 0.0251211 0.609392 1.54608 16.3743
75 2 0.219791 4.00238 2.78389 10.3369
76 2 0.270309 2.53979 2.97154 9.1365
141 3 -0.832259 -2.65417 5.30091 10.0082
149 3 -0.739657 2.42532 -0.354242 8.76296
77 2 0.138672 5.7574 0.773455 9.61207
91 2 0.153394 2.2 4.83458 15.1432
123 1 -0.686404 3.45259 2.32827 9.47603
74 2 0.155174 4.18534 1.88621 8.59944
70 2 0.190415 1.88512 -1.06955 12.0881
17 4 1.26273 5.16506 0.692569 11.9582
64 2 0.166356 -1.31821 1.58922 8.42077
255 2 0.0293624 -2.83348 2.88839 16.3551
153 3 -0.790103 1.19304 3.86893 8.48077
20 4 1.45457 1.25127 5.63966 9.23779
156 3 -0.779935 4.94347 2.21656 12.5041
155 3 -0.796087 2.94653 6.34817 3.96835
2 4 1.2055 -4.2755 12.0245 7.23304
8 4 1.04673 -1.62313 8.22197 6.50019
9 4 1.4761 -2.38719 10.4991 4.73055
169 3 -0.795916 1.11111 10.7651 4.17145
167 3 -0.832198 -1.10863 11.6163 8.22607
246 2 0.0896804 -2.06762 12.7324 1.18523
25 4 1.35126 -0.0246459 11.0438 2.99137
27 4 1.31806 2.18134 7.56904 7.15927
170 3 -0.783828 1.67896 8.7625 6.22361
44 2 0.0307425 -0.632153 6.78371 6.19766
45 2 0.0489128 -3.01881 7.25903 6.42343
51 2 0.0511915 1.45201 8.59365 3.22478
166 3 -0.828117 -1.46275 8.79252 7.93433
19 4 1.02014 1.93896 6.93919 2.80708
1 4 1.05278 -4.01056 12.9361 1.35037
93 2 0.157331 -0.314732 8.32015 2.73344
94 2 0.19933 0.981086 9.20343 1.58434
95 2 0.156309 -0.879291 9.53853 1.42121
162 3 -0.844363 2.98319 9.35494 0.355305
118 1 -0.660439 -5.3146 10.5543 7.603
130 1 -0.663805 -0.0140316 9.29686 2.13399
142 3 -0.776259 -4.54577 11.7753 2.30786
143 3 -0.79818 -3.85761 9.83863 4.01573
144 3 -0.838513 -1.5754 9.15568 5.29002
145 3 -0.790119 -2.90321 11.5293 5.85086
159 3 -0.764106 2.62269 6.87539 1.38177
160 3 -0.840883 0.427976 12.1941 1.84563
161 3 -0.82381 -1.54659 11.2105 3.48228
164 3 -0.821197 1.02031 6.68655 7.9765
165 3 -0.821504 3.3319 6.60101 6.44453
63 2 0.170877 -4.99089 9.73501 6.87117
29 4 1.29258 1.76777 10.564 5.66084
14 4 1.29788 0.0778003 12.4826 7.67414
171 3 -0.794946 1.0817 11.6254 6.69587
7 4 1.27882 -5.06116 10.2989 3.13231
117 1 -0.643831 -3.98169 10.3925 16.347
262 2 0.112321 -4.15535 6.98993 15.2903
10 4 1.2656 -2.48968 7.59963 13.0506
11 4 1.12305 -3.40721 10.0413 11.3014
129 1 -0.653448 2.89901 5.76317 15.1377
28 4 1.51789 -1.3052 10.2818 9.06562
30 4 1.27291 -1.16947 9.41364 15.1318
43 2 0.117031 -1.88999 7.63733 9.0167
46 2 -0.0166169 -3.92883 6.68316 13.4186
47 2 0.0527184 -5.08261 10.4856 11.4875
55 2 0.0121748 -2.03542 9.88754 16.4645
31 4 1.33229 1.18205 10.1112 11.105
62 2 0.201306 -4.9818 10.3155 8.74262
252 2 0.102448 -5.73461 10.7193 16.2953
154 3 -0.835539 0.0266098 5.91071 10.1528
71 2 0.238382 -2.52384 11.6693 12.6609
99 2 0.211744 0.977201 7.80387 11.2785
100 2 0.254961 -0.0713364 8.59699 12.6739
121 1 -0.667144 -3.73687 11.478 12.5302
16 4 1.31268 0.0701446 11.656 13.5789
132 1 -0.660515 0.951762 8.46691 12.1999
5 4 1.21982 -3.0876 6.35896 8.92719
146 3 -0.845631 -1.55909 6.63348 12.2045
147 3 -0.853829 -3.03981 8.75982 12.1267
253 2 0.161318 -3.55459 10.8543 15.392
157 3 -0.836818 2.55168 5.81988 10.13
238 2 0.00452745 -4.57198 9.46434 14.7442
168 3 -0.82305 -2.74236 10.3225 9.85767
172 3 -0.849374 -1.92884 8.19133 14.3948
173 3 -0.865411 0.298144 8.98151 15.5359
174 3 -0.850295 -1.04109 10.6755 14.137
175 3 -0.871803 -0.0769447 10.0682 10.0403
101 2 0.186348 1.73442 8.19101 12.9037
72 2 0.166058 -4.16448 11.1544 13.4753
267 2 0.194806 2.4935 6.66407 14.4692
60 2 0.131832 -3.74682 9.23975 16.4081
6 4 1.1646 -1.25909 5.58179 11.0847
152 3 -0.805879 6.56539 3.23745 0.787493
247 2 0.099573 11.5296 3.0601 1.82071
56 2 -0.000215279 6.20995 4.79703 7.45717
73 2 0.0223109 9.40534 3.03017 0.778571
105 2 0.141493 8.71999 5.06225 3.92999
106 2 0.143699 7.48853 4.76217 5.3091
211 2 0.179115 8.95006 2.7265 7.6341
111 2 0.164082 8.89661 5.78441 1.07408
204 2 0.130393 5.82801 4.21485 6.01347
134 1 -0.682213 7.94802 5.49333 4.63342
220 3 -0.807659 8.48485 0.724393 2.59045
223 3 -0.83025 9.33403 1.57815 5.02652
219 3 -0.850467 12.4983 -0.135811 2.66107
192 4 1.27676 13.0208 1.01259 3.6548
224 3 -0.784261 11.1249 0.522567 6.7703
194 4 1.27415 8.18206 1.68938 3.86007
196 4 1.47898 10.8264 1.60236 5.54873
197 4 0.966807 10.4427 4.49915 6.61126
205 2 0.160713 5.8447 2.99158 7.49491
199 2 -0.0220036 8.35152 3.25801 3.33821
200 2 -0.020262 9.81549 5.00669 5.16868
177 3 -0.820879 5.8098 4.79849 2.75594
257 1 -0.644629 11.5652 4.17928 0.933627
222 3 -0.84209 11.8649 1.83568 4.33092
225 3 -0.787034 11.1353 3.15023 6.40985
221 3 -0.828743 6.75565 1.57531 4.46996
33 4 1.2707 6.43932 6.10027 3.6016
232 4 0.904001 13.0113 3.11123 0.36828
217 1 -0.658971 9.0433 3.92061 7.69848
212 2 0.134011 8.21029 4.5552 7.19755
256 2 0.167163 11.5534 5.13692 1.4836
214 1 -0.675622 5.30906 3.31866 6.5467
269 2 0.208655 13.4111 -0.0803874 7.70623
254 2 0.168046 10.5696 4.127 0.217935
13 4 1.02625 7.79446 2.37799 0.125346
65 2 0.267845 12.455 2.94802 7.53262
22 4 1.04375 4.95301 3.74393 13.1298
87 2 0.170351 6.10762 4.57001 15.2342
236 3 -0.809277 12.5475 -0.905872 13.4228
113 2 0.160505 7.83887 4.90836 15.9827
216 1 -0.66009 13.0917 -0.373207 8.82664
79 2 0.168321 6.99189 1.93932 10.5613
234 2 -0.0324565 9.99476 -0.0531547 13.6905
86 2 0.179753 6.9696 3.03366 14.5799
122 1 -0.666457 8.05066 1.61303 15.602
124 1 -0.669974 6.47788 0.904869 10.5481
85 2 0.142104 6.94822 4.72761 13.5008
158 3 -0.781287 4.39493 4.82507 12.1872
251 2 -0.00675924 13.1991 -0.636284 10.771
207 2 0.196047 10.0181 2.49747 8.78642
208 2 0.137159 11.5202 1.84888 9.87305
209 2 0.164583 9.78791 1.13833 10.1324
210 2 0.181519 9.24722 4.29515 8.75926
249 2 -0.00981987 7.06748 -0.221155 8.98422
215 1 -0.660656 10.4513 1.61971 9.40638
49 2 0.0672655 7.27189 -1.4788 14.9501
148 3 -0.842772 6.71661 -1.02382 16.5966
233 4 1.19644 11.3356 -0.735499 14.4343
195 4 1.08299 11.1359 0.0906218 8.41026
235 3 -0.784535 11.7348 0.263512 15.762
53 2 -0.00363346 4.43769 3.78016 14.7585
265 2 0.160829 9.01859 1.6152 15.0662
248 2 0.111019 6.93574 1.10548 14.7254
264 2 0.159179 7.76507 2.67649 15.9313
127 1 -0.682663 6.39946 4.02799 14.3029