ITEM: TIMESTEP
0
ITEM: NUMBER OF ATOMS
271
ITEM: BOX BOUNDS xy xz yz pp pp pp
-7.2018999999999993e+00 1.4748699999999999e+01 -6.1971999999999996e+00
-1.8606000000000000e+00 1.3431800000000001e+01 -1.0046999999999999e+00
0.0000000000000000e+00 1.6609600000000000e+01 -1.8606000000000000e+00
ITEM: ATOMS id type q x y z
3 4 1.24845 0.851001 0.961577 5.46463
4 4 1.11109 0.27707 3.66131 7.19647
18 4 0.998162 5.23206 3.87369 1.45206
21 4 1.20816 3.85472 6.08648 5.23121
41 2 0.00654399 2.20845 0.945827 4.45226
50 2 0.0250261 3.85215 2.90413 2.13801
52 2 0.00806223 4.0823 4.47086 5.76165
125 1 -0.667754 3.01217 3.87834 0.871081
67 2 0.180474 -1.34046 5.15485 5.61151
119 1 -0.659541 -1.28323 2.74863 7.87889
64 2 0.173082 -1.24819 1.54004 8.09524
82 2 0.177724 0.575561 4.92588 3.21386
83 2 0.189815 0.354489 5.3279 1.42642
229 2 0.027225 2.12887 3.51913 2.52631
120 1 -0.678686 -0.505988 5.28026 6.33176
126 1 -0.662776 0.481303 5.72215 2.46445
138 3 -0.852437 -0.37327 0.846868 4.53606
139 3 -0.844406 0.815426 -0.310078 6.50906
140 3 -0.790365 0.915059 2.47337 6.05969
193 4 1.16856 5.76801 1.40364 5.66938
68 2 0.145088 0.542928 5.55902 5.88108
80 2 0.240453 2.86755 4.991 1.0612
201 2 0.188832 4.28375 0.807011 3.66846
202 2 0.118626 3.53583 1.7604 5.28314
203 2 0.272129 3.86004 -0.223425 5.32536
206 2 0.161612 4.30024 3.29414 6.91343
213 1 -0.654117 4.17021 0.845899 4.82056
218 3 -0.823706 6.1192 0.282177 6.78443
231 3 -0.792129 -0.219704 2.93359 1.33293
227 4 0.975875 1.29897 2.52151 1.3255
230 3 -0.841815 1.73677 0.952025 1.53727
198 2 0.0969081 -1.01491 2.22137 2.58702
266 2 0.0201128 4.53548 4.99523 0.304208
155 3 -0.815034 2.85007 6.19802 3.94925
153 3 -0.8238 1.30845 4.11958 8.2783
226 3 -0.796096 -3.12728 5.72354 7.4722
269 2 0.240797 -0.691268 -0.264775 7.79277
69 2 0.182079 -0.780154 5.90167 7.25885
15 4 1.06516 3.20264 0.603194 9.69238
150 3 -0.783722 4.10801 0.0438708 10.9106
268 2 0.123631 -1.09693 0.209197 9.63389
42 2 -0.0509428 -1.08565 3.77158 11.7523
48 2 0.00424246 1.96587 1.55612 10.4207
151 3 -0.866983 5.72328 -0.467247 13.1151
81 2 0.124739 2.37815 1.79048 16.3829
66 2 0.174328 -1.4022 3.28235 8.84266
228 2 0.0164976 0.819943 1.03509 16.2743
75 2 0.204668 3.7972 2.97332 10.3905
76 2 0.277973 2.55053 3.11291 8.88756
141 3 -0.817808 -2.57365 5.23814 10.0035
149 3 -0.80584 2.62142 -0.229985 8.48301
6 4 1.2103 -1.30262 5.29237 11.0486
91 2 0.15103 1.92022 4.2734 15.4874
123 1 -0.674113 3.39257 2.48571 9.44802
74 2 0.112489 4.39982 2.12306 8.59717
70 2 0.164945 1.63687 -0.979476 11.8061
17 4 1.28344 5.33129 0.616421 12.0093
255 2 -0.000784102 -2.906 2.62929 16.0472
24 4 0.97572 3.59555 8.032 0.25142
2 4 1.2472 -4.16257 12.3433 7.21288
8 4 1.00065 -1.47568 8.25662 6.45512
9 4 1.4616 -2.43953 10.5604 4.80118
169 3 -0.782275 1.10327 10.8785 4.28075
167 3 -0.835942 -1.08448 11.6579 8.23389
246 2 0.0857206 -2.27879 12.9158 1.25414
25 4 1.34937 0.0536402 11.189 3.06298
27 4 1.28584 2.37782 7.61677 7.36191
170 3 -0.781586 1.82997 8.92337 6.17424
44 2 0.0280296 -0.135492 7.21214 6.07408
45 2 0.0107858 -2.63534 7.09559 6.26996
51 2 0.020999 1.50417 8.46743 3.04953
166 3 -0.809958 -1.5193 8.77955 7.92025
19 4 1.04127 1.99456 6.81433 2.7339
1 4 1.10277 -4.19393 12.8813 1.54445
93 2 0.163074 -0.273352 8.71609 2.86324
94 2 0.208088 1.17142 9.45251 1.84946
95 2 0.16297 -0.587995 9.6618 1.20175
162 3 -0.827854 2.86241 9.36463 0.431979
118 1 -0.657771 -5.0156 10.9387 8.11869
130 1 -0.676376 0.0780039 9.50033 2.12666
142 3 -0.82518 -4.72083 11.7915 2.51567
143 3 -0.817042 -3.7692 9.8069 4.05609
144 3 -0.828308 -1.45391 9.3476 5.32683
145 3 -0.793593 -2.91055 11.6677 5.87817
159 3 -0.76706 2.86579 6.78852 1.46158
160 3 -0.849348 0.467697 12.2648 1.93484
161 3 -0.770487 -1.56022 11.4749 3.63119
165 3 -0.838915 3.45476 6.64895 6.70624
171 3 -0.813829 1.24984 11.4407 6.97098
63 2 0.220422 -4.4147 10.0488 8.29209
7 4 1.36013 -5.01914 10.3188 3.15531
14 4 1.30826 0.192878 12.4586 7.75743
60 2 0.146365 -3.10163 10.9712 0.156675
84 2 0.118591 -0.315773 6.55498 2.78965
29 4 1.3525 1.81976 10.5459 5.82902
164 3 -0.841357 1.17342 6.98054 8.30579
262 2 0.122213 -4.19834 6.66907 15.1389
10 4 1.28401 -2.68158 7.47204 12.9256
11 4 1.14835 -3.383 10.0312 11.2744
129 1 -0.656747 2.0204 5.4147 15.2954
28 4 1.51639 -1.3496 10.3815 9.06994
30 4 1.25229 -1.26522 9.21365 14.9298
43 2 0.0952054 -2.20923 7.67323 8.92522
46 2 -0.00605289 -4.09613 6.58866 13.4045
47 2 0.0613532 -5.094 10.3636 11.1106
55 2 0.0052622 -2.25584 9.49419 16.2398
31 4 1.37743 1.12004 10.2433 11.0825
62 2 0.190793 -5.2367 11.518 9.06141
252 2 0.100688 -5.69565 10.603 16.3551
92 2 0.140484 2.93763 5.74173 14.6321
71 2 0.214141 -2.89392 11.8013 12.5613
99 2 0.215803 1.75212 7.69429 10.9001
100 2 0.242297 -0.0453975 8.04815 11.189
121 1 -0.673839 -4.06666 11.5833 12.2826
16 4 1.30125 -0.0155847 11.5746 13.6614
132 1 -0.666541 1.04103 8.34887 11.4577
5 4 1.19343 -3.2089 6.34616 9.01213
146 3 -0.824441 -1.85957 6.36664 12.1895
147 3 -0.859263 -3.05944 8.7227 12.049
253 2 0.157251 -3.5342 10.4227 15.5969
157 3 -0.810775 2.54393 5.85342 10.1727
238 2 -0.00420856 -4.43285 9.24137 14.8584
168 3 -0.844501 -2.75202 10.3228 9.85881
172 3 -0.850302 -1.98483 7.94586 14.2773
173 3 -0.840494 0.207921 9.01143 15.5069
174 3 -0.832191 -1.21122 10.5835 13.9861
175 3 -0.871254 -0.128949 10.2932 10.1576
101 2 0.192106 1.23624 8.28973 12.5866
72 2 0.167298 -4.63366 11.197 13.1785
267 2 0.201645 1.04655 5.88062 14.9416
20 4 1.46426 1.21351 5.68866 9.28502
154 3 -0.854713 -0.00989837 5.6474 10.3298
117 1 -0.650604 -4.07789 10.2076 16.5293
152 3 -0.829086 6.21057 3.02481 0.56557
247 2 0.117945 11.5067 2.85421 1.65653
56 2 0.00209843 5.94707 4.98152 7.0956
73 2 0.0337033 8.90002 3.28742 0.540685
105 2 0.146385 8.79547 5.91727 4.14442
106 2 0.146953 7.78894 4.29294 4.47532
211 2 0.174027 9.27918 2.60822 7.76837
111 2 0.157989 8.79393 5.93907 1.6765
204 2 0.147739 5.8268 4.10929 5.96069
134 1 -0.663551 7.82078 5.4832 4.59619
220 3 -0.847363 8.25981 0.503934 2.78678
223 3 -0.807698 9.25887 1.50453 5.04173
219 3 -0.842668 12.8301 -0.269122 2.54903
192 4 1.30289 13.1463 0.943819 3.58423
224 3 -0.761906 11.2137 0.498445 6.66645
194 4 1.27379 8.17675 1.66621 3.88899
196 4 1.45462 10.9024 1.59192 5.47437
197 4 0.975999 10.527 4.57629 6.65158
205 2 0.145279 5.97523 2.93485 7.5557
199 2 -0.0371039 8.57187 3.13159 3.13705
200 2 -0.0247532 9.63336 5.38988 5.3872
177 3 -0.789234 5.82921 4.85764 2.52327
257 1 -0.657349 11.4831 3.82344 0.69519
222 3 -0.861846 11.8441 1.57272 4.23272
225 3 -0.789985 11.1776 3.25367 6.13701
221 3 -0.821483 6.69872 1.86692 4.45924
33 4 1.22665 6.35795 6.18042 3.62549
232 4 0.931802 13.0282 2.92983 0.112167
217 1 -0.638132 9.30861 3.81822 7.86772
212 2 0.150829 8.38048 4.4181 7.42596
256 2 0.167967 11.561 4.84558 1.04099
214 1 -0.672833 5.36526 3.21234 6.59166
107 2 0.141814 7.63275 5.82416 5.67907
65 2 0.276218 12.5404 2.93421 7.23051
254 2 0.177979 10.5527 3.72782 0.009101
22 4 1.05147 4.88545 3.6535 12.9125
87 2 0.161337 5.61214 4.68009 15.1853
236 3 -0.802133 12.2875 -1.02059 13.3712
13 4 0.980966 6.46898 0.557747 16.4147
216 1 -0.66601 13.3418 -0.418731 8.74667
79 2 0.16318 7.43326 1.7138 11.2007
234 2 -0.0309586 9.77518 0.00241094 13.9057
86 2 0.171714 6.72155 3.10876 14.7657
122 1 -0.658195 7.94356 1.61924 15.3682
124 1 -0.667622 6.83127 0.831383 10.8111
85 2 0.11303 6.72724 4.76963 13.5602
158 3 -0.821807 4.35496 4.86529 11.9944
156 3 -0.830154 5.06465 2.1883 12.4813
207 2 0.185386 10.4414 2.42853 8.83676
208 2 0.145956 12.0435 1.81681 9.74493
209 2 0.14981 10.3865 1.0231 10.2469
210 2 0.191048 9.51788 4.12303 8.93991
249 2 -0.00122647 7.12166 -0.322054 9.10836
215 1 -0.665351 11.0159 1.54558 9.41777
77 2 0.145318 6.29037 1.06299 9.82859
195 4 1.07892 11.394 0.0241249 8.36064
233 4 1.28073 11.1361 -0.854654 14.5053
113 2 0.168835 7.60661 4.79977 16.4888
235 3 -0.836518 11.6727 -0.101683 15.75
53 2 0.0073857 4.09403 3.69323 14.4495
265 2 0.152598 8.77591 1.09351 14.9377
248 2 0.0977611 6.63315 1.26297 14.631
264 2 0.154376 8.10363 2.75224 15.2352
127 1 -0.65797 6.03191 4.01579 14.3699
78 2 0.174167 7.37062 -0.141548 10.8222
251 2 -0.0273809 13.0978 -0.623942 10.6555
148 3 -0.813186 6.70673 -1.08631 16.5119
12 4 1.46352 1.73458 13.0996 1.49916
259 2 0.242842 8.58374 11.7884 4.86679
32 4 1.15177 6.00151 12.0031 1.77335
36 4 1.29201 7.92266 8.16476 1.63651
135 1 -0.653678 6.61036 7.86733 7.94205
112 2 0.177158 10.0706 7.08918 0.945181
96 2 0.204401 3.69408 11.8293 4.98008
97 2 0.17272 4.20215 10.0719 5.45959
98 2 0.228576 3.89222 11.4003 6.81595
102 2 0.213349 5.94573 9.6396 2.84453
103 2 0.164324 4.31742 10.6811 2.65209
104 2 0.180164 5.66183 10.9886 4.08337
258 2 0.192844 7.31386 10.7008 3.90522
109 2 0.177521 6.15868 7.74625 6.87684
110 2 0.203074 7.72387 7.97365 7.91681
136 1 -0.675184 9.03912 6.7833 0.909211
260 2 0.16876 8.52778 10.0313 5.33186
114 2 0.202518 4.6954 8.32373 8.22134
131 1 -0.668372 3.63992 11.0192 5.7917
133 1 -0.693197 5.47529 10.6687 3.03435
54 2 0.0929997 5.34836 8.26314 0.211194
184 3 -0.780331 6.91222 8.6721 0.310382
163 3 -0.850689 2.90398 12.054 1.0344
261 1 -0.646527 8.40535 10.7681 4.48696
182 3 -0.793303 7.04799 7.58238 2.83618
183 3 -0.808625 9.0353 9.23267 2.16264
116 2 0.176429 3.27324 9.64606 8.21765
185 3 -0.833654 6.96004 11.3803 0.741704
178 3 -0.815191 5.35158 6.56725 4.78901
250 2 0.0898337 4.56102 12.4333 0.971611
61 2 0.165903 8.81945 10.855 7.41335
23 4 1.31069 4.04823 5.94958 10.8096
37 4 1.49544 6.28164 8.49707 16.1612
239 2 0.170454 8.93025 5.86339 15.9728
34 4 1.0636 6.26443 6.10068 8.50393
35 4 1.19495 8.70998 6.73553 10.2034
38 4 1.21961 4.02218 11.0749 10.2017
39 4 1.16196 7.51376 8.84866 11.9533
40 4 1.19022 6.26533 11.713 11.9264
58 2 -0.00439606 4.77904 9.60738 9.63939
59 2 -0.0116354 6.02652 8.04272 12.4111
26 4 1.46864 1.62352 9.02143 16.3355
88 2 0.14982 2.93981 8.04682 11.6049
89 2 0.135068 4.97583 8.05615 11.0357
90 2 0.167343 4.49587 7.58925 12.9011
271 3 -0.834418 7.74722 8.60953 15.6585
237 4 1.01491 8.95938 8.2155 14.6268
128 1 -0.670846 4.1429 7.65834 11.7685
180 3 -0.833368 10.0874 6.95057 9.52516
181 3 -0.789198 7.6803 5.80163 9.19077
179 3 -0.802428 5.07309 6.08604 9.52538
189 3 -0.833301 8.63584 8.32367 13.0259
115 2 0.18707 3.27288 8.25067 9.52434
186 3 -0.818627 4.40174 12.2161 8.98265
187 3 -0.853135 2.51753 10.6675 10.3697
188 3 -0.782432 7.98554 8.1794 10.4685
270 2 0.158673 7.06024 11.9126 9.01548
190 3 -0.862635 4.7446 11.3147 11.5677
191 3 -0.837512 7.22251 10.4172 11.8559
241 4 1.31424 4.09874 9.70353 14.4661
242 2 0.0331822 4.00543 9.35364 12.7742
243 3 -0.866844 5.18525 8.59193 14.9634
244 3 -0.86758 4.29307 11.1965 14.7134
245 3 -0.833545 2.73644 9.32133 15.2373
263 2 0.135841 9.26031 5.74581 13.9725
240 1 -0.656363 9.44521 6.38204 14.9432
57 2 -0.041021 9.01342 5.87156 11.6282
108 2 0.163226 6.15238 8.7116 8.61361
137 1 -0.672093 3.60506 8.57955 8.49609
176 3 -0.822155 1.04532 10.8975 12.6194
49 2 0.106496 0.943063 11.7272 15.0771
ITEM: TIMESTEP
100
ITEM: NUMBER OF ATOMS
271
ITEM: BOX BOUNDS xy xz yz pp pp pp
-7.2018999999999993e+00 1.4748699999999999e+01 -6.1971999999999996e+00
-1.8606000000000000e+00 1.3431800000000001e+01 -1.0046999999999999e+00
0.0000000000000000e+00 1.6576380799999999e+01 -1.8606000000000000e+00
ITEM: ATOMS id type q x y z
3 4 1.2633 0.825824 0.901212 5.43353
4 4 1.13807 0.309052 3.44802 7.2023
69 2 0.174235 -0.796943 5.62482 6.94893
226 3 -0.790809 -3.25108 5.78287 7.30727
41 2 0.000517204 2.05373 0.774869 4.25032
50 2 0.0254968 4.06289 2.82331 1.97785
52 2 -0.0223075 4.06959 4.35672 5.47956
125 1 -0.67484 3.20937 3.89895 0.797032
67 2 0.166311 -1.25347 4.75079 5.36532
119 1 -0.670887 -1.29112 2.80184 8.07486
269 2 0.227439 -0.817561 -0.0301253 7.90733
82 2 0.177442 0.460434 5.02989 3.38444
83 2 0.190956 0.658849 5.49881 1.55087
229 2 0.00582978 2.50354 3.47381 2.53924
120 1 -0.66512 -0.394029 5.00828 6.09466
126 1 -0.660161 0.540869 5.81617 2.61447
138 3 -0.856436 -0.508749 0.73589 4.67223
139 3 -0.831941 1.00379 -0.325992 6.44823
140 3 -0.830604 0.925679 2.33744 6.19183
193 4 1.10809 5.59487 1.44194 5.60316
68 2 0.176968 0.490727 5.44536 5.54363
80 2 0.233739 3.10315 4.99935 1.08031
201 2 0.167077 4.18434 0.783167 3.74791
202 2 0.112324 3.31916 1.61404 5.16541
203 2 0.276662 3.63495 -0.354754 5.26818
206 2 0.155732 4.09724 3.26439 6.70068
213 1 -0.663904 3.9864 0.678544 4.85785
218 3 -0.782927 6.00157 0.280464 6.70966
231 3 -0.751673 -0.103208 3.00869 1.4163
227 4 0.911445 1.50003 2.55198 1.364
230 3 -0.814953 1.85542 0.914622 1.49617
198 2 0.06215 -0.887073 2.24274 2.60706
266 2 0.010288 4.80145 4.9349 0.181899
65 2 0.249263 -2.14895 2.98602 7.33298
21 4 1.2111 3.98277 6.06714 5.22755
15 4 1.07767 2.94555 0.625054 9.84528
150 3 -0.805511 3.87757 0.112378 11.036
268 2 0.121697 -1.14623 0.434263 9.69643
42 2 -0.0455175 -1.12716 3.9501 11.8395
48 2 0.00338467 1.67218 1.64804 10.2916
151 3 -0.847625 5.83028 -0.409827 13.1009
81 2 0.14313 2.44166 1.82389 16.3681
66 2 0.208202 -1.41465 3.50945 8.96709
228 2 0.0288203 0.984602 0.963901 16.3104
75 2 0.216796 3.85776 2.88299 10.5108
76 2 0.267026 2.55909 3.11951 9.17773
141 3 -0.802106 -2.64215 5.08707 9.86896
149 3 -0.773223 2.5656 -0.21707 8.59942
6 4 1.16717 -1.40602 5.39147 11.0395
91 2 0.158995 2.29967 4.4991 15.1332
123 1 -0.685603 3.3606 2.45004 9.58202
74 2 0.143186 4.22627 2.1223 8.70794
70 2 0.168777 1.74947 -0.951758 12.3747
17 4 1.23618 5.26785 0.587861 11.9031
64 2 0.176452 -1.31537 1.69019 8.33542
255 2 0.0249314 -2.91166 2.74838 16.1858
153 3 -0.809167 1.15974 4.06002 8.4656
20 4 1.46088 1.24524 5.60818 9.23732
155 3 -0.795238 2.71936 6.40496 4.21591
2 4 1.2634 -4.17977 12.1966 7.22536
8 4 1.00932 -1.43093 8.21458 6.47192
9 4 1.45125 -2.41798 10.3763 4.69543
169 3 -0.802585 1.09468 10.9341 4.1959
167 3 -0.82688 -1.11036 11.6274 8.08655
246 2 0.0892704 -2.13298 12.5483 1.41453
25 4 1.37896 0.041096 11.1737 3.00758
27 4 1.36865 2.26457 7.65055 7.19473
170 3 -0.802101 1.69437 8.87654 6.2609
44 2 0.0121379 -0.341834 7.0074 6.08566
45 2 0.0369422 -2.74485 7.1678 6.40151
51 2 0.0274538 1.29054 8.51477 3.01427
166 3 -0.78459 -1.36143 8.84105 7.94532
19 4 1.01886 2.03866 6.87085 2.84894
1 4 1.06448 -4.01255 12.8268 1.41547
93 2 0.165167 -0.571648 8.72946 2.73283
94 2 0.203099 0.917175 9.21303 1.5759
95 2 0.16342 -0.815788 9.73126 1.15298
162 3 -0.847455 2.79151 9.45232 0.440831
118 1 -0.664941 -5.07188 10.6595 7.85558
130 1 -0.67248 -0.112779 9.47992 2.03317
142 3 -0.801499 -4.70383 11.7887 2.33465
143 3 -0.803782 -3.67528 9.65164 3.9637
144 3 -0.851445 -1.55303 9.24786 5.35253
145 3 -0.760431 -3.11049 11.4819 5.92957
159 3 -0.769616 2.93937 6.82711 1.48068
160 3 -0.836838 0.318605 12.2593 1.79394
161 3 -0.803879 -1.38273 11.3563 3.67366
164 3 -0.849655 1.30071 6.64313 7.99554
171 3 -0.831697 1.25069 11.4184 7.01413
63 2 0.190641 -4.57987 9.8006 7.34047
7 4 1.27929 -5.0705 10.3664 3.25534
14 4 1.2991 0.212157 12.444 7.66469
29 4 1.3439 1.70154 10.5612 5.78558
84 2 0.115597 -0.235286 6.77874 2.74179
165 3 -0.824481 3.46835 6.81826 6.50398
24 4 0.978608 3.58382 8.12841 0.296909
117 1 -0.662022 -3.79643 10.4012 16.4132
262 2 0.110609 -4.17904 6.87538 15.2161
10 4 1.25756 -2.59329 7.50551 12.9793
11 4 1.11498 -3.4066 10.0847 11.3498
129 1 -0.67774 2.54203 5.58603 15.1831
28 4 1.51804 -1.38939 10.437 9.06078
30 4 1.26968 -1.21524 9.31973 14.9258
43 2 0.0847428 -2.10127 7.6977 8.91538
46 2 -0.0211241 -4.00209 6.61947 13.4481
47 2 0.0564925 -5.06989 10.5461 11.4205
55 2 0.0535125 -1.91266 9.89704 16.4535
31 4 1.35065 0.984827 10.115 11.07
62 2 0.208957 -4.96876 10.7151 8.95157
252 2 0.079829 -5.47096 10.4898 16.3091
154 3 -0.812717 -0.14922 5.77303 10.2043
71 2 0.221004 -2.62427 11.859 12.4666
99 2 0.186281 1.38208 7.76736 11.1404
100 2 0.24889 -0.112197 8.12036 12.1931
121 1 -0.66209 -3.84538 11.5376 12.6019
16 4 1.28006 0.107173 11.6254 13.5844
132 1 -0.675629 0.94015 8.39847 12.004
5 4 1.21449 -3.1174 6.32664 8.87211
146 3 -0.851359 -1.7268 6.52486 12.1521
147 3 -0.837776 -3.08403 8.69264 12.0169
253 2 0.163745 -3.25143 11.175 15.7706
157 3 -0.806235 2.56689 5.74505 10.2128
238 2 -0.00434719 -4.621 9.57801 14.8473
168 3 -0.8361 -2.79552 10.3583 9.8898
172 3 -0.87073 -2.08125 8.0908 14.366
173 3 -0.853452 0.171002 9.04919 15.587
174 3 -0.836022 -1.1299 10.6239 13.9322
175 3 -0.885599 -0.222409 10.1686 10.1384
101 2 0.193997 1.53305 8.4907 13.0167
72 2 0.173319 -4.03384 11.1207 13.6394
267 2 0.200807 1.83325 6.25249 14.6544
60 2 0.136679 -3.55355 9.34619 16.1655
152 3 -0.862885 6.44713 3.06522 0.745995
247 2 0.0965573 11.3864 2.97713 1.6101
56 2 -0.00424985 6.01478 4.69552 7.64796
73 2 0.0246375 9.08484 2.77935 0.62959
105 2 0.159031 8.89538 5.93916 4.05734
106 2 0.141134 7.857 4.22583 4.11184
211 2 0.178362 9.06391 2.81198 7.61188
111 2 0.180071 8.72876 5.86608 1.34191
204 2 0.148678 5.79515 3.88142 6.00038
134 1 -0.681231 8.0308 5.34523 4.50505
220 3 -0.872002 8.37301 0.641094 2.71491
223 3 -0.806559 9.23785 1.59047 4.94014
219 3 -0.813131 12.6339 -0.167462 2.78274
192 4 1.29818 13.1456 1.0358 3.61876
224 3 -0.732964 11.0554 0.492992 6.89198
194 4 1.31507 8.24337 1.7272 3.78049
196 4 1.44129 10.8339 1.71384 5.49594
197 4 0.990571 10.4466 4.47271 6.58965
205 2 0.160257 5.76274 2.84364 7.57351
199 2 -0.0375462 8.49662 3.12068 2.87036
200 2 -0.00112882 9.8914 5.12055 5.00857
177 3 -0.815607 5.76347 4.86794 2.66637
257 1 -0.642862 11.3993 4.02173 0.74818
222 3 -0.820525 11.7829 1.57988 4.22159
225 3 -0.845677 11.1582 3.19739 6.06491
221 3 -0.791577 6.78169 1.80537 4.49225
33 4 1.2419 6.48503 6.14961 3.62297
232 4 0.888144 12.942 3.00429 0.375722
217 1 -0.660529 9.21733 3.87672 7.92779
212 2 0.151669 8.36508 4.49099 7.4953
256 2 0.157467 11.578 5.04261 1.25819
214 1 -0.693403 5.23125 3.18644 6.63804
107 2 0.134537 7.75477 5.51601 5.59422
254 2 0.173313 10.4168 3.95158 0.0295503
18 4 1.02018 5.43733 3.97049 1.45319
22 4 1.07088 4.79404 3.64065 13.0402
87 2 0.161849 5.73249 4.88239 14.9429
236 3 -0.791071 12.461 -0.823549 13.3516
13 4 1.02739 6.56015 0.447307 16.5249
216 1 -0.679947 13.4027 -0.29471 8.80992
79 2 0.164642 7.186 1.83248 10.7895
234 2 -0.0238024 10.1491 0.17831 13.7109
86 2 0.164146 6.77854 3.17869 14.7304
122 1 -0.664185 7.81635 1.68082 15.4865
124 1 -0.680829 6.58728 0.887686 10.5306
85 2 0.150645 6.88556 4.67918 13.3981
158 3 -0.833618 4.33564 4.71112 11.9764
251 2 -0.0136281 13.048 -0.72305 10.703
207 2 0.19884 10.239 2.38162 8.89984
208 2 0.122155 11.7274 1.66932 9.95753
209 2 0.167501 9.88873 0.959939 10.0503
210 2 0.202328 9.42866 4.0439 9.02767
249 2 0.00870265 7.14549 -0.30461 9.10242
215 1 -0.643683 10.6762 1.44553 9.37809
77 2 0.154061 6.06115 0.896263 9.5482
148 3 -0.834482 6.79979 -1.10542 16.4419
233 4 1.23103 11.294 -0.845739 14.4768
113 2 0.174392 7.77194 4.69697 16.277
235 3 -0.788188 11.6834 0.0217011 15.8576
53 2 -0.00869543 4.18638 3.79204 14.6225
265 2 0.142677 8.73604 1.10944 15.2322
248 2 0.122404 6.68022 1.21486 14.5551
264 2 0.165761 8.0896 2.72858 15.3623
127 1 -0.660207 6.17566 4.18652 14.1722
78 2 0.167138 7.20815 -0.0745045 10.8026
195 4 1.09102 11.36 -0.00266133 8.44679
49 2 0.0868037 7.32965 -1.43267 14.9455
156 3 -0.790308 4.97472 2.1855 12.6171
12 4 1.39087 1.7594 13.1225 1.5069
259 2 0.217973 8.53508 11.5764 4.98732
32 4 1.12247 5.86906 12.134 1.75115
36 4 1.33386 8.00006 8.15661 1.48605
135 1 -0.6681 6.31281 7.82281 7.77917
112 2 0.163747 10.0772 7.17962 0.955655
96 2 0.19306 3.59482 11.3853 4.56713
97 2 0.172456 4.10188 10.1128 5.89078
98 2 0.247135 3.73764 11.8914 6.37826
102 2 0.206477 5.88733 9.77761 2.98108
103 2 0.170277 4.28275 10.6789 2.54569
104 2 0.180865 5.21597 11.2486 4.07552
258 2 0.216112 7.19419 10.6828 3.92839
109 2 0.208064 5.4629 7.65525 7.0083
110 2 0.18083 7.32762 8.00551 7.30948
136 1 -0.676449 9.04395 6.74362 0.709529
260 2 0.175298 8.30345 9.6765 5.17146
61 2 0.169174 8.61327 10.9024 7.42963
131 1 -0.66651 3.50682 11.0526 5.65828
133 1 -0.664689 5.38237 10.7662 2.99697
54 2 0.0892622 5.27297 8.4429 0.592319
184 3 -0.789169 6.94596 8.6644 0.416757
163 3 -0.839225 3.0294 12.1306 1.09271
261 1 -0.65611 8.25775 10.5838 4.48985
182 3 -0.781126 7.1521 7.29648 2.61199
183 3 -0.770542 8.9775 9.23879 2.26164
250 2 0.0951276 4.52648 12.8031 0.873043
185 3 -0.826915 6.85278 11.4553 0.780617
178 3 -0.815702 5.45096 6.63684 4.74685
23 4 1.31742 4.06892 5.84792 10.8889
37 4 1.47705 6.24571 8.52334 16.1518
239 2 0.180953 8.94759 5.869 15.858
34 4 1.0388 6.26789 6.11163 8.5941
35 4 1.24212 8.91221 6.84823 10.1064
38 4 1.21116 4.03522 10.9397 10.1257
39 4 1.17692 7.46349 8.81708 11.9346
40 4 1.16239 6.20857 11.6599 11.9545
58 2 -0.0273518 4.76754 9.50813 9.5439
59 2 -0.00971048 6.03383 7.96557 12.1176
26 4 1.42147 1.64222 9.01986 16.3382
88 2 0.160731 2.90453 7.92253 11.9397
89 2 0.1446 4.6173 8.26365 11.1097
90 2 0.168969 4.57034 7.14534 12.7678
271 3 -0.825335 7.72775 8.4556 15.7058
237 4 1.055 8.91867 8.34687 14.672
128 1 -0.677373 4.07851 7.57919 11.7999
180 3 -0.843573 10.2311 6.8083 9.34155
181 3 -0.782968 7.78557 6.03083 9.24724
179 3 -0.813781 5.18918 6.08731 9.68931
189 3 -0.818279 8.34786 8.39293 13.1484
115 2 0.19016 2.92132 8.10586 9.61039
186 3 -0.817813 4.39067 12.1513 9.08944
187 3 -0.803813 2.51639 10.5421 10.3435
188 3 -0.784547 8.30879 8.33027 10.4785
270 2 0.156661 7.29818 12.0463 9.05358
190 3 -0.857452 4.69883 11.2074 11.5652
191 3 -0.819205 7.22669 10.3921 11.9868
241 4 1.32483 4.11347 9.73329 14.5094
242 2 0.0487799 4.00688 9.27584 12.7963
243 3 -0.85928 5.3425 8.70761 14.8642
244 3 -0.89555 4.42478 11.1976 14.7359
245 3 -0.864651 2.80023 9.12453 15.1215
263 2 0.142153 9.41318 5.90216 13.9831
240 1 -0.636917 9.41196 6.5034 14.9261
57 2 -0.0384074 9.12959 6.01111 11.6282
108 2 0.161419 6.04384 8.54171 8.58341
137 1 -0.671244 3.294 8.51428 8.59202
176 3 -0.824604 1.0245 11.0479 12.4112
92 2 0.133253 3.69739 5.80058 14.997
116 2 0.192165 3.06611 9.63345 8.46988
114 2 0.181677 4.42597 8.22731 8.31855
ITEM: TIMESTEP
200
ITEM: NUMBER OF ATOMS
271
ITEM: BOX BOUNDS xy xz yz pp pp pp
-7.2018999999999993e+00 1.4748699999999999e+01 -6.1971999999999996e+00
-1.8606000000000000e+00 1.3431800000000001e+01 -1.0046999999999999e+00
0.0000000000000000e+00 1.6543161600000001e+01 -1.8606000000000000e+00
ITEM: ATOMS id type q x y z
3 4 1.24392 0.786135 0.723665 5.50084
4 4 1.10201 0.227836 3.41711 7.29013
69 2 0.180388 -1.19907 5.07776 6.55517
226 3 -0.799001 -3.09699 5.80157 7.2766
41 2 0.0123282 2.16952 0.625645 4.39879
50 2 0.0152212 4.05576 2.85534 2.05251
52 2 -0.0122631 4.40934 4.30963 5.10611
125 1 -0.680691 3.04934 4.00942 0.890111
67 2 0.166643 -0.382263 4.27021 4.99974
119 1 -0.662111 -1.32905 2.78278 8.21063
21 4 1.23377 3.98117 5.99779 5.14658
82 2 0.169693 0.677949 5.18319 3.62356
83 2 0.185946 0.741417 5.30706 1.76668
229 2 0.0215186 2.3127 3.64814 2.59171
120 1 -0.6668 -0.170931 4.86578 5.91452
126 1 -0.674651 0.461887 5.82714 2.72863
138 3 -0.834123 -0.587264 0.551757 4.66487
139 3 -0.828274 0.907929 -0.447681 6.49604
140 3 -0.785232 0.88048 2.16094 6.25677
193 4 1.13874 5.63452 1.40318 5.59458
68 2 0.194176 0.516597 5.72099 5.83031
80 2 0.239219 2.78373 5.09705 1.04489
201 2 0.192715 4.4781 0.632691 3.58454
202 2 0.107685 3.46581 1.69962 5.01264
203 2 0.272766 3.70876 -0.408216 5.21681
206 2 0.156707 4.17664 3.3971 6.67038
213 1 -0.639749 4.08876 0.69913 4.66977
218 3 -0.802855 5.84634 0.309084 6.78238
231 3 -0.785385 -0.0861961 2.88708 1.4577
227 4 0.988621 1.43833 2.61615 1.33356
230 3 -0.829841 1.95446 1.10863 1.48766
198 2 0.0786185 -0.880288 2.05325 2.64378
266 2 0.0099898 4.56962 5.19309 0.558894
18 4 0.966968 5.31571 3.97702 1.53532
84 2 0.1456 -0.58234 6.34476 2.77799
15 4 1.07054 2.83515 0.597537 9.92146
150 3 -0.772258 3.56524 0.165884 11.2419
268 2 0.133516 -1.11305 0.196837 9.6431
42 2 -0.0450123 -1.05107 4.11802 11.86
48 2 0.0116386 1.63473 1.80656 10.1284
151 3 -0.845617 5.70404 -0.367687 13.0341
81 2 0.13069 2.42578 1.92064 16.4279
66 2 0.180403 -1.33687 3.41085 9.16859
228 2 0.0255466 0.623822 1.49643 16.3574
75 2 0.218258 4.00055 2.77849 10.3377
76 2 0.269992 2.5312 2.96013 9.13462
141 3 -0.831793 -2.65458 5.30121 10.0076
149 3 -0.740266 2.42559 -0.362647 8.76382
77 2 0.138432 5.77344 0.708568 9.6149
91 2 0.158333 2.25371 4.83852 14.9847
123 1 -0.685646 3.45109 2.31706 9.47819
74 2 0.154571 4.19002 1.87504 8.59966
70 2 0.193699 1.90554 -1.09459 12.0972
17 4 1.26729 5.16577 0.683943 11.9654
64 2 0.166865 -1.31932 1.58235 8.42115
255 2 0.0336118 -2.85209 2.8862 16.3304
153 3 -0.789392 1.19553 3.86719 8.48105
20 4 1.45472 1.25372 5.63774 9.23727
155 3 -0.795507 2.94509 6.34903 3.96853
2 4 1.20004 -4.26856 12.0461 7.23642
8 4 1.04729 -1.62346 8.22399 6.50106
9 4 1.48011 -2.38831 10.5074 4.72843
169 3 -0.796151 1.10929 10.7645 4.17551
167 3 -0.830213 -1.11716 11.6225 8.22458
246 2 0.0930575 -2.08245 12.7489 1.09871
25 4 1.35108 -0.0240704 11.0488 2.99626
27 4 1.31805 2.18146 7.57187 7.16055
170 3 -0.783847 1.67935 8.76892 6.2289
44 2 0.029834 -0.637011 6.78167 6.19615
45 2 0.048733 -3.01877 7.26137 6.4241
51 2 0.0518224 1.45243 8.59136 3.2184
166 3 -0.82853 -1.462 8.79299 7.93244
19 4 1.0169 1.93765 6.93837 2.8054
1 4 1.04703 -4.02054 12.9683 1.36229
93 2 0.157354 -0.316225 8.32436 2.72601
94 2 0.200325 0.972127 9.21235 1.56901
95 2 0.154877 -0.891101 9.55695 1.42964
162 3 -0.844101 2.98201 9.36446 0.391915
118 1 -0.660237 -5.3181 10.5793 7.58863
130 1 -0.663786 -0.0167256 9.30439 2.1331
142 3 -0.774735 -4.551 11.7957 2.32117
143 3 -0.797943 -3.8569 9.84713 4.01621
144 3 -0.838093 -1.57972 9.16401 5.29554
145 3 -0.789987 -2.90154 11.54 5.84111
159 3 -0.758529 2.63233 6.87415 1.36649
160 3 -0.840182 0.433856 12.2192 1.86456
161 3 -0.82509 -1.54587 11.211 3.48355
164 3 -0.820324 1.02138 6.68727 7.97693
165 3 -0.822821 3.32978 6.60286 6.44843
63 2 0.171484 -4.98494 9.76596 6.85776
29 4 1.29199 1.76386 10.5699 5.66442
14 4 1.29394 0.0771888 12.4927 7.67552
171 3 -0.796204 1.07954 11.6382 6.69915
7 4 1.27593 -5.06296 10.3074 3.13647
117 1 -0.649148 -3.96691 10.411 16.318
262 2 0.108174 -4.17483 6.98163 15.3124
10 4 1.26232 -2.48496 7.60989 13.0496
11 4 1.1243 -3.40415 10.0473 11.2958
129 1 -0.666748 2.89046 5.77148 15.1309
28 4 1.51744 -1.30528 10.2857 9.06195
30 4 1.27671 -1.15876 9.42264 15.1211
43 2 0.11712 -1.89511 7.63968 9.01393
46 2 -0.0176295 -3.92373 6.67147 13.4248
47 2 0.0518351 -5.07873 10.4999 11.4924
55 2 0.0111873 -2.04542 9.88368 16.4532
31 4 1.33529 1.18319 10.1139 11.0995
62 2 0.19952 -4.9827 10.3386 8.72978
252 2 0.103751 -5.65346 10.6802 16.2867
154 3 -0.834985 0.0281539 5.9075 10.1497
71 2 0.240338 -2.5085 11.6628 12.6571
99 2 0.211088 0.980044 7.80517 11.2775
100 2 0.255977 -0.0759674 8.59418 12.6707
121 1 -0.66871 -3.72242 11.4855 12.5259
16 4 1.30834 0.0652848 11.6709 13.5628
132 1 -0.660465 0.950921 8.4725 12.1994
5 4 1.22003 -3.0896 6.35876 8.92656
146 3 -0.842285 -1.54637 6.63348 12.1986
147 3 -0.853549 -3.03153 8.76602 12.115
253 2 0.164013 -3.51355 10.8585 15.3669
157 3 -0.836898 2.55273 5.82076 10.1301
238 2 0.00434658 -4.54716 9.43137 14.762
168 3 -0.823421 -2.74032 10.3303 9.85375
172 3 -0.850942 -1.91937 8.20414 14.3803
173 3 -0.866789 0.306458 8.98516 15.5069
174 3 -0.850559 -1.05336 10.6881 14.1407
175 3 -0.871347 -0.0748893 10.0746 10.036
101 2 0.186693 1.73503 8.20296 12.9032
72 2 0.166242 -4.15746 11.1535 13.4647
267 2 0.193883 2.49687 6.67842 14.4794
60 2 0.131079 -3.75689 9.25602 16.3956
6 4 1.16521 -1.25686 5.58046 11.0831
152 3 -0.806083 6.57765 3.22882 0.816287
247 2 0.0942355 11.5615 3.03343 1.85213
56 2 -0.000459956 6.2005 4.79178 7.45657
73 2 0.0190934 9.39274 2.96536 0.796353
105 2 0.141554 8.71863 5.06309 3.92121
106 2 0.143892 7.49637 4.7521 5.30116
211 2 0.178855 8.9559 2.72031 7.62808
111 2 0.166438 8.90056 5.80138 1.05528
204 2 0.130665 5.8309 4.1991 6.01415
134 1 -0.684639 7.94762 5.48868 4.63223
220 3 -0.807507 8.48752 0.696718 2.60265
223 3 -0.831187 9.33844 1.57852 5.02168
219 3 -0.851471 12.4938 -0.149628 2.67841
192 4 1.28037 13.0226 0.99862 3.65963
224 3 -0.782806 11.1206 0.514579 6.76377
194 4 1.27295 8.17968 1.67992 3.86543
196 4 1.48031 10.8278 1.59734 5.54874
197 4 0.966975 10.4447 4.49655 6.61304
205 2 0.159803 5.85211 2.99008 7.50057
199 2 -0.0219195 8.34117 3.24393 3.32573
200 2 -0.0197854 9.81634 5.00866 5.17046
177 3 -0.818727 5.792 4.8086 2.7614
257 1 -0.637584 11.5829 4.19525 0.947175
222 3 -0.840555 11.8683 1.83183 4.3289
225 3 -0.787259 11.1363 3.14726 6.40679
221 3 -0.828969 6.7527 1.56471 4.47742
33 4 1.26852 6.44114 6.09975 3.61351
232 4 0.906319 13.0079 3.10189 0.382243
217 1 -0.658867 9.05013 3.91204 7.70249
212 2 0.133251 8.21742 4.5519 7.20162
256 2 0.168442 11.5283 5.13613 1.5188
214 1 -0.675031 5.31237 3.30567 6.55061
269 2 0.209674 13.4301 -0.0569843 7.71946
254 2 0.165056 10.5587 4.0977 0.217037
13 4 1.02082 7.79601 2.36026 0.146999
65 2 0.267489 12.4542 2.94501 7.52678
22 4 1.04655 4.95451 3.72683 13.1232
87 2 0.170121 6.10395 4.53818 15.2357
236 3 -0.809767 12.543 -0.94172 13.4102
156 3 -0.785171 4.95871 2.21329 12.5171
216 1 -0.658875 13.0915 -0.377319 8.82681
79 2 0.169317 6.9584 1.91815 10.5146
234 2 -0.0324091 9.9929 -0.0813457 13.6707
86 2 0.182529 6.97398 3.02259 14.57
122 1 -0.668053 8.0621 1.6299 15.5787
124 1 -0.673236 6.4757 0.881031 10.5484
85 2 0.142063 6.95171 4.7075 13.5088
158 3 -0.781518 4.39549 4.81543 12.1823
251 2 -0.0062327 13.1823 -0.672199 10.7478
207 2 0.194913 10.0073 2.48526 8.79025
208 2 0.13675 11.5083 1.83507 9.8857
209 2 0.163541 9.77211 1.10358 10.1308
210 2 0.181457 9.24731 4.27907 8.76736
249 2 -0.0112564 7.0765 -0.269615 8.99901
215 1 -0.658878 10.4452 1.60053 9.40688
195 4 1.07925 11.1319 0.0802594 8.41448
148 3 -0.848865 6.71691 -1.04037 16.5723
233 4 1.18894 11.3281 -0.767619 14.4256
49 2 0.076496 7.21151 -1.52453 14.997
235 3 -0.785434 11.7221 0.252512 15.7515
53 2 -0.00502255 4.44337 3.7527 14.7511
265 2 0.162852 9.00713 1.65457 15.0276
248 2 0.107079 6.91989 1.06601 14.8041
264 2 0.162676 7.7689 2.67358 15.8809
127 1 -0.683545 6.4025 4.00711 14.3042
78 2 0.165133 7.17411 0.0106229 10.7326
113 2 0.158658 7.90503 4.88278 15.9491