ITEM: TIMESTEP
0
ITEM: NUMBER OF ATOMS
271
ITEM: BOX BOUNDS xy xz yz pp pp pp
-7.2018999999999993e+00 1.4748699999999999e+01 -6.1971999999999996e+00
-1.8606000000000000e+00 1.3431800000000001e+01 -1.0046999999999999e+00
0.0000000000000000e+00 1.6609600000000000e+01 -1.8606000000000000e+00
ITEM: ATOMS id type x y z
3 4 0.736041 1.47106 5.27706
4 4 -0.0904608 3.79605 7.39247
153 3 1.09035 4.5373 8.2278
21 4 3.76084 5.47438 4.94447
41 2 2.26069 1.83228 4.45094
50 2 3.78943 3.4183 1.57808
52 2 4.28745 3.88001 5.4635
19 4 1.64687 5.9835 2.85531
67 2 -1.52302 5.77324 7.2012
68 2 -1.7285 4.68522 5.63721
2 4 1.94183 -0.702232 6.91927
82 2 -0.536429 5.38203 4.33069
83 2 0.0991389 4.42252 2.5752
125 1 3.60041 4.49309 0.241644
120 1 -1.02207 5.32208 6.32444
126 1 -0.190718 5.50803 3.21246
138 3 -0.362144 1.43361 4.08493
139 3 0.879504 0.136174 6.10575
140 3 0.423674 2.70009 6.27821
246 2 3.8517 -0.151955 2.3087
149 3 2.52405 0.189596 8.27069
155 3 2.73474 5.15212 3.64594
201 2 4.09507 1.53204 3.97016
202 2 3.62077 2.29707 5.67231
203 2 3.78947 0.308779 5.39235
193 4 5.86408 1.77098 5.82215
213 1 4.1088 1.39096 5.08267
14 4 6.80852 -0.815399 7.64799
227 4 1.28597 2.41278 0.407127
229 2 1.9594 3.83663 1.09129
230 3 1.68115 1.24593 1.30498
84 2 -0.888842 6.14615 2.5374
80 2 3.06859 5.43286 0.635195
69 2 -0.369003 6.0462 5.84555
15 4 3.01654 1.11458 9.43064
231 3 -1.20747 0.754735 16.5369
17 4 5.14527 0.843564 11.8835
42 2 -0.738506 4.29117 11.447
48 2 1.72536 2.08754 10.0332
65 2 -1.24408 1.6037 8.61772
64 2 -0.60639 3.15607 9.70083
70 2 1.75666 -0.936598 11.9795
119 1 -1.07657 2.81188 8.6928
75 2 3.68092 3.49746 10.118
76 2 2.46677 3.60912 8.70074
53 2 3.28949 4.16798 14.0833
81 2 2.07749 2.17348 16.078
91 2 1.76457 4.194 14.8905
228 2 1.34218 0.518633 15.6909
123 1 3.2826 2.93037 9.19595
254 2 -2.7499 2.95479 15.5372
150 3 4.01397 0.752409 10.5899
151 3 5.33232 -0.492048 12.7332
141 3 -2.18693 5.36005 9.73006
66 2 -2.08505 3.42317 8.44437
74 2 4.15692 2.74543 8.34835
169 3 0.975408 11.1581 3.98829
166 3 -1.14456 9.23879 8.29175
8 4 -1.038 8.87268 6.74716
9 4 -2.55415 10.8131 4.81834
7 4 -5.22699 10.7114 3.29962
164 3 1.70547 7.51303 8.03302
165 3 3.04266 6.16646 6.16156
25 4 -0.130681 11.3038 2.82803
27 4 2.65945 7.57619 6.78577
162 3 2.63587 9.33581 0.603838
44 2 0.631239 8.78108 6.2795
45 2 -1.48197 7.26312 6.47698
51 2 0.758007 6.99018 3.99477
60 2 -2.19454 11.3327 0.855161
61 2 -4.76355 10.4329 6.96352
170 3 2.06365 8.89221 5.83309
93 2 -1.22213 9.26103 1.92425
94 2 0.630353 9.14548 2.42775
95 2 0.153703 9.92157 0.702045
117 1 -2.4348 12.4335 0.724384
118 1 -5.27866 11.2472 7.62327
130 1 -0.154051 9.69217 1.79058
142 3 -4.74638 12.0085 2.37808
143 3 -3.94696 10.2422 4.25193
144 3 -1.68886 9.79842 5.76186
145 3 -3.11557 12.0422 5.90903
159 3 1.97646 6.81392 1.36385
160 3 0.268328 12.4447 1.57064
161 3 -1.60223 11.4632 3.6275
24 4 2.42659 7.88033 0.17682
253 2 -1.63128 12.8924 0.196495
1 4 -4.09371 13.1942 1.69925
171 3 1.23825 11.5892 6.60606
167 3 -0.663055 12.0202 8.30271
5 4 -3.72887 6.02139 9.39906
6 4 -1.07905 5.7491 10.7571
10 4 -2.43793 7.63901 12.8792
11 4 -3.00252 10.3653 11.4914
20 4 1.49297 6.14264 9.09539
28 4 -0.978406 10.6036 9.24024
30 4 -1.04655 9.28589 14.9728
43 2 -3.59204 7.66156 8.92863
46 2 -3.744 6.89276 13.805
47 2 -5.16382 11.1136 10.892
55 2 -2.32427 9.42888 16.1539
99 2 1.57019 7.6019 11.2545
263 2 -3.94478 6.49646 15.7157
252 2 -4.74454 10.7945 16.3841
72 2 -5.09877 10.9006 12.8762
92 2 1.7276 5.71328 14.0838
63 2 -4.88658 11.1097 8.70479
100 2 -0.0302037 8.40167 11.7874
121 1 -4.60207 11.4005 11.9044
129 1 1.92512 5.26003 15.0451
132 1 1.10127 8.38852 11.9272
238 2 -4.24944 9.08319 16.3881
146 3 -1.78156 6.59465 11.8766
147 3 -2.8623 8.98347 12.1598
154 3 0.309851 6.28521 10.0955
267 2 0.191 5.97911 15.4919
189 3 -5.46708 8.96616 13.8393
168 3 -2.39319 10.7145 10.0551
172 3 -1.36144 7.9846 14.1749
173 3 0.426201 9.14156 15.5579
174 3 -1.14388 10.6219 14.0107
175 3 0.354323 10.3965 10.3558
237 4 -5.45563 8.30214 15.3877
157 3 2.88912 5.91125 9.89485
16 4 -0.174393 11.7799 13.6031
71 2 -2.83595 11.7529 12.5449
101 2 1.46614 8.37936 13.024
247 2 12.0078 2.78035 0.822891
264 2 8.96656 4.09675 1.83135
270 2 13.5775 0.0813916 7.37687
73 2 9.68066 2.23625 1.84869
113 2 8.53828 5.97757 1.42604
265 2 10.4411 3.56717 0.584358
107 2 7.25679 4.31554 4.55327
122 1 9.44693 3.21527 1.2163
13 4 7.86205 2.4978 0.348503
134 1 7.5344 5.38905 4.82458
226 3 10.322 5.29697 8.12551
152 3 6.52568 3.28819 0.532866
177 3 5.69542 5.18359 2.44276
192 4 12.9133 1.57305 3.56422
56 2 6.71815 5.05042 7.51095
194 4 8.30271 1.60648 3.97646
196 4 10.6856 1.52587 5.79382
197 4 9.74676 4.00029 7.39741
218 3 6.39843 0.589604 6.93741
199 2 8.62612 3.04332 3.03742
200 2 8.63198 4.48237 6.17614
204 2 6.3833 4.26242 6.01863
205 2 6.20439 3.0602 7.7146
148 3 7.87407 1.0089 0.0130674
214 1 5.64029 3.62467 6.78957
225 3 10.7469 2.87645 6.78346
219 3 12.5673 0.38765 2.56385
220 3 8.32784 0.457308 2.91612
221 3 6.92557 1.95725 4.62088
222 3 11.8743 1.59252 4.70139
223 3 9.35084 1.40451 5.07093
224 3 10.8543 -0.00698124 6.84233
106 2 8.58733 5.61024 4.64807
33 4 6.22606 6.27624 3.60969
198 2 12.7001 3.04068 2.76413
105 2 7.21677 5.79273 5.79116
18 4 5.3934 4.2766 1.19217
255 2 12.1555 4.96564 0.733512
195 4 11.1824 -0.583206 8.26284
211 2 8.57906 2.11988 8.20763
206 2 4.762 4.17951 7.16069
22 4 4.67373 3.81819 13.0979
49 2 6.62744 -0.849516 14.9251
269 2 13.4155 0.167894 9.29656
77 2 6.59836 1.09755 10.1193
78 2 7.62371 0.528946 11.7168
79 2 6.9458 2.31903 11.5708
85 2 6.87463 3.61413 14.0926
249 2 7.852 -0.430745 8.85041
216 1 13.2605 -0.449981 8.33861
124 1 6.84482 1.23378 11.2439
127 1 6.18935 4.51906 13.8511
158 3 4.54752 4.57648 11.3932
212 2 7.6535 3.64871 8.88826
207 2 11.5539 0.835384 10.0538
208 2 9.79126 -0.143103 10.1583
209 2 9.82665 1.55471 9.28735
210 2 9.32082 3.1472 9.69448
257 1 11.0878 2.51508 16.3708
215 1 10.5059 0.605817 9.56587
217 1 8.66975 3.12484 8.73937
232 4 12.0937 0.833008 16.0316
233 4 11.0521 -1.12598 13.8586
234 2 9.61056 -0.590634 13.2503
235 3 11.5748 -0.102464 14.8926
256 2 10.093 2.70334 15.8873
57 2 8.34868 5.18952 12.7204
248 2 7.95437 1.56 15.9264
236 3 11.9738 -1.37919 12.5925
156 3 4.89424 2.27858 12.9552
266 2 3.9536 3.63477 16.3401
86 2 5.63714 5.01079 14.8052
87 2 6.62139 5.24525 13.1002
261 1 8.21371 11.2615 4.58709
12 4 1.74121 13.1841 1.47875
32 4 5.90087 12.519 1.67333
36 4 7.81349 8.36282 1.79065
135 1 7.75883 7.77748 8.2613
111 2 9.98546 7.16616 1.19468
96 2 3.24656 11.937 3.89797
97 2 4.04281 10.3838 4.95998
98 2 3.90036 12.1979 5.76564
102 2 5.86565 10.1134 2.17379
103 2 4.17554 11.123 2.55362
104 2 5.79432 11.3056 3.75675
108 2 8.13756 7.59463 7.24427
250 2 4.47146 12.9389 0.772483
29 4 1.85935 10.8441 5.35119
114 2 5.08221 8.27977 6.16602
115 2 4.85625 7.63411 8.08532
116 2 4.21757 9.41461 7.473
131 1 3.54056 11.4353 4.97833
133 1 5.34406 11.0796 2.71035
136 1 8.86933 6.9655 0.959438
137 1 4.47439 8.33485 7.1523
163 3 3.07889 12.0951 1.15636
178 3 5.1002 6.34827 4.76664
182 3 6.86971 7.63068 2.96648
183 3 8.82586 9.45605 2.5034
184 3 6.91131 9.07993 0.621033
185 3 7.03455 11.836 0.696931
62 2 8.33387 11.1365 7.5547
258 2 8.64759 11.2756 5.65527
259 2 7.32971 10.602 4.43215
260 2 7.9285 12.2614 4.22251
110 2 6.84845 8.54765 8.20338
23 4 4.26759 6.01168 10.6168
26 4 1.78005 8.98349 16.4353
271 3 7.91719 8.48384 16.0225
109 2 8.57495 8.25757 8.94531
35 4 8.62839 6.16387 11.2862
38 4 4.17539 10.2515 9.7998
39 4 8.02183 8.85205 12.715
40 4 6.44786 11.1602 11.4596
58 2 3.9298 8.73347 9.00696
59 2 6.62888 8.38973 13.5809
34 4 6.85582 6.25042 8.81021
88 2 3.00887 7.8015 11.9159
89 2 4.80619 8.31416 11.4573
90 2 4.53707 6.92247 12.755
37 4 6.33098 8.56264 16.3915
180 3 10.0658 5.89279 10.6548
128 1 4.13365 7.48857 11.8119
245 3 3.01589 9.0846 15.3889
176 3 1.1467 11.2285 12.8485
179 3 5.40269 6.69137 9.37164
240 1 9.71028 6.46683 15.2747
54 2 3.2163 5.53924 15.6224
186 3 4.46576 11.4271 8.73584
187 3 2.876 10.4454 10.8005
188 3 8.22577 7.69729 11.6711
262 2 8.97328 5.87556 16.0616
190 3 5.45588 10.1859 10.7256
191 3 7.58919 10.2181 12.0098
241 4 4.2415 9.3669 14.4666
242 2 3.719 9.12744 12.7943
243 3 5.41075 8.3572 14.7548
244 3 4.57672 10.9098 14.6436
112 2 7.54394 5.14398 16.4969
268 2 7.42378 11.9026 8.34666
251 2 7.06925 12.0216 10.0693
239 2 9.74822 5.95089 14.2496
181 3 7.59527 5.62506 10.2073
31 4 1.37338 10.2803 11.4877
ITEM: TIMESTEP
100
ITEM: NUMBER OF ATOMS
271
ITEM: BOX BOUNDS xy xz yz pp pp pp
-7.2018999999999993e+00 1.4748699999999999e+01 -6.1971999999999996e+00
-1.8606000000000000e+00 1.3431800000000001e+01 -1.0046999999999999e+00
0.0000000000000000e+00 1.6601295199999999e+01 -1.8606000000000000e+00
ITEM: ATOMS id type x y z
3 4 0.666535 1.53125 5.23554
4 4 -0.180132 3.80274 7.36684
153 3 1.02186 4.62402 8.23599
21 4 3.71035 5.49078 5.00674
41 2 2.20596 1.94013 4.53369
50 2 4.02121 3.21971 1.30558
52 2 4.36834 3.98968 5.61119
19 4 1.64585 6.10216 2.88333
67 2 -2.01342 5.40774 7.07631
68 2 -1.48159 4.74936 5.37127
2 4 1.98508 -0.685462 6.92571
82 2 -0.513363 5.49151 4.44984
83 2 0.218161 4.39854 2.74081
125 1 3.72274 4.61397 0.106131
120 1 -1.1485 5.28919 6.34266
126 1 -0.16846 5.56431 3.29111
138 3 -0.373017 1.60921 4.06495
139 3 0.871669 0.104445 5.96143
140 3 0.283338 2.72579 6.30943
255 2 -2.2156 5.18156 0.395643
149 3 2.52423 0.261935 8.1972
155 3 2.67836 5.2252 3.7286
201 2 4.11902 1.93154 4.09284
202 2 3.60832 2.20935 5.98253
203 2 3.68083 0.460032 5.24972
193 4 5.86145 1.7188 5.79142
213 1 4.05479 1.51494 5.14527
14 4 6.73309 -0.656727 7.70998
227 4 1.37737 2.45147 0.466982
229 2 2.13823 3.86066 1.05285
230 3 1.77423 1.24209 1.38514
84 2 -0.797113 6.22846 2.66816
80 2 3.00147 5.33252 0.589068
218 3 6.23486 0.639579 6.8905
74 2 4.12943 2.69812 8.13299
231 3 -0.140811 2.71953 0.0152612
15 4 3.17366 1.1576 9.44663
266 2 3.7702 3.31579 16.2009
17 4 5.21953 0.876731 11.8976
42 2 -0.952171 4.20166 11.4057
48 2 1.89436 2.10485 10.1147
65 2 -1.14596 1.63427 8.45352
64 2 -0.759346 3.08098 9.59924
70 2 1.83351 -0.703767 11.7346
119 1 -1.15101 2.8279 8.60958
75 2 3.9444 3.43655 9.97187
76 2 2.42097 3.65314 8.76355
53 2 3.5186 4.71448 14.0459
81 2 2.18434 2.01526 15.8944
91 2 1.86546 4.29579 14.4291
228 2 1.30136 0.522051 15.6619
123 1 3.34584 2.97299 9.14973
254 2 -2.80744 2.96331 15.0583
150 3 4.26462 0.780379 10.5494
151 3 5.48208 -0.442358 12.7761
141 3 -2.09752 5.60448 9.47689
66 2 -2.16584 3.34788 8.31507
156 3 4.60147 2.26479 13.0752
169 3 1.06253 10.9823 4.00588
166 3 -1.30664 9.2028 8.2183
8 4 -1.13033 8.85642 6.71537
9 4 -2.6256 10.9004 4.91025
7 4 -5.26429 10.6243 3.39673
164 3 1.64235 7.35736 8.07675
165 3 2.8362 6.18975 6.17805
25 4 -0.137411 11.175 2.89652
27 4 2.59185 7.67896 6.80076
162 3 2.77425 9.31276 0.512231
44 2 0.550477 8.85849 6.22303
45 2 -1.62054 7.18843 6.4468
51 2 0.660004 7.14705 3.93987
60 2 -1.95699 11.4713 0.862432
61 2 -4.84715 10.3508 6.95056
170 3 2.00818 8.84756 5.81767
93 2 -1.16334 9.04177 1.99781
94 2 0.687129 8.85863 2.60706
95 2 0.329718 9.82415 1.02628
117 1 -2.29961 12.5484 0.488542
118 1 -5.11654 11.2131 7.62605
130 1 -0.0492116 9.47228 2.04319
142 3 -4.73053 12.0418 2.31936
143 3 -3.8552 10.0625 4.26135
144 3 -1.85973 9.85054 5.81779
145 3 -3.07343 12.125 5.91964
159 3 2.00713 6.8485 1.46905
160 3 0.427721 12.3649 1.6562
161 3 -1.59853 11.3944 3.53066
24 4 2.40213 7.83225 0.184347
1 4 -4.05115 13.1027 1.39415
69 2 -0.400249 6.10214 6.11953
246 2 -2.21232 13.1621 2.07192
5 4 -3.6841 6.0501 9.27171
6 4 -1.12244 5.77717 10.7113
10 4 -2.39651 7.69257 12.8393
11 4 -3.04349 10.4369 11.5105
20 4 1.42023 6.07229 9.13842
28 4 -1.03581 10.6891 9.21864
30 4 -0.983305 9.22648 14.9732
43 2 -3.64912 7.69131 8.7786
46 2 -3.81477 6.99228 13.5084
47 2 -5.11067 11.1526 10.8524
55 2 -2.06721 9.36146 16.3441
99 2 1.71112 7.84009 11.1056
263 2 -3.72516 6.87519 15.5173
252 2 -4.8838 10.6115 16.2742
72 2 -5.05063 11.4273 12.8434
92 2 1.95529 6.16379 14.2934
63 2 -4.64728 11.1165 8.6675
100 2 0.0298867 8.21341 11.9426
121 1 -4.56298 11.6099 11.9117
129 1 1.9146 5.25784 14.9917
132 1 1.10748 8.40584 11.9625
238 2 -4.12337 9.13247 16.3399
146 3 -1.73494 6.7087 11.8467
147 3 -2.9676 9.00533 12.1848
154 3 0.349005 6.24642 10.2848
267 2 0.148837 5.74899 15.5464
189 3 -5.41923 9.0468 13.8921
168 3 -2.50917 10.8422 10.0718
172 3 -1.3239 7.93675 14.1156
173 3 0.419968 9.15625 15.6062
174 3 -1.13308 10.6559 14.1297
175 3 0.199623 10.4319 10.3044
237 4 -5.39468 8.37804 15.3415
157 3 2.77417 5.83861 9.94867
16 4 -0.119778 11.69 13.6017
71 2 -2.76354 11.7751 12.66
101 2 1.5723 8.28346 12.979
167 3 -0.602249 11.9261 8.33239
253 2 -2.523 11.2309 16.4806
31 4 1.34567 10.2906 11.3764
54 2 3.11304 5.29065 15.8313
247 2 12.0091 2.92979 0.707654
264 2 8.99418 4.13133 1.90756
270 2 13.7529 0.148189 7.58117
73 2 9.66435 2.23769 1.74096
113 2 8.90323 5.9798 1.15493
265 2 10.5219 3.80995 0.53374
107 2 7.71042 4.18004 4.3615
122 1 9.49749 3.36127 1.20804
13 4 7.99827 2.55231 0.235152
134 1 7.74688 5.32886 4.5868
226 3 10.5231 5.18255 8.00144
152 3 6.70136 3.27821 0.714027
177 3 5.84574 5.23669 2.30489
192 4 12.9559 1.47709 3.4201
56 2 6.64698 5.18638 7.69271
194 4 8.16144 1.64395 3.91789
196 4 10.6554 1.52769 5.80399
197 4 9.73001 3.91397 7.4048
148 3 8.09306 0.9955 0.0433138
199 2 8.51316 3.04344 2.87603
200 2 8.82793 4.70925 6.11276
204 2 6.61745 4.2882 5.86157
205 2 6.65649 3.31622 7.47423
206 2 5.18008 4.35796 7.05796
214 1 5.94866 3.6405 6.62188
225 3 10.6819 2.8397 6.69451
219 3 12.6313 0.238095 2.42678
220 3 8.20181 0.471094 2.82181
221 3 6.74534 1.89049 4.5276
222 3 11.8217 1.55649 4.57739
223 3 9.29867 1.43079 5.00597
224 3 11.0416 0.085697 6.89027
106 2 8.64751 5.93767 4.15429
33 4 6.27602 6.0659 3.53952
198 2 12.823 2.90087 2.56673
105 2 7.50711 5.54036 5.70581
18 4 5.52397 4.27507 1.14365
22 4 4.73845 3.85465 13.0894
49 2 6.69592 -1.08868 15.0457
211 2 8.55901 1.92044 8.45241
77 2 6.61096 1.67722 10.1673
78 2 7.54757 0.355735 11.2414
79 2 7.31354 2.16849 11.8903
85 2 6.84636 3.41253 13.8363
249 2 7.87452 -0.187722 8.83222
216 1 13.3665 -0.422634 8.49845
124 1 6.89352 1.34063 11.2412
127 1 6.24883 4.44482 13.8768
158 3 4.52595 4.71697 11.6047
212 2 7.72001 3.5847 8.90009
207 2 11.6608 0.947635 10.1225
208 2 9.98468 -0.211855 10.2356
209 2 9.9039 1.49238 9.29435
210 2 9.46187 3.20635 9.61247
257 1 11.1194 2.65003 16.1694
215 1 10.6115 0.627128 9.66692
217 1 8.69277 2.99608 8.7069
232 4 12.1341 0.997621 15.9659
233 4 11.1013 -1.16177 13.7843
234 2 9.61175 -0.710597 13.1873
235 3 11.6344 -0.0760691 14.8503
256 2 10.0621 2.97135 15.8864
57 2 8.74088 4.86777 12.2803
248 2 8.08559 1.61363 15.9104
86 2 5.8904 4.66513 14.9114
269 2 13.574 0.172862 9.48209
195 4 11.3551 -0.459655 8.32755
261 1 8.24966 11.2723 4.67291
12 4 1.7323 13.1402 1.38318
32 4 5.99734 12.4612 1.48009
36 4 7.97002 8.21964 1.88556
135 1 7.62922 7.86222 8.14108
111 2 10.1007 7.43078 1.17442
96 2 3.61735 11.5768 4.07868
97 2 4.23356 10.4531 5.42541
98 2 4.13088 12.3602 5.71457
102 2 6.02037 10.0536 2.48616
103 2 4.39508 11.0469 2.49637
104 2 5.76002 11.543 3.67857
108 2 8.16241 7.28568 7.25187
250 2 4.58019 12.7255 0.558144
29 4 1.94878 10.8531 5.47593
114 2 5.11093 8.36918 6.36788
115 2 4.67106 7.75375 8.12164
116 2 4.23709 9.58147 7.57054
131 1 3.65974 11.4144 5.17557
133 1 5.4807 11.0798 2.67354
136 1 9.11834 7.04866 0.843194
137 1 4.33165 8.45835 7.21242
163 3 3.05368 12.2222 1.07943
178 3 4.93181 6.38133 4.57424
182 3 7.06832 7.36927 2.95864
183 3 8.91754 9.37251 2.65146
184 3 6.94733 8.99286 0.67653
185 3 7.06446 11.7168 0.582124
62 2 8.50093 11.2657 7.71474
258 2 8.68573 11.2612 5.81845
259 2 7.39345 10.4937 4.4786
260 2 7.9881 12.2841 4.32312
110 2 6.76521 8.48931 7.81412
171 3 1.34687 11.8375 6.5767
23 4 4.16075 5.99458 10.6276
26 4 1.77936 8.99723 16.3958
271 3 7.95072 8.41788 16.1127
109 2 8.33274 8.45247 8.73683
35 4 8.75393 6.11357 11.2213
38 4 4.09576 10.2825 9.83447
39 4 8.07243 8.91882 12.7485
40 4 6.51612 11.0856 11.4387
58 2 3.70429 8.79194 9.05484
59 2 6.67098 8.6642 13.7463
34 4 6.7898 6.32312 8.9259
88 2 3.00103 7.73652 12.0049
89 2 4.95431 7.97068 11.4415
90 2 4.50883 6.8542 13.0155
37 4 6.37385 8.40528 16.4419
180 3 10.262 5.93305 10.6142
128 1 4.13577 7.28756 12.0127
245 3 3.05959 9.08227 15.46
176 3 1.18291 11.1459 12.7724
179 3 5.33706 6.79246 9.41064
240 1 9.90112 6.57976 15.1688
236 3 5.90865 12.0055 12.5784
186 3 4.37748 11.3819 8.70865
187 3 2.78287 10.553 10.8489
188 3 8.48652 7.58969 11.8588
262 2 9.30281 5.99183 16.037
190 3 5.3813 10.1098 10.702
191 3 7.73752 10.2511 11.9569
241 4 4.29354 9.38327 14.5126
242 2 3.82917 9.05415 12.8898
243 3 5.48057 8.3478 14.7277
244 3 4.83679 10.936 14.5532
112 2 7.89175 5.33503 16.3411
268 2 7.61857 11.9615 8.56958
87 2 6.73348 5.43741 13.3977
239 2 9.85358 6.07387 14.1476
181 3 7.79568 5.75322 10.0164
251 2 7.21037 12.0848 10.2603
ITEM: TIMESTEP
200
ITEM: NUMBER OF ATOMS
271
ITEM: BOX BOUNDS xy xz yz pp pp pp
-7.2018999999999993e+00 1.4748699999999999e+01 -6.1971999999999996e+00
-1.8606000000000000e+00 1.3431800000000001e+01 -1.0046999999999999e+00
0.0000000000000000e+00 1.6592990400000001e+01 -1.8606000000000000e+00
ITEM: ATOMS id type x y z
3 4 0.597536 1.5317 5.23882
4 4 -0.213062 3.80706 7.31972
153 3 1.00347 4.60978 8.0866
21 4 3.6985 5.5682 4.95541
41 2 2.10706 1.89 4.48256
50 2 3.90628 3.18643 1.34562
52 2 4.28107 4.01928 5.29604
19 4 1.56194 6.16133 2.95233
67 2 -2.03672 5.76427 6.84235
68 2 -1.56392 4.8347 5.37545
2 4 1.94495 -0.593903 6.83493
82 2 -0.524813 5.66137 4.45754
83 2 -0.209363 4.83703 2.53135
125 1 3.72707 4.40762 0.175332
120 1 -1.17402 5.28475 6.30245
126 1 -0.237285 5.92011 3.29904
138 3 -0.450415 1.47038 4.1048
139 3 0.784911 0.124305 6.00831
140 3 0.195071 2.71226 6.20757
255 2 -2.4147 5.13482 0.688354
149 3 2.52974 0.31347 8.2252
155 3 2.6076 5.18255 3.81721
201 2 4.18886 1.9029 3.81658
202 2 3.60067 2.44075 5.56386
203 2 3.69109 0.524328 5.20974
193 4 5.84722 1.81056 5.72834
213 1 4.08134 1.63153 4.95467
14 4 6.74975 -0.614917 7.60549
227 4 1.48303 2.54556 0.441699
229 2 2.17666 3.92767 1.21731
230 3 1.6545 1.24256 1.26412
246 2 4.10001 -0.209478 2.03123
80 2 3.0684 5.20679 0.591639
66 2 -2.38616 3.45239 8.11205
74 2 3.75789 2.40216 7.71113
69 2 -0.247432 5.9582 6.19288
15 4 3.02919 1.15268 9.44117
231 3 -1.09403 0.951872 16.5216
17 4 5.24305 0.837828 11.9901
42 2 -1.08996 4.30165 11.2687
48 2 1.90992 2.34243 9.97591
65 2 -1.48766 1.7385 8.38726
64 2 -1.1138 3.2474 9.47888
70 2 1.77297 -0.613275 12.0392
119 1 -1.42425 2.92972 8.43602
75 2 4.16917 3.34042 9.37575
76 2 2.37097 3.60006 8.60567
156 3 4.70367 2.26298 12.9174
81 2 2.44076 2.25318 15.8027
91 2 1.89007 4.18792 14.8119
228 2 1.35436 0.408207 15.5986
123 1 3.34915 2.90489 8.75971
254 2 -2.75795 3.10042 15.3188
150 3 3.9669 0.766698 10.6378
151 3 5.49284 -0.417857 12.8781
53 2 3.43394 4.39143 14.0077
169 3 0.995953 10.8765 4.21008
166 3 -1.35179 9.2959 8.26209
8 4 -1.27211 8.87272 6.77734
9 4 -2.55768 10.9068 4.8401
7 4 -5.14935 10.6489 3.26652
164 3 1.64344 7.43073 8.16917
165 3 2.89782 6.34329 6.14037
25 4 -0.000487903 11.1496 2.97631
27 4 2.56662 7.77246 6.82129
162 3 2.87684 9.33525 0.677388
44 2 0.362739 8.80908 6.24795
45 2 -1.62399 7.1761 6.65848
51 2 0.78074 7.40956 3.95929
60 2 -1.8892 11.4581 0.836736
61 2 -4.74649 10.3956 6.60752
170 3 1.88587 8.86495 5.85105
93 2 -0.592605 8.75285 2.98805
94 2 0.990491 9.07077 1.96539
95 2 -0.660077 9.5963 1.24264
117 1 -2.20852 12.5145 0.52184
118 1 -5.02461 11.1882 7.38323
130 1 -0.056392 9.43397 2.15794
142 3 -4.65013 11.9547 2.26269
143 3 -3.90055 10.3165 4.31717
144 3 -2.03885 9.69272 5.69099
145 3 -3.13087 12.3504 5.82605
159 3 1.9908 6.70421 1.4984
160 3 0.396523 12.2951 1.52215
161 3 -1.41307 11.3294 3.57503
24 4 2.52317 7.77983 0.320681
1 4 -3.97651 13.0788 1.31663
84 2 -0.929322 6.66727 2.88818
167 3 -0.692807 12.0515 8.19232
5 4 -3.8071 6.22831 9.18965
6 4 -1.17467 5.88475 10.5957
10 4 -2.44642 7.73668 12.7426
11 4 -3.14569 10.5567 11.5075
20 4 1.42591 6.11481 9.09362
28 4 -1.10821 10.6614 9.19043
30 4 -0.932389 9.19656 14.8603
43 2 -3.85401 7.82044 8.64756
46 2 -3.92075 7.04527 13.4421
47 2 -5.27902 11.3179 11.1406
55 2 -2.03582 9.37869 16.2349
99 2 1.64845 7.85644 11.0127
263 2 -3.69274 6.58826 15.4174
252 2 -4.83474 10.827 16.1961
72 2 -4.9863 11.2804 13.0511
92 2 2.125 5.96753 14.1565
63 2 -4.41842 10.9975 8.33641
100 2 -0.0474778 8.20091 11.7274
121 1 -4.60519 11.6663 12.0569
129 1 1.95004 5.29406 15.0399
132 1 1.06204 8.39099 11.8169
238 2 -4.0496 9.03521 16.4429
146 3 -1.80307 6.71798 11.7537
147 3 -2.91642 9.10472 12.0818
154 3 0.239896 6.27238 10.0813
267 2 0.305696 5.66601 15.4765
189 3 -5.36534 9.21873 13.9007
168 3 -2.59422 10.8672 10.0199
172 3 -1.43215 7.99942 14.0259
173 3 0.509624 9.02443 15.5158
174 3 -1.13234 10.6926 14.0752
175 3 -0.0211185 10.5347 10.4535
237 4 -5.23375 8.28236 15.3609
157 3 2.80704 5.94759 9.98092
16 4 -0.126371 11.744 13.6113
71 2 -2.74545 11.6976 12.7701
101 2 1.37574 8.17074 12.887
141 3 -2.24827 5.78092 9.19025
253 2 -2.39418 11.1508 16.5112
31 4 1.24051 10.2648 11.3459
247 2 12.0753 2.91048 0.782837
264 2 9.1173 4.13811 2.01525
270 2 13.6367 0.384927 7.51218
73 2 9.77477 2.26422 1.90632
113 2 9.11842 6.03404 1.7286
265 2 10.5062 3.73432 0.732155
107 2 7.49983 4.19848 4.5773
122 1 9.55064 3.32574 1.3634
13 4 8.07428 2.44863 0.432359
134 1 7.71962 5.33122 4.69413
226 3 10.186 5.30017 7.9357
152 3 6.76285 3.16509 0.765476
177 3 5.82632 5.05161 2.47119
192 4 12.9176 1.52631 3.45932
56 2 6.69252 5.1547 7.5705
194 4 8.28273 1.52564 3.9201
196 4 10.7351 1.52862 5.72859
197 4 9.69954 3.90372 7.28977
148 3 8.10202 0.905176 0.0428462
199 2 8.77809 2.97184 3.16206
200 2 8.33543 4.23874 6.19336
204 2 6.41069 4.38613 5.95113
205 2 6.35378 3.27545 7.48118
206 2 4.83211 4.22852 7.11069
214 1 5.73 3.70952 6.66051
225 3 10.6898 2.94878 6.49933
219 3 12.5894 0.26029 2.4484
220 3 8.21972 0.364319 2.84171
221 3 6.91403 1.97496 4.52237
222 3 11.8829 1.58555 4.56684
223 3 9.38759 1.15861 4.98911
224 3 10.893 0.160143 6.9536
106 2 8.77923 5.5934 4.30188
33 4 6.26121 6.14155 3.58961
198 2 12.9249 2.98927 2.62295
105 2 7.56425 5.79932 5.70073
18 4 5.542 4.10685 1.20691
211 2 8.27936 2.22238 8.26264
218 3 6.3031 0.789895 6.90442
112 2 8.94705 6.7125 0.0221182
22 4 4.74452 3.82308 12.9587
49 2 6.87365 -1.1934 15.0556
266 2 4.20112 3.41652 16.3164
77 2 6.60681 1.36918 10.2032
78 2 7.61398 0.292841 11.444
79 2 7.4281 2.14607 11.7173
85 2 7.13071 3.60974 13.3414
249 2 7.87097 -0.164973 8.81988
216 1 13.3814 -0.309112 8.40732
124 1 6.93261 1.26242 11.2927
127 1 6.4166 4.43763 13.5187
158 3 4.58814 4.53539 11.5517
212 2 7.94211 3.89147 9.03338
207 2 11.7852 1.16051 9.92349
208 2 10.2138 0.120716 10.2977
209 2 9.95555 1.6547 9.24306
210 2 9.32458 2.82791 9.66901
257 1 11.1258 2.65215 16.37
215 1 10.7317 0.790899 9.60246
217 1 8.75389 3.09056 8.71052
232 4 12.1393 1.05303 15.9269
233 4 11.2119 -1.20343 13.7548
234 2 9.66096 -0.794857 13.1183
235 3 11.6796 0.00465773 14.7828
256 2 10.0982 2.72116 15.998
57 2 8.55446 5.02667 12.3331
248 2 8.146 1.53501 16.0264
86 2 6.39309 4.74791 14.5734
195 4 11.2946 -0.415878 8.33097
236 3 12.1853 -1.3162 12.5194
87 2 6.6873 5.26974 12.8495
269 2 13.5667 0.233938 9.38923
261 1 8.27663 11.2452 4.49233
12 4 1.76374 12.9892 1.46732
32 4 6.11434 12.3837 1.55559
36 4 7.93869 8.19519 1.87207
135 1 7.63952 7.9727 8.17814
111 2 10.1746 7.49668 1.20596
96 2 3.522 11.5813 3.99744
97 2 4.14906 10.2566 5.26737
98 2 4.03509 12.1851 5.71358
102 2 6.42943 10.2082 2.8214
103 2 4.6157 10.9723 2.54739
104 2 5.79055 11.6 3.95454
108 2 7.84516 7.6187 7.13564
250 2 4.57223 12.7801 0.896311
29 4 1.92085 10.8473 5.5432
114 2 4.91697 8.1265 6.31297
115 2 4.73313 7.68893 8.14934
116 2 4.32616 9.57496 7.54283
131 1 3.6605 11.289 5.05559
133 1 5.76737 11.1317 2.94412
136 1 9.23554 6.93566 1.07413
137 1 4.37127 8.4052 7.30531
163 3 3.05074 12.0741 1.18015
178 3 5.00023 6.44368 4.6785
182 3 7.00177 7.46336 2.9455
183 3 8.84925 9.38959 2.60523
184 3 6.95365 8.92987 0.681292
185 3 7.08145 11.6342 0.56367
62 2 8.58298 11.3608 7.5835
258 2 8.69862 11.2917 5.54439
259 2 7.43176 10.4801 4.39029
260 2 7.93541 12.2333 4.05524
110 2 6.73664 8.69557 8.22737
171 3 1.38352 11.8395 6.67529
268 2 7.58637 12.0384 8.22131
23 4 4.17697 5.95222 10.7078
26 4 1.8618 8.9471 16.4005
271 3 7.98736 8.29737 15.9535
109 2 8.48807 8.31649 8.80711
35 4 8.79483 6.20582 11.1407
38 4 4.11171 10.3886 9.86272
39 4 8.22063 8.89991 12.7678
40 4 6.62375 11.1111 11.3648
58 2 4.04336 8.88519 9.18476
59 2 6.80652 8.41802 13.6445
34 4 6.79421 6.37878 8.85656
88 2 2.97517 7.80467 11.9819
89 2 4.93614 8.02102 11.4365
90 2 4.56338 6.96352 13.0614
37 4 6.45389 8.35291 16.3985
180 3 10.2132 6.15285 10.615
128 1 4.17525 7.32579 12.0301
245 3 3.10051 9.17797 15.5035
176 3 1.11716 11.0782 12.7691
179 3 5.30287 6.60913 9.47699
240 1 9.91855 6.43172 15.0831
251 2 7.23146 12.1724 10.1181
186 3 4.52731 11.5012 8.66938
187 3 2.73147 10.5647 10.6117
188 3 8.51735 7.5764 11.9341
262 2 9.28799 5.89321 15.9927
190 3 5.40755 10.1495 10.7441
191 3 7.75734 10.1284 11.8956
241 4 4.35229 9.38349 14.597
242 2 3.74804 8.96113 13.0744
243 3 5.63332 8.25187 14.6772
244 3 4.71486 10.9443 14.5051
54 2 3.20091 5.35245 16.1356
181 3 7.6457 5.94518 10.0717
239 2 9.73916 6.00932 14.0707
ITEM: TIMESTEP
300
ITEM: NUMBER OF ATOMS
271
ITEM: BOX BOUNDS xy xz yz pp pp pp
-7.2018999999999993e+00 1.4748699999999999e+01 -6.1971999999999996e+00
-1.8606000000000000e+00 1.3431800000000001e+01 -1.0046999999999999e+00
0.0000000000000000e+00 1.6584685600000000e+01 -1.8606000000000000e+00
ITEM: ATOMS id type x y z
3 4 0.71411 1.58716 5.20202
4 4 -0.172228 3.8939 7.34776
153 3 0.90406 4.62267 8.16599
21 4 3.70477 5.56202 4.91447
41 2 2.31543 1.78566 4.477
50 2 4.08056 3.11255 1.58096
52 2 4.27147 4.08097 5.50508
19 4 1.61682 6.19053 2.84433
67 2 -1.9763 5.62012 7.0501
68 2 -1.76869 5.21062 5.26636
2 4 1.87713 -0.545049 6.92372
82 2 -0.585025 5.75459 4.36372
83 2 -0.258775 5.06059 2.47111
125 1 3.80606 4.33021 0.309645
120 1 -1.24241 5.35705 6.22156
126 1 -0.281224 6.06969 3.26174
138 3 -0.272124 1.53537 3.99959
139 3 0.770977 0.151603 6.10954
140 3 0.372799 2.72558 6.24747
80 2 3.10394 5.13056 0.683048
149 3 2.41242 0.206954 8.10584
155 3 2.64323 5.29052 3.68973
201 2 4.4603 1.58998 3.62955
202 2 3.69279 2.36872 5.34841
203 2 3.82084 0.319635 5.15756
74 2 3.72947 2.46279 7.66962
213 1 4.22243 1.40766 4.77827
14 4 6.71071 -0.734758 7.66321
227 4 1.47981 2.53602 0.335605
229 2 2.12656 3.88578 1.21977
230 3 1.80423 1.21619 1.08971
246 2 4.10001 -0.179585 2.11004
255 2 -2.0281 4.94054 0.66102
66 2 -2.28574 3.55731 8.1243
218 3 6.23504 0.498727 6.79273
15 4 2.87145 1.09795 9.30098
231 3 -0.960231 0.990238 16.4971
17 4 5.09018 0.784379 11.9002
42 2 -1.16555 4.44311 11.2322
48 2 1.66457 2.32253 9.72907
65 2 -1.38763 1.76117 8.42924
64 2 -0.856045 3.35344 9.50169
70 2 1.79676 -0.78134 12.9027
119 1 -1.29196 2.97021 8.52196
75 2 4.00416 3.29063 9.41693
76 2 2.28301 3.58984 8.48783
156 3 4.79475 2.23708 12.7877
81 2 2.51439 2.00781 15.9584
91 2 2.00143 4.00377 14.6641
228 2 1.40519 0.722552 15.5523
123 1 3.21274 2.86492 8.6895
254 2 -2.86184 3.11792 15.3393
150 3 3.87534 0.916629 10.5355
151 3 5.39665 -0.596995 12.8164
269 2 -1.01698 0.134615 9.35751
53 2 3.62166 4.34506 14.1464
169 3 0.998952 11.0146 4.1615
166 3 -1.56676 9.2867 8.1915
8 4 -1.2412 8.87439 6.80296
9 4 -2.62885 10.8852 4.81232
7 4 -5.13624 10.7129 3.17889
164 3 1.77254 7.43829 8.15647
165 3 3.01052 6.24556 6.18457
25 4 -0.138514 11.1305 2.94022
27 4 2.57415 7.68008 6.84137
162 3 2.92414 9.28089 0.568465
44 2 0.42401 8.89774 6.30966
45 2 -1.76158 7.22496 6.61375
51 2 0.864301 7.43295 3.93153
60 2 -1.86364 11.4147 0.9491
61 2 -4.71746 10.3472 6.88726
170 3 1.9269 8.92778 5.93729
93 2 -0.935451 8.81973 2.97821
94 2 0.702142 8.86247 2.21347
95 2 -0.750235 9.3486 1.21513
117 1 -2.20302 12.4425 0.581329
118 1 -5.06622 11.1899 7.56972
130 1 -0.307166 9.34148 2.24518
142 3 -4.67368 12.1225 2.34509
143 3 -3.84167 10.1554 4.00579
144 3 -2.04162 9.72955 5.78504
145 3 -3.0188 12.1853 5.78807
159 3 2.12236 6.80336 1.49286
160 3 0.341381 12.1038 1.67442
161 3 -1.62986 11.4164 3.65373
24 4 2.62412 7.71313 0.340335
1 4 -3.89841 13.1982 1.45248
84 2 -0.956203 6.90484 2.76547
69 2 -0.445959 6.14353 6.19425
31 4 1.27467 10.3549 11.28
6 4 -1.23824 5.9629 10.5117
10 4 -2.50492 7.7319 12.7215
11 4 -3.12909 10.4548 11.5255
20 4 1.42277 6.12003 9.08151
28 4 -1.17239 10.7603 9.17494
30 4 -0.953307 9.06735 14.9786
43 2 -3.90566 7.6823 8.48546
46 2 -3.93127 6.95396 13.446
47 2 -5.03428 11.6369 11.3058
55 2 -1.9732 9.3204 16.3787
99 2 1.83084 7.87265 11.0437
263 2 -3.9215 6.07164 15.1245
252 2 -4.6872 10.6593 16.2519
72 2 -4.95053 10.8606 13.1628
92 2 2.38975 5.73123 14.1908
63 2 -4.62764 11.2243 8.58852
100 2 0.117305 8.16143 11.539
121 1 -4.45369 11.6254 12.4407
129 1 1.96218 5.06895 15.0138
132 1 1.18914 8.50662 11.6865
238 2 -4.00355 8.99501 16.2825
146 3 -1.88622 6.87009 11.5871
147 3 -3.01932 9.03258 12.0325
154 3 0.23982 6.37359 10.1099
267 2 0.574624 5.47258 15.3024
189 3 -5.34079 9.10182 13.9975
168 3 -2.75755 10.8631 10.0138
172 3 -1.59141 7.94206 14.0227
173 3 0.608006 8.91441 15.4619
174 3 -1.03321 10.5361 14.3125
175 3 -0.00286502 10.5091 10.2474
237 4 -5.28481 8.23813 15.3483
157 3 2.77574 5.94952 9.93832
16 4 -0.108259 11.6687 13.7343
71 2 -2.54766 11.6339 12.6551
101 2 1.51347 8.47876 12.8119
141 3 -2.31055 5.87484 9.30243
253 2 -2.45906 11.1029 16.4926
167 3 -0.802603 12.0245 8.31464
247 2 12.2461 2.83353 0.751098
264 2 9.25141 4.00077 1.9422
270 2 13.5489 0.412257 7.51837
73 2 9.99097 2.15785 1.79903
113 2 8.54045 5.89803 1.71757
265 2 10.699 3.72586 0.726855
107 2 7.4953 4.07598 4.5572
122 1 9.71541 3.21454 1.27516
13 4 8.15986 2.40343 0.427991
134 1 7.76627 5.18018 4.61302
226 3 10.2765 5.2485 7.8599
152 3 6.80194 3.14195 0.74602
177 3 5.79062 5.00399 2.55077
192 4 12.9519 1.49834 3.49759
56 2 6.68678 5.14998 7.71426
194 4 8.32189 1.51825 3.88433
196 4 10.6517 1.40738 5.73658
197 4 9.58215 3.90127 7.29836
148 3 8.1292 0.895028 0.0884671