ITEM: TIMESTEP
0
ITEM: NUMBER OF ATOMS
271
ITEM: BOX BOUNDS xy xz yz pp pp pp
-7.2018999999999993e+00 1.4748699999999999e+01 -6.1971999999999996e+00
-1.8606000000000000e+00 1.3431800000000001e+01 -1.0046999999999999e+00
0.0000000000000000e+00 1.6609600000000000e+01 -1.8606000000000000e+00
ITEM: ATOMS id type q x y z
3 4 1.22985 0.918684 1.37658 5.5999
4 4 1.1403 -0.0229973 3.77292 7.48607
214 1 -0.699164 4.66349 2.99694 6.43153
21 4 1.22034 2.76544 5.62105 4.966
41 2 -0.00252945 2.56883 1.46643 5.13062
50 2 0.0174777 3.50097 2.81458 1.76176
52 2 0.00232018 3.15936 4.02029 5.69492
266 2 0.0177665 4.07074 5.12158 0.0847178
69 2 0.136888 -2.05889 5.45183 6.29809
82 2 0.123145 -0.882954 6.06849 1.87388
227 4 0.994709 1.28868 1.97439 0.511212
231 3 -0.805764 -0.174296 2.23066 0.080379
83 2 0.17215 -0.153443 4.34956 1.36133
84 2 0.158997 0.324244 5.83529 0.387976
120 1 -0.677529 -0.97178 5.32242 6.51184
126 1 -0.664855 0.0236897 5.42896 1.4217
138 3 -0.83419 0.0961609 1.3238 4.18125
139 3 -0.784639 0.729671 0.0150083 6.41863
140 3 -0.835747 0.652524 2.68867 6.49862
229 2 0.0349368 1.53359 3.20067 1.79039
14 4 1.35276 6.39561 -0.649807 7.58469
155 3 -0.778538 1.92683 5.33219 3.49752
201 2 0.179346 5.08489 0.596146 3.50158
202 2 0.122477 3.65304 1.79251 3.7357
203 2 0.256035 3.74569 0.0262069 4.8955
206 2 0.15009 3.63516 2.57398 6.31315
213 1 -0.67907 4.27455 0.936159 4.27601
218 3 -0.855444 5.97244 0.491178 6.63202
67 2 0.173966 -0.461075 4.91888 5.57158
193 4 1.12418 5.70929 1.55413 5.50215
230 3 -0.817072 1.89276 0.569299 1.06648
65 2 0.215452 -2.16366 3.04736 7.43824
268 2 0.266585 -0.463015 -0.264965 7.74459
18 4 1.00522 4.75818 4.01529 1.32057
125 1 -0.643271 2.70755 3.79707 0.351419
80 2 0.172095 1.78132 4.53757 0.763326
74 2 0.202437 2.59077 2.61095 8.20096
119 1 -0.663936 -1.42699 2.82344 8.26731
254 2 0.0863552 -1.9802 4.48439 0.388114
19 4 0.975479 1.30391 6.42323 2.45411
246 2 0.0346574 3.64116 -0.255129 2.79515
205 2 0.168648 4.98839 3.06177 7.44808
204 2 0.143139 4.7595 3.96496 5.97986
15 4 1.08304 3.46953 0.722443 9.59045
75 2 0.149515 4.28035 2.81663 9.11804
151 3 -0.791285 5.88253 -0.358239 12.9146
42 2 -0.0186338 -0.515033 4.27498 12.2228
48 2 -0.000549229 2.18558 1.38183 10.5876
71 2 0.165584 2.12024 -0.776155 11.4267
5 4 1.2135 -3.03905 5.57936 9.20137
66 2 0.185019 -1.53797 3.49953 9.19161
149 3 -0.815484 2.853 -0.17919 8.31373
141 3 -0.846993 -2.25331 5.10569 10.5556
76 2 0.211781 2.56788 3.17836 10.0232
153 3 -0.816071 0.857664 4.52346 8.63554
81 2 0.13935 1.9929 2.20433 15.8629
270 2 0.12985 -0.957302 0.19038 9.55149
91 2 0.163124 1.35584 4.88041 15.2768
123 1 -0.659535 3.06105 2.52949 9.26112
228 2 0.0337899 1.32253 0.528374 15.7278
150 3 -0.806064 4.75412 0.445555 10.3743
64 2 0.185791 -1.30037 1.63488 8.5086
167 3 -0.821639 -0.857185 11.713 8.1075
2 4 1.27071 -4.01198 12.4696 7.124
8 4 0.999392 -2.12377 8.7409 6.86919
9 4 1.39527 -2.55507 10.754 4.74866
253 2 0.169738 -1.54573 12.1534 1.03127
260 2 0.248079 -5.94641 12.4899 4.14701
166 3 -0.800326 -1.30832 9.0174 8.12375
25 4 1.34121 0.0372878 11.2172 3.26382
27 4 1.33587 1.74208 7.70796 7.02881
165 3 -0.826759 1.86535 6.378 5.98288
44 2 -0.0315775 -1.99087 7.02218 6.52149
45 2 -0.00980141 -3.71612 8.96944 7.36782
51 2 -0.00188883 0.146202 7.50755 3.08377
1 4 1.09054 -3.71603 12.6307 1.6476
63 2 0.159751 -5.78582 10.9654 7.67008
170 3 -0.796472 1.47586 9.16646 6.31122
93 2 0.165886 -0.832275 8.85611 2.65225
94 2 0.186479 1.04538 9.06739 3.17238
95 2 0.210998 0.446374 9.5925 1.43845
117 1 -0.654104 -2.46044 11.803 0.319168
118 1 -0.698779 -4.70992 10.6934 7.44236
130 1 -0.664706 0.179189 9.42325 2.5504
142 3 -0.828217 -4.54674 11.4547 2.16931
143 3 -0.79974 -4.05657 9.93131 4.34885
144 3 -0.819304 -1.81977 9.57697 5.56671
145 3 -0.820278 -3.20469 12.1953 5.77485
159 3 -0.765482 2.39962 7.21674 1.38216
160 3 -0.849017 0.50631 12.3242 2.10715
161 3 -0.855757 -1.59135 11.2923 3.548
68 2 0.192572 -0.451742 6.25815 6.97914
62 2 0.18318 -4.57768 9.95569 6.55824
169 3 -0.819538 1.07915 11.2445 4.57127
7 4 1.30813 -5.16812 10.4308 3.26189
24 4 1.05185 3.39806 8.07867 0.424431
43 2 -0.00384144 -1.79922 6.06726 8.12414
60 2 0.187359 -2.49322 10.6815 0.135011
238 2 0.0176528 -4.76912 9.16293 15.6476
252 2 0.139577 -3.70882 10.6624 15.9988
10 4 1.2597 -2.68205 7.79302 13.2305
11 4 1.16923 -3.18876 10.181 11.2936
154 3 -0.821045 0.220011 6.22346 10.7416
28 4 1.55269 -1.15074 10.4565 9.10301
30 4 1.29671 -1.00378 9.47049 14.9464
262 2 0.155294 -4.18135 6.87198 15.3893
46 2 0.0113035 -4.23556 7.05076 13.5834
47 2 0.0584856 -4.91698 10.5047 10.9439
129 1 -0.671435 2.17713 5.70127 15.2045
101 2 0.194537 1.71101 8.62506 12.8881
6 4 1.23981 -1.12155 5.66836 11.5153
20 4 1.46612 1.28214 5.87974 9.55738
164 3 -0.776978 1.21942 7.20333 8.5018
267 2 0.19832 1.95008 6.6095 14.6085
99 2 0.228468 1.77822 7.70135 11.2613
100 2 0.243745 0.180467 8.4699 11.7783
55 2 0.0295952 -1.80015 10.5649 16.0124
175 3 -0.825628 0.241 10.3848 10.1164
132 1 -0.67329 1.33225 8.57512 11.8603
72 2 0.161598 -2.98627 11.7614 12.8936
146 3 -0.824592 -1.72999 6.62301 12.645
147 3 -0.850083 -2.9239 8.99777 12.2346
121 1 -0.666376 -4.02485 11.7943 12.0852
180 3 -0.804649 -4.1059 6.76002 9.55541
157 3 -0.828346 2.8226 5.91231 10.1432
168 3 -0.882596 -2.47939 10.5288 9.95044
172 3 -0.836067 -2.14696 8.40475 14.6489
173 3 -0.871668 0.167315 8.92376 15.8052
174 3 -0.82853 -0.562045 10.5195 13.7656
70 2 0.172915 -5.01228 11.3433 12.5414
61 2 0.190104 -4.04226 10.4822 8.31581
211 2 0.164545 7.85356 1.9742 7.89785
113 2 0.159573 8.62715 6.6524 0.288116
256 2 0.160787 10.7176 3.50071 0.977244
73 2 0.150511 9.10191 2.77158 1.17239
105 2 0.181635 7.29943 4.29196 4.03142
257 1 -0.63179 11.9323 3.4868 1.37049
224 3 -0.764306 11.3567 -0.110984 6.65749
111 2 0.158919 8.41125 5.60342 1.87234
33 4 1.22841 5.58404 5.93522 3.76952
106 2 0.158533 6.18325 4.33619 5.67965
222 3 -0.844713 12.269 1.74145 4.91729
152 3 -0.815784 5.95973 3.25138 0.651491
177 3 -0.802481 5.09715 4.87333 2.60848
192 4 1.27648 13.3037 1.40191 3.77508
223 3 -0.83749 9.73365 0.796099 4.63728
194 4 1.26582 8.58701 1.64248 3.90146
196 4 1.49577 10.9073 1.21129 5.62245
197 4 1.0496 9.91314 3.45484 7.75394
56 2 -0.024439 6.5155 5.95603 6.5836
199 2 -0.047711 9.25722 3.11516 3.52833
200 2 0.0323234 8.35064 4.27717 7.20582
107 2 0.128505 7.57179 5.73696 5.24699
255 2 0.141226 11.9368 3.89385 2.46652
225 3 -0.836303 10.4305 2.40105 6.63924
247 2 0.0369401 12.0707 1.66917 1.43935
264 2 0.174632 8.69571 4.68016 0.777181
219 3 -0.814782 12.8516 0.112032 2.98023
220 3 -0.823458 8.32665 0.934261 2.52845
221 3 -0.788009 7.18182 1.96091 4.66026
134 1 -0.653319 6.78977 4.94578 4.85376
195 4 1.04759 11.6092 -0.681419 8.1497
122 1 -0.66299 8.77282 3.56055 0.350992
198 2 -0.00756615 13.1179 2.79945 2.74118
232 4 1.01393 12.9576 2.50629 0.00674294
22 4 0.986481 6.14025 3.84365 11.9938
148 3 -0.8303 6.34097 -0.999588 16.4551
251 2 -0.0194932 13.2892 -0.677006 10.5562
77 2 0.155835 7.76 1.51068 9.87929
49 2 0.0649329 7.3252 -1.37796 15.0588
79 2 0.14212 8.335 0.929218 11.6241
53 2 0.033565 6.39072 4.45975 13.7152
86 2 0.155487 8.6614 4.56608 13.3936
226 3 -0.861469 10.8144 4.51775 8.43745
124 1 -0.680137 7.60965 0.659557 10.7632
127 1 -0.646798 7.85839 4.73726 12.6162
158 3 -0.784788 5.20746 4.92436 11.1533
17 4 1.23418 5.92571 0.7124 11.6123
207 2 0.137836 11.551 1.11713 9.58273
208 2 0.180276 10.2512 -0.216658 10.231
209 2 0.187593 9.90083 0.855408 8.64651
210 2 0.0876221 9.17493 2.54368 9.51866
13 4 1.03327 6.17397 0.584085 16.6027
215 1 -0.681311 10.6468 0.379832 9.33849
249 2 0.0240186 6.78835 0.252998 9.03409
78 2 0.173496 7.78383 -0.424347 10.3925
233 4 1.18334 11.0988 -0.952522 14.0007
234 2 -0.0145101 9.8126 -0.435225 13.0307
235 3 -0.764045 11.2127 0.265887 15.2382
85 2 0.0613319 7.96152 3.90715 11.2618
265 2 0.141457 8.34712 1.57937 15.9666
248 2 0.0107821 6.77008 1.47607 15.2435
156 3 -0.770986 5.66816 2.33195 12.1596
216 1 -0.669273 13.5569 -0.447678 8.61667
236 3 -0.800254 12.4268 -0.994824 13.0416
217 1 -0.664595 8.18847 2.9121 8.4835
212 2 0.156456 7.28809 3.50304 8.85227
108 2 0.233479 5.86886 9.51264 7.92387
54 2 0.117336 5.1015 7.82376 0.926981
32 4 1.05678 5.86608 12.2459 2.20086
36 4 1.19803 7.46418 7.92305 2.10317
136 1 -0.666916 8.65535 6.63939 1.42854
110 2 0.172121 7.76029 9.04363 7.71253
96 2 0.246506 3.95494 11.8352 5.28707
97 2 0.172901 3.87839 9.9261 5.02228
98 2 0.251129 4.2332 10.7307 6.75997
102 2 0.197506 5.98935 10.1077 3.37039
103 2 0.162175 4.29337 10.9752 3.27033
104 2 0.19661 5.65225 11.5107 4.67155
259 2 0.206291 7.33116 11.293 4.20455
109 2 0.139839 6.4821 8.61171 6.33596
261 1 -0.643094 8.45731 11.4631 4.47032
114 2 0.201248 4.21503 7.21369 7.11943
178 3 -0.799618 4.12669 6.34831 4.74625
116 2 0.193458 3.7415 9.11454 6.78314
131 1 -0.671287 3.68104 10.8157 5.70874
133 1 -0.673458 5.41682 11.0732 3.61477
171 3 -0.803171 1.44125 11.9028 7.02509
137 1 -0.630522 3.57445 8.1175 7.44064
163 3 -0.827181 2.9169 12.537 0.781412
250 2 0.104554 4.47184 12.7902 1.32448
182 3 -0.814135 6.4571 7.14932 3.08217
183 3 -0.75316 8.51079 9.17367 2.77899
184 3 -0.812918 6.44739 8.62139 0.602257
185 3 -0.794285 6.49212 11.2868 1.10363
258 2 0.2194 8.75345 11.2578 5.50552
112 2 0.162632 9.66167 7.06968 1.89427
135 1 -0.663184 6.63249 8.78062 7.5129
162 3 -0.811291 3.07161 9.61766 0.617556
34 4 0.935233 6.6244 6.9907 7.97525
37 4 1.50372 6.88348 10.0326 0.00539576
29 4 1.40529 1.7627 10.7973 5.91849
12 4 1.42106 1.64887 13.2373 1.37082
23 4 1.29678 4.36897 6.16914 10.4434
26 4 1.45784 1.67022 9.0659 16.3292
263 2 0.153814 9.3653 6.01152 14.277
239 2 0.175746 9.04665 6.22156 16.1535
35 4 1.20759 9.12774 6.83619 10.0231
38 4 1.26074 4.34136 10.3712 9.92154
39 4 1.18911 7.86228 8.74641 11.9566
40 4 1.2354 6.4026 11.5998 11.6875
58 2 0.0333982 4.95439 8.74088 9.97797
59 2 -0.00545568 6.54273 7.727 11.6998
240 1 -0.685839 9.50723 6.6729 15.2153
88 2 0.132772 3.2137 8.05899 11.6516
89 2 0.146209 5.18877 8.67713 11.664
90 2 0.144997 4.73836 6.99988 12.5513
237 4 1.07972 8.62312 8.32796 15.0922
271 3 -0.788893 7.52129 8.3399 16.1782
128 1 -0.67631 4.53158 7.74674 11.613
176 3 -0.829461 1.62298 11.3734 12.563
245 3 -0.857395 2.61987 9.25154 15.0591
179 3 -0.744247 5.22422 6.67647 9.15295
269 2 0.128753 7.34303 11.819 8.93572
181 3 -0.798769 7.93425 6.76085 8.88815
186 3 -0.802664 4.80713 10.9373 8.48974
187 3 -0.837871 2.76418 10.3581 10.0999
188 3 -0.826034 8.90891 8.20761 10.8557
189 3 -0.814588 8.37373 8.52555 13.4684
190 3 -0.903101 5.08582 11.0341 11.1012
191 3 -0.819412 7.3319 10.2969 11.7452
241 4 1.2693 4.11982 9.4964 14.514
242 2 0.00442196 4.09058 9.21731 12.8785
243 3 -0.822186 5.08437 8.37849 15.1873
244 3 -0.81997 4.57194 11.0232 14.6753
87 2 0.141196 7.70814 5.81759 12.3805
115 2 0.205519 3.49986 8.29151 8.54594
31 4 1.33624 1.47371 10.3176 11.0205
16 4 1.23676 0.501196 11.7515 13.5319
57 2 -0.00385051 8.77326 5.47504 11.0822
92 2 0.137822 3.23689 5.32096 15.0693
ITEM: TIMESTEP
100
ITEM: NUMBER OF ATOMS
271
ITEM: BOX BOUNDS xy xz yz pp pp pp
-7.2287635999999997e+00 1.4748699999999999e+01 -6.1971999999999996e+00
-1.8606000000000000e+00 1.3431800000000001e+01 -1.0315636000000001e+00
0.0000000000000000e+00 1.6609600000000000e+01 -1.8606000000000000e+00
ITEM: ATOMS id type q x y z
3 4 1.20276 0.917312 1.37654 5.53965
4 4 1.11701 -0.0293961 3.78818 7.52748
214 1 -0.687528 4.77279 3.1888 6.25188
21 4 1.21739 2.91581 5.68103 4.91011
41 2 -0.0188156 2.60733 1.29554 5.19366
50 2 0.0189975 3.62531 2.66597 1.65352
52 2 0.0151136 3.11547 4.10436 5.64084
254 2 0.0950615 -2.02216 4.49401 0.149825
69 2 0.128607 -2.07249 5.05382 6.90977
82 2 0.141989 -0.81772 5.92716 1.62449
227 4 0.996225 1.32082 1.85532 0.595437
231 3 -0.799328 -0.255014 2.11384 0.286661
83 2 0.160907 0.202983 4.29817 1.83492
84 2 0.157444 0.493319 5.52951 0.288799
120 1 -0.689681 -1.02466 5.42586 6.56551
126 1 -0.65745 0.136005 5.41012 1.40537
138 3 -0.845294 0.0699724 1.37044 4.16258
139 3 -0.779195 0.602441 0.0349502 6.38892
140 3 -0.792757 0.710636 2.71316 6.50489
229 2 0.0207974 1.86873 2.96709 1.88847
14 4 1.27613 6.34147 -0.680643 7.6759
155 3 -0.79278 1.96923 5.42153 3.58519
201 2 0.200354 5.25908 0.445106 3.52993
202 2 0.122099 3.57822 1.58976 3.84767
203 2 0.247603 3.80327 -0.0488698 4.85885
206 2 0.151421 3.74357 2.72558 6.51669
213 1 -0.668923 4.33215 0.844547 4.25574
218 3 -0.807178 6.01061 0.523116 6.60263
67 2 0.184222 -0.835928 5.44673 5.50954
193 4 1.12697 5.65716 1.61695 5.49267
230 3 -0.81697 1.90411 0.444054 0.938561
65 2 0.175117 -2.17374 3.19792 7.81761
268 2 0.256249 -0.464538 -0.239316 7.83481
18 4 0.978521 4.82421 3.99116 1.27205
125 1 -0.654976 2.75859 3.65533 0.359463
80 2 0.167912 1.80434 4.42311 0.730443
266 2 0.0189163 4.04604 5.06592 0.0951031
149 3 -0.766832 2.74548 -0.0997165 8.24959
15 4 1.05883 3.40223 0.718041 9.59695
75 2 0.184243 4.29584 2.92063 9.31756
151 3 -0.793692 5.58464 -0.373502 12.8372
42 2 -0.0328288 -0.82472 4.41915 12.4184
48 2 -0.017336 2.1392 1.29004 10.5436
71 2 0.132769 1.59027 -1.09058 11.4223
5 4 1.20939 -3.13472 5.6082 9.26817
66 2 0.185603 -1.27475 3.19443 9.54277
150 3 -0.840466 4.7076 0.473427 10.3581
141 3 -0.854012 -2.32209 5.16631 10.5807
76 2 0.170814 2.72342 2.92291 10.4492
153 3 -0.789894 0.890413 4.43186 8.67304
81 2 0.145124 2.12984 1.93783 15.9525
270 2 0.143105 -0.743145 0.136137 9.64701
74 2 0.223555 2.45542 2.79983 8.55532
123 1 -0.655537 3.20331 2.59474 9.43168
228 2 0.0328416 1.1372 0.566203 15.667
119 1 -0.651994 -1.2634 2.76319 8.51029
64 2 0.193032 -1.19788 1.56168 8.41871
167 3 -0.806043 -1.03884 11.7147 7.93807
2 4 1.20365 -4.15489 12.4195 6.99215
8 4 0.957042 -2.24965 8.63317 7.00465
9 4 1.40427 -2.52205 10.5705 4.78481
253 2 0.158938 -1.66108 12.0583 0.992762
260 2 0.230769 -5.78573 12.5068 4.07891
166 3 -0.7466 -1.29645 8.91936 8.23422
25 4 1.35766 0.0489405 11.2295 3.16193
27 4 1.34593 1.89752 7.60953 7.00607
165 3 -0.857239 2.07889 6.37125 5.99318
44 2 -0.0203462 -2.26454 6.98475 6.56176
45 2 -0.0104207 -3.825 9.03788 7.46704
51 2 -0.00651154 0.25376 7.62889 3.0961
1 4 1.07244 -3.78726 12.55 1.61749
63 2 0.159068 -5.87107 11.3063 8.04787
170 3 -0.779306 1.39683 9.17719 6.47296
93 2 0.15299 -0.590512 8.94153 2.56521
94 2 0.199421 1.28685 9.0448 2.81329
95 2 0.214249 0.52005 9.68344 1.2043
117 1 -0.667747 -2.56122 11.9463 0.176803
118 1 -0.69802 -4.90255 10.8119 7.64677
130 1 -0.666984 0.38405 9.49684 2.34704
142 3 -0.757286 -4.79173 11.4475 1.9531
143 3 -0.82175 -3.82242 9.79343 4.0479
144 3 -0.789787 -1.7698 9.46958 5.6961
145 3 -0.805696 -3.17658 11.9771 5.75241
159 3 -0.767724 2.36616 7.09441 1.47639
160 3 -0.878675 0.421397 12.3218 2.00738
161 3 -0.839189 -1.45357 11.3001 3.6969
68 2 0.208898 -0.464724 6.20565 7.12707
62 2 0.155916 -5.24882 9.97565 7.03125
169 3 -0.814922 1.02351 11.0583 4.54222
29 4 1.41136 1.57977 10.7094 5.99681
24 4 1.0152 3.48791 8.16347 0.591549
43 2 -0.000764444 -1.89134 6.1914 8.22955
19 4 1.0113 1.32163 6.45606 2.46915
246 2 0.019779 -2.78611 13.0521 2.94891
238 2 0.0331023 -5.05254 9.90419 15.5696
252 2 0.160795 -3.6975 10.9176 15.9973
10 4 1.27133 -2.61124 7.76717 13.204
11 4 1.16008 -3.40238 10.1096 11.277
154 3 -0.806127 0.198047 6.17996 10.6604
28 4 1.48635 -1.06338 10.4538 9.0342
30 4 1.31098 -1.04412 9.60751 15.042
262 2 0.131028 -4.0658 6.98765 15.652
46 2 -0.0171183 -3.86281 6.74078 13.7771
47 2 0.0703639 -5.11445 10.5213 10.9974
129 1 -0.657151 2.21273 5.92855 15.3879
101 2 0.183196 1.78845 8.45266 12.9253
6 4 1.22988 -1.11559 5.68803 11.5037
20 4 1.47376 1.28489 5.97108 9.48902
164 3 -0.797304 1.19326 7.19342 8.41425
267 2 0.196409 2.35333 6.84092 14.7077
99 2 0.224901 1.87653 7.78922 11.1782
100 2 0.268652 0.257729 8.30927 11.9722
55 2 0.0238473 -1.87003 10.7971 16.0496
175 3 -0.819882 0.267361 10.4515 10.0961
132 1 -0.694046 1.36941 8.48294 11.8941
72 2 0.1966 -2.92902 11.9877 12.5092
146 3 -0.826871 -1.50182 6.80878 12.5885
147 3 -0.809799 -3.22542 8.85759 12.1935
121 1 -0.685058 -4.02012 11.6509 12.1932
180 3 -0.802211 -4.14266 6.87232 9.55198
157 3 -0.841703 2.81997 5.97747 10.0858
168 3 -0.817774 -2.44515 10.4123 10.0638
172 3 -0.830966 -2.07908 8.58971 14.4718
173 3 -0.871173 0.152443 8.97964 15.8368
174 3 -0.828803 -0.536542 10.4068 13.7502
70 2 0.180383 -4.71766 11.2197 12.9719
16 4 1.20031 0.330281 11.7209 13.4258
92 2 0.125771 3.10627 5.15951 15.328
91 2 0.181745 1.23841 5.45992 15.2482
60 2 0.1564 -3.72863 9.03605 16.3778
61 2 0.181995 -4.21359 10.5573 8.53475
205 2 0.150377 5.3577 3.3889 7.25186
13 4 1.04832 7.32256 2.41176 0.079157
256 2 0.167606 10.8811 3.60359 0.910656
73 2 0.123143 9.1247 2.8445 1.33962
105 2 0.184403 7.14983 4.36546 4.33326
257 1 -0.644982 12.0474 3.63211 1.21984
224 3 -0.769836 11.3681 -0.219384 6.53965
111 2 0.159409 8.71776 5.85949 2.14419
33 4 1.2712 5.64967 6.09455 3.69731
106 2 0.158015 6.19824 4.77488 5.86542
222 3 -0.844045 12.277 1.57219 4.89841
152 3 -0.808447 6.05999 3.1981 0.640141
177 3 -0.800922 5.26346 4.98358 2.46754
192 4 1.28715 13.3218 1.28898 3.69795
223 3 -0.82871 9.60887 0.912171 4.67626
194 4 1.25207 8.47434 1.67123 3.89263
196 4 1.48747 10.9666 1.15438 5.66291
197 4 0.972516 9.83781 3.37095 7.77063
113 2 0.177063 8.09018 6.20977 0.426665
199 2 -0.0457291 9.08569 3.14894 3.51979
200 2 0.0394877 8.14972 3.97149 7.16535
107 2 0.154593 7.58235 5.98362 5.261
255 2 0.159706 12.2361 4.11987 2.16796
225 3 -0.825055 10.5159 2.34881 6.66586
247 2 0.0174667 11.9479 1.72527 1.3118
264 2 0.175385 8.90666 4.59223 0.408963
219 3 -0.825119 12.9599 0.0604172 2.80971
220 3 -0.853122 8.11225 0.935918 2.49881
221 3 -0.787664 7.05695 2.01751 4.6188
134 1 -0.668475 6.78816 5.2319 4.9878
195 4 1.04728 11.6297 -0.607373 8.13037
122 1 -0.675046 8.99832 3.45296 0.225896
198 2 0.00266612 12.9714 2.58756 2.57603
204 2 0.145426 4.87201 4.09988 5.57053
22 4 0.988992 6.23288 3.86957 11.9318
148 3 -0.827145 6.32514 -1.01728 16.4371
251 2 0.0071341 13.3684 -0.690295 10.6509
77 2 0.163238 7.74088 1.40248 10.0718
49 2 0.0593469 7.07533 -1.27238 14.9672
79 2 0.171844 8.30474 0.776621 11.7124
53 2 0.0394198 6.19836 4.60841 13.597
86 2 0.161132 8.51919 4.43775 13.5432
226 3 -0.839526 10.7441 4.49071 8.5307
124 1 -0.659232 7.60902 0.570275 10.8907
127 1 -0.642993 7.81215 4.78559 12.7654
158 3 -0.801035 5.26821 4.89774 11.1581
17 4 1.31476 5.79734 0.672417 11.5712
207 2 0.147394 11.2377 1.33023 9.31002
208 2 0.199235 10.3269 -0.0566538 10.238
209 2 0.165235 9.50042 0.544328 8.63876
210 2 0.114811 8.86973 2.31636 9.029
212 2 0.166381 7.9056 3.9402 9.38063
215 1 -0.675405 10.536 0.396035 9.2349
249 2 0.00276063 6.89954 0.0594384 9.11012
78 2 0.195757 7.77796 -0.457065 10.5108
233 4 1.24572 11.0121 -0.953616 14.0644
234 2 -0.00211946 9.67708 -0.538637 13.08
235 3 -0.814144 11.1426 0.126641 15.1977
85 2 0.0531034 8.03102 4.07257 11.2299
265 2 0.156596 8.80091 1.24677 16.0955
248 2 0.0192431 6.91923 1.30832 15.2202
156 3 -0.791078 6.04738 2.18492 11.9587
216 1 -0.678403 13.6139 -0.456478 8.77347
236 3 -0.791298 12.3629 -1.03182 13.0908
217 1 -0.676299 7.98883 3.05019 8.72407
232 4 1.02458 11.9461 0.542611 16.5876
211 2 0.165148 7.02627 2.49423 8.5807
108 2 0.221759 5.97534 9.48847 8.01394
54 2 0.0938705 5.09461 8.03128 1.15623
32 4 1.06925 5.90863 12.2316 2.01605
36 4 1.24268 7.61425 8.01049 2.06849
136 1 -0.668834 8.64116 6.60026 1.3117
110 2 0.172421 7.68722 9.04191 7.54946
96 2 0.244076 3.46902 11.957 5.27459
97 2 0.159833 3.84899 10.0584 5.13038
98 2 0.282582 4.05263 11.0119 6.91929
102 2 0.201624 5.92736 10.2562 3.71476
103 2 0.153345 4.2151 11.2262 3.21917
104 2 0.222133 5.5595 11.979 4.42067
259 2 0.219943 7.37873 11.4186 4.11559
109 2 0.167218 6.26654 8.40242 6.44828
261 1 -0.653172 8.52073 11.4984 4.38993
114 2 0.204393 4.3959 7.27537 6.90123
178 3 -0.812695 4.35809 6.45591 4.61977
116 2 0.190174 3.87239 9.22077 6.78901
131 1 -0.630876 3.55205 10.9786 5.83876
133 1 -0.670999 5.43388 11.2604 3.57276
171 3 -0.796971 1.431 11.8021 7.1486
137 1 -0.649335 3.76648 8.10537 7.28878
163 3 -0.848188 2.94833 12.4447 1.00112
250 2 0.0989546 4.47577 12.8576 1.29469
182 3 -0.780917 6.52985 7.36279 3.27688
183 3 -0.790824 8.559 9.10704 2.80354
184 3 -0.761869 6.66355 8.40887 0.611881
185 3 -0.822113 6.53175 11.2271 0.970985
258 2 0.185961 8.77349 11.2617 5.50518
112 2 0.156618 9.67718 6.98169 0.964838
135 1 -0.676796 6.6175 8.74398 7.48628
162 3 -0.804153 3.09944 9.67177 0.716718
34 4 1.0125 6.66798 6.94319 8.23322
7 4 1.25756 9.52501 10.3048 3.33264
56 2 -0.00967984 6.4659 6.21627 6.70844
12 4 1.43647 1.62736 13.2171 1.44263
23 4 1.29506 4.37956 6.11076 10.3592
26 4 1.43119 1.64067 9.14176 16.4034
263 2 0.156234 9.53288 6.07907 14.4237
239 2 0.176695 8.86421 6.37379 16.1514
35 4 1.21401 9.09865 6.94285 10.1056
38 4 1.27583 4.32348 10.4713 9.90065
39 4 1.18041 7.69587 8.77975 11.9828
40 4 1.21973 6.33675 11.536 11.735
58 2 0.0125049 5.01419 8.90867 9.95605
59 2 -0.0124541 6.4781 7.56246 11.7914
240 1 -0.680704 9.57016 6.76897 15.2825
88 2 0.146082 3.29473 8.11355 11.639
89 2 0.116776 5.20968 8.78664 11.754
90 2 0.128181 4.87318 6.88758 12.3866
237 4 1.09969 8.75441 8.42815 15.0214
271 3 -0.793526 7.49838 8.39501 15.9855
128 1 -0.650287 4.55345 7.85693 11.541
176 3 -0.816048 1.50513 11.5143 12.3926
245 3 -0.85246 2.67704 9.31214 15.1367
179 3 -0.807719 5.33013 6.56015 9.18498
269 2 0.142175 7.32619 11.8137 9.02289
181 3 -0.840411 8.02085 6.73637 8.93776
186 3 -0.80897 4.86222 11.0341 8.50655
187 3 -0.828081 2.7919 10.2537 10.1996
188 3 -0.821762 8.79593 8.33149 10.8805
189 3 -0.803096 8.29435 8.62263 13.5296
190 3 -0.890968 4.9057 11.3202 11.0278
191 3 -0.856776 7.31399 10.312 11.6629
241 4 1.26741 4.13352 9.49589 14.5287
242 2 -0.00650999 3.90412 9.18599 12.8385
243 3 -0.836313 5.16596 8.40585 15.1293
244 3 -0.838884 4.55428 11.052 14.6613
87 2 0.143846 7.85812 5.89947 12.7134
115 2 0.192943 3.88749 8.21475 8.39189
31 4 1.33792 1.44427 10.2191 11.0847
37 4 1.51224 5.99308 8.26623 16.4833
57 2 -0.0160601 8.76194 5.65568 11.3138
ITEM: TIMESTEP
200
ITEM: NUMBER OF ATOMS
271
ITEM: BOX BOUNDS xy xz yz pp pp pp
-7.2556272000000002e+00 1.4748699999999999e+01 -6.1971999999999996e+00
-1.8606000000000000e+00 1.3431800000000001e+01 -1.0584272000000006e+00
0.0000000000000000e+00 1.6609600000000000e+01 -1.8606000000000000e+00
ITEM: ATOMS id type q x y z
3 4 1.21886 0.897814 1.42708 5.51028
4 4 1.13954 0.00587555 3.81702 7.52799
214 1 -0.653563 4.95471 3.09677 5.95883
21 4 1.2194 2.96767 5.69873 4.8985
41 2 -0.0168452 2.52518 1.31409 4.90959
50 2 0.0131711 3.57285 3.06202 2.01505
52 2 -0.00615326 3.29162 4.0458 5.43053
254 2 0.113947 -1.84921 4.43781 0.457375
69 2 0.136825 -2.05427 5.24887 6.45242
82 2 0.140929 -0.504903 6.17082 1.2231
227 4 0.958433 1.39258 1.8766 0.62759
231 3 -0.791768 -0.186794 2.10374 0.32566
83 2 0.165449 0.241763 4.51304 1.82762
84 2 0.146331 0.842488 5.32603 0.106757
120 1 -0.680078 -0.944254 5.43752 6.56904
126 1 -0.664683 0.380127 5.47899 1.20917
138 3 -0.852694 -0.0410071 1.55499 4.23495
139 3 -0.794882 0.607775 0.123961 6.37085
140 3 -0.791928 0.653123 2.78005 6.44585
229 2 0.0225246 1.8153 3.08618 1.85711
14 4 1.33038 6.2011 -0.751997 7.7368
155 3 -0.787936 1.99004 5.4761 3.57321
201 2 0.174576 5.18454 0.154795 3.62143
202 2 0.125274 3.78203 1.51206 3.61492
203 2 0.23914 3.50097 -0.14506 4.83516
206 2 0.128759 3.89223 2.53597 6.05774
213 1 -0.669055 4.25013 0.694947 4.26524
218 3 -0.855521 5.76242 0.319409 6.68135
67 2 0.197959 -0.38294 5.46322 5.60402
193 4 1.16137 5.73613 1.31095 5.46748
230 3 -0.815626 1.92663 0.422152 1.1205
198 2 0.0179254 -1.46594 2.73595 2.58153
268 2 0.272577 -0.564597 -0.12375 7.63596
18 4 0.978259 4.93191 4.02736 1.296
125 1 -0.658109 2.94262 3.70353 0.407801
80 2 0.166368 1.9656 4.39415 0.608024
204 2 0.156797 4.97439 3.89863 5.14468
149 3 -0.795239 2.68629 -0.0799114 8.29415
65 2 0.186661 -2.23631 3.14867 8.29682
15 4 1.09023 3.32358 0.718545 9.5157
75 2 0.157063 4.16645 2.77753 8.97258
151 3 -0.789326 5.62392 -0.271655 12.8147
42 2 -0.0355487 -0.467287 4.55622 12.5727
48 2 -0.00919802 2.19905 1.33522 10.6188
71 2 0.14292 1.37123 -1.12358 11.7343
5 4 1.16872 -3.1135 5.60018 9.42084
66 2 0.173624 -0.833748 3.15338 9.60482
150 3 -0.813965 4.63527 0.402662 10.324
141 3 -0.815981 -2.45067 5.05068 10.7948
76 2 0.213183 2.6907 3.11586 10.1098
153 3 -0.803358 1.01761 4.46355 8.5726
81 2 0.136821 2.30564 1.8415 15.9495
270 2 0.130676 -1.21414 0.343627 9.44742
74 2 0.228636 2.33707 2.61729 8.33063
123 1 -0.671236 3.02683 2.55224 9.22784
228 2 0.0185107 1.43953 0.440674 15.8967
119 1 -0.663572 -1.15921 2.80879 8.56596
64 2 0.175177 -1.21918 1.57677 8.52337
72 2 0.192311 3.01153 -1.22876 12.5296
91 2 0.15686 1.67701 4.88051 15.4144
266 2 0.0279173 3.16572 3.15437 16.5126
167 3 -0.840396 -1.01866 11.6538 8.27681
2 4 1.2229 -4.11815 12.468 6.98489
8 4 0.992064 -2.29908 8.6477 6.9645
9 4 1.45563 -2.6102 10.486 4.69785
253 2 0.163641 -1.57627 11.8894 0.900577
260 2 0.217273 -6.05888 12.0495 4.60919
166 3 -0.754509 -1.32859 8.87147 8.1832
25 4 1.32661 0.0481462 11.1575 3.12122
27 4 1.35376 1.89162 7.71986 7.02488
165 3 -0.825695 2.12687 6.55056 5.88006
44 2 -0.0132184 -2.16313 7.00604 6.63179
45 2 -0.0137355 -3.92473 8.89999 7.39726
51 2 0.0185048 0.631037 7.74924 3.13607
1 4 1.07911 -3.66099 12.5177 1.62387
63 2 0.150663 -5.80892 11.2064 7.96177
170 3 -0.75272 1.39945 9.13022 6.36125
93 2 0.167606 -0.516043 8.78037 2.67228
94 2 0.208845 1.42279 9.2451 2.46728
95 2 0.200517 0.113638 9.65787 1.1782
117 1 -0.675713 -2.55722 11.7695 0.213494
118 1 -0.666888 -4.73459 10.8217 7.65286
130 1 -0.6764 0.301378 9.4845 2.25055
142 3 -0.797986 -4.653 11.3039 2.01745
143 3 -0.849578 -3.81016 9.90395 3.87269
144 3 -0.826108 -1.94222 9.40956 5.65289
145 3 -0.827542 -3.29683 11.9741 5.7118
159 3 -0.827984 2.58285 7.27912 1.5637
160 3 -0.840305 0.337663 12.482 1.98557
161 3 -0.831085 -1.48508 11.0034 3.59251
68 2 0.200461 -0.62764 6.2167 7.35332
62 2 0.138849 -4.73034 10.2329 6.57008
169 3 -0.806067 1.0367 11.1443 4.41939
29 4 1.34302 1.68529 10.8345 5.91139
246 2 0.0276391 -2.46696 12.9037 2.82529
19 4 1.03972 1.49827 6.49892 2.38353
24 4 1.10343 3.47606 8.20165 0.661474
43 2 0.00141166 -1.8101 5.92353 8.23686
238 2 0.0124781 -4.9151 9.81138 15.3262
252 2 0.140064 -3.61994 10.7143 16.0054
10 4 1.26956 -2.58264 7.79503 13.1811
11 4 1.1542 -3.51328 10.1989 11.3008
154 3 -0.822384 0.139325 5.97614 10.5068
28 4 1.54103 -1.14172 10.3432 9.20756
30 4 1.2789 -1.08006 9.58797 15.0157
262 2 0.153683 -4.08894 7.02118 15.2683
46 2 -0.00975723 -3.94246 6.79758 13.5207
47 2 0.0624079 -5.22457 10.5301 11.1915
129 1 -0.664164 2.41443 5.76274 15.452
101 2 0.190757 1.37096 8.81847 12.9711
6 4 1.18689 -1.08792 5.69968 11.5415
20 4 1.4604 1.34976 5.87058 9.45377
164 3 -0.797532 1.24937 7.14631 8.42733
267 2 0.187849 2.08841 6.65809 14.7465
99 2 0.193378 1.82236 7.5941 11.5948
100 2 0.285692 0.218754 8.33622 11.5283
55 2 0.0111385 -1.94277 10.717 15.9892
175 3 -0.859099 0.107338 10.2315 10.2141
132 1 -0.664412 1.26574 8.52301 11.808
61 2 0.20228 -4.13874 10.3752 8.5133
146 3 -0.823837 -1.5053 7.02348 12.3623
147 3 -0.793209 -3.19227 8.90164 12.2266
121 1 -0.692001 -4.14988 11.6562 12.3391
180 3 -0.778618 -4.04568 7.02519 9.5935
157 3 -0.809362 2.96235 5.80293 10.142
168 3 -0.825456 -2.60029 10.4676 10.0724
172 3 -0.834504 -2.05686 8.34902 14.6274
173 3 -0.878323 0.0985533 9.13449 15.9376
174 3 -0.837786 -0.66416 10.5356 13.7473
70 2 0.164856 -4.60563 11.2168 13.3616
16 4 1.24137 0.221517 11.7802 13.3829
60 2 0.180405 -3.66635 8.83943 16.4962
205 2 0.156299 5.34778 3.448 6.94159
13 4 1.05728 7.42344 2.50181 0.000924553
256 2 0.180807 11.0186 3.54754 0.910375
73 2 0.127046 9.20155 2.69931 1.32239
105 2 0.168279 7.3762 4.52416 4.10272
257 1 -0.65406 12.0557 3.56699 1.30464
224 3 -0.767664 11.4308 -0.227767 6.51658
111 2 0.167122 8.15017 5.55273 2.12112
33 4 1.27948 5.67429 6.14866 3.72523
106 2 0.166512 6.58087 4.69874 5.82403
222 3 -0.853359 12.0029 1.60754 4.54503
152 3 -0.818785 6.17445 3.18954 0.650673
177 3 -0.792665 5.34796 5.07692 2.43819
192 4 1.29139 13.294 1.34502 3.61863
223 3 -0.800287 9.50169 0.830917 4.83371
194 4 1.29656 8.50158 1.65241 3.95227
196 4 1.45302 10.9286 1.14815 5.65302
197 4 0.959703 9.82078 3.29267 7.99537
113 2 0.169907 8.43933 6.33793 0.459424
199 2 -0.0433933 9.1265 3.19912 3.67809
200 2 0.0406948 8.34912 4.1584 7.35175
232 4 1.01938 12.9699 2.29991 0.054655
255 2 0.148384 12.0394 3.9308 2.40261
225 3 -0.803236 10.3645 2.21374 6.8489
247 2 0.0111554 11.8615 1.64143 1.28545
264 2 0.163214 8.95599 4.60001 0.654125
219 3 -0.847396 12.9787 0.0692074 2.70089
220 3 -0.873872 8.27028 1.01848 2.58658
221 3 -0.798331 7.0996 1.8841 4.77504
134 1 -0.666303 6.98363 5.25364 4.89481
195 4 1.0462 11.5682 -0.598748 8.10316
122 1 -0.65757 9.14438 3.44345 0.202672
12 4 1.4338 7.83 -0.0578535 1.45504
136 1 -0.675124 8.64876 6.4171 1.53632
211 2 0.162727 7.20151 2.11903 8.23147
22 4 0.98212 6.19659 3.94128 11.861
148 3 -0.841001 6.52484 -0.885158 16.419
251 2 -0.0250257 13.397 -0.932848 10.5188
77 2 0.151415 7.72601 1.42394 10.0491
49 2 0.0664744 7.10856 -1.15905 14.8575
79 2 0.171405 8.23744 0.483763 11.7362
53 2 0.0648106 6.59137 4.38827 13.6782
86 2 0.160197 8.77992 4.49807 13.2079
226 3 -0.829267 10.7675 4.46059 8.68643
124 1 -0.671607 7.56916 0.474584 10.846
127 1 -0.648711 7.85538 4.83598 12.6976
158 3 -0.801613 5.13547 5.04205 11.2884
17 4 1.27423 5.7923 0.777121 11.5003
207 2 0.131276 11.2857 1.20345 9.57608
208 2 0.209215 10.1 -0.296793 10.0864
209 2 0.184412 9.59763 0.927631 8.63525
210 2 0.0987097 8.78577 2.48236 9.36728
212 2 0.156331 7.32034 3.81941 9.17602
215 1 -0.667006 10.457 0.410759 9.2081
249 2 9.4297e-05 6.88579 0.157341 9.00653
78 2 0.17226 7.53033 -0.533981 10.3759
233 4 1.26297 11.1128 -0.988079 14.1741
234 2 -0.00202642 9.76464 -0.472972 13.2941
235 3 -0.822117 11.2674 0.154143 15.2026
85 2 0.0396154 7.9225 3.99306 11.1116
265 2 0.164723 9.02743 1.42062 16.1309
248 2 0.022795 7.09161 1.44302 15.2453
156 3 -0.7969 5.88255 2.31226 11.9606
216 1 -0.674362 13.4861 -0.411576 8.58538
236 3 -0.779118 12.3204 -0.970023 13.0987