ITEM: TIMESTEP
0
ITEM: NUMBER OF ATOMS
271
ITEM: BOX BOUNDS xy xz yz pp pp pp
-7.2018999999999993e+00 1.4748699999999999e+01 -6.1971999999999996e+00
-1.8606000000000000e+00 1.3431800000000001e+01 -1.0046999999999999e+00
0.0000000000000000e+00 1.6609600000000000e+01 -1.8606000000000000e+00
ITEM: ATOMS id type x y z
3 4 0.736041 1.47106 5.27706
4 4 -0.0904608 3.79605 7.39247
153 3 1.09035 4.5373 8.2278
21 4 3.76084 5.47438 4.94447
41 2 2.26069 1.83228 4.45094
50 2 3.78943 3.4183 1.57808
52 2 4.28745 3.88001 5.4635
19 4 1.64687 5.9835 2.85531
67 2 -1.52302 5.77324 7.2012
68 2 -1.7285 4.68522 5.63721
2 4 1.94183 -0.702232 6.91927
82 2 -0.536429 5.38203 4.33069
83 2 0.0991389 4.42252 2.5752
125 1 3.60041 4.49309 0.241644
120 1 -1.02207 5.32208 6.32444
126 1 -0.190718 5.50803 3.21246
138 3 -0.362144 1.43361 4.08493
139 3 0.879504 0.136174 6.10575
140 3 0.423674 2.70009 6.27821
246 2 3.8517 -0.151955 2.3087
149 3 2.52405 0.189596 8.27069
155 3 2.73474 5.15212 3.64594
201 2 4.09507 1.53204 3.97016
202 2 3.62077 2.29707 5.67231
203 2 3.78947 0.308779 5.39235
193 4 5.86408 1.77098 5.82215
213 1 4.1088 1.39096 5.08267
14 4 6.80852 -0.815399 7.64799
227 4 1.28597 2.41278 0.407127
229 2 1.9594 3.83663 1.09129
230 3 1.68115 1.24593 1.30498
84 2 -0.888842 6.14615 2.5374
80 2 3.06859 5.43286 0.635195
69 2 -0.369003 6.0462 5.84555
15 4 3.01654 1.11458 9.43064
231 3 -1.20747 0.754735 16.5369
17 4 5.14527 0.843564 11.8835
42 2 -0.738506 4.29117 11.447
48 2 1.72536 2.08754 10.0332
65 2 -1.24408 1.6037 8.61772
64 2 -0.60639 3.15607 9.70083
70 2 1.75666 -0.936598 11.9795
119 1 -1.07657 2.81188 8.6928
75 2 3.68092 3.49746 10.118
76 2 2.46677 3.60912 8.70074
53 2 3.28949 4.16798 14.0833
81 2 2.07749 2.17348 16.078
91 2 1.76457 4.194 14.8905
228 2 1.34218 0.518633 15.6909
123 1 3.2826 2.93037 9.19595
254 2 -2.7499 2.95479 15.5372
150 3 4.01397 0.752409 10.5899
151 3 5.33232 -0.492048 12.7332
141 3 -2.18693 5.36005 9.73006
66 2 -2.08505 3.42317 8.44437
74 2 4.15692 2.74543 8.34835
169 3 0.975408 11.1581 3.98829
166 3 -1.14456 9.23879 8.29175
8 4 -1.038 8.87268 6.74716
9 4 -2.55415 10.8131 4.81834
7 4 -5.22699 10.7114 3.29962
164 3 1.70547 7.51303 8.03302
165 3 3.04266 6.16646 6.16156
25 4 -0.130681 11.3038 2.82803
27 4 2.65945 7.57619 6.78577
162 3 2.63587 9.33581 0.603838
44 2 0.631239 8.78108 6.2795
45 2 -1.48197 7.26312 6.47698
51 2 0.758007 6.99018 3.99477
60 2 -2.19454 11.3327 0.855161
61 2 -4.76355 10.4329 6.96352
170 3 2.06365 8.89221 5.83309
93 2 -1.22213 9.26103 1.92425
94 2 0.630353 9.14548 2.42775
95 2 0.153703 9.92157 0.702045
117 1 -2.4348 12.4335 0.724384
118 1 -5.27866 11.2472 7.62327
130 1 -0.154051 9.69217 1.79058
142 3 -4.74638 12.0085 2.37808
143 3 -3.94696 10.2422 4.25193
144 3 -1.68886 9.79842 5.76186
145 3 -3.11557 12.0422 5.90903
159 3 1.97646 6.81392 1.36385
160 3 0.268328 12.4447 1.57064
161 3 -1.60223 11.4632 3.6275
24 4 2.42659 7.88033 0.17682
253 2 -1.63128 12.8924 0.196495
1 4 -4.09371 13.1942 1.69925
171 3 1.23825 11.5892 6.60606
167 3 -0.663055 12.0202 8.30271
5 4 -3.72887 6.02139 9.39906
6 4 -1.07905 5.7491 10.7571
10 4 -2.43793 7.63901 12.8792
11 4 -3.00252 10.3653 11.4914
20 4 1.49297 6.14264 9.09539
28 4 -0.978406 10.6036 9.24024
30 4 -1.04655 9.28589 14.9728
43 2 -3.59204 7.66156 8.92863
46 2 -3.744 6.89276 13.805
47 2 -5.16382 11.1136 10.892
55 2 -2.32427 9.42888 16.1539
99 2 1.57019 7.6019 11.2545
263 2 -3.94478 6.49646 15.7157
252 2 -4.74454 10.7945 16.3841
72 2 -5.09877 10.9006 12.8762
92 2 1.7276 5.71328 14.0838
63 2 -4.88658 11.1097 8.70479
100 2 -0.0302037 8.40167 11.7874
121 1 -4.60207 11.4005 11.9044
129 1 1.92512 5.26003 15.0451
132 1 1.10127 8.38852 11.9272
238 2 -4.24944 9.08319 16.3881
146 3 -1.78156 6.59465 11.8766
147 3 -2.8623 8.98347 12.1598
154 3 0.309851 6.28521 10.0955
267 2 0.191 5.97911 15.4919
189 3 -5.46708 8.96616 13.8393
168 3 -2.39319 10.7145 10.0551
172 3 -1.36144 7.9846 14.1749
173 3 0.426201 9.14156 15.5579
174 3 -1.14388 10.6219 14.0107
175 3 0.354323 10.3965 10.3558
237 4 -5.45563 8.30214 15.3877
157 3 2.88912 5.91125 9.89485
16 4 -0.174393 11.7799 13.6031
71 2 -2.83595 11.7529 12.5449
101 2 1.46614 8.37936 13.024
247 2 12.0078 2.78035 0.822891
264 2 8.96656 4.09675 1.83135
270 2 13.5775 0.0813916 7.37687
73 2 9.68066 2.23625 1.84869
113 2 8.53828 5.97757 1.42604
265 2 10.4411 3.56717 0.584358
107 2 7.25679 4.31554 4.55327
122 1 9.44693 3.21527 1.2163
13 4 7.86205 2.4978 0.348503
134 1 7.5344 5.38905 4.82458
226 3 10.322 5.29697 8.12551
152 3 6.52568 3.28819 0.532866
177 3 5.69542 5.18359 2.44276
192 4 12.9133 1.57305 3.56422
56 2 6.71815 5.05042 7.51095
194 4 8.30271 1.60648 3.97646
196 4 10.6856 1.52587 5.79382
197 4 9.74676 4.00029 7.39741
218 3 6.39843 0.589604 6.93741
199 2 8.62612 3.04332 3.03742
200 2 8.63198 4.48237 6.17614
204 2 6.3833 4.26242 6.01863
205 2 6.20439 3.0602 7.7146
148 3 7.87407 1.0089 0.0130674
214 1 5.64029 3.62467 6.78957
225 3 10.7469 2.87645 6.78346
219 3 12.5673 0.38765 2.56385
220 3 8.32784 0.457308 2.91612
221 3 6.92557 1.95725 4.62088
222 3 11.8743 1.59252 4.70139
223 3 9.35084 1.40451 5.07093
224 3 10.8543 -0.00698124 6.84233
106 2 8.58733 5.61024 4.64807
33 4 6.22606 6.27624 3.60969
198 2 12.7001 3.04068 2.76413
105 2 7.21677 5.79273 5.79116
18 4 5.3934 4.2766 1.19217
255 2 12.1555 4.96564 0.733512
195 4 11.1824 -0.583206 8.26284
211 2 8.57906 2.11988 8.20763
206 2 4.762 4.17951 7.16069
22 4 4.67373 3.81819 13.0979
49 2 6.62744 -0.849516 14.9251
269 2 13.4155 0.167894 9.29656
77 2 6.59836 1.09755 10.1193
78 2 7.62371 0.528946 11.7168
79 2 6.9458 2.31903 11.5708
85 2 6.87463 3.61413 14.0926
249 2 7.852 -0.430745 8.85041
216 1 13.2605 -0.449981 8.33861
124 1 6.84482 1.23378 11.2439
127 1 6.18935 4.51906 13.8511
158 3 4.54752 4.57648 11.3932
212 2 7.6535 3.64871 8.88826
207 2 11.5539 0.835384 10.0538
208 2 9.79126 -0.143103 10.1583
209 2 9.82665 1.55471 9.28735
210 2 9.32082 3.1472 9.69448
257 1 11.0878 2.51508 16.3708
215 1 10.5059 0.605817 9.56587
217 1 8.66975 3.12484 8.73937
232 4 12.0937 0.833008 16.0316
233 4 11.0521 -1.12598 13.8586
234 2 9.61056 -0.590634 13.2503
235 3 11.5748 -0.102464 14.8926
256 2 10.093 2.70334 15.8873
57 2 8.34868 5.18952 12.7204
248 2 7.95437 1.56 15.9264
236 3 11.9738 -1.37919 12.5925
156 3 4.89424 2.27858 12.9552
266 2 3.9536 3.63477 16.3401
86 2 5.63714 5.01079 14.8052
87 2 6.62139 5.24525 13.1002
261 1 8.21371 11.2615 4.58709
12 4 1.74121 13.1841 1.47875
32 4 5.90087 12.519 1.67333
36 4 7.81349 8.36282 1.79065
135 1 7.75883 7.77748 8.2613
111 2 9.98546 7.16616 1.19468
96 2 3.24656 11.937 3.89797
97 2 4.04281 10.3838 4.95998
98 2 3.90036 12.1979 5.76564
102 2 5.86565 10.1134 2.17379
103 2 4.17554 11.123 2.55362
104 2 5.79432 11.3056 3.75675
108 2 8.13756 7.59463 7.24427
250 2 4.47146 12.9389 0.772483
29 4 1.85935 10.8441 5.35119
114 2 5.08221 8.27977 6.16602
115 2 4.85625 7.63411 8.08532
116 2 4.21757 9.41461 7.473
131 1 3.54056 11.4353 4.97833
133 1 5.34406 11.0796 2.71035
136 1 8.86933 6.9655 0.959438
137 1 4.47439 8.33485 7.1523
163 3 3.07889 12.0951 1.15636
178 3 5.1002 6.34827 4.76664
182 3 6.86971 7.63068 2.96648
183 3 8.82586 9.45605 2.5034
184 3 6.91131 9.07993 0.621033
185 3 7.03455 11.836 0.696931
62 2 8.33387 11.1365 7.5547
258 2 8.64759 11.2756 5.65527
259 2 7.32971 10.602 4.43215
260 2 7.9285 12.2614 4.22251
110 2 6.84845 8.54765 8.20338
23 4 4.26759 6.01168 10.6168
26 4 1.78005 8.98349 16.4353
271 3 7.91719 8.48384 16.0225
109 2 8.57495 8.25757 8.94531
35 4 8.62839 6.16387 11.2862
38 4 4.17539 10.2515 9.7998
39 4 8.02183 8.85205 12.715
40 4 6.44786 11.1602 11.4596
58 2 3.9298 8.73347 9.00696
59 2 6.62888 8.38973 13.5809
34 4 6.85582 6.25042 8.81021
88 2 3.00887 7.8015 11.9159
89 2 4.80619 8.31416 11.4573
90 2 4.53707 6.92247 12.755
37 4 6.33098 8.56264 16.3915
180 3 10.0658 5.89279 10.6548
128 1 4.13365 7.48857 11.8119
245 3 3.01589 9.0846 15.3889
176 3 1.1467 11.2285 12.8485
179 3 5.40269 6.69137 9.37164
240 1 9.71028 6.46683 15.2747
54 2 3.2163 5.53924 15.6224
186 3 4.46576 11.4271 8.73584
187 3 2.876 10.4454 10.8005
188 3 8.22577 7.69729 11.6711
262 2 8.97328 5.87556 16.0616
190 3 5.45588 10.1859 10.7256
191 3 7.58919 10.2181 12.0098
241 4 4.2415 9.3669 14.4666
242 2 3.719 9.12744 12.7943
243 3 5.41075 8.3572 14.7548
244 3 4.57672 10.9098 14.6436
112 2 7.54394 5.14398 16.4969
268 2 7.42378 11.9026 8.34666
251 2 7.06925 12.0216 10.0693
239 2 9.74822 5.95089 14.2496
181 3 7.59527 5.62506 10.2073
31 4 1.37338 10.2803 11.4877
ITEM: TIMESTEP
100
ITEM: NUMBER OF ATOMS
271
ITEM: BOX BOUNDS xy xz yz pp pp pp
-7.1982990500000010e+00 1.4741325650000000e+01 -6.1941014000000010e+00
-1.8606000000000000e+00 1.3431800000000001e+01 -1.0041976500000001e+00
0.0000000000000000e+00 1.6609600000000000e+01 -1.8606000000000000e+00
ITEM: ATOMS id type x y z
3 4 0.666202 1.53125 5.23816
4 4 -0.180042 3.80274 7.37053
153 3 1.02135 4.62402 8.24011
21 4 3.70849 5.49078 5.00924
41 2 2.20485 1.94013 4.53595
50 2 4.0192 3.21971 1.30623
52 2 4.36616 3.98968 5.614
19 4 1.64503 6.10216 2.88477
67 2 -2.01241 5.40774 7.07985
68 2 -1.48084 4.74936 5.37396
2 4 1.98409 -0.685462 6.92918
82 2 -0.513106 5.49151 4.45207
83 2 0.218051 4.39854 2.74218
125 1 3.72088 4.61397 0.106184
120 1 -1.14793 5.28919 6.34583
126 1 -0.168376 5.56431 3.29275
138 3 -0.37283 1.60921 4.06698
139 3 0.871233 0.104445 5.96441
140 3 0.283197 2.72579 6.31258
255 2 -2.21449 5.18156 0.395841
149 3 2.52297 0.261935 8.2013
155 3 2.67702 5.2252 3.73047
201 2 4.11696 1.93154 4.09489
202 2 3.60651 2.20935 5.98552
203 2 3.67899 0.460032 5.25235
193 4 5.85852 1.7188 5.79432
213 1 4.05276 1.51494 5.14784
14 4 6.72972 -0.656727 7.71384
227 4 1.37668 2.45147 0.467216
229 2 2.13716 3.86066 1.05338
230 3 1.77334 1.24209 1.38583
84 2 -0.796714 6.22846 2.66949
80 2 2.99997 5.33252 0.589363
218 3 6.23175 0.639579 6.89395
74 2 4.12736 2.69812 8.13706
231 3 -0.140741 2.71953 0.0152688
15 4 3.17207 1.1576 9.45136
266 2 3.76831 3.31579 16.209
17 4 5.21692 0.876731 11.9035
42 2 -0.951695 4.20166 11.4114
48 2 1.89341 2.10485 10.1197
65 2 -1.14539 1.63427 8.45775
64 2 -0.758967 3.08098 9.60404
70 2 1.83259 -0.703767 11.7405
119 1 -1.15043 2.8279 8.61389
75 2 3.94243 3.43655 9.97686
76 2 2.41975 3.65314 8.76793
53 2 3.51684 4.71448 14.0529
81 2 2.18325 2.01526 15.9024
91 2 1.86453 4.29579 14.4363
228 2 1.30071 0.522051 15.6697
123 1 3.34417 2.97299 9.15431
254 2 -2.80603 2.96331 15.0658
150 3 4.26249 0.780379 10.5547
151 3 5.47934 -0.442358 12.7825
141 3 -2.09647 5.60448 9.48163
66 2 -2.16476 3.34788 8.31923
156 3 4.59917 2.26479 13.0817
169 3 1.062 10.9823 4.00789
166 3 -1.30598 9.2028 8.22241
8 4 -1.12977 8.85642 6.71873
9 4 -2.62429 10.9004 4.91271
7 4 -5.26166 10.6243 3.39843
164 3 1.64153 7.35736 8.08079
165 3 2.83478 6.18975 6.18114
25 4 -0.137342 11.175 2.89797
27 4 2.59055 7.67896 6.80416
162 3 2.77287 9.31276 0.512487
44 2 0.550202 8.85849 6.22615
45 2 -1.61973 7.18843 6.45002
51 2 0.659674 7.14705 3.94184
60 2 -1.95601 11.4713 0.862863
61 2 -4.84473 10.3508 6.95404
170 3 2.00718 8.84756 5.82058
93 2 -1.16276 9.04177 1.99881
94 2 0.686785 8.85863 2.60836
95 2 0.329553 9.82415 1.02679
117 1 -2.29846 12.5484 0.488787
118 1 -5.11398 11.2131 7.62987
130 1 -0.049187 9.47228 2.04421
142 3 -4.72816 12.0418 2.32052
143 3 -3.85328 10.0625 4.26348
144 3 -1.8588 9.85054 5.8207
145 3 -3.07189 12.125 5.9226
159 3 2.00613 6.8485 1.46978
160 3 0.427507 12.3649 1.65702
161 3 -1.59773 11.3944 3.53243
24 4 2.40093 7.83225 0.18444
1 4 -4.04912 13.1027 1.39485
69 2 -0.400049 6.10214 6.12259
246 2 -2.21121 13.1621 2.07295
5 4 -3.68226 6.0501 9.27635
6 4 -1.12188 5.77717 10.7167
10 4 -2.39531 7.69257 12.8457
11 4 -3.04197 10.4369 11.5163
20 4 1.41952 6.07229 9.14299
28 4 -1.03529 10.6891 9.22325
30 4 -0.982813 9.22648 14.9807
43 2 -3.6473 7.69131 8.783
46 2 -3.81286 6.99228 13.5152
47 2 -5.10812 11.1526 10.8579
55 2 -2.06618 9.36146 16.3522
99 2 1.71027 7.84009 11.1111
263 2 -3.7233 6.87519 15.525
252 2 -4.88136 10.6115 16.2823
72 2 -5.0481 11.4273 12.8498
92 2 1.95431 6.16379 14.3005
63 2 -4.64495 11.1165 8.67183
100 2 0.0298717 8.21341 11.9486
121 1 -4.5607 11.6099 11.9176
129 1 1.91364 5.25784 14.9992
132 1 1.10693 8.40584 11.9685
238 2 -4.12131 9.13247 16.348
146 3 -1.73407 6.7087 11.8526
147 3 -2.96611 9.00533 12.1908
154 3 0.34883 6.24642 10.2899
267 2 0.148763 5.74899 15.5542
189 3 -5.41652 9.0468 13.899
168 3 -2.50792 10.8422 10.0768
172 3 -1.32324 7.93675 14.1227
173 3 0.419758 9.15625 15.614
174 3 -1.13252 10.6559 14.1368
175 3 0.199524 10.4319 10.3095
237 4 -5.39198 8.37804 15.3491
157 3 2.77279 5.83861 9.95364
16 4 -0.119718 11.69 13.6085
71 2 -2.76216 11.7751 12.6663
101 2 1.57151 8.28346 12.9855
167 3 -0.601948 11.9261 8.33656
253 2 -2.52173 11.2309 16.4889
31 4 1.345 10.2906 11.3821
54 2 3.11148 5.29065 15.8392
247 2 12.0031 2.92979 0.708008
264 2 8.98968 4.13133 1.90851
270 2 13.746 0.148189 7.58496
73 2 9.65952 2.23769 1.74183
113 2 8.89878 5.9798 1.15551
265 2 10.5166 3.80995 0.534007
107 2 7.70656 4.18004 4.36368
122 1 9.49274 3.36127 1.20865
13 4 7.99427 2.55231 0.23527
134 1 7.74301 5.32886 4.5891
226 3 10.5178 5.18255 8.00544
152 3 6.69801 3.27821 0.714384
177 3 5.84281 5.23669 2.30604
192 4 12.9494 1.47709 3.42181
56 2 6.64365 5.18638 7.69656
194 4 8.15736 1.64395 3.91985
196 4 10.6501 1.52769 5.80689
197 4 9.72514 3.91397 7.4085
148 3 8.08901 0.9955 0.0433354
199 2 8.5089 3.04344 2.87747
200 2 8.82351 4.70925 6.11581
204 2 6.61414 4.2882 5.8645
205 2 6.65316 3.31622 7.47797
206 2 5.17749 4.35796 7.06149
214 1 5.94568 3.6405 6.62519
225 3 10.6766 2.8397 6.69786
219 3 12.625 0.238095 2.42799
220 3 8.19771 0.471094 2.82322
221 3 6.74196 1.89049 4.52987
222 3 11.8158 1.55649 4.57968
223 3 9.29402 1.43079 5.00847
224 3 11.0361 0.085697 6.89372
106 2 8.64318 5.93767 4.15637
33 4 6.27288 6.0659 3.5413
198 2 12.8166 2.90087 2.56802
105 2 7.50336 5.54036 5.70866
18 4 5.5212 4.27507 1.14423
22 4 4.73609 3.85465 13.096
49 2 6.69258 -1.08868 15.0532
211 2 8.55473 1.92044 8.45664
77 2 6.60765 1.67722 10.1724
78 2 7.5438 0.355735 11.247
79 2 7.30988 2.16849 11.8962
85 2 6.84294 3.41253 13.8433
249 2 7.87058 -0.187722 8.83663
216 1 13.3598 -0.422634 8.5027
124 1 6.89008 1.34063 11.2468
127 1 6.24571 4.44482 13.8837
158 3 4.52368 4.71697 11.6105
212 2 7.71615 3.5847 8.90454
207 2 11.655 0.947635 10.1276
208 2 9.97969 -0.211855 10.2407
209 2 9.89894 1.49238 9.299
210 2 9.45714 3.20635 9.61728
257 1 11.1138 2.65003 16.1775
215 1 10.6062 0.627128 9.67176
217 1 8.68843 2.99608 8.71126
232 4 12.128 0.997621 15.9739
233 4 11.0958 -1.16177 13.7912
234 2 9.60695 -0.710597 13.1939
235 3 11.6286 -0.0760691 14.8577
256 2 10.0571 2.97135 15.8944
57 2 8.73651 4.86777 12.2864
248 2 8.08154 1.61363 15.9184
86 2 5.88745 4.66513 14.9189
269 2 13.5672 0.172862 9.48683
195 4 11.3495 -0.459655 8.33172
261 1 8.24553 11.2723 4.67525
12 4 1.73143 13.1402 1.38387
32 4 5.99435 12.4612 1.48083
36 4 7.96604 8.21964 1.8865
135 1 7.62541 7.86222 8.14515
111 2 10.0957 7.43078 1.17501
96 2 3.61554 11.5768 4.08072
97 2 4.23145 10.4531 5.42813
98 2 4.12881 12.3602 5.71743
102 2 6.01736 10.0536 2.4874
103 2 4.39288 11.0469 2.49761
104 2 5.75714 11.543 3.68041
108 2 8.15833 7.28568 7.2555
250 2 4.5779 12.7255 0.558424
29 4 1.9478 10.8531 5.47867
114 2 5.10838 8.36918 6.37107
115 2 4.66872 7.75375 8.1257
116 2 4.23497 9.58147 7.57433
131 1 3.65791 11.4144 5.17816
133 1 5.47796 11.0798 2.67487
136 1 9.11378 7.04866 0.843615
137 1 4.32948 8.45835 7.21603
163 3 3.05215 12.2222 1.07997
178 3 4.92934 6.38133 4.57653
182 3 7.06478 7.36927 2.96012
183 3 8.91309 9.37251 2.65278
184 3 6.94386 8.99286 0.676869
185 3 7.06093 11.7168 0.582415
62 2 8.49668 11.2657 7.7186
258 2 8.68139 11.2612 5.82136
259 2 7.38976 10.4937 4.48084
260 2 7.98411 12.2841 4.32529
110 2 6.76183 8.48931 7.81803
171 3 1.34619 11.8375 6.57999
23 4 4.15867 5.99458 10.6329
26 4 1.77847 8.99723 16.404
271 3 7.94674 8.41788 16.1207
109 2 8.32857 8.45247 8.7412
35 4 8.74955 6.11357 11.2269
38 4 4.09371 10.2825 9.83939
39 4 8.0684 8.91882 12.7549
40 4 6.51286 11.0856 11.4444
58 2 3.70244 8.79194 9.05937
59 2 6.66764 8.6642 13.7531
34 4 6.7864 6.32312 8.93037
88 2 2.99953 7.73652 12.0109
89 2 4.95183 7.97068 11.4473
90 2 4.50657 6.8542 13.022
37 4 6.37066 8.40528 16.4502
180 3 10.2569 5.93305 10.6195
128 1 4.13371 7.28756 12.0187
245 3 3.05806 9.08227 15.4678
176 3 1.18232 11.1459 12.7788
179 3 5.33439 6.79246 9.41535
240 1 9.89617 6.57976 15.1764
236 3 5.90569 12.0055 12.5847
186 3 4.37529 11.3819 8.71301
187 3 2.78148 10.553 10.8544
188 3 8.48228 7.58969 11.8647
262 2 9.29815 5.99183 16.045
190 3 5.37861 10.1098 10.7073
191 3 7.73365 10.2511 11.9629
241 4 4.2914 9.38327 14.5199
242 2 3.82725 9.05415 12.8963
243 3 5.47783 8.3478 14.7351
244 3 4.83437 10.936 14.5604
112 2 7.8878 5.33503 16.3492
268 2 7.61476 11.9615 8.57387
87 2 6.73012 5.43741 13.4044
239 2 9.84865 6.07387 14.1547
181 3 7.79178 5.75322 10.0214
251 2 7.20676 12.0848 10.2655
ITEM: TIMESTEP
200
ITEM: NUMBER OF ATOMS
271
ITEM: BOX BOUNDS xy xz yz pp pp pp
-7.1946981000000019e+00 1.4733951299999999e+01 -6.1910028000000015e+00
-1.8606000000000000e+00 1.3431800000000001e+01 -1.0036953000000000e+00
0.0000000000000000e+00 1.6609600000000000e+01 -1.8606000000000000e+00
ITEM: ATOMS id type x y z
3 4 0.625114 1.49696 5.29121
4 4 -0.177296 3.83187 7.34829
153 3 1.00836 4.62256 8.09001
21 4 3.70921 5.61193 4.96365
41 2 2.13896 1.77795 4.50447
50 2 3.93435 3.12304 1.46649
52 2 4.22975 4.04198 5.39798
19 4 1.54169 6.12845 2.91028
67 2 -1.9637 5.64879 6.96756
68 2 -1.55493 4.75743 5.39078
2 4 1.92979 -0.66751 6.8186
82 2 -0.565062 5.60913 4.4616
83 2 -0.246775 4.82765 2.48558
125 1 3.72138 4.44732 0.328463
120 1 -1.14697 5.25169 6.32012
126 1 -0.259322 5.87803 3.27588
138 3 -0.425356 1.39751 4.13726
139 3 0.819667 0.107883 6.04084
140 3 0.271522 2.74399 6.23784
255 2 -2.33595 5.0078 0.698981
149 3 2.6 0.266273 8.26905
155 3 2.66083 5.23973 3.75486
201 2 4.11224 2.02769 3.92764
202 2 3.5315 2.49687 5.71193
203 2 3.68873 0.645754 5.3097
193 4 5.80859 1.86406 5.7558
213 1 4.02697 1.70748 5.0517
14 4 6.73443 -0.663087 7.58806
227 4 1.41137 2.51753 0.371861
229 2 2.0309 3.90688 1.1966
230 3 1.61813 1.22038 1.20457
246 2 3.99248 -0.148728 2.09382
80 2 3.09144 5.23943 0.799739
69 2 -0.271615 6.00594 6.1383
74 2 3.89998 2.54626 7.83423
66 2 -2.26749 3.35216 8.19182
15 4 3.07242 1.18346 9.45018
269 2 -1.11889 0.200024 9.35498
17 4 5.2687 0.900997 11.9817
42 2 -1.12756 4.30685 11.3331
48 2 1.8499 2.37248 9.87666
65 2 -1.28651 1.66818 8.39461
64 2 -0.968677 3.2269 9.55984
70 2 1.39145 -0.668958 12.0055
119 1 -1.28553 2.89126 8.5089
75 2 4.23974 3.26572 9.5959
76 2 2.52204 3.6099 8.72214
156 3 4.75935 2.27375 12.9877
81 2 2.20743 2.14489 16.1304
91 2 1.7799 4.17176 14.6115
228 2 1.21489 0.386765 15.5563
123 1 3.45624 2.9228 8.86854
254 2 -2.84267 3.06264 15.3215
150 3 4.10582 0.884713 10.6467
151 3 5.4563 -0.443119 12.8912
53 2 3.39909 4.37697 14.0662
231 3 -1.07801 1.00375 16.4002
169 3 1.078 10.9534 4.14641
166 3 -1.25104 9.34449 8.23652
8 4 -1.27848 8.87822 6.78755
9 4 -2.49093 10.8665 4.82895
7 4 -5.19073 10.666 3.2921
164 3 1.60367 7.40299 8.17366
165 3 2.89001 6.42269 6.1017
25 4 0.00158356 11.1339 2.97233
27 4 2.51806 7.79136 6.83988
162 3 2.85384 9.3525 0.675401
44 2 0.351697 8.8861 6.24923
45 2 -1.50972 7.16251 6.64656
51 2 0.770042 7.29845 4.05477
60 2 -1.93348 11.486 0.837296
61 2 -4.84304 10.3405 6.77568
170 3 1.91812 8.91797 5.85684
93 2 -0.620054 8.7441 2.98153
94 2 0.950207 8.98388 1.98223
95 2 -0.578864 9.68909 1.22699
117 1 -2.21599 12.5488 0.50582
118 1 -5.145 11.1666 7.40165
130 1 -0.0294296 9.40141 2.16722
142 3 -4.67383 11.9041 2.23215
143 3 -3.93933 10.3229 4.31808
144 3 -1.96599 9.63248 5.68932
145 3 -3.05049 12.3338 5.84413
159 3 1.94167 6.76119 1.43574
160 3 0.366376 12.2987 1.51207
161 3 -1.46526 11.3247 3.57714
24 4 2.44767 7.7985 0.308687
1 4 -3.96591 13.1117 1.38827
84 2 -1.0245 6.57658 2.86291
167 3 -0.698773 12.0611 8.21913
5 4 -3.79601 6.2308 9.17817
6 4 -1.18258 5.83768 10.5921
10 4 -2.46255 7.74292 12.7439
11 4 -3.15057 10.5797 11.5157
20 4 1.42359 6.12013 9.12142
28 4 -1.08697 10.6637 9.17589
30 4 -0.90179 9.24756 14.8418
43 2 -3.78242 7.79788 8.59576
46 2 -3.93234 6.97726 13.3842
47 2 -5.28941 11.1876 11.0286
55 2 -2.01904 9.45313 16.168
99 2 1.6286 7.83173 11.1535
263 2 -3.6453 6.595 15.4732
252 2 -4.70973 10.8626 16.215
72 2 -5.03691 11.1312 12.8943
92 2 1.99653 6.01455 14.221
63 2 -4.59885 11.1227 8.41537
100 2 -0.0241593 8.21577 11.8822
121 1 -4.67411 11.6647 11.9696
129 1 1.89026 5.22707 14.9852
132 1 1.07782 8.39957 11.9322
238 2 -4.07136 9.09466 16.4627
146 3 -1.81135 6.73355 11.7804
147 3 -2.98782 9.12597 12.1404
154 3 0.23144 6.28508 10.1022
267 2 0.220017 5.63994 15.6115
189 3 -5.32922 9.21861 13.8945
168 3 -2.5741 10.8365 10.018
172 3 -1.42931 7.9705 14.0157
173 3 0.516535 9.09273 15.5934
174 3 -1.1134 10.6709 14.0529
175 3 0.005333 10.5335 10.4522
237 4 -5.24574 8.2587 15.3985
157 3 2.83814 5.94278 10.0143
16 4 -0.0822565 11.7638 13.6547
71 2 -2.85585 11.8724 12.692
101 2 1.42735 8.16283 12.9987
141 3 -2.23904 5.7691 9.25201
253 2 -2.35703 11.1924 16.5808
31 4 1.21698 10.2344 11.3377
54 2 3.08843 5.35812 15.9306
247 2 12.1111 2.87907 0.745703
264 2 9.07692 4.05423 2.04625
270 2 13.5186 0.342334 7.47307
73 2 9.79061 2.26177 1.92884
113 2 9.11204 6.16257 1.81066
265 2 10.4924 3.7327 0.749772
107 2 7.44685 4.26164 4.53288
122 1 9.54146 3.30011 1.37364
13 4 8.06581 2.41036 0.438912
134 1 7.71682 5.3715 4.717
226 3 10.1933 5.32328 7.9702
152 3 6.75181 3.14676 0.770431
177 3 5.8553 5.06667 2.49496
192 4 12.9304 1.51098 3.4781
56 2 6.78098 5.06369 7.63345
194 4 8.26714 1.52003 3.90623
196 4 10.7211 1.52692 5.72779
197 4 9.69788 3.90822 7.28849
148 3 8.08622 0.890615 0.0644074
199 2 8.70107 2.94703 3.13945
200 2 8.37597 4.25593 6.21256
204 2 6.39072 4.44019 5.92152
205 2 6.39739 3.3297 7.4713
206 2 4.81128 4.23055 7.08891
214 1 5.72475 3.72993 6.65397
225 3 10.6949 2.96124 6.54032
219 3 12.5686 0.269343 2.45823
220 3 8.21593 0.369705 2.84041
221 3 6.87598 1.95815 4.51593
222 3 11.8852 1.57504 4.57742
223 3 9.34912 1.18089 4.97596
224 3 10.8887 0.169051 6.97258
106 2 8.73804 5.62532 4.28131
33 4 6.28141 6.14701 3.60557
198 2 12.9871 2.96305 2.62191
105 2 7.58697 5.78626 5.73715
18 4 5.5514 4.10825 1.25652
218 3 6.29118 0.734859 6.87379
112 2 8.90593 6.70564 0.0600244
22 4 4.74056 3.85809 12.9915
49 2 6.92591 -1.18628 15.0742
266 2 4.12664 3.29413 16.342
77 2 6.66258 1.37779 10.1775
78 2 7.61252 0.279792 11.4812
79 2 7.47625 2.15985 11.715
85 2 7.09204 3.57864 13.3918
249 2 7.86778 -0.185354 8.78292
216 1 13.3605 -0.345421 8.38609
124 1 6.96047 1.27732 11.2953
127 1 6.42797 4.45526 13.5406
158 3 4.59011 4.52139 11.563
212 2 7.97264 3.92291 9.03487
207 2 11.7724 1.17158 9.93681
208 2 10.2016 0.140069 10.3245
209 2 9.94412 1.65809 9.25787
210 2 9.32174 2.84569 9.67286
257 1 11.0823 2.66026 16.3673
215 1 10.7159 0.79777 9.62208
217 1 8.74994 3.09502 8.71339
232 4 12.121 1.05115 15.916
233 4 11.2014 -1.21061 13.7713
234 2 9.64006 -0.803572 13.1488
235 3 11.6682 -0.0163707 14.8041
256 2 10.0253 2.84497 16.1207
57 2 8.52693 5.03383 12.3246
248 2 8.15181 1.50424 16.0616
86 2 6.36443 4.76793 14.5945
195 4 11.2779 -0.421627 8.33193
236 3 12.1701 -1.31156 12.5258
87 2 6.74854 5.25806 12.8651
211 2 8.24476 2.2236 8.30564
261 1 8.22574 11.308 4.51624
12 4 1.76545 12.9651 1.48026
32 4 6.04579 12.3615 1.57974
36 4 7.94134 8.22943 1.88136
135 1 7.56102 7.95044 8.15678
111 2 10.1725 7.60412 1.16916
96 2 3.69667 11.6152 4.03734
97 2 4.16232 10.1925 5.31154
98 2 4.03416 12.1201 5.796
102 2 6.3984 10.1985 2.92909
103 2 4.60692 10.886 2.59793
104 2 5.63704 11.5789 3.93436
108 2 7.94189 7.49165 7.09492
250 2 4.5539 12.6453 0.731418
29 4 1.92694 10.8437 5.50974
114 2 4.87494 8.22242 6.30951
115 2 4.66924 7.72904 8.16136
116 2 4.17613 9.55112 7.57672
131 1 3.68797 11.262 5.07141
133 1 5.70034 11.0949 2.94315
136 1 9.23214 6.98335 1.08319
137 1 4.33243 8.41116 7.30973
163 3 3.09255 12.0768 1.24992
178 3 4.98508 6.50873 4.70133
182 3 6.98362 7.45328 2.88449
183 3 8.78491 9.4348 2.56369
184 3 7.0273 8.88802 0.673144
185 3 7.07534 11.6399 0.624402
62 2 8.45574 11.1962 7.49122
258 2 8.61728 11.3788 5.60287
259 2 7.37825 10.466 4.38925
260 2 7.85821 12.3099 4.11386
110 2 6.68134 8.64237 8.10489
171 3 1.37139 11.7365 6.69526
268 2 7.52639 11.9762 8.23543
23 4 4.17129 5.91585 10.7251
26 4 1.86504 8.93217 16.392
271 3 7.97794 8.30235 16.0077
109 2 8.33569 8.3189 8.85077
35 4 8.76549 6.20842 11.1411
38 4 4.08336 10.4279 9.8588
39 4 8.2289 8.89228 12.8089
40 4 6.61194 11.1193 11.3815
58 2 3.93982 8.92866 9.19886
59 2 6.84172 8.46761 13.7448
34 4 6.7659 6.35427 8.82232
88 2 2.97816 7.74799 12.061
89 2 4.94034 7.97459 11.4896
90 2 4.56906 6.90972 13.0921
37 4 6.47182 8.39742 16.3926
180 3 10.1869 6.17776 10.5973
128 1 4.16649 7.2885 12.0932
245 3 3.13247 9.13269 15.5297
176 3 1.10798 11.0336 12.7742
179 3 5.2207 6.65477 9.46926
240 1 9.94689 6.4448 15.0807
251 2 7.24214 12.1363 10.1268
186 3 4.57303 11.5349 8.70146
187 3 2.72546 10.5921 10.5891
188 3 8.49768 7.60134 11.9306
262 2 9.31982 5.9153 15.8985
190 3 5.37555 10.1406 10.7348
191 3 7.68335 10.1141 11.9738
241 4 4.35255 9.39594 14.5868
242 2 3.73827 8.98666 13.05
243 3 5.59379 8.2858 14.7256
244 3 4.73461 10.9242 14.5125
239 2 9.80653 6.02969 14.0328
181 3 7.66056 5.94886 10.0592
ITEM: TIMESTEP
300
ITEM: NUMBER OF ATOMS
271
ITEM: BOX BOUNDS xy xz yz pp pp pp
-7.1910971500000009e+00 1.4726576950000000e+01 -6.1879042000000002e+00
-1.8606000000000000e+00 1.3431800000000001e+01 -1.0031929500000007e+00
0.0000000000000000e+00 1.6609600000000000e+01 -1.8606000000000000e+00
ITEM: ATOMS id type x y z
3 4 0.729815 1.48447 5.24989
4 4 -0.13316 3.84723 7.3292
153 3 1.08246 4.55887 8.25825
21 4 3.66069 5.69049 4.88575
41 2 2.26742 1.77735 4.53074
50 2 4.05984 3.13713 1.96383
52 2 4.41941 4.17513 5.39702
19 4 1.57064 6.28605 2.86842
67 2 -1.84143 5.63733 7.18167
68 2 -1.83929 4.91704 5.41235
2 4 1.97737 -0.683067 6.94124
82 2 -0.579173 5.59135 4.37491
83 2 -0.130011 4.71313 2.74955
125 1 3.90381 4.24651 0.461615
120 1 -1.23718 5.26458 6.30686
126 1 -0.256176 5.7558 3.24074
138 3 -0.243866 1.36275 4.04238
139 3 0.972511 0.163955 6.06987
140 3 0.324301 2.67711 6.23942
74 2 3.91987 2.4672 7.79907
149 3 2.58549 0.301028 8.22261
155 3 2.57718 5.35319 3.64033
201 2 4.26253 1.77242 4.0224
202 2 3.52768 2.39122 5.6871
203 2 3.75017 0.454896 5.388
193 4 5.9086 1.72243 5.74214
213 1 4.13462 1.56322 5.13775
14 4 6.70994 -0.76092 7.64775
227 4 1.4146 2.528 0.258441
229 2 2.09286 3.78151 1.18109
230 3 1.76297 1.21912 0.909164
246 2 4.1053 0.240548 1.84365
80 2 3.28602 5.1407 0.82472
255 2 -2.13553 5.0963 0.539094
218 3 6.32491 0.434282 6.73975
69 2 -0.362901 5.90258 6.05703
15 4 2.97363 1.20184 9.40712
231 3 -1.02473 1.10084 16.5281
17 4 5.24276 0.90092 11.9315
42 2 -0.932108 4.33397 11.2132
48 2 1.83072 2.40233 9.8795
65 2 -1.26537 1.67529 8.54036
64 2 -0.680634 3.19812 9.5945
70 2 1.64763 -0.734146 11.9292
119 1 -1.16199 2.90611 8.62655
75 2 4.25579 3.36824 9.44081
76 2 2.56708 3.70249 8.61552
54 2 3.15102 4.73398 16.002
81 2 2.349 1.84963 16.2461
91 2 1.32445 4.11586 14.8371
228 2 1.28936 0.670323 15.4353
123 1 3.45644 2.92596 8.82493
254 2 -2.94784 2.92809 14.956
150 3 3.97295 0.835664 10.5997
151 3 5.60409 -0.400853 12.8332
53 2 3.61346 4.33007 14.2343
269 2 -0.887998 0.160831 9.31983
129 1 1.98619 4.97545 15.0668
66 2 -2.13307 3.52509 8.43125
266 2 4.13363 2.9857 16.2623
169 3 1.07 10.9615 4.04431
166 3 -1.3306 9.24571 8.24593
8 4 -1.1774 8.90973 6.74619
9 4 -2.5873 10.8697 4.80615
7 4 -5.19716 10.7331 3.24178
164 3 1.62981 7.49692 8.27752
165 3 2.87018 6.31673 6.17124
25 4 -0.0667897 11.042 2.86838
27 4 2.47926 7.73598 6.8459
162 3 2.92327 9.20915 0.473321
44 2 0.458922 8.93596 6.17165
45 2 -1.49836 7.22202 6.47021
51 2 0.652574 7.38072 3.87369
60 2 -2.13894 11.4989 0.972932
61 2 -4.98951 10.2788 6.76175
170 3 1.97784 8.95527 5.94376
93 2 -1.0794 8.89534 2.73112
94 2 0.780747 8.739 2.39087
95 2 -0.332676 9.36375 1.06606
117 1 -2.26029 12.4995 0.471405
118 1 -5.11991 11.1815 7.48424
130 1 -0.144093 9.25816 2.20012
142 3 -4.53566 12.1286 2.1994
143 3 -4.02115 10.2871 4.15732
144 3 -2.00655 9.82483 5.79738
145 3 -2.88559 12.2501 5.70602
159 3 1.98335 6.90095 1.4746
160 3 0.410184 12.0931 1.58303
161 3 -1.56407 11.2827 3.58712
24 4 2.49191 7.6656 0.223958
1 4 -3.89214 13.2689 1.38498
84 2 -0.974164 6.51285 2.6989
5 4 -3.75693 6.20008 9.05164
6 4 -1.25946 5.89452 10.6004
10 4 -2.55474 7.77688 12.8287
11 4 -3.12574 10.4659 11.3988
20 4 1.38102 6.12883 9.15431
28 4 -1.15193 10.7358 9.1913
30 4 -0.930314 9.16714 14.9115
43 2 -3.71664 7.8163 8.61273
46 2 -3.98814 6.99662 13.4793
47 2 -5.25469 11.2558 10.9203
55 2 -1.9716 9.38012 16.34
99 2 1.74423 7.77723 11.2351
263 2 -3.81304 6.28661 15.3057
252 2 -4.58401 10.6991 16.1205
72 2 -5.19013 11.2289 12.8053
92 2 2.03533 5.78358 14.2853
63 2 -4.56955 11.0559 8.50058
100 2 0.108989 8.34981 11.8915
121 1 -4.63511 11.5728 11.8532
167 3 -0.736817 12.044 8.3982
132 1 1.22767 8.49811 11.9366
238 2 -4.091 8.94596 16.429
146 3 -1.93523 6.83439 11.7058
147 3 -2.92168 9.10912 12.1262
154 3 0.201904 6.37635 10.1162
267 2 0.27196 5.78532 15.5422
189 3 -5.30879 8.94446 13.969
168 3 -2.64012 10.8126 9.89748
172 3 -1.57576 8.00221 14.052
173 3 0.519737 8.88533 15.5076
174 3 -0.933514 10.6294 14.1285
175 3 0.0275004 10.4514 10.458
237 4 -5.23743 8.19899 15.4101
157 3 2.71562 6.00725 10.0199
16 4 0.0308563 11.8334 13.6685
71 2 -2.81245 11.8112 12.4768
101 2 1.65418 8.43317 13.0267
141 3 -2.14255 5.77921 9.30708
253 2 -2.33525 10.9496 16.5521
31 4 1.31419 10.3365 11.4094
247 2 12.0768 2.99233 0.671629
264 2 9.2165 4.03865 1.9933
270 2 13.3891 0.202886 7.43826
73 2 9.95405 2.17179 1.86672
113 2 9.03399 6.07214 1.78844
265 2 10.5485 3.72738 0.647775
107 2 7.4817 4.22056 4.55029
122 1 9.63093 3.20628 1.25159
13 4 8.06569 2.31482 0.502328
134 1 7.70598 5.34336 4.67369
226 3 10.4447 5.39218 7.82736
152 3 6.73364 2.94669 0.975246
177 3 5.8398 5.10474 2.6111
192 4 12.9584 1.38987 3.59087
56 2 6.65049 5.03781 7.72347
194 4 8.19599 1.56276 3.92089
196 4 10.6972 1.43939 5.75226