ITEM: TIMESTEP
0
ITEM: NUMBER OF ATOMS
271
ITEM: BOX BOUNDS xy xz yz pp pp pp
-7.2018999999999993e+00 1.4748699999999999e+01 -6.1971999999999996e+00
-1.8606000000000000e+00 1.3431800000000001e+01 -1.0046999999999999e+00
0.0000000000000000e+00 1.6609600000000000e+01 -1.8606000000000000e+00
ITEM: ATOMS id type q x y z
3 4 1.22985 0.918684 1.37658 5.5999
4 4 1.1403 -0.0229973 3.77292 7.48607
214 1 -0.699164 4.66349 2.99694 6.43153
21 4 1.22034 2.76544 5.62105 4.966
41 2 -0.00252945 2.56883 1.46643 5.13062
50 2 0.0174777 3.50097 2.81458 1.76176
52 2 0.00232018 3.15936 4.02029 5.69492
266 2 0.0177665 4.07074 5.12158 0.0847178
69 2 0.136888 -2.05889 5.45183 6.29809
82 2 0.123145 -0.882954 6.06849 1.87388
227 4 0.994709 1.28868 1.97439 0.511212
231 3 -0.805764 -0.174296 2.23066 0.080379
83 2 0.17215 -0.153443 4.34956 1.36133
84 2 0.158997 0.324244 5.83529 0.387976
120 1 -0.677529 -0.97178 5.32242 6.51184
126 1 -0.664855 0.0236897 5.42896 1.4217
138 3 -0.83419 0.0961609 1.3238 4.18125
139 3 -0.784639 0.729671 0.0150083 6.41863
140 3 -0.835747 0.652524 2.68867 6.49862
229 2 0.0349368 1.53359 3.20067 1.79039
14 4 1.35276 6.39561 -0.649807 7.58469
155 3 -0.778538 1.92683 5.33219 3.49752
201 2 0.179346 5.08489 0.596146 3.50158
202 2 0.122477 3.65304 1.79251 3.7357
203 2 0.256035 3.74569 0.0262069 4.8955
206 2 0.15009 3.63516 2.57398 6.31315
213 1 -0.67907 4.27455 0.936159 4.27601
218 3 -0.855444 5.97244 0.491178 6.63202
67 2 0.173966 -0.461075 4.91888 5.57158
193 4 1.12418 5.70929 1.55413 5.50215
230 3 -0.817072 1.89276 0.569299 1.06648
65 2 0.215452 -2.16366 3.04736 7.43824
268 2 0.266585 -0.463015 -0.264965 7.74459
18 4 1.00522 4.75818 4.01529 1.32057
125 1 -0.643271 2.70755 3.79707 0.351419
80 2 0.172095 1.78132 4.53757 0.763326
74 2 0.202437 2.59077 2.61095 8.20096
119 1 -0.663936 -1.42699 2.82344 8.26731
254 2 0.0863552 -1.9802 4.48439 0.388114
19 4 0.975479 1.30391 6.42323 2.45411
246 2 0.0346574 3.64116 -0.255129 2.79515
205 2 0.168648 4.98839 3.06177 7.44808
204 2 0.143139 4.7595 3.96496 5.97986
15 4 1.08304 3.46953 0.722443 9.59045
75 2 0.149515 4.28035 2.81663 9.11804
151 3 -0.791285 5.88253 -0.358239 12.9146
42 2 -0.0186338 -0.515033 4.27498 12.2228
48 2 -0.000549229 2.18558 1.38183 10.5876
71 2 0.165584 2.12024 -0.776155 11.4267
5 4 1.2135 -3.03905 5.57936 9.20137
66 2 0.185019 -1.53797 3.49953 9.19161
149 3 -0.815484 2.853 -0.17919 8.31373
141 3 -0.846993 -2.25331 5.10569 10.5556
76 2 0.211781 2.56788 3.17836 10.0232
153 3 -0.816071 0.857664 4.52346 8.63554
81 2 0.13935 1.9929 2.20433 15.8629
270 2 0.12985 -0.957302 0.19038 9.55149
91 2 0.163124 1.35584 4.88041 15.2768
123 1 -0.659535 3.06105 2.52949 9.26112
228 2 0.0337899 1.32253 0.528374 15.7278
150 3 -0.806064 4.75412 0.445555 10.3743
64 2 0.185791 -1.30037 1.63488 8.5086
167 3 -0.821639 -0.857185 11.713 8.1075
2 4 1.27071 -4.01198 12.4696 7.124
8 4 0.999392 -2.12377 8.7409 6.86919
9 4 1.39527 -2.55507 10.754 4.74866
253 2 0.169738 -1.54573 12.1534 1.03127
260 2 0.248079 -5.94641 12.4899 4.14701
166 3 -0.800326 -1.30832 9.0174 8.12375
25 4 1.34121 0.0372878 11.2172 3.26382
27 4 1.33587 1.74208 7.70796 7.02881
165 3 -0.826759 1.86535 6.378 5.98288
44 2 -0.0315775 -1.99087 7.02218 6.52149
45 2 -0.00980141 -3.71612 8.96944 7.36782
51 2 -0.00188883 0.146202 7.50755 3.08377
1 4 1.09054 -3.71603 12.6307 1.6476
63 2 0.159751 -5.78582 10.9654 7.67008
170 3 -0.796472 1.47586 9.16646 6.31122
93 2 0.165886 -0.832275 8.85611 2.65225
94 2 0.186479 1.04538 9.06739 3.17238
95 2 0.210998 0.446374 9.5925 1.43845
117 1 -0.654104 -2.46044 11.803 0.319168
118 1 -0.698779 -4.70992 10.6934 7.44236
130 1 -0.664706 0.179189 9.42325 2.5504
142 3 -0.828217 -4.54674 11.4547 2.16931
143 3 -0.79974 -4.05657 9.93131 4.34885
144 3 -0.819304 -1.81977 9.57697 5.56671
145 3 -0.820278 -3.20469 12.1953 5.77485
159 3 -0.765482 2.39962 7.21674 1.38216
160 3 -0.849017 0.50631 12.3242 2.10715
161 3 -0.855757 -1.59135 11.2923 3.548
68 2 0.192572 -0.451742 6.25815 6.97914
62 2 0.18318 -4.57768 9.95569 6.55824
169 3 -0.819538 1.07915 11.2445 4.57127
7 4 1.30813 -5.16812 10.4308 3.26189
24 4 1.05185 3.39806 8.07867 0.424431
43 2 -0.00384144 -1.79922 6.06726 8.12414
60 2 0.187359 -2.49322 10.6815 0.135011
238 2 0.0176528 -4.76912 9.16293 15.6476
252 2 0.139577 -3.70882 10.6624 15.9988
10 4 1.2597 -2.68205 7.79302 13.2305
11 4 1.16923 -3.18876 10.181 11.2936
154 3 -0.821045 0.220011 6.22346 10.7416
28 4 1.55269 -1.15074 10.4565 9.10301
30 4 1.29671 -1.00378 9.47049 14.9464
262 2 0.155294 -4.18135 6.87198 15.3893
46 2 0.0113035 -4.23556 7.05076 13.5834
47 2 0.0584856 -4.91698 10.5047 10.9439
129 1 -0.671435 2.17713 5.70127 15.2045
101 2 0.194537 1.71101 8.62506 12.8881
6 4 1.23981 -1.12155 5.66836 11.5153
20 4 1.46612 1.28214 5.87974 9.55738
164 3 -0.776978 1.21942 7.20333 8.5018
267 2 0.19832 1.95008 6.6095 14.6085
99 2 0.228468 1.77822 7.70135 11.2613
100 2 0.243745 0.180467 8.4699 11.7783
55 2 0.0295952 -1.80015 10.5649 16.0124
175 3 -0.825628 0.241 10.3848 10.1164
132 1 -0.67329 1.33225 8.57512 11.8603
72 2 0.161598 -2.98627 11.7614 12.8936
146 3 -0.824592 -1.72999 6.62301 12.645
147 3 -0.850083 -2.9239 8.99777 12.2346
121 1 -0.666376 -4.02485 11.7943 12.0852
180 3 -0.804649 -4.1059 6.76002 9.55541
157 3 -0.828346 2.8226 5.91231 10.1432
168 3 -0.882596 -2.47939 10.5288 9.95044
172 3 -0.836067 -2.14696 8.40475 14.6489
173 3 -0.871668 0.167315 8.92376 15.8052
174 3 -0.82853 -0.562045 10.5195 13.7656
70 2 0.172915 -5.01228 11.3433 12.5414
61 2 0.190104 -4.04226 10.4822 8.31581
211 2 0.164545 7.85356 1.9742 7.89785
113 2 0.159573 8.62715 6.6524 0.288116
256 2 0.160787 10.7176 3.50071 0.977244
73 2 0.150511 9.10191 2.77158 1.17239
105 2 0.181635 7.29943 4.29196 4.03142
257 1 -0.63179 11.9323 3.4868 1.37049
224 3 -0.764306 11.3567 -0.110984 6.65749
111 2 0.158919 8.41125 5.60342 1.87234
33 4 1.22841 5.58404 5.93522 3.76952
106 2 0.158533 6.18325 4.33619 5.67965
222 3 -0.844713 12.269 1.74145 4.91729
152 3 -0.815784 5.95973 3.25138 0.651491
177 3 -0.802481 5.09715 4.87333 2.60848
192 4 1.27648 13.3037 1.40191 3.77508
223 3 -0.83749 9.73365 0.796099 4.63728
194 4 1.26582 8.58701 1.64248 3.90146
196 4 1.49577 10.9073 1.21129 5.62245
197 4 1.0496 9.91314 3.45484 7.75394
56 2 -0.024439 6.5155 5.95603 6.5836
199 2 -0.047711 9.25722 3.11516 3.52833
200 2 0.0323234 8.35064 4.27717 7.20582
107 2 0.128505 7.57179 5.73696 5.24699
255 2 0.141226 11.9368 3.89385 2.46652
225 3 -0.836303 10.4305 2.40105 6.63924
247 2 0.0369401 12.0707 1.66917 1.43935
264 2 0.174632 8.69571 4.68016 0.777181
219 3 -0.814782 12.8516 0.112032 2.98023
220 3 -0.823458 8.32665 0.934261 2.52845
221 3 -0.788009 7.18182 1.96091 4.66026
134 1 -0.653319 6.78977 4.94578 4.85376
195 4 1.04759 11.6092 -0.681419 8.1497
122 1 -0.66299 8.77282 3.56055 0.350992
198 2 -0.00756615 13.1179 2.79945 2.74118
232 4 1.01393 12.9576 2.50629 0.00674294
22 4 0.986481 6.14025 3.84365 11.9938
148 3 -0.8303 6.34097 -0.999588 16.4551
251 2 -0.0194932 13.2892 -0.677006 10.5562
77 2 0.155835 7.76 1.51068 9.87929
49 2 0.0649329 7.3252 -1.37796 15.0588
79 2 0.14212 8.335 0.929218 11.6241
53 2 0.033565 6.39072 4.45975 13.7152
86 2 0.155487 8.6614 4.56608 13.3936
226 3 -0.861469 10.8144 4.51775 8.43745
124 1 -0.680137 7.60965 0.659557 10.7632
127 1 -0.646798 7.85839 4.73726 12.6162
158 3 -0.784788 5.20746 4.92436 11.1533
17 4 1.23418 5.92571 0.7124 11.6123
207 2 0.137836 11.551 1.11713 9.58273
208 2 0.180276 10.2512 -0.216658 10.231
209 2 0.187593 9.90083 0.855408 8.64651
210 2 0.0876221 9.17493 2.54368 9.51866
13 4 1.03327 6.17397 0.584085 16.6027
215 1 -0.681311 10.6468 0.379832 9.33849
249 2 0.0240186 6.78835 0.252998 9.03409
78 2 0.173496 7.78383 -0.424347 10.3925
233 4 1.18334 11.0988 -0.952522 14.0007
234 2 -0.0145101 9.8126 -0.435225 13.0307
235 3 -0.764045 11.2127 0.265887 15.2382
85 2 0.0613319 7.96152 3.90715 11.2618
265 2 0.141457 8.34712 1.57937 15.9666
248 2 0.0107821 6.77008 1.47607 15.2435
156 3 -0.770986 5.66816 2.33195 12.1596
216 1 -0.669273 13.5569 -0.447678 8.61667
236 3 -0.800254 12.4268 -0.994824 13.0416
217 1 -0.664595 8.18847 2.9121 8.4835
212 2 0.156456 7.28809 3.50304 8.85227
108 2 0.233479 5.86886 9.51264 7.92387
54 2 0.117336 5.1015 7.82376 0.926981
32 4 1.05678 5.86608 12.2459 2.20086
36 4 1.19803 7.46418 7.92305 2.10317
136 1 -0.666916 8.65535 6.63939 1.42854
110 2 0.172121 7.76029 9.04363 7.71253
96 2 0.246506 3.95494 11.8352 5.28707
97 2 0.172901 3.87839 9.9261 5.02228
98 2 0.251129 4.2332 10.7307 6.75997
102 2 0.197506 5.98935 10.1077 3.37039
103 2 0.162175 4.29337 10.9752 3.27033
104 2 0.19661 5.65225 11.5107 4.67155
259 2 0.206291 7.33116 11.293 4.20455
109 2 0.139839 6.4821 8.61171 6.33596
261 1 -0.643094 8.45731 11.4631 4.47032
114 2 0.201248 4.21503 7.21369 7.11943
178 3 -0.799618 4.12669 6.34831 4.74625
116 2 0.193458 3.7415 9.11454 6.78314
131 1 -0.671287 3.68104 10.8157 5.70874
133 1 -0.673458 5.41682 11.0732 3.61477
171 3 -0.803171 1.44125 11.9028 7.02509
137 1 -0.630522 3.57445 8.1175 7.44064
163 3 -0.827181 2.9169 12.537 0.781412
250 2 0.104554 4.47184 12.7902 1.32448
182 3 -0.814135 6.4571 7.14932 3.08217
183 3 -0.75316 8.51079 9.17367 2.77899
184 3 -0.812918 6.44739 8.62139 0.602257
185 3 -0.794285 6.49212 11.2868 1.10363
258 2 0.2194 8.75345 11.2578 5.50552
112 2 0.162632 9.66167 7.06968 1.89427
135 1 -0.663184 6.63249 8.78062 7.5129
162 3 -0.811291 3.07161 9.61766 0.617556
34 4 0.935233 6.6244 6.9907 7.97525
37 4 1.50372 6.88348 10.0326 0.00539576
29 4 1.40529 1.7627 10.7973 5.91849
12 4 1.42106 1.64887 13.2373 1.37082
23 4 1.29678 4.36897 6.16914 10.4434
26 4 1.45784 1.67022 9.0659 16.3292
263 2 0.153814 9.3653 6.01152 14.277
239 2 0.175746 9.04665 6.22156 16.1535
35 4 1.20759 9.12774 6.83619 10.0231
38 4 1.26074 4.34136 10.3712 9.92154
39 4 1.18911 7.86228 8.74641 11.9566
40 4 1.2354 6.4026 11.5998 11.6875
58 2 0.0333982 4.95439 8.74088 9.97797
59 2 -0.00545568 6.54273 7.727 11.6998
240 1 -0.685839 9.50723 6.6729 15.2153
88 2 0.132772 3.2137 8.05899 11.6516
89 2 0.146209 5.18877 8.67713 11.664
90 2 0.144997 4.73836 6.99988 12.5513
237 4 1.07972 8.62312 8.32796 15.0922
271 3 -0.788893 7.52129 8.3399 16.1782
128 1 -0.67631 4.53158 7.74674 11.613
176 3 -0.829461 1.62298 11.3734 12.563
245 3 -0.857395 2.61987 9.25154 15.0591
179 3 -0.744247 5.22422 6.67647 9.15295
269 2 0.128753 7.34303 11.819 8.93572
181 3 -0.798769 7.93425 6.76085 8.88815
186 3 -0.802664 4.80713 10.9373 8.48974
187 3 -0.837871 2.76418 10.3581 10.0999
188 3 -0.826034 8.90891 8.20761 10.8557
189 3 -0.814588 8.37373 8.52555 13.4684
190 3 -0.903101 5.08582 11.0341 11.1012
191 3 -0.819412 7.3319 10.2969 11.7452
241 4 1.2693 4.11982 9.4964 14.514
242 2 0.00442196 4.09058 9.21731 12.8785
243 3 -0.822186 5.08437 8.37849 15.1873
244 3 -0.81997 4.57194 11.0232 14.6753
87 2 0.141196 7.70814 5.81759 12.3805
115 2 0.205519 3.49986 8.29151 8.54594
31 4 1.33624 1.47371 10.3176 11.0205
16 4 1.23676 0.501196 11.7515 13.5319
57 2 -0.00385051 8.77326 5.47504 11.0822
92 2 0.137822 3.23689 5.32096 15.0693
ITEM: TIMESTEP
100
ITEM: NUMBER OF ATOMS
271
ITEM: BOX BOUNDS xy xz yz pp pp pp
-7.2351191999999998e+00 1.4748699999999999e+01 -6.2304192000000000e+00
-1.8606000000000000e+00 1.3431800000000001e+01 -1.0046999999999999e+00
0.0000000000000000e+00 1.6609600000000000e+01 -1.8606000000000000e+00
ITEM: ATOMS id type q x y z
3 4 1.20269 0.917338 1.37657 5.53962
4 4 1.11698 -0.0294066 3.78818 7.52748
214 1 -0.687518 4.77272 3.18883 6.25192
21 4 1.21748 2.91572 5.68104 4.9101
41 2 -0.0188314 2.60738 1.29554 5.19359
50 2 0.0188468 3.62117 2.66875 1.65676
52 2 0.0151186 3.1154 4.10435 5.64074
254 2 0.0947752 -2.02634 4.48999 0.148755
69 2 0.128591 -2.07249 5.05382 6.90977
82 2 0.141939 -0.818159 5.92779 1.62476
227 4 0.998298 1.32122 1.85485 0.595353
231 3 -0.799953 -0.247704 2.11397 0.286652
83 2 0.160856 0.203063 4.29906 1.83597
84 2 0.157407 0.492513 5.52926 0.288819
120 1 -0.689702 -1.02466 5.42589 6.56552
126 1 -0.657541 0.135539 5.41062 1.40548
138 3 -0.845307 0.0700708 1.371 4.16235
139 3 -0.779242 0.602465 0.0349416 6.3889
140 3 -0.792743 0.710667 2.71316 6.50489
229 2 0.0207912 1.86747 2.96911 1.88789
14 4 1.27613 6.34151 -0.680721 7.67587
155 3 -0.792809 1.96912 5.42159 3.58525
201 2 0.199951 5.25903 0.445153 3.52989
202 2 0.122052 3.57813 1.58963 3.8476
203 2 0.247567 3.80329 -0.0489384 4.85878
206 2 0.151421 3.74355 2.72541 6.51672
213 1 -0.668935 4.33213 0.844508 4.25571
218 3 -0.807189 6.01061 0.523087 6.60265
67 2 0.184201 -0.835918 5.44677 5.50956
193 4 1.1269 5.65704 1.61693 5.49271
230 3 -0.817137 1.90462 0.443324 0.938832
65 2 0.17509 -2.17374 3.19791 7.81763
268 2 0.25623 -0.464536 -0.23931 7.83488
18 4 0.97743 4.82163 3.99302 1.27338
125 1 -0.655001 2.75828 3.65696 0.359402
80 2 0.168032 1.80403 4.42408 0.730665
266 2 0.0189236 4.04332 5.07019 0.0976564
149 3 -0.76681 2.7455 -0.0997191 8.24956
15 4 1.05887 3.40221 0.718035 9.59695
75 2 0.184251 4.29584 2.92065 9.31754
151 3 -0.793619 5.58431 -0.37336 12.8371
42 2 -0.0328589 -0.82473 4.41916 12.4184
48 2 -0.0173304 2.1392 1.29005 10.5436
71 2 0.132783 1.59024 -1.09063 11.4223
5 4 1.2094 -3.13472 5.6082 9.26816
66 2 0.185611 -1.27471 3.19445 9.54277
150 3 -0.840458 4.70761 0.473464 10.358
141 3 -0.85403 -2.3221 5.16629 10.5807
76 2 0.170823 2.72344 2.92293 10.4492
153 3 -0.789881 0.890414 4.43187 8.67303
81 2 0.145093 2.13009 1.94026 15.9523
270 2 0.143114 -0.7432 0.136065 9.64712
74 2 0.223577 2.45543 2.79985 8.55531
123 1 -0.655533 3.20332 2.59475 9.43166
228 2 0.0329028 1.1396 0.565691 15.6679
119 1 -0.652003 -1.26338 2.76318 8.51029
64 2 0.19302 -1.19789 1.56169 8.41874
167 3 -0.80607 -1.03883 11.7146 7.93805
2 4 1.20366 -4.15485 12.4195 6.99207
8 4 0.957067 -2.24964 8.63325 7.0046
9 4 1.40431 -2.52185 10.5706 4.78466
253 2 0.158558 -1.66053 12.0577 0.993514
260 2 0.230757 -5.78548 12.5067 4.07895
166 3 -0.746633 -1.29648 8.91939 8.23415
25 4 1.35774 0.0492619 11.2296 3.16191
27 4 1.34591 1.89754 7.60952 7.00608
165 3 -0.857227 2.07885 6.37125 5.99321
44 2 -0.0203474 -2.26448 6.98483 6.5617
45 2 -0.0104071 -3.825 9.03792 7.46696
51 2 -0.00653369 0.253512 7.62893 3.09551
1 4 1.07264 -3.7868 12.5494 1.61747
63 2 0.159059 -5.87104 11.3064 8.04782
170 3 -0.77929 1.39683 9.17724 6.47294
93 2 0.152971 -0.590627 8.94275 2.56582
94 2 0.199474 1.28693 9.04457 2.81308
95 2 0.214295 0.519919 9.68326 1.20428
117 1 -0.667765 -2.55998 11.9462 0.177389
118 1 -0.698023 -4.90255 10.8119 7.64674
130 1 -0.666879 0.384366 9.49709 2.34696
142 3 -0.756968 -4.79159 11.4473 1.95325
143 3 -0.821782 -3.82225 9.79349 4.04793
144 3 -0.789802 -1.76978 9.46967 5.69601
145 3 -0.805723 -3.17653 11.9769 5.75234
159 3 -0.767482 2.36672 7.09402 1.47658
160 3 -0.879254 0.42629 12.3213 2.00778
161 3 -0.83942 -1.45342 11.3003 3.69658
68 2 0.208904 -0.464714 6.20566 7.1271
62 2 0.155926 -5.24885 9.97565 7.03129
169 3 -0.814723 1.0234 11.0583 4.54233
29 4 1.41142 1.5797 10.7095 5.99678
24 4 1.01479 3.48889 8.16388 0.59113
43 2 -0.000762471 -1.8914 6.19146 8.2295
19 4 1.01128 1.32167 6.45628 2.46912
246 2 0.019693 -2.78631 13.0519 2.94958
238 2 0.0326251 -5.04243 9.90415 15.5595
252 2 0.160796 -3.69774 10.9195 15.9998
10 4 1.2713 -2.61106 7.76718 13.2038
11 4 1.16004 -3.40238 10.1096 11.277
154 3 -0.806114 0.19805 6.17996 10.6604
28 4 1.48635 -1.06336 10.4538 9.0342
30 4 1.31073 -1.04385 9.60744 15.0421
262 2 0.130911 -4.06463 6.9884 15.6501
46 2 -0.0171929 -3.86197 6.73981 13.7754
47 2 0.0703737 -5.11442 10.5213 10.9973
129 1 -0.657081 2.21319 5.92786 15.3879
101 2 0.183339 1.78816 8.45338 12.9254
6 4 1.22988 -1.11558 5.68804 11.5037
20 4 1.47379 1.28488 5.97108 9.48901
164 3 -0.797317 1.19326 7.19343 8.41424
267 2 0.196317 2.35407 6.83684 14.7046
99 2 0.224796 1.87686 7.7897 11.1779
100 2 0.268731 0.257688 8.30859 11.9722
55 2 0.0235528 -1.8696 10.7977 16.0492
175 3 -0.819812 0.267402 10.4515 10.0962
132 1 -0.69399 1.36907 8.48313 11.8941
72 2 0.196593 -2.92903 11.9877 12.5091
146 3 -0.826935 -1.50173 6.80882 12.5885
147 3 -0.809856 -3.22547 8.85758 12.1935
121 1 -0.68506 -4.02013 11.6509 12.1932
180 3 -0.802229 -4.14266 6.87231 9.55198
157 3 -0.841711 2.81995 5.97745 10.0857
168 3 -0.817773 -2.44513 10.4123 10.0638
172 3 -0.830999 -2.0793 8.58982 14.4719
173 3 -0.871233 0.153143 8.98018 15.8367
174 3 -0.828755 -0.536644 10.4068 13.7504
70 2 0.18038 -4.71767 11.2198 12.972
16 4 1.20017 0.330416 11.721 13.4261
92 2 0.12546 3.10636 5.15649 15.3286
91 2 0.181815 1.23845 5.45982 15.2507
60 2 0.156459 -3.72706 9.0368 16.3763
61 2 0.181986 -4.21357 10.5574 8.53474
205 2 0.150372 5.35758 3.38911 7.25187
13 4 1.05108 7.31846 2.40765 0.0789958
256 2 0.167854 10.8805 3.59448 0.904957
73 2 0.123939 9.11957 2.84802 1.34355
105 2 0.18442 7.14962 4.36577 4.333
257 1 -0.645613 12.0455 3.62728 1.21628
224 3 -0.769799 11.3682 -0.219649 6.53981
111 2 0.159679 8.71898 5.85935 2.14322
33 4 1.2718 5.64972 6.09461 3.69749
106 2 0.158012 6.19841 4.77475 5.86544
222 3 -0.844179 12.2772 1.57207 4.89879
152 3 -0.808405 6.0574 3.19462 0.640315
177 3 -0.801256 5.26354 4.98476 2.46903
192 4 1.2873 13.3218 1.28907 3.69851
223 3 -0.828525 9.60931 0.912638 4.67749
194 4 1.25189 8.47524 1.67249 3.89435
196 4 1.48779 10.9666 1.15442 5.66304
197 4 0.972486 9.83779 3.37099 7.77067
113 2 0.177012 8.09208 6.20949 0.427076
199 2 -0.0456803 9.0865 3.1512 3.52613
200 2 0.0394539 8.1497 3.97154 7.16535
107 2 0.154616 7.58234 5.98359 5.26098
255 2 0.159644 12.2327 4.11362 2.1655
225 3 -0.82513 10.5158 2.34885 6.66587
247 2 0.0180886 11.9486 1.72204 1.30853
264 2 0.175532 8.91336 4.58422 0.392076
219 3 -0.825007 12.9608 0.0597303 2.8106
220 3 -0.852123 8.11904 0.936989 2.49754
221 3 -0.787986 7.05674 2.01746 4.61872
134 1 -0.668535 6.78824 5.2319 4.98787
195 4 1.0473 11.6297 -0.607446 8.13045
122 1 -0.675421 8.99651 3.4474 0.224653
198 2 0.00255099 12.9702 2.58565 2.57363
204 2 0.145432 4.87185 4.09983 5.57045
22 4 0.988975 6.23297 3.8696 11.9318
148 3 -0.829478 6.32573 -1.01477 16.4383
251 2 0.00714356 13.3683 -0.690291 10.651
77 2 0.163232 7.74091 1.40244 10.0718
49 2 0.0585541 7.07864 -1.26971 14.9648
79 2 0.171831 8.3047 0.776591 11.7125
53 2 0.0393891 6.19844 4.6085 13.5969
86 2 0.161043 8.51919 4.43773 13.5432
226 3 -0.839539 10.7441 4.49071 8.53071
124 1 -0.659216 7.60899 0.570246 10.8907
127 1 -0.643013 7.81215 4.78568 12.7655
158 3 -0.800976 5.26826 4.89771 11.1582
17 4 1.31479 5.79732 0.672524 11.571
207 2 0.147371 11.2378 1.33019 9.30994
208 2 0.199274 10.3269 -0.0566058 10.238
209 2 0.16523 9.50041 0.544324 8.63874
210 2 0.114798 8.86972 2.31634 9.029
212 2 0.166388 7.90562 3.94018 9.38066
215 1 -0.67542 10.536 0.396024 9.23487
249 2 0.00276476 6.89969 0.0594512 9.11004
78 2 0.195768 7.77797 -0.457139 10.5108
233 4 1.24636 11.0127 -0.95366 14.0657
234 2 -0.00250639 9.67593 -0.535167 13.0843
235 3 -0.814997 11.149 0.124515 15.1984
85 2 0.0530798 8.03094 4.07264 11.2299
265 2 0.156054 8.79629 1.22897 16.0959
248 2 0.0191164 6.91503 1.30052 15.221
156 3 -0.791091 6.04737 2.18494 11.9587
216 1 -0.67841 13.6138 -0.456486 8.77353
236 3 -0.791259 12.3626 -1.03213 13.0906
217 1 -0.67632 7.98884 3.05021 8.72407
232 4 1.02458 11.95 0.544923 16.5847
211 2 0.165139 7.02627 2.49426 8.58069
108 2 0.22174 5.97533 9.48847 8.01397
54 2 0.0937419 5.09621 8.03445 1.15582
32 4 1.06989 5.91045 12.2313 2.01587
36 4 1.24328 7.61404 8.01172 2.06734
136 1 -0.668499 8.64129 6.60145 1.31253
110 2 0.172414 7.68724 9.04184 7.54954
96 2 0.244192 3.46897 11.9571 5.27453
97 2 0.159822 3.84891 10.0584 5.13011
98 2 0.282591 4.05261 11.0119 6.91916
102 2 0.201531 5.92686 10.2562 3.71467
103 2 0.153768 4.2156 11.2267 3.2185
104 2 0.222209 5.55924 11.979 4.42007
259 2 0.22 7.37877 11.4187 4.11549
109 2 0.167196 6.26653 8.40241 6.44827
261 1 -0.653141 8.52081 11.4984 4.39004
114 2 0.204388 4.39583 7.27535 6.90134
178 3 -0.81266 4.35797 6.456 4.61996
116 2 0.19016 3.87243 9.22087 6.78886
131 1 -0.630838 3.55213 10.9786 5.83859
133 1 -0.671091 5.43384 11.2605 3.57215
171 3 -0.797011 1.43102 11.8021 7.14856
137 1 -0.649338 3.76646 8.1054 7.28884
163 3 -0.845353 2.95642 12.4446 0.999697
250 2 0.0989322 4.48581 12.8647 1.28584
182 3 -0.780754 6.52925 7.36271 3.2772
183 3 -0.790782 8.55901 9.10747 2.8038
184 3 -0.762532 6.66615 8.40904 0.612697
185 3 -0.822388 6.53595 11.2271 0.971365
258 2 0.185956 8.7733 11.262 5.50535
112 2 0.156602 9.67728 6.9835 0.96597
135 1 -0.676814 6.61749 8.74397 7.4863
162 3 -0.804102 3.09881 9.67167 0.716136
34 4 1.01253 6.66798 6.94322 8.23324
7 4 1.25782 9.5252 10.3048 3.33279
56 2 -0.0096882 6.46579 6.21633 6.7085
12 4 1.43417 1.6266 13.2193 1.44018
23 4 1.29505 4.37947 6.1109 10.3594
26 4 1.4308 1.64149 9.14174 16.4032
263 2 0.156291 9.53291 6.07745 14.4237
239 2 0.176845 8.86392 6.37581 16.1518
35 4 1.21404 9.09868 6.94281 10.1055
38 4 1.27574 4.32366 10.4713 9.90079
39 4 1.18042 7.69566 8.77999 11.9824
40 4 1.21994 6.33654 11.5362 11.7352
58 2 0.0126234 5.01174 8.90764 9.95553
59 2 -0.0124355 6.47808 7.56245 11.7918
240 1 -0.680699 9.57111 6.76812 15.2814
88 2 0.146009 3.29414 8.1126 11.6389
89 2 0.11672 5.20855 8.78655 11.7559
90 2 0.128093 4.87296 6.88785 12.3867
237 4 1.09834 8.7596 8.428 15.0188
271 3 -0.791436 7.50243 8.3961 15.9886
128 1 -0.65031 4.55346 7.85655 11.5407
176 3 -0.815944 1.50508 11.5144 12.3927
245 3 -0.852416 2.67791 9.31054 15.1362
179 3 -0.807662 5.33016 6.56028 9.18509
269 2 0.142166 7.32617 11.8137 9.02295
181 3 -0.840408 8.02085 6.73636 8.93776
186 3 -0.808942 4.86217 11.0341 8.50652
187 3 -0.828008 2.79189 10.2536 10.1996
188 3 -0.821708 8.7959 8.33149 10.8803
189 3 -0.803068 8.29517 8.62235 13.5289
190 3 -0.890905 4.90561 11.3205 11.0278
191 3 -0.856811 7.31396 10.3123 11.6628
241 4 1.26716 4.13562 9.49531 14.5308
242 2 -0.00642715 3.9059 9.18296 12.8411
243 3 -0.837249 5.17091 8.40619 15.1311
244 3 -0.839025 4.55478 11.0519 14.6618
87 2 0.14389 7.85819 5.89956 12.7134
115 2 0.192941 3.88757 8.21493 8.39187
31 4 1.33798 1.44434 10.2191 11.0848
37 4 1.51286 5.99456 8.26707 16.4838
57 2 -0.016055 8.76195 5.65573 11.3139
ITEM: TIMESTEP
200
ITEM: NUMBER OF ATOMS
271
ITEM: BOX BOUNDS xy xz yz pp pp pp
-7.2683383999999993e+00 1.4748699999999999e+01 -6.2636383999999996e+00
-1.8606000000000000e+00 1.3431800000000001e+01 -1.0046999999999999e+00
0.0000000000000000e+00 1.6609600000000000e+01 -1.8606000000000000e+00
ITEM: ATOMS id type q x y z
3 4 1.21862 0.903603 1.43093 5.50919
4 4 1.14098 0.00596474 3.81804 7.52773
214 1 -0.656333 4.95902 3.09716 5.96212
21 4 1.21819 2.9685 5.69782 4.8998
41 2 -0.0169273 2.52564 1.33434 4.89055
50 2 0.0115726 3.5769 3.05971 2.02412
52 2 -0.00678347 3.29369 4.0466 5.43676
254 2 0.11746 -1.87979 4.43028 0.490424
69 2 0.136937 -2.05643 5.24389 6.45397
82 2 0.139988 -0.519228 6.17796 1.24447
227 4 0.960051 1.38462 1.87276 0.622766
231 3 -0.792728 -0.186786 2.09654 0.329335
83 2 0.166011 0.244383 4.50338 1.8
84 2 0.145274 0.854508 5.36571 0.104818
120 1 -0.68023 -0.945749 5.43785 6.56959
126 1 -0.662721 0.372757 5.48456 1.21103
138 3 -0.852759 -0.0389425 1.55798 4.23933
139 3 -0.792667 0.619709 0.121364 6.36847
140 3 -0.792279 0.653394 2.77753 6.45093
229 2 0.0224528 1.81844 3.07151 1.86202
14 4 1.33064 6.21324 -0.751238 7.73666
155 3 -0.787677 1.99163 5.47414 3.57197
201 2 0.173401 5.20231 0.157348 3.61713
202 2 0.124637 3.7758 1.51651 3.61986
203 2 0.240384 3.50666 -0.149835 4.83822
206 2 0.128839 3.89736 2.54859 6.07094
213 1 -0.667058 4.2475 0.696377 4.26085
218 3 -0.855476 5.78653 0.316179 6.67521
67 2 0.197704 -0.384641 5.4674 5.60531
193 4 1.15844 5.74116 1.32053 5.4691
230 3 -0.814034 1.91282 0.408163 1.10829
198 2 0.017522 -1.44404 2.73196 2.57745
268 2 0.271061 -0.558125 -0.126979 7.63607
18 4 0.97546 4.92488 4.02622 1.29888
125 1 -0.65932 2.93092 3.70225 0.412222
80 2 0.167746 1.96788 4.39602 0.600507
204 2 0.156513 4.97349 3.90249 5.14989
149 3 -0.794827 2.6944 -0.0736913 8.29472
15 4 1.09146 3.33312 0.720485 9.51391
75 2 0.155717 4.16878 2.78696 8.97744
151 3 -0.788681 5.64658 -0.272048 12.8015
42 2 -0.03516 -0.467163 4.55805 12.5731
48 2 -0.00784897 2.20747 1.33255 10.6193
71 2 0.146297 1.39758 -1.15185 11.753
5 4 1.16964 -3.1152 5.60088 9.42205
66 2 0.173296 -0.831642 3.14348 9.6004
150 3 -0.816759 4.63223 0.401435 10.3337
141 3 -0.816173 -2.45011 5.05196 10.795
76 2 0.213496 2.68549 3.11861 10.1101
153 3 -0.803834 1.01633 4.46362 8.57273
81 2 0.136442 2.32416 1.82151 15.9541
270 2 0.13086 -1.21353 0.355142 9.43779
74 2 0.228229 2.33775 2.61747 8.32662
123 1 -0.670284 3.02738 2.5543 9.23026
228 2 0.0168091 1.46027 0.431521 15.8977
119 1 -0.664305 -1.15768 2.80541 8.55928
64 2 0.174943 -1.18805 1.57759 8.51094
72 2 0.192212 3.03527 -1.20239 12.5191
91 2 0.156013 1.68475 4.87158 15.4272
65 2 0.18706 -2.24597 3.12162 8.30539
266 2 0.0293271 3.17348 3.16283 16.5309
167 3 -0.847172 -1.02075 11.6583 8.27741
2 4 1.21967 -4.14456 12.4602 6.98112
8 4 0.98991 -2.30156 8.64948 6.96538
9 4 1.45432 -2.6172 10.4893 4.70409
253 2 0.162224 -1.58628 11.9175 0.88657
260 2 0.21734 -6.0661 12.0564 4.59724
166 3 -0.754109 -1.32974 8.86402 8.18617
25 4 1.3368 0.0412532 11.1614 3.11762
27 4 1.35326 1.88984 7.72205 7.02621
165 3 -0.825489 2.12577 6.55302 5.87827
44 2 -0.0123837 -2.16284 7.0077 6.63292
45 2 -0.012452 -3.92437 8.91819 7.41121
51 2 0.0183385 0.633891 7.74468 3.14384
1 4 1.07966 -3.68227 12.5246 1.61922
63 2 0.15176 -5.83064 11.1841 7.96421
170 3 -0.75492 1.39488 9.13634 6.36959
93 2 0.167828 -0.517902 8.76985 2.6769
94 2 0.208635 1.41344 9.24042 2.4678
95 2 0.200824 0.104344 9.64413 1.18532
117 1 -0.673986 -2.57049 11.7834 0.201323
118 1 -0.668258 -4.75767 10.8171 7.65187
130 1 -0.676531 0.292977 9.4778 2.2557
142 3 -0.797943 -4.6554 11.3031 2.01299
143 3 -0.84814 -3.81201 9.90072 3.87214
144 3 -0.825763 -1.94105 9.40933 5.65405
145 3 -0.830101 -3.32161 11.9752 5.70952
159 3 -0.82853 2.57686 7.27694 1.56398
160 3 -0.843034 0.315575 12.4513 2.01282
161 3 -0.828409 -1.49448 11.0042 3.6021
68 2 0.2005 -0.62831 6.21513 7.35612
62 2 0.137957 -4.74323 10.2274 6.56485
169 3 -0.805262 1.0327 11.1466 4.42404
29 4 1.34529 1.67696 10.8304 5.91033
246 2 0.0266597 -2.48811 12.9163 2.82272
19 4 1.04133 1.4988 6.49908 2.38624
24 4 1.1035 3.46201 8.20742 0.655113
43 2 0.00171228 -1.81445 5.92327 8.23674
238 2 0.0136583 -4.8832 9.82407 15.3257
252 2 0.137605 -3.62295 10.7426 15.9857
10 4 1.27048 -2.57743 7.79597 13.1823
11 4 1.15589 -3.51708 10.1958 11.301
154 3 -0.821785 0.139522 5.9762 10.5069
28 4 1.53859 -1.14621 10.3437 9.20476
30 4 1.27673 -1.07212 9.58101 15.0231
262 2 0.150374 -4.11315 7.08974 15.2805
46 2 -0.0101223 -3.93513 6.79829 13.5252
47 2 0.0617565 -5.22661 10.5292 11.188
129 1 -0.661904 2.43333 5.75402 15.4534
101 2 0.192387 1.37314 8.80826 12.9814
6 4 1.18779 -1.08801 5.70152 11.5415
20 4 1.4605 1.3493 5.87095 9.45265
164 3 -0.79793 1.24951 7.14642 8.42688
267 2 0.186265 2.09778 6.666 14.7506
99 2 0.194184 1.82011 7.59743 11.5939
100 2 0.284735 0.211856 8.34627 11.5292
55 2 0.0102336 -1.9209 10.7376 15.9994
175 3 -0.858396 0.107041 10.2376 10.2128
132 1 -0.663083 1.26687 8.52516 11.8133
61 2 0.200713 -4.1384 10.3979 8.51959
146 3 -0.824385 -1.50256 7.02603 12.3621
147 3 -0.793379 -3.19379 8.90071 12.2312
121 1 -0.695067 -4.14916 11.6544 12.3386
180 3 -0.778848 -4.04712 7.02554 9.59551
157 3 -0.808905 2.96237 5.80305 10.1418
168 3 -0.826335 -2.60219 10.4627 10.0755
172 3 -0.834029 -2.05044 8.34611 14.6306
173 3 -0.879691 0.107372 9.13239 15.942
174 3 -0.834657 -0.656579 10.5213 13.7401
70 2 0.16528 -4.58187 11.2337 13.369
16 4 1.23601 0.220233 11.7785 13.377
60 2 0.179943 -3.66833 8.84684 16.525
205 2 0.155832 5.36074 3.45054 6.94089
13 4 1.05939 7.42172 2.50118 0.00120993
256 2 0.178324 11.0161 3.53713 0.902711
73 2 0.131495 9.19695 2.72221 1.30439
105 2 0.16838 7.37956 4.52115 4.10226
257 1 -0.656647 12.0545 3.55604 1.30559
224 3 -0.770018 11.4318 -0.221453 6.52489
111 2 0.167457 8.13285 5.55725 2.12157
33 4 1.28018 5.67344 6.1496 3.72637
106 2 0.16658 6.58203 4.69453 5.82271
222 3 -0.853572 12.0035 1.59863 4.54613
152 3 -0.818548 6.16939 3.18757 0.645543
177 3 -0.791756 5.34427 5.07755 2.43822
192 4 1.29309 13.2991 1.34641 3.61732
223 3 -0.797647 9.50338 0.832981 4.83797
194 4 1.29566 8.51172 1.65877 3.95071
196 4 1.45605 10.932 1.1494 5.65928
197 4 0.958797 9.82319 3.29053 7.99739
113 2 0.170374 8.44879 6.3245 0.461663
199 2 -0.0431769 9.13874 3.20617 3.69003
200 2 0.0411396 8.34836 4.14704 7.35233
232 4 1.02044 12.969 2.2951 0.0546991
255 2 0.147651 12.0379 3.89912 2.41215
225 3 -0.804608 10.3696 2.2173 6.84659
247 2 0.0113561 11.8805 1.63175 1.2792
264 2 0.165313 8.95598 4.58934 0.647087
219 3 -0.844241 13.0045 0.0775521 2.70097
220 3 -0.874131 8.28834 1.03401 2.5753
221 3 -0.796714 7.1075 1.8871 4.7686
134 1 -0.665642 6.98281 5.25086 4.89339
195 4 1.05068 11.5893 -0.601221 8.10261
122 1 -0.662184 9.12651 3.44862 0.204753
12 4 1.42537 7.8476 -0.0495617 1.45263
136 1 -0.672094 8.64911 6.41439 1.53502
211 2 0.162079 7.18099 2.12459 8.24763
22 4 0.981994 6.19833 3.94161 11.8619
148 3 -0.843837 6.56464 -0.883722 16.4212
251 2 -0.0243954 13.4265 -0.912576 10.5316
77 2 0.151021 7.73347 1.42669 10.0549
49 2 0.0695553 7.07966 -1.1846 14.8646
79 2 0.173322 8.24656 0.479374 11.731
53 2 0.06576 6.59236 4.38849 13.6809
86 2 0.160321 8.78038 4.50348 13.2113
226 3 -0.829224 10.7666 4.46132 8.68944
124 1 -0.672203 7.57589 0.478597 10.8462
127 1 -0.648567 7.85433 4.83745 12.6993
158 3 -0.80097 5.13498 5.04121 11.2874
17 4 1.27755 5.79495 0.776348 11.4965
207 2 0.131277 11.2982 1.17149 9.58219
208 2 0.209932 10.1176 -0.323996 10.0843
209 2 0.183255 9.60779 0.92208 8.64034
210 2 0.099673 8.77778 2.47623 9.35613
212 2 0.155972 7.33944 3.82693 9.1826
215 1 -0.666463 10.4729 0.394573 9.21131
249 2 0.000383799 6.83877 0.147058 9.02924
78 2 0.172993 7.54679 -0.522948 10.3663
233 4 1.26225 11.1406 -0.988452 14.1776
234 2 -0.00110647 9.77021 -0.498895 13.313
235 3 -0.821959 11.2959 0.155717 15.2007
85 2 0.039231 7.92344 3.98965 11.1151
265 2 0.163861 9.05169 1.42744 16.1504
248 2 0.024294 7.1298 1.44152 15.2229
156 3 -0.796081 5.88504 2.31412 11.9662
216 1 -0.677223 13.5061 -0.419513 8.59455
236 3 -0.776618 12.3522 -0.961449 13.1016