ITEM: TIMESTEP
0
ITEM: NUMBER OF ATOMS
271
ITEM: BOX BOUNDS xy xz yz pp pp pp
-7.2018999999999993e+00 1.4748699999999999e+01 -6.1971999999999996e+00
-1.8606000000000000e+00 1.3431800000000001e+01 -1.0046999999999999e+00
0.0000000000000000e+00 1.6609600000000000e+01 -1.8606000000000000e+00
ITEM: ATOMS id type q x y z
3 4 1.22985 0.918684 1.37658 5.5999
4 4 1.1403 -0.0229973 3.77292 7.48607
214 1 -0.699164 4.66349 2.99694 6.43153
21 4 1.22034 2.76544 5.62105 4.966
41 2 -0.00252945 2.56883 1.46643 5.13062
50 2 0.0174777 3.50097 2.81458 1.76176
52 2 0.00232018 3.15936 4.02029 5.69492
266 2 0.0177665 4.07074 5.12158 0.0847178
69 2 0.136888 -2.05889 5.45183 6.29809
82 2 0.123145 -0.882954 6.06849 1.87388
227 4 0.994709 1.28868 1.97439 0.511212
231 3 -0.805764 -0.174296 2.23066 0.080379
83 2 0.17215 -0.153443 4.34956 1.36133
84 2 0.158997 0.324244 5.83529 0.387976
120 1 -0.677529 -0.97178 5.32242 6.51184
126 1 -0.664855 0.0236897 5.42896 1.4217
138 3 -0.83419 0.0961609 1.3238 4.18125
139 3 -0.784639 0.729671 0.0150083 6.41863
140 3 -0.835747 0.652524 2.68867 6.49862
229 2 0.0349368 1.53359 3.20067 1.79039
14 4 1.35276 6.39561 -0.649807 7.58469
155 3 -0.778538 1.92683 5.33219 3.49752
201 2 0.179346 5.08489 0.596146 3.50158
202 2 0.122477 3.65304 1.79251 3.7357
203 2 0.256035 3.74569 0.0262069 4.8955
206 2 0.15009 3.63516 2.57398 6.31315
213 1 -0.67907 4.27455 0.936159 4.27601
218 3 -0.855444 5.97244 0.491178 6.63202
67 2 0.173966 -0.461075 4.91888 5.57158
193 4 1.12418 5.70929 1.55413 5.50215
230 3 -0.817072 1.89276 0.569299 1.06648
65 2 0.215452 -2.16366 3.04736 7.43824
268 2 0.266585 -0.463015 -0.264965 7.74459
18 4 1.00522 4.75818 4.01529 1.32057
125 1 -0.643271 2.70755 3.79707 0.351419
80 2 0.172095 1.78132 4.53757 0.763326
74 2 0.202437 2.59077 2.61095 8.20096
119 1 -0.663936 -1.42699 2.82344 8.26731
254 2 0.0863552 -1.9802 4.48439 0.388114
19 4 0.975479 1.30391 6.42323 2.45411
246 2 0.0346574 3.64116 -0.255129 2.79515
205 2 0.168648 4.98839 3.06177 7.44808
204 2 0.143139 4.7595 3.96496 5.97986
15 4 1.08304 3.46953 0.722443 9.59045
75 2 0.149515 4.28035 2.81663 9.11804
151 3 -0.791285 5.88253 -0.358239 12.9146
42 2 -0.0186338 -0.515033 4.27498 12.2228
48 2 -0.000549229 2.18558 1.38183 10.5876
71 2 0.165584 2.12024 -0.776155 11.4267
5 4 1.2135 -3.03905 5.57936 9.20137
66 2 0.185019 -1.53797 3.49953 9.19161
149 3 -0.815484 2.853 -0.17919 8.31373
141 3 -0.846993 -2.25331 5.10569 10.5556
76 2 0.211781 2.56788 3.17836 10.0232
153 3 -0.816071 0.857664 4.52346 8.63554
81 2 0.13935 1.9929 2.20433 15.8629
270 2 0.12985 -0.957302 0.19038 9.55149
91 2 0.163124 1.35584 4.88041 15.2768
123 1 -0.659535 3.06105 2.52949 9.26112
228 2 0.0337899 1.32253 0.528374 15.7278
150 3 -0.806064 4.75412 0.445555 10.3743
64 2 0.185791 -1.30037 1.63488 8.5086
167 3 -0.821639 -0.857185 11.713 8.1075
2 4 1.27071 -4.01198 12.4696 7.124
8 4 0.999392 -2.12377 8.7409 6.86919
9 4 1.39527 -2.55507 10.754 4.74866
253 2 0.169738 -1.54573 12.1534 1.03127
260 2 0.248079 -5.94641 12.4899 4.14701
166 3 -0.800326 -1.30832 9.0174 8.12375
25 4 1.34121 0.0372878 11.2172 3.26382
27 4 1.33587 1.74208 7.70796 7.02881
165 3 -0.826759 1.86535 6.378 5.98288
44 2 -0.0315775 -1.99087 7.02218 6.52149
45 2 -0.00980141 -3.71612 8.96944 7.36782
51 2 -0.00188883 0.146202 7.50755 3.08377
1 4 1.09054 -3.71603 12.6307 1.6476
63 2 0.159751 -5.78582 10.9654 7.67008
170 3 -0.796472 1.47586 9.16646 6.31122
93 2 0.165886 -0.832275 8.85611 2.65225
94 2 0.186479 1.04538 9.06739 3.17238
95 2 0.210998 0.446374 9.5925 1.43845
117 1 -0.654104 -2.46044 11.803 0.319168
118 1 -0.698779 -4.70992 10.6934 7.44236
130 1 -0.664706 0.179189 9.42325 2.5504
142 3 -0.828217 -4.54674 11.4547 2.16931
143 3 -0.79974 -4.05657 9.93131 4.34885
144 3 -0.819304 -1.81977 9.57697 5.56671
145 3 -0.820278 -3.20469 12.1953 5.77485
159 3 -0.765482 2.39962 7.21674 1.38216
160 3 -0.849017 0.50631 12.3242 2.10715
161 3 -0.855757 -1.59135 11.2923 3.548
68 2 0.192572 -0.451742 6.25815 6.97914
62 2 0.18318 -4.57768 9.95569 6.55824
169 3 -0.819538 1.07915 11.2445 4.57127
7 4 1.30813 -5.16812 10.4308 3.26189
24 4 1.05185 3.39806 8.07867 0.424431
43 2 -0.00384144 -1.79922 6.06726 8.12414
60 2 0.187359 -2.49322 10.6815 0.135011
238 2 0.0176528 -4.76912 9.16293 15.6476
252 2 0.139577 -3.70882 10.6624 15.9988
10 4 1.2597 -2.68205 7.79302 13.2305
11 4 1.16923 -3.18876 10.181 11.2936
154 3 -0.821045 0.220011 6.22346 10.7416
28 4 1.55269 -1.15074 10.4565 9.10301
30 4 1.29671 -1.00378 9.47049 14.9464
262 2 0.155294 -4.18135 6.87198 15.3893
46 2 0.0113035 -4.23556 7.05076 13.5834
47 2 0.0584856 -4.91698 10.5047 10.9439
129 1 -0.671435 2.17713 5.70127 15.2045
101 2 0.194537 1.71101 8.62506 12.8881
6 4 1.23981 -1.12155 5.66836 11.5153
20 4 1.46612 1.28214 5.87974 9.55738
164 3 -0.776978 1.21942 7.20333 8.5018
267 2 0.19832 1.95008 6.6095 14.6085
99 2 0.228468 1.77822 7.70135 11.2613
100 2 0.243745 0.180467 8.4699 11.7783
55 2 0.0295952 -1.80015 10.5649 16.0124
175 3 -0.825628 0.241 10.3848 10.1164
132 1 -0.67329 1.33225 8.57512 11.8603
72 2 0.161598 -2.98627 11.7614 12.8936
146 3 -0.824592 -1.72999 6.62301 12.645
147 3 -0.850083 -2.9239 8.99777 12.2346
121 1 -0.666376 -4.02485 11.7943 12.0852
180 3 -0.804649 -4.1059 6.76002 9.55541
157 3 -0.828346 2.8226 5.91231 10.1432
168 3 -0.882596 -2.47939 10.5288 9.95044
172 3 -0.836067 -2.14696 8.40475 14.6489
173 3 -0.871668 0.167315 8.92376 15.8052
174 3 -0.82853 -0.562045 10.5195 13.7656
70 2 0.172915 -5.01228 11.3433 12.5414
61 2 0.190104 -4.04226 10.4822 8.31581
211 2 0.164545 7.85356 1.9742 7.89785
113 2 0.159573 8.62715 6.6524 0.288116
256 2 0.160787 10.7176 3.50071 0.977244
73 2 0.150511 9.10191 2.77158 1.17239
105 2 0.181635 7.29943 4.29196 4.03142
257 1 -0.63179 11.9323 3.4868 1.37049
224 3 -0.764306 11.3567 -0.110984 6.65749
111 2 0.158919 8.41125 5.60342 1.87234
33 4 1.22841 5.58404 5.93522 3.76952
106 2 0.158533 6.18325 4.33619 5.67965
222 3 -0.844713 12.269 1.74145 4.91729
152 3 -0.815784 5.95973 3.25138 0.651491
177 3 -0.802481 5.09715 4.87333 2.60848
192 4 1.27648 13.3037 1.40191 3.77508
223 3 -0.83749 9.73365 0.796099 4.63728
194 4 1.26582 8.58701 1.64248 3.90146
196 4 1.49577 10.9073 1.21129 5.62245
197 4 1.0496 9.91314 3.45484 7.75394
56 2 -0.024439 6.5155 5.95603 6.5836
199 2 -0.047711 9.25722 3.11516 3.52833
200 2 0.0323234 8.35064 4.27717 7.20582
107 2 0.128505 7.57179 5.73696 5.24699
255 2 0.141226 11.9368 3.89385 2.46652
225 3 -0.836303 10.4305 2.40105 6.63924
247 2 0.0369401 12.0707 1.66917 1.43935
264 2 0.174632 8.69571 4.68016 0.777181
219 3 -0.814782 12.8516 0.112032 2.98023
220 3 -0.823458 8.32665 0.934261 2.52845
221 3 -0.788009 7.18182 1.96091 4.66026
134 1 -0.653319 6.78977 4.94578 4.85376
195 4 1.04759 11.6092 -0.681419 8.1497
122 1 -0.66299 8.77282 3.56055 0.350992
198 2 -0.00756615 13.1179 2.79945 2.74118
232 4 1.01393 12.9576 2.50629 0.00674294
22 4 0.986481 6.14025 3.84365 11.9938
148 3 -0.8303 6.34097 -0.999588 16.4551
251 2 -0.0194932 13.2892 -0.677006 10.5562
77 2 0.155835 7.76 1.51068 9.87929
49 2 0.0649329 7.3252 -1.37796 15.0588
79 2 0.14212 8.335 0.929218 11.6241
53 2 0.033565 6.39072 4.45975 13.7152
86 2 0.155487 8.6614 4.56608 13.3936
226 3 -0.861469 10.8144 4.51775 8.43745
124 1 -0.680137 7.60965 0.659557 10.7632
127 1 -0.646798 7.85839 4.73726 12.6162
158 3 -0.784788 5.20746 4.92436 11.1533
17 4 1.23418 5.92571 0.7124 11.6123
207 2 0.137836 11.551 1.11713 9.58273
208 2 0.180276 10.2512 -0.216658 10.231
209 2 0.187593 9.90083 0.855408 8.64651
210 2 0.0876221 9.17493 2.54368 9.51866
13 4 1.03327 6.17397 0.584085 16.6027
215 1 -0.681311 10.6468 0.379832 9.33849
249 2 0.0240186 6.78835 0.252998 9.03409
78 2 0.173496 7.78383 -0.424347 10.3925
233 4 1.18334 11.0988 -0.952522 14.0007
234 2 -0.0145101 9.8126 -0.435225 13.0307
235 3 -0.764045 11.2127 0.265887 15.2382
85 2 0.0613319 7.96152 3.90715 11.2618
265 2 0.141457 8.34712 1.57937 15.9666
248 2 0.0107821 6.77008 1.47607 15.2435
156 3 -0.770986 5.66816 2.33195 12.1596
216 1 -0.669273 13.5569 -0.447678 8.61667
236 3 -0.800254 12.4268 -0.994824 13.0416
217 1 -0.664595 8.18847 2.9121 8.4835
212 2 0.156456 7.28809 3.50304 8.85227
108 2 0.233479 5.86886 9.51264 7.92387
54 2 0.117336 5.1015 7.82376 0.926981
32 4 1.05678 5.86608 12.2459 2.20086
36 4 1.19803 7.46418 7.92305 2.10317
136 1 -0.666916 8.65535 6.63939 1.42854
110 2 0.172121 7.76029 9.04363 7.71253
96 2 0.246506 3.95494 11.8352 5.28707
97 2 0.172901 3.87839 9.9261 5.02228
98 2 0.251129 4.2332 10.7307 6.75997
102 2 0.197506 5.98935 10.1077 3.37039
103 2 0.162175 4.29337 10.9752 3.27033
104 2 0.19661 5.65225 11.5107 4.67155
259 2 0.206291 7.33116 11.293 4.20455
109 2 0.139839 6.4821 8.61171 6.33596
261 1 -0.643094 8.45731 11.4631 4.47032
114 2 0.201248 4.21503 7.21369 7.11943
178 3 -0.799618 4.12669 6.34831 4.74625
116 2 0.193458 3.7415 9.11454 6.78314
131 1 -0.671287 3.68104 10.8157 5.70874
133 1 -0.673458 5.41682 11.0732 3.61477
171 3 -0.803171 1.44125 11.9028 7.02509
137 1 -0.630522 3.57445 8.1175 7.44064
163 3 -0.827181 2.9169 12.537 0.781412
250 2 0.104554 4.47184 12.7902 1.32448
182 3 -0.814135 6.4571 7.14932 3.08217
183 3 -0.75316 8.51079 9.17367 2.77899
184 3 -0.812918 6.44739 8.62139 0.602257
185 3 -0.794285 6.49212 11.2868 1.10363
258 2 0.2194 8.75345 11.2578 5.50552
112 2 0.162632 9.66167 7.06968 1.89427
135 1 -0.663184 6.63249 8.78062 7.5129
162 3 -0.811291 3.07161 9.61766 0.617556
34 4 0.935233 6.6244 6.9907 7.97525
37 4 1.50372 6.88348 10.0326 0.00539576
29 4 1.40529 1.7627 10.7973 5.91849
12 4 1.42106 1.64887 13.2373 1.37082
23 4 1.29678 4.36897 6.16914 10.4434
26 4 1.45784 1.67022 9.0659 16.3292
263 2 0.153814 9.3653 6.01152 14.277
239 2 0.175746 9.04665 6.22156 16.1535
35 4 1.20759 9.12774 6.83619 10.0231
38 4 1.26074 4.34136 10.3712 9.92154
39 4 1.18911 7.86228 8.74641 11.9566
40 4 1.2354 6.4026 11.5998 11.6875
58 2 0.0333982 4.95439 8.74088 9.97797
59 2 -0.00545568 6.54273 7.727 11.6998
240 1 -0.685839 9.50723 6.6729 15.2153
88 2 0.132772 3.2137 8.05899 11.6516
89 2 0.146209 5.18877 8.67713 11.664
90 2 0.144997 4.73836 6.99988 12.5513
237 4 1.07972 8.62312 8.32796 15.0922
271 3 -0.788893 7.52129 8.3399 16.1782
128 1 -0.67631 4.53158 7.74674 11.613
176 3 -0.829461 1.62298 11.3734 12.563
245 3 -0.857395 2.61987 9.25154 15.0591
179 3 -0.744247 5.22422 6.67647 9.15295
269 2 0.128753 7.34303 11.819 8.93572
181 3 -0.798769 7.93425 6.76085 8.88815
186 3 -0.802664 4.80713 10.9373 8.48974
187 3 -0.837871 2.76418 10.3581 10.0999
188 3 -0.826034 8.90891 8.20761 10.8557
189 3 -0.814588 8.37373 8.52555 13.4684
190 3 -0.903101 5.08582 11.0341 11.1012
191 3 -0.819412 7.3319 10.2969 11.7452
241 4 1.2693 4.11982 9.4964 14.514
242 2 0.00442196 4.09058 9.21731 12.8785
243 3 -0.822186 5.08437 8.37849 15.1873
244 3 -0.81997 4.57194 11.0232 14.6753
87 2 0.141196 7.70814 5.81759 12.3805
115 2 0.205519 3.49986 8.29151 8.54594
31 4 1.33624 1.47371 10.3176 11.0205
16 4 1.23676 0.501196 11.7515 13.5319
57 2 -0.00385051 8.77326 5.47504 11.0822
92 2 0.137822 3.23689 5.32096 15.0693
ITEM: TIMESTEP
100
ITEM: NUMBER OF ATOMS
271
ITEM: BOX BOUNDS xy xz yz pp pp pp
-7.1874962000000000e+00 1.4719202599999999e+01 -6.1848055999999998e+00
-1.8606000000000000e+00 1.3431800000000001e+01 -1.0026906000000000e+00
0.0000000000000000e+00 1.6609600000000000e+01 -1.8606000000000000e+00
ITEM: ATOMS id type q x y z
3 4 1.20275 0.917455 1.37659 5.53964
4 4 1.11698 -0.0294872 3.78828 7.5275
214 1 -0.687477 4.773 3.18864 6.2517
21 4 1.21741 2.91569 5.68101 4.91014
41 2 -0.0188696 2.60729 1.29554 5.19333
50 2 0.0189725 3.62058 2.66857 1.65668
52 2 0.0150852 3.11565 4.10444 5.64091
254 2 0.0947428 -2.02707 4.49058 0.148194
69 2 0.128616 -2.07272 5.05428 6.90966
82 2 0.141941 -0.818135 5.92795 1.62476
227 4 0.99847 1.32131 1.85469 0.595422
231 3 -0.799944 -0.247197 2.11378 0.286711
83 2 0.160853 0.202775 4.29907 1.83597
84 2 0.15743 0.49234 5.52925 0.2888
120 1 -0.689678 -1.02479 5.42612 6.56552
126 1 -0.657512 0.135521 5.41073 1.40554
138 3 -0.845359 0.0700439 1.37121 4.1624
139 3 -0.779426 0.602988 0.0348859 6.38879
140 3 -0.792725 0.710609 2.71317 6.50493
229 2 0.0208161 1.86735 2.96927 1.8882
14 4 1.27621 6.34146 -0.680636 7.67586
155 3 -0.792856 1.96921 5.42147 3.58518
201 2 0.200519 5.25965 0.447016 3.52873
202 2 0.122077 3.57704 1.58849 3.84746
203 2 0.247532 3.80391 -0.0482777 4.85784
206 2 0.151351 3.74375 2.72476 6.51622
213 1 -0.669004 4.33181 0.844099 4.2553
218 3 -0.807133 6.0106 0.523152 6.60259
67 2 0.184211 -0.836016 5.44701 5.50957
193 4 1.1269 5.65701 1.61696 5.49262
230 3 -0.816947 1.90469 0.442975 0.93919
65 2 0.175136 -2.17485 3.19783 7.81784
268 2 0.256168 -0.464473 -0.239334 7.83488
18 4 0.977579 4.82129 3.99344 1.27364
125 1 -0.655041 2.75792 3.65685 0.359335
80 2 0.168047 1.80394 4.42386 0.730663
266 2 0.0189709 4.04192 5.07082 0.0985077
149 3 -0.766645 2.74575 -0.0997612 8.24925
15 4 1.05882 3.40219 0.717973 9.59684
75 2 0.184265 4.29583 2.92048 9.31757
151 3 -0.793623 5.58446 -0.373517 12.837
42 2 -0.0328483 -0.824735 4.41917 12.4184
48 2 -0.0173349 2.13908 1.28988 10.5434
71 2 0.132763 1.59026 -1.09065 11.4223
5 4 1.2094 -3.13475 5.60827 9.26812
66 2 0.185607 -1.27437 3.19447 9.54272
150 3 -0.840441 4.70757 0.473493 10.358
141 3 -0.854026 -2.32206 5.16631 10.5807
76 2 0.170835 2.72338 2.92285 10.4492
153 3 -0.789891 0.890395 4.43188 8.67303
81 2 0.14513 2.12977 1.94043 15.9523
270 2 0.143113 -0.743166 0.136069 9.64704
74 2 0.223564 2.45543 2.79971 8.55528
123 1 -0.655511 3.2033 2.59473 9.43167
228 2 0.0329425 1.13964 0.565255 15.6677
119 1 -0.651931 -1.26345 2.76322 8.51024
64 2 0.193039 -1.1981 1.5617 8.41844
167 3 -0.805948 -1.03883 11.7147 7.93817
2 4 1.20382 -4.15474 12.4188 6.99143
8 4 0.957252 -2.24957 8.63385 7.00404
9 4 1.40364 -2.5266 10.5702 4.78318
253 2 0.159297 -1.65916 12.0558 0.99124
260 2 0.230806 -5.79079 12.5057 4.07582
166 3 -0.746808 -1.29668 8.91984 8.23337
25 4 1.35763 0.0480769 11.2294 3.16215
27 4 1.34595 1.89754 7.60955 7.00607
165 3 -0.857248 2.07881 6.37126 5.99321
44 2 -0.0203509 -2.26436 6.98519 6.56134
45 2 -0.0104231 -3.82479 9.03797 7.46698
51 2 -0.00649525 0.253786 7.62905 3.09589
1 4 1.07289 -3.78788 12.5486 1.61794
63 2 0.159018 -5.87071 11.3068 8.04839
170 3 -0.779298 1.39676 9.17713 6.47293
93 2 0.152948 -0.590917 8.94201 2.56556
94 2 0.19943 1.28678 9.04516 2.81351
95 2 0.214175 0.519763 9.68418 1.20439
117 1 -0.66787 -2.56103 11.9459 0.177964
118 1 -0.698055 -4.90256 10.8119 7.64719
130 1 -0.666948 0.383868 9.49715 2.34728
142 3 -0.756445 -4.79463 11.4488 1.95303
143 3 -0.823455 -3.82832 9.79424 4.04632
144 3 -0.789609 -1.77185 9.46993 5.69489
145 3 -0.806033 -3.1775 11.9757 5.75228
159 3 -0.767479 2.36662 7.0942 1.47662
160 3 -0.878234 0.419142 12.3219 2.00784
161 3 -0.838763 -1.4548 11.2996 3.69678
68 2 0.208904 -0.464581 6.20559 7.12729
62 2 0.15591 -5.24916 9.97543 7.03203
169 3 -0.814789 1.02321 11.0583 4.5422
29 4 1.41128 1.57967 10.7094 5.99677
24 4 1.01462 3.48888 8.16421 0.591307
43 2 -0.000770671 -1.8919 6.19194 8.2291
19 4 1.01125 1.32176 6.45624 2.46921
246 2 0.019871 -2.78668 13.0507 2.94999
238 2 0.0325924 -5.04249 9.90448 15.5585
252 2 0.160971 -3.70006 10.92 16.0013
10 4 1.2713 -2.611 7.7672 13.2038
11 4 1.16 -3.40237 10.1096 11.277
154 3 -0.806127 0.198044 6.17997 10.6604
28 4 1.48643 -1.06344 10.4538 9.03409
30 4 1.31097 -1.04401 9.60755 15.0421
262 2 0.130885 -4.06455 6.98836 15.6501
46 2 -0.0172103 -3.86186 6.73974 13.7753
47 2 0.0703603 -5.1144 10.5213 10.9973
129 1 -0.657149 2.21281 5.92875 15.3881
101 2 0.183216 1.78815 8.45344 12.9255
6 4 1.22986 -1.11559 5.68806 11.5037
20 4 1.47377 1.28488 5.97108 9.48904
164 3 -0.797315 1.19325 7.19343 8.41426
267 2 0.196288 2.35292 6.84092 14.7075
99 2 0.224814 1.87681 7.78959 11.178
100 2 0.268719 0.257637 8.30871 11.9723
55 2 0.0240928 -1.87036 10.7965 16.0502
175 3 -0.819777 0.267386 10.4514 10.0961
132 1 -0.693969 1.36906 8.48316 11.8941
72 2 0.196615 -2.92901 11.9877 12.5091
146 3 -0.826929 -1.50174 6.80883 12.5885
147 3 -0.809904 -3.22544 8.85759 12.1935
121 1 -0.685096 -4.02011 11.6509 12.1932
180 3 -0.802242 -4.14269 6.87227 9.55202
157 3 -0.841709 2.81996 5.97746 10.0857
168 3 -0.817796 -2.44512 10.4122 10.0638
172 3 -0.831098 -2.07907 8.58975 14.4719
173 3 -0.871221 0.152778 8.97981 15.8364
174 3 -0.828856 -0.536392 10.407 13.7503
70 2 0.18036 -4.71766 11.2198 12.972
16 4 1.20024 0.330154 11.721 13.4262
92 2 0.125623 3.1064 5.15956 15.3275
91 2 0.181793 1.23843 5.45992 15.2489
60 2 0.156309 -3.72661 9.03641 16.3752
61 2 0.18199 -4.21297 10.5573 8.53523
205 2 0.150359 5.35816 3.38832 7.25189
13 4 1.0497 7.31724 2.41014 0.0778671
256 2 0.167798 10.8799 3.59322 0.905229
73 2 0.123305 9.11495 2.84303 1.34168
105 2 0.184515 7.14981 4.36571 4.33321
257 1 -0.64558 12.0453 3.62698 1.21602
224 3 -0.769861 11.3681 -0.219433 6.53964
111 2 0.159618 8.71967 5.85894 2.14305
33 4 1.27205 5.64964 6.09453 3.69755
106 2 0.158022 6.19816 4.77478 5.86529
222 3 -0.844187 12.2771 1.57193 4.89881
152 3 -0.808135 6.05706 3.19596 0.639699
177 3 -0.801344 5.26352 4.98497 2.4694
192 4 1.28707 13.3218 1.28902 3.69872
223 3 -0.828752 9.60876 0.91203 4.67598
194 4 1.25209 8.474 1.6708 3.89202
196 4 1.48743 10.9666 1.15435 5.66285
197 4 0.972483 9.83782 3.37094 7.77063
113 2 0.177014 8.09164 6.20956 0.426794
199 2 -0.0457422 9.08561 3.14813 3.51786
200 2 0.0395004 8.1497 3.97148 7.16531
107 2 0.154598 7.58252 5.98326 5.26146
255 2 0.159649 12.2327 4.11407 2.16484
225 3 -0.825038 10.5159 2.3488 6.66582
247 2 0.0180119 11.9473 1.72127 1.30639
264 2 0.175508 8.91344 4.58554 0.397025
219 3 -0.824691 12.9595 0.0601498 2.8098
220 3 -0.853353 8.10935 0.935431 2.49921
221 3 -0.787421 7.05702 2.01765 4.61889
134 1 -0.668529 6.78831 5.23186 4.9879
195 4 1.04723 11.6297 -0.607369 8.13038
122 1 -0.675383 8.99605 3.44765 0.224438
198 2 0.00262827 12.9688 2.58486 2.57337
204 2 0.145426 4.87206 4.09998 5.57052
22 4 0.988927 6.23296 3.86961 11.9318
148 3 -0.827287 6.31905 -1.01653 16.4373
251 2 0.00713614 13.3683 -0.690308 10.6508
77 2 0.163229 7.74093 1.40244 10.0718
49 2 0.0590239 7.07222 -1.27238 14.9689
79 2 0.171831 8.30468 0.776593 11.7125
53 2 0.0393791 6.19844 4.6085 13.5969
86 2 0.161071 8.51919 4.43771 13.5432
226 3 -0.839524 10.7441 4.49072 8.53069
124 1 -0.659227 7.60899 0.57027 10.8907
127 1 -0.643017 7.81216 4.78567 12.7655
158 3 -0.800972 5.26825 4.89772 11.1582
17 4 1.31473 5.79733 0.67247 11.5711
207 2 0.147387 11.2378 1.33023 9.30999
208 2 0.199284 10.3269 -0.0566234 10.238
209 2 0.165228 9.50042 0.544318 8.63871
210 2 0.114802 8.86976 2.31634 9.02896
212 2 0.166396 7.90565 3.94017 9.38066
215 1 -0.675397 10.536 0.396032 9.23488
249 2 0.00277856 6.8995 0.059383 9.11013
78 2 0.195767 7.77796 -0.457111 10.5108
233 4 1.24644 11.0127 -0.95383 14.0658
234 2 -0.00251419 9.6759 -0.53519 13.0845
235 3 -0.815025 11.1495 0.124433 15.1983
85 2 0.0530783 8.03094 4.07263 11.2299
265 2 0.155965 8.79696 1.23133 16.0962
248 2 0.019058 6.91366 1.30549 15.22
156 3 -0.791085 6.04736 2.18496 11.9587
216 1 -0.678395 13.6139 -0.456446 8.77343
236 3 -0.791237 12.3626 -1.03216 13.0906
217 1 -0.676301 7.98886 3.0502 8.72407
232 4 1.02453 11.9503 0.544895 16.5847
211 2 0.165144 7.02629 2.49425 8.58071
108 2 0.221732 5.97533 9.48843 8.01397
54 2 0.093645 5.09635 8.0341 1.15553
32 4 1.06875 5.90842 12.2312 2.01587
36 4 1.24354 7.61306 8.01096 2.06698
136 1 -0.668625 8.64169 6.60104 1.31238
110 2 0.172403 7.68725 9.04183 7.54951
96 2 0.244019 3.468 11.9575 5.27491
97 2 0.15985 3.84849 10.0587 5.13014
98 2 0.282574 4.05267 11.0117 6.91926
102 2 0.201567 5.92361 10.2567 3.71397
103 2 0.153159 4.21189 11.227 3.21563
104 2 0.222153 5.55351 11.9786 4.42116
259 2 0.219973 7.37483 11.4178 4.11638
109 2 0.167214 6.26653 8.40235 6.44827
261 1 -0.65348 8.51724 11.4988 4.39142
114 2 0.204385 4.39583 7.27533 6.90129
178 3 -0.812694 4.35796 6.45601 4.62
116 2 0.190171 3.87242 9.22078 6.78896
131 1 -0.630887 3.55209 10.9786 5.83874
133 1 -0.671231 5.43056 11.2613 3.57164
171 3 -0.796938 1.431 11.8021 7.1486
137 1 -0.649336 3.76645 8.1054 7.28882
163 3 -0.849546 2.94494 12.4456 1.0004
250 2 0.0988276 4.4725 12.8529 1.29595
182 3 -0.780811 6.52914 7.36242 3.27692
183 3 -0.789927 8.55477 9.10899 2.80476
184 3 -0.762569 6.66645 8.40873 0.61261
185 3 -0.822037 6.53552 11.2275 0.971085
258 2 0.186391 8.76655 11.2691 5.50877
112 2 0.156547 9.67741 6.98427 0.965666
135 1 -0.676801 6.6175 8.74395 7.48629
162 3 -0.804309 3.09914 9.67206 0.716695
34 4 1.01254 6.66797 6.94321 8.23325
7 4 1.25843 9.5236 10.3057 3.33616
56 2 -0.00968881 6.46574 6.21628 6.70852
12 4 1.43692 1.62694 13.2169 1.44293
23 4 1.29504 4.37947 6.11093 10.3594
26 4 1.43112 1.64069 9.14223 16.4033
263 2 0.156306 9.53302 6.07722 14.4237
239 2 0.176829 8.86387 6.37595 16.1519
35 4 1.21406 9.09867 6.9428 10.1055
38 4 1.27573 4.32368 10.4712 9.90079
39 4 1.18044 7.69566 8.78002 11.9824
40 4 1.21999 6.33652 11.5362 11.7352
58 2 0.0126183 5.01194 8.90765 9.95558
59 2 -0.0124251 6.47798 7.56257 11.7917
240 1 -0.680703 9.57121 6.76804 15.2813
88 2 0.146025 3.29416 8.11261 11.6389
89 2 0.116749 5.20838 8.78663 11.7562
90 2 0.128083 4.87295 6.88773 12.3867
237 4 1.09819 8.75988 8.42802 15.0186
271 3 -0.791178 7.50263 8.39617 15.9888
128 1 -0.650304 4.5534 7.85663 11.5408
176 3 -0.815901 1.50514 11.5144 12.3928
245 3 -0.852801 2.67823 9.31163 15.1375
179 3 -0.80768 5.33016 6.5603 9.18509
269 2 0.142161 7.32617 11.8137 9.02287
181 3 -0.840413 8.02085 6.73637 8.93774
186 3 -0.808924 4.86223 11.0341 8.50653
187 3 -0.82794 2.79191 10.2536 10.1996
188 3 -0.821722 8.79591 8.3315 10.8802
189 3 -0.803092 8.29521 8.62227 13.5288
190 3 -0.890885 4.90558 11.3205 11.0278
191 3 -0.856818 7.31394 10.3123 11.6628
241 4 1.26716 4.13567 9.49528 14.5312
242 2 -0.00643562 3.90523 9.18216 12.8416
243 3 -0.837394 5.17114 8.40628 15.1314
244 3 -0.839121 4.55473 11.0518 14.6617
87 2 0.143907 7.8582 5.89955 12.7134
115 2 0.192949 3.88758 8.21487 8.3919
31 4 1.33789 1.44426 10.2191 11.0849
37 4 1.51293 5.99457 8.26734 16.4837
57 2 -0.0160454 8.76193 5.65571 11.3139
ITEM: TIMESTEP
200
ITEM: NUMBER OF ATOMS
271
ITEM: BOX BOUNDS xy xz yz pp pp pp
-7.1730923999999980e+00 1.4689705199999999e+01 -6.1724111999999991e+00
-1.8606000000000000e+00 1.3431800000000001e+01 -1.0006811999999989e+00
0.0000000000000000e+00 1.6609600000000000e+01 -1.8606000000000000e+00
ITEM: ATOMS id type q x y z
3 4 1.22193 0.907835 1.4314 5.50725
4 4 1.13895 0.0154753 3.82048 7.52495
214 1 -0.652358 4.95112 3.09908 5.95963
21 4 1.21966 2.96643 5.69764 4.89998
41 2 -0.0157 2.556 1.31447 4.94343
50 2 0.0133408 3.56758 3.06955 2.01966
52 2 -0.00572091 3.28812 4.0428 5.43163
254 2 0.113938 -1.83478 4.42844 0.426576
69 2 0.138273 -2.05414 5.28693 6.44819
82 2 0.140052 -0.512529 6.17893 1.2485
227 4 0.961564 1.39243 1.87297 0.623627
231 3 -0.791899 -0.185035 2.10216 0.329591
83 2 0.167045 0.249751 4.50714 1.80164
84 2 0.145437 0.858073 5.36925 0.107696
120 1 -0.679922 -0.937496 5.42814 6.55174
126 1 -0.663498 0.374615 5.48596 1.21211
138 3 -0.856123 -0.0114508 1.56316 4.22133
139 3 -0.795999 0.616012 0.132843 6.37056
140 3 -0.793407 0.66218 2.77764 6.44663
229 2 0.0239134 1.81463 3.07696 1.85978
14 4 1.33143 6.19721 -0.751593 7.73716
155 3 -0.787917 1.99132 5.47473 3.57261
201 2 0.175767 5.19905 0.151202 3.62251
202 2 0.126353 3.79608 1.49707 3.59483
203 2 0.238002 3.5195 -0.134339 4.82366
206 2 0.12869 3.89052 2.52999 6.05756
213 1 -0.671425 4.26078 0.698279 4.26252
218 3 -0.855883 5.75345 0.320264 6.68371
67 2 0.195764 -0.383605 5.39825 5.57678
193 4 1.16309 5.73635 1.30829 5.46861
230 3 -0.816617 1.9285 0.42773 1.12178
198 2 0.0187534 -1.44404 2.73244 2.57797
268 2 0.273006 -0.564448 -0.114709 7.63452
18 4 0.977915 4.92864 4.03833 1.29852
125 1 -0.659939 2.93382 3.71321 0.411415
80 2 0.168669 1.9701 4.39421 0.596783
204 2 0.156904 4.97136 3.89825 5.14272
149 3 -0.79499 2.68634 -0.0848353 8.29521
15 4 1.09018 3.32094 0.718154 9.51672
75 2 0.157314 4.16558 2.774 8.97151
151 3 -0.790041 5.61581 -0.276138 12.8216
42 2 -0.0359482 -0.456747 4.5612 12.5888
48 2 -0.00965864 2.19486 1.33615 10.6178
71 2 0.142089 1.36416 -1.10628 11.7323
5 4 1.16836 -3.09445 5.61028 9.4234
66 2 0.174339 -0.813958 3.16946 9.60578
150 3 -0.813336 4.63666 0.403386 10.321
141 3 -0.813465 -2.43908 5.03959 10.7994
76 2 0.213367 2.69115 3.11533 10.1085
153 3 -0.804658 1.02165 4.46589 8.57163
81 2 0.136952 2.32705 1.82708 15.9554
270 2 0.130679 -1.18727 0.343062 9.45353
74 2 0.228917 2.3384 2.61601 8.33011
123 1 -0.671906 3.02633 2.55124 9.22631
228 2 0.0166023 1.45896 0.444995 15.8953
119 1 -0.66164 -1.15849 2.81635 8.57022
64 2 0.17484 -1.2238 1.58182 8.52833
72 2 0.191771 3.01279 -1.23917 12.5313
91 2 0.155639 1.68394 4.86854 15.4128
65 2 0.18928 -2.23823 3.15957 8.31973
266 2 0.0293123 3.17788 3.17446 16.5427
167 3 -0.837365 -1.01738 11.6531 8.27522
2 4 1.22376 -4.10173 12.4692 6.98675
8 4 0.994445 -2.29517 8.64106 6.9679
9 4 1.45793 -2.60283 10.4811 4.69924
253 2 0.163539 -1.56121 11.9369 0.889605
260 2 0.216556 -6.04033 12.0399 4.6256
166 3 -0.754652 -1.32529 8.87527 8.18132
25 4 1.33092 0.0511058 11.158 3.12042
27 4 1.3538 1.89091 7.72021 7.02363
165 3 -0.826471 2.12588 6.54868 5.88122
44 2 -0.013853 -2.16837 6.99102 6.60573
45 2 -0.0148545 -3.92271 8.87326 7.3888
51 2 0.0182977 0.63623 7.75269 3.14043
1 4 1.07541 -3.65061 12.5174 1.62977
19 4 1.04137 1.49818 6.50288 2.38807
170 3 -0.752573 1.39952 9.12857 6.35778
93 2 0.166901 -0.513809 8.76884 2.66742
94 2 0.20899 1.41954 9.2481 2.45388
95 2 0.200673 0.103045 9.65688 1.17749
117 1 -0.67314 -2.53933 11.7555 0.217532
118 1 -0.665904 -4.71619 10.819 7.645
130 1 -0.676822 0.294983 9.48226 2.24738
142 3 -0.796875 -4.64534 11.3039 2.02351
143 3 -0.852564 -3.79957 9.90664 3.86355
144 3 -0.825898 -1.93481 9.40881 5.66036
145 3 -0.82479 -3.27657 11.9678 5.71221
159 3 -0.828756 2.57864 7.27548 1.566
160 3 -0.843236 0.331415 12.4807 1.99696
161 3 -0.830215 -1.47895 11.0042 3.59524
68 2 0.201573 -0.576121 6.20823 7.31571
62 2 0.13883 -4.70638 10.2283 6.56719
169 3 -0.806429 1.03733 11.1426 4.42112
29 4 1.34441 1.6857 10.8353 5.91223
246 2 0.0276044 -2.4609 12.9075 2.83042
24 4 1.10358 3.46044 8.20511 0.653124
63 2 0.149255 -5.79649 11.2092 7.94686
43 2 0.00287933 -1.79628 5.92609 8.24661
238 2 0.0137287 -4.83808 9.78407 15.3389
252 2 0.137549 -3.61203 10.6894 15.9794
10 4 1.26874 -2.57666 7.79692 13.1863
11 4 1.15212 -3.5092 10.2047 11.3004
154 3 -0.822362 0.145324 5.974 10.5131
28 4 1.54318 -1.13794 10.3435 9.20761
30 4 1.27828 -1.06815 9.58853 15.0198
262 2 0.151346 -4.04156 6.96996 15.2657
46 2 -0.0102895 -3.94517 6.80058 13.5365
47 2 0.0621056 -5.22217 10.5318 11.1922
129 1 -0.662137 2.43458 5.7495 15.4504
101 2 0.192862 1.36677 8.81512 12.9753
6 4 1.18278 -1.0744 5.70163 11.5539
20 4 1.45971 1.35468 5.87248 9.45544
164 3 -0.798806 1.25121 7.1494 8.428
267 2 0.185554 2.10447 6.66678 14.7488
99 2 0.19321 1.82057 7.59207 11.5942
100 2 0.286358 0.219377 8.33675 11.5275
55 2 0.011941 -1.92879 10.7087 16.0269
175 3 -0.860484 0.107556 10.2306 10.2146
132 1 -0.664149 1.26441 8.52252 11.8105
61 2 0.202707 -4.13466 10.3581 8.50904
146 3 -0.824039 -1.49644 7.02989 12.3688
147 3 -0.790914 -3.18561 8.90498 12.2243
121 1 -0.690962 -4.14746 11.6608 12.3392
180 3 -0.779527 -4.00828 7.02562 9.58601
157 3 -0.810121 2.96454 5.8026 10.1423
168 3 -0.824308 -2.59819 10.474 10.068
172 3 -0.833668 -2.05389 8.35583 14.6269
173 3 -0.878191 0.110667 9.12845 15.9379
174 3 -0.837845 -0.656258 10.5311 13.7462
70 2 0.165138 -4.60963 11.2129 13.3572
16 4 1.24087 0.225618 11.7779 13.3805
60 2 0.182382 -3.62746 8.79816 16.5781
205 2 0.156109 5.34481 3.44933 6.94449
136 1 -0.673857 8.65371 6.40986 1.53375
256 2 0.179053 11.0049 3.55468 0.897419
73 2 0.127453 9.19853 2.71125 1.3176
105 2 0.167807 7.38278 4.52677 4.0967
257 1 -0.653293 12.0429 3.57785 1.29596
224 3 -0.76579 11.4261 -0.234423 6.51843
111 2 0.166957 8.13852 5.5528 2.11945
33 4 1.2862 5.67088 6.14781 3.72582
106 2 0.166984 6.58381 4.68535 5.81765
222 3 -0.854781 11.9979 1.60636 4.5407
152 3 -0.820385 6.16836 3.20118 0.646124
177 3 -0.794731 5.34548 5.08301 2.44842
192 4 1.2925 13.2881 1.34829 3.62089
223 3 -0.800587 9.49417 0.825952 4.83294
194 4 1.29599 8.4954 1.65349 3.95189
196 4 1.44971 10.9215 1.14627 5.64889
197 4 0.955893 9.79816 3.29089 7.9897
113 2 0.169897 8.46317 6.31045 0.4618
199 2 -0.0437168 9.124 3.19888 3.67535
200 2 0.0397339 8.32682 4.14129 7.32828
232 4 1.01936 12.9381 2.30231 0.0539904
255 2 0.148218 12.0431 3.96017 2.39198
225 3 -0.800928 10.3556 2.20285 6.85213
247 2 0.0120868 11.8388 1.6681 1.29835
264 2 0.164564 8.94194 4.5934 0.643393
219 3 -0.844946 12.9563 0.07213 2.70261
220 3 -0.874241 8.25739 1.0211 2.58752
221 3 -0.799321 7.09684 1.88608 4.77577
134 1 -0.665516 6.98534 5.25045 4.89302
195 4 1.04577 11.5558 -0.599509 8.10686
122 1 -0.658127 9.11329 3.44485 0.198378
12 4 1.43126 7.81124 -0.0557121 1.45675
211 2 0.162278 7.16661 2.11701 8.25865
22 4 0.982277 6.19773 3.93906 11.8587
148 3 -0.843734 6.54477 -0.882961 16.4199
251 2 -0.0249268 13.3902 -0.918442 10.5267
77 2 0.150754 7.71762 1.41598 10.0488
49 2 0.0672856 7.06927 -1.17157 14.8472
79 2 0.170276 8.23367 0.482852 11.7442
53 2 0.0663734 6.58738 4.39093 13.6692
86 2 0.159319 8.78637 4.51287 13.2095
226 3 -0.82497 10.7542 4.47507 8.66286
124 1 -0.670744 7.56499 0.468433 10.8493
127 1 -0.648521 7.84959 4.83399 12.7056
158 3 -0.801523 5.13539 5.04325 11.2914
17 4 1.27273 5.79001 0.778187 11.5029
207 2 0.132203 11.2591 1.21581 9.57047
208 2 0.209287 10.0837 -0.278656 10.0901
209 2 0.186195 9.58511 0.918361 8.63117
210 2 0.0995771 8.76566 2.47961 9.363
212 2 0.155492 7.32928 3.83269 9.16404
215 1 -0.668492 10.4393 0.415274 9.20971
249 2 -0.000320588 6.90351 0.155939 9.00322
78 2 0.172298 7.52443 -0.543739 10.3795
233 4 1.26343 11.101 -0.986994 14.1784
234 2 -0.00268464 9.75475 -0.464855 13.2938
235 3 -0.823132 11.2602 0.157592 15.2064
85 2 0.0385324 7.91557 3.99739 11.1207
265 2 0.163426 9.02742 1.41783 16.1192
248 2 0.0229288 7.10492 1.41058 15.2277
156 3 -0.79809 5.87992 2.31132 11.9578
216 1 -0.675501 13.4685 -0.406946 8.58379
236 3 -0.781004 12.3064 -0.975257 13.0995
217 1 -0.665903 7.84787 2.94364 8.67895