ITEM: TIMESTEP
0
ITEM: NUMBER OF ATOMS
271
ITEM: BOX BOUNDS xy xz yz pp pp pp
-7.2018999999999993e+00 1.4748699999999999e+01 -6.1971999999999996e+00
-1.8606000000000000e+00 1.3431800000000001e+01 -1.0046999999999999e+00
0.0000000000000000e+00 1.6609600000000000e+01 -1.8606000000000000e+00
ITEM: ATOMS id type q x y z
3 4 1.22985 0.918684 1.37658 5.5999
4 4 1.1403 -0.0229973 3.77292 7.48607
214 1 -0.699164 4.66349 2.99694 6.43153
21 4 1.22034 2.76544 5.62105 4.966
41 2 -0.00252945 2.56883 1.46643 5.13062
50 2 0.0174777 3.50097 2.81458 1.76176
52 2 0.00232018 3.15936 4.02029 5.69492
266 2 0.0177665 4.07074 5.12158 0.0847178
69 2 0.136888 -2.05889 5.45183 6.29809
82 2 0.123145 -0.882954 6.06849 1.87388
227 4 0.994709 1.28868 1.97439 0.511212
231 3 -0.805764 -0.174296 2.23066 0.080379
83 2 0.17215 -0.153443 4.34956 1.36133
84 2 0.158997 0.324244 5.83529 0.387976
120 1 -0.677529 -0.97178 5.32242 6.51184
126 1 -0.664855 0.0236897 5.42896 1.4217
138 3 -0.83419 0.0961609 1.3238 4.18125
139 3 -0.784639 0.729671 0.0150083 6.41863
140 3 -0.835747 0.652524 2.68867 6.49862
229 2 0.0349368 1.53359 3.20067 1.79039
14 4 1.35276 6.39561 -0.649807 7.58469
155 3 -0.778538 1.92683 5.33219 3.49752
201 2 0.179346 5.08489 0.596146 3.50158
202 2 0.122477 3.65304 1.79251 3.7357
203 2 0.256035 3.74569 0.0262069 4.8955
206 2 0.15009 3.63516 2.57398 6.31315
213 1 -0.67907 4.27455 0.936159 4.27601
218 3 -0.855444 5.97244 0.491178 6.63202
67 2 0.173966 -0.461075 4.91888 5.57158
193 4 1.12418 5.70929 1.55413 5.50215
230 3 -0.817072 1.89276 0.569299 1.06648
65 2 0.215452 -2.16366 3.04736 7.43824
268 2 0.266585 -0.463015 -0.264965 7.74459
18 4 1.00522 4.75818 4.01529 1.32057
125 1 -0.643271 2.70755 3.79707 0.351419
80 2 0.172095 1.78132 4.53757 0.763326
74 2 0.202437 2.59077 2.61095 8.20096
119 1 -0.663936 -1.42699 2.82344 8.26731
254 2 0.0863552 -1.9802 4.48439 0.388114
19 4 0.975479 1.30391 6.42323 2.45411
246 2 0.0346574 3.64116 -0.255129 2.79515
205 2 0.168648 4.98839 3.06177 7.44808
204 2 0.143139 4.7595 3.96496 5.97986
15 4 1.08304 3.46953 0.722443 9.59045
75 2 0.149515 4.28035 2.81663 9.11804
151 3 -0.791285 5.88253 -0.358239 12.9146
42 2 -0.0186338 -0.515033 4.27498 12.2228
48 2 -0.000549229 2.18558 1.38183 10.5876
71 2 0.165584 2.12024 -0.776155 11.4267
5 4 1.2135 -3.03905 5.57936 9.20137
66 2 0.185019 -1.53797 3.49953 9.19161
149 3 -0.815484 2.853 -0.17919 8.31373
141 3 -0.846993 -2.25331 5.10569 10.5556
76 2 0.211781 2.56788 3.17836 10.0232
153 3 -0.816071 0.857664 4.52346 8.63554
81 2 0.13935 1.9929 2.20433 15.8629
270 2 0.12985 -0.957302 0.19038 9.55149
91 2 0.163124 1.35584 4.88041 15.2768
123 1 -0.659535 3.06105 2.52949 9.26112
228 2 0.0337899 1.32253 0.528374 15.7278
150 3 -0.806064 4.75412 0.445555 10.3743
64 2 0.185791 -1.30037 1.63488 8.5086
167 3 -0.821639 -0.857185 11.713 8.1075
2 4 1.27071 -4.01198 12.4696 7.124
8 4 0.999392 -2.12377 8.7409 6.86919
9 4 1.39527 -2.55507 10.754 4.74866
253 2 0.169738 -1.54573 12.1534 1.03127
260 2 0.248079 -5.94641 12.4899 4.14701
166 3 -0.800326 -1.30832 9.0174 8.12375
25 4 1.34121 0.0372878 11.2172 3.26382
27 4 1.33587 1.74208 7.70796 7.02881
165 3 -0.826759 1.86535 6.378 5.98288
44 2 -0.0315775 -1.99087 7.02218 6.52149
45 2 -0.00980141 -3.71612 8.96944 7.36782
51 2 -0.00188883 0.146202 7.50755 3.08377
1 4 1.09054 -3.71603 12.6307 1.6476
63 2 0.159751 -5.78582 10.9654 7.67008
170 3 -0.796472 1.47586 9.16646 6.31122
93 2 0.165886 -0.832275 8.85611 2.65225
94 2 0.186479 1.04538 9.06739 3.17238
95 2 0.210998 0.446374 9.5925 1.43845
117 1 -0.654104 -2.46044 11.803 0.319168
118 1 -0.698779 -4.70992 10.6934 7.44236
130 1 -0.664706 0.179189 9.42325 2.5504
142 3 -0.828217 -4.54674 11.4547 2.16931
143 3 -0.79974 -4.05657 9.93131 4.34885
144 3 -0.819304 -1.81977 9.57697 5.56671
145 3 -0.820278 -3.20469 12.1953 5.77485
159 3 -0.765482 2.39962 7.21674 1.38216
160 3 -0.849017 0.50631 12.3242 2.10715
161 3 -0.855757 -1.59135 11.2923 3.548
68 2 0.192572 -0.451742 6.25815 6.97914
62 2 0.18318 -4.57768 9.95569 6.55824
169 3 -0.819538 1.07915 11.2445 4.57127
7 4 1.30813 -5.16812 10.4308 3.26189
24 4 1.05185 3.39806 8.07867 0.424431
43 2 -0.00384144 -1.79922 6.06726 8.12414
60 2 0.187359 -2.49322 10.6815 0.135011
238 2 0.0176528 -4.76912 9.16293 15.6476
252 2 0.139577 -3.70882 10.6624 15.9988
10 4 1.2597 -2.68205 7.79302 13.2305
11 4 1.16923 -3.18876 10.181 11.2936
154 3 -0.821045 0.220011 6.22346 10.7416
28 4 1.55269 -1.15074 10.4565 9.10301
30 4 1.29671 -1.00378 9.47049 14.9464
262 2 0.155294 -4.18135 6.87198 15.3893
46 2 0.0113035 -4.23556 7.05076 13.5834
47 2 0.0584856 -4.91698 10.5047 10.9439
129 1 -0.671435 2.17713 5.70127 15.2045
101 2 0.194537 1.71101 8.62506 12.8881
6 4 1.23981 -1.12155 5.66836 11.5153
20 4 1.46612 1.28214 5.87974 9.55738
164 3 -0.776978 1.21942 7.20333 8.5018
267 2 0.19832 1.95008 6.6095 14.6085
99 2 0.228468 1.77822 7.70135 11.2613
100 2 0.243745 0.180467 8.4699 11.7783
55 2 0.0295952 -1.80015 10.5649 16.0124
175 3 -0.825628 0.241 10.3848 10.1164
132 1 -0.67329 1.33225 8.57512 11.8603
72 2 0.161598 -2.98627 11.7614 12.8936
146 3 -0.824592 -1.72999 6.62301 12.645
147 3 -0.850083 -2.9239 8.99777 12.2346
121 1 -0.666376 -4.02485 11.7943 12.0852
180 3 -0.804649 -4.1059 6.76002 9.55541
157 3 -0.828346 2.8226 5.91231 10.1432
168 3 -0.882596 -2.47939 10.5288 9.95044
172 3 -0.836067 -2.14696 8.40475 14.6489
173 3 -0.871668 0.167315 8.92376 15.8052
174 3 -0.82853 -0.562045 10.5195 13.7656
70 2 0.172915 -5.01228 11.3433 12.5414
61 2 0.190104 -4.04226 10.4822 8.31581
211 2 0.164545 7.85356 1.9742 7.89785
113 2 0.159573 8.62715 6.6524 0.288116
256 2 0.160787 10.7176 3.50071 0.977244
73 2 0.150511 9.10191 2.77158 1.17239
105 2 0.181635 7.29943 4.29196 4.03142
257 1 -0.63179 11.9323 3.4868 1.37049
224 3 -0.764306 11.3567 -0.110984 6.65749
111 2 0.158919 8.41125 5.60342 1.87234
33 4 1.22841 5.58404 5.93522 3.76952
106 2 0.158533 6.18325 4.33619 5.67965
222 3 -0.844713 12.269 1.74145 4.91729
152 3 -0.815784 5.95973 3.25138 0.651491
177 3 -0.802481 5.09715 4.87333 2.60848
192 4 1.27648 13.3037 1.40191 3.77508
223 3 -0.83749 9.73365 0.796099 4.63728
194 4 1.26582 8.58701 1.64248 3.90146
196 4 1.49577 10.9073 1.21129 5.62245
197 4 1.0496 9.91314 3.45484 7.75394
56 2 -0.024439 6.5155 5.95603 6.5836
199 2 -0.047711 9.25722 3.11516 3.52833
200 2 0.0323234 8.35064 4.27717 7.20582
107 2 0.128505 7.57179 5.73696 5.24699
255 2 0.141226 11.9368 3.89385 2.46652
225 3 -0.836303 10.4305 2.40105 6.63924
247 2 0.0369401 12.0707 1.66917 1.43935
264 2 0.174632 8.69571 4.68016 0.777181
219 3 -0.814782 12.8516 0.112032 2.98023
220 3 -0.823458 8.32665 0.934261 2.52845
221 3 -0.788009 7.18182 1.96091 4.66026
134 1 -0.653319 6.78977 4.94578 4.85376
195 4 1.04759 11.6092 -0.681419 8.1497
122 1 -0.66299 8.77282 3.56055 0.350992
198 2 -0.00756615 13.1179 2.79945 2.74118
232 4 1.01393 12.9576 2.50629 0.00674294
22 4 0.986481 6.14025 3.84365 11.9938
148 3 -0.8303 6.34097 -0.999588 16.4551
251 2 -0.0194932 13.2892 -0.677006 10.5562
77 2 0.155835 7.76 1.51068 9.87929
49 2 0.0649329 7.3252 -1.37796 15.0588
79 2 0.14212 8.335 0.929218 11.6241
53 2 0.033565 6.39072 4.45975 13.7152
86 2 0.155487 8.6614 4.56608 13.3936
226 3 -0.861469 10.8144 4.51775 8.43745
124 1 -0.680137 7.60965 0.659557 10.7632
127 1 -0.646798 7.85839 4.73726 12.6162
158 3 -0.784788 5.20746 4.92436 11.1533
17 4 1.23418 5.92571 0.7124 11.6123
207 2 0.137836 11.551 1.11713 9.58273
208 2 0.180276 10.2512 -0.216658 10.231
209 2 0.187593 9.90083 0.855408 8.64651
210 2 0.0876221 9.17493 2.54368 9.51866
13 4 1.03327 6.17397 0.584085 16.6027
215 1 -0.681311 10.6468 0.379832 9.33849
249 2 0.0240186 6.78835 0.252998 9.03409
78 2 0.173496 7.78383 -0.424347 10.3925
233 4 1.18334 11.0988 -0.952522 14.0007
234 2 -0.0145101 9.8126 -0.435225 13.0307
235 3 -0.764045 11.2127 0.265887 15.2382
85 2 0.0613319 7.96152 3.90715 11.2618
265 2 0.141457 8.34712 1.57937 15.9666
248 2 0.0107821 6.77008 1.47607 15.2435
156 3 -0.770986 5.66816 2.33195 12.1596
216 1 -0.669273 13.5569 -0.447678 8.61667
236 3 -0.800254 12.4268 -0.994824 13.0416
217 1 -0.664595 8.18847 2.9121 8.4835
212 2 0.156456 7.28809 3.50304 8.85227
108 2 0.233479 5.86886 9.51264 7.92387
54 2 0.117336 5.1015 7.82376 0.926981
32 4 1.05678 5.86608 12.2459 2.20086
36 4 1.19803 7.46418 7.92305 2.10317
136 1 -0.666916 8.65535 6.63939 1.42854
110 2 0.172121 7.76029 9.04363 7.71253
96 2 0.246506 3.95494 11.8352 5.28707
97 2 0.172901 3.87839 9.9261 5.02228
98 2 0.251129 4.2332 10.7307 6.75997
102 2 0.197506 5.98935 10.1077 3.37039
103 2 0.162175 4.29337 10.9752 3.27033
104 2 0.19661 5.65225 11.5107 4.67155
259 2 0.206291 7.33116 11.293 4.20455
109 2 0.139839 6.4821 8.61171 6.33596
261 1 -0.643094 8.45731 11.4631 4.47032
114 2 0.201248 4.21503 7.21369 7.11943
178 3 -0.799618 4.12669 6.34831 4.74625
116 2 0.193458 3.7415 9.11454 6.78314
131 1 -0.671287 3.68104 10.8157 5.70874
133 1 -0.673458 5.41682 11.0732 3.61477
171 3 -0.803171 1.44125 11.9028 7.02509
137 1 -0.630522 3.57445 8.1175 7.44064
163 3 -0.827181 2.9169 12.537 0.781412
250 2 0.104554 4.47184 12.7902 1.32448
182 3 -0.814135 6.4571 7.14932 3.08217
183 3 -0.75316 8.51079 9.17367 2.77899
184 3 -0.812918 6.44739 8.62139 0.602257
185 3 -0.794285 6.49212 11.2868 1.10363
258 2 0.2194 8.75345 11.2578 5.50552
112 2 0.162632 9.66167 7.06968 1.89427
135 1 -0.663184 6.63249 8.78062 7.5129
162 3 -0.811291 3.07161 9.61766 0.617556
34 4 0.935233 6.6244 6.9907 7.97525
37 4 1.50372 6.88348 10.0326 0.00539576
29 4 1.40529 1.7627 10.7973 5.91849
12 4 1.42106 1.64887 13.2373 1.37082
23 4 1.29678 4.36897 6.16914 10.4434
26 4 1.45784 1.67022 9.0659 16.3292
263 2 0.153814 9.3653 6.01152 14.277
239 2 0.175746 9.04665 6.22156 16.1535
35 4 1.20759 9.12774 6.83619 10.0231
38 4 1.26074 4.34136 10.3712 9.92154
39 4 1.18911 7.86228 8.74641 11.9566
40 4 1.2354 6.4026 11.5998 11.6875
58 2 0.0333982 4.95439 8.74088 9.97797
59 2 -0.00545568 6.54273 7.727 11.6998
240 1 -0.685839 9.50723 6.6729 15.2153
88 2 0.132772 3.2137 8.05899 11.6516
89 2 0.146209 5.18877 8.67713 11.664
90 2 0.144997 4.73836 6.99988 12.5513
237 4 1.07972 8.62312 8.32796 15.0922
271 3 -0.788893 7.52129 8.3399 16.1782
128 1 -0.67631 4.53158 7.74674 11.613
176 3 -0.829461 1.62298 11.3734 12.563
245 3 -0.857395 2.61987 9.25154 15.0591
179 3 -0.744247 5.22422 6.67647 9.15295
269 2 0.128753 7.34303 11.819 8.93572
181 3 -0.798769 7.93425 6.76085 8.88815
186 3 -0.802664 4.80713 10.9373 8.48974
187 3 -0.837871 2.76418 10.3581 10.0999
188 3 -0.826034 8.90891 8.20761 10.8557
189 3 -0.814588 8.37373 8.52555 13.4684
190 3 -0.903101 5.08582 11.0341 11.1012
191 3 -0.819412 7.3319 10.2969 11.7452
241 4 1.2693 4.11982 9.4964 14.514
242 2 0.00442196 4.09058 9.21731 12.8785
243 3 -0.822186 5.08437 8.37849 15.1873
244 3 -0.81997 4.57194 11.0232 14.6753
87 2 0.141196 7.70814 5.81759 12.3805
115 2 0.205519 3.49986 8.29151 8.54594
31 4 1.33624 1.47371 10.3176 11.0205
16 4 1.23676 0.501196 11.7515 13.5319
57 2 -0.00385051 8.77326 5.47504 11.0822
92 2 0.137822 3.23689 5.32096 15.0693
ITEM: TIMESTEP
100
ITEM: NUMBER OF ATOMS
271
ITEM: BOX BOUNDS xy xz yz pp pp pp
-7.2018999999999993e+00 1.4748699999999999e+01 -6.1971999999999996e+00
-1.8606000000000000e+00 1.3431800000000001e+01 -1.0046999999999999e+00
0.0000000000000000e+00 1.6642819200000002e+01 -1.8606000000000000e+00
ITEM: ATOMS id type q x y z
3 4 1.20269 0.917364 1.3766 5.53966
4 4 1.11699 -0.029396 3.78819 7.5275
214 1 -0.687511 4.77285 3.18874 6.2518
21 4 1.21734 2.91573 5.68099 4.91015
41 2 -0.0188303 2.60745 1.29552 5.19369
50 2 0.0189454 3.62497 2.66546 1.65412
52 2 0.0150863 3.1155 4.10436 5.64093
254 2 0.0950857 -2.03057 4.48901 0.153729
69 2 0.128587 -2.07247 5.05373 6.90983
82 2 0.141954 -0.817644 5.92742 1.62455
227 4 0.997828 1.32165 1.85546 0.595993
231 3 -0.799321 -0.249947 2.11276 0.293591
83 2 0.161045 0.203365 4.29858 1.83574
84 2 0.15741 0.492913 5.52881 0.288605
120 1 -0.689698 -1.02468 5.42587 6.56551
126 1 -0.657455 0.135997 5.41023 1.40528
138 3 -0.845185 0.0701422 1.371 4.16232
139 3 -0.779194 0.602411 0.0349481 6.38897
140 3 -0.792766 0.710659 2.71318 6.50491
229 2 0.0209014 1.87094 2.96666 1.89001
14 4 1.27612 6.34148 -0.680669 7.67591
155 3 -0.792845 1.96923 5.42156 3.58523
201 2 0.20032 5.25917 0.445049 3.52993
202 2 0.122038 3.57816 1.58958 3.84751
203 2 0.24757 3.8033 -0.0489007 4.8588
206 2 0.151393 3.74364 2.72528 6.51666
213 1 -0.668963 4.33216 0.844516 4.25572
218 3 -0.807176 6.01061 0.523119 6.60262
67 2 0.184214 -0.836004 5.44676 5.50953
193 4 1.12687 5.65714 1.61694 5.49264
230 3 -0.81685 1.90484 0.443278 0.938237
65 2 0.175098 -2.17372 3.19784 7.81762
268 2 0.256156 -0.464659 -0.239237 7.83547
18 4 0.978309 4.8237 3.99148 1.27159
125 1 -0.655142 2.7596 3.65674 0.361045
80 2 0.168061 1.80608 4.4241 0.731884
266 2 0.0194646 4.04058 5.07106 0.0995491
149 3 -0.76684 2.74548 -0.0997143 8.24957
15 4 1.05884 3.40221 0.718051 9.59695
75 2 0.184261 4.29584 2.92069 9.31757
151 3 -0.79334 5.58455 -0.372698 12.8377
42 2 -0.0329295 -0.824801 4.41918 12.4184
48 2 -0.0173318 2.13917 1.29003 10.5436
71 2 0.132766 1.5902 -1.09059 11.4224
5 4 1.2094 -3.13476 5.60821 9.26817
66 2 0.185584 -1.27471 3.19452 9.54273
150 3 -0.84048 4.70758 0.473473 10.3581
141 3 -0.854031 -2.32212 5.16631 10.5807
76 2 0.170819 2.72349 2.92288 10.4493
153 3 -0.789874 0.890427 4.43186 8.67308
81 2 0.145207 2.13155 1.93871 15.9537
270 2 0.143157 -0.74375 0.135643 9.64749
74 2 0.223579 2.45538 2.79992 8.55541
123 1 -0.655523 3.20332 2.59477 9.43171
228 2 0.0326436 1.1361 0.568428 15.6681
119 1 -0.652 -1.26337 2.76313 8.51031
64 2 0.193026 -1.19793 1.5617 8.41887
167 3 -0.806056 -1.03886 11.7146 7.93804
2 4 1.20365 -4.15491 12.4195 6.99214
8 4 0.957021 -2.24968 8.63319 7.00463
9 4 1.40424 -2.52192 10.5706 4.7848
253 2 0.159045 -1.65993 12.0602 0.993025
260 2 0.230749 -5.78561 12.5068 4.07928
166 3 -0.746617 -1.29646 8.91936 8.2342
25 4 1.35741 0.0493926 11.2301 3.16114
27 4 1.34592 1.89756 7.60954 7.00608
165 3 -0.857226 2.07885 6.37126 5.99322
44 2 -0.020349 -2.26453 6.98478 6.56171
45 2 -0.0104159 -3.82503 9.0379 7.46696
51 2 -0.00647291 0.253576 7.62922 3.09574
1 4 1.0728 -3.78712 12.5497 1.61767
63 2 0.159054 -5.87112 11.3064 8.04789
170 3 -0.779265 1.3968 9.17721 6.47297
93 2 0.15303 -0.590622 8.9423 2.56542
94 2 0.199469 1.28692 9.04523 2.8134
95 2 0.214178 0.520141 9.68391 1.20418
117 1 -0.667764 -2.55978 11.9462 0.178158
118 1 -0.698034 -4.90257 10.8119 7.64679
130 1 -0.666928 0.384219 9.49727 2.34701
142 3 -0.757103 -4.79167 11.4473 1.9531
143 3 -0.821822 -3.82219 9.79346 4.04793
144 3 -0.789742 -1.7698 9.46962 5.69607
145 3 -0.80573 -3.17656 11.977 5.75236
159 3 -0.767646 2.36624 7.09439 1.47648
160 3 -0.878593 0.421878 12.323 2.00689
161 3 -0.839035 -1.45325 11.3002 3.69669
68 2 0.208907 -0.464708 6.20563 7.12706
62 2 0.155915 -5.24892 9.97567 7.03139
169 3 -0.81466 1.02345 11.0584 4.5421
29 4 1.41132 1.57969 10.7095 5.99676
24 4 1.01488 3.48807 8.16409 0.591323
43 2 -0.000759162 -1.89139 6.19141 8.22954
19 4 1.01125 1.32159 6.45627 2.46924
246 2 0.0197026 -2.78699 13.0518 2.94985
238 2 0.0327436 -5.04489 9.90206 15.5633
252 2 0.160883 -3.6971 10.916 15.9972
10 4 1.27132 -2.61115 7.7672 13.204
11 4 1.16001 -3.40239 10.1096 11.277
154 3 -0.806107 0.19806 6.17994 10.6604
28 4 1.48635 -1.06338 10.4538 9.03418
30 4 1.31096 -1.04382 9.60729 15.0421
262 2 0.130896 -4.06482 6.98833 15.65
46 2 -0.0172 -3.86218 6.74047 13.7764
47 2 0.0703633 -5.11447 10.5213 10.9974
129 1 -0.657295 2.21271 5.9287 15.388
101 2 0.183258 1.78834 8.45338 12.9255
6 4 1.22981 -1.1156 5.68804 11.5037
20 4 1.47376 1.28489 5.9711 9.48901
164 3 -0.797327 1.19329 7.19344 8.41425
267 2 0.196361 2.35335 6.8409 14.7081
99 2 0.224773 1.87682 7.78979 11.1781
100 2 0.268784 0.257665 8.3078 11.9729
55 2 0.023897 -1.86911 10.7972 16.0497
175 3 -0.819848 0.267363 10.4515 10.0961
132 1 -0.693947 1.36896 8.48297 11.8944
72 2 0.196639 -2.92903 11.9876 12.5091
146 3 -0.826899 -1.50174 6.80883 12.5885
147 3 -0.809812 -3.22545 8.85759 12.1935
121 1 -0.685079 -4.02012 11.6509 12.1932
180 3 -0.802213 -4.1427 6.87234 9.55201
157 3 -0.841694 2.81997 5.97753 10.0858
168 3 -0.817777 -2.44517 10.4123 10.0638
172 3 -0.830971 -2.07898 8.5897 14.4719
173 3 -0.871242 0.153569 8.98032 15.8364
174 3 -0.828757 -0.536725 10.4067 13.7503
70 2 0.180373 -4.71764 11.2197 12.972
16 4 1.20013 0.330941 11.7202 13.4258
92 2 0.125796 3.10567 5.15977 15.3284
91 2 0.181809 1.23828 5.46047 15.2485
60 2 0.156396 -3.72881 9.03495 16.382
61 2 0.181981 -4.21362 10.5574 8.53481
205 2 0.150365 5.35789 3.38878 7.25181
13 4 1.05033 7.3171 2.40902 0.0697841
256 2 0.167456 10.8767 3.59111 0.906603
73 2 0.12354 9.11218 2.84001 1.33815
105 2 0.184489 7.14992 4.36558 4.33338
257 1 -0.645734 12.0424 3.627 1.21954
224 3 -0.769853 11.3681 -0.219487 6.53968
111 2 0.159679 8.71965 5.85765 2.14295
33 4 1.27132 5.64972 6.09429 3.69751
106 2 0.157985 6.19827 4.77483 5.86564
222 3 -0.844262 12.2772 1.57151 4.89943
152 3 -0.808504 6.05522 3.19836 0.628979
177 3 -0.801185 5.26605 4.98188 2.46849
192 4 1.28746 13.3215 1.28958 3.69895
223 3 -0.828671 9.60873 0.912266 4.67596
194 4 1.25198 8.47417 1.67099 3.89194
196 4 1.48753 10.9664 1.15426 5.66311
197 4 0.972498 9.83778 3.37095 7.77065
113 2 0.177162 8.08926 6.21099 0.428072
199 2 -0.0457056 9.08574 3.14848 3.51886
200 2 0.0395032 8.14966 3.97147 7.16536
107 2 0.154613 7.58205 5.98404 5.26095
255 2 0.159698 12.2267 4.11258 2.16937
225 3 -0.825067 10.5159 2.34882 6.66592
247 2 0.0176121 11.944 1.72113 1.30842
264 2 0.175518 8.91435 4.58136 0.389448
219 3 -0.824783 12.9601 0.0609675 2.81014
220 3 -0.853058 8.1112 0.936218 2.49811
221 3 -0.787562 7.05692 2.01753 4.61854
134 1 -0.668392 6.78811 5.23194 4.98787
195 4 1.0473 11.6297 -0.607395 8.13043
122 1 -0.675442 8.99567 3.44451 0.219663
198 2 0.00271978 12.9698 2.58697 2.57589
204 2 0.14543 4.87191 4.09989 5.57052
22 4 0.988983 6.23296 3.86964 11.9318
148 3 -0.828785 6.32252 -1.01473 16.433
251 2 0.00714206 13.3675 -0.690992 10.6515
77 2 0.163227 7.74086 1.4024 10.0719
49 2 0.0593598 7.07746 -1.27303 14.9679
79 2 0.17185 8.3048 0.776482 11.7124
53 2 0.0394226 6.19845 4.60848 13.5969
86 2 0.160989 8.51916 4.43774 13.5433
226 3 -0.839518 10.7441 4.4907 8.53071
124 1 -0.659219 7.60897 0.570244 10.8907
127 1 -0.643044 7.81216 4.78565 12.7655
158 3 -0.800939 5.26825 4.89782 11.1582
17 4 1.3148 5.79733 0.67256 11.5712
207 2 0.147371 11.2377 1.33024 9.30994
208 2 0.199344 10.3269 -0.0566019 10.238
209 2 0.16523 9.50035 0.544274 8.63871
210 2 0.114804 8.86968 2.31633 9.02902
212 2 0.166378 7.90566 3.94024 9.38065
215 1 -0.675392 10.536 0.396026 9.23487
249 2 0.0027584 6.89956 0.0593874 9.11013
78 2 0.195855 7.77781 -0.457096 10.5109
233 4 1.24774 11.0151 -0.95275 14.0704
234 2 -0.00320139 9.67698 -0.526123 13.0937
235 3 -0.817061 11.1528 0.120405 15.2058
85 2 0.0530579 8.03105 4.07271 11.23
265 2 0.155701 8.79921 1.2283 16.0931
248 2 0.0192114 6.91808 1.3009 15.2116
156 3 -0.791051 6.04739 2.18497 11.9587
216 1 -0.678449 13.6137 -0.456624 8.77412
236 3 -0.791598 12.3615 -1.03201 13.0924
217 1 -0.676298 7.98883 3.05022 8.72411
232 4 1.02582 11.9459 0.541463 16.5895
211 2 0.165148 7.02623 2.49432 8.58079
108 2 0.221759 5.97539 9.48872 8.01388
54 2 0.0938455 5.09542 8.03173 1.15762
32 4 1.0703 5.90886 12.2317 2.01605
36 4 1.243 7.61543 8.01112 2.06922
136 1 -0.668636 8.64135 6.60073 1.31301
110 2 0.17236 7.68744 9.04188 7.54958
96 2 0.24406 3.46895 11.957 5.27458
97 2 0.159817 3.84889 10.0583 5.1305
98 2 0.282609 4.05251 11.012 6.91933
102 2 0.201657 5.92693 10.2566 3.71545
103 2 0.153292 4.2153 11.2263 3.22014
104 2 0.222175 5.5588 11.979 4.42156
259 2 0.220077 7.37858 11.4188 4.11577
109 2 0.167223 6.26654 8.40216 6.44859
261 1 -0.653099 8.52069 11.4984 4.39021
114 2 0.204383 4.39576 7.27529 6.90127
178 3 -0.81272 4.35789 6.45586 4.61987
116 2 0.190182 3.87247 9.22077 6.78894
131 1 -0.630875 3.552 10.9786 5.8388
133 1 -0.670913 5.43335 11.2607 3.57363
171 3 -0.79694 1.43097 11.8021 7.14858
137 1 -0.649346 3.76649 8.10538 7.28884
163 3 -0.84854 2.94756 12.4462 0.999731
250 2 0.0985189 4.47565 12.8559 1.29417
182 3 -0.780709 6.52925 7.36254 3.2776
183 3 -0.791102 8.55974 9.10724 2.80467
184 3 -0.762141 6.66494 8.40977 0.614331
185 3 -0.823321 6.53608 11.2282 0.978323
258 2 0.185941 8.77323 11.2619 5.50552
112 2 0.156544 9.67689 6.98229 0.96488
135 1 -0.676799 6.61743 8.74383 7.48636
162 3 -0.804057 3.09972 9.67218 0.716597
34 4 1.01251 6.66799 6.94325 8.23325
7 4 1.25801 9.52531 10.305 3.33289
56 2 -0.00969409 6.46546 6.21647 6.70859
12 4 1.43596 1.62632 13.2191 1.4403
23 4 1.29501 4.37943 6.11113 10.3596
26 4 1.431 1.64168 9.14336 16.4032
263 2 0.156241 9.53161 6.07932 14.4228
239 2 0.176672 8.8647 6.37439 16.1518
35 4 1.21403 9.09866 6.94289 10.1056
38 4 1.27587 4.32388 10.4714 9.90097
39 4 1.18009 7.69558 8.78006 11.9826
40 4 1.21998 6.33591 11.5361 11.7361
58 2 0.0126455 5.01211 8.90768 9.95551
59 2 -0.0124063 6.47787 7.5622 11.7914
240 1 -0.680768 9.57026 6.76862 15.2818
88 2 0.145961 3.29407 8.11257 11.6392
89 2 0.116727 5.20853 8.78708 11.7552
90 2 0.127909 4.87373 6.88768 12.3868
237 4 1.09892 8.75663 8.42783 15.0208
271 3 -0.792153 7.50178 8.39707 15.9903
128 1 -0.650255 4.55393 7.85665 11.5407
176 3 -0.816017 1.50462 11.5141 12.3916
245 3 -0.853161 2.67938 9.31182 15.1379
179 3 -0.807607 5.33019 6.56035 9.18519
269 2 0.142251 7.32605 11.8136 9.02327
181 3 -0.840374 8.02086 6.73638 8.9378
186 3 -0.808911 4.86222 11.0341 8.50656
187 3 -0.827963 2.79202 10.2535 10.1994
188 3 -0.821737 8.79585 8.33151 10.8804
189 3 -0.803073 8.2941 8.62248 13.5297
190 3 -0.890731 4.90558 11.3206 11.028
191 3 -0.856781 7.31355 10.3127 11.6631
241 4 1.26798 4.13725 9.49555 14.5345
242 2 -0.00637436 3.90726 9.17881 12.8456
243 3 -0.83767 5.1713 8.40763 15.1382
244 3 -0.839633 4.55561 11.0515 14.6622
87 2 0.143834 7.85815 5.89954 12.7134
115 2 0.192975 3.88757 8.21489 8.3919
31 4 1.33824 1.44444 10.219 11.0845
37 4 1.51349 5.99492 8.26832 16.4889
57 2 -0.0160634 8.76189 5.6557 11.3139
ITEM: TIMESTEP
200
ITEM: NUMBER OF ATOMS
271
ITEM: BOX BOUNDS xy xz yz pp pp pp
-7.2018999999999993e+00 1.4748699999999999e+01 -6.1971999999999996e+00
-1.8606000000000000e+00 1.3431800000000001e+01 -1.0046999999999999e+00
0.0000000000000000e+00 1.6676038399999999e+01 -1.8606000000000000e+00
ITEM: ATOMS id type q x y z
3 4 1.21988 0.893929 1.42649 5.50745
4 4 1.13889 0.00591308 3.81629 7.52783
214 1 -0.654323 4.9547 3.09423 5.95479
21 4 1.22027 2.96888 5.69925 4.89505
41 2 -0.0161409 2.52386 1.31034 4.90358
50 2 0.0126203 3.57402 3.0572 2.00897
52 2 -0.00584165 3.29662 4.04325 5.42516
254 2 0.11055 -1.86011 4.41988 0.403037
69 2 0.136853 -2.05493 5.24925 6.45311
82 2 0.140276 -0.496401 6.19502 1.26667
227 4 0.963888 1.37391 1.86266 0.612156
231 3 -0.800267 -0.189255 2.09106 0.324086
83 2 0.166363 0.232539 4.4974 1.79299
84 2 0.144124 0.855437 5.38871 0.107948
120 1 -0.680022 -0.944864 5.43719 6.57004
126 1 -0.66358 0.370558 5.48951 1.21345
138 3 -0.853396 -0.0428304 1.55768 4.23326
139 3 -0.795159 0.605337 0.124542 6.37131
140 3 -0.791521 0.653479 2.77882 6.4447
229 2 0.0243172 1.8156 3.06714 1.83477
14 4 1.32979 6.20101 -0.750726 7.73647
155 3 -0.787101 1.99333 5.48034 3.56929
201 2 0.175203 5.1828 0.151463 3.62051
202 2 0.125063 3.78188 1.51205 3.61103
203 2 0.239565 3.49947 -0.147634 4.83198
206 2 0.128661 3.89041 2.53495 6.05544
213 1 -0.668538 4.24739 0.691827 4.26049
218 3 -0.855161 5.76383 0.321054 6.67941
67 2 0.198051 -0.383693 5.46361 5.60488
193 4 1.16149 5.73579 1.31147 5.46478
230 3 -0.815703 1.89993 0.412753 1.12437
65 2 0.186335 -2.2361 3.14883 8.2959
268 2 0.272081 -0.568599 -0.124172 7.63755
18 4 0.979725 4.9279 4.03178 1.29314
125 1 -0.654938 2.92826 3.72064 0.414305
80 2 0.167991 1.95777 4.4196 0.59986
204 2 0.15657 4.97445 3.89589 5.14102
149 3 -0.795118 2.68632 -0.0793017 8.29353
198 2 0.0200175 -1.43887 2.74112 2.56746
15 4 1.08995 3.32326 0.718454 9.51555
75 2 0.157125 4.16622 2.77701 8.97319
151 3 -0.789775 5.62612 -0.275952 12.8177
42 2 -0.0353138 -0.469017 4.55887 12.5735
48 2 -0.00884982 2.19859 1.33548 10.6186
71 2 0.142777 1.37053 -1.12445 11.7331
5 4 1.16882 -3.1144 5.60094 9.42172
66 2 0.173714 -0.833648 3.1523 9.60553
150 3 -0.814131 4.63527 0.402855 10.324
141 3 -0.816478 -2.45033 5.05239 10.7955
76 2 0.213813 2.69126 3.11812 10.1094
153 3 -0.803263 1.01721 4.46392 8.57306
81 2 0.135474 2.32288 1.81648 15.9839
72 2 0.191535 3.01477 -1.22843 12.5286
74 2 0.228421 2.33819 2.61697 8.33014
123 1 -0.671159 3.02725 2.55254 9.22838
228 2 0.0117228 1.4685 0.398553 15.8478
119 1 -0.663505 -1.15855 2.80825 8.56587
64 2 0.174984 -1.21794 1.57616 8.52248
91 2 0.154961 1.65344 4.87253 15.4746
266 2 0.0301505 3.15834 3.17346 16.541
167 3 -0.840353 -1.01868 11.6541 8.27616
2 4 1.22293 -4.11911 12.4693 6.98378
8 4 0.991791 -2.29862 8.6482 6.96411
9 4 1.45744 -2.61042 10.4861 4.69731
253 2 0.159471 -1.56256 11.9262 0.854669
260 2 0.217071 -6.05337 12.051 4.60894
166 3 -0.754796 -1.32892 8.87168 8.18308
25 4 1.32832 0.0453889 11.1548 3.12243
27 4 1.3524 1.89088 7.71866 7.02475
165 3 -0.82565 2.12779 6.54909 5.87864
44 2 -0.0133199 -2.1635 7.006 6.63231
45 2 -0.0139138 -3.92454 8.90236 7.39587
51 2 0.0179123 0.649812 7.75781 3.13884
1 4 1.07992 -3.66364 12.5175 1.61415
43 2 0.00145371 -1.81128 5.92401 8.23751
170 3 -0.752591 1.39933 9.13034 6.35983
93 2 0.165876 -0.513077 8.77047 2.64715
94 2 0.208369 1.41541 9.24336 2.46652
95 2 0.202458 0.123325 9.64906 1.16974
117 1 -0.671883 -2.57708 11.7692 0.180199
118 1 -0.666613 -4.73502 10.8233 7.65214
130 1 -0.677088 0.299618 9.48675 2.2412
142 3 -0.798691 -4.65014 11.3065 2.01725
143 3 -0.849697 -3.80937 9.90712 3.86984
144 3 -0.82619 -1.94041 9.40996 5.65284
145 3 -0.827599 -3.29734 11.9745 5.71326
159 3 -0.82787 2.58542 7.2865 1.55926
160 3 -0.840587 0.32249 12.4709 1.98442
161 3 -0.830694 -1.48799 11.0023 3.59649
68 2 0.200328 -0.628312 6.21643 7.35407
62 2 0.138651 -4.73138 10.2337 6.56904
169 3 -0.806776 1.04113 11.1475 4.4181
29 4 1.34263 1.68556 10.8351 5.9113
246 2 0.0266012 -2.47411 12.9225 2.80976
19 4 1.03772 1.50026 6.50668 2.38389
24 4 1.09891 3.46846 8.21072 0.647732
63 2 0.15068 -5.80939 11.208 7.96147
238 2 0.0133235 -4.90161 9.77013 15.3328
252 2 0.138616 -3.61971 10.7116 15.9956
10 4 1.26743 -2.57702 7.79724 13.1897
11 4 1.15378 -3.51237 10.1978 11.3019
154 3 -0.821789 0.138447 5.97701 10.5078
28 4 1.5413 -1.14237 10.3431 9.20683
30 4 1.27369 -1.07522 9.57991 15.0303
262 2 0.155665 -4.06971 6.91853 15.2453
46 2 -0.0100003 -3.92437 6.80629 13.515
47 2 0.062607 -5.22387 10.5268 11.192
129 1 -0.65581 2.42576 5.75037 15.4644
101 2 0.190683 1.38078 8.80718 12.972
6 4 1.18697 -1.08945 5.7025 11.5423
20 4 1.46018 1.34881 5.87111 9.45377
164 3 -0.797931 1.24874 7.14626 8.42772
267 2 0.187443 2.09914 6.67308 14.7724
99 2 0.194593 1.81899 7.59261 11.5883
100 2 0.285247 0.214989 8.34388 11.5335
55 2 0.010418 -1.91659 10.7155 16.0092
175 3 -0.860079 0.106328 10.2293 10.2124
132 1 -0.663838 1.26768 8.52026 11.8101
61 2 0.202208 -4.13841 10.3762 8.51299
146 3 -0.823898 -1.50355 7.02744 12.3646
147 3 -0.792085 -3.19022 8.90301 12.2314
121 1 -0.691325 -4.14963 11.6549 12.3383
180 3 -0.778652 -4.04685 7.02577 9.59437
157 3 -0.808682 2.96239 5.80469 10.1428
168 3 -0.825606 -2.6 10.467 10.0732
172 3 -0.834728 -2.04998 8.34954 14.6394
173 3 -0.877255 0.107427 9.13252 15.9575
174 3 -0.836288 -0.647638 10.5373 13.7507
70 2 0.164353 -4.60514 11.2137 13.3628
16 4 1.24153 0.221564 11.777 13.3748
60 2 0.183574 -3.65612 8.82049 16.5611
205 2 0.156309 5.35059 3.44404 6.9374
12 4 1.43867 7.82302 -0.0645739 1.45852
256 2 0.176438 11.0123 3.57101 0.90342
73 2 0.124553 9.18633 2.68349 1.29727
105 2 0.166939 7.37553 4.52485 4.09896
257 1 -0.651645 12.068 3.55362 1.29444
224 3 -0.767632 11.4277 -0.227192 6.51641
111 2 0.166869 8.11355 5.54903 2.11078
33 4 1.27998 5.67566 6.14748 3.72596
106 2 0.166117 6.58531 4.69859 5.82398
222 3 -0.854818 12.0009 1.60607 4.5435
152 3 -0.821647 6.1583 3.19395 0.643322
177 3 -0.792086 5.34898 5.08089 2.43415
192 4 1.29105 13.2924 1.34373 3.62072
223 3 -0.799449 9.5025 0.82786 4.82881
194 4 1.29213 8.50337 1.65257 3.9462
196 4 1.45283 10.9274 1.14898 5.65041
197 4 0.959356 9.82077 3.29193 7.99415
113 2 0.169526 8.45763 6.28628 0.44967
199 2 -0.0438305 9.12723 3.20052 3.67477
200 2 0.0405346 8.34903 4.15847 7.35186
136 1 -0.665186 8.64569 6.40325 1.52294
255 2 0.149331 12.0979 3.95486 2.3716
225 3 -0.80356 10.3622 2.2132 6.84629
247 2 0.0143462 11.8781 1.63252 1.28972
264 2 0.167869 8.95076 4.57322 0.62246
219 3 -0.846207 12.9807 0.0642634 2.69664
220 3 -0.874315 8.26792 1.0117 2.57613
221 3 -0.798204 7.0988 1.87583 4.76892
134 1 -0.666519 6.98397 5.25636 4.89464
195 4 1.04676 11.5673 -0.597901 8.10241
122 1 -0.661217 9.11189 3.46911 0.173127
232 4 1.02556 12.9821 2.28853 0.0339014
112 2 0.170982 9.70118 6.47589 1.81096
211 2 0.162653 7.2017 2.11977 8.23191
22 4 0.982302 6.19701 3.94154 11.8608
148 3 -0.835712 6.54096 -0.887732 16.4613
251 2 -0.024923 13.3917 -0.930677 10.5224
77 2 0.151543 7.72435 1.4224 10.0506
49 2 0.068962 7.0962 -1.13112 14.8992
79 2 0.171578 8.23639 0.484943 11.7352
53 2 0.0651284 6.5924 4.3879 13.6794
86 2 0.159779 8.77996 4.4999 13.2072
226 3 -0.828861 10.7676 4.46031 8.68627
124 1 -0.671675 7.56921 0.474583 10.8462
127 1 -0.649273 7.85499 4.83562 12.6974
158 3 -0.800772 5.13492 5.04237 11.2879
17 4 1.27258 5.79186 0.779873 11.4989
207 2 0.131221 11.2858 1.2027 9.57487
208 2 0.209743 10.1015 -0.298114 10.0856
209 2 0.184462 9.5969 0.926385 8.63538
210 2 0.0988086 8.78731 2.48101 9.36679
212 2 0.156362 7.32241 3.8191 9.17699
215 1 -0.667046 10.4571 0.409991 9.20751
249 2 -2.09648e-05 6.88601 0.155699 9.00676
78 2 0.172904 7.53515 -0.534557 10.3756
233 4 1.26707 11.1262 -0.987052 14.1941
234 2 -0.00318502 9.76307 -0.448845 13.349
235 3 -0.828392 11.2921 0.134244 15.2298
85 2 0.0395659 7.92326 3.99368 11.1114
265 2 0.163299 9.03485 1.4562 16.1481
248 2 0.0250717 7.13192 1.48005 15.2309
156 3 -0.797491 5.88322 2.31221 11.9591
216 1 -0.67458 13.4847 -0.412622 8.58815
236 3 -0.780297 12.3196 -0.968109 13.1072
217 1 -0.664305 7.86009 2.94939 8.68169