ITEM: TIMESTEP
0
ITEM: NUMBER OF ATOMS
271
ITEM: BOX BOUNDS xy xz yz pp pp pp
-7.2018999999999993e+00 1.4748699999999999e+01 -6.1971999999999996e+00
-1.8606000000000000e+00 1.3431800000000001e+01 -1.0046999999999999e+00
0.0000000000000000e+00 1.6609600000000000e+01 -1.8606000000000000e+00
ITEM: ATOMS id type q x y z
3 4 1.24845 0.851001 0.961577 5.46463
4 4 1.11109 0.27707 3.66131 7.19647
18 4 0.998162 5.23206 3.87369 1.45206
21 4 1.20816 3.85472 6.08648 5.23121
41 2 0.00654399 2.20845 0.945827 4.45226
50 2 0.0250261 3.85215 2.90413 2.13801
52 2 0.00806223 4.0823 4.47086 5.76165
125 1 -0.667754 3.01217 3.87834 0.871081
67 2 0.180474 -1.34046 5.15485 5.61151
119 1 -0.659541 -1.28323 2.74863 7.87889
64 2 0.173082 -1.24819 1.54004 8.09524
82 2 0.177724 0.575561 4.92588 3.21386
83 2 0.189815 0.354489 5.3279 1.42642
229 2 0.027225 2.12887 3.51913 2.52631
120 1 -0.678686 -0.505988 5.28026 6.33176
126 1 -0.662776 0.481303 5.72215 2.46445
138 3 -0.852437 -0.37327 0.846868 4.53606
139 3 -0.844406 0.815426 -0.310078 6.50906
140 3 -0.790365 0.915059 2.47337 6.05969
193 4 1.16856 5.76801 1.40364 5.66938
68 2 0.145088 0.542928 5.55902 5.88108
80 2 0.240453 2.86755 4.991 1.0612
201 2 0.188832 4.28375 0.807011 3.66846
202 2 0.118626 3.53583 1.7604 5.28314
203 2 0.272129 3.86004 -0.223425 5.32536
206 2 0.161612 4.30024 3.29414 6.91343
213 1 -0.654117 4.17021 0.845899 4.82056
218 3 -0.823706 6.1192 0.282177 6.78443
231 3 -0.792129 -0.219704 2.93359 1.33293
227 4 0.975875 1.29897 2.52151 1.3255
230 3 -0.841815 1.73677 0.952025 1.53727
198 2 0.0969081 -1.01491 2.22137 2.58702
266 2 0.0201128 4.53548 4.99523 0.304208
155 3 -0.815034 2.85007 6.19802 3.94925
153 3 -0.8238 1.30845 4.11958 8.2783
226 3 -0.796096 -3.12728 5.72354 7.4722
269 2 0.240797 -0.691268 -0.264775 7.79277
69 2 0.182079 -0.780154 5.90167 7.25885
15 4 1.06516 3.20264 0.603194 9.69238
150 3 -0.783722 4.10801 0.0438708 10.9106
268 2 0.123631 -1.09693 0.209197 9.63389
42 2 -0.0509428 -1.08565 3.77158 11.7523
48 2 0.00424246 1.96587 1.55612 10.4207
151 3 -0.866983 5.72328 -0.467247 13.1151
81 2 0.124739 2.37815 1.79048 16.3829
66 2 0.174328 -1.4022 3.28235 8.84266
228 2 0.0164976 0.819943 1.03509 16.2743
75 2 0.204668 3.7972 2.97332 10.3905
76 2 0.277973 2.55053 3.11291 8.88756
141 3 -0.817808 -2.57365 5.23814 10.0035
149 3 -0.80584 2.62142 -0.229985 8.48301
6 4 1.2103 -1.30262 5.29237 11.0486
91 2 0.15103 1.92022 4.2734 15.4874
123 1 -0.674113 3.39257 2.48571 9.44802
74 2 0.112489 4.39982 2.12306 8.59717
70 2 0.164945 1.63687 -0.979476 11.8061
17 4 1.28344 5.33129 0.616421 12.0093
255 2 -0.000784102 -2.906 2.62929 16.0472
24 4 0.97572 3.59555 8.032 0.25142
2 4 1.2472 -4.16257 12.3433 7.21288
8 4 1.00065 -1.47568 8.25662 6.45512
9 4 1.4616 -2.43953 10.5604 4.80118
169 3 -0.782275 1.10327 10.8785 4.28075
167 3 -0.835942 -1.08448 11.6579 8.23389
246 2 0.0857206 -2.27879 12.9158 1.25414
25 4 1.34937 0.0536402 11.189 3.06298
27 4 1.28584 2.37782 7.61677 7.36191
170 3 -0.781586 1.82997 8.92337 6.17424
44 2 0.0280296 -0.135492 7.21214 6.07408
45 2 0.0107858 -2.63534 7.09559 6.26996
51 2 0.020999 1.50417 8.46743 3.04953
166 3 -0.809958 -1.5193 8.77955 7.92025
19 4 1.04127 1.99456 6.81433 2.7339
1 4 1.10277 -4.19393 12.8813 1.54445
93 2 0.163074 -0.273352 8.71609 2.86324
94 2 0.208088 1.17142 9.45251 1.84946
95 2 0.16297 -0.587995 9.6618 1.20175
162 3 -0.827854 2.86241 9.36463 0.431979
118 1 -0.657771 -5.0156 10.9387 8.11869
130 1 -0.676376 0.0780039 9.50033 2.12666
142 3 -0.82518 -4.72083 11.7915 2.51567
143 3 -0.817042 -3.7692 9.8069 4.05609
144 3 -0.828308 -1.45391 9.3476 5.32683
145 3 -0.793593 -2.91055 11.6677 5.87817
159 3 -0.76706 2.86579 6.78852 1.46158
160 3 -0.849348 0.467697 12.2648 1.93484
161 3 -0.770487 -1.56022 11.4749 3.63119
165 3 -0.838915 3.45476 6.64895 6.70624
171 3 -0.813829 1.24984 11.4407 6.97098
63 2 0.220422 -4.4147 10.0488 8.29209
7 4 1.36013 -5.01914 10.3188 3.15531
14 4 1.30826 0.192878 12.4586 7.75743
60 2 0.146365 -3.10163 10.9712 0.156675
84 2 0.118591 -0.315773 6.55498 2.78965
29 4 1.3525 1.81976 10.5459 5.82902
164 3 -0.841357 1.17342 6.98054 8.30579
262 2 0.122213 -4.19834 6.66907 15.1389
10 4 1.28401 -2.68158 7.47204 12.9256
11 4 1.14835 -3.383 10.0312 11.2744
129 1 -0.656747 2.0204 5.4147 15.2954
28 4 1.51639 -1.3496 10.3815 9.06994
30 4 1.25229 -1.26522 9.21365 14.9298
43 2 0.0952054 -2.20923 7.67323 8.92522
46 2 -0.00605289 -4.09613 6.58866 13.4045
47 2 0.0613532 -5.094 10.3636 11.1106
55 2 0.0052622 -2.25584 9.49419 16.2398
31 4 1.37743 1.12004 10.2433 11.0825
62 2 0.190793 -5.2367 11.518 9.06141
252 2 0.100688 -5.69565 10.603 16.3551
92 2 0.140484 2.93763 5.74173 14.6321
71 2 0.214141 -2.89392 11.8013 12.5613
99 2 0.215803 1.75212 7.69429 10.9001
100 2 0.242297 -0.0453975 8.04815 11.189
121 1 -0.673839 -4.06666 11.5833 12.2826
16 4 1.30125 -0.0155847 11.5746 13.6614
132 1 -0.666541 1.04103 8.34887 11.4577
5 4 1.19343 -3.2089 6.34616 9.01213
146 3 -0.824441 -1.85957 6.36664 12.1895
147 3 -0.859263 -3.05944 8.7227 12.049
253 2 0.157251 -3.5342 10.4227 15.5969
157 3 -0.810775 2.54393 5.85342 10.1727
238 2 -0.00420856 -4.43285 9.24137 14.8584
168 3 -0.844501 -2.75202 10.3228 9.85881
172 3 -0.850302 -1.98483 7.94586 14.2773
173 3 -0.840494 0.207921 9.01143 15.5069
174 3 -0.832191 -1.21122 10.5835 13.9861
175 3 -0.871254 -0.128949 10.2932 10.1576
101 2 0.192106 1.23624 8.28973 12.5866
72 2 0.167298 -4.63366 11.197 13.1785
267 2 0.201645 1.04655 5.88062 14.9416
20 4 1.46426 1.21351 5.68866 9.28502
154 3 -0.854713 -0.00989837 5.6474 10.3298
117 1 -0.650604 -4.07789 10.2076 16.5293
152 3 -0.829086 6.21057 3.02481 0.56557
247 2 0.117945 11.5067 2.85421 1.65653
56 2 0.00209843 5.94707 4.98152 7.0956
73 2 0.0337033 8.90002 3.28742 0.540685
105 2 0.146385 8.79547 5.91727 4.14442
106 2 0.146953 7.78894 4.29294 4.47532
211 2 0.174027 9.27918 2.60822 7.76837
111 2 0.157989 8.79393 5.93907 1.6765
204 2 0.147739 5.8268 4.10929 5.96069
134 1 -0.663551 7.82078 5.4832 4.59619
220 3 -0.847363 8.25981 0.503934 2.78678
223 3 -0.807698 9.25887 1.50453 5.04173
219 3 -0.842668 12.8301 -0.269122 2.54903
192 4 1.30289 13.1463 0.943819 3.58423
224 3 -0.761906 11.2137 0.498445 6.66645
194 4 1.27379 8.17675 1.66621 3.88899
196 4 1.45462 10.9024 1.59192 5.47437
197 4 0.975999 10.527 4.57629 6.65158
205 2 0.145279 5.97523 2.93485 7.5557
199 2 -0.0371039 8.57187 3.13159 3.13705
200 2 -0.0247532 9.63336 5.38988 5.3872
177 3 -0.789234 5.82921 4.85764 2.52327
257 1 -0.657349 11.4831 3.82344 0.69519
222 3 -0.861846 11.8441 1.57272 4.23272
225 3 -0.789985 11.1776 3.25367 6.13701
221 3 -0.821483 6.69872 1.86692 4.45924
33 4 1.22665 6.35795 6.18042 3.62549
232 4 0.931802 13.0282 2.92983 0.112167
217 1 -0.638132 9.30861 3.81822 7.86772
212 2 0.150829 8.38048 4.4181 7.42596
256 2 0.167967 11.561 4.84558 1.04099
214 1 -0.672833 5.36526 3.21234 6.59166
107 2 0.141814 7.63275 5.82416 5.67907
65 2 0.276218 12.5404 2.93421 7.23051
254 2 0.177979 10.5527 3.72782 0.009101
22 4 1.05147 4.88545 3.6535 12.9125
87 2 0.161337 5.61214 4.68009 15.1853
236 3 -0.802133 12.2875 -1.02059 13.3712
13 4 0.980966 6.46898 0.557747 16.4147
216 1 -0.66601 13.3418 -0.418731 8.74667
79 2 0.16318 7.43326 1.7138 11.2007
234 2 -0.0309586 9.77518 0.00241094 13.9057
86 2 0.171714 6.72155 3.10876 14.7657
122 1 -0.658195 7.94356 1.61924 15.3682
124 1 -0.667622 6.83127 0.831383 10.8111
85 2 0.11303 6.72724 4.76963 13.5602
158 3 -0.821807 4.35496 4.86529 11.9944
156 3 -0.830154 5.06465 2.1883 12.4813
207 2 0.185386 10.4414 2.42853 8.83676
208 2 0.145956 12.0435 1.81681 9.74493
209 2 0.14981 10.3865 1.0231 10.2469
210 2 0.191048 9.51788 4.12303 8.93991
249 2 -0.00122647 7.12166 -0.322054 9.10836
215 1 -0.665351 11.0159 1.54558 9.41777
77 2 0.145318 6.29037 1.06299 9.82859
195 4 1.07892 11.394 0.0241249 8.36064
233 4 1.28073 11.1361 -0.854654 14.5053
113 2 0.168835 7.60661 4.79977 16.4888
235 3 -0.836518 11.6727 -0.101683 15.75
53 2 0.0073857 4.09403 3.69323 14.4495
265 2 0.152598 8.77591 1.09351 14.9377
248 2 0.0977611 6.63315 1.26297 14.631
264 2 0.154376 8.10363 2.75224 15.2352
127 1 -0.65797 6.03191 4.01579 14.3699
78 2 0.174167 7.37062 -0.141548 10.8222
251 2 -0.0273809 13.0978 -0.623942 10.6555
148 3 -0.813186 6.70673 -1.08631 16.5119
12 4 1.46352 1.73458 13.0996 1.49916
259 2 0.242842 8.58374 11.7884 4.86679
32 4 1.15177 6.00151 12.0031 1.77335
36 4 1.29201 7.92266 8.16476 1.63651
135 1 -0.653678 6.61036 7.86733 7.94205
112 2 0.177158 10.0706 7.08918 0.945181
96 2 0.204401 3.69408 11.8293 4.98008
97 2 0.17272 4.20215 10.0719 5.45959
98 2 0.228576 3.89222 11.4003 6.81595
102 2 0.213349 5.94573 9.6396 2.84453
103 2 0.164324 4.31742 10.6811 2.65209
104 2 0.180164 5.66183 10.9886 4.08337
258 2 0.192844 7.31386 10.7008 3.90522
109 2 0.177521 6.15868 7.74625 6.87684
110 2 0.203074 7.72387 7.97365 7.91681
136 1 -0.675184 9.03912 6.7833 0.909211
260 2 0.16876 8.52778 10.0313 5.33186
114 2 0.202518 4.6954 8.32373 8.22134
131 1 -0.668372 3.63992 11.0192 5.7917
133 1 -0.693197 5.47529 10.6687 3.03435
54 2 0.0929997 5.34836 8.26314 0.211194
184 3 -0.780331 6.91222 8.6721 0.310382
163 3 -0.850689 2.90398 12.054 1.0344
261 1 -0.646527 8.40535 10.7681 4.48696
182 3 -0.793303 7.04799 7.58238 2.83618
183 3 -0.808625 9.0353 9.23267 2.16264
116 2 0.176429 3.27324 9.64606 8.21765
185 3 -0.833654 6.96004 11.3803 0.741704
178 3 -0.815191 5.35158 6.56725 4.78901
250 2 0.0898337 4.56102 12.4333 0.971611
61 2 0.165903 8.81945 10.855 7.41335
23 4 1.31069 4.04823 5.94958 10.8096
37 4 1.49544 6.28164 8.49707 16.1612
239 2 0.170454 8.93025 5.86339 15.9728
34 4 1.0636 6.26443 6.10068 8.50393
35 4 1.19495 8.70998 6.73553 10.2034
38 4 1.21961 4.02218 11.0749 10.2017
39 4 1.16196 7.51376 8.84866 11.9533
40 4 1.19022 6.26533 11.713 11.9264
58 2 -0.00439606 4.77904 9.60738 9.63939
59 2 -0.0116354 6.02652 8.04272 12.4111
26 4 1.46864 1.62352 9.02143 16.3355
88 2 0.14982 2.93981 8.04682 11.6049
89 2 0.135068 4.97583 8.05615 11.0357
90 2 0.167343 4.49587 7.58925 12.9011
271 3 -0.834418 7.74722 8.60953 15.6585
237 4 1.01491 8.95938 8.2155 14.6268
128 1 -0.670846 4.1429 7.65834 11.7685
180 3 -0.833368 10.0874 6.95057 9.52516
181 3 -0.789198 7.6803 5.80163 9.19077
179 3 -0.802428 5.07309 6.08604 9.52538
189 3 -0.833301 8.63584 8.32367 13.0259
115 2 0.18707 3.27288 8.25067 9.52434
186 3 -0.818627 4.40174 12.2161 8.98265
187 3 -0.853135 2.51753 10.6675 10.3697
188 3 -0.782432 7.98554 8.1794 10.4685
270 2 0.158673 7.06024 11.9126 9.01548
190 3 -0.862635 4.7446 11.3147 11.5677
191 3 -0.837512 7.22251 10.4172 11.8559
241 4 1.31424 4.09874 9.70353 14.4661
242 2 0.0331822 4.00543 9.35364 12.7742
243 3 -0.866844 5.18525 8.59193 14.9634
244 3 -0.86758 4.29307 11.1965 14.7134
245 3 -0.833545 2.73644 9.32133 15.2373
263 2 0.135841 9.26031 5.74581 13.9725
240 1 -0.656363 9.44521 6.38204 14.9432
57 2 -0.041021 9.01342 5.87156 11.6282
108 2 0.163226 6.15238 8.7116 8.61361
137 1 -0.672093 3.60506 8.57955 8.49609
176 3 -0.822155 1.04532 10.8975 12.6194
49 2 0.106496 0.943063 11.7272 15.0771
ITEM: TIMESTEP
100
ITEM: NUMBER OF ATOMS
271
ITEM: BOX BOUNDS xy xz yz pp pp pp
-7.2018999999999993e+00 1.4748699999999999e+01 -6.1971999999999996e+00
-1.8643212000000000e+00 1.3458663600000001e+01 -1.0046999999999999e+00
0.0000000000000000e+00 1.6609600000000000e+01 -1.8643212000000000e+00
ITEM: ATOMS id type q x y z
3 4 1.2633 0.825828 0.901211 5.43353
4 4 1.13808 0.309033 3.44802 7.2023
69 2 0.17423 -0.796922 5.6248 6.94896
226 3 -0.790808 -3.25108 5.78288 7.30727
41 2 0.000502768 2.05372 0.774869 4.25033
50 2 0.0254874 4.06308 2.82333 1.97776
52 2 -0.022306 4.06964 4.35669 5.47954
125 1 -0.674792 3.20942 3.89895 0.797029
67 2 0.166314 -1.25348 4.75079 5.36532
119 1 -0.670879 -1.29109 2.80184 8.07485
269 2 0.227437 -0.817577 -0.0301295 7.90733
82 2 0.177445 0.460436 5.0299 3.38445
83 2 0.190957 0.658848 5.49881 1.55088
229 2 0.00581595 2.50335 3.47376 2.53933
120 1 -0.665113 -0.394016 5.00825 6.09466
126 1 -0.660159 0.540871 5.81617 2.61448
138 3 -0.856435 -0.508737 0.735891 4.67223
139 3 -0.831943 1.00379 -0.325993 6.44823
140 3 -0.830599 0.925677 2.33744 6.19183
193 4 1.10809 5.59487 1.44195 5.60316
68 2 0.176968 0.490752 5.44536 5.54363
80 2 0.233738 3.1032 4.99952 1.08047
201 2 0.167074 4.18434 0.783172 3.74791
202 2 0.112323 3.31916 1.61404 5.1654
203 2 0.276662 3.63495 -0.354754 5.26817
206 2 0.155733 4.09724 3.26441 6.70067
213 1 -0.663905 3.98639 0.678542 4.85785
218 3 -0.782928 6.00156 0.280464 6.70966
231 3 -0.75169 -0.103158 3.00871 1.4163
227 4 0.911554 1.49996 2.55203 1.364
230 3 -0.815005 1.85502 0.914838 1.49624
198 2 0.0621317 -0.887121 2.24271 2.60716
266 2 0.0102576 4.80167 4.93508 0.181097
65 2 0.249261 -2.14894 2.98604 7.33295
21 4 1.21111 3.98285 6.06714 5.22751
15 4 1.07767 2.94556 0.625051 9.8453
150 3 -0.805498 3.87759 0.112367 11.036
268 2 0.121697 -1.14622 0.434278 9.69643
42 2 -0.0455162 -1.12715 3.95009 11.8395
48 2 0.00338496 1.67218 1.64802 10.2917
151 3 -0.847686 5.83029 -0.410015 13.1008
81 2 0.143091 2.4422 1.82415 16.368
66 2 0.208196 -1.4146 3.5095 8.9671
228 2 0.02883 0.984685 0.963867 16.3104
75 2 0.216795 3.85777 2.883 10.5108
76 2 0.267026 2.55912 3.11948 9.17774
141 3 -0.802108 -2.64215 5.08707 9.86896
149 3 -0.773219 2.5656 -0.217066 8.59944
6 4 1.16717 -1.40602 5.39146 11.0395
91 2 0.158998 2.29969 4.49911 15.1332
123 1 -0.685601 3.3606 2.45003 9.58203
74 2 0.143187 4.22628 2.12228 8.70794
70 2 0.168777 1.74938 -0.951784 12.3748
17 4 1.23619 5.26787 0.587896 11.9032
64 2 0.17645 -1.31538 1.69018 8.33543
255 2 0.0249564 -2.91262 2.74886 16.1864
153 3 -0.80916 1.15974 4.06002 8.4656
20 4 1.46088 1.24525 5.60818 9.23733
155 3 -0.795231 2.71936 6.40496 4.21591
2 4 1.2634 -4.17977 12.1966 7.22535
8 4 1.00932 -1.43093 8.21458 6.47192
9 4 1.45125 -2.41799 10.3763 4.69542
169 3 -0.802584 1.09468 10.9341 4.19589
167 3 -0.826881 -1.11036 11.6274 8.08654
246 2 0.0893081 -2.13524 12.548 1.41242
25 4 1.37899 0.0410459 11.1737 3.00761
27 4 1.36865 2.26457 7.65055 7.19472
170 3 -0.802104 1.69437 8.87654 6.26091
44 2 0.0121358 -0.341854 7.00738 6.08568
45 2 0.0369435 -2.74485 7.16781 6.40152
51 2 0.0274552 1.29056 8.51478 3.01427
166 3 -0.784591 -1.36143 8.84105 7.94532
19 4 1.01886 2.03866 6.87085 2.84894
1 4 1.06446 -4.01259 12.8271 1.41584
93 2 0.165165 -0.571652 8.72945 2.73283
94 2 0.203105 0.917171 9.21302 1.57588
95 2 0.163431 -0.815798 9.73127 1.15299
162 3 -0.847447 2.79151 9.45231 0.440823
118 1 -0.66494 -5.07189 10.6595 7.85557
130 1 -0.67248 -0.112782 9.47991 2.03317
142 3 -0.801516 -4.70391 11.7887 2.33467
143 3 -0.803777 -3.67527 9.65162 3.96372
144 3 -0.851448 -1.55303 9.24786 5.35253
145 3 -0.760432 -3.11049 11.4819 5.92957
159 3 -0.769623 2.93937 6.82711 1.48068
160 3 -0.836752 0.318542 12.2593 1.79398
161 3 -0.803872 -1.38273 11.3563 3.67368
164 3 -0.849654 1.30071 6.64312 7.99553
171 3 -0.831696 1.25069 11.4184 7.01413
63 2 0.19064 -4.57988 9.8006 7.34045
7 4 1.27928 -5.07051 10.3664 3.25534
14 4 1.2991 0.212159 12.444 7.66469
29 4 1.3439 1.70154 10.5612 5.78558
84 2 0.115601 -0.23528 6.77875 2.74178
165 3 -0.824463 3.46835 6.81826 6.50396
24 4 0.978606 3.58383 8.1284 0.29691
117 1 -0.662101 -3.79608 10.4007 16.4139
262 2 0.110581 -4.17885 6.87542 15.216
10 4 1.25754 -2.59335 7.50547 12.9792
11 4 1.11499 -3.4066 10.0847 11.3498
129 1 -0.67774 2.54204 5.58604 15.1831
28 4 1.51805 -1.3894 10.4371 9.06078
30 4 1.26985 -1.21518 9.31957 14.9256
43 2 0.0847438 -2.10126 7.6977 8.91538
46 2 -0.0211109 -4.00215 6.61929 13.4481
47 2 0.0565059 -5.06991 10.5461 11.4205
55 2 0.0535277 -1.91249 9.89626 16.4536
31 4 1.3507 0.984844 10.1149 11.0699
62 2 0.208958 -4.96876 10.715 8.95156
252 2 0.0798189 -5.47124 10.4903 16.3091
154 3 -0.812719 -0.149221 5.77303 10.2043
71 2 0.220989 -2.62429 11.8591 12.4665
99 2 0.186275 1.38211 7.76724 11.1404
100 2 0.248877 -0.11221 8.12038 12.1931
121 1 -0.662084 -3.8454 11.5376 12.602
16 4 1.27993 0.107363 11.6256 13.5842
132 1 -0.67561 0.940177 8.39846 12.004
5 4 1.21448 -3.1174 6.32664 8.87211
146 3 -0.851357 -1.7268 6.52484 12.1521
147 3 -0.837781 -3.08403 8.69265 12.0169
253 2 0.163727 -3.25036 11.1738 15.7712
157 3 -0.806234 2.56689 5.74505 10.2129
238 2 -0.004355 -4.62043 9.57701 14.8481
168 3 -0.836103 -2.79553 10.3583 9.8898
172 3 -0.870749 -2.08129 8.09062 14.3661
173 3 -0.85348 0.170953 9.04921 15.587
174 3 -0.836004 -1.13 10.6235 13.9325
175 3 -0.885606 -0.22241 10.1686 10.1384
101 2 0.19398 1.53312 8.49072 13.0167
72 2 0.173323 -4.03378 11.1206 13.6394
267 2 0.200805 1.83327 6.25249 14.6544
60 2 0.136749 -3.55299 9.34598 16.1664
152 3 -0.862975 6.44721 3.06508 0.745973
247 2 0.0967846 11.3869 2.97758 1.60796
56 2 -0.00425084 6.01477 4.69552 7.64797
73 2 0.0247909 9.0834 2.78163 0.628104
105 2 0.159049 8.89564 5.9388 4.0577
106 2 0.141135 7.85677 4.22596 4.11167
211 2 0.178362 9.06391 2.812 7.61188
111 2 0.18009 8.72872 5.86594 1.34202
204 2 0.148671 5.79515 3.88142 6.00039
134 1 -0.681243 8.03082 5.34528 4.50505
220 3 -0.871986 8.37304 0.641127 2.71496
223 3 -0.806559 9.23786 1.59047 4.94015
219 3 -0.813131 12.6339 -0.167457 2.78274
192 4 1.29818 13.1456 1.03581 3.61875
224 3 -0.732965 11.0554 0.492992 6.89198
194 4 1.3151 8.24337 1.72724 3.78052
196 4 1.44129 10.8339 1.71384 5.49594
197 4 0.990565 10.4466 4.47271 6.58965
205 2 0.160257 5.76274 2.84363 7.5735
199 2 -0.0375369 8.49659 3.12079 2.87046
200 2 -0.00114 9.89145 5.12044 5.00853
177 3 -0.815519 5.76349 4.86788 2.66631
257 1 -0.642953 11.399 4.02167 0.7489
222 3 -0.820518 11.7829 1.5799 4.22158
225 3 -0.845673 11.1582 3.19739 6.06491
221 3 -0.79158 6.7817 1.80537 4.49225
33 4 1.24189 6.48499 6.1497 3.62312
232 4 0.888099 12.9421 3.00416 0.375753
217 1 -0.660541 9.21732 3.87673 7.92779
212 2 0.151672 8.36513 4.49097 7.4953
256 2 0.157481 11.5772 5.04299 1.25887
214 1 -0.693405 5.23125 3.18645 6.63804
107 2 0.134531 7.75478 5.51589 5.59422
254 2 0.1733 10.4172 3.95032 0.029487
18 4 1.02016 5.43742 3.97027 1.453
22 4 1.07088 4.79413 3.64061 13.0403
87 2 0.161929 5.73293 4.88154 14.9426
236 3 -0.791067 12.461 -0.823533 13.3517
13 4 1.02763 6.56013 0.447481 16.5248
216 1 -0.679948 13.4027 -0.294705 8.80993
79 2 0.164636 7.18593 1.83256 10.7896
234 2 -0.023809 10.1491 0.178232 13.7108
86 2 0.164262 6.77892 3.17941 14.7297
122 1 -0.663949 7.81625 1.68055 15.4873
124 1 -0.680802 6.58725 0.887681 10.5305
85 2 0.150709 6.88515 4.67897 13.3984
158 3 -0.833603 4.33569 4.71113 11.9765
251 2 -0.013626 13.048 -0.723099 10.7029
207 2 0.198841 10.239 2.38162 8.89985
208 2 0.122155 11.7274 1.66932 9.95754
209 2 0.167502 9.88871 0.959943 10.0503
210 2 0.202331 9.42866 4.04389 9.02767
249 2 0.00870326 7.14551 -0.304649 9.10242
215 1 -0.643681 10.6762 1.44553 9.37809
77 2 0.154062 6.06114 0.89626 9.54814
148 3 -0.834546 6.79973 -1.10499 16.4422
233 4 1.23102 11.294 -0.845703 14.4768
113 2 0.174365 7.77177 4.69693 16.2771
235 3 -0.788256 11.6833 0.0218152 15.8577
53 2 -0.00870469 4.18639 3.79189 14.6227
265 2 0.142692 8.73504 1.10863 15.2316
248 2 0.122151 6.67692 1.21312 14.5567
264 2 0.165588 8.08969 2.72967 15.3631
127 1 -0.66049 6.17579 4.18626 14.1723
78 2 0.167136 7.20823 -0.0744986 10.8026
195 4 1.09102 11.36 -0.00266117 8.44679
49 2 0.0867903 7.32902 -1.43772 14.9465
156 3 -0.790329 4.97471 2.18547 12.6171
12 4 1.39082 1.75943 13.1226 1.50693
259 2 0.217972 8.53502 11.5764 4.98737
32 4 1.12247 5.86905 12.134 1.75115
36 4 1.33387 8.00006 8.1566 1.48604
135 1 -0.668102 6.3128 7.82281 7.77917
112 2 0.163739 10.0772 7.17965 0.95581
96 2 0.193061 3.59483 11.3853 4.56713
97 2 0.172454 4.10187 10.1128 5.89079
98 2 0.247135 3.73764 11.8914 6.37824
102 2 0.206474 5.88733 9.7776 2.9811
103 2 0.170279 4.28275 10.6789 2.54567
104 2 0.180862 5.21595 11.2486 4.07553
258 2 0.21611 7.19418 10.6828 3.92839
109 2 0.208061 5.46288 7.65524 7.0083
110 2 0.180828 7.3276 8.00551 7.30947
136 1 -0.676431 9.04387 6.74354 0.709647
260 2 0.175291 8.30346 9.67645 5.17147
61 2 0.169173 8.61327 10.9024 7.42962
131 1 -0.666512 3.50682 11.0526 5.65828
133 1 -0.664686 5.38237 10.7662 2.99697
54 2 0.0892726 5.27302 8.44291 0.592322
184 3 -0.789173 6.94596 8.66439 0.416758
163 3 -0.839222 3.02944 12.1306 1.09266
261 1 -0.656104 8.25775 10.5838 4.48985
182 3 -0.781093 7.1521 7.29648 2.61199
183 3 -0.770536 8.97749 9.23876 2.26164
250 2 0.0951183 4.52648 12.8031 0.873021
185 3 -0.826917 6.85276 11.4553 0.780623
178 3 -0.815777 5.45097 6.63684 4.74685
23 4 1.3174 4.06893 5.84792 10.8889
37 4 1.47704 6.24569 8.52335 16.1518
239 2 0.180907 8.94754 5.86867 15.8581
34 4 1.03879 6.26789 6.11163 8.5941
35 4 1.24211 8.91221 6.84824 10.1064
38 4 1.21116 4.03523 10.9397 10.1257
39 4 1.17691 7.46354 8.81711 11.9347
40 4 1.16239 6.20855 11.6599 11.9546
58 2 -0.0273488 4.76755 9.50813 9.54391
59 2 -0.00971683 6.03389 7.96551 12.1177
26 4 1.42143 1.64226 9.01983 16.3381
88 2 0.160725 2.90454 7.92255 11.9397
89 2 0.144605 4.61739 8.26356 11.1096
90 2 0.168963 4.57042 7.14531 12.7678
271 3 -0.825331 7.72775 8.45559 15.7058
237 4 1.05499 8.91877 8.34679 14.6722
128 1 -0.677359 4.07856 7.57919 11.7999
180 3 -0.843573 10.2311 6.8083 9.34155
181 3 -0.782963 7.78558 6.03084 9.24724
179 3 -0.813776 5.18918 6.08731 9.68931
189 3 -0.818225 8.34808 8.3932 13.1485
115 2 0.190158 2.92131 8.10587 9.61038
186 3 -0.817812 4.39067 12.1513 9.08944
187 3 -0.803829 2.5164 10.5421 10.3435
188 3 -0.784551 8.30879 8.33027 10.4785
270 2 0.156663 7.29819 12.0463 9.05359
190 3 -0.857459 4.69884 11.2074 11.5652
191 3 -0.819193 7.22665 10.3921 11.9868
241 4 1.3248 4.11347 9.73332 14.5094
242 2 0.04878 4.00689 9.27583 12.7963
243 3 -0.859269 5.34249 8.70761 14.8642
244 3 -0.895567 4.42481 11.1977 14.736
245 3 -0.864689 2.80023 9.12452 15.1215
263 2 0.142154 9.41314 5.90185 13.9831
240 1 -0.636876 9.41194 6.50319 14.9259
57 2 -0.038415 9.12959 6.01113 11.6282
108 2 0.161422 6.04384 8.54169 8.58342
137 1 -0.671249 3.29399 8.51428 8.59202
176 3 -0.82466 1.02434 11.0478 12.411
92 2 0.133259 3.69741 5.80058 14.997
116 2 0.192167 3.0661 9.63344 8.46986
114 2 0.181677 4.42595 8.22731 8.31855
ITEM: TIMESTEP
200
ITEM: NUMBER OF ATOMS
271
ITEM: BOX BOUNDS xy xz yz pp pp pp
-7.2018999999999993e+00 1.4748699999999999e+01 -6.1971999999999996e+00
-1.8680424000000000e+00 1.3485527200000002e+01 -1.0046999999999999e+00
0.0000000000000000e+00 1.6609600000000000e+01 -1.8680424000000000e+00
ITEM: ATOMS id type q x y z
3 4 1.243 0.782852 0.716834 5.49514
4 4 1.09928 0.223914 3.41364 7.29183
69 2 0.180215 -1.20123 5.07948 6.55997
226 3 -0.798177 -3.09892 5.80042 7.27535
41 2 0.0109709 2.17009 0.625874 4.39483
50 2 0.0155842 4.03804 2.85634 2.05255
52 2 -0.012488 4.41996 4.31381 5.10911
125 1 -0.680613 3.05575 4.00903 0.90365
67 2 0.164668 -0.380001 4.26703 5.00423
119 1 -0.661122 -1.32967 2.77747 8.20791
21 4 1.23191 3.9906 5.99611 5.14193
82 2 0.170647 0.630288 5.15412 3.62042
83 2 0.177821 0.728309 5.261 1.74047
229 2 0.0209182 2.30238 3.61629 2.58764
120 1 -0.665537 -0.169991 4.86646 5.91831
126 1 -0.669024 0.458162 5.81481 2.73796
138 3 -0.834632 -0.587892 0.544387 4.65925
139 3 -0.822501 0.896206 -0.456918 6.48853
140 3 -0.7834 0.879059 2.14541 6.26485
193 4 1.13656 5.63629 1.38241 5.6031
68 2 0.195275 0.513836 5.72518 5.82923
80 2 0.238775 2.786 5.12354 1.06351
201 2 0.192514 4.4774 0.639884 3.60019
202 2 0.107604 3.46521 1.68304 5.04231
203 2 0.27322 3.70894 -0.423594 5.20086
206 2 0.156932 4.18229 3.38314 6.6705
213 1 -0.640901 4.08841 0.686112 4.67665
218 3 -0.803592 5.84067 0.29696 6.78183
231 3 -0.78836 -0.0815208 2.84617 1.43794
227 4 0.990545 1.43919 2.58651 1.3281
230 3 -0.833657 1.95466 1.08631 1.46723
198 2 0.0825086 -0.870509 2.02748 2.6091
266 2 0.0111164 4.54026 5.19895 0.567019
18 4 0.969803 5.31878 3.97724 1.52959
84 2 0.144419 -0.572489 6.3423 2.76854
15 4 1.06987 2.84052 0.585838 9.92416
150 3 -0.772654 3.56203 0.163031 11.2514
268 2 0.133284 -1.12333 0.187611 9.66788
42 2 -0.0447016 -1.05407 4.12024 11.8577
48 2 0.0126728 1.63646 1.79447 10.1286
151 3 -0.846337 5.6896 -0.395584 13.0229
81 2 0.133087 2.40937 1.90186 16.4933
66 2 0.179814 -1.33702 3.41304 9.16739
228 2 0.0243197 0.655598 1.49379 16.3884
75 2 0.216905 4.0013 2.76942 10.3332
76 2 0.269928 2.52498 2.9511 9.13268
141 3 -0.831999 -2.65207 5.30307 10.0079
149 3 -0.740409 2.42569 -0.376562 8.76514
77 2 0.138601 5.77877 0.656851 9.62249
91 2 0.152337 2.19677 4.83149 15.1264
123 1 -0.684809 3.45059 2.306 9.47622
74 2 0.154255 4.18964 1.86403 8.59509
70 2 0.196486 1.91543 -1.13172 12.1158
17 4 1.26722 5.16189 0.673791 11.968
64 2 0.167472 -1.32409 1.57577 8.42405
255 2 0.0266994 -2.79783 2.87116 16.3482
153 3 -0.787848 1.19651 3.86646 8.48238
20 4 1.45269 1.25361 5.63784 9.23709
155 3 -0.791906 2.94849 6.3463 3.96601
2 4 1.19383 -4.26203 12.0658 7.23664
8 4 1.04734 -1.62638 8.22766 6.50153
9 4 1.48523 -2.38694 10.5159 4.72429
169 3 -0.79637 1.11481 10.7747 4.17094
167 3 -0.827515 -1.1264 11.6255 8.22203
246 2 0.0874751 -2.10109 12.8169 1.20418
25 4 1.35053 -0.0217523 11.0542 2.99478
27 4 1.31475 2.18237 7.57411 7.16327
170 3 -0.782296 1.68044 8.77613 6.23203
44 2 0.0288399 -0.651737 6.77839 6.19122
45 2 0.048605 -3.02003 7.26276 6.42508
51 2 0.050189 1.4626 8.59469 3.21813
166 3 -0.828446 -1.46134 8.79541 7.93027
19 4 1.01768 1.9406 6.94025 2.79999
1 4 1.05245 -4.02162 12.9782 1.34985
93 2 0.1545 -0.305083 8.32565 2.72888
94 2 0.197325 0.989657 9.20145 1.56797
95 2 0.15619 -0.866356 9.55415 1.41353
162 3 -0.843383 2.98627 9.37479 0.351873
118 1 -0.660807 -5.32258 10.6042 7.5733
130 1 -0.66171 -0.00712094 9.31236 2.12883
142 3 -0.774971 -4.55046 11.8153 2.31691
143 3 -0.799489 -3.85224 9.857 4.01594
144 3 -0.837828 -1.58714 9.17393 5.29916
145 3 -0.789485 -2.89885 11.5493 5.82869
159 3 -0.763614 2.6272 6.87489 1.37069
160 3 -0.837859 0.419246 12.2274 1.84802
161 3 -0.825991 -1.54016 11.2108 3.47942
164 3 -0.819242 1.02129 6.6883 7.97733
165 3 -0.819622 3.32998 6.6025 6.44183
63 2 0.172392 -4.97252 9.80551 6.83999
29 4 1.28782 1.76379 10.5767 5.66399
14 4 1.28795 0.0762262 12.5015 7.67791
171 3 -0.794614 1.07663 11.6535 6.69987
7 4 1.27378 -5.05271 10.3169 3.13183
117 1 -0.644224 -3.98209 10.4112 16.3483
262 2 0.111614 -4.15771 6.99381 15.2966
10 4 1.26705 -2.48473 7.61208 13.0508
11 4 1.12377 -3.39992 10.0437 11.2941
129 1 -0.652542 2.90048 5.76629 15.144
28 4 1.51456 -1.30403 10.2888 9.06061
30 4 1.27215 -1.16142 9.43562 15.1203
43 2 0.116222 -1.89838 7.642 9.01007
46 2 -0.0162684 -3.92851 6.69802 13.4261
47 2 0.051098 -5.07373 10.5086 11.4842
55 2 0.0125865 -2.03624 9.90824 16.4622
31 4 1.33357 1.18683 10.1239 11.1073
62 2 0.198124 -4.98104 10.3667 8.7127
252 2 0.102033 -5.69097 10.7259 16.2989
154 3 -0.833998 0.0279957 5.91113 10.1525
71 2 0.242715 -2.49054 11.6561 12.6396
99 2 0.210187 0.994056 7.81508 11.277
100 2 0.254632 -0.0779318 8.59182 12.6626
121 1 -0.669617 -3.70999 11.4852 12.5211
16 4 1.30529 0.0509503 11.6804 13.567
132 1 -0.661797 0.953213 8.47943 12.1982
5 4 1.21827 -3.0916 6.36037 8.92846
146 3 -0.845115 -1.56356 6.63931 12.2074
147 3 -0.855169 -3.03543 8.76616 12.126
253 2 0.162999 -3.5513 10.8466 15.3881
157 3 -0.835555 2.55297 5.82222 10.1309
238 2 0.00339402 -4.56266 9.44996 14.7561
168 3 -0.824367 -2.73517 10.3322 9.85423
172 3 -0.848304 -1.91365 8.20857 14.3895
173 3 -0.869535 0.309996 9.0039 15.5186
174 3 -0.851832 -1.06852 10.6916 14.1245
175 3 -0.869833 -0.071067 10.0857 10.0413
101 2 0.184627 1.73079 8.21049 12.9086
72 2 0.166328 -4.14222 11.126 13.4466
267 2 0.191516 2.50079 6.66492 14.4646
60 2 0.132994 -3.7434 9.26512 16.4409
6 4 1.16299 -1.2606 5.58375 11.0827
152 3 -0.806752 6.56523 3.23442 0.798175
247 2 0.10153 11.5574 3.06767 1.82043
56 2 -0.000906213 6.19229 4.78979 7.45621
73 2 0.0219902 9.37022 2.99473 0.781494
105 2 0.1417 8.73867 5.07821 3.9347
106 2 0.14348 7.49204 4.74807 5.29357
211 2 0.17743 8.95979 2.71029 7.6241
111 2 0.163923 8.8884 5.79182 1.06941
204 2 0.13044 5.83846 4.18805 6.01441
134 1 -0.681751 7.94737 5.49183 4.63062
220 3 -0.801423 8.49438 0.670297 2.59024
223 3 -0.831316 9.35249 1.56408 4.99808
219 3 -0.853838 12.5 -0.162918 2.68797
192 4 1.28677 13.0191 0.979701 3.65526
224 3 -0.78036 11.1111 0.50576 6.75039
194 4 1.26776 8.17879 1.66677 3.85427
196 4 1.48482 10.8267 1.58939 5.54148
197 4 0.967146 10.4455 4.49161 6.61437
205 2 0.158939 5.85816 2.9832 7.49939
199 2 -0.0220511 8.33317 3.23274 3.31558
200 2 -0.0198187 9.80644 4.99411 5.17481
177 3 -0.819626 5.8068 4.80183 2.75464
257 1 -0.643575 11.5773 4.16894 0.929505
222 3 -0.839982 11.87 1.82014 4.32552
225 3 -0.787615 11.133 3.14195 6.4018
221 3 -0.826776 6.75648 1.53819 4.46667
33 4 1.27038 6.43918 6.10157 3.59779
232 4 0.887213 13.0135 3.09715 0.364235
217 1 -0.657293 9.05562 3.9035 7.70488
212 2 0.132687 8.22039 4.54777 7.2076
256 2 0.16626 11.6012 5.15086 1.44561
214 1 -0.674833 5.31769 3.29497 6.54844
269 2 0.209638 13.4385 -0.0516316 7.72911
254 2 0.168665 10.57 4.12412 0.224347
13 4 1.03074 7.79265 2.35682 0.132453
65 2 0.26651 12.4539 2.9393 7.52196
22 4 1.05242 4.95744 3.70764 13.1175
87 2 0.169456 6.10756 4.54426 15.238
236 3 -0.809416 12.5439 -0.972063 13.4106
156 3 -0.790158 4.96971 2.20892 12.5279
216 1 -0.658773 13.09 -0.379748 8.83414
79 2 0.169306 6.93471 1.89919 10.4874
234 2 -0.0325245 9.99712 -0.0871234 13.6913
86 2 0.18093 6.97586 3.01732 14.5844
122 1 -0.66537 8.05342 1.60132 15.6167
124 1 -0.675946 6.47138 0.859449 10.5482
85 2 0.143294 6.94384 4.70885 13.5064
158 3 -0.779192 4.4022 4.80894 12.1836
251 2 -0.00622671 13.1678 -0.698599 10.7521
207 2 0.193836 9.99563 2.47381 8.79132
208 2 0.135892 11.5016 1.82286 9.89544
209 2 0.162228 9.75491 1.07382 10.1318
210 2 0.180292 9.25335 4.26649 8.77694
249 2 -0.0116864 7.07176 -0.309192 9.0242
215 1 -0.656201 10.4375 1.58241 9.40559
195 4 1.07338 11.1256 0.0702511 8.42021
148 3 -0.845525 6.72617 -1.01675 16.5625
233 4 1.19643 11.3349 -0.787323 14.4385
49 2 0.0811426 7.15449 -1.50886 15.0032
235 3 -0.782005 11.7069 0.210842 15.7269
53 2 -0.00313463 4.44831 3.72875 14.7496
265 2 0.163586 9.01319 1.58363 15.0793
248 2 0.108052 6.91783 1.09937 14.7536
264 2 0.16061 7.78156 2.65398 15.9504
127 1 -0.68052 6.40045 4.00544 14.3045
78 2 0.166385 7.17978 0.00615165 10.7473
113 2 0.160339 7.82493 4.91421 15.9873