ITEM: TIMESTEP
0
ITEM: NUMBER OF ATOMS
271
ITEM: BOX BOUNDS xy xz yz pp pp pp
-7.2018999999999993e+00 1.4748699999999999e+01 -6.1971999999999996e+00
-1.8606000000000000e+00 1.3431800000000001e+01 -1.0046999999999999e+00
0.0000000000000000e+00 1.6609600000000000e+01 -1.8606000000000000e+00
ITEM: ATOMS id type q x y z
3 4 1.24845 0.851001 0.961577 5.46463
4 4 1.11109 0.27707 3.66131 7.19647
18 4 0.998162 5.23206 3.87369 1.45206
21 4 1.20816 3.85472 6.08648 5.23121
41 2 0.00654399 2.20845 0.945827 4.45226
50 2 0.0250261 3.85215 2.90413 2.13801
52 2 0.00806223 4.0823 4.47086 5.76165
125 1 -0.667754 3.01217 3.87834 0.871081
67 2 0.180474 -1.34046 5.15485 5.61151
119 1 -0.659541 -1.28323 2.74863 7.87889
64 2 0.173082 -1.24819 1.54004 8.09524
82 2 0.177724 0.575561 4.92588 3.21386
83 2 0.189815 0.354489 5.3279 1.42642
229 2 0.027225 2.12887 3.51913 2.52631
120 1 -0.678686 -0.505988 5.28026 6.33176
126 1 -0.662776 0.481303 5.72215 2.46445
138 3 -0.852437 -0.37327 0.846868 4.53606
139 3 -0.844406 0.815426 -0.310078 6.50906
140 3 -0.790365 0.915059 2.47337 6.05969
193 4 1.16856 5.76801 1.40364 5.66938
68 2 0.145088 0.542928 5.55902 5.88108
80 2 0.240453 2.86755 4.991 1.0612
201 2 0.188832 4.28375 0.807011 3.66846
202 2 0.118626 3.53583 1.7604 5.28314
203 2 0.272129 3.86004 -0.223425 5.32536
206 2 0.161612 4.30024 3.29414 6.91343
213 1 -0.654117 4.17021 0.845899 4.82056
218 3 -0.823706 6.1192 0.282177 6.78443
231 3 -0.792129 -0.219704 2.93359 1.33293
227 4 0.975875 1.29897 2.52151 1.3255
230 3 -0.841815 1.73677 0.952025 1.53727
198 2 0.0969081 -1.01491 2.22137 2.58702
266 2 0.0201128 4.53548 4.99523 0.304208
155 3 -0.815034 2.85007 6.19802 3.94925
153 3 -0.8238 1.30845 4.11958 8.2783
226 3 -0.796096 -3.12728 5.72354 7.4722
269 2 0.240797 -0.691268 -0.264775 7.79277
69 2 0.182079 -0.780154 5.90167 7.25885
15 4 1.06516 3.20264 0.603194 9.69238
150 3 -0.783722 4.10801 0.0438708 10.9106
268 2 0.123631 -1.09693 0.209197 9.63389
42 2 -0.0509428 -1.08565 3.77158 11.7523
48 2 0.00424246 1.96587 1.55612 10.4207
151 3 -0.866983 5.72328 -0.467247 13.1151
81 2 0.124739 2.37815 1.79048 16.3829
66 2 0.174328 -1.4022 3.28235 8.84266
228 2 0.0164976 0.819943 1.03509 16.2743
75 2 0.204668 3.7972 2.97332 10.3905
76 2 0.277973 2.55053 3.11291 8.88756
141 3 -0.817808 -2.57365 5.23814 10.0035
149 3 -0.80584 2.62142 -0.229985 8.48301
6 4 1.2103 -1.30262 5.29237 11.0486
91 2 0.15103 1.92022 4.2734 15.4874
123 1 -0.674113 3.39257 2.48571 9.44802
74 2 0.112489 4.39982 2.12306 8.59717
70 2 0.164945 1.63687 -0.979476 11.8061
17 4 1.28344 5.33129 0.616421 12.0093
255 2 -0.000784102 -2.906 2.62929 16.0472
24 4 0.97572 3.59555 8.032 0.25142
2 4 1.2472 -4.16257 12.3433 7.21288
8 4 1.00065 -1.47568 8.25662 6.45512
9 4 1.4616 -2.43953 10.5604 4.80118
169 3 -0.782275 1.10327 10.8785 4.28075
167 3 -0.835942 -1.08448 11.6579 8.23389
246 2 0.0857206 -2.27879 12.9158 1.25414
25 4 1.34937 0.0536402 11.189 3.06298
27 4 1.28584 2.37782 7.61677 7.36191
170 3 -0.781586 1.82997 8.92337 6.17424
44 2 0.0280296 -0.135492 7.21214 6.07408
45 2 0.0107858 -2.63534 7.09559 6.26996
51 2 0.020999 1.50417 8.46743 3.04953
166 3 -0.809958 -1.5193 8.77955 7.92025
19 4 1.04127 1.99456 6.81433 2.7339
1 4 1.10277 -4.19393 12.8813 1.54445
93 2 0.163074 -0.273352 8.71609 2.86324
94 2 0.208088 1.17142 9.45251 1.84946
95 2 0.16297 -0.587995 9.6618 1.20175
162 3 -0.827854 2.86241 9.36463 0.431979
118 1 -0.657771 -5.0156 10.9387 8.11869
130 1 -0.676376 0.0780039 9.50033 2.12666
142 3 -0.82518 -4.72083 11.7915 2.51567
143 3 -0.817042 -3.7692 9.8069 4.05609
144 3 -0.828308 -1.45391 9.3476 5.32683
145 3 -0.793593 -2.91055 11.6677 5.87817
159 3 -0.76706 2.86579 6.78852 1.46158
160 3 -0.849348 0.467697 12.2648 1.93484
161 3 -0.770487 -1.56022 11.4749 3.63119
165 3 -0.838915 3.45476 6.64895 6.70624
171 3 -0.813829 1.24984 11.4407 6.97098
63 2 0.220422 -4.4147 10.0488 8.29209
7 4 1.36013 -5.01914 10.3188 3.15531
14 4 1.30826 0.192878 12.4586 7.75743
60 2 0.146365 -3.10163 10.9712 0.156675
84 2 0.118591 -0.315773 6.55498 2.78965
29 4 1.3525 1.81976 10.5459 5.82902
164 3 -0.841357 1.17342 6.98054 8.30579
262 2 0.122213 -4.19834 6.66907 15.1389
10 4 1.28401 -2.68158 7.47204 12.9256
11 4 1.14835 -3.383 10.0312 11.2744
129 1 -0.656747 2.0204 5.4147 15.2954
28 4 1.51639 -1.3496 10.3815 9.06994
30 4 1.25229 -1.26522 9.21365 14.9298
43 2 0.0952054 -2.20923 7.67323 8.92522
46 2 -0.00605289 -4.09613 6.58866 13.4045
47 2 0.0613532 -5.094 10.3636 11.1106
55 2 0.0052622 -2.25584 9.49419 16.2398
31 4 1.37743 1.12004 10.2433 11.0825
62 2 0.190793 -5.2367 11.518 9.06141
252 2 0.100688 -5.69565 10.603 16.3551
92 2 0.140484 2.93763 5.74173 14.6321
71 2 0.214141 -2.89392 11.8013 12.5613
99 2 0.215803 1.75212 7.69429 10.9001
100 2 0.242297 -0.0453975 8.04815 11.189
121 1 -0.673839 -4.06666 11.5833 12.2826
16 4 1.30125 -0.0155847 11.5746 13.6614
132 1 -0.666541 1.04103 8.34887 11.4577
5 4 1.19343 -3.2089 6.34616 9.01213
146 3 -0.824441 -1.85957 6.36664 12.1895
147 3 -0.859263 -3.05944 8.7227 12.049
253 2 0.157251 -3.5342 10.4227 15.5969
157 3 -0.810775 2.54393 5.85342 10.1727
238 2 -0.00420856 -4.43285 9.24137 14.8584
168 3 -0.844501 -2.75202 10.3228 9.85881
172 3 -0.850302 -1.98483 7.94586 14.2773
173 3 -0.840494 0.207921 9.01143 15.5069
174 3 -0.832191 -1.21122 10.5835 13.9861
175 3 -0.871254 -0.128949 10.2932 10.1576
101 2 0.192106 1.23624 8.28973 12.5866
72 2 0.167298 -4.63366 11.197 13.1785
267 2 0.201645 1.04655 5.88062 14.9416
20 4 1.46426 1.21351 5.68866 9.28502
154 3 -0.854713 -0.00989837 5.6474 10.3298
117 1 -0.650604 -4.07789 10.2076 16.5293
152 3 -0.829086 6.21057 3.02481 0.56557
247 2 0.117945 11.5067 2.85421 1.65653
56 2 0.00209843 5.94707 4.98152 7.0956
73 2 0.0337033 8.90002 3.28742 0.540685
105 2 0.146385 8.79547 5.91727 4.14442
106 2 0.146953 7.78894 4.29294 4.47532
211 2 0.174027 9.27918 2.60822 7.76837
111 2 0.157989 8.79393 5.93907 1.6765
204 2 0.147739 5.8268 4.10929 5.96069
134 1 -0.663551 7.82078 5.4832 4.59619
220 3 -0.847363 8.25981 0.503934 2.78678
223 3 -0.807698 9.25887 1.50453 5.04173
219 3 -0.842668 12.8301 -0.269122 2.54903
192 4 1.30289 13.1463 0.943819 3.58423
224 3 -0.761906 11.2137 0.498445 6.66645
194 4 1.27379 8.17675 1.66621 3.88899
196 4 1.45462 10.9024 1.59192 5.47437
197 4 0.975999 10.527 4.57629 6.65158
205 2 0.145279 5.97523 2.93485 7.5557
199 2 -0.0371039 8.57187 3.13159 3.13705
200 2 -0.0247532 9.63336 5.38988 5.3872
177 3 -0.789234 5.82921 4.85764 2.52327
257 1 -0.657349 11.4831 3.82344 0.69519
222 3 -0.861846 11.8441 1.57272 4.23272
225 3 -0.789985 11.1776 3.25367 6.13701
221 3 -0.821483 6.69872 1.86692 4.45924
33 4 1.22665 6.35795 6.18042 3.62549
232 4 0.931802 13.0282 2.92983 0.112167
217 1 -0.638132 9.30861 3.81822 7.86772
212 2 0.150829 8.38048 4.4181 7.42596
256 2 0.167967 11.561 4.84558 1.04099
214 1 -0.672833 5.36526 3.21234 6.59166
107 2 0.141814 7.63275 5.82416 5.67907
65 2 0.276218 12.5404 2.93421 7.23051
254 2 0.177979 10.5527 3.72782 0.009101
22 4 1.05147 4.88545 3.6535 12.9125
87 2 0.161337 5.61214 4.68009 15.1853
236 3 -0.802133 12.2875 -1.02059 13.3712
13 4 0.980966 6.46898 0.557747 16.4147
216 1 -0.66601 13.3418 -0.418731 8.74667
79 2 0.16318 7.43326 1.7138 11.2007
234 2 -0.0309586 9.77518 0.00241094 13.9057
86 2 0.171714 6.72155 3.10876 14.7657
122 1 -0.658195 7.94356 1.61924 15.3682
124 1 -0.667622 6.83127 0.831383 10.8111
85 2 0.11303 6.72724 4.76963 13.5602
158 3 -0.821807 4.35496 4.86529 11.9944
156 3 -0.830154 5.06465 2.1883 12.4813
207 2 0.185386 10.4414 2.42853 8.83676
208 2 0.145956 12.0435 1.81681 9.74493
209 2 0.14981 10.3865 1.0231 10.2469
210 2 0.191048 9.51788 4.12303 8.93991
249 2 -0.00122647 7.12166 -0.322054 9.10836
215 1 -0.665351 11.0159 1.54558 9.41777
77 2 0.145318 6.29037 1.06299 9.82859
195 4 1.07892 11.394 0.0241249 8.36064
233 4 1.28073 11.1361 -0.854654 14.5053
113 2 0.168835 7.60661 4.79977 16.4888
235 3 -0.836518 11.6727 -0.101683 15.75
53 2 0.0073857 4.09403 3.69323 14.4495
265 2 0.152598 8.77591 1.09351 14.9377
248 2 0.0977611 6.63315 1.26297 14.631
264 2 0.154376 8.10363 2.75224 15.2352
127 1 -0.65797 6.03191 4.01579 14.3699
78 2 0.174167 7.37062 -0.141548 10.8222
251 2 -0.0273809 13.0978 -0.623942 10.6555
148 3 -0.813186 6.70673 -1.08631 16.5119
12 4 1.46352 1.73458 13.0996 1.49916
259 2 0.242842 8.58374 11.7884 4.86679
32 4 1.15177 6.00151 12.0031 1.77335
36 4 1.29201 7.92266 8.16476 1.63651
135 1 -0.653678 6.61036 7.86733 7.94205
112 2 0.177158 10.0706 7.08918 0.945181
96 2 0.204401 3.69408 11.8293 4.98008
97 2 0.17272 4.20215 10.0719 5.45959
98 2 0.228576 3.89222 11.4003 6.81595
102 2 0.213349 5.94573 9.6396 2.84453
103 2 0.164324 4.31742 10.6811 2.65209
104 2 0.180164 5.66183 10.9886 4.08337
258 2 0.192844 7.31386 10.7008 3.90522
109 2 0.177521 6.15868 7.74625 6.87684
110 2 0.203074 7.72387 7.97365 7.91681
136 1 -0.675184 9.03912 6.7833 0.909211
260 2 0.16876 8.52778 10.0313 5.33186
114 2 0.202518 4.6954 8.32373 8.22134
131 1 -0.668372 3.63992 11.0192 5.7917
133 1 -0.693197 5.47529 10.6687 3.03435
54 2 0.0929997 5.34836 8.26314 0.211194
184 3 -0.780331 6.91222 8.6721 0.310382
163 3 -0.850689 2.90398 12.054 1.0344
261 1 -0.646527 8.40535 10.7681 4.48696
182 3 -0.793303 7.04799 7.58238 2.83618
183 3 -0.808625 9.0353 9.23267 2.16264
116 2 0.176429 3.27324 9.64606 8.21765
185 3 -0.833654 6.96004 11.3803 0.741704
178 3 -0.815191 5.35158 6.56725 4.78901
250 2 0.0898337 4.56102 12.4333 0.971611
61 2 0.165903 8.81945 10.855 7.41335
23 4 1.31069 4.04823 5.94958 10.8096
37 4 1.49544 6.28164 8.49707 16.1612
239 2 0.170454 8.93025 5.86339 15.9728
34 4 1.0636 6.26443 6.10068 8.50393
35 4 1.19495 8.70998 6.73553 10.2034
38 4 1.21961 4.02218 11.0749 10.2017
39 4 1.16196 7.51376 8.84866 11.9533
40 4 1.19022 6.26533 11.713 11.9264
58 2 -0.00439606 4.77904 9.60738 9.63939
59 2 -0.0116354 6.02652 8.04272 12.4111
26 4 1.46864 1.62352 9.02143 16.3355
88 2 0.14982 2.93981 8.04682 11.6049
89 2 0.135068 4.97583 8.05615 11.0357
90 2 0.167343 4.49587 7.58925 12.9011
271 3 -0.834418 7.74722 8.60953 15.6585
237 4 1.01491 8.95938 8.2155 14.6268
128 1 -0.670846 4.1429 7.65834 11.7685
180 3 -0.833368 10.0874 6.95057 9.52516
181 3 -0.789198 7.6803 5.80163 9.19077
179 3 -0.802428 5.07309 6.08604 9.52538
189 3 -0.833301 8.63584 8.32367 13.0259
115 2 0.18707 3.27288 8.25067 9.52434
186 3 -0.818627 4.40174 12.2161 8.98265
187 3 -0.853135 2.51753 10.6675 10.3697
188 3 -0.782432 7.98554 8.1794 10.4685
270 2 0.158673 7.06024 11.9126 9.01548
190 3 -0.862635 4.7446 11.3147 11.5677
191 3 -0.837512 7.22251 10.4172 11.8559
241 4 1.31424 4.09874 9.70353 14.4661
242 2 0.0331822 4.00543 9.35364 12.7742
243 3 -0.866844 5.18525 8.59193 14.9634
244 3 -0.86758 4.29307 11.1965 14.7134
245 3 -0.833545 2.73644 9.32133 15.2373
263 2 0.135841 9.26031 5.74581 13.9725
240 1 -0.656363 9.44521 6.38204 14.9432
57 2 -0.041021 9.01342 5.87156 11.6282
108 2 0.163226 6.15238 8.7116 8.61361
137 1 -0.672093 3.60506 8.57955 8.49609
176 3 -0.822155 1.04532 10.8975 12.6194
49 2 0.106496 0.943063 11.7272 15.0771
ITEM: TIMESTEP
100
ITEM: NUMBER OF ATOMS
271
ITEM: BOX BOUNDS xy xz yz pp pp pp
-7.2018999999999993e+00 1.4748699999999999e+01 -6.1971999999999996e+00
-1.8606000000000000e+00 1.3431800000000001e+01 -1.0046999999999999e+00
0.0000000000000000e+00 1.6642819200000002e+01 -1.8606000000000000e+00
ITEM: ATOMS id type q x y z
3 4 1.26331 0.825831 0.901213 5.43353
4 4 1.13808 0.309017 3.44803 7.2023
69 2 0.174228 -0.796903 5.62478 6.94899
226 3 -0.790808 -3.25108 5.78288 7.30726
41 2 0.000500344 2.05371 0.774874 4.25034
50 2 0.0254417 4.06322 2.82329 1.97806
52 2 -0.0223081 4.06964 4.35669 5.47954
125 1 -0.674756 3.20929 3.89903 0.797043
67 2 0.166318 -1.25349 4.7508 5.36532
119 1 -0.670873 -1.29107 2.80184 8.07484
269 2 0.227435 -0.81759 -0.030137 7.90733
82 2 0.177447 0.460429 5.0299 3.38445
83 2 0.190959 0.658851 5.49881 1.55088
229 2 0.0058083 2.50312 3.47391 2.53944
120 1 -0.665108 -0.394006 5.00823 6.09466
126 1 -0.66016 0.540871 5.81617 2.61448
138 3 -0.856434 -0.508724 0.735894 4.67224
139 3 -0.831946 1.00379 -0.325995 6.44822
140 3 -0.830597 0.925675 2.33744 6.19184
193 4 1.10809 5.59487 1.44195 5.60316
68 2 0.176967 0.49077 5.44536 5.54362
80 2 0.233735 3.10301 4.99958 1.08093
201 2 0.167058 4.18435 0.78318 3.74791
202 2 0.112322 3.31915 1.61404 5.16541
203 2 0.276659 3.63495 -0.354754 5.26818
206 2 0.155732 4.09724 3.26442 6.70068
213 1 -0.663908 3.98639 0.678542 4.85785
218 3 -0.782926 6.00156 0.280463 6.70966
231 3 -0.751723 -0.103075 3.00873 1.41631
227 4 0.911715 1.49985 2.55207 1.36404
230 3 -0.815095 1.85468 0.915134 1.4966
198 2 0.0621123 -0.887142 2.24266 2.6073
266 2 0.0102077 4.80162 4.93431 0.179971
65 2 0.249259 -2.14893 2.98606 7.33293
21 4 1.21111 3.98284 6.06714 5.22751
15 4 1.07768 2.94554 0.625054 9.84528
150 3 -0.805513 3.87756 0.112379 11.036
268 2 0.121697 -1.14621 0.434289 9.69643
42 2 -0.0455159 -1.12715 3.95008 11.8395
48 2 0.00338788 1.67217 1.64803 10.2916
151 3 -0.847618 5.8303 -0.409853 13.1009
81 2 0.143054 2.44363 1.82518 16.368
66 2 0.208192 -1.41455 3.50955 8.9671
228 2 0.0288745 0.985138 0.963881 16.3103
75 2 0.216795 3.85777 2.88301 10.5108
76 2 0.267026 2.55915 3.11947 9.17775
141 3 -0.802109 -2.64215 5.08706 9.86896
149 3 -0.773224 2.56559 -0.217068 8.59942
6 4 1.16717 -1.40601 5.39145 11.0395
91 2 0.159003 2.2997 4.49911 15.1332
123 1 -0.685601 3.36061 2.45003 9.58203
74 2 0.143188 4.22627 2.12229 8.70794
70 2 0.16878 1.74942 -0.951761 12.3749
17 4 1.23618 5.26785 0.587864 11.9031
64 2 0.176448 -1.31538 1.69017 8.33544
255 2 0.0249772 -2.91353 2.74935 16.187
153 3 -0.809156 1.15973 4.06002 8.4656
20 4 1.46087 1.24525 5.60818 9.23733
155 3 -0.795236 2.71936 6.40496 4.21591
2 4 1.2634 -4.17978 12.1966 7.22535
8 4 1.00932 -1.43093 8.21458 6.47192
9 4 1.45124 -2.41799 10.3763 4.69542
169 3 -0.802582 1.09467 10.9341 4.19589
167 3 -0.826881 -1.11036 11.6274 8.08654
246 2 0.0892918 -2.13579 12.5488 1.41297
25 4 1.37898 0.04107 11.1737 3.00759
27 4 1.36865 2.26457 7.65055 7.19472
170 3 -0.802104 1.69437 8.87653 6.2609
44 2 0.0121359 -0.341866 7.00737 6.08569
45 2 0.0369449 -2.74485 7.16781 6.40152
51 2 0.027457 1.29057 8.51479 3.01426
166 3 -0.78459 -1.36143 8.84105 7.94533
19 4 1.01886 2.03866 6.87085 2.84894
1 4 1.06456 -4.01257 12.8274 1.41614
93 2 0.165167 -0.571655 8.72944 2.73283
94 2 0.2031 0.917176 9.21302 1.57588
95 2 0.163425 -0.815804 9.73127 1.15299
162 3 -0.847457 2.79151 9.45231 0.440826
118 1 -0.664939 -5.07189 10.6595 7.85557
130 1 -0.672478 -0.11278 9.47991 2.03317
142 3 -0.801514 -4.70379 11.7888 2.3345
143 3 -0.803756 -3.67527 9.6516 3.96373
144 3 -0.851441 -1.55303 9.24786 5.35254
145 3 -0.760433 -3.1105 11.4819 5.92957
159 3 -0.769631 2.93938 6.82712 1.48068
160 3 -0.83677 0.318583 12.2593 1.79396
161 3 -0.803855 -1.38272 11.3563 3.67368
164 3 -0.849654 1.30071 6.64312 7.99553
171 3 -0.831694 1.25069 11.4184 7.01413
63 2 0.190639 -4.57988 9.80059 7.34044
7 4 1.27924 -5.07052 10.3665 3.25532
14 4 1.29909 0.212157 12.444 7.66469
29 4 1.3439 1.70154 10.5612 5.78557
84 2 0.115606 -0.235277 6.77876 2.74178
165 3 -0.824464 3.46835 6.81826 6.50396
24 4 0.978611 3.58383 8.12841 0.296911
117 1 -0.662077 -3.79617 10.4005 16.4148
262 2 0.110538 -4.17867 6.87519 15.216
10 4 1.25753 -2.59335 7.50548 12.9792
11 4 1.115 -3.40661 10.0847 11.3498
129 1 -0.677737 2.54205 5.58604 15.1831
28 4 1.51804 -1.38939 10.4371 9.06078
30 4 1.26977 -1.21509 9.31947 14.9255
43 2 0.0847412 -2.10127 7.69769 8.91538
46 2 -0.021112 -4.00217 6.61913 13.4481
47 2 0.0565159 -5.0699 10.5461 11.4205
55 2 0.0534751 -1.91257 9.89574 16.4536
31 4 1.35065 0.984821 10.115 11.07
62 2 0.208958 -4.96876 10.715 8.95156
252 2 0.0798485 -5.47218 10.49 16.309
154 3 -0.812718 -0.149223 5.77303 10.2043
71 2 0.220999 -2.62433 11.8591 12.4666
99 2 0.186271 1.38216 7.76732 11.1403
100 2 0.24887 -0.112173 8.12038 12.1931
121 1 -0.662078 -3.84539 11.5376 12.602
16 4 1.28 0.107116 11.6253 13.5843
132 1 -0.675627 0.940194 8.39848 12.0041
5 4 1.21448 -3.1174 6.32664 8.87211
146 3 -0.851355 -1.7268 6.52485 12.1521
147 3 -0.837776 -3.08399 8.69267 12.0168
253 2 0.163688 -3.25008 11.1728 15.7718
157 3 -0.80623 2.5669 5.74505 10.2129
238 2 -0.00433606 -4.62074 9.57673 14.8486
168 3 -0.836101 -2.79552 10.3583 9.8898
172 3 -0.870795 -2.08117 8.0907 14.366
173 3 -0.853494 0.171033 9.04919 15.5869
174 3 -0.836077 -1.13006 10.6239 13.9323
175 3 -0.885604 -0.222412 10.1686 10.1384
101 2 0.193984 1.53313 8.49073 13.0167
72 2 0.173326 -4.03376 11.1205 13.6394
267 2 0.200807 1.83329 6.2525 14.6545
60 2 0.136769 -3.55184 9.34581 16.1683
152 3 -0.862982 6.44712 3.06507 0.746153
247 2 0.097044 11.3871 2.97796 1.60521
56 2 -0.00425006 6.01477 4.69552 7.64798
73 2 0.0248468 9.08438 2.78342 0.6286
105 2 0.159051 8.89564 5.93883 4.05767
106 2 0.141138 7.85681 4.22593 4.11168
211 2 0.178361 9.06391 2.81199 7.61187
111 2 0.180104 8.72872 5.86586 1.34214
204 2 0.148672 5.79515 3.88142 6.00039
134 1 -0.681234 8.03082 5.34526 4.50505
220 3 -0.871986 8.37302 0.641112 2.71492
223 3 -0.806556 9.23786 1.59047 4.94014
219 3 -0.813134 12.634 -0.167457 2.78274
192 4 1.29818 13.1456 1.03582 3.61875
224 3 -0.732965 11.0554 0.492994 6.89198
194 4 1.3151 8.24338 1.72722 3.7805
196 4 1.4413 10.8339 1.71384 5.49593
197 4 0.990567 10.4466 4.4727 6.58964
205 2 0.160258 5.76274 2.84363 7.5735
199 2 -0.0375233 8.49659 3.12077 2.87045
200 2 -0.0011305 9.89145 5.12044 5.00852
177 3 -0.81553 5.76345 4.86793 2.66634
257 1 -0.643158 11.3989 4.02178 0.749607
222 3 -0.820508 11.7829 1.57992 4.22157
225 3 -0.84567 11.1582 3.19739 6.06491
221 3 -0.791575 6.7817 1.80537 4.49224
33 4 1.2419 6.48499 6.14969 3.62311
232 4 0.888023 12.9422 3.00406 0.375824
217 1 -0.660539 9.21733 3.87673 7.92779
212 2 0.151669 8.36511 4.49098 7.4953
256 2 0.15752 11.5766 5.04334 1.25961
214 1 -0.693405 5.23125 3.18645 6.63804
107 2 0.134531 7.75478 5.51589 5.59422
254 2 0.173392 10.4183 3.94993 0.0293887
18 4 1.02014 5.43727 3.97036 1.45309
22 4 1.07087 4.79418 3.64056 13.0403
87 2 0.161969 5.73314 4.881 14.9424
236 3 -0.791065 12.461 -0.823514 13.3517
13 4 1.02734 6.55987 0.447414 16.525
216 1 -0.679949 13.4027 -0.294702 8.80994
79 2 0.164643 7.186 1.8325 10.7895
234 2 -0.0238338 10.1492 0.178129 13.7107
86 2 0.164298 6.77899 3.18002 14.7292
122 1 -0.663802 7.81687 1.6809 15.4871
124 1 -0.680814 6.58726 0.88769 10.5306
85 2 0.150743 6.88496 4.6788 13.3986
158 3 -0.83359 4.33573 4.71112 11.9765
251 2 -0.0136243 13.0479 -0.723134 10.7029
207 2 0.198841 10.239 2.38162 8.89985
208 2 0.122154 11.7274 1.66932 9.95754
209 2 0.167501 9.8887 0.959941 10.0503
210 2 0.202331 9.42866 4.04389 9.02767
249 2 0.00870488 7.1455 -0.304614 9.10242
215 1 -0.643681 10.6762 1.44553 9.37809
77 2 0.154063 6.06113 0.896263 9.54819
148 3 -0.834593 6.79987 -1.10534 16.442
233 4 1.23101 11.294 -0.845675 14.4768
113 2 0.174336 7.77161 4.69683 16.2772
235 3 -0.788314 11.6832 0.0219348 15.8578
53 2 -0.00871362 4.18636 3.79184 14.6228
265 2 0.142738 8.73546 1.11033 15.2292
248 2 0.122098 6.6774 1.21384 14.5566
264 2 0.165493 8.08883 2.73122 15.3636
127 1 -0.66069 6.17589 4.1861 14.1723
78 2 0.167136 7.20815 -0.0745421 10.8027
195 4 1.09102 11.36 -0.00266113 8.44679
49 2 0.0870794 7.32997 -1.43018 14.9471
156 3 -0.790308 4.9747 2.18544 12.6171
12 4 1.39087 1.75941 13.1226 1.50689
259 2 0.217968 8.53504 11.5764 4.98732
32 4 1.12246 5.86904 12.134 1.75115
36 4 1.33388 8.00006 8.1566 1.48604
135 1 -0.668103 6.3128 7.8228 7.77917
112 2 0.163735 10.0771 7.17962 0.955846
96 2 0.193058 3.59482 11.3853 4.56712
97 2 0.172453 4.10187 10.1128 5.8908
98 2 0.247135 3.73764 11.8914 6.37824
102 2 0.206473 5.88733 9.7776 2.98111
103 2 0.170276 4.28276 10.6789 2.54566
104 2 0.180861 5.21594 11.2486 4.07552
258 2 0.216107 7.1942 10.6828 3.92836
109 2 0.208061 5.46286 7.65523 7.0083
110 2 0.180827 7.32759 8.0055 7.30946
136 1 -0.67642 9.0438 6.74346 0.709739
260 2 0.175294 8.30354 9.67641 5.17141
61 2 0.169173 8.61326 10.9024 7.42962
131 1 -0.666513 3.50681 11.0526 5.65828
133 1 -0.664685 5.38238 10.7662 2.99697
54 2 0.0892741 5.27302 8.44292 0.592318
184 3 -0.789173 6.94596 8.6644 0.416746
163 3 -0.839216 3.02944 12.1306 1.0927
261 1 -0.656121 8.2578 10.5838 4.4898
182 3 -0.781092 7.15209 7.29648 2.61198
183 3 -0.770522 8.97748 9.23873 2.26166
250 2 0.0951241 4.52646 12.8031 0.87303
185 3 -0.826914 6.85275 11.4553 0.780623
178 3 -0.815769 5.45098 6.63684 4.74685
23 4 1.31738 4.06894 5.84793 10.8889
37 4 1.47705 6.24574 8.52337 16.1518
239 2 0.180879 8.94755 5.86831 15.8581
34 4 1.03878 6.26789 6.11163 8.5941
35 4 1.24211 8.91221 6.84825 10.1064
38 4 1.21116 4.03523 10.9397 10.1258
39 4 1.1769 7.46358 8.81715 11.9347
40 4 1.1624 6.20853 11.6599 11.9546
58 2 -0.0273461 4.76754 9.50813 9.54392
59 2 -0.00972737 6.03398 7.96546 12.1178
26 4 1.42147 1.64223 9.01984 16.3381
88 2 0.160723 2.90456 7.92258 11.9397
89 2 0.144607 4.61747 8.26349 11.1096
90 2 0.168957 4.57049 7.14528 12.7679
271 3 -0.825352 7.72777 8.45566 15.7058
237 4 1.05496 8.91887 8.34652 14.6723
128 1 -0.677346 4.07861 7.57919 11.7999
180 3 -0.843571 10.2311 6.8083 9.34155
181 3 -0.78296 7.78558 6.03085 9.24724
179 3 -0.813774 5.18918 6.08731 9.68932
189 3 -0.81817 8.34832 8.39346 13.1485
115 2 0.190159 2.9213 8.10586 9.61038
186 3 -0.817809 4.39066 12.1513 9.08944
187 3 -0.803805 2.5164 10.5421 10.3435
188 3 -0.784552 8.30878 8.33028 10.4785
270 2 0.156666 7.29819 12.0463 9.05361
190 3 -0.857457 4.69884 11.2074 11.5652
191 3 -0.819182 7.22662 10.3921 11.9867
241 4 1.32481 4.11348 9.73334 14.5095
242 2 0.0487885 4.00693 9.27584 12.7963
243 3 -0.859266 5.34251 8.7076 14.8642
244 3 -0.895565 4.42484 11.1977 14.736
245 3 -0.86466 2.80024 9.12453 15.1215
263 2 0.142173 9.41315 5.90156 13.9832
240 1 -0.636902 9.41191 6.50285 14.9258
57 2 -0.0384225 9.12959 6.01114 11.6282
108 2 0.161424 6.04384 8.54169 8.58343
137 1 -0.671246 3.29399 8.51428 8.59202
176 3 -0.824647 1.02445 11.0479 12.4112
92 2 0.133263 3.69742 5.80058 14.997
116 2 0.192167 3.0661 9.63345 8.46988
114 2 0.181676 4.42595 8.22731 8.31855
ITEM: TIMESTEP
200
ITEM: NUMBER OF ATOMS
271
ITEM: BOX BOUNDS xy xz yz pp pp pp
-7.2018999999999993e+00 1.4748699999999999e+01 -6.1971999999999996e+00
-1.8606000000000000e+00 1.3431800000000001e+01 -1.0046999999999999e+00
0.0000000000000000e+00 1.6676038399999999e+01 -1.8606000000000000e+00
ITEM: ATOMS id type q x y z
3 4 1.2437 0.78477 0.723192 5.49909
4 4 1.10149 0.226588 3.41668 7.29083
69 2 0.180096 -1.20116 5.07883 6.55764
226 3 -0.798073 -3.09777 5.80103 7.27489
41 2 0.0120139 2.16988 0.627152 4.39842
50 2 0.016078 4.03759 2.85628 2.04218
52 2 -0.0125168 4.42256 4.31662 5.10047
125 1 -0.679697 3.0612 4.02374 0.897379
67 2 0.165206 -0.381985 4.26832 4.9991
119 1 -0.661866 -1.3287 2.78072 8.20913
21 4 1.23117 3.99292 5.99674 5.13866
82 2 0.171486 0.609004 5.12144 3.60429
83 2 0.17106 0.733621 5.25918 1.70055
229 2 0.0209464 2.28494 3.64807 2.58243
120 1 -0.664886 -0.170924 4.86621 5.91457
126 1 -0.663989 0.457774 5.81131 2.74331
138 3 -0.833955 -0.586022 0.553347 4.65638
139 3 -0.82853 0.906682 -0.448179 6.49372
140 3 -0.78456 0.878517 2.15904 6.25601
193 4 1.13322 5.63525 1.40183 5.5917
68 2 0.195539 0.516369 5.72348 5.82844
80 2 0.237812 2.77644 5.16355 1.05887
201 2 0.192886 4.48012 0.633768 3.58949
202 2 0.107983 3.46524 1.69845 5.01531
203 2 0.273103 3.70867 -0.40883 5.21705
206 2 0.156959 4.18044 3.39593 6.66371
213 1 -0.639914 4.0881 0.698342 4.67133
218 3 -0.8017 5.84575 0.310076 6.7823
231 3 -0.784695 -0.0858949 2.85179 1.43166
227 4 0.984072 1.44178 2.60501 1.32543
230 3 -0.829256 1.96039 1.09365 1.46403
198 2 0.0808334 -0.877379 2.03379 2.62566
266 2 0.0119644 4.522 5.23546 0.5682
18 4 0.972729 5.32122 3.98289 1.52231
84 2 0.145905 -0.559492 6.34583 2.77356
15 4 1.07008 2.83465 0.597136 9.9218
150 3 -0.772059 3.56551 0.16613 11.2425
268 2 0.134639 -1.11775 0.195493 9.6518
42 2 -0.0445219 -1.05361 4.11837 11.8571
48 2 0.0122716 1.63545 1.80761 10.1283
151 3 -0.843479 5.69714 -0.374786 13.0403
81 2 0.135698 2.39019 1.90222 16.5289
66 2 0.180175 -1.33778 3.41446 9.16738
228 2 0.0229723 0.645526 1.54044 16.3915
75 2 0.218124 4.00196 2.7776 10.3361
76 2 0.270013 2.53092 2.96118 9.13469
141 3 -0.832178 -2.65193 5.30155 10.0083
149 3 -0.739556 2.42451 -0.363538 8.76396
77 2 0.138388 5.76417 0.70747 9.62145
91 2 0.151355 2.14298 4.83819 15.173
123 1 -0.685467 3.4517 2.31691 9.47746
74 2 0.154516 4.18836 1.87466 8.59805
70 2 0.193592 1.9022 -1.10195 12.0967
17 4 1.26457 5.16305 0.68023 11.964
64 2 0.166941 -1.31978 1.58074 8.42512
255 2 0.0298959 -2.80391 2.83972 16.3888
153 3 -0.788929 1.19489 3.86829 8.48226
20 4 1.45295 1.25174 5.63911 9.23797
155 3 -0.791104 2.9506 6.34746 3.96283
2 4 1.19946 -4.26943 12.0462 7.23354
8 4 1.04645 -1.62515 8.22565 6.50065
9 4 1.4801 -2.38634 10.5077 4.72574
169 3 -0.79652 1.1167 10.7754 4.16677
167 3 -0.829771 -1.11736 11.6216 8.22522
246 2 0.0893154 -2.11045 12.7613 1.19368
25 4 1.35269 -0.0220575 11.0519 2.99006
27 4 1.31608 2.18269 7.57041 7.16062
170 3 -0.78209 1.67995 8.76917 6.22715
44 2 0.0296704 -0.644581 6.78102 6.19278
45 2 0.0488279 -3.01872 7.26044 6.42451
51 2 0.0489092 1.469 8.58878 3.21833
166 3 -0.82818 -1.46164 8.79454 7.93174
19 4 1.01764 1.94248 6.94513 2.79662
1 4 1.05396 -4.02618 12.9551 1.34142
93 2 0.154162 -0.30469 8.32687 2.74045
94 2 0.197931 0.989785 9.18331 1.56712
95 2 0.157682 -0.866764 9.54554 1.40969
162 3 -0.837061 2.97716 9.36023 0.335072
118 1 -0.659933 -5.31812 10.5799 7.58773
130 1 -0.660551 -0.00835654 9.30803 2.12562
142 3 -0.776986 -4.54735 11.7955 2.30686
143 3 -0.799815 -3.85269 9.84863 4.0151
144 3 -0.838259 -1.58226 9.16652 5.29338
145 3 -0.790046 -2.90097 11.5414 5.8388
159 3 -0.767545 2.63393 6.88262 1.37192
160 3 -0.840031 0.413335 12.2038 1.83475
161 3 -0.824324 -1.53974 11.2116 3.47787
164 3 -0.820155 1.02123 6.68699 7.97702
165 3 -0.819609 3.33216 6.60186 6.44064
63 2 0.171322 -4.98237 9.76918 6.85476
29 4 1.28946 1.76582 10.5707 5.66064
14 4 1.29218 0.0766752 12.4923 7.67631
171 3 -0.794488 1.07927 11.6394 6.69626
7 4 1.27696 -5.05086 10.3103 3.13019
117 1 -0.643158 -3.98509 10.3909 16.3657
262 2 0.11417 -4.15816 6.9894 15.3005
10 4 1.26964 -2.48622 7.60581 13.0504
11 4 1.12331 -3.40358 10.0394 11.2985
129 1 -0.646292 2.89457 5.75671 15.1677
28 4 1.51593 -1.3044 10.2856 9.06377
30 4 1.26986 -1.16587 9.42362 15.1311
43 2 0.116268 -1.89524 7.64031 9.01226
46 2 -0.016157 -3.91762 6.69425 13.4394
47 2 0.0518218 -5.07691 10.4967 11.484
55 2 0.0143291 -2.05135 9.90367 16.4805
31 4 1.33097 1.1852 10.1202 11.1097
62 2 0.199423 -4.98065 10.3386 8.72891
252 2 0.102699 -5.70272 10.7111 16.3222
154 3 -0.834649 0.0266303 5.91302 10.1549
71 2 0.241945 -2.51279 11.6599 12.6521
99 2 0.210743 0.992585 7.81194 11.2758
100 2 0.253801 -0.0754764 8.5911 12.661
121 1 -0.6686 -3.72161 11.4802 12.525
16 4 1.30501 0.0589183 11.6681 13.5805
132 1 -0.661555 0.954131 8.47345 12.1975
5 4 1.21789 -3.08997 6.35977 8.92836
146 3 -0.847698 -1.57236 6.63677 12.2106
147 3 -0.855997 -3.04299 8.76238 12.1345
253 2 0.160834 -3.56831 10.8269 15.3984
157 3 -0.835715 2.5522 5.82134 10.1311
238 2 0.00314087 -4.56698 9.46196 14.7435
168 3 -0.824031 -2.73757 10.3256 9.85724
172 3 -0.846985 -1.91811 8.19616 14.3991
173 3 -0.871398 0.301881 8.99436 15.5407
174 3 -0.851056 -1.05369 10.6782 14.1246
175 3 -0.870236 -0.0736739 10.0791 10.0432
101 2 0.184323 1.73101 8.2008 12.9086
72 2 0.166099 -4.15573 11.1398 13.459
267 2 0.194554 2.50571 6.69975 14.5364
60 2 0.133655 -3.76718 9.24029 16.4278
6 4 1.16313 -1.26207 5.58335 11.0838
152 3 -0.807775 6.55117 3.24503 0.773589
247 2 0.09756 11.5328 3.03544 1.7628
56 2 -0.000644163 6.2019 4.79124 7.45752
73 2 0.0181496 9.33471 3.00259 0.803823
105 2 0.140453 8.74563 5.08403 3.93388
106 2 0.143432 7.48538 4.74799 5.29116
211 2 0.177645 8.95447 2.71664 7.63106
111 2 0.157507 8.86514 5.78632 1.05881
204 2 0.130412 5.836 4.20185 6.01452
134 1 -0.678941 7.94802 5.49533 4.62943
220 3 -0.803123 8.49511 0.697334 2.57899
223 3 -0.830896 9.34736 1.56266 4.99941
219 3 -0.852873 12.5051 -0.150752 2.67049
192 4 1.28361 13.0181 0.993354 3.65184
224 3 -0.781902 11.1177 0.516932 6.75831
194 4 1.27003 8.18167 1.67401 3.84651
196 4 1.48287 10.8246 1.59452 5.54093
197 4 0.967097 10.4436 4.49428 6.61284
205 2 0.159666 5.85172 2.98972 7.49666
199 2 -0.0218397 8.34258 3.24639 3.32908
200 2 -0.0200014 9.80377 4.99514 5.17255
177 3 -0.821421 5.82255 4.79243 2.75012
257 1 -0.644809 11.5847 4.1818 0.910671
222 3 -0.841154 11.8666 1.82422 4.32696
225 3 -0.787235 11.1319 3.14535 6.40349
221 3 -0.826466 6.75937 1.54709 4.46003
33 4 1.26967 6.43846 6.10129 3.58712
232 4 0.885616 13.011 3.09859 0.354797
217 1 -0.657645 9.0497 3.91149 7.70127
212 2 0.133333 8.21422 4.55094 7.20301
256 2 0.166729 11.5315 5.13313 1.47909
214 1 -0.675451 5.31546 3.30621 6.54475
269 2 0.208342 13.423 -0.0590757 7.72822
254 2 0.167234 10.5915 4.14998 0.210763
13 4 1.03176 7.78589 2.37562 0.112177
65 2 0.266904 12.4539 2.94042 7.52615
22 4 1.04962 4.95587 3.72438 13.124
87 2 0.168416 6.11783 4.56174 15.2448
236 3 -0.809749 12.5468 -0.9398 13.4216
195 4 1.07699 11.131 0.0802804 8.41563
216 1 -0.659189 13.0878 -0.377174 8.83922
79 2 0.168972 6.96091 1.91848 10.5218
234 2 -0.0327711 9.99904 -0.0610597 13.709
86 2 0.179506 6.9707 3.02703 14.5745
122 1 -0.666939 8.05171 1.60523 15.6227
124 1 -0.673014 6.47547 0.880164 10.5508
85 2 0.142548 6.93664 4.73347 13.4975
158 3 -0.779128 4.40248 4.81749 12.1868
251 2 -0.00583191 13.1799 -0.673617 10.7643
207 2 0.195027 10.0073 2.48618 8.78993
208 2 0.136957 11.5069 1.83544 9.88684
209 2 0.16362 9.77056 1.10409 10.1305
210 2 0.180591 9.25416 4.28313 8.76799
249 2 -0.0109424 7.06943 -0.267661 8.99894
215 1 -0.658555 10.4439 1.60122 9.40714
156 3 -0.785054 4.95561 2.21205 12.5183
148 3 -0.840227 6.72543 -0.996568 16.585
233 4 1.20484 11.3415 -0.76012 14.4471
49 2 0.0773734 7.16038 -1.48008 15.0046
235 3 -0.782659 11.7156 0.21572 15.7351
53 2 -0.00163584 4.44178 3.75453 14.7544
265 2 0.162145 9.04931 1.54832 15.1423
248 2 0.113031 6.96375 1.14074 14.7511
264 2 0.161228 7.80497 2.65877 15.9583
127 1 -0.679167 6.39799 4.02438 14.3055
78 2 0.164146 7.17298 0.0051749 10.7315