ITEM: TIMESTEP
0
ITEM: NUMBER OF ATOMS
271
ITEM: BOX BOUNDS xy xz yz pp pp pp
-7.2018999999999993e+00 1.4748699999999999e+01 -6.1971999999999996e+00
-1.8606000000000000e+00 1.3431800000000001e+01 -1.0046999999999999e+00
0.0000000000000000e+00 1.6609600000000000e+01 -1.8606000000000000e+00
ITEM: ATOMS id type x y z
3 4 0.736041 1.47106 5.27706
4 4 -0.0904608 3.79605 7.39247
153 3 1.09035 4.5373 8.2278
21 4 3.76084 5.47438 4.94447
41 2 2.26069 1.83228 4.45094
50 2 3.78943 3.4183 1.57808
52 2 4.28745 3.88001 5.4635
19 4 1.64687 5.9835 2.85531
67 2 -1.52302 5.77324 7.2012
68 2 -1.7285 4.68522 5.63721
2 4 1.94183 -0.702232 6.91927
82 2 -0.536429 5.38203 4.33069
83 2 0.0991389 4.42252 2.5752
125 1 3.60041 4.49309 0.241644
120 1 -1.02207 5.32208 6.32444
126 1 -0.190718 5.50803 3.21246
138 3 -0.362144 1.43361 4.08493
139 3 0.879504 0.136174 6.10575
140 3 0.423674 2.70009 6.27821
246 2 3.8517 -0.151955 2.3087
149 3 2.52405 0.189596 8.27069
155 3 2.73474 5.15212 3.64594
201 2 4.09507 1.53204 3.97016
202 2 3.62077 2.29707 5.67231
203 2 3.78947 0.308779 5.39235
193 4 5.86408 1.77098 5.82215
213 1 4.1088 1.39096 5.08267
14 4 6.80852 -0.815399 7.64799
227 4 1.28597 2.41278 0.407127
229 2 1.9594 3.83663 1.09129
230 3 1.68115 1.24593 1.30498
84 2 -0.888842 6.14615 2.5374
80 2 3.06859 5.43286 0.635195
69 2 -0.369003 6.0462 5.84555
15 4 3.01654 1.11458 9.43064
231 3 -1.20747 0.754735 16.5369
17 4 5.14527 0.843564 11.8835
42 2 -0.738506 4.29117 11.447
48 2 1.72536 2.08754 10.0332
65 2 -1.24408 1.6037 8.61772
64 2 -0.60639 3.15607 9.70083
70 2 1.75666 -0.936598 11.9795
119 1 -1.07657 2.81188 8.6928
75 2 3.68092 3.49746 10.118
76 2 2.46677 3.60912 8.70074
53 2 3.28949 4.16798 14.0833
81 2 2.07749 2.17348 16.078
91 2 1.76457 4.194 14.8905
228 2 1.34218 0.518633 15.6909
123 1 3.2826 2.93037 9.19595
254 2 -2.7499 2.95479 15.5372
150 3 4.01397 0.752409 10.5899
151 3 5.33232 -0.492048 12.7332
141 3 -2.18693 5.36005 9.73006
66 2 -2.08505 3.42317 8.44437
74 2 4.15692 2.74543 8.34835
169 3 0.975408 11.1581 3.98829
166 3 -1.14456 9.23879 8.29175
8 4 -1.038 8.87268 6.74716
9 4 -2.55415 10.8131 4.81834
7 4 -5.22699 10.7114 3.29962
164 3 1.70547 7.51303 8.03302
165 3 3.04266 6.16646 6.16156
25 4 -0.130681 11.3038 2.82803
27 4 2.65945 7.57619 6.78577
162 3 2.63587 9.33581 0.603838
44 2 0.631239 8.78108 6.2795
45 2 -1.48197 7.26312 6.47698
51 2 0.758007 6.99018 3.99477
60 2 -2.19454 11.3327 0.855161
61 2 -4.76355 10.4329 6.96352
170 3 2.06365 8.89221 5.83309
93 2 -1.22213 9.26103 1.92425
94 2 0.630353 9.14548 2.42775
95 2 0.153703 9.92157 0.702045
117 1 -2.4348 12.4335 0.724384
118 1 -5.27866 11.2472 7.62327
130 1 -0.154051 9.69217 1.79058
142 3 -4.74638 12.0085 2.37808
143 3 -3.94696 10.2422 4.25193
144 3 -1.68886 9.79842 5.76186
145 3 -3.11557 12.0422 5.90903
159 3 1.97646 6.81392 1.36385
160 3 0.268328 12.4447 1.57064
161 3 -1.60223 11.4632 3.6275
24 4 2.42659 7.88033 0.17682
253 2 -1.63128 12.8924 0.196495
1 4 -4.09371 13.1942 1.69925
171 3 1.23825 11.5892 6.60606
167 3 -0.663055 12.0202 8.30271
5 4 -3.72887 6.02139 9.39906
6 4 -1.07905 5.7491 10.7571
10 4 -2.43793 7.63901 12.8792
11 4 -3.00252 10.3653 11.4914
20 4 1.49297 6.14264 9.09539
28 4 -0.978406 10.6036 9.24024
30 4 -1.04655 9.28589 14.9728
43 2 -3.59204 7.66156 8.92863
46 2 -3.744 6.89276 13.805
47 2 -5.16382 11.1136 10.892
55 2 -2.32427 9.42888 16.1539
99 2 1.57019 7.6019 11.2545
263 2 -3.94478 6.49646 15.7157
252 2 -4.74454 10.7945 16.3841
72 2 -5.09877 10.9006 12.8762
92 2 1.7276 5.71328 14.0838
63 2 -4.88658 11.1097 8.70479
100 2 -0.0302037 8.40167 11.7874
121 1 -4.60207 11.4005 11.9044
129 1 1.92512 5.26003 15.0451
132 1 1.10127 8.38852 11.9272
238 2 -4.24944 9.08319 16.3881
146 3 -1.78156 6.59465 11.8766
147 3 -2.8623 8.98347 12.1598
154 3 0.309851 6.28521 10.0955
267 2 0.191 5.97911 15.4919
189 3 -5.46708 8.96616 13.8393
168 3 -2.39319 10.7145 10.0551
172 3 -1.36144 7.9846 14.1749
173 3 0.426201 9.14156 15.5579
174 3 -1.14388 10.6219 14.0107
175 3 0.354323 10.3965 10.3558
237 4 -5.45563 8.30214 15.3877
157 3 2.88912 5.91125 9.89485
16 4 -0.174393 11.7799 13.6031
71 2 -2.83595 11.7529 12.5449
101 2 1.46614 8.37936 13.024
247 2 12.0078 2.78035 0.822891
264 2 8.96656 4.09675 1.83135
270 2 13.5775 0.0813916 7.37687
73 2 9.68066 2.23625 1.84869
113 2 8.53828 5.97757 1.42604
265 2 10.4411 3.56717 0.584358
107 2 7.25679 4.31554 4.55327
122 1 9.44693 3.21527 1.2163
13 4 7.86205 2.4978 0.348503
134 1 7.5344 5.38905 4.82458
226 3 10.322 5.29697 8.12551
152 3 6.52568 3.28819 0.532866
177 3 5.69542 5.18359 2.44276
192 4 12.9133 1.57305 3.56422
56 2 6.71815 5.05042 7.51095
194 4 8.30271 1.60648 3.97646
196 4 10.6856 1.52587 5.79382
197 4 9.74676 4.00029 7.39741
218 3 6.39843 0.589604 6.93741
199 2 8.62612 3.04332 3.03742
200 2 8.63198 4.48237 6.17614
204 2 6.3833 4.26242 6.01863
205 2 6.20439 3.0602 7.7146
148 3 7.87407 1.0089 0.0130674
214 1 5.64029 3.62467 6.78957
225 3 10.7469 2.87645 6.78346
219 3 12.5673 0.38765 2.56385
220 3 8.32784 0.457308 2.91612
221 3 6.92557 1.95725 4.62088
222 3 11.8743 1.59252 4.70139
223 3 9.35084 1.40451 5.07093
224 3 10.8543 -0.00698124 6.84233
106 2 8.58733 5.61024 4.64807
33 4 6.22606 6.27624 3.60969
198 2 12.7001 3.04068 2.76413
105 2 7.21677 5.79273 5.79116
18 4 5.3934 4.2766 1.19217
255 2 12.1555 4.96564 0.733512
195 4 11.1824 -0.583206 8.26284
211 2 8.57906 2.11988 8.20763
206 2 4.762 4.17951 7.16069
22 4 4.67373 3.81819 13.0979
49 2 6.62744 -0.849516 14.9251
269 2 13.4155 0.167894 9.29656
77 2 6.59836 1.09755 10.1193
78 2 7.62371 0.528946 11.7168
79 2 6.9458 2.31903 11.5708
85 2 6.87463 3.61413 14.0926
249 2 7.852 -0.430745 8.85041
216 1 13.2605 -0.449981 8.33861
124 1 6.84482 1.23378 11.2439
127 1 6.18935 4.51906 13.8511
158 3 4.54752 4.57648 11.3932
212 2 7.6535 3.64871 8.88826
207 2 11.5539 0.835384 10.0538
208 2 9.79126 -0.143103 10.1583
209 2 9.82665 1.55471 9.28735
210 2 9.32082 3.1472 9.69448
257 1 11.0878 2.51508 16.3708
215 1 10.5059 0.605817 9.56587
217 1 8.66975 3.12484 8.73937
232 4 12.0937 0.833008 16.0316
233 4 11.0521 -1.12598 13.8586
234 2 9.61056 -0.590634 13.2503
235 3 11.5748 -0.102464 14.8926
256 2 10.093 2.70334 15.8873
57 2 8.34868 5.18952 12.7204
248 2 7.95437 1.56 15.9264
236 3 11.9738 -1.37919 12.5925
156 3 4.89424 2.27858 12.9552
266 2 3.9536 3.63477 16.3401
86 2 5.63714 5.01079 14.8052
87 2 6.62139 5.24525 13.1002
261 1 8.21371 11.2615 4.58709
12 4 1.74121 13.1841 1.47875
32 4 5.90087 12.519 1.67333
36 4 7.81349 8.36282 1.79065
135 1 7.75883 7.77748 8.2613
111 2 9.98546 7.16616 1.19468
96 2 3.24656 11.937 3.89797
97 2 4.04281 10.3838 4.95998
98 2 3.90036 12.1979 5.76564
102 2 5.86565 10.1134 2.17379
103 2 4.17554 11.123 2.55362
104 2 5.79432 11.3056 3.75675
108 2 8.13756 7.59463 7.24427
250 2 4.47146 12.9389 0.772483
29 4 1.85935 10.8441 5.35119
114 2 5.08221 8.27977 6.16602
115 2 4.85625 7.63411 8.08532
116 2 4.21757 9.41461 7.473
131 1 3.54056 11.4353 4.97833
133 1 5.34406 11.0796 2.71035
136 1 8.86933 6.9655 0.959438
137 1 4.47439 8.33485 7.1523
163 3 3.07889 12.0951 1.15636
178 3 5.1002 6.34827 4.76664
182 3 6.86971 7.63068 2.96648
183 3 8.82586 9.45605 2.5034
184 3 6.91131 9.07993 0.621033
185 3 7.03455 11.836 0.696931
62 2 8.33387 11.1365 7.5547
258 2 8.64759 11.2756 5.65527
259 2 7.32971 10.602 4.43215
260 2 7.9285 12.2614 4.22251
110 2 6.84845 8.54765 8.20338
23 4 4.26759 6.01168 10.6168
26 4 1.78005 8.98349 16.4353
271 3 7.91719 8.48384 16.0225
109 2 8.57495 8.25757 8.94531
35 4 8.62839 6.16387 11.2862
38 4 4.17539 10.2515 9.7998
39 4 8.02183 8.85205 12.715
40 4 6.44786 11.1602 11.4596
58 2 3.9298 8.73347 9.00696
59 2 6.62888 8.38973 13.5809
34 4 6.85582 6.25042 8.81021
88 2 3.00887 7.8015 11.9159
89 2 4.80619 8.31416 11.4573
90 2 4.53707 6.92247 12.755
37 4 6.33098 8.56264 16.3915
180 3 10.0658 5.89279 10.6548
128 1 4.13365 7.48857 11.8119
245 3 3.01589 9.0846 15.3889
176 3 1.1467 11.2285 12.8485
179 3 5.40269 6.69137 9.37164
240 1 9.71028 6.46683 15.2747
54 2 3.2163 5.53924 15.6224
186 3 4.46576 11.4271 8.73584
187 3 2.876 10.4454 10.8005
188 3 8.22577 7.69729 11.6711
262 2 8.97328 5.87556 16.0616
190 3 5.45588 10.1859 10.7256
191 3 7.58919 10.2181 12.0098
241 4 4.2415 9.3669 14.4666
242 2 3.719 9.12744 12.7943
243 3 5.41075 8.3572 14.7548
244 3 4.57672 10.9098 14.6436
112 2 7.54394 5.14398 16.4969
268 2 7.42378 11.9026 8.34666
251 2 7.06925 12.0216 10.0693
239 2 9.74822 5.95089 14.2496
181 3 7.59527 5.62506 10.2073
31 4 1.37338 10.2803 11.4877
ITEM: TIMESTEP
100
ITEM: NUMBER OF ATOMS
271
ITEM: BOX BOUNDS xy xz yz pp pp pp
-7.1951840999999988e+00 1.4748699999999999e+01 -6.1904840999999990e+00
-1.8606000000000000e+00 1.3431800000000001e+01 -1.0046999999999999e+00
0.0000000000000000e+00 1.6609600000000000e+01 -1.8606000000000000e+00
ITEM: ATOMS id type x y z
3 4 0.667594 1.53125 5.23816
4 4 -0.177818 3.80274 7.37053
153 3 1.02463 4.62402 8.24011
21 4 3.71337 5.49078 5.00924
41 2 2.20718 1.94013 4.53595
50 2 4.0229 3.21971 1.30623
52 2 4.37065 3.98968 5.614
19 4 1.64907 6.10216 2.88477
67 2 -2.01032 5.40774 7.07985
68 2 -1.47891 4.74936 5.37396
2 4 1.98513 -0.685462 6.92918
82 2 -0.510368 5.49151 4.45207
83 2 0.220513 4.39854 2.74218
125 1 3.72505 4.61397 0.106184
120 1 -1.1455 5.28919 6.34583
126 1 -0.165493 5.56431 3.29275
138 3 -0.371985 1.60921 4.06698
139 3 0.872055 0.104445 5.96441
140 3 0.285055 2.72579 6.31258
255 2 -2.21298 5.18156 0.395841
149 3 2.52483 0.261935 8.2013
155 3 2.68118 5.2252 3.73047
201 2 4.12022 1.93154 4.09489
202 2 3.60976 2.20935 5.98552
203 2 3.68135 0.460032 5.25235
193 4 5.86263 1.7188 5.79432
213 1 4.05583 1.51494 5.14784
14 4 6.73319 -0.656727 7.71384
227 4 1.37862 2.45147 0.467216
229 2 2.14022 3.86066 1.05338
230 3 1.77493 1.24209 1.38583
84 2 -0.793849 6.22846 2.66949
80 2 3.00417 5.33252 0.589363
218 3 6.23557 0.639579 6.89395
74 2 4.13123 2.69812 8.13706
231 3 -0.13945 2.71953 0.0152688
15 4 3.17477 1.1576 9.45136
266 2 3.77276 3.31579 16.209
17 4 5.22063 0.876731 11.9035
42 2 -0.949431 4.20166 11.4114
48 2 1.89598 2.10485 10.1197
65 2 -1.14467 1.63427 8.45775
64 2 -0.757268 3.08098 9.60404
70 2 1.83382 -0.703767 11.7405
119 1 -1.14911 2.8279 8.61389
75 2 3.94668 3.43655 9.97686
76 2 2.42328 3.65314 8.76793
53 2 3.52174 4.71448 14.0529
81 2 2.18624 2.01526 15.9024
91 2 1.86842 4.29579 14.4363
228 2 1.3025 0.522051 15.6697
123 1 3.34784 2.97299 9.15431
254 2 -2.80511 2.96331 15.0658
150 3 4.2656 0.780379 10.5547
151 3 5.48257 -0.442358 12.7825
141 3 -2.09418 5.60448 9.48163
66 2 -2.1637 3.34788 8.31923
156 3 4.60333 2.26479 13.0817
169 3 1.06824 10.9823 4.00789
166 3 -1.30157 9.2028 8.22241
8 4 -1.12553 8.85642 6.71873
9 4 -2.61987 10.9004 4.91271
7 4 -5.25879 10.6243 3.39843
164 3 1.64648 7.35736 8.08079
165 3 2.83964 6.18975 6.18114
25 4 -0.131661 11.175 2.89797
27 4 2.59607 7.67896 6.80416
162 3 2.77894 9.31276 0.512487
44 2 0.555255 8.85849 6.22615
45 2 -1.61658 7.18843 6.45002
51 2 0.663799 7.14705 3.94184
60 2 -1.95121 11.4713 0.862863
61 2 -4.84159 10.3508 6.95404
170 3 2.01293 8.84756 5.82058
93 2 -1.15871 9.04177 1.99881
94 2 0.691704 8.85863 2.60836
95 2 0.334687 9.82415 1.02679
117 1 -2.29331 12.5484 0.488787
118 1 -5.1105 11.2131 7.62987
130 1 -0.044361 9.47228 2.04421
142 3 -4.72438 12.0418 2.32052
143 3 -3.84993 10.0625 4.26348
144 3 -1.85448 9.85054 5.8207
145 3 -3.06703 12.125 5.9226
159 3 2.01064 6.8485 1.46978
160 3 0.433996 12.3649 1.65702
161 3 -1.59264 11.3944 3.53243
24 4 2.40606 7.83225 0.18444
1 4 -4.04452 13.1027 1.39485
69 2 -0.396855 6.10214 6.12259
246 2 -2.20562 13.1621 2.07295
5 4 -3.68055 6.0501 9.27635
6 4 -1.11895 5.77717 10.7167
10 4 -2.39194 7.69257 12.8457
11 4 -3.03762 10.4369 11.5163
20 4 1.42378 6.07229 9.14299
28 4 -1.02995 10.6891 9.22325
30 4 -0.977853 9.22648 14.9807
43 2 -3.64479 7.69131 8.783
46 2 -3.81052 6.99228 13.5152
47 2 -5.10449 11.1526 10.8579
55 2 -2.06161 9.36146 16.3522
99 2 1.71567 7.84009 11.1111
263 2 -3.72085 6.87519 15.525
252 2 -4.87758 10.6115 16.2823
72 2 -5.04419 11.4273 12.8498
92 2 1.95917 6.16379 14.3005
63 2 -4.64123 11.1165 8.67183
100 2 0.0346626 8.21341 11.9486
121 1 -4.5565 11.6099 11.9176
129 1 1.91807 5.25784 14.9992
132 1 1.11235 8.40584 11.9685
238 2 -4.11789 9.13247 16.348
146 3 -1.73092 6.7087 11.8526
147 3 -2.96241 9.00533 12.1908
154 3 0.352704 6.24642 10.2899
267 2 0.152583 5.74899 15.5542
189 3 -5.41392 9.0468 13.899
168 3 -2.50319 10.8422 10.0768
172 3 -1.31914 7.93675 14.1227
173 3 0.425421 9.15625 15.614
174 3 -1.12696 10.6559 14.1368
175 3 0.205417 10.4319 10.3095
237 4 -5.38963 8.37804 15.3491
157 3 2.77765 5.83861 9.95364
16 4 -0.113171 11.69 13.6085
71 2 -2.75694 11.7751 12.6663
101 2 1.57716 8.28346 12.9855
167 3 -0.595819 11.9261 8.33656
253 2 -2.51646 11.2309 16.4889
31 4 1.35145 10.2906 11.3821
54 2 3.11657 5.29065 15.8392
247 2 12.0106 2.92979 0.708008
264 2 8.99635 4.13133 1.90851
270 2 13.7534 0.148189 7.58496
73 2 9.66557 2.23769 1.74183
113 2 8.90628 5.9798 1.15551
265 2 10.5238 3.80995 0.534007
107 2 7.71275 4.18004 4.36368
122 1 9.49924 3.36127 1.20865
13 4 7.99956 2.55231 0.23527
134 1 7.7498 5.32886 4.5891
226 3 10.5261 5.18255 8.00544
152 3 6.70304 3.27821 0.714384
177 3 5.84848 5.23669 2.30604
192 4 12.9568 1.47709 3.42181
56 2 6.65 5.18638 7.69656
194 4 8.16248 1.64395 3.91985
196 4 10.6565 1.52769 5.80689
197 4 9.73238 3.91397 7.4085
148 3 8.09356 0.9955 0.0433354
199 2 8.51484 3.04344 2.87747
200 2 8.83062 4.70925 6.11581
204 2 6.61993 4.2882 5.8645
205 2 6.65857 3.31622 7.47797
206 2 5.18265 4.35796 7.06149
214 1 5.95085 3.6405 6.62519
225 3 10.6837 2.8397 6.69786
219 3 12.6316 0.238095 2.42799
220 3 8.20221 0.471094 2.82322
221 3 6.74653 1.89049 4.52987
222 3 11.8227 1.55649 4.57968
223 3 9.29966 1.43079 5.00847
224 3 11.042 0.085697 6.89372
106 2 8.65071 5.93767 4.15637
33 4 6.27925 6.0659 3.5413
198 2 12.8246 2.90087 2.56802
105 2 7.5102 5.54036 5.70866
18 4 5.52617 4.27507 1.14423
22 4 4.74112 3.85465 13.096
49 2 6.69622 -1.08868 15.0532
211 2 8.56045 1.92044 8.45664
77 2 6.61237 1.67722 10.1724
78 2 7.54838 0.355735 11.247
79 2 7.31529 2.16849 11.8962
85 2 6.84884 3.41253 13.8433
249 2 7.87492 -0.187722 8.83663
216 1 13.3667 -0.422634 8.5027
124 1 6.89482 1.34063 11.2468
127 1 6.25183 4.44482 13.8837
158 3 4.52895 4.71697 11.6105
212 2 7.7223 3.5847 8.90454
207 2 11.6619 0.947635 10.1276
208 2 9.98515 -0.211855 10.2407
209 2 9.90516 1.49238 9.299
210 2 9.46401 3.20635 9.61728
257 1 11.1216 2.65003 16.1775
215 1 10.6124 0.627128 9.67176
217 1 8.69476 2.99608 8.71126
232 4 12.1355 0.997621 15.9739
233 4 11.1015 -1.16177 13.7912
234 2 9.61213 -0.710597 13.1939
235 3 11.6352 -0.0760691 14.8577
256 2 10.0645 2.97135 15.8944
57 2 8.744 4.86777 12.2864
248 2 8.08728 1.61363 15.9184
86 2 5.89357 4.66513 14.9189
269 2 13.5746 0.172862 9.48683
195 4 11.3554 -0.459655 8.33172
261 1 8.25556 11.2723 4.67525
12 4 1.73894 13.1402 1.38387
32 4 6.00366 12.4612 1.48083
36 4 7.97424 8.21964 1.8865
135 1 7.63361 7.86222 8.14515
111 2 10.1045 7.43078 1.17501
96 2 3.62337 11.5768 4.08072
97 2 4.2391 10.4531 5.42813
98 2 4.13738 12.3602 5.71743
102 2 6.02554 10.0536 2.4874
103 2 4.40074 11.0469 2.49761
104 2 5.766 11.543 3.68041
108 2 8.16646 7.28568 7.2555
250 2 4.58658 12.7255 0.558424
29 4 1.95451 10.8531 5.47867
114 2 5.11548 8.36918 6.37107
115 2 4.67539 7.75375 8.1257
116 2 4.2423 9.58147 7.57433
131 1 3.66574 11.4144 5.17816
133 1 5.48639 11.0798 2.67487
136 1 9.12192 7.04866 0.843615
137 1 4.33628 8.45835 7.21603
163 3 3.05985 12.2222 1.07997
178 3 4.93525 6.38133 4.57653
182 3 7.07217 7.36927 2.96012
183 3 8.92238 9.37251 2.65278
184 3 6.95186 8.99286 0.676869
185 3 7.07035 11.7168 0.582415
62 2 8.507 11.2657 7.7186
258 2 8.69169 11.2612 5.82136
259 2 7.39895 10.4937 4.48084
260 2 7.99448 12.2841 4.32529
110 2 6.76989 8.48931 7.81803
171 3 1.35315 11.8375 6.57999
23 4 4.16434 5.99458 10.6329
26 4 1.78477 8.99723 16.404
271 3 7.95583 8.41788 16.1207
109 2 8.33746 8.45247 8.7412
35 4 8.75761 6.11357 11.2269
38 4 4.10145 10.2825 9.83939
39 4 8.07761 8.91882 12.7549
40 4 6.5223 11.0856 11.4444
58 2 3.7092 8.79194 9.05937
59 2 6.67608 8.6642 13.7531
34 4 6.79346 6.32312 8.93037
88 2 3.00557 7.73652 12.0109
89 2 4.95893 7.97068 11.4473
90 2 4.51299 6.8542 13.022
37 4 6.37897 8.40528 16.4502
180 3 10.2656 5.93305 10.6195
128 1 4.14009 7.28756 12.0187
245 3 3.065 9.08227 15.4678
176 3 1.1892 11.1459 12.7788
179 3 5.34099 6.79246 9.41535
240 1 9.90526 6.57976 15.1764
236 3 5.91535 12.0055 12.5847
186 3 4.38366 11.3819 8.71301
187 3 2.78875 10.553 10.8544
188 3 8.49098 7.58969 11.8647
262 2 9.3067 5.99183 16.045
190 3 5.38695 10.1098 10.7073
191 3 7.74332 10.2511 11.9629
241 4 4.29905 9.38327 14.5199
242 2 3.83442 9.05415 12.8963
243 3 5.48557 8.3478 14.7351
244 3 4.84308 10.936 14.5604
112 2 7.89533 5.33503 16.3492
268 2 7.62503 11.9615 8.57387
87 2 6.73695 5.43741 13.4044
239 2 9.85741 6.07387 14.1547
181 3 7.79911 5.75322 10.0214
251 2 7.21698 12.0848 10.2655
ITEM: TIMESTEP
200
ITEM: NUMBER OF ATOMS
271
ITEM: BOX BOUNDS xy xz yz pp pp pp
-7.1884681999999991e+00 1.4748699999999999e+01 -6.1837681999999994e+00
-1.8606000000000000e+00 1.3431800000000001e+01 -1.0046999999999999e+00
0.0000000000000000e+00 1.6609600000000000e+01 -1.8606000000000000e+00
ITEM: ATOMS id type x y z
3 4 0.599589 1.53181 5.2439
4 4 -0.208626 3.80744 7.32719
153 3 1.00901 4.61123 8.09428
21 4 3.70496 5.56907 4.96024
41 2 2.10767 1.8891 4.48855
50 2 3.91077 3.18924 1.34862
52 2 4.28577 4.01797 5.29591
19 4 1.5682 6.16094 2.95678
67 2 -2.02881 5.76569 6.85383
68 2 -1.5603 4.83628 5.38345
2 4 1.94543 -0.592948 6.83983
82 2 -0.518639 5.66219 4.46473
83 2 -0.206227 4.83723 2.53778
125 1 3.73189 4.4084 0.178204
120 1 -1.1678 5.28494 6.30975
126 1 -0.230874 5.92057 3.30494
138 3 -0.448772 1.46999 4.1096
139 3 0.785316 0.12437 6.01486
140 3 0.198383 2.71297 6.21393
255 2 -2.40965 5.13509 0.688109
149 3 2.53126 0.314027 8.23351
155 3 2.61368 5.18342 3.82195
201 2 4.18936 1.902 3.82238
202 2 3.60435 2.44077 5.56873
203 2 3.69316 0.526503 5.21493
193 4 5.85063 1.80975 5.73417
213 1 4.08271 1.63171 4.95969
14 4 6.74576 -0.6176 7.61419
227 4 1.48593 2.5448 0.442211
229 2 2.1786 3.92897 1.21723
230 3 1.65635 1.24198 1.26547
246 2 4.00831 -0.220789 2.11613
80 2 3.07416 5.20952 0.595388
66 2 -2.38224 3.45198 8.12012
74 2 3.76011 2.40167 7.71837
69 2 -0.241265 5.95729 6.199
15 4 3.03162 1.15273 9.45052
231 3 -1.09135 0.951212 16.5375
17 4 5.24555 0.83712 12.0015
42 2 -1.09115 4.27922 11.2742
48 2 1.91255 2.34217 9.98614
65 2 -1.48265 1.7361 8.39244
64 2 -1.10843 3.24394 9.48608
70 2 1.68462 -0.630729 12.0643
119 1 -1.41937 2.92867 8.44256
75 2 4.17393 3.3377 9.38476
76 2 2.37528 3.60283 8.61466
156 3 4.70868 2.26268 12.929
81 2 2.44428 2.25332 15.8226
91 2 1.86111 4.14465 14.7844
228 2 1.35768 0.408118 15.6147
123 1 3.35341 2.90446 8.76836
254 2 -2.7557 3.09218 15.3344
150 3 3.96854 0.76647 10.6484
151 3 5.49546 -0.417854 12.8925
53 2 3.43947 4.37614 14.0192
169 3 1.00753 10.8763 4.21484
166 3 -1.33931 9.29443 8.26655
8 4 -1.26213 8.87307 6.78285
9 4 -2.54596 10.9069 4.84485
7 4 -5.1378 10.6483 3.26941
164 3 1.65059 7.43127 8.17817
165 3 2.90517 6.34401 6.14649
25 4 0.0110865 11.1502 2.98039
27 4 2.57576 7.7721 6.82821
162 3 2.88902 9.337 0.678559
44 2 0.375089 8.80652 6.25709
45 2 -1.61727 7.17525 6.66827
51 2 0.787611 7.41129 3.96266
60 2 -1.84357 11.4518 0.845889
61 2 -4.70893 10.3836 6.6426
170 3 1.89558 8.86519 5.85885
93 2 -0.583844 8.7533 2.98957
94 2 1.00269 9.0712 1.96833
95 2 -0.647523 9.59542 1.24407
117 1 -2.19039 12.5098 0.525578
118 1 -5.02792 11.1966 7.38797
130 1 -0.0461901 9.43442 2.16078
142 3 -4.6386 11.9551 2.26348
143 3 -3.88924 10.3167 4.32086
144 3 -2.02884 9.69274 5.69667
145 3 -3.11787 12.3508 5.83138
159 3 2.00106 6.69927 1.50298
160 3 0.407841 12.2958 1.5263
161 3 -1.40105 11.3293 3.57933
24 4 2.52849 7.78343 0.323448
1 4 -3.96165 13.0783 1.31831
84 2 -0.921541 6.66923 2.89316
167 3 -0.720112 12.0415 8.21319
5 4 -3.79309 6.23925 9.20395
6 4 -1.16675 5.8582 10.5687
10 4 -2.43913 7.73226 12.7525
11 4 -3.14239 10.5861 11.5185
20 4 1.41455 6.13292 9.10465
28 4 -1.08601 10.6699 9.16696
30 4 -0.902105 9.23879 14.865
43 2 -3.75467 7.78678 8.56698
46 2 -3.90192 7.0133 13.4447
47 2 -5.27206 11.2989 11.0567
55 2 -1.99323 9.3934 16.259
99 2 1.60921 7.8924 11.0822
263 2 -3.67484 6.59546 15.4144
252 2 -4.73671 10.77 16.1979
72 2 -5.02718 11.1817 12.9502
92 2 2.06393 5.91192 14.1342
63 2 -4.44758 11.0539 8.36784
100 2 -0.0166394 8.22462 11.8979
121 1 -4.65462 11.6282 12.0034
129 1 1.92953 5.24679 15.0193
132 1 1.08608 8.42487 11.9369
238 2 -4.08312 9.04299 16.4921
146 3 -1.78217 6.73235 11.7759
147 3 -2.93298 9.15151 12.1402
154 3 0.238758 6.24609 10.0921
267 2 0.291258 5.59293 15.5287
189 3 -5.33395 9.19983 13.9017
168 3 -2.57298 10.8279 9.9729
172 3 -1.43052 7.98606 14.0135
173 3 0.510985 9.0717 15.5851
174 3 -1.09037 10.6753 14.0882
175 3 0.0300906 10.5304 10.4299
237 4 -5.24877 8.27917 15.3865
157 3 2.83647 5.92505 10
16 4 -0.0609763 11.7633 13.6335
71 2 -2.81395 11.8 12.7409
101 2 1.45204 8.10827 12.9505
141 3 -2.23684 5.75861 9.25398
253 2 -2.36723 11.1667 16.5692
31 4 1.24531 10.2531 11.3272
247 2 12.0774 2.90831 0.782008
264 2 9.12163 4.13854 2.01829
270 2 13.6461 0.385425 7.52505
73 2 9.77761 2.26222 1.91064
113 2 9.11708 6.07743 1.78069
265 2 10.5101 3.73289 0.734404
107 2 7.51461 4.20042 4.58733
122 1 9.55385 3.32442 1.36614
13 4 8.07616 2.44834 0.433505
134 1 7.72454 5.33056 4.69934
226 3 10.1941 5.2985 7.94627
152 3 6.76567 3.16508 0.766722
177 3 5.83162 5.05066 2.47387
192 4 12.9191 1.52595 3.46398
56 2 6.73074 5.11735 7.60735
194 4 8.28501 1.52509 3.92375
196 4 10.7371 1.52835 5.73366
197 4 9.70467 3.90477 7.29803
148 3 8.10282 0.905843 0.0467493
199 2 8.78009 2.9717 3.16637
200 2 8.34148 4.24187 6.20232
204 2 6.41599 4.38365 5.95321
205 2 6.35522 3.27359 7.48675
206 2 4.8355 4.2256 7.11353
214 1 5.73167 3.70486 6.66263
225 3 10.6922 2.94834 6.50489
219 3 12.5903 0.259998 2.45166
220 3 8.2209 0.364856 2.84428
221 3 6.91718 1.97412 4.52685
222 3 11.8848 1.58445 4.57221
223 3 9.3899 1.1582 4.99294
224 3 10.8937 0.160949 6.95959
106 2 8.78238 5.60021 4.30831
33 4 6.2681 6.14272 3.59217
198 2 12.9262 2.98926 2.62816
105 2 7.56891 5.80014 5.70536
18 4 5.54608 4.10781 1.20836
211 2 8.28324 2.2224 8.27175
218 3 6.3046 0.788142 6.91191
112 2 9.02459 6.6377 0.0427421
22 4 4.74841 3.82142 12.9709
49 2 6.93917 -1.16239 15.0616
266 2 4.20575 3.41952 16.3374
77 2 6.60386 1.36786 10.2136
78 2 7.61312 0.291447 11.4548
79 2 7.4315 2.14588 11.7268
85 2 7.1627 3.66795 13.299
249 2 7.87032 -0.167842 8.82621
216 1 13.3815 -0.315467 8.41469
124 1 6.93453 1.2616 11.3054
127 1 6.41637 4.44762 13.538
158 3 4.59535 4.53362 11.5629
212 2 7.94583 3.89284 9.041
207 2 11.7846 1.16278 9.93172
208 2 10.2166 0.125254 10.3093
209 2 9.95679 1.6556 9.25322
210 2 9.33074 2.8313 9.67576
257 1 11.1283 2.65085 16.3878
215 1 10.732 0.793771 9.6138
217 1 8.75777 3.09116 8.71788
232 4 12.142 1.05307 15.9418
233 4 11.2117 -1.21488 13.7753
234 2 9.66299 -0.807841 13.1441
235 3 11.6815 0.00253403 14.7972
256 2 10.1001 2.72184 16.017
57 2 8.50811 4.99806 12.3162
248 2 8.15194 1.53595 16.0435
86 2 6.41745 4.71971 14.6061
195 4 11.2942 -0.415709 8.33717
236 3 12.1836 -1.31972 12.5337
269 2 13.5861 0.215646 9.39945
261 1 8.28717 11.2463 4.49446
12 4 1.77617 12.9879 1.47117
32 4 6.12709 12.3834 1.55974
36 4 7.94978 8.19377 1.87171
135 1 7.6308 7.96761 8.1916
111 2 10.1654 7.52301 1.20126
96 2 3.5321 11.5817 3.9999
97 2 4.16108 10.2571 5.27275
98 2 4.04714 12.1858 5.71978
102 2 6.44509 10.2116 2.81729
103 2 4.62353 10.9741 2.54697
104 2 5.80455 11.6057 3.95529
108 2 7.89046 7.60846 7.17936
250 2 4.59102 12.7903 0.899331
29 4 1.93192 10.8471 5.54863
114 2 4.92706 8.10139 6.31271
115 2 4.74949 7.69203 8.15575
116 2 4.34119 9.57986 7.51722
131 1 3.67236 11.2883 5.06125
133 1 5.77936 11.1349 2.94388
136 1 9.2448 6.93654 1.05861
137 1 4.37997 8.40413 7.29585
163 3 3.06486 12.0729 1.18148
178 3 5.00637 6.4444 4.68163
182 3 7.0106 7.46164 2.94678
183 3 8.85749 9.38835 2.60749
184 3 6.96533 8.92846 0.683222
185 3 7.09133 11.6367 0.5652
62 2 8.57295 11.3713 7.544
258 2 8.7068 11.295 5.54678
259 2 7.44215 10.4816 4.39577
260 2 7.94515 12.233 4.05729
110 2 6.72292 8.65099 8.19349
171 3 1.395 11.8387 6.6816
268 2 7.59932 12.0398 8.21404
23 4 4.19888 5.95592 10.7178
26 4 1.89676 8.95838 16.4336
271 3 7.99263 8.29458 15.9868
109 2 8.45389 8.26493 8.85201
35 4 8.76676 6.20448 11.1342
38 4 4.14568 10.3832 9.84917
39 4 8.26076 8.91751 12.8081
40 4 6.64538 11.1043 11.3729
58 2 3.9171 8.89258 9.12864
59 2 6.87931 8.44965 13.7108
34 4 6.77215 6.3454 8.86275
88 2 3.00113 7.84804 12.0097
89 2 4.95944 7.98856 11.5403
90 2 4.48126 6.96392 13.1288
37 4 6.45616 8.34517 16.3732
180 3 10.2023 6.20896 10.6503
128 1 4.17211 7.29111 12.0377
245 3 3.15727 9.1721 15.5412
176 3 1.11725 11.0827 12.7708
179 3 5.31592 6.64306 9.44261
240 1 9.92608 6.43166 15.0828
251 2 7.23022 12.1807 10.1427
186 3 4.53911 11.5491 8.6834
187 3 2.76559 10.5385 10.6199
188 3 8.53552 7.56846 11.9536
262 2 9.23533 5.87597 16.0879
190 3 5.44366 10.1007 10.7817
191 3 7.76591 10.1185 11.9167
241 4 4.37971 9.37858 14.6171
242 2 3.8152 8.96667 13.0729
243 3 5.60356 8.25153 14.6923
244 3 4.75627 10.913 14.5639
54 2 3.18489 5.36524 16.0299
181 3 7.65179 5.98859 10.0653
87 2 6.62048 5.31952 12.8556
239 2 9.79485 5.92144 14.1186
ITEM: TIMESTEP
300
ITEM: NUMBER OF ATOMS
271
ITEM: BOX BOUNDS xy xz yz pp pp pp
-7.1817522999999994e+00 1.4748699999999999e+01 -6.1770522999999997e+00
-1.8606000000000000e+00 1.3431800000000001e+01 -1.0046999999999999e+00
0.0000000000000000e+00 1.6609600000000000e+01 -1.8606000000000000e+00
ITEM: ATOMS id type x y z
3 4 0.735818 1.51956 5.26494
4 4 -0.189246 3.96652 7.35644
153 3 0.884944 4.6851 8.25163
21 4 3.73727 5.63447 4.96561
41 2 2.25408 1.82155 4.52236
50 2 4.11925 3.10858 1.51712
52 2 4.2677 4.06478 5.5452
19 4 1.59175 6.26832 2.8861
67 2 -1.97039 5.67721 7.06819
68 2 -1.81127 5.14942 5.31834
2 4 1.89753 -0.629637 6.96345
82 2 -0.642705 5.86432 4.35489
83 2 -0.143178 4.96459 2.61722
125 1 3.7882 4.29304 0.300171
120 1 -1.26034 5.37981 6.24669
126 1 -0.322469 6.10196 3.27576
138 3 -0.265947 1.4859 4.03146
139 3 0.769677 0.157653 6.14228
140 3 0.430789 2.75391 6.31768
246 2 3.99571 -0.197867 2.10268
149 3 2.38119 0.20455 8.29181
155 3 2.63391 5.35133 3.6968
201 2 4.1493 1.54137 3.78268
202 2 3.64613 2.23747 5.47684
203 2 3.83831 0.366665 5.23465
80 2 3.18793 5.17184 0.758919
213 1 4.17052 1.42564 4.89644
14 4 6.74176 -0.752876 7.62554
227 4 1.49392 2.44146 0.331789
229 2 2.15217 3.89699 1.18621
230 3 1.904 1.12605 1.09295
74 2 3.58291 2.29634 7.61407
66 2 -2.3315 3.4938 8.05053
255 2 -2.24521 5.13063 0.381334
218 3 6.2565 0.581008 6.78382
15 4 2.85088 1.15207 9.43724
231 3 -0.987821 0.948898 16.5522
17 4 5.14302 0.792416 11.9464
42 2 -0.947383 4.43955 11.2136
48 2 1.72327 2.34794 9.85107
65 2 -1.34057 1.79823 8.50295
64 2 -0.922539 3.45527 9.48541
70 2 2.02938 -0.711468 12.1426
119 1 -1.31715 2.96476 8.51531
75 2 4.08479 3.25934 9.16545
76 2 2.30053 3.60238 8.44586
156 3 4.80343 2.2866 12.7495
81 2 2.32986 1.95446 15.9537
91 2 1.88837 3.69027 14.975
228 2 1.39013 0.587186 15.612
123 1 3.21711 2.82672 8.61453
254 2 -2.7807 2.82453 15.1217
150 3 3.91017 0.907863 10.5414
151 3 5.32666 -0.537178 12.7808
53 2 3.55165 4.26099 14.1034
269 2 -1.04945 0.250321 9.33186
129 1 1.9414 4.82795 15.1189
169 3 1.16519 10.9816 3.99349
167 3 -0.782755 12.0441 8.27005
8 4 -1.29026 8.95857 6.85506
9 4 -2.54703 10.9243 4.80302
7 4 -5.23256 10.6845 3.19757
164 3 1.73974 7.43099 8.26732
165 3 2.93765 6.28123 6.18334
25 4 -0.0549633 11.0268 2.89146
27 4 2.57232 7.73294 6.87271
162 3 2.96125 9.19659 0.511301
44 2 0.34717 8.87236 6.42026
45 2 -1.68383 7.25205 6.71539
51 2 0.771845 7.495 3.92149
60 2 -1.85395 11.2941 0.771658
61 2 -4.73093 10.377 6.62048
170 3 1.89221 8.97726 6.06334
93 2 -1.01823 8.76358 2.66348
94 2 0.802888 8.71959 2.24563
95 2 -0.329039 9.45589 1.06173
117 1 -2.10777 12.3961 0.523448
118 1 -5.04071 11.127 7.45362
130 1 -0.17383 9.25626 2.13839
142 3 -4.76969 12.0616 2.25592
143 3 -3.83602 10.2043 4.09738
144 3 -2.02107 9.82967 5.85828
145 3 -3.02396 12.2213 5.70663
159 3 2.03767 6.8859 1.57489
160 3 0.358221 12.1528 1.64726
161 3 -1.49479 11.3156 3.67693
24 4 2.6661 7.64058 0.282767
1 4 -3.83003 13.1163 1.36393
84 2 -1.08475 6.69 2.62814
253 2 -1.2386 12.9909 0.166968
69 2 -0.436666 6.08087 6.06268
5 4 -3.81857 6.21181 9.00966
6 4 -1.31165 5.94693 10.5729
10 4 -2.54433 7.74329 12.806
11 4 -2.98585 10.548 11.5393
20 4 1.32723 6.1507 9.22737
28 4 -1.17937 10.7838 9.10372
30 4 -0.841124 9.14968 14.9312
43 2 -3.82363 7.75844 8.41689
46 2 -3.95158 7.00331 13.5652
47 2 -4.976 11.4102 11.0163
55 2 -1.84927 9.27435 16.3347
99 2 1.68768 7.86393 11.1735
263 2 -3.76033 6.54674 15.4787
252 2 -4.35434 10.6928 16.0759
72 2 -5.1562 11.2843 12.9815
92 2 2.3634 5.3984 14.1967
31 4 1.35151 10.2987 11.389
100 2 0.0798231 8.34133 11.8324
121 1 -4.45257 11.6432 12.1159
71 2 -2.65961 11.7994 12.7819
132 1 1.16854 8.48255 11.9716
238 2 -3.97383 8.9731 16.361
146 3 -1.97863 6.83178 11.6845
147 3 -3.02914 9.08944 12.1237
154 3 0.141364 6.50336 10.1416
267 2 0.594041 5.34363 15.2747
189 3 -5.43628 9.1102 14.0102
168 3 -2.65154 11.0218 10.084
172 3 -1.50366 7.93949 13.9705
173 3 0.59213 8.93419 15.5499
174 3 -0.878467 10.6046 14.2095
175 3 0.187662 10.5572 10.3698
237 4 -5.27562 8.30099 15.4091
157 3 2.64697 5.88449 10.0571
16 4 0.111874 11.7136 13.7411
63 2 -4.58571 10.9493 8.47583
101 2 1.44292 8.30009 13.0443
166 3 -1.48433 9.34559 8.34004
54 2 3.2323 5.00612 16.3814
141 3 -2.31216 5.67962 9.2599
247 2 12.089 2.86943 0.569303
264 2 9.12945 4.07446 1.91229
270 2 13.5242 0.276938 7.5111
73 2 10.0179 2.29711 1.7488
113 2 9.13807 5.89255 1.45248
265 2 10.6015 3.81393 0.644889
107 2 7.41521 4.22016 4.84944
122 1 9.65567 3.27796 1.2047
13 4 8.08917 2.36879 0.430429
134 1 7.67783 5.32257 4.75532
226 3 10.1771 5.33723 7.92949
152 3 6.81287 3.17435 0.769907
177 3 5.87573 5.10485 2.49484
192 4 13.0094 1.45183 3.5145
56 2 6.83171 5.1211 7.66081
194 4 8.25745 1.4991 3.92808
196 4 10.6292 1.50218 5.64397
197 4 9.61585 3.93632 7.38077