ITEM: TIMESTEP
0
ITEM: NUMBER OF ATOMS
271
ITEM: BOX BOUNDS xy xz yz pp pp pp
-7.2018999999999993e+00 1.4748699999999999e+01 -6.1971999999999996e+00
-1.8606000000000000e+00 1.3431800000000001e+01 -1.0046999999999999e+00
0.0000000000000000e+00 1.6609600000000000e+01 -1.8606000000000000e+00
ITEM: ATOMS id type x y z
3 4 0.736041 1.47106 5.27706
4 4 -0.0904608 3.79605 7.39247
153 3 1.09035 4.5373 8.2278
21 4 3.76084 5.47438 4.94447
41 2 2.26069 1.83228 4.45094
50 2 3.78943 3.4183 1.57808
52 2 4.28745 3.88001 5.4635
19 4 1.64687 5.9835 2.85531
67 2 -1.52302 5.77324 7.2012
68 2 -1.7285 4.68522 5.63721
2 4 1.94183 -0.702232 6.91927
82 2 -0.536429 5.38203 4.33069
83 2 0.0991389 4.42252 2.5752
125 1 3.60041 4.49309 0.241644
120 1 -1.02207 5.32208 6.32444
126 1 -0.190718 5.50803 3.21246
138 3 -0.362144 1.43361 4.08493
139 3 0.879504 0.136174 6.10575
140 3 0.423674 2.70009 6.27821
246 2 3.8517 -0.151955 2.3087
149 3 2.52405 0.189596 8.27069
155 3 2.73474 5.15212 3.64594
201 2 4.09507 1.53204 3.97016
202 2 3.62077 2.29707 5.67231
203 2 3.78947 0.308779 5.39235
193 4 5.86408 1.77098 5.82215
213 1 4.1088 1.39096 5.08267
14 4 6.80852 -0.815399 7.64799
227 4 1.28597 2.41278 0.407127
229 2 1.9594 3.83663 1.09129
230 3 1.68115 1.24593 1.30498
84 2 -0.888842 6.14615 2.5374
80 2 3.06859 5.43286 0.635195
69 2 -0.369003 6.0462 5.84555
15 4 3.01654 1.11458 9.43064
231 3 -1.20747 0.754735 16.5369
17 4 5.14527 0.843564 11.8835
42 2 -0.738506 4.29117 11.447
48 2 1.72536 2.08754 10.0332
65 2 -1.24408 1.6037 8.61772
64 2 -0.60639 3.15607 9.70083
70 2 1.75666 -0.936598 11.9795
119 1 -1.07657 2.81188 8.6928
75 2 3.68092 3.49746 10.118
76 2 2.46677 3.60912 8.70074
53 2 3.28949 4.16798 14.0833
81 2 2.07749 2.17348 16.078
91 2 1.76457 4.194 14.8905
228 2 1.34218 0.518633 15.6909
123 1 3.2826 2.93037 9.19595
254 2 -2.7499 2.95479 15.5372
150 3 4.01397 0.752409 10.5899
151 3 5.33232 -0.492048 12.7332
141 3 -2.18693 5.36005 9.73006
66 2 -2.08505 3.42317 8.44437
74 2 4.15692 2.74543 8.34835
169 3 0.975408 11.1581 3.98829
166 3 -1.14456 9.23879 8.29175
8 4 -1.038 8.87268 6.74716
9 4 -2.55415 10.8131 4.81834
7 4 -5.22699 10.7114 3.29962
164 3 1.70547 7.51303 8.03302
165 3 3.04266 6.16646 6.16156
25 4 -0.130681 11.3038 2.82803
27 4 2.65945 7.57619 6.78577
162 3 2.63587 9.33581 0.603838
44 2 0.631239 8.78108 6.2795
45 2 -1.48197 7.26312 6.47698
51 2 0.758007 6.99018 3.99477
60 2 -2.19454 11.3327 0.855161
61 2 -4.76355 10.4329 6.96352
170 3 2.06365 8.89221 5.83309
93 2 -1.22213 9.26103 1.92425
94 2 0.630353 9.14548 2.42775
95 2 0.153703 9.92157 0.702045
117 1 -2.4348 12.4335 0.724384
118 1 -5.27866 11.2472 7.62327
130 1 -0.154051 9.69217 1.79058
142 3 -4.74638 12.0085 2.37808
143 3 -3.94696 10.2422 4.25193
144 3 -1.68886 9.79842 5.76186
145 3 -3.11557 12.0422 5.90903
159 3 1.97646 6.81392 1.36385
160 3 0.268328 12.4447 1.57064
161 3 -1.60223 11.4632 3.6275
24 4 2.42659 7.88033 0.17682
253 2 -1.63128 12.8924 0.196495
1 4 -4.09371 13.1942 1.69925
171 3 1.23825 11.5892 6.60606
167 3 -0.663055 12.0202 8.30271
5 4 -3.72887 6.02139 9.39906
6 4 -1.07905 5.7491 10.7571
10 4 -2.43793 7.63901 12.8792
11 4 -3.00252 10.3653 11.4914
20 4 1.49297 6.14264 9.09539
28 4 -0.978406 10.6036 9.24024
30 4 -1.04655 9.28589 14.9728
43 2 -3.59204 7.66156 8.92863
46 2 -3.744 6.89276 13.805
47 2 -5.16382 11.1136 10.892
55 2 -2.32427 9.42888 16.1539
99 2 1.57019 7.6019 11.2545
263 2 -3.94478 6.49646 15.7157
252 2 -4.74454 10.7945 16.3841
72 2 -5.09877 10.9006 12.8762
92 2 1.7276 5.71328 14.0838
63 2 -4.88658 11.1097 8.70479
100 2 -0.0302037 8.40167 11.7874
121 1 -4.60207 11.4005 11.9044
129 1 1.92512 5.26003 15.0451
132 1 1.10127 8.38852 11.9272
238 2 -4.24944 9.08319 16.3881
146 3 -1.78156 6.59465 11.8766
147 3 -2.8623 8.98347 12.1598
154 3 0.309851 6.28521 10.0955
267 2 0.191 5.97911 15.4919
189 3 -5.46708 8.96616 13.8393
168 3 -2.39319 10.7145 10.0551
172 3 -1.36144 7.9846 14.1749
173 3 0.426201 9.14156 15.5579
174 3 -1.14388 10.6219 14.0107
175 3 0.354323 10.3965 10.3558
237 4 -5.45563 8.30214 15.3877
157 3 2.88912 5.91125 9.89485
16 4 -0.174393 11.7799 13.6031
71 2 -2.83595 11.7529 12.5449
101 2 1.46614 8.37936 13.024
247 2 12.0078 2.78035 0.822891
264 2 8.96656 4.09675 1.83135
270 2 13.5775 0.0813916 7.37687
73 2 9.68066 2.23625 1.84869
113 2 8.53828 5.97757 1.42604
265 2 10.4411 3.56717 0.584358
107 2 7.25679 4.31554 4.55327
122 1 9.44693 3.21527 1.2163
13 4 7.86205 2.4978 0.348503
134 1 7.5344 5.38905 4.82458
226 3 10.322 5.29697 8.12551
152 3 6.52568 3.28819 0.532866
177 3 5.69542 5.18359 2.44276
192 4 12.9133 1.57305 3.56422
56 2 6.71815 5.05042 7.51095
194 4 8.30271 1.60648 3.97646
196 4 10.6856 1.52587 5.79382
197 4 9.74676 4.00029 7.39741
218 3 6.39843 0.589604 6.93741
199 2 8.62612 3.04332 3.03742
200 2 8.63198 4.48237 6.17614
204 2 6.3833 4.26242 6.01863
205 2 6.20439 3.0602 7.7146
148 3 7.87407 1.0089 0.0130674
214 1 5.64029 3.62467 6.78957
225 3 10.7469 2.87645 6.78346
219 3 12.5673 0.38765 2.56385
220 3 8.32784 0.457308 2.91612
221 3 6.92557 1.95725 4.62088
222 3 11.8743 1.59252 4.70139
223 3 9.35084 1.40451 5.07093
224 3 10.8543 -0.00698124 6.84233
106 2 8.58733 5.61024 4.64807
33 4 6.22606 6.27624 3.60969
198 2 12.7001 3.04068 2.76413
105 2 7.21677 5.79273 5.79116
18 4 5.3934 4.2766 1.19217
255 2 12.1555 4.96564 0.733512
195 4 11.1824 -0.583206 8.26284
211 2 8.57906 2.11988 8.20763
206 2 4.762 4.17951 7.16069
22 4 4.67373 3.81819 13.0979
49 2 6.62744 -0.849516 14.9251
269 2 13.4155 0.167894 9.29656
77 2 6.59836 1.09755 10.1193
78 2 7.62371 0.528946 11.7168
79 2 6.9458 2.31903 11.5708
85 2 6.87463 3.61413 14.0926
249 2 7.852 -0.430745 8.85041
216 1 13.2605 -0.449981 8.33861
124 1 6.84482 1.23378 11.2439
127 1 6.18935 4.51906 13.8511
158 3 4.54752 4.57648 11.3932
212 2 7.6535 3.64871 8.88826
207 2 11.5539 0.835384 10.0538
208 2 9.79126 -0.143103 10.1583
209 2 9.82665 1.55471 9.28735
210 2 9.32082 3.1472 9.69448
257 1 11.0878 2.51508 16.3708
215 1 10.5059 0.605817 9.56587
217 1 8.66975 3.12484 8.73937
232 4 12.0937 0.833008 16.0316
233 4 11.0521 -1.12598 13.8586
234 2 9.61056 -0.590634 13.2503
235 3 11.5748 -0.102464 14.8926
256 2 10.093 2.70334 15.8873
57 2 8.34868 5.18952 12.7204
248 2 7.95437 1.56 15.9264
236 3 11.9738 -1.37919 12.5925
156 3 4.89424 2.27858 12.9552
266 2 3.9536 3.63477 16.3401
86 2 5.63714 5.01079 14.8052
87 2 6.62139 5.24525 13.1002
261 1 8.21371 11.2615 4.58709
12 4 1.74121 13.1841 1.47875
32 4 5.90087 12.519 1.67333
36 4 7.81349 8.36282 1.79065
135 1 7.75883 7.77748 8.2613
111 2 9.98546 7.16616 1.19468
96 2 3.24656 11.937 3.89797
97 2 4.04281 10.3838 4.95998
98 2 3.90036 12.1979 5.76564
102 2 5.86565 10.1134 2.17379
103 2 4.17554 11.123 2.55362
104 2 5.79432 11.3056 3.75675
108 2 8.13756 7.59463 7.24427
250 2 4.47146 12.9389 0.772483
29 4 1.85935 10.8441 5.35119
114 2 5.08221 8.27977 6.16602
115 2 4.85625 7.63411 8.08532
116 2 4.21757 9.41461 7.473
131 1 3.54056 11.4353 4.97833
133 1 5.34406 11.0796 2.71035
136 1 8.86933 6.9655 0.959438
137 1 4.47439 8.33485 7.1523
163 3 3.07889 12.0951 1.15636
178 3 5.1002 6.34827 4.76664
182 3 6.86971 7.63068 2.96648
183 3 8.82586 9.45605 2.5034
184 3 6.91131 9.07993 0.621033
185 3 7.03455 11.836 0.696931
62 2 8.33387 11.1365 7.5547
258 2 8.64759 11.2756 5.65527
259 2 7.32971 10.602 4.43215
260 2 7.9285 12.2614 4.22251
110 2 6.84845 8.54765 8.20338
23 4 4.26759 6.01168 10.6168
26 4 1.78005 8.98349 16.4353
271 3 7.91719 8.48384 16.0225
109 2 8.57495 8.25757 8.94531
35 4 8.62839 6.16387 11.2862
38 4 4.17539 10.2515 9.7998
39 4 8.02183 8.85205 12.715
40 4 6.44786 11.1602 11.4596
58 2 3.9298 8.73347 9.00696
59 2 6.62888 8.38973 13.5809
34 4 6.85582 6.25042 8.81021
88 2 3.00887 7.8015 11.9159
89 2 4.80619 8.31416 11.4573
90 2 4.53707 6.92247 12.755
37 4 6.33098 8.56264 16.3915
180 3 10.0658 5.89279 10.6548
128 1 4.13365 7.48857 11.8119
245 3 3.01589 9.0846 15.3889
176 3 1.1467 11.2285 12.8485
179 3 5.40269 6.69137 9.37164
240 1 9.71028 6.46683 15.2747
54 2 3.2163 5.53924 15.6224
186 3 4.46576 11.4271 8.73584
187 3 2.876 10.4454 10.8005
188 3 8.22577 7.69729 11.6711
262 2 8.97328 5.87556 16.0616
190 3 5.45588 10.1859 10.7256
191 3 7.58919 10.2181 12.0098
241 4 4.2415 9.3669 14.4666
242 2 3.719 9.12744 12.7943
243 3 5.41075 8.3572 14.7548
244 3 4.57672 10.9098 14.6436
112 2 7.54394 5.14398 16.4969
268 2 7.42378 11.9026 8.34666
251 2 7.06925 12.0216 10.0693
239 2 9.74822 5.95089 14.2496
181 3 7.59527 5.62506 10.2073
31 4 1.37338 10.2803 11.4877
ITEM: TIMESTEP
100
ITEM: NUMBER OF ATOMS
271
ITEM: BOX BOUNDS xy xz yz pp pp pp
-7.2018999999999993e+00 1.4748699999999999e+01 -6.1971999999999996e+00
-1.8615303000000001e+00 1.3438515900000001e+01 -1.0046999999999999e+00
0.0000000000000000e+00 1.6609600000000000e+01 -1.8615303000000001e+00
ITEM: ATOMS id type x y z
3 4 0.666535 1.53202 5.23816
4 4 -0.180132 3.80464 7.37053
153 3 1.02186 4.62633 8.24011
21 4 3.71035 5.49352 5.00924
41 2 2.20596 1.9411 4.53595
50 2 4.02121 3.22132 1.30623
52 2 4.36834 3.99167 5.614
19 4 1.64585 6.10521 2.88477
67 2 -2.01342 5.41045 7.07985
68 2 -1.48159 4.75173 5.37396
2 4 1.98508 -0.685805 6.92918
82 2 -0.513363 5.49425 4.45207
83 2 0.218161 4.40074 2.74218
125 1 3.72274 4.61627 0.106184
120 1 -1.1485 5.29183 6.34583
126 1 -0.16846 5.56709 3.29275
138 3 -0.373017 1.61001 4.06698
139 3 0.871669 0.104497 5.96441
140 3 0.283338 2.72715 6.31258
255 2 -2.2156 5.18415 0.395841
149 3 2.52423 0.262066 8.2013
155 3 2.67836 5.22781 3.73047
201 2 4.11902 1.93251 4.09489
202 2 3.60832 2.21045 5.98552
203 2 3.68083 0.460262 5.25235
193 4 5.86145 1.71966 5.79432
213 1 4.05479 1.5157 5.14784
14 4 6.73309 -0.657056 7.71384
227 4 1.37737 2.45269 0.467216
229 2 2.13823 3.86259 1.05338
230 3 1.77423 1.24272 1.38583
84 2 -0.797113 6.23157 2.66949
80 2 3.00147 5.33518 0.589363
218 3 6.23486 0.639899 6.89395
74 2 4.12943 2.69947 8.13706
231 3 -0.140811 2.72089 0.0152688
15 4 3.17366 1.15817 9.45136
266 2 3.7702 3.31745 16.209
17 4 5.21953 0.877169 11.9035
42 2 -0.952171 4.20377 11.4114
48 2 1.89436 2.1059 10.1197
65 2 -1.14596 1.63508 8.45775
64 2 -0.759346 3.08252 9.60404
70 2 1.83351 -0.704118 11.7405
119 1 -1.15101 2.82931 8.61389
75 2 3.9444 3.43826 9.97686
76 2 2.42097 3.65497 8.76793
53 2 3.5186 4.71684 14.0529
81 2 2.18434 2.01627 15.9024
91 2 1.86546 4.29794 14.4363
228 2 1.30136 0.522312 15.6697
123 1 3.34584 2.97448 9.15431
254 2 -2.80744 2.96479 15.0658
150 3 4.26462 0.78077 10.5547
151 3 5.48208 -0.44258 12.7825
141 3 -2.09752 5.60728 9.48163
66 2 -2.16584 3.34955 8.31923
156 3 4.60147 2.26592 13.0817
169 3 1.06253 10.9878 4.00789
166 3 -1.30664 9.20741 8.22241
8 4 -1.13033 8.86085 6.71873
9 4 -2.6256 10.9058 4.91271
7 4 -5.26429 10.6296 3.39843
164 3 1.64235 7.36104 8.08079
165 3 2.8362 6.19284 6.18114
25 4 -0.137411 11.1806 2.89797
27 4 2.59185 7.6828 6.80416
162 3 2.77425 9.31741 0.512487
44 2 0.550477 8.86292 6.22615
45 2 -1.62054 7.19203 6.45002
51 2 0.660004 7.15062 3.94184
60 2 -1.95699 11.477 0.862863
61 2 -4.84715 10.356 6.95404
170 3 2.00818 8.85198 5.82058
93 2 -1.16334 9.04629 1.99881
94 2 0.687129 8.86306 2.60836
95 2 0.329718 9.82906 1.02679
117 1 -2.29961 12.5547 0.488787
118 1 -5.11654 11.2187 7.62987
130 1 -0.0492116 9.47701 2.04421
142 3 -4.73053 12.0478 2.32052
143 3 -3.8552 10.0675 4.26348
144 3 -1.85973 9.85546 5.8207
145 3 -3.07343 12.1311 5.9226
159 3 2.00713 6.85193 1.46978
160 3 0.427721 12.3711 1.65702
161 3 -1.59853 11.4001 3.53243
24 4 2.40213 7.83617 0.18444
1 4 -4.05115 13.1092 1.39485
69 2 -0.400249 6.10519 6.12259
246 2 -2.21232 13.1686 2.07295
5 4 -3.6841 6.05313 9.27635
6 4 -1.12244 5.78006 10.7167
10 4 -2.39651 7.69641 12.8457
11 4 -3.04349 10.4421 11.5163
20 4 1.42023 6.07533 9.14299
28 4 -1.03581 10.6944 9.22325
30 4 -0.983305 9.23109 14.9807
43 2 -3.64912 7.69515 8.783
46 2 -3.81477 6.99577 13.5152
47 2 -5.11067 11.1582 10.8579
55 2 -2.06721 9.36614 16.3522
99 2 1.71112 7.84401 11.1111
263 2 -3.72516 6.87863 15.525
252 2 -4.8838 10.6168 16.2823
72 2 -5.05063 11.4331 12.8498
92 2 1.95529 6.16687 14.3005
63 2 -4.64728 11.122 8.67183
100 2 0.0298867 8.21751 11.9486
121 1 -4.56298 11.6157 11.9176
129 1 1.9146 5.26046 14.9992
132 1 1.10748 8.41004 11.9685
238 2 -4.12337 9.13703 16.348
146 3 -1.73494 6.71205 11.8526
147 3 -2.9676 9.00984 12.1908
154 3 0.349005 6.24954 10.2899
267 2 0.148837 5.75187 15.5542
189 3 -5.41923 9.05132 13.899
168 3 -2.50917 10.8476 10.0768
172 3 -1.3239 7.94072 14.1227
173 3 0.419968 9.16083 15.614
174 3 -1.13308 10.6612 14.1368
175 3 0.199623 10.4371 10.3095
237 4 -5.39468 8.38223 15.3491
157 3 2.77417 5.84153 9.95364
16 4 -0.119778 11.6958 13.6085
71 2 -2.76354 11.781 12.6663
101 2 1.5723 8.2876 12.9855
167 3 -0.602249 11.9321 8.33656
253 2 -2.523 11.2366 16.4889
31 4 1.34567 10.2957 11.3821
54 2 3.11304 5.2933 15.8392
247 2 12.0091 2.93126 0.708008
264 2 8.99418 4.1334 1.90851
270 2 13.7529 0.148263 7.58496
73 2 9.66435 2.23881 1.74183
113 2 8.90323 5.98279 1.15551
265 2 10.5219 3.81186 0.534007
107 2 7.71042 4.18213 4.36368
122 1 9.49749 3.36295 1.20865
13 4 7.99827 2.55359 0.23527
134 1 7.74688 5.33152 4.5891
226 3 10.5231 5.18514 8.00544
152 3 6.70136 3.27985 0.714384
177 3 5.84574 5.23931 2.30604
192 4 12.9559 1.47783 3.42181
56 2 6.64698 5.18897 7.69656
194 4 8.16144 1.64477 3.91985
196 4 10.6554 1.52846 5.80689
197 4 9.73001 3.91593 7.4085
148 3 8.09306 0.995998 0.0433354
199 2 8.51316 3.04496 2.87747
200 2 8.82793 4.71161 6.11581
204 2 6.61745 4.29034 5.8645
205 2 6.65649 3.31787 7.47797
206 2 5.18008 4.36014 7.06149
214 1 5.94866 3.64232 6.62519
225 3 10.6819 2.84112 6.69786
219 3 12.6313 0.238214 2.42799
220 3 8.20181 0.47133 2.82322
221 3 6.74534 1.89144 4.52987
222 3 11.8217 1.55726 4.57968
223 3 9.29867 1.43151 5.00847
224 3 11.0416 0.0857398 6.89372
106 2 8.64751 5.94064 4.15637
33 4 6.27602 6.06893 3.5413
198 2 12.823 2.90232 2.56802
105 2 7.50711 5.54313 5.70866
18 4 5.52397 4.27721 1.14423
22 4 4.73845 3.85658 13.096
49 2 6.69592 -1.08922 15.0532
211 2 8.55901 1.9214 8.45664
77 2 6.61096 1.67806 10.1724
78 2 7.54757 0.355913 11.247
79 2 7.31354 2.16958 11.8962
85 2 6.84636 3.41423 13.8433
249 2 7.87452 -0.187816 8.83663
216 1 13.3665 -0.422845 8.5027
124 1 6.89352 1.3413 11.2468
127 1 6.24883 4.44704 13.8837
158 3 4.52595 4.71933 11.6105
212 2 7.72001 3.58649 8.90454
207 2 11.6608 0.948109 10.1276
208 2 9.98468 -0.211961 10.2407
209 2 9.9039 1.49312 9.299
210 2 9.46187 3.20795 9.61728
257 1 11.1194 2.65135 16.1775
215 1 10.6115 0.627441 9.67176
217 1 8.69277 2.99758 8.71126
232 4 12.1341 0.998119 15.9739
233 4 11.1013 -1.16235 13.7912
234 2 9.61175 -0.710952 13.1939
235 3 11.6344 -0.0761071 14.8577
256 2 10.0621 2.97284 15.8944
57 2 8.74088 4.8702 12.2864
248 2 8.08559 1.61443 15.9184
86 2 5.8904 4.66746 14.9189
269 2 13.574 0.172948 9.48683
195 4 11.3551 -0.459885 8.33172
261 1 8.24966 11.2779 4.67525
12 4 1.7323 13.1468 1.38387
32 4 5.99734 12.4674 1.48083
36 4 7.97002 8.22375 1.8865
135 1 7.62922 7.86615 8.14515
111 2 10.1007 7.4345 1.17501
96 2 3.61735 11.5826 4.08072
97 2 4.23356 10.4583 5.42813
98 2 4.13088 12.3663 5.71743
102 2 6.02037 10.0586 2.4874
103 2 4.39508 11.0524 2.49761
104 2 5.76002 11.5488 3.68041
108 2 8.16241 7.28932 7.2555
250 2 4.58019 12.7318 0.558424
29 4 1.94878 10.8586 5.47867
114 2 5.11093 8.37337 6.37107
115 2 4.67106 7.75762 8.1257
116 2 4.23709 9.58626 7.57433
131 1 3.65974 11.4201 5.17816
133 1 5.4807 11.0853 2.67487
136 1 9.11834 7.05218 0.843615
137 1 4.33165 8.46258 7.21603
163 3 3.05368 12.2283 1.07997
178 3 4.93181 6.38452 4.57653
182 3 7.06832 7.37296 2.96012
183 3 8.91754 9.37719 2.65278
184 3 6.94733 8.99735 0.676869
185 3 7.06446 11.7227 0.582415
62 2 8.50093 11.2714 7.7186
258 2 8.68573 11.2669 5.82136
259 2 7.39345 10.4989 4.48084
260 2 7.9881 12.2903 4.32529
110 2 6.76521 8.49355 7.81803
171 3 1.34687 11.8434 6.57999
23 4 4.16075 5.99757 10.6329
26 4 1.77936 9.00172 16.404
271 3 7.95072 8.42209 16.1207
109 2 8.33274 8.4567 8.7412
35 4 8.75393 6.11663 11.2269
38 4 4.09576 10.2877 9.83939
39 4 8.07243 8.92328 12.7549
40 4 6.51612 11.0911 11.4444
58 2 3.70429 8.79633 9.05937
59 2 6.67098 8.66853 13.7531
34 4 6.7898 6.32628 8.93037
88 2 3.00103 7.74039 12.0109
89 2 4.95431 7.97467 11.4473
90 2 4.50883 6.85762 13.022
37 4 6.37385 8.40948 16.4502
180 3 10.262 5.93601 10.6195
128 1 4.13577 7.2912 12.0187
245 3 3.05959 9.08681 15.4678
176 3 1.18291 11.1515 12.7788
179 3 5.33706 6.79586 9.41535
240 1 9.90112 6.58305 15.1764
236 3 5.90865 12.0115 12.5847
186 3 4.37748 11.3876 8.71301
187 3 2.78287 10.5582 10.8544
188 3 8.48652 7.59349 11.8647
262 2 9.30281 5.99482 16.045
190 3 5.3813 10.1149 10.7073
191 3 7.73752 10.2562 11.9629
241 4 4.29354 9.38796 14.5199
242 2 3.82917 9.05868 12.8963
243 3 5.48057 8.35198 14.7351
244 3 4.83679 10.9415 14.5604
112 2 7.89175 5.3377 16.3492
268 2 7.61857 11.9675 8.57387
87 2 6.73348 5.44013 13.4044
239 2 9.85358 6.07691 14.1547
181 3 7.79568 5.7561 10.0214
251 2 7.21037 12.0908 10.2655
ITEM: TIMESTEP
200
ITEM: NUMBER OF ATOMS
271
ITEM: BOX BOUNDS xy xz yz pp pp pp
-7.2018999999999993e+00 1.4748699999999999e+01 -6.1971999999999996e+00
-1.8624605999999999e+00 1.3445231800000000e+01 -1.0046999999999999e+00
0.0000000000000000e+00 1.6609600000000000e+01 -1.8624605999999999e+00
ITEM: ATOMS id type x y z
3 4 0.597424 1.5331 5.24476
4 4 -0.21315 3.8112 7.32716
153 3 1.00296 4.61417 8.09429
21 4 3.69982 5.57468 4.95995
41 2 2.10834 1.89005 4.48837
50 2 3.90753 3.19265 1.34759
52 2 4.28397 4.02405 5.29747
19 4 1.56249 6.16752 2.95651
67 2 -2.03129 5.77097 6.85598
68 2 -1.56592 4.84382 5.38484
2 4 1.94533 -0.593923 6.84041
82 2 -0.524045 5.66829 4.46534
83 2 -0.211285 4.84339 2.53911
125 1 3.7281 4.4121 0.178463
120 1 -1.17241 5.29157 6.31091
126 1 -0.236696 5.92656 3.30557
138 3 -0.450403 1.47115 4.11013
139 3 0.784456 0.124131 6.01505
140 3 0.194791 2.71557 6.2142
255 2 -2.41369 5.14086 0.686393
149 3 2.53077 0.314384 8.23345
155 3 2.60836 5.1892 3.82189
201 2 4.188 1.90408 3.82245
202 2 3.60222 2.4447 5.57303
203 2 3.69114 0.524278 5.21496
193 4 5.84761 1.81245 5.73409
213 1 4.08275 1.63263 4.95939
14 4 6.74954 -0.616694 7.61229
227 4 1.48413 2.54672 0.442162
229 2 2.17535 3.9321 1.21804
230 3 1.65472 1.24314 1.26547
246 2 4.1036 -0.214601 2.02569
80 2 3.07175 5.21346 0.595129
66 2 -2.38763 3.45179 8.11853
74 2 3.75626 2.40619 7.71946
69 2 -0.245753 5.9628 6.20027
15 4 3.02953 1.15398 9.45048
231 3 -1.09378 0.951353 16.5382
17 4 5.24325 0.837729 12.0024
42 2 -1.08916 4.30827 11.2801
48 2 1.90793 2.34222 9.98613
65 2 -1.48142 1.74321 8.39689
64 2 -1.11228 3.25726 9.48522
70 2 1.77507 -0.617207 12.0496
119 1 -1.42227 2.93324 8.44309
75 2 4.16763 3.34293 9.38513
76 2 2.37053 3.60418 8.61538
156 3 4.70552 2.26518 12.9278
81 2 2.43918 2.25471 15.8235
91 2 1.89369 4.19361 14.829
228 2 1.35618 0.408544 15.6147
123 1 3.34811 2.90754 8.76918
254 2 -2.75759 3.08551 15.3352
150 3 3.96669 0.768415 10.6482
151 3 5.49307 -0.417827 12.8915
53 2 3.43311 4.39178 14.0191
169 3 0.996361 10.8865 4.21517
166 3 -1.35168 9.30687 8.2693
8 4 -1.27122 8.88379 6.78441
9 4 -2.55723 10.9178 4.84532
7 4 -5.14856 10.6599 3.27003
164 3 1.64306 7.43585 8.17623
165 3 2.89833 6.35145 6.14517
25 4 2.94655e-05 11.1618 2.98035
27 4 2.56678 7.78039 6.82895
162 3 2.87666 9.34613 0.676946
44 2 0.363884 8.81796 6.2566
45 2 -1.62378 7.18519 6.66683
51 2 0.781394 7.41781 3.96357
60 2 -1.89171 11.4693 0.837329
61 2 -4.74938 10.4102 6.61233
170 3 1.88622 8.87551 5.85957
93 2 -0.591996 8.76294 2.98957
94 2 0.990113 9.08303 1.96704
95 2 -0.659761 9.60784 1.24464
117 1 -2.2115 12.5262 0.521162
118 1 -5.02594 11.2024 7.39037
130 1 -0.0561934 9.44515 2.16021
142 3 -4.65025 11.9671 2.26445
143 3 -3.90012 10.3279 4.3207
144 3 -2.03962 9.70233 5.69643
145 3 -3.13077 12.3637 5.83124
159 3 1.99107 6.70859 1.50188
160 3 0.396887 12.3071 1.52619
161 3 -1.41229 11.3399 3.57967
24 4 2.52402 7.79022 0.321169
1 4 -3.97593 13.0912 1.31854
84 2 -0.927682 6.67524 2.89356
167 3 -0.693124 12.0637 8.20047
5 4 -3.80738 6.23315 9.19817
6 4 -1.17468 5.89182 10.6058
10 4 -2.4455 7.74506 12.7548
11 4 -3.14415 10.5658 11.5185
20 4 1.42572 6.1202 9.10248
28 4 -1.10796 10.6718 9.19952
30 4 -0.931954 9.20703 14.8744
43 2 -3.85505 7.82512 8.65336
46 2 -3.92402 7.0548 13.4503
47 2 -5.27805 11.3269 11.1528
55 2 -2.03582 9.39049 16.2471
99 2 1.64736 7.86634 11.0229
263 2 -3.69486 6.58285 15.4415
252 2 -4.84131 10.8342 16.2137
72 2 -4.98361 11.2909 13.0637
92 2 2.12717 5.97125 14.1668
63 2 -4.41775 11.0111 8.34162
100 2 -0.0483008 8.21177 11.7393
121 1 -4.60418 11.6756 12.0684
129 1 1.95398 5.30094 15.0542
132 1 1.06175 8.40059 11.8278
238 2 -4.0484 9.03978 16.4643
146 3 -1.80221 6.72631 11.7647
147 3 -2.91543 9.1133 12.0934
154 3 0.239391 6.27947 10.09
267 2 0.293233 5.67379 15.4845
189 3 -5.36798 9.22825 13.9123
168 3 -2.59343 10.8768 10.0298
172 3 -1.43061 8.00882 14.0382
173 3 0.508979 9.03427 15.5319
174 3 -1.13179 10.7036 14.0879
175 3 -0.0207363 10.5455 10.464
237 4 -5.23593 8.29084 15.377
157 3 2.80699 5.95393 9.99043
16 4 -0.125398 11.7555 13.6244
71 2 -2.74308 11.7084 12.7823
101 2 1.37625 8.17992 12.8971
141 3 -2.24833 5.78665 9.20022
253 2 -2.40023 11.1598 16.5195
31 4 1.24059 10.2765 11.3573
247 2 12.075 2.90991 0.782782
264 2 9.11343 4.13821 2.01886
270 2 13.6372 0.387277 7.52297
73 2 9.77383 2.2628 1.90778
113 2 9.12366 6.03945 1.72916
265 2 10.5073 3.73399 0.733807
107 2 7.50835 4.20808 4.58475
122 1 9.54859 3.32618 1.36555
13 4 8.07274 2.44898 0.43396
134 1 7.71736 5.33647 4.69913
226 3 10.1866 5.30294 7.94388
152 3 6.7623 3.16774 0.767249
177 3 5.82732 5.05515 2.47384
192 4 12.9171 1.52657 3.46481
56 2 6.69244 5.15898 7.58223
194 4 8.28304 1.52589 3.9231
196 4 10.7349 1.52992 5.7332
197 4 9.69986 3.90754 7.2965
148 3 8.09846 0.903765 0.041903
199 2 8.7775 2.97404 3.16575
200 2 8.33811 4.24683 6.20187
204 2 6.41431 4.39067 5.95458
205 2 6.35272 3.2788 7.48705
206 2 4.83261 4.23253 7.11635
214 1 5.73049 3.71293 6.66549
225 3 10.6886 2.95068 6.50442
219 3 12.5901 0.259731 2.45246
220 3 8.22035 0.365334 2.84364
221 3 6.91478 1.97547 4.52652
222 3 11.8824 1.58615 4.5727
223 3 9.3879 1.15922 4.9927
224 3 10.8922 0.161092 6.96084
106 2 8.7758 5.60887 4.30996
33 4 6.2618 6.14753 3.59335
198 2 12.9239 2.99024 2.62763
105 2 7.56058 5.80339 5.70672
18 4 5.54292 4.11144 1.20822
211 2 8.27973 2.22143 8.27437
218 3 6.30346 0.7886 6.91138
22 4 4.74313 3.82629 12.9713
49 2 6.8741 -1.19437 15.0732
266 2 4.20335 3.41959 16.336
77 2 6.6046 1.36914 10.2152
78 2 7.61509 0.294798 11.4548
79 2 7.42687 2.14797 11.7278
85 2 7.12828 3.61324 13.3555
249 2 7.87231 -0.167018 8.82607
216 1 13.3802 -0.307958 8.41816
124 1 6.93261 1.26311 11.3051
127 1 6.41512 4.44124 13.5317
158 3 4.58638 4.54126 11.5649
212 2 7.94165 3.8933 9.03918
207 2 11.7822 1.16036 9.92907
208 2 10.214 0.119563 10.3061
209 2 9.95344 1.65602 9.25103
210 2 9.32882 2.83472 9.67407
257 1 11.1242 2.65185 16.3883
215 1 10.7311 0.791348 9.60965
217 1 8.75384 3.09245 8.71775
232 4 12.1396 1.05356 15.9411
233 4 11.2122 -1.20668 13.7681
234 2 9.6612 -0.797848 13.1318
235 3 11.6803 0.00261996 14.7976
256 2 10.0964 2.72493 16.0169
57 2 8.55403 5.03501 12.3449
248 2 8.14717 1.53556 16.0449
86 2 6.39009 4.75274 14.5865
195 4 11.294 -0.415567 8.3383
236 3 12.1856 -1.31934 12.5323
269 2 13.5621 0.235915 9.40106
87 2 6.68555 5.27305 12.8609
261 1 8.27705 11.2571 4.49589
12 4 1.76364 13.002 1.46947
32 4 6.115 12.3965 1.55767
36 4 7.93829 8.20537 1.87418
135 1 7.63893 7.97845 8.18641
111 2 10.1683 7.51336 1.21244
96 2 3.51997 11.5939 3.99967
97 2 4.15089 10.2693 5.27454
98 2 4.03432 12.1988 5.72076
102 2 6.42806 10.2193 2.82252
103 2 4.61545 10.9847 2.5518
104 2 5.79147 11.6119 3.95698
108 2 7.84413 7.62291 7.14346
250 2 4.5723 12.7907 0.90082
29 4 1.92059 10.8577 5.54899
114 2 4.9139 8.13437 6.32223
115 2 4.7307 7.69677 8.16018
116 2 4.3249 9.58961 7.56109
131 1 3.66058 11.3 5.06216
133 1 5.76681 11.1433 2.9465
136 1 9.23419 6.94437 1.07821
137 1 4.37017 8.41382 7.31663
163 3 3.05014 12.0863 1.18088
178 3 4.99994 6.45 4.68135
182 3 7.0017 7.46675 2.94789
183 3 8.84857 9.39959 2.60786
184 3 6.95471 8.93943 0.682055
185 3 7.08165 11.6448 0.564932
62 2 8.58084 11.3765 7.59211
258 2 8.69852 11.306 5.54771
259 2 7.43413 10.4895 4.39386
260 2 7.93538 12.2431 4.05639
110 2 6.73648 8.7033 8.2351
171 3 1.38145 11.8507 6.68182
268 2 7.5854 12.0525 8.23226
112 2 8.95323 6.72362 0.0239874
23 4 4.17661 5.95872 10.7181
26 4 1.8616 8.95716 16.4169
271 3 7.98463 8.30769 15.9705
109 2 8.48767 8.32263 8.81513
35 4 8.79471 6.21451 11.1511
38 4 4.11156 10.3989 9.87233
39 4 8.21844 8.90803 12.7791
40 4 6.62362 11.1218 11.3768
58 2 4.04124 8.89158 9.19969
59 2 6.80415 8.42779 13.6564
34 4 6.79293 6.38363 8.86638
88 2 2.97516 7.81375 11.9926
89 2 4.93589 8.0279 11.4472
90 2 4.56384 6.97082 13.0714
37 4 6.45606 8.36255 16.4154
180 3 10.2128 6.15961 10.6245
128 1 4.17443 7.33374 12.0403
245 3 3.10007 9.18745 15.5202
176 3 1.11736 11.0891 12.7813
179 3 5.3023 6.61473 9.48921
240 1 9.92031 6.44241 15.0949
251 2 7.22914 12.1833 10.1284
186 3 4.52742 11.5135 8.67888
187 3 2.73009 10.5755 10.6222
188 3 8.51654 7.58412 11.9448
262 2 9.29567 5.91571 15.9789
190 3 5.40694 10.1596 10.7551
191 3 7.75648 10.1382 11.9076
241 4 4.35264 9.39175 14.613
242 2 3.74829 8.9646 13.0904
243 3 5.63401 8.26331 14.6917
244 3 4.71509 10.9538 14.5188
54 2 3.19245 5.36379 16.1503
181 3 7.64557 5.95259 10.0815
239 2 9.75034 5.99796 14.0861
ITEM: TIMESTEP
300
ITEM: NUMBER OF ATOMS
271
ITEM: BOX BOUNDS xy xz yz pp pp pp
-7.2018999999999993e+00 1.4748699999999999e+01 -6.1971999999999996e+00
-1.8633909000000000e+00 1.3451947700000002e+01 -1.0046999999999999e+00
0.0000000000000000e+00 1.6609600000000000e+01 -1.8633909000000000e+00
ITEM: ATOMS id type x y z
3 4 0.71012 1.61782 5.24211
4 4 -0.159082 3.9162 7.35107
153 3 0.959511 4.60358 8.19099
21 4 3.71007 5.55845 4.99251
41 2 2.25151 2.0018 4.63315
50 2 3.92864 3.14242 1.47263
52 2 4.24758 4.03742 5.6168
19 4 1.61555 6.24431 2.90027
67 2 -1.7337 5.83161 7.3161
68 2 -1.84598 5.176 5.52664
2 4 1.90473 -0.542417 6.87989
82 2 -0.492474 5.88449 4.44167
83 2 -0.196039 4.99695 2.65552
125 1 3.71535 4.25672 0.246255
120 1 -1.1739 5.48958 6.36654
126 1 -0.2888 6.15037 3.34263
138 3 -0.321194 1.53125 4.00176
139 3 0.769545 0.221785 6.08126
140 3 0.378447 2.78198 6.27995
80 2 2.94633 5.05077 0.426233
149 3 2.34914 0.196046 8.17978
155 3 2.6923 5.28352 3.67274
201 2 4.31833 1.74531 3.86981
202 2 3.68591 2.2589 5.62771
203 2 3.86458 0.377102 5.19809
74 2 3.80184 2.46819 7.74367
213 1 4.20824 1.49166 4.96381
14 4 6.72451 -0.767814 7.62644
227 4 1.45608 2.46713 0.386011
229 2 2.09051 3.87404 1.27017
230 3 1.83026 1.16275 1.09638
246 2 4.15726 -0.178857 2.01838
255 2 -2.13324 4.99584 0.622074
66 2 -2.28376 3.59463 8.09843
218 3 6.24499 0.620022 6.80953
15 4 2.87443 1.10748 9.32133
231 3 -0.99658 0.942245 16.5225
17 4 5.06305 0.775402 11.9347
42 2 -0.980733 4.41909 11.1796
48 2 1.67056 2.33705 9.75075
65 2 -1.3133 1.8416 8.48834
64 2 -0.946856 3.44224 9.60526
70 2 1.58954 -0.761131 12.6946
119 1 -1.26839 3.02799 8.56514
75 2 3.95233 3.29674 9.45949
76 2 2.29683 3.57325 8.47865
156 3 4.83718 2.25095 12.7851
81 2 2.69824 1.88302 15.9282
91 2 2.17138 4.02465 14.4858
228 2 1.43174 0.694956 15.6559
123 1 3.22329 2.86747 8.6934
254 2 -2.88465 3.17503 15.316
150 3 3.86063 0.919687 10.5498
151 3 5.41765 -0.570081 12.8645
269 2 -0.845962 0.305593 9.32838
129 1 2.07138 5.00414 14.9992
169 3 1.10193 10.9792 4.14696
69 2 -0.383683 6.21316 6.09601
8 4 -1.2812 8.95455 6.92563
9 4 -2.55813 10.9047 4.83152
7 4 -5.16989 10.7325 3.25201
164 3 1.70121 7.40837 8.25864
165 3 3.03238 6.28571 6.19878
25 4 -0.0637055 11.0647 2.88497
27 4 2.57605 7.69161 6.87616
162 3 2.94163 9.2528 0.544338
44 2 0.418874 8.88747 6.49285
45 2 -1.86434 7.35189 6.5975
51 2 0.89388 7.54059 3.89649
60 2 -2.09668 11.4312 0.867702
61 2 -4.96503 10.5203 6.80832
170 3 1.89219 8.98786 6.0584
93 2 -0.838841 8.77866 2.76698
94 2 0.945401 8.91526 2.30955
95 2 -0.331782 9.4084 1.08852
117 1 -2.26581 12.4785 0.478602
118 1 -5.13985 11.3339 7.56295
130 1 -0.0744563 9.28206 2.16299
142 3 -4.67554 12.0861 2.23871
143 3 -3.83177 10.191 4.03546
144 3 -1.97792 9.86735 5.92627
145 3 -2.99229 12.2517 5.64155
159 3 2.07138 6.92001 1.53527
160 3 0.314199 12.1821 1.64801
161 3 -1.5154 11.2892 3.6338
24 4 2.69665 7.69347 0.277621
1 4 -3.88173 13.1665 1.41228
84 2 -1.09902 6.72204 2.79752
5 4 -3.81602 6.20748 9.01046
6 4 -1.16667 5.93666 10.4788
10 4 -2.46704 7.74029 12.7997
11 4 -3.19952 10.555 11.5577
20 4 1.44962 6.12124 9.16529
28 4 -1.18434 10.8605 9.18804
30 4 -0.986552 9.1185 14.9995
43 2 -3.88356 7.86447 8.65593
46 2 -3.84584 6.95043 13.4181
47 2 -5.17073 11.4847 11.1057
55 2 -2.09766 9.22952 16.3127
99 2 1.85901 7.82404 11.0886
263 2 -3.93501 6.46893 15.486
252 2 -4.723 10.7249 16.1805
72 2 -5.19541 10.9166 13.1065
92 2 2.29568 5.87139 14.303
31 4 1.26879 10.3225 11.3429
100 2 0.152009 8.18678 11.6998
121 1 -4.64159 11.6333 12.3139
166 3 -1.49785 9.35734 8.37529
132 1 1.26208 8.46775 11.7702
238 2 -4.16474 9.00977 16.4174
146 3 -1.8068 6.80685 11.6914
147 3 -2.96952 9.08583 12.1235
154 3 0.241062 6.47735 10.096
267 2 0.599181 5.17847 15.4749
189 3 -5.51592 9.06978 13.9755
168 3 -2.72448 10.965 10.0675
172 3 -1.52514 7.9273 14.0451
173 3 0.480748 8.96816 15.5175
174 3 -1.12818 10.596 14.3116
175 3 0.0734481 10.5629 10.2795
237 4 -5.40977 8.27568 15.4505
157 3 2.8138 5.8858 9.96195
16 4 -0.018918 11.641 13.7863
71 2 -2.80077 11.777 12.7516
101 2 1.68073 8.49858 12.8503
141 3 -2.2785 5.75569 9.28073
253 2 -2.33372 10.918 16.5003
63 2 -4.64567 11.1817 8.65355
167 3 -0.767425 12.0826 8.36974
247 2 12.1688 2.83144 0.670358
264 2 9.42186 3.92625 1.96175
270 2 13.6199 0.364462 7.51797
73 2 10.0159 2.16516 1.80095
113 2 9.02513 5.96291 1.67342
265 2 10.6963 3.67837 0.620126
107 2 7.43479 4.20035 4.69886
122 1 9.72745 3.16143 1.2453
13 4 8.12897 2.44511 0.444285
134 1 7.64674 5.26278 4.60717
226 3 10.3511 5.44686 7.70872
152 3 6.78675 3.11068 0.8199
177 3 5.84492 5.10625 2.45987
192 4 12.8984 1.40292 3.52929
56 2 6.95484 5.07441 7.66889
194 4 8.27723 1.52387 3.94071
196 4 10.6321 1.39569 5.81394
197 4 9.59549 4.05723 7.30421