ITEM: TIMESTEP
0
ITEM: NUMBER OF ATOMS
271
ITEM: BOX BOUNDS xy xz yz pp pp pp
-7.2018999999999993e+00 1.4748699999999999e+01 -6.1971999999999996e+00
-1.8606000000000000e+00 1.3431800000000001e+01 -1.0046999999999999e+00
0.0000000000000000e+00 1.6609600000000000e+01 -1.8606000000000000e+00
ITEM: ATOMS id type q x y z
3 4 1.22985 0.918684 1.37658 5.5999
4 4 1.1403 -0.0229973 3.77292 7.48607
214 1 -0.699164 4.66349 2.99694 6.43153
21 4 1.22034 2.76544 5.62105 4.966
41 2 -0.00252945 2.56883 1.46643 5.13062
50 2 0.0174777 3.50097 2.81458 1.76176
52 2 0.00232018 3.15936 4.02029 5.69492
266 2 0.0177665 4.07074 5.12158 0.0847178
69 2 0.136888 -2.05889 5.45183 6.29809
82 2 0.123145 -0.882954 6.06849 1.87388
227 4 0.994709 1.28868 1.97439 0.511212
231 3 -0.805764 -0.174296 2.23066 0.080379
83 2 0.17215 -0.153443 4.34956 1.36133
84 2 0.158997 0.324244 5.83529 0.387976
120 1 -0.677529 -0.97178 5.32242 6.51184
126 1 -0.664855 0.0236897 5.42896 1.4217
138 3 -0.83419 0.0961609 1.3238 4.18125
139 3 -0.784639 0.729671 0.0150083 6.41863
140 3 -0.835747 0.652524 2.68867 6.49862
229 2 0.0349368 1.53359 3.20067 1.79039
14 4 1.35276 6.39561 -0.649807 7.58469
155 3 -0.778538 1.92683 5.33219 3.49752
201 2 0.179346 5.08489 0.596146 3.50158
202 2 0.122477 3.65304 1.79251 3.7357
203 2 0.256035 3.74569 0.0262069 4.8955
206 2 0.15009 3.63516 2.57398 6.31315
213 1 -0.67907 4.27455 0.936159 4.27601
218 3 -0.855444 5.97244 0.491178 6.63202
67 2 0.173966 -0.461075 4.91888 5.57158
193 4 1.12418 5.70929 1.55413 5.50215
230 3 -0.817072 1.89276 0.569299 1.06648
65 2 0.215452 -2.16366 3.04736 7.43824
268 2 0.266585 -0.463015 -0.264965 7.74459
18 4 1.00522 4.75818 4.01529 1.32057
125 1 -0.643271 2.70755 3.79707 0.351419
80 2 0.172095 1.78132 4.53757 0.763326
74 2 0.202437 2.59077 2.61095 8.20096
119 1 -0.663936 -1.42699 2.82344 8.26731
254 2 0.0863552 -1.9802 4.48439 0.388114
19 4 0.975479 1.30391 6.42323 2.45411
246 2 0.0346574 3.64116 -0.255129 2.79515
205 2 0.168648 4.98839 3.06177 7.44808
204 2 0.143139 4.7595 3.96496 5.97986
15 4 1.08304 3.46953 0.722443 9.59045
75 2 0.149515 4.28035 2.81663 9.11804
151 3 -0.791285 5.88253 -0.358239 12.9146
42 2 -0.0186338 -0.515033 4.27498 12.2228
48 2 -0.000549229 2.18558 1.38183 10.5876
71 2 0.165584 2.12024 -0.776155 11.4267
5 4 1.2135 -3.03905 5.57936 9.20137
66 2 0.185019 -1.53797 3.49953 9.19161
149 3 -0.815484 2.853 -0.17919 8.31373
141 3 -0.846993 -2.25331 5.10569 10.5556
76 2 0.211781 2.56788 3.17836 10.0232
153 3 -0.816071 0.857664 4.52346 8.63554
81 2 0.13935 1.9929 2.20433 15.8629
270 2 0.12985 -0.957302 0.19038 9.55149
91 2 0.163124 1.35584 4.88041 15.2768
123 1 -0.659535 3.06105 2.52949 9.26112
228 2 0.0337899 1.32253 0.528374 15.7278
150 3 -0.806064 4.75412 0.445555 10.3743
64 2 0.185791 -1.30037 1.63488 8.5086
167 3 -0.821639 -0.857185 11.713 8.1075
2 4 1.27071 -4.01198 12.4696 7.124
8 4 0.999392 -2.12377 8.7409 6.86919
9 4 1.39527 -2.55507 10.754 4.74866
253 2 0.169738 -1.54573 12.1534 1.03127
260 2 0.248079 -5.94641 12.4899 4.14701
166 3 -0.800326 -1.30832 9.0174 8.12375
25 4 1.34121 0.0372878 11.2172 3.26382
27 4 1.33587 1.74208 7.70796 7.02881
165 3 -0.826759 1.86535 6.378 5.98288
44 2 -0.0315775 -1.99087 7.02218 6.52149
45 2 -0.00980141 -3.71612 8.96944 7.36782
51 2 -0.00188883 0.146202 7.50755 3.08377
1 4 1.09054 -3.71603 12.6307 1.6476
63 2 0.159751 -5.78582 10.9654 7.67008
170 3 -0.796472 1.47586 9.16646 6.31122
93 2 0.165886 -0.832275 8.85611 2.65225
94 2 0.186479 1.04538 9.06739 3.17238
95 2 0.210998 0.446374 9.5925 1.43845
117 1 -0.654104 -2.46044 11.803 0.319168
118 1 -0.698779 -4.70992 10.6934 7.44236
130 1 -0.664706 0.179189 9.42325 2.5504
142 3 -0.828217 -4.54674 11.4547 2.16931
143 3 -0.79974 -4.05657 9.93131 4.34885
144 3 -0.819304 -1.81977 9.57697 5.56671
145 3 -0.820278 -3.20469 12.1953 5.77485
159 3 -0.765482 2.39962 7.21674 1.38216
160 3 -0.849017 0.50631 12.3242 2.10715
161 3 -0.855757 -1.59135 11.2923 3.548
68 2 0.192572 -0.451742 6.25815 6.97914
62 2 0.18318 -4.57768 9.95569 6.55824
169 3 -0.819538 1.07915 11.2445 4.57127
7 4 1.30813 -5.16812 10.4308 3.26189
24 4 1.05185 3.39806 8.07867 0.424431
43 2 -0.00384144 -1.79922 6.06726 8.12414
60 2 0.187359 -2.49322 10.6815 0.135011
238 2 0.0176528 -4.76912 9.16293 15.6476
252 2 0.139577 -3.70882 10.6624 15.9988
10 4 1.2597 -2.68205 7.79302 13.2305
11 4 1.16923 -3.18876 10.181 11.2936
154 3 -0.821045 0.220011 6.22346 10.7416
28 4 1.55269 -1.15074 10.4565 9.10301
30 4 1.29671 -1.00378 9.47049 14.9464
262 2 0.155294 -4.18135 6.87198 15.3893
46 2 0.0113035 -4.23556 7.05076 13.5834
47 2 0.0584856 -4.91698 10.5047 10.9439
129 1 -0.671435 2.17713 5.70127 15.2045
101 2 0.194537 1.71101 8.62506 12.8881
6 4 1.23981 -1.12155 5.66836 11.5153
20 4 1.46612 1.28214 5.87974 9.55738
164 3 -0.776978 1.21942 7.20333 8.5018
267 2 0.19832 1.95008 6.6095 14.6085
99 2 0.228468 1.77822 7.70135 11.2613
100 2 0.243745 0.180467 8.4699 11.7783
55 2 0.0295952 -1.80015 10.5649 16.0124
175 3 -0.825628 0.241 10.3848 10.1164
132 1 -0.67329 1.33225 8.57512 11.8603
72 2 0.161598 -2.98627 11.7614 12.8936
146 3 -0.824592 -1.72999 6.62301 12.645
147 3 -0.850083 -2.9239 8.99777 12.2346
121 1 -0.666376 -4.02485 11.7943 12.0852
180 3 -0.804649 -4.1059 6.76002 9.55541
157 3 -0.828346 2.8226 5.91231 10.1432
168 3 -0.882596 -2.47939 10.5288 9.95044
172 3 -0.836067 -2.14696 8.40475 14.6489
173 3 -0.871668 0.167315 8.92376 15.8052
174 3 -0.82853 -0.562045 10.5195 13.7656
70 2 0.172915 -5.01228 11.3433 12.5414
61 2 0.190104 -4.04226 10.4822 8.31581
211 2 0.164545 7.85356 1.9742 7.89785
113 2 0.159573 8.62715 6.6524 0.288116
256 2 0.160787 10.7176 3.50071 0.977244
73 2 0.150511 9.10191 2.77158 1.17239
105 2 0.181635 7.29943 4.29196 4.03142
257 1 -0.63179 11.9323 3.4868 1.37049
224 3 -0.764306 11.3567 -0.110984 6.65749
111 2 0.158919 8.41125 5.60342 1.87234
33 4 1.22841 5.58404 5.93522 3.76952
106 2 0.158533 6.18325 4.33619 5.67965
222 3 -0.844713 12.269 1.74145 4.91729
152 3 -0.815784 5.95973 3.25138 0.651491
177 3 -0.802481 5.09715 4.87333 2.60848
192 4 1.27648 13.3037 1.40191 3.77508
223 3 -0.83749 9.73365 0.796099 4.63728
194 4 1.26582 8.58701 1.64248 3.90146
196 4 1.49577 10.9073 1.21129 5.62245
197 4 1.0496 9.91314 3.45484 7.75394
56 2 -0.024439 6.5155 5.95603 6.5836
199 2 -0.047711 9.25722 3.11516 3.52833
200 2 0.0323234 8.35064 4.27717 7.20582
107 2 0.128505 7.57179 5.73696 5.24699
255 2 0.141226 11.9368 3.89385 2.46652
225 3 -0.836303 10.4305 2.40105 6.63924
247 2 0.0369401 12.0707 1.66917 1.43935
264 2 0.174632 8.69571 4.68016 0.777181
219 3 -0.814782 12.8516 0.112032 2.98023
220 3 -0.823458 8.32665 0.934261 2.52845
221 3 -0.788009 7.18182 1.96091 4.66026
134 1 -0.653319 6.78977 4.94578 4.85376
195 4 1.04759 11.6092 -0.681419 8.1497
122 1 -0.66299 8.77282 3.56055 0.350992
198 2 -0.00756615 13.1179 2.79945 2.74118
232 4 1.01393 12.9576 2.50629 0.00674294
22 4 0.986481 6.14025 3.84365 11.9938
148 3 -0.8303 6.34097 -0.999588 16.4551
251 2 -0.0194932 13.2892 -0.677006 10.5562
77 2 0.155835 7.76 1.51068 9.87929
49 2 0.0649329 7.3252 -1.37796 15.0588
79 2 0.14212 8.335 0.929218 11.6241
53 2 0.033565 6.39072 4.45975 13.7152
86 2 0.155487 8.6614 4.56608 13.3936
226 3 -0.861469 10.8144 4.51775 8.43745
124 1 -0.680137 7.60965 0.659557 10.7632
127 1 -0.646798 7.85839 4.73726 12.6162
158 3 -0.784788 5.20746 4.92436 11.1533
17 4 1.23418 5.92571 0.7124 11.6123
207 2 0.137836 11.551 1.11713 9.58273
208 2 0.180276 10.2512 -0.216658 10.231
209 2 0.187593 9.90083 0.855408 8.64651
210 2 0.0876221 9.17493 2.54368 9.51866
13 4 1.03327 6.17397 0.584085 16.6027
215 1 -0.681311 10.6468 0.379832 9.33849
249 2 0.0240186 6.78835 0.252998 9.03409
78 2 0.173496 7.78383 -0.424347 10.3925
233 4 1.18334 11.0988 -0.952522 14.0007
234 2 -0.0145101 9.8126 -0.435225 13.0307
235 3 -0.764045 11.2127 0.265887 15.2382
85 2 0.0613319 7.96152 3.90715 11.2618
265 2 0.141457 8.34712 1.57937 15.9666
248 2 0.0107821 6.77008 1.47607 15.2435
156 3 -0.770986 5.66816 2.33195 12.1596
216 1 -0.669273 13.5569 -0.447678 8.61667
236 3 -0.800254 12.4268 -0.994824 13.0416
217 1 -0.664595 8.18847 2.9121 8.4835
212 2 0.156456 7.28809 3.50304 8.85227
108 2 0.233479 5.86886 9.51264 7.92387
54 2 0.117336 5.1015 7.82376 0.926981
32 4 1.05678 5.86608 12.2459 2.20086
36 4 1.19803 7.46418 7.92305 2.10317
136 1 -0.666916 8.65535 6.63939 1.42854
110 2 0.172121 7.76029 9.04363 7.71253
96 2 0.246506 3.95494 11.8352 5.28707
97 2 0.172901 3.87839 9.9261 5.02228
98 2 0.251129 4.2332 10.7307 6.75997
102 2 0.197506 5.98935 10.1077 3.37039
103 2 0.162175 4.29337 10.9752 3.27033
104 2 0.19661 5.65225 11.5107 4.67155
259 2 0.206291 7.33116 11.293 4.20455
109 2 0.139839 6.4821 8.61171 6.33596
261 1 -0.643094 8.45731 11.4631 4.47032
114 2 0.201248 4.21503 7.21369 7.11943
178 3 -0.799618 4.12669 6.34831 4.74625
116 2 0.193458 3.7415 9.11454 6.78314
131 1 -0.671287 3.68104 10.8157 5.70874
133 1 -0.673458 5.41682 11.0732 3.61477
171 3 -0.803171 1.44125 11.9028 7.02509
137 1 -0.630522 3.57445 8.1175 7.44064
163 3 -0.827181 2.9169 12.537 0.781412
250 2 0.104554 4.47184 12.7902 1.32448
182 3 -0.814135 6.4571 7.14932 3.08217
183 3 -0.75316 8.51079 9.17367 2.77899
184 3 -0.812918 6.44739 8.62139 0.602257
185 3 -0.794285 6.49212 11.2868 1.10363
258 2 0.2194 8.75345 11.2578 5.50552
112 2 0.162632 9.66167 7.06968 1.89427
135 1 -0.663184 6.63249 8.78062 7.5129
162 3 -0.811291 3.07161 9.61766 0.617556
34 4 0.935233 6.6244 6.9907 7.97525
37 4 1.50372 6.88348 10.0326 0.00539576
29 4 1.40529 1.7627 10.7973 5.91849
12 4 1.42106 1.64887 13.2373 1.37082
23 4 1.29678 4.36897 6.16914 10.4434
26 4 1.45784 1.67022 9.0659 16.3292
263 2 0.153814 9.3653 6.01152 14.277
239 2 0.175746 9.04665 6.22156 16.1535
35 4 1.20759 9.12774 6.83619 10.0231
38 4 1.26074 4.34136 10.3712 9.92154
39 4 1.18911 7.86228 8.74641 11.9566
40 4 1.2354 6.4026 11.5998 11.6875
58 2 0.0333982 4.95439 8.74088 9.97797
59 2 -0.00545568 6.54273 7.727 11.6998
240 1 -0.685839 9.50723 6.6729 15.2153
88 2 0.132772 3.2137 8.05899 11.6516
89 2 0.146209 5.18877 8.67713 11.664
90 2 0.144997 4.73836 6.99988 12.5513
237 4 1.07972 8.62312 8.32796 15.0922
271 3 -0.788893 7.52129 8.3399 16.1782
128 1 -0.67631 4.53158 7.74674 11.613
176 3 -0.829461 1.62298 11.3734 12.563
245 3 -0.857395 2.61987 9.25154 15.0591
179 3 -0.744247 5.22422 6.67647 9.15295
269 2 0.128753 7.34303 11.819 8.93572
181 3 -0.798769 7.93425 6.76085 8.88815
186 3 -0.802664 4.80713 10.9373 8.48974
187 3 -0.837871 2.76418 10.3581 10.0999
188 3 -0.826034 8.90891 8.20761 10.8557
189 3 -0.814588 8.37373 8.52555 13.4684
190 3 -0.903101 5.08582 11.0341 11.1012
191 3 -0.819412 7.3319 10.2969 11.7452
241 4 1.2693 4.11982 9.4964 14.514
242 2 0.00442196 4.09058 9.21731 12.8785
243 3 -0.822186 5.08437 8.37849 15.1873
244 3 -0.81997 4.57194 11.0232 14.6753
87 2 0.141196 7.70814 5.81759 12.3805
115 2 0.205519 3.49986 8.29151 8.54594
31 4 1.33624 1.47371 10.3176 11.0205
16 4 1.23676 0.501196 11.7515 13.5319
57 2 -0.00385051 8.77326 5.47504 11.0822
92 2 0.137822 3.23689 5.32096 15.0693
ITEM: TIMESTEP
100
ITEM: NUMBER OF ATOMS
271
ITEM: BOX BOUNDS xy xz yz pp pp pp
-7.1750363999999989e+00 1.4748699999999999e+01 -6.1971999999999996e+00
-1.8606000000000000e+00 1.3431800000000001e+01 -9.7783639999999927e-01
0.0000000000000000e+00 1.6609600000000000e+01 -1.8606000000000000e+00
ITEM: ATOMS id type q x y z
3 4 1.20258 0.917293 1.3766 5.53957
4 4 1.11697 -0.0294054 3.78818 7.5275
214 1 -0.687497 4.77282 3.18878 6.25181
21 4 1.21751 2.91565 5.68104 4.91009
41 2 -0.0188451 2.6074 1.29555 5.19354
50 2 0.018803 3.62131 2.66992 1.65873
52 2 0.0150804 3.11553 4.10451 5.64089
254 2 0.0943692 -2.03031 4.4867 0.146497
69 2 0.128605 -2.07248 5.05379 6.90976
82 2 0.141894 -0.818486 5.9289 1.62526
227 4 1.00059 1.32156 1.85433 0.595263
231 3 -0.800692 -0.240316 2.11418 0.2865
83 2 0.16076 0.20264 4.29992 1.83704
84 2 0.157404 0.49129 5.52889 0.288705
120 1 -0.689698 -1.02466 5.42586 6.56551
126 1 -0.657576 0.135049 5.41124 1.40566
138 3 -0.845295 0.0700578 1.37136 4.16205
139 3 -0.779254 0.602407 0.0349383 6.38887
140 3 -0.792762 0.710621 2.71315 6.5049
229 2 0.0208035 1.86135 2.97245 1.8858
14 4 1.27614 6.34148 -0.680681 7.67588
155 3 -0.792929 1.96916 5.42146 3.58515
201 2 0.200452 5.25914 0.445136 3.52989
202 2 0.12209 3.57818 1.5896 3.84752
203 2 0.247553 3.80329 -0.0489026 4.85883
206 2 0.151393 3.7436 2.72533 6.51653
213 1 -0.668948 4.33214 0.844539 4.25571
218 3 -0.807198 6.01062 0.523115 6.60261
67 2 0.184209 -0.83591 5.44674 5.50954
193 4 1.12696 5.65712 1.61695 5.49265
230 3 -0.817268 1.90515 0.442597 0.939125
65 2 0.175114 -2.17375 3.1979 7.81762
268 2 0.25623 -0.464578 -0.239298 7.83495
18 4 0.976644 4.81877 3.99535 1.27497
125 1 -0.65509 2.75762 3.65857 0.359345
80 2 0.168195 1.80407 4.42485 0.73072
266 2 0.019041 4.03853 5.07534 0.100909
149 3 -0.76682 2.74548 -0.09972 8.24957
15 4 1.0589 3.40219 0.718035 9.59693
75 2 0.184256 4.29584 2.92069 9.31755
151 3 -0.793586 5.58422 -0.373467 12.8369
42 2 -0.0328901 -0.824743 4.41919 12.4184
48 2 -0.0173315 2.1392 1.29005 10.5436
71 2 0.132765 1.59024 -1.09067 11.4223
5 4 1.20941 -3.13473 5.6082 9.26817
66 2 0.1856 -1.27471 3.19446 9.54276
150 3 -0.840477 4.70761 0.473522 10.358
141 3 -0.85406 -2.32211 5.16628 10.5807
76 2 0.170835 2.72344 2.92294 10.4492
153 3 -0.789889 0.890437 4.43188 8.67304
81 2 0.145082 2.12993 1.94307 15.9523
270 2 0.143102 -0.743258 0.136023 9.64719
74 2 0.223571 2.45543 2.79986 8.55532
123 1 -0.655524 3.20331 2.59478 9.43167
228 2 0.0330393 1.14219 0.565447 15.6686
119 1 -0.651991 -1.26339 2.76317 8.51029
64 2 0.193039 -1.19791 1.5617 8.41876
167 3 -0.806055 -1.03884 11.7146 7.93805
2 4 1.20364 -4.15492 12.4195 6.99211
8 4 0.957022 -2.24965 8.63318 7.00466
9 4 1.40428 -2.522 10.5705 4.78477
253 2 0.159133 -1.65968 12.0552 0.993137
260 2 0.230769 -5.78584 12.5069 4.07889
166 3 -0.746604 -1.29646 8.91938 8.23421
25 4 1.35764 0.0489868 11.2296 3.16179
27 4 1.34596 1.89754 7.60953 7.00608
165 3 -0.857249 2.07879 6.37126 5.99323
44 2 -0.0203463 -2.26452 6.98476 6.56176
45 2 -0.0104115 -3.825 9.03789 7.46703
51 2 -0.00645398 0.254031 7.6292 3.09644
1 4 1.07314 -3.78645 12.5489 1.61742
63 2 0.159055 -5.87105 11.3063 8.04787
170 3 -0.779272 1.39682 9.17719 6.47296
93 2 0.153016 -0.590401 8.94167 2.5652
94 2 0.199438 1.28701 9.04489 2.81315
95 2 0.214271 0.520137 9.68374 1.20421
117 1 -0.667834 -2.55936 11.946 0.177515
118 1 -0.698055 -4.90255 10.8119 7.64676
130 1 -0.666951 0.384196 9.49693 2.34692
142 3 -0.756628 -4.79163 11.4471 1.95343
143 3 -0.821854 -3.82236 9.79344 4.04798
144 3 -0.789787 -1.7698 9.46961 5.6961
145 3 -0.805738 -3.17658 11.9771 5.75239
159 3 -0.767173 2.36704 7.09389 1.47683
160 3 -0.87855 0.421406 12.3221 2.00744
161 3 -0.839255 -1.45352 11.3001 3.6969
68 2 0.208905 -0.464748 6.20566 7.12708
62 2 0.155923 -5.2488 9.97568 7.03122
169 3 -0.814822 1.02347 11.0583 4.54223
29 4 1.41134 1.57979 10.7094 5.99679
24 4 1.01414 3.48994 8.16469 0.591078
43 2 -0.000758543 -1.89135 6.1914 8.22954
19 4 1.01126 1.32179 6.45627 2.46922
246 2 0.0198372 -2.78603 13.0517 2.94994
238 2 0.0321773 -5.0327 9.90471 15.5487
252 2 0.160935 -3.69814 10.9222 16.0027
10 4 1.27128 -2.61082 7.76723 13.2037
11 4 1.15995 -3.40237 10.1096 11.277
154 3 -0.806097 0.198053 6.17997 10.6604
28 4 1.48638 -1.06335 10.4538 9.0342
30 4 1.31098 -1.04374 9.60754 15.042
262 2 0.13084 -4.06316 6.98873 15.6488
46 2 -0.0172552 -3.86129 6.73857 13.7735
47 2 0.0703585 -5.11441 10.5213 10.9973
129 1 -0.657098 2.21287 5.92877 15.3884
101 2 0.183266 1.78817 8.45369 12.9255
6 4 1.22987 -1.11557 5.68806 11.5037
20 4 1.47381 1.28488 5.97108 9.48903
164 3 -0.797298 1.19327 7.19342 8.41426
267 2 0.196219 2.35279 6.84095 14.7078
99 2 0.224821 1.87674 7.7898 11.178
100 2 0.268738 0.257611 8.30865 11.9725
55 2 0.0241606 -1.86957 10.7982 16.049
175 3 -0.81976 0.2674 10.4515 10.0962
132 1 -0.693942 1.36896 8.48326 11.8942
72 2 0.196605 -2.92902 11.9876 12.5091
146 3 -0.826973 -1.50165 6.80888 12.5885
147 3 -0.809977 -3.22548 8.85759 12.1935
121 1 -0.685109 -4.02012 11.6509 12.1932
180 3 -0.80225 -4.14265 6.87231 9.55198
157 3 -0.841705 2.81995 5.97749 10.0857
168 3 -0.817787 -2.44513 10.4123 10.0638
172 3 -0.831154 -2.07921 8.58982 14.4721
173 3 -0.871248 0.153286 8.9802 15.8363
174 3 -0.828939 -0.536287 10.407 13.7505
70 2 0.18035 -4.71767 11.2198 12.972
16 4 1.20016 0.330174 11.721 13.4264
92 2 0.125428 3.10706 5.1593 15.3271
91 2 0.18186 1.23869 5.45972 15.249
60 2 0.156512 -3.72622 9.03783 16.3735
61 2 0.181981 -4.21355 10.5573 8.53474
205 2 0.150356 5.35778 3.38884 7.25187
13 4 1.0517 7.31309 2.40758 0.0771452
256 2 0.168225 10.8804 3.58659 0.899549
73 2 0.123838 9.10787 2.8456 1.34521
105 2 0.18456 7.14948 4.36604 4.33275
257 1 -0.646295 12.0432 3.62285 1.21266
224 3 -0.769803 11.3681 -0.219526 6.53974
111 2 0.159917 8.71998 5.8592 2.14233
33 4 1.27259 5.64978 6.0947 3.69776
106 2 0.158008 6.19824 4.77466 5.8653
222 3 -0.844247 12.2773 1.57186 4.89918
152 3 -0.80796 6.05474 3.19328 0.639573
177 3 -0.801622 5.26359 4.98616 2.47091
192 4 1.2871 13.3216 1.28907 3.69903
223 3 -0.828667 9.60887 0.912244 4.67637
194 4 1.25209 8.4744 1.6714 3.8927
196 4 1.48757 10.9666 1.15436 5.66292
197 4 0.97248 9.8378 3.37097 7.77063
113 2 0.177021 8.09382 6.20927 0.427381
199 2 -0.0457188 9.08603 3.14903 3.52015
200 2 0.039491 8.14969 3.97153 7.16534
107 2 0.154633 7.58233 5.98353 5.26118
255 2 0.159648 12.2299 4.10881 2.1621
225 3 -0.825051 10.5159 2.34878 6.66582
247 2 0.0185413 11.9472 1.71723 1.30411
264 2 0.175571 8.92055 4.57828 0.381165
219 3 -0.824608 12.96 0.0597157 2.81035
220 3 -0.852895 8.11176 0.935788 2.49888
221 3 -0.787534 7.05695 2.01765 4.61882
134 1 -0.668564 6.78831 5.23189 4.9879
195 4 1.04731 11.6297 -0.607417 8.13042
122 1 -0.675714 8.99425 3.44243 0.223061
198 2 0.00240557 12.9685 2.58344 2.57227
204 2 0.14545 4.87196 4.09992 5.57048
22 4 0.988902 6.23298 3.86963 11.9318
148 3 -0.828486 6.31695 -1.01491 16.4377
251 2 0.00713093 13.3682 -0.690323 10.6511
77 2 0.163234 7.74098 1.40239 10.0719
49 2 0.0585191 7.07281 -1.2711 14.9683
79 2 0.17181 8.30466 0.776579 11.7126
53 2 0.0393296 6.19847 4.60853 13.5969
86 2 0.160964 8.51916 4.43768 13.5432
226 3 -0.839528 10.7441 4.4907 8.5307
124 1 -0.659207 7.60901 0.570246 10.8906
127 1 -0.643026 7.81216 4.78569 12.7655
158 3 -0.800955 5.26826 4.89777 11.1582
17 4 1.31478 5.79731 0.672549 11.571
207 2 0.14737 11.2378 1.33022 9.30997
208 2 0.199304 10.3269 -0.0565969 10.238
209 2 0.165229 9.50041 0.544325 8.63872
210 2 0.114801 8.86971 2.31634 9.02898
212 2 0.166399 7.90566 3.94018 9.38065
215 1 -0.675401 10.536 0.396031 9.23488
249 2 0.00277041 6.8996 0.0594395 9.11007
78 2 0.195775 7.77805 -0.457158 10.5108
233 4 1.24692 11.0131 -0.953913 14.067
234 2 -0.0029137 9.67473 -0.53142 13.0885
235 3 -0.815672 11.1553 0.12221 15.1991
85 2 0.0530625 8.03096 4.0727 11.2299
265 2 0.155405 8.79314 1.21414 16.0972
248 2 0.0189017 6.90863 1.30064 15.2201
156 3 -0.791118 6.04734 2.18495 11.9588
216 1 -0.678387 13.6138 -0.456502 8.77361
236 3 -0.791115 12.3624 -1.03244 13.0903
217 1 -0.676307 7.98887 3.05022 8.72405
232 4 1.02442 11.9543 0.547286 16.5824
211 2 0.165145 7.02629 2.49428 8.5807
108 2 0.221753 5.97536 9.48865 8.01389
54 2 0.0934301 5.09754 8.03696 1.15515
32 4 1.06875 5.91002 12.2309 2.01543
36 4 1.24396 7.61381 8.01287 2.06609
136 1 -0.668269 8.64148 6.60226 1.31317
110 2 0.172384 7.68737 9.04185 7.54961
96 2 0.244097 3.46897 11.957 5.27461
97 2 0.15979 3.84903 10.0585 5.13023
98 2 0.282592 4.05265 11.0119 6.91924
102 2 0.20149 5.92764 10.2561 3.71484
103 2 0.153079 4.21558 11.2257 3.21722
104 2 0.222188 5.55889 11.9792 4.41975
259 2 0.220098 7.37882 11.4187 4.11556
109 2 0.167203 6.26655 8.40226 6.44848
261 1 -0.653125 8.52077 11.4986 4.39
114 2 0.204391 4.3958 7.27534 6.90129
178 3 -0.812656 4.35785 6.45609 4.62018
116 2 0.190177 3.87233 9.22078 6.78892
131 1 -0.630897 3.5521 10.9786 5.83869
133 1 -0.671132 5.43419 11.2603 3.57187
171 3 -0.796978 1.43101 11.8021 7.14858
137 1 -0.649346 3.76646 8.1054 7.28885
163 3 -0.848602 2.94781 12.446 0.999344
250 2 0.0987609 4.47599 12.8539 1.29379
182 3 -0.780582 6.52871 7.36266 3.27747
183 3 -0.790733 8.55891 9.10785 2.80403
184 3 -0.763211 6.66894 8.40931 0.61351
185 3 -0.822447 6.53942 11.2276 0.971333
258 2 0.185945 8.77335 11.2622 5.50537
112 2 0.156578 9.67744 6.98496 0.966963
135 1 -0.6768 6.61745 8.74388 7.48636
162 3 -0.804386 3.09869 9.67211 0.71642
34 4 1.01254 6.66798 6.94324 8.23324
7 4 1.25814 9.52516 10.3048 3.33284
56 2 -0.00970743 6.46547 6.21639 6.70859
12 4 1.43618 1.62647 13.218 1.44176
23 4 1.29502 4.37942 6.11103 10.3595
26 4 1.43098 1.64121 9.14235 16.4031
263 2 0.15627 9.53334 6.0749 14.4239
239 2 0.176918 8.86324 6.37827 16.1527
35 4 1.21408 9.09871 6.94277 10.1055
38 4 1.27578 4.32368 10.4713 9.90083
39 4 1.18049 7.69552 8.78018 11.9822
40 4 1.22026 6.33634 11.5363 11.7354
58 2 0.0126273 5.01201 8.90764 9.95545
59 2 -0.0124036 6.47793 7.5624 11.792
240 1 -0.680567 9.57241 6.76742 15.2803
88 2 0.146012 3.29409 8.11287 11.639
89 2 0.116741 5.2088 8.7865 11.7557
90 2 0.127953 4.87316 6.8871 12.3867
237 4 1.09691 8.76477 8.42796 15.0161
271 3 -0.789269 7.50643 8.39716 15.9917
128 1 -0.650247 4.55348 7.85659 11.5406
176 3 -0.815791 1.50508 11.5145 12.393
245 3 -0.853064 2.67922 9.31068 15.1377
179 3 -0.807642 5.3302 6.56036 9.18515
269 2 0.142183 7.32617 11.8137 9.02301
181 3 -0.840405 8.02084 6.73637 8.93777
186 3 -0.808923 4.86219 11.0341 8.50652
187 3 -0.827921 2.79189 10.2536 10.1995
188 3 -0.821673 8.79587 8.3315 10.88
189 3 -0.803096 8.2961 8.62196 13.528
190 3 -0.890829 4.90557 11.3205 11.0278
191 3 -0.856849 7.31383 10.3125 11.6628
241 4 1.26706 4.13736 9.49457 14.5333
242 2 -0.00631042 3.90612 9.17969 12.8441
243 3 -0.838221 5.17558 8.40659 15.1331
244 3 -0.839182 4.5551 11.0514 14.6619
87 2 0.143952 7.85822 5.89957 12.7134
115 2 0.192966 3.88756 8.21494 8.3919
31 4 1.33794 1.44431 10.2192 11.085
37 4 1.51336 5.99595 8.26805 16.4843
57 2 -0.016037 8.76191 5.65571 11.3139
ITEM: TIMESTEP
200
ITEM: NUMBER OF ATOMS
271
ITEM: BOX BOUNDS xy xz yz pp pp pp
-7.1481728000000002e+00 1.4748699999999999e+01 -6.1971999999999996e+00
-1.8606000000000000e+00 1.3431800000000001e+01 -9.5097280000000062e-01
0.0000000000000000e+00 1.6609600000000000e+01 -1.8606000000000000e+00
ITEM: ATOMS id type q x y z
3 4 1.2201 0.895288 1.42805 5.50801
4 4 1.13941 0.00618349 3.81656 7.52773
214 1 -0.653322 4.95523 3.09618 5.95924
21 4 1.21874 2.96805 5.69741 4.90032
41 2 -0.0167497 2.5205 1.3149 4.90411
50 2 0.0121123 3.56825 3.06507 2.02155
52 2 -0.00586717 3.29151 4.04412 5.43526
254 2 0.117487 -1.89381 4.43097 0.497752
69 2 0.1368 -2.05424 5.24845 6.45271
82 2 0.13885 -0.526364 6.18745 1.27771
227 4 0.967057 1.36393 1.87039 0.62162
231 3 -0.796527 -0.18789 2.09851 0.324216
83 2 0.167155 0.253445 4.50119 1.77742
84 2 0.145019 0.856737 5.41442 0.107331
120 1 -0.680122 -0.944115 5.43699 6.56899
126 1 -0.662509 0.364935 5.49346 1.21496
138 3 -0.853545 -0.041333 1.56033 4.23357
139 3 -0.79532 0.605929 0.125056 6.36869
140 3 -0.791989 0.653141 2.77902 6.4455
229 2 0.0234688 1.80104 3.07208 1.86137
14 4 1.33037 6.20085 -0.751649 7.73703
155 3 -0.787171 1.99382 5.47178 3.5716
201 2 0.175755 5.18298 0.153907 3.62356
202 2 0.124792 3.78249 1.51245 3.61465
203 2 0.239943 3.503 -0.142583 4.83328
206 2 0.128411 3.89142 2.5323 6.06159
213 1 -0.669775 4.2476 0.694392 4.26395
218 3 -0.855326 5.7629 0.319477 6.68101
67 2 0.198003 -0.382967 5.46231 5.6039
193 4 1.16051 5.73579 1.31182 5.46797
230 3 -0.816253 1.8994 0.416282 1.11582
198 2 0.0173524 -1.44449 2.7296 2.5737
268 2 0.272513 -0.566258 -0.122821 7.6333
18 4 0.974752 4.91748 4.0353 1.2997
125 1 -0.661284 2.91817 3.7081 0.415265
80 2 0.170458 1.97649 4.39981 0.589929
204 2 0.156594 4.97132 3.89947 5.14485
149 3 -0.795415 2.6857 -0.0789878 8.29349
65 2 0.18666 -2.23748 3.14856 8.29898
15 4 1.08972 3.32332 0.71857 9.5155
75 2 0.157299 4.16539 2.77733 8.97365
151 3 -0.78916 5.62504 -0.276613 12.8178
42 2 -0.0354121 -0.468497 4.56098 12.5753
48 2 -0.00903938 2.19959 1.33464 10.6189
71 2 0.142913 1.37079 -1.12382 11.7341
5 4 1.1686 -3.11288 5.60023 9.42165
66 2 0.173731 -0.83259 3.15346 9.6046
150 3 -0.814052 4.63564 0.403095 10.3239
141 3 -0.816282 -2.45008 5.05266 10.7965
76 2 0.213488 2.68992 3.11624 10.1093
153 3 -0.803436 1.01771 4.46357 8.57232
81 2 0.137259 2.33688 1.79064 15.9623
72 2 0.191503 3.01347 -1.22803 12.5299
74 2 0.228606 2.33787 2.61749 8.32949
123 1 -0.671298 3.0266 2.55269 9.22759
228 2 0.0155357 1.46638 0.431095 15.8977
119 1 -0.663569 -1.15944 2.80902 8.56563
64 2 0.175097 -1.21961 1.577 8.52282
91 2 0.155678 1.69645 4.86324 15.4213
266 2 0.0308886 3.17659 3.18872 16.557
167 3 -0.840411 -1.01867 11.6536 8.27724
2 4 1.2226 -4.11977 12.4698 6.9849
8 4 0.991578 -2.29918 8.64709 6.96553
9 4 1.45734 -2.61527 10.4843 4.7007
253 2 0.162777 -1.60785 11.915 0.871048
260 2 0.21703 -6.05605 12.0512 4.60494
166 3 -0.754547 -1.32802 8.87149 8.18458
25 4 1.33288 0.04647 11.1585 3.12104
27 4 1.35313 1.89081 7.71938 7.02533
165 3 -0.826014 2.12483 6.5491 5.87978
44 2 -0.0131964 -2.16295 7.00542 6.63253
45 2 -0.0139227 -3.9248 8.89997 7.39778
51 2 0.0183529 0.641897 7.75108 3.14757
1 4 1.07805 -3.67088 12.5241 1.62236
63 2 0.150475 -5.80906 11.2076 7.95984
170 3 -0.752864 1.39952 9.13029 6.3618
93 2 0.16812 -0.521775 8.76523 2.6685
94 2 0.208625 1.40745 9.24382 2.45462
95 2 0.201527 0.0857375 9.65119 1.18918
117 1 -0.675923 -2.5704 11.7616 0.200535
118 1 -0.666675 -4.73399 10.823 7.65228
130 1 -0.677575 0.282628 9.47757 2.25078
142 3 -0.799015 -4.65563 11.3125 2.02197
143 3 -0.849397 -3.81177 9.9037 3.87251
144 3 -0.825706 -1.94226 9.40863 5.65393
145 3 -0.827007 -3.29689 11.9742 5.71204
159 3 -0.828507 2.57535 7.27297 1.56636
160 3 -0.842712 0.319326 12.4688 2.01091
161 3 -0.827726 -1.48945 11.0018 3.59888
68 2 0.200338 -0.627012 6.21595 7.35315
62 2 0.138466 -4.72806 10.233 6.56938
169 3 -0.806168 1.03852 11.1413 4.42245
29 4 1.34419 1.68499 10.8337 5.91161
246 2 0.0255056 -2.47839 12.9263 2.81232
19 4 1.04154 1.49828 6.5032 2.39002
24 4 1.10336 3.44967 8.20995 0.647844
43 2 0.0013401 -1.80974 5.92276 8.23746
238 2 0.0118929 -4.88869 9.75826 15.3032
252 2 0.13908 -3.62016 10.7 15.9744
10 4 1.27051 -2.57547 7.79932 13.1881
11 4 1.15449 -3.51234 10.1981 11.3018
154 3 -0.821859 0.138863 5.97543 10.5073
28 4 1.5412 -1.14157 10.3433 9.20829
30 4 1.27626 -1.06107 9.58212 15.0221
262 2 0.155479 -4.06384 6.88685 15.2359
46 2 -0.00980359 -3.92425 6.79957 13.5116
47 2 0.0628552 -5.22448 10.5272 11.1935
129 1 -0.661298 2.45287 5.74157 15.4542
101 2 0.194273 1.37659 8.80829 12.9752
6 4 1.18662 -1.08864 5.70385 11.5432
20 4 1.46007 1.34956 5.8705 9.45349
164 3 -0.797789 1.24884 7.14667 8.42806
267 2 0.18468 2.1142 6.6691 14.7554
99 2 0.19399 1.82238 7.59402 11.5937
100 2 0.285857 0.218722 8.34222 11.5323
55 2 0.0107174 -1.90734 10.7008 16.0258
175 3 -0.859862 0.106979 10.2322 10.2151
132 1 -0.663881 1.26855 8.52202 11.8113
61 2 0.202304 -4.13892 10.3757 8.5141
146 3 -0.823931 -1.49976 7.03025 12.3651
147 3 -0.791867 -3.19095 8.90122 12.2278
121 1 -0.691535 -4.14972 11.6551 12.3387
180 3 -0.778572 -4.04537 7.02481 9.59337
157 3 -0.808958 2.96241 5.80364 10.1423
168 3 -0.825582 -2.60067 10.4677 10.0727
172 3 -0.832429 -2.05177 8.35231 14.6324
173 3 -0.876689 0.120718 9.12661 15.939
174 3 -0.836018 -0.64924 10.5183 13.74
70 2 0.164949 -4.60529 11.2144 13.3626
16 4 1.23877 0.225451 11.775 13.3754
60 2 0.18503 -3.66214 8.8183 16.5524
205 2 0.156184 5.3522 3.44558 6.94224
13 4 1.0641 7.40892 2.50165 0.00251658
256 2 0.178213 11.0042 3.53971 0.905612
73 2 0.128294 9.21636 2.67099 1.3156
105 2 0.168207 7.37881 4.52237 4.10267
257 1 -0.656762 12.0454 3.55345 1.30658
224 3 -0.767978 11.4298 -0.22811 6.51766
111 2 0.169143 8.11231 5.56271 2.12133
33 4 1.28366 5.67245 6.15202 3.72733
106 2 0.166514 6.58143 4.69762 5.82249
222 3 -0.855001 12.0018 1.60601 4.54704
152 3 -0.818749 6.16312 3.20373 0.640912
177 3 -0.791894 5.34128 5.08325 2.44648
192 4 1.29007 13.2921 1.34946 3.62176
223 3 -0.80001 9.50162 0.829299 4.8322
194 4 1.2946 8.50306 1.65493 3.95171
196 4 1.45291 10.9292 1.14841 5.65408
197 4 0.959772 9.82057 3.29262 7.99557
113 2 0.16953 8.44516 6.31796 0.45507
199 2 -0.0431929 9.13039 3.2008 3.68061
200 2 0.0407045 8.3491 4.1591 7.35247
12 4 1.42698 7.81335 -0.0485811 1.45641
255 2 0.147276 12.0398 3.88749 2.41896
225 3 -0.803672 10.364 2.21373 6.84907
247 2 0.0124089 11.8928 1.62855 1.28565
264 2 0.169836 8.95577 4.56446 0.654598
219 3 -0.843504 12.9763 0.0710766 2.69939
220 3 -0.875074 8.26351 1.02755 2.58224
221 3 -0.797542 7.10041 1.88433 4.77509
134 1 -0.665398 6.98455 5.25353 4.89471
195 4 1.04658 11.5679 -0.598812 8.10322
122 1 -0.662216 9.09722 3.45052 0.210756
232 4 1.02045 12.9589 2.29399 0.0561584
136 1 -0.669372 8.64521 6.40718 1.5325
211 2 0.162684 7.20257 2.11919 8.23078
22 4 0.982048 6.19725 3.94125 11.8608
148 3 -0.844598 6.57552 -0.878746 16.4207
251 2 -0.0249425 13.3961 -0.935174 10.5165
77 2 0.151328 7.72581 1.42417 10.0494
49 2 0.0696681 7.09576 -1.18132 14.8576
79 2 0.171533 8.23663 0.483711 11.7373
53 2 0.0647236 6.59456 4.38908 13.6817
86 2 0.159757 8.77851 4.49826 13.2108
226 3 -0.829063 10.7679 4.46048 8.68636
124 1 -0.671207 7.5684 0.474682 10.8461
127 1 -0.649342 7.85519 4.83608 12.6986
158 3 -0.800929 5.13489 5.0422 11.2886
17 4 1.27289 5.79237 0.779232 11.4998
207 2 0.131272 11.2859 1.20284 9.57616
208 2 0.209571 10.1006 -0.297057 10.0865
209 2 0.184355 9.59774 0.927296 8.63602
210 2 0.098731 8.78505 2.48316 9.36779
212 2 0.156428 7.31974 3.81932 9.17626
215 1 -0.667213 10.4571 0.410468 9.20849
249 2 8.26765e-05 6.88385 0.157625 9.00759
78 2 0.172664 7.53106 -0.534183 10.375
233 4 1.26578 11.1262 -0.986232 14.1827
234 2 -0.00284977 9.76553 -0.453489 13.3264
235 3 -0.8239 11.3069 0.147761 15.2112
85 2 0.0396071 7.92343 3.99197 11.1147
265 2 0.160847 9.02907 1.43352 16.1173
248 2 0.0239151 7.15985 1.42855 15.2241
156 3 -0.797511 5.88335 2.31193 11.9592
216 1 -0.674403 13.4862 -0.411755 8.58358
236 3 -0.780672 12.3205 -0.973535 13.0942
217 1 -0.664515 7.85919 2.94977 8.68201
270 2 0.130618 13.5337 0.343904 9.4458