LAMMPS (2 Aug 2023 - Update 2)
  using 2 OpenMP thread(s) per MPI task
Reading data file ...
  triclinic box = (0 0 0) to (15.0372 13.535 17.6074) with tilt (-7.4931 -0.1585 0.0807)
WARNING: Triclinic box skew is large. LAMMPS will run inefficiently. (src/domain.cpp:220)
  1 by 2 by 2 MPI processor grid
  reading atoms ...
  366 atoms
Finding 1-2 1-3 1-4 neighbors ...
  special bond factors lj:    0        0        0       
  special bond factors coul:  0        0        0       
     0 = max # of 1-2 neighbors
     0 = max # of 1-3 neighbors
     0 = max # of 1-4 neighbors
     1 = max # of special neighbors
  special bonds CPU = 0.000 seconds
  read_data CPU = 0.007 seconds
WARNING: Van der Waals parameters for element SI indicate inner wall+shielding, but earlier atoms indicate a different van der Waals method. This may cause division-by-zero errors. Keeping van der Waals setting for earlier atoms. (src/REAXFF/reaxff_ffield.cpp:251)
*****Minimization starts.*****

CITE-CITE-CITE-CITE-CITE-CITE-CITE-CITE-CITE-CITE-CITE-CITE-CITE

Your simulation uses code contributions which should be cited:
- pair reaxff command: doi:10.1016/j.parco.2011.08.005
- fix qeq/reaxff command: doi:10.1016/j.parco.2011.08.005
The log file lists these citations in BibTeX format.

CITE-CITE-CITE-CITE-CITE-CITE-CITE-CITE-CITE-CITE-CITE-CITE-CITE

Switching to 'neigh_modify every 1 delay 0 check yes' setting during minimization
WARNING: Fix qeq/reaxff group is not charge neutral, net charge = -29.52 (src/REAXFF/fix_qeq_reaxff.cpp:392)
Neighbor list info ...
  update: every = 1 steps, delay = 0 steps, check = yes
  max neighbors/atom: 2000, page size: 100000
  master list distance cutoff = 12
  ghost atom cutoff = 12
  binsize = 6, bins = 4 3 3
  2 neighbor lists, perpetual/occasional/extra = 2 0 0
  (1) pair reaxff, perpetual
      attributes: half, newton off, ghost
      pair build: half/bin/newtoff/ghost
      stencil: full/ghost/bin/3d
      bin: standard
  (2) fix qeq/reaxff, perpetual, copy from (1)
      attributes: half, newton off
      pair build: copy
      stencil: none
      bin: none
Setting up cg style minimization ...
  Unit style    : real
  Current step  : 0
Per MPI rank memory allocation (min/avg/max) = 168.7 | 172.5 | 176.8 Mbytes
   Step          Temp          Press         Density         Volume         PotEng         TotEng    
         0   0              20658.275      1.9939932      3583.6077     -40625.304     -40625.304    
        71   0              343.42994      1.9939932      3583.6077     -41442.302     -41442.302    
Loop time of 35.8106 on 8 procs for 71 steps with 366 atoms

86.7% CPU use with 4 MPI tasks x 2 OpenMP threads

Minimization stats:
  Stopping criterion = energy tolerance
  Energy initial, next-to-last, final = 
     -40625.3037376214  -41442.2935374118  -41442.3024451925
  Force two-norm initial, final = 1618.1726 170.20934
  Force max component initial, final = 407.82727 61.787347
  Final line search alpha, max atom move = 0.0011950105 0.07383653
  Iterations, force evaluations = 71 345

MPI task timing breakdown:
Section |  min time  |  avg time  |  max time  |%varavg| %total
---------------------------------------------------------------
Pair    | 17.713     | 20.643     | 24.138     |  50.4 | 57.64
Bond    | 0.00091158 | 0.00092865 | 0.00094746 |   0.0 |  0.00
Neigh   | 0          | 0          | 0          |   0.0 |  0.00
Comm    | 3.714      | 7.151      | 10.006     |  83.9 | 19.97
Output  | 0.043079   | 0.075673   | 0.099449   |   7.5 |  0.21
Modify  | 7.4524     | 7.461      | 7.4697     |   0.3 | 20.83
Other   |            | 0.4791     |            |       |  1.34

Nlocal:           91.5 ave         104 max          74 min
Histogram: 1 0 0 0 1 0 0 0 1 1
Nghost:        4342.25 ave        4462 max        4225 min
Histogram: 1 0 1 0 0 0 1 0 0 1
Neighs:          63745 ave       71948 max       52251 min
Histogram: 1 0 0 0 1 0 0 0 1 1

Total # of neighbors = 254980
Ave neighs/atom = 696.66667
Ave special neighs/atom = 0
Neighbor list builds = 0
Dangerous builds = 0
System init for write_data ...
##### Equilibration starts.##### 
WARNING: Compute rdf cutoff less than neighbor cutoff - forcing a needless neighbor list build (src/compute_rdf.cpp:179)
Neighbor list info ...
  update: every = 10 steps, delay = 0 steps, check = yes
  max neighbors/atom: 2000, page size: 100000
  master list distance cutoff = 12
  ghost atom cutoff = 12
  binsize = 6, bins = 4 3 3
  3 neighbor lists, perpetual/occasional/extra = 2 1 0
  (1) pair reaxff, perpetual
      attributes: half, newton off, ghost
      pair build: half/bin/newtoff/ghost
      stencil: full/ghost/bin/3d
      bin: standard
  (2) compute rdf, occasional
      attributes: half, newton on, cut 7
      pair build: half/bin/newton/tri
      stencil: half/bin/3d/tri
      bin: standard
  (3) fix qeq/reaxff, perpetual, copy from (1)
      attributes: half, newton off
      pair build: copy
      stencil: none
      bin: none
Setting up Verlet run ...
  Unit style    : real
  Current step  : 0
  Time step     : 0.5
Per MPI rank memory allocation (min/avg/max) = 173.9 | 177.8 | 182 Mbytes
   Step          Temp          Press          PotEng         TotEng    
         0   300            4504.9603     -41442.303     -41115.905    
       100   197.16952      12279.223     -41291.594     -41077.075    
       200   226.91307      1716.7986     -41261.011     -41014.131    
       300   263.2886       16396.049     -41230.417     -40943.96     
       400   292.19854      5001.3971     -41195.527     -40877.616    
       500   294.65454      4886.9818     -41160.775     -40840.193    
       600   328.50312      4873.7258     -41179.974     -40822.564    
       700   306.09652      6903.4854     -41174.232     -40841.201    
       800   289.42277      7340.4094     -41173.573     -40858.682    
       900   285.59892      20492.023     -41184.555     -40873.824    
      1000   289.65368      13893.202     -41196.288     -40881.146    
      1100   300.379        4042.2081     -41200.101     -40873.29     
      1200   289.52641     -4010.2299     -41169.864     -40854.86     
      1300   315.95097     -2522.834      -41176.272     -40832.519    
      1400   310.15988      8690.3796     -41164.077     -40826.624    
      1500   296.59821      14022.105     -41174.095     -40851.397    
      1600   285.41371     -582.28934     -41185.841     -40875.313    
      1700   294.7333       9775.525      -41195.462     -40874.794    
      1800   293.59482      7514.9028     -41173.707     -40854.277    
      1900   324.06623      8313.9079     -41186.69      -40834.107    
      2000   322.36368      8251.5728     -41182.835     -40832.105    
      2100   295.33806      8493.6238     -41190.588     -40869.261    
      2200   287.65146      18625.761     -41195.347     -40882.383    
      2300   284.54897      19407.284     -41180.554     -40870.966    
      2400   307.40901      2603.4453     -41178.119     -40843.659    
      2500   313.18899     -1593.4481     -41175.813     -40835.064    
      2600   307.22421      17593.782     -41179.824     -40845.565    
      2700   315.04417      1900.2504     -41194.867     -40852.1      
      2800   298.01631      16250.25      -41182.671     -40858.431    
      2900   305.48082      11743.164     -41189.767     -40857.405    
      3000   305.75643      10123.038     -41204.765     -40872.103    
      3100   294.16082      10004.711     -41223.021     -40902.976    
      3200   289.51673      9703.8175     -41210.37      -40895.377    
      3300   284.14052      9489.3888     -41177.848     -40868.704    
      3400   301.93421      12634.605     -41183.74      -40855.237    
      3500   304.59581      14854.505     -41186.725     -40855.326    
      3600   300.42996      14151.432     -41188.478     -40861.611    
      3700   276.84532      8639.9731     -41191.134     -40889.927    
      3800   278.66463      14943.889     -41197.509     -40894.323    
      3900   292.87704      22740.242     -41176.653     -40858.004    
      4000   304.02747      11809.684     -41175.226     -40844.445    
      4100   315.63449      12736.934     -41195.518     -40852.109    
      4200   305.2648       15858.878     -41210.287     -40878.16     
      4300   283.59187      20536.414     -41200.599     -40892.052    
      4400   292.52688      7909.5761     -41198.274     -40880.006    
      4500   311.80687      8445.944      -41194.306     -40855.061    
      4600   289.04678      4224.7414     -41168.11      -40853.628    
      4700   308.62882      6549.5511     -41195.426     -40859.639    
      4800   267.89897      3762.1181     -41164.116     -40872.644    
      4900   297.49491      7808.9097     -41182.853     -40859.18     
      5000   324.74603     -2133.2169     -41188.093     -40834.771    
      5100   305.28095      7800.0401     -41181.071     -40848.927    
      5200   287.68108      7818.5973     -41194.556     -40881.56     
      5300   290.21657      8251.8991     -41194.031     -40878.276    
      5400   299.81859      4530.3321     -41190.444     -40864.243    
      5500   297.75812      18698.256     -41165.618     -40841.659    
      5600   319.181        8950.5267     -41189.017     -40841.75     
      5700   317.56112      14761.248     -41193.923     -40848.418    
      5800   303.25065      11945.308     -41184.736     -40854.8      
      5900   288.60356      4688.8861     -41174.097     -40860.097    
      6000   284.25678      5159.5898     -41170.648     -40861.377    
      6100   292.02139      7537.833      -41192.14      -40874.422    
      6200   285.29214      201.13509     -41198.047     -40887.651    
      6300   282.65795      16901.768     -41190.351     -40882.82     
      6400   317.56884      12449.975     -41195.025     -40849.511    
      6500   294.86007      12740.399     -41164.06      -40843.254    
      6600   312.10074      16385.141     -41186.028     -40846.464    
      6700   292.19164      1180.2303     -41186.436     -40868.533    
      6800   278.43614      16882.316     -41206.137     -40903.2      
      6900   279.19404      2140.3196     -41203.69      -40899.928    
      7000   304.00351      16040.664     -41210.074     -40879.32     
      7100   292.55728      13618.985     -41188.138     -40869.837    
      7200   294.48113      17430.511     -41178.257     -40857.862    
      7300   297.7711       3478.6584     -41165.26      -40841.286    
      7400   325.01947      27229.463     -41180.226     -40826.606    
      7500   320.11929      4302.5764     -41194.36      -40846.071    
      7600   291.89252      25361.23      -41194.721     -40877.143    
      7700   297.87851      4171.1343     -41208.7       -40884.61     
      7800   273.46611     -5758.1131     -41168.839     -40871.309    
      7900   318.93312      6944.3272     -41185.388     -40838.39     
      8000   302.02457      9544.8855     -41171.107     -40842.505    
      8100   295.8099       866.50842     -41175.816     -40853.976    
      8200   298.81403      2298.3693     -41200.281     -40875.173    
      8300   288.09363      7587.6491     -41189.872     -40876.428    
      8400   298.17075      14462.449     -41188.895     -40864.487    
      8500   302.35221      20189.342     -41193.136     -40864.178    
      8600   295.91932      24138.844     -41190.209     -40868.25     
      8700   297.14517      931.46068     -41172.742     -40849.45     
      8800   293.23462      22815.004     -41144.149     -40825.111    
      8900   315.02421      4643.2239     -41178.413     -40835.668    
      9000   300.45657      10069.364     -41196.75      -40869.854    
      9100   302.46659      20085.472     -41205.909     -40876.827    
      9200   299.60743      9568.4937     -41188.208     -40862.237    
      9300   314.3135       23254.714     -41183.13      -40841.158    
      9400   309.82678      10359.45      -41180.871     -40843.781    
      9500   297.20746      6202.1558     -41210.435     -40887.074    
      9600   294.22154      12798.299     -41209.439     -40889.327    
      9700   316.921        13001.789     -41214.108     -40869.299    
      9800   292.36218      12704.365     -41184.765     -40866.676    
      9900   306.4867      -446.12466     -41188.364     -40854.908    
     10000   338.88384      1665.5707     -41190.227     -40821.523    
     10100   309.47746      17236.809     -41164.308     -40827.598    
     10200   280.433        1117.2908     -41162.323     -40857.213    
     10300   294.84418      10618.863     -41185.655     -40864.865    
     10400   309.02389      7269.4608     -41199.361     -40863.145    
     10500   313.24827      22058.061     -41206.194     -40865.381    
     10600   298.90852      3722.9521     -41203.808     -40878.597    
     10700   299.01795      1507.2243     -41215.194     -40889.864    
     10800   284.80304      11118.715     -41191.541     -40881.677    
     10900   297.68439      8136.0329     -41175.041     -40851.162    
     11000   305.20404      11856.786     -41175.519     -40843.458    
     11100   310.40922      25176.842     -41193.99      -40856.266    
     11200   283.95893      22862.525     -41201.317     -40892.37     
     11300   294.86227      7183.3754     -41216.924     -40896.115    
     11400   281.478       -1586.5978     -41189.714     -40883.467    
     11500   295.61301      7177.6836     -41186.146     -40864.52     
     11600   293.47738      17790.362     -41165.888     -40846.586    
     11700   294.25485      15394.37      -41160.806     -40840.658    
     11800   299.31746      10633.896     -41179.979     -40854.323    
     11900   286.03721      3012.7687     -41205.782     -40894.574    
     12000   287.72531      16248.665     -41199.966     -40886.923    
     12100   304.22375      2691.8477     -41192.922     -40861.928    
     12200   322.29632      7884.2553     -41204.551     -40853.894    
     12300   291.29415     -621.54651     -41181.817     -40864.89     
     12400   284.7494       1756.0545     -41203.781     -40893.975    
     12500   266.08538     -2427.7274     -41201.626     -40912.126    
     12600   290.84035      12674.144     -41202.77      -40886.337    
     12700   285.6471       3032.3293     -41175.177     -40864.394    
     12800   312.31795      14069.29      -41192.664     -40852.863    
     12900   308.01883      9532.9221     -41191.148     -40856.025    
     13000   294.97496      16618.663     -41193.338     -40872.407    
     13100   283.80649      19980.488     -41193.54      -40884.76     
     13200   272.83079      13847.44      -41183.001     -40886.163    
     13300   302.70395      22056.204     -41186.89      -40857.549    
     13400   301.01621      9398.9248     -41165.266     -40837.762    
     13500   280.92665      14182.891     -41148.843     -40843.196    
     13600   297.95634     -917.57011     -41185.713     -40861.538    
     13700   274.28239      11435.728     -41191.975     -40893.557    
     13800   293.84341      85.669263     -41206.427     -40886.727    
     13900   299.26523      4779.7615     -41195.903     -40870.304    
     14000   316.05892      25626.814     -41202.107     -40858.237    
     14100   298.88976     -4538.4483     -41186.89      -40861.699    
     14200   290.11591      18779.205     -41207.382     -40891.737    
     14300   288.50884      13140.473     -41228.619     -40914.723    
     14400   285.26074      17460.125     -41202.434     -40892.071    
     14500   306.73144      20653.307     -41200.276     -40866.554    
     14600   300.57485     -4423.8432     -41181.027     -40854.003    
     14700   320.90909      16379.494     -41189.996     -40840.848    
     14800   290.16983      17868.827     -41172.488     -40856.784    
     14900   273.26668      20234.017     -41184.937     -40887.624    
     15000   287.47756      4039.2695     -41199.248     -40886.473    
     15100   304.91035      11148.081     -41203.286     -40871.545    
     15200   320.17831      27175.648     -41211.363     -40863.011    
     15300   287.21178      20024.732     -41178.953     -40866.468    
     15400   302.32298      14553.044     -41193.644     -40864.718    
     15500   312.68845     -3041.8342     -41197.392     -40857.189    
     15600   302.55484      14189.078     -41191.908     -40862.73     
     15700   281.05298      12069.838     -41189.129     -40883.345    
     15800   294.11813      8934.2637     -41197.043     -40877.044    
     15900   293.44887      8372.1347     -41175.463     -40856.192    
     16000   303.95169      35787.258     -41169.478     -40838.779    
     16100   311.14765      9154.7619     -41179.818     -40841.291    
     16200   302.98715      8182.982      -41210.362     -40880.714    
     16300   292.68352      10294.738     -41208.374     -40889.935    
     16400   295.60176      12361.899     -41198.808     -40877.194    
     16500   321.73314      23508.269     -41200.147     -40850.103    
     16600   300.44688      16113.355     -41176.265     -40849.381    
     16700   290.77137      4113.6459     -41165.205     -40848.847    
     16800   304.79785      18454.856     -41185.46      -40853.841    
     16900   284.93434      5674.1719     -41195.357     -40885.349    
     17000   285.31858      1742.0089     -41207.043     -40896.618    
     17100   292.88614      9340.4351     -41187.522     -40868.863    
     17200   298.24766      19807.612     -41181.235     -40856.743    
     17300   309.13951      10142.416     -41189.877     -40853.535    
     17400   282.94127      1282.8199     -41167.481     -40859.642    
     17500   295.81128      15567.989     -41183.673     -40861.832    
     17600   303.59794      15114.598     -41188.366     -40858.053    
     17700   303.58094     -601.11152     -41170.513     -40840.218    
     17800   311.81642      22662.372     -41169.706     -40830.451    
     17900   302.25047      25649.998     -41181.8       -40852.953    
     18000   287.45867      12963.826     -41192.198     -40879.444    
     18100   297.37855     -2931.8223     -41204.496     -40880.949    
     18200   286.29504      3223.4424     -41177.976     -40866.488    
     18300   306.55532      17339.356     -41177.998     -40844.467    
     18400   313.01096      29764.536     -41190.921     -40850.367    
     18500   308.0902      -4810.6535     -41197.549     -40862.348    
     18600   287.14662      17323.422     -41189.207     -40876.793    
     18700   284.56139      8962.2593     -41198.995     -40889.394    
     18800   286.0449       17750.348     -41217.239     -40906.024    
     18900   284.68785     -5430.7791     -41206.168     -40896.429    
     19000   294.87312     -735.02431     -41184.217     -40863.396    
     19100   308.17821      9796.3251     -41184.336     -40849.039    
     19200   313.99997      12523.765     -41191.578     -40849.947    
     19300   298.50636      10236.44      -41195.547     -40870.774    
     19400   287.84485      4057.862      -41214.073     -40900.899    
     19500   281.18628      14258.355     -41209.235     -40903.306    
     19600   294.18469      22495.483     -41197.84      -40877.768    
     19700   284.90018     -1880.7944     -41183.818     -40873.848    
     19800   290.9179       2508.7602     -41177.886     -40861.369    
     19900   307.74986     -2159.516      -41176.291     -40841.461    
     20000   315.669        6365.9965     -41184.573     -40841.127    
     20100   295.23581      3917.9444     -41189.69      -40868.475    
     20200   286.17198      23402.497     -41201.939     -40890.585    
     20300   283.6627       7025.2441     -41196.592     -40887.968    
     20400   299.54138      1384.8961     -41199.659     -40873.76     
     20500   299.88858      6704.0148     -41190.997     -40864.719    
     20600   297.39591      2997.1737     -41187.074     -40863.508    
     20700   301.07463      7589.3554     -41191.176     -40863.608    
     20800   307.35558      14318.758     -41192.353     -40857.951    
     20900   333.83767      11574.584     -41197.125     -40833.911    
     21000   324.63763      13330.801     -41176.051     -40822.846    
     21100   311.71138      4380.6168     -41185.077     -40845.937    
     21200   309.39271      22692.394     -41207.706     -40871.088    
     21300   308.3278       14597.137     -41210.639     -40875.18     
     21400   297.42323     -3991.2904     -41197.94      -40874.344    
     21500   280.72733      3208.3826     -41180.48      -40875.05     
     21600   293.70035      3538.4087     -41177.679     -40858.135    
     21700   329.62114      7638.8726     -41194.176     -40835.55     
     21800   304.29316      23716.657     -41174.643     -40843.573    
     21900   307.44311      17054.781     -41208.718     -40874.222    
     22000   274.84215      11988.357     -41190.764     -40891.736    
     22100   289.98297      15150.353     -41196.401     -40880.901    
     22200   302.31587      6481.9548     -41190.412     -40861.494    
     22300   318.19022      4732.1055     -41197.106     -40850.916    
     22400   304.97241      15848.465     -41191.16      -40859.351    
     22500   275.93335      13210.454     -41204.563     -40904.349    
     22600   277.20824      4889.9035     -41209.868     -40908.267    
     22700   290.48987      3086.0851     -41195.716     -40879.664    
     22800   314.22102      12658.366     -41200.83      -40858.959    
     22900   305.0552       24841.467     -41181.866     -40849.968    
     23000   307.14264      25726.364     -41186.158     -40851.988    
     23100   304.61537      11753.279     -41201.993     -40870.573    
     23200   294.35512      2853.7803     -41214.664     -40894.407    
     23300   274.17611      1714.0454     -41191.704     -40893.401    
     23400   305.44208      10201.519     -41188.899     -40856.579    
     23500   310.56132     -5849.0859     -41188.961     -40851.071    
     23600   311.76199      7253.2803     -41198.008     -40858.813    
     23700   290.69819      14050.998     -41196.175     -40879.897    
     23800   290.33411     -4160.0073     -41210.615     -40894.733    
     23900   295.70302     -3793.2168     -41198.771     -40877.047    
     24000   295.5768       5649.3448     -41161.529     -40839.942    
     24100   323.37093      283.83932     -41185.013     -40833.187    
     24200   298.76486     -10779.054     -41184.653     -40859.598    
     24300   285.19504      6871.7404     -41185.09      -40874.799    
     24400   291.50512      21679.95      -41187.61      -40870.454    
     24500   289.61175      20981.574     -41179.325     -40864.228    
     24600   331.71642      6317.6109     -41181.688     -40820.782    
     24700   313.34566      6726.9655     -41162.676     -40821.757    
     24800   307.00002      13835.216     -41181.05      -40847.035    
     24900   292.95558      7985.6218     -41184.937     -40866.203    
     25000   310.36293      21122.792     -41212.342     -40874.669    
     25100   295.83465      12788.544     -41196.902     -40875.035    
     25200   302.07271      4336.171      -41194.975     -40866.321    
     25300   313.88676      4365.7684     -41178.755     -40837.248    
     25400   315.61609      16403.054     -41173.505     -40830.116    
     25500   296.83042      19652.921     -41179.002     -40856.052    
     25600   294.87951      18272.497     -41197.598     -40876.771    
     25700   286.22566      14363.392     -41183.888     -40872.476    
     25800   278.82005      14294.934     -41164.611     -40861.256    
     25900   299.67439      8973.9039     -41165.758     -40839.714    
     26000   312.31786      3851.2436     -41144.263     -40804.463    
     26100   300.87385      12683.516     -41145.343     -40817.994    
     26200   307.71045      1232.6014     -41176.244     -40841.456    
     26300   292.91832      15594.422     -41172.727     -40854.033    
     26400   307.98062      16171.415     -41198.474     -40863.392    
     26500   269.95966      1430.7781     -41178.07      -40884.355    
     26600   286.86927      5763.1612     -41212.65      -40900.537    
     26700   286.35748     -4083.8145     -41218.122     -40906.566    
     26800   283.4221       7279.8399     -41185.39      -40877.028    
     26900   299.04911      17287.529     -41178.767     -40853.403    
     27000   313.44144      5794.7897     -41183.031     -40842.008    
     27100   306.0811       19058.603     -41183.396     -40850.381    
     27200   285.22012      18393.588     -41191.03      -40880.712    
     27300   286.07513      12258.521     -41206.888     -40895.639    
     27400   289.00911      10886.594     -41198.345     -40883.904    
     27500   285.82476      7911.7878     -41185.744     -40874.768    
     27600   306.93647      11679.903     -41196.49      -40862.544    
     27700   312.47137      5164.4019     -41184.955     -40844.988    
     27800   308.00962      5857.5871     -41182.688     -40847.575    
     27900   284.85766     -945.21294     -41196.244     -40886.32     
     28000   290.13623      13872.006     -41213.175     -40897.508    
     28100   287.78865      18300.523     -41198.55      -40885.437    
     28200   301.13608      15023.73      -41182.571     -40854.936    
     28300   305.65213      18.449903     -41177.35      -40844.802    
     28400   287.25107     -3108.3523     -41165.314     -40852.786    
     28500   293.41076     -1596.637      -41177.603     -40858.373    
     28600   299.7844       6932.1524     -41196.216     -40870.052    
     28700   273.60212     -2892.5794     -41198.833     -40901.155    
     28800   279.07053      11592.773     -41194.743     -40891.115    
     28900   298.42506      87.007699     -41191.258     -40866.572    
     29000   301.89132      24443.032     -41183.487     -40855.03     
     29100   312.56904      20207.249     -41190.966     -40850.892    
     29200   315.85112      14267.605     -41199.122     -40855.477    
     29300   306.03028      8219.9081     -41199.229     -40866.269    
     29400   289.70844      1861.1713     -41185.482     -40870.28     
     29500   298.46854      849.39588     -41195.294     -40870.561    
     29600   289.45042      6373.6982     -41186.93      -40872.009    
     29700   290.36224      8621.1884     -41185.095     -40869.182    
     29800   285.8082       27929.549     -41176.809     -40865.851    
     29900   287.94078      1321.2668     -41170.905     -40857.627    
     30000   312.39414      2217.3213     -41189.147     -40849.263    
     30100   301.40636      3855.3862     -41183.024     -40855.095    
     30200   285.28086      6436.6837     -41200.977     -40890.592    
     30300   267.85178      28142.951     -41205.541     -40914.119    
     30400   289.34273      7880.0453     -41204.78      -40889.976    
     30500   291.81934      7791.7348     -41182.274     -40864.776    
     30600   292.32255      9883.3535     -41163.205     -40845.159    
     30700   298.55552      20719.183     -41163.852     -40839.025    
     30800   299.29894      12109.772     -41180.776     -40855.14     
     30900   270.25995      34557.765     -41183.503     -40889.461    
     31000   273.80609      18512.026     -41188.972     -40891.072    
     31100   290.50973      7493.5223     -41192.797     -40876.723    
     31200   293.05482     -2393.4594     -41173.398     -40854.556    
     31300   313.48361      14758.761     -41185.218     -40844.149    
     31400   311.48604      4580.1034     -41187.247     -40848.352    
     31500   289.76651      26127.664     -41180.738     -40865.473    
     31600   297.07073      12008.851     -41199.62      -40876.409    
     31700   276.24351      14715.072     -41187.19      -40886.638    
     31800   290.19924     -3130.4547     -41203.891     -40888.155    
     31900   312.07831      4164.5409     -41206.903     -40867.363    
     32000   310.32421      20530.657     -41187.465     -40849.834    
     32100   307.74766      10163.964     -41176.791     -40841.962    
     32200   304.52294      10649.766     -41176.92      -40845.601    
     32300   282.76468     -1562.9522     -41175.058     -40867.411    
     32400   291.28821      10135.917     -41193.392     -40876.472    
     32500   285.07804      23261.32      -41174.957     -40864.793    
     32600   291.31702      11459.14      -41157.424     -40840.472    
     32700   307.88579      20192.415     -41167.137     -40832.159    
     32800   290.27757      12967.71      -41168.978     -40853.157    
     32900   297.38613      6304.5385     -41206.036     -40882.482    
     33000   297.67751      20526.187     -41206.859     -40882.987    
     33100   310.16707      3697.2617     -41203.64      -40866.18     
     33200   298.77323      7741.0641     -41157.973     -40832.91     
     33300   306.17261      6755.5127     -41161.559     -40828.445    
     33400   302.00093      7994.4265     -41169.399     -40840.823    
     33500   297.783        7488.37       -41182.135     -40858.149    
     33600   293.0217       2368.6541     -41186.079     -40867.273    
     33700   297.93529      193.21351     -41185.656     -40861.504    
     33800   310.06807      6581.2404     -41173.203     -40835.851    
     33900   324.97277      11629.257     -41163.54      -40809.971    
     34000   307.57351      8122.5637     -41166.215     -40831.576    
     34100   299.85878      3350.6506     -41177.552     -40851.307    
     34200   315.81677      3632.3792     -41202.585     -40858.977    
     34300   305.44339      9331.5844     -41205.244     -40872.923    
     34400   277.45225     -8730.5973     -41179.664     -40877.797    
     34500   290.28854     -2540.7878     -41179.758     -40863.926    
     34600   318.38709      6243.7547     -41185.006     -40838.602    
     34700   337.09681      16315.855     -41196.45      -40829.69     
     34800   287.34761      4906.6765     -41173.016     -40860.383    
     34900   289.62997      106.1195      -41191.078     -40875.961    
     35000   297.8176       2166.3838     -41197.955     -40873.931    
     35100   299.94153      3718.5442     -41182.661     -40856.325    
     35200   311.1706       16195.094     -41166.611     -40828.059    
     35300   343.62418      8088.1551     -41185.02      -40811.158    
     35400   315.94966      9455.0555     -41192.335     -40848.583    
     35500   296.02001      19534.412     -41187.185     -40865.116    
     35600   284.79101      6390.1906     -41172.602     -40862.751    
     35700   326.22759     -2633.9614     -41208.688     -40853.754    
     35800   305.9834       18579.643     -41192.139     -40859.23     
     35900   280.94714     -699.17336     -41185.526     -40879.857    
     36000   278.87951      7849.7945     -41184.952     -40881.532    
     36100   299.83554      3889.2973     -41176.397     -40850.178    
     36200   326.26951      2075.3467     -41181.518     -40826.539    
     36300   305.4689      -3381.3958     -41168.379     -40836.03     
     36400   304.89264      13615.807     -41183.436     -40851.714    
     36500   297.17093     -4661.9757     -41188.766     -40865.445    
     36600   293.31134      11624.101     -41183.105     -40863.984    
     36700   293.87392      1612.742      -41180.814     -40861.081    
     36800   277.74005     -2301.9797     -41168.155     -40865.975    
     36900   311.29218      16871.759     -41196.633     -40857.949    
     37000   319.56143      15009.73      -41170.549     -40822.867    
     37100   321.16035      13691.204     -41172.295     -40822.874    
     37200   292.06435      2277.989      -41167.873     -40850.108    
     37300   314.03076      7378.8343     -41205.063     -40863.398    
     37400   308.25716     -2236.46       -41200.165     -40864.782    
     37500   289.60469      17314.05      -41174.429     -40859.34     
     37600   307.69375      6424.6138     -41171.041     -40836.271    
     37700   314.08663      8233.2618     -41154.112     -40812.387    
     37800   313.1221       3230.5898     -41168.366     -40827.691    
     37900   298.65001      12839.707     -41189.208     -40864.278    
     38000   302.90023      394.96557     -41199.532     -40869.978    
     38100   294.15795      273.28328     -41190.203     -40870.16     
     38200   313.0547       19836.394     -41205.161     -40864.559    
     38300   326.80474      12378.381     -41202.251     -40846.689    
     38400   334.04031      11871.81      -41195.85      -40832.416    
     38500   299.06724      6783.5749     -41174.088     -40848.704    
     38600   300.48534      11853.539     -41202.427     -40875.501    
     38700   267.76228      29307.882     -41181.921     -40890.596    
     38800   287.76716      17101.161     -41190.354     -40877.265    
     38900   292.34091      15389.237     -41162.975     -40844.909    
     39000   309.94037      15313.548     -41173.981     -40836.767    
     39100   313.944        18104.796     -41183.897     -40842.327    
     39200   311.82646      10783.091     -41211.126     -40871.861    
     39300   295.97133      17000.582     -41206.826     -40884.811    
     39400   309.3154       2828.2062     -41213.514     -40876.98     
     39500   290.25055      2788.7992     -41168.634     -40852.843    
     39600   304.82241      8967.2235     -41170.477     -40838.832    
     39700   294.42118      8886.2739     -41172.653     -40852.324    
     39800   299.10776      17209.158     -41212.843     -40887.415    
     39900   285.45969      5152.5068     -41202.688     -40892.109    
     40000   291.78859      24108.901     -41189.415     -40871.95     
     40100   303.43645      16829.562     -41173.312     -40843.175    
     40200   311.72063     -1020.899      -41179.12      -40839.969    
     40300   306.2064       8013.4917     -41197.366     -40864.215    
     40400   320.85853      10953.178     -41221.092     -40871.999    
     40500   313.40192      16957.232     -41213.503     -40872.523    
     40600   292.23257     -52.528355     -41192.034     -40874.086    
     40700   293.67254      10431.101     -41179.433     -40859.919    
     40800   312.46429     -924.4411      -41167.181     -40827.221    
     40900   328.64809      11731.145     -41182.58      -40825.012    
     41000   304.22497      17340.041     -41187.413     -40856.417    
     41100   294.09625      14702.156     -41191.449     -40871.473    
     41200   285.17443      10951.373     -41186.585     -40876.317    
     41300   291.49668      2825.3658     -41181.318     -40864.171    
     41400   294.2083       3586.0682     -41156.285     -40836.187    
     41500   348.12904      1820.2457     -41182.013     -40803.25     
     41600   304.46417     -3335.4158     -41172.027     -40840.771    
     41700   301.38316      1750.3594     -41191.775     -40863.872    
     41800   297.32981      19011.941     -41198.81      -40875.316    
     41900   274.87647      3608.0917     -41177.374     -40878.31     
     42000   309.16017      6036.5413     -41189.449     -40853.084    
     42100   306.89801      7671.1249     -41175.173     -40841.27     
     42200   292.71481      5277.0922     -41170.058     -40851.586    
     42300   292.68061      1115.0354     -41212.713     -40894.278    
     42400   291.75766     -2789.1113     -41211.186     -40893.755    
     42500   300.15092      11317.402     -41196.088     -40869.525    
     42600   302.84866      3711.6988     -41183.23      -40853.732    
     42700   294.01152      24538.093     -41173.638     -40853.755    
     42800   277.82329      7751.4015     -41172.316     -40870.046    
     42900   279.23721      2242.4071     -41208.769     -40904.96     
     43000   282.62332      17144.146     -41215.051     -40907.558    
     43100   291.70204     -3774.5776     -41202.629     -40885.258    
     43200   285.13313      10280.8       -41185.793     -40875.57     
     43300   303.37143      10563.13      -41188.14      -40858.074    
     43400   302.35177      17144.92      -41172.304     -40843.346    
     43500   296.51767      11260.69      -41151.441     -40828.831    
     43600   333.37083      11085.955     -41190.213     -40827.507    
     43700   314.9135       1135.7941     -41200.114     -40857.49     
     43800   300.91093      4784.989      -41204.666     -40877.276    
     43900   309.22561      10489.688     -41205.551     -40869.115    
     44000   298.07017      5690.0943     -41180.571     -40856.272    
     44100   323.79051      24488.072     -41182.413     -40830.131    
     44200   331.14519      5702.3206     -41171.963     -40811.678    
     44300   293.36484      12774.511     -41162.271     -40843.091    
     44400   291.91599      6591.3357     -41182.988     -40865.384    
     44500   285.12294      11395.96      -41172.98      -40862.768    
     44600   299.8446       22563.747     -41178.066     -40851.837    
     44700   309.20268      11649.994     -41177.11      -40840.699    
     44800   306.4185       7705.117      -41168.216     -40834.834    
     44900   301.69706      4306.0604     -41183.096     -40854.851    
     45000   287.83697      3836.771      -41190.64      -40877.474    
     45100   305.48563      11201.492     -41204.768     -40872.401    
     45200   299.72777      697.11623     -41171.46      -40845.357    
     45300   320.93875      10812.861     -41175.322     -40826.142    
     45400   297.76483      6453.0775     -41179.313     -40855.346    
     45500   273.17041      1255.6328     -41176.741     -40879.532    
     45600   282.50855      4920.7572     -41181.32      -40873.952    
     45700   298.00031      1071.4115     -41174.237     -40850.014    
     45800   319.63242      6996.6433     -41180.814     -40833.056    
     45900   328.5614       13577.534     -41194.024     -40836.551    
     46000   280.62087     -6787.2972     -41188.471     -40883.157    
     46100   280.51424      7758.152      -41186.492     -40881.293    
     46200   288.47228      11924.668     -41172.72      -40858.863    
     46300   286.08925      7414.1751     -41153.731     -40842.468    
     46400   296.545        13008.662     -41164.841     -40842.202    
     46500   298.30394      20938.683     -41197.117     -40872.564    
     46600   281.56896      7737.8966     -41201.701     -40895.355    
     46700   284.99903      9000.6458     -41190.367     -40880.289    
     46800   300.64167      5100.5245     -41188.094     -40860.997    
     46900   305.89391      14573.856     -41187.916     -40855.104    
     47000   300.39609      23937.03      -41182.916     -40856.087    
     47100   289.81707      1758.0188     -41193.249     -40877.929    
     47200   274.11462      3502.0127     -41202.991     -40904.756    
     47300   298.31499      23405.282     -41216.898     -40892.333    
     47400   305.0454       18691.855     -41208.563     -40876.675    
     47500   311.35701     -5286.7328     -41205.594     -40866.839    
     47600   304.0215       9202.5535     -41191.274     -40860.5      
     47700   289.2144       14947.329     -41192.924     -40878.26     
     47800   287.15228      13744.978     -41205.335     -40892.915    
     47900   307.56472     -645.44593     -41196.482     -40861.853    
     48000   316.14411      6107.7372     -41178.207     -40834.243    
     48100   330.69397      11890.641     -41195.167     -40835.373    
     48200   288.41331      2901.8486     -41173.684     -40859.892    
     48300   302.78366      13024.845     -41208.152     -40878.724    
     48400   282.85586      21774.966     -41187.536     -40879.79     
     48500   301.07763      3560.8667     -41185.679     -40858.108    
     48600   307.91096      16083.13      -41189.17      -40854.165    
     48700   301.43755      5664.1569     -41182.882     -40854.919    
     48800   317.59921      20279.073     -41202.831     -40857.284    
     48900   310.62167      17531.686     -41207.775     -40869.82     
     49000   300.58098      9952.31       -41198.852     -40871.821    
     49100   295.0959       394.21344     -41194.425     -40873.362    
     49200   302.2561       16514.059     -41204.314     -40875.46     
     49300   296.8746       12356.953     -41179.549     -40856.551    
     49400   321.76853      14589.504     -41180.23      -40830.147    
     49500   327.75322      4299.0484     -41188.789     -40832.195    
     49600   279.87952      224.79525     -41172.661     -40868.153    
     49700   286.75687      5527.3573     -41181.628     -40869.638    
     49800   294.27101     -7181.3094     -41182.853     -40862.688    
     49900   300.96662      13382.937     -41176.123     -40848.672    
     50000   305.09739     -1418.138      -41166.021     -40834.076    
     50100   308.02281      8379.1021     -41160.42      -40825.293    
     50200   293.62708      13836.766     -41172.81      -40853.345    
     50300   298.27924      15320.285     -41199.818     -40875.292    
     50400   283.29109      4659.1777     -41191.124     -40882.904    
     50500   303.11034      5134.543      -41191.833     -40862.05     
     50600   319.55605      24164.617     -41183.715     -40836.04     
     50700   311.00665      18541.688     -41180.073     -40841.699    
     50800   285.17255      13966.791     -41161.021     -40850.755    
     50900   296.34382      15238.217     -41183.819     -40861.398    
     51000   295.87321      13671.888     -41202.684     -40880.775    
     51100   292.35565      15119.727     -41227.758     -40909.677    
     51200   269.36635      20822.164     -41195.594     -40902.525    
     51300   304.22535      12398.799     -41205.309     -40874.313    
     51400   298.0213       6620.0787     -41187.853     -40863.607    
     51500   292.77415      9370.5765     -41173.979     -40855.442    
     51600   283.58661      12271.843     -41165.715     -40857.174    
     51700   292.62202      6862.0444     -41195.147     -40876.776    
     51800   295.14363      13215.054     -41212.949     -40891.834    
     51900   273.93579     -5696.5495     -41188.98      -40890.939    
     52000   299.47203     -2342.5105     -41180.172     -40854.347    
     52100   312.39774      13898.583     -41179.128     -40839.241    
     52200   306.85282     -1513.9849     -41177.252     -40843.398    
     52300   309.09271      5844.5227     -41198.384     -40862.092    
     52400   287.64824      4728.2326     -41204.507     -40891.547    
     52500   267.47998      3503.9415     -41183.634     -40892.617    
     52600   300.75788      24179.765     -41204.77      -40877.547    
     52700   288.13105     -4754.868      -41180.627     -40867.142    
     52800   312.50859      12782.14      -41196.246     -40856.238    
     52900   293.7395       9037.4188     -41173.062     -40853.475    
     53000   313.72801      8884.7636     -41180.278     -40838.943    
     53100   316.11538      10568.793     -41179.865     -40835.933    
     53200   310.32842      5350.4495     -41187.558     -40849.922    
     53300   299.04303      7686.8826     -41203         -40877.642    
     53400   280.66639     -1890.7708     -41191.891     -40886.528    
     53500   298.71022      8444.7002     -41197.827     -40872.831    
     53600   315.48617     -5487.1817     -41179.992     -40836.745    
     53700   312.75316      4180.1394     -41181.147     -40840.872    
     53800   303.81558      13415.423     -41190.378     -40859.828    
     53900   291.68868      13516.327     -41189.505     -40872.149    
     54000   276.84945      8313.7892     -41180.764     -40879.553    
     54100   300.70195      17908.55      -41190.085     -40862.922    
     54200   305.68684      4517.8551     -41171.77      -40839.184    
     54300   303.84168      15527.961     -41170.867     -40840.288    
     54400   288.66872      18560.003     -41183.483     -40869.413    
     54500   297.75309      5811.1843     -41208.452     -40884.498    
     54600   285.79261      17610.584     -41189.48      -40878.539    
     54700   300.35015      5796.3857     -41182.144     -40855.364    
     54800   289.89714      7050.0377     -41168.515     -40853.108    
     54900   295.16551      15253.555     -41174.078     -40852.939    
     55000   304.33         13370.799     -41185.638     -40854.528    
     55100   308.40257     -1225.7227     -41196.259     -40860.719    
     55200   280.79985      11109.507     -41190.399     -40884.89     
     55300   310.4586       9079.8898     -41229.192     -40891.414    
     55400   304.83007      8071.8898     -41208.406     -40876.752    
     55500   306.75161      11454.023     -41174.123     -40840.379    
     55600   305.84415      6538.5745     -41172.83      -40840.073    
     55700   306.11953      12836.613     -41200.131     -40867.075    
     55800   297.57424     -2086.6405     -41207.527     -40883.767    
     55900   293.69326      14089.546     -41198.703     -40879.166    
     56000   298.0288       12965.387     -41192.25      -40867.996    
     56100   307.06236      13903.309     -41170.968     -40836.885    
     56200   332.40189      14670.027     -41177.109     -40815.457    
     56300   319.90979      12623.098     -41179.255     -40831.194    
     56400   285.87818      8064.5335     -41168.878     -40857.844    
     56500   292.97585      6574.5587     -41191.94      -40873.183    
     56600   294.03011      6393.4257     -41196.581     -40876.678    
     56700   298.2267      -634.0527      -41190.269     -40865.8      
     56800   318.21342      9356.3639     -41177.874     -40831.659    
     56900   318.9432       4546.0701     -41183.34      -40836.332    
     57000   296.30608      11810.775     -41184.118     -40861.739    
     57100   294.646        13700.138     -41185.542     -40864.969    
     57200   315.82566      6548.5926     -41205.605     -40861.988    
     57300   299.80831      7575.9993     -41201.648     -40875.458    
     57400   293.41722     -5193.8099     -41216.136     -40896.899    
     57500   291.19214      10819.146     -41205.913     -40889.098    
     57600   305.30625      24484.132     -41182.446     -40850.275    
     57700   302.81962      6514.4959     -41176.321     -40846.855    
     57800   293.25926      15813.627     -41172.332     -40853.267    
     57900   300.46223      14199.704     -41184.123     -40857.221    
     58000   294.43337      8044.4876     -41192.35      -40872.008    
     58100   272.81605      2373.0812     -41185.251     -40888.428    
     58200   290.36642      2708.3315     -41182.334     -40866.416    
     58300   327.24646      19293.431     -41197.053     -40841.01     
     58400   312.24481      12931.734     -41188.687     -40848.966    
     58500   298.52826      11215.217     -41188.034     -40863.237    
     58600   296.62754      11617.574     -41208.106     -40885.376    
     58700   278.9411       18802.864     -41215.002     -40911.516    
     58800   282.43761      11535.017     -41227.797     -40920.506    
     58900   281.27002      21250.602     -41186.057     -40880.036    
     59000   294.50778     -5161.665      -41178.854     -40858.431    
     59100   305.45576      10129.225     -41177.971     -40845.637    
     59200   300.26045      19113.025     -41184.049     -40857.367    
     59300   284.09283      7466.6404     -41189.593     -40880.502    
     59400   283.58199      10857.475     -41189.314     -40880.778    
     59500   302.00941      2243.2168     -41172.289     -40843.704    
     59600   309.9185       8156.0786     -41160.544     -40823.354    
     59700   328.20394      9434.1857     -41190.682     -40833.597    
     59800   295.33928      8613.8625     -41180.582     -40859.254    
     59900   287.12725      16180.059     -41183.036     -40870.643    
     60000   310.24248      9576.2979     -41202.726     -40865.184    
     60100   306.01721      1549.2122     -41198.46      -40865.514    
     60200   279.26897      3585.4601     -41177.378     -40873.535    
     60300   267.53949      16119.447     -41194.959     -40903.877    
     60400   268.08281      13666.491     -41207.431     -40915.758    
     60500   295.84094      2519.4607     -41206.592     -40884.719    
     60600   326.86146     -9608.1663     -41223.382     -40867.758    
     60700   289.79593      13192.377     -41182.481     -40867.185    
     60800   286.03526      7603.5416     -41184.618     -40873.413    
     60900   292.42625      12907.419     -41200.195     -40882.036    
     61000   299.49988      3730.104      -41208.525     -40882.67     
     61100   300.77601      8849.8226     -41178.437     -40851.194    
     61200   328.4436       6501.3202     -41192.863     -40835.518    
     61300   308.83126      8221.8627     -41172.404     -40836.397    
     61400   308.80462      14401.825     -41200.956     -40864.978    
     61500   286.70225      5693.2428     -41200.299     -40888.368    
     61600   295.69786     -5856.8202     -41205.053     -40883.335    
     61700   300.36305      8379.1902     -41192.284     -40865.491    
     61800   301.35946      10772.252     -41182.314     -40854.437    
     61900   300.95951     -427.89513     -41184.533     -40857.09     
     62000   290.47095      10335.275     -41190.716     -40874.685    
     62100   285.32999     -4797.8624     -41211.433     -40900.995    
     62200   289.36451      14556.033     -41219.127     -40904.3      
     62300   297.94181      9697.5876     -41195.975     -40871.816    
     62400   304.10094      648.47052     -41184.926     -40854.065    
     62500   323.30002      9026.1799     -41204.164     -40852.415    
     62600   311.55333      16102.919     -41205.459     -40866.491    
     62700   269.06988      16932.263     -41181.773     -40889.027    
     62800   290.37293      18328.936     -41203.948     -40888.024    
     62900   305.39262      1767.3592     -41187.721     -40855.455    
     63000   315.50364      11645.693     -41182.513     -40839.247    
     63100   312.65297      17610.123     -41196.063     -40855.898    
     63200   300.1392       14030.207     -41209.777     -40883.227    
     63300   289.8169      -3516.6343     -41203.603     -40888.283    
     63400   281.47657      8830.9404     -41184.624     -40878.378    
     63500   305.84819      10217.709     -41201.424     -40868.662    
     63600   312.31194      13585.895     -41193.204     -40853.41     
     63700   335.71759      11316.744     -41181.087     -40815.828    
     63800   317.66966      7379.4152     -41176.195     -40830.572    
     63900   315.08697      4898.6711     -41202.2       -40859.387    
     64000   294.168        10105.225     -41188.186     -40868.132    
     64100   311.05868      11133.902     -41213.379     -40874.948    
     64200   277.89168      1281.9844     -41199.854     -40897.51     
     64300   283.69767      13368.21      -41216.543     -40907.881    
     64400   289.4734       10894.208     -41196.76      -40881.814    
     64500   298.74212      20010.473     -41182.577     -40857.547    
     64600   300.28628      20092.847     -41178.691     -40851.981    
     64700   297.5519       15634.851     -41174.654     -40850.919    
     64800   303.64828      12494.982     -41202.996     -40872.628    
     64900   280.08809      20750.494     -41192.081     -40887.346    
     65000   298.50723      18587.352     -41203.485     -40878.71     
     65100   314.29839      3286.321      -41185.809     -40843.854    
     65200   306.25836      10233.906     -41166.199     -40832.992    
     65300   300.37142      6318.4229     -41173.5       -40846.698    
     65400   311.58391      4595.4165     -41205.421     -40866.419    
     65500   295.06116      15668.133     -41192.401     -40871.375    
     65600   282.05377      7061.404      -41175.405     -40868.532    
     65700   306.99041      12011.95      -41198.087     -40864.083    
     65800   309.03253      8296.7342     -41202.426     -40866.2      
     65900   279.70929      12301.192     -41182.624     -40878.302    
     66000   297.90055      1174.723      -41202.635     -40878.52     
     66100   284.69022      28707.905     -41174.481     -40864.739    
     66200   311.40656      2160.6365     -41177.074     -40838.265    
     66300   322.92622      4069.3271     -41193.563     -40842.221    
     66400   285.35362      18039.62      -41188.368     -40877.904    
     66500   289.13059      23829.507     -41192.984     -40878.411    
     66600   295.72999     -1280.6585     -41188.814     -40867.061    
     66700   316.56035      15727.795     -41198.89      -40854.474    
     66800   289.84171      6648.0402     -41185.106     -40869.76     
     66900   274.04296      10032.185     -41192.154     -40893.996    
     67000   283.17941      15950.11      -41199.401     -40891.303    
     67100   311.45393      13214.842     -41188.341     -40849.481    
     67200   285.87729      5740.4918     -41155.249     -40844.215    
     67300   307.33633     -2862.0091     -41193.756     -40859.375    
     67400   289.00664      25621.636     -41202.507     -40888.069    
     67500   306.07533      20488.328     -41220.649     -40887.641    
     67600   311.8468       15219.684     -41214.498     -40875.21     
     67700   300.69937      10392.759     -41199.018     -40871.859    
     67800   311.03633      1188.3591     -41211.757     -40873.351    
     67900   298.13631      8040.9802     -41200.862     -40876.491    
     68000   310.06115      6838.0332     -41207.747     -40870.402    
     68100   313.0053       6522.74       -41206.541     -40865.993    
     68200   295.01567      17436.731     -41186.053     -40865.077    
     68300   286.26139      10203.267     -41187.143     -40875.692    
     68400   294.05779      12032.646     -41204.555     -40884.622    
     68500   282.7117       3948.6853     -41207.29      -40899.701    
     68600   287.13309      6652.891      -41204.338     -40891.939    
     68700   312.17126      13284.082     -41202.666     -40863.025    
     68800   298.83968      30025.406     -41181.435     -40856.299    
     68900   321.30927      9861.9643     -41219.918     -40870.335    
     69000   287.95115      25493.711     -41213.447     -40900.158    
     69100   299.65254      4976.0284     -41230.792     -40904.772    
     69200   292.3047       22135.313     -41212.511     -40894.485    
     69300   277.05037      22184.008     -41179.695     -40878.265    
     69400   302.47199      6315.6831     -41190.304     -40861.216    
     69500   308.08273      4340.3238     -41176.786     -40841.593    
     69600   314.64411      4668.2578     -41176.661     -40834.33     
     69700   278.6354       26391.6       -41178.564     -40875.41     
     69800   290.94652      4145.7972     -41203.119     -40886.57     
     69900   294.10499      14271.221     -41200.312     -40880.327    
     70000   289.31905      7795.0854     -41171.352     -40856.574    
     70100   309.94881      8729.3584     -41176.595     -40839.372    
     70200   300.07352      8287.8626     -41175.716     -40849.238    
     70300   308.55688      15014.648     -41195.899     -40860.191    
     70400   304.85629      16540.145     -41200.831     -40869.149    
     70500   308.30222      8183.2743     -41207.151     -40871.72     
     70600   303.77287      12113.011     -41207.359     -40876.856    
     70700   306.7827       5374.6843     -41208.701     -40874.923    
     70800   302.0301       15074.623     -41197.418     -40868.81     
     70900   292.8701       3633.4287     -41179.703     -40861.062    
     71000   311.88719      20434.738     -41187.796     -40848.464    
     71100   317.2686       9712.813      -41176.261     -40831.074    
     71200   315.73753      5295.0985     -41187.586     -40844.065    
     71300   285.88445      7740.3679     -41190.037     -40878.996    
     71400   288.87287      20544.022     -41193.142     -40878.849    
     71500   299.30476      10890.72      -41186.223     -40860.581    
     71600   313.41983      10203.77      -41182.595     -40841.596    
     71700   314.71824     -7482.4111     -41192.152     -40849.74     
     71800   303.66545      25348.447     -41222.284     -40891.897    
     71900   284.99214     -10298.042     -41206.795     -40896.725    
     72000   275.70945      10968.276     -41181.038     -40881.067    
     72100   318.0239       13544.73      -41200.95      -40854.941    
     72200   301.30084      242.59615     -41187.409     -40859.595    
     72300   288.5635      -2991.5857     -41188.213     -40874.257    
     72400   275.54252      9491.0743     -41186.536     -40886.747    
     72500   311.09997      29317.18      -41202.749     -40864.273    
     72600   320.79997      24938.265     -41188.794     -40839.765    
     72700   311.20792      10395.799     -41192.447     -40853.854    
     72800   298.98317      27746.416     -41205.079     -40879.787    
     72900   284.90377      8058.7697     -41196.406     -40886.432    
     73000   292.08954      2307.6384     -41193.532     -40875.74     
     73100   298.69873      13599.792     -41195.445     -40870.462    
     73200   292.66032      12944.351     -41193.942     -40875.529    
     73300   314.0645       10630.677     -41201.015     -40859.314    
     73400   318.82046      8830.8414     -41172.833     -40825.958    
     73500   301.34846      12584.75      -41161.253     -40833.387    
     73600   314.18095      5738.5795     -41201.696     -40859.868    
     73700   284.08787      7741.3416     -41189.248     -40880.162    
     73800   296.60055      17258.936     -41196.783     -40874.083    
     73900   299.23191      22109.587     -41193.467     -40867.904    
     74000   312.61756      9312.9861     -41196.632     -40856.506    
     74100   301.29849      33766.929     -41151.671     -40823.86     
     74200   315.54128      19098.701     -41163.619     -40820.311    
     74300   297.56885      32790.434     -41187.223     -40863.47     
     74400   286.04821     -152.99229     -41184.101     -40872.882    
     74500   316.64811      2836.1416     -41211.18      -40866.668    
     74600   294.26274     -1705.3175     -41186.8       -40866.643    
     74700   312.49125      15332.724     -41219.851     -40879.862    
     74800   289.31218     -3956.9503     -41218.064     -40903.294    
     74900   274.23773      9375.1037     -41190.041     -40891.671    
     75000   296.73341      14433.714     -41184.153     -40861.308    
     75100   302.53369      6323.8356     -41186.671     -40857.515    
     75200   286.2502       1860.7672     -41171.65      -40860.211    
     75300   308.53575     -1378.7975     -41197.611     -40861.925    
     75400   294.24534      26375.9       -41200.708     -40880.571    
     75500   281.24028      10662.096     -41211.22      -40905.232    
     75600   283.99396      19218.407     -41197.501     -40888.517    
     75700   274.59062      5274.4521     -41163.344     -40864.591    
     75800   303.2729       27.93424      -41188.054     -40858.094    
     75900   303.74749      8127.3668     -41199.976     -40869.5      
     76000   300.79331      5735.4099     -41213.429     -40886.168    
     76100   275.34304      3687.6666     -41200.636     -40901.064    
     76200   293.76342     -12099.035     -41215.533     -40895.92     
     76300   300.56351      15378.911     -41191.35      -40864.338    
     76400   316.22199      29109.136     -41190.039     -40845.991    
     76500   284.94333      11822.067     -41159.807     -40849.79     
     76600   304.32945      16950.014     -41205.136     -40874.026    
     76700   280.52603      16034.649     -41210.784     -40905.573    
     76800   301.59193      6599.7644     -41225.547     -40897.416    
     76900   294.78062      9906.3223     -41193.222     -40872.502    
     77000   306.60415      13215.549     -41189.424     -40855.84     
     77100   302.07228      7715.6854     -41185.574     -40856.921    
     77200   305.00023      6602.8208     -41210.546     -40878.707    
     77300   275.58129      8712.9902     -41202.303     -40902.471    
     77400   304.05727      2526.8791     -41225.541     -40894.728    
     77500   303.1062       11670.314     -41211.226     -40881.448    
     77600   294.19565      5899.6086     -41180.921     -40860.837    
     77700   321.11763      16237.756     -41208.728     -40859.354    
     77800   294.5185       1446.5082     -41188.348     -40867.913    
     77900   302.90833      15689.738     -41198.605     -40869.042    
     78000   291.58301      7330.8243     -41187.145     -40869.904    
     78100   301.08499      23902.449     -41195.587     -40868.008    
     78200   302.16518      16715.277     -41198.328     -40869.573    
     78300   304.82703      17425.528     -41197.348     -40865.698    
     78400   320.57982      20021.464     -41188.593     -40839.804    
     78500   314.43387      19822.62      -41166.487     -40824.384    
     78600   311.48731      16674.372     -41193.058     -40854.161    
     78700   307.3642       15864.423     -41204.743     -40870.332    
     78800   292.86789     -2469.1279     -41189.919     -40871.28     
     78900   290.79872      7861.6534     -41173.852     -40857.464    
     79000   327.44507      22728.282     -41186.763     -40830.504    
     79100   333.01597      7102.0661     -41184.464     -40822.144    
     79200   305.64012      11519.03      -41190.074     -40857.539    
     79300   309.31952     -5296.2002     -41218.892     -40882.354    
     79400   298.94047      13692.077     -41212.876     -40887.63     
     79500   305.79881      6056.8701     -41209.179     -40876.471    
     79600   300.98253      7184.7497     -41175.551     -40848.084    
     79700   308.86221      7510.9133     -41158.524     -40822.483    
     79800   317.05067      8554.6894     -41182.463     -40837.514    
     79900   308.31648      20135.455     -41189.754     -40854.307    
     80000   311.22399      10475.892     -41203.954     -40865.344    
     80100   287.16787      13893.881     -41192.117     -40879.68     
     80200   276.31555      18215.173     -41190.59      -40889.96     
     80300   283.45083      2433.6869     -41211.135     -40902.742    
     80400   282.20104      11980.874     -41206.958     -40899.924    
     80500   306.77647      13445.522     -41201.03      -40867.259    
     80600   306.91068      4373.8211     -41193.255     -40859.337    
     80700   314.93152      5815.7159     -41207.087     -40864.443    
     80800   284.12572      5467.3689     -41203.088     -40893.961    
     80900   277.71515      8670.2155     -41213.051     -40910.898    
     81000   289.50003     -8681.5948     -41211.53      -40896.555    
     81100   292.61365      18505.826     -41195.911     -40877.549    
     81200   304.7945       18518.768     -41203.835     -40872.22     
     81300   295.23889      9774.9419     -41193.033     -40871.815    
     81400   306.89709      8296.5623     -41220.58      -40886.677    
     81500   274.18765      24856.926     -41206.705     -40908.39     
     81600   289.11653      15649.04      -41198.944     -40884.387    
     81700   311.48805      7447.4023     -41202.103     -40863.206    
     81800   293.28034      14537.822     -41177.512     -40858.424    
     81900   288.82565      8511.6101     -41177.275     -40863.034    
     82000   297.41199      15042.392     -41195.451     -40871.868    
     82100   301.09843      24448.55      -41208.285     -40880.691    
     82200   288.36232      16861.159     -41208.564     -40894.827    
     82300   280.28385      14411.661     -41208.439     -40903.491    
     82400   291.93392      15355.981     -41191.508     -40873.885    
     82500   318.06888      7058.0835     -41197.999     -40851.942    
     82600   299.28697      6424.691      -41180.371     -40854.748    
     82700   288.95541      12742.525     -41184.81      -40870.428    
     82800   280.54879      87.374696     -41199.663     -40894.427    
     82900   286.41593      13226.763     -41235.727     -40924.108    
     83000   278.27256      11996.385     -41237.639     -40934.879    
     83100   299.99879      4734.3175     -41217.704     -40891.307    
     83200   284.00711     -2610.1384     -41175.25      -40866.251    
     83300   299.7114       13661.204     -41173.382     -40847.297    
     83400   302.12579      1701.4705     -41172.689     -40843.977    
     83500   309.93033      5479.6829     -41204.021     -40866.818    
     83600   283.88133      16358.913     -41202.026     -40893.164    
     83700   274.98731      10974.635     -41188.004     -40888.819    
     83800   295.91553      6970.4528     -41192.446     -40870.491    
     83900   302.54923      16485.083     -41193.554     -40864.381    
     84000   290.09296      13071.561     -41179.765     -40864.145    
     84100   296.79901      5135.4134     -41201.622     -40878.706    
     84200   282.82915      11135.238     -41209.688     -40901.971    
     84300   285.95347      4901.4004     -41213.505     -40902.389    
     84400   302.18086      3196.0891     -41195.609     -40866.838    
     84500   316.51267      17035.418     -41194.195     -40849.831    
     84600   307.77767      14548.872     -41187.143     -40852.282    
     84700   296.17797      10469.718     -41181.312     -40859.072    
     84800   280.82009     -4833.411      -41197.018     -40891.487    
     84900   291.46774      12678.654     -41213.883     -40896.767    
     85000   299.9624       17705.033     -41208.636     -40882.278    
     85100   299.62243      20468.226     -41195.255     -40869.267    
     85200   294.1177       6021.632      -41180.561     -40860.563    
     85300   302.81189      14126.127     -41177.734     -40848.276    
     85400   302.98671      16157.055     -41176.765     -40847.117    
     85500   290.53601      1868.4693     -41192.27      -40876.168    
     85600   282.72404      6693.1144     -41206.644     -40899.041    
     85700   280.95115      8757.9159     -41194.508     -40888.834    
     85800   299.3575       12602.368     -41190.424     -40864.725    
     85900   301.73589      14970.176     -41177.737     -40849.449    
     86000   290.87954      11201.465     -41168.444     -40851.969    
     86100   299.30259      5615.656      -41182.882     -40857.242    
     86200   313.8608       1475.7626     -41206.764     -40865.285    
     86300   289.25111      9521.7967     -41193.231     -40878.527    
     86400   284.59511      10319.212     -41223.156     -40913.518    
     86500   276.16885      2564.2176     -41223.384     -40922.914    
     86600   285.54572      6462.76       -41204.591     -40893.919    
     86700   313.53238      6409.0358     -41219.248     -40878.126    
     86800   301.19394      7444.4541     -41186.758     -40859.061    
     86900   329.67754      7682.7869     -41200.266     -40841.578    
     87000   286.86342      15432.484     -41166.47      -40854.364    
     87100   302.69098      4479.748      -41223.507     -40894.18     
     87200   285.03863      2197.1347     -41211.11      -40900.989    
     87300   280.79678      3961.6104     -41187.53      -40882.024    
     87400   310.44422      13291.837     -41197.049     -40859.287    
     87500   302.0328       16326.86      -41178.767     -40850.156    
     87600   312.21222      15159.061     -41194.441     -40854.756    
     87700   283.57938      6783.7153     -41190.909     -40882.376    
     87800   286.68034      6494.0831     -41216.471     -40904.564    
     87900   282.09317      4485.1194     -41203.582     -40896.666    
     88000   281.74337      11419.757     -41183.996     -40877.46     
     88100   305.59021      5544.8409     -41197.963     -40865.482    
     88200   318.98946      6919.8238     -41211.711     -40864.651    
     88300   295.21085      9169.7339     -41195.926     -40874.738    
     88400   287.22917      16018.572     -41220.957     -40908.453    
     88500   277.66022      10694.657     -41218.234     -40916.141    
     88600   297.41784      9818.1499     -41215.635     -40892.046    
     88700   286.75305      19521.367     -41193.712     -40881.726    
     88800   308.04363      13548.912     -41205.644     -40870.494    
     88900   293.10233      6056.5478     -41177.067     -40858.173    
     89000   308.65593      12420.357     -41171.829     -40836.012    
     89100   325.78193      19925.093     -41167.469     -40813.02     
     89200   325.95915      18325.52      -41191.473     -40836.831    
     89300   305.30155      4478.541      -41201.262     -40869.096    
     89400   303.75904      7566.8592     -41203.061     -40872.572    
     89500   292.19743      1307.0528     -41183.696     -40865.786    
     89600   310.11685      15373.679     -41186.007     -40848.602    
     89700   318.01789      1158.9925     -41181.029     -40835.027    
     89800   306.75992      12806.333     -41198.124     -40864.37     
     89900   290.37615      13735.923     -41202.838     -40886.91     
     90000   315.39833      5808.5353     -41221.45      -40878.298    
     90100   292.13958      8313.8274     -41178.42      -40860.574    
     90200   301.50506      5886.4893     -41164.243     -40836.207    
     90300   305.07028      33850.753     -41165.071     -40833.156    
     90400   289.1325       6303.8312     -41192.104     -40877.529    
     90500   287.38639      5871.7083     -41203.191     -40890.515    
     90600   295.08848      5578.0749     -41194.945     -40873.89     
     90700   298.00876      11273.227     -41175.851     -40851.619    
     90800   323.92506      12025.536     -41189.056     -40836.627    
     90900   309.23036      11626.314     -41191.006     -40854.564    
     91000   289.86658     -3331.3288     -41196.019     -40880.646    
     91100   295.29281      18481.005     -41199.996     -40878.719    
     91200   300.66222      2903.7477     -41196.854     -40869.735    
     91300   304.66404      13088.595     -41194.355     -40862.882    
     91400   317.07406      11590.14      -41187.539     -40842.564    
     91500   315.25048      1180.6558     -41168.114     -40825.122    
     91600   305.04446      6397.8185     -41186.385     -40854.498    
     91700   298.788        10365.217     -41198.274     -40873.194    
     91800   292.43821     -11362.866     -41190.799     -40872.627    
     91900   300.02978      7032.7167     -41191.618     -40865.187    
     92000   321.52723      31419.578     -41182.245     -40832.425    
     92100   319.33769      81.878344     -41172.078     -40824.64     
     92200   300.37948      9946.6463     -41181.111     -40854.299    
     92300   309.61988      11270.265     -41204.83      -40867.965    
     92400   288.10569      7647.5655     -41187.169     -40873.712    
     92500   293.29002      16664.601     -41186.793     -40867.695    
     92600   318.29238      31171.472     -41191.951     -40845.65     
     92700   299.54473      12496.089     -41146.389     -40820.485    
     92800   335.96251      4034.4119     -41199.361     -40833.835    
     92900   292.14511      16519.414     -41190.026     -40872.174    
     93000   306.96968      18690.811     -41205.976     -40871.994    
     93100   305.22341      13075.582     -41197.99      -40865.908    
     93200   294.70475      6934.6107     -41186.729     -40866.092    
     93300   300.47571      4671.3805     -41182.984     -40856.068    
     93400   312.98714      7546.7891     -41182.648     -40842.119    
     93500   305.21316     -2375.257      -41175.708     -40843.637    
     93600   307.89005      3584.9086     -41198.402     -40863.419    
     93700   285.05744      7604.0969     -41204.598     -40894.457    
     93800   285.60053      21834.994     -41197.928     -40887.196    
     93900   308.08597      9813.5941     -41201.316     -40866.12     
     94000   310.65815      8743.6522     -41203.31      -40865.315    
     94100   295.80267      11301.273     -41191.908     -40870.076    
     94200   292.92029      13762.843     -41187.912     -40869.216    
     94300   314.74266      16753.457     -41201.979     -40859.54     
     94400   317.46981      423.15167     -41208.369     -40862.963    
     94500   291.7742       1968.2704     -41185.034     -40867.585    
     94600   317.48731      7690.148      -41210.698     -40865.273    
     94700   282.30398      18811.749     -41193.386     -40886.241    
     94800   291.86751      13200.811     -41220.436     -40902.886    
     94900   281.05013      8948.7602     -41183.68      -40877.899    
     95000   304.57603     -1650.5993     -41182.527     -40851.149    
     95100   311.73741      2531.025      -41188.885     -40849.716    
     95200   315.06322      18191.531     -41210.918     -40868.13     
     95300   287.24737      13146.44      -41205.016     -40892.493    
     95400   294.7131       29527.22      -41210.018     -40889.371    
     95500   313.80794      20400.438     -41210.315     -40868.894    
     95600   313.99475      3569.904      -41206.244     -40864.619    
     95700   301.29041      11853.765     -41196.524     -40868.721    
     95800   312.26568      15001.217     -41207.987     -40868.243    
     95900   298.68302      18398.091     -41196.266     -40871.3      
     96000   283.96146     -1571.6348     -41195.933     -40886.985    
     96100   287.26107      5918.0306     -41213.342     -40900.804    
     96200   295.72576      10024.86      -41202.208     -40880.46     
     96300   313.30314      10637.733     -41196.182     -40855.31     
     96400   307.2128       14546.863     -41186.427     -40852.181    
     96500   304.23492      7962.2385     -41182.952     -40851.946    
     96600   299.74258      12190.53      -41204.417     -40878.298    
     96700   271.64168      21583.062     -41203.166     -40907.621    
     96800   303.82897      10831.036     -41226.084     -40895.519    
     96900   310.09703      12782.321     -41207.408     -40870.024    
     97000   295.79908      15403.99      -41186.997     -40865.169    
     97100   299.44706      22155.069     -41194.771     -40868.974    
     97200   294.33731      18780.245     -41209.144     -40888.906    
     97300   270.15619      3772.5653     -41209.791     -40915.862    
     97400   288.96363     -15561.702     -41220.894     -40906.503    
     97500   297.30379      16490.947     -41202.939     -40879.474    
     97600   293.87211     -3290.4015     -41187.555     -40867.823    
     97700   303.74898      30514.247     -41189.309     -40858.831    
     97800   310.21808      14684.706     -41193.624     -40856.108    
     97900   308.83006      4754.5746     -41203.183     -40867.178    
     98000   292.4964       4057.5019     -41211.51      -40893.275    
     98100   289.79705      6602.569      -41213.355     -40898.057    
     98200   315.50409      11737.972     -41210.666     -40867.399    
     98300   307.91671      19877.367     -41184.318     -40849.306    
     98400   303.24996      9938.5779     -41181.472     -40851.537    
     98500   313.70676      20210.466     -41194.48      -40853.168    
     98600   296.28597      9209.2508     -41193.064     -40870.706    
     98700   281.48303      7137.8448     -41210.794     -40904.542    
     98800   286.7904       18735.764     -41216.605     -40904.579    
     98900   300.89696      9988.3422     -41210.092     -40882.717    
     99000   320.64681      19366.777     -41219.227     -40870.364    
     99100   302.97969      8053.6887     -41196.313     -40866.672    
     99200   302.50011     -178.95482     -41193.386     -40864.267    
     99300   280.95651      14755.851     -41181.56      -40875.881    
     99400   271.05874      13019.497     -41190.8       -40895.89     
     99500   297.84421      6478.8887     -41211.58      -40887.527    
     99600   307.42435      195.86024     -41187.461     -40852.985    
     99700   307.54061      5167.8165     -41178.452     -40843.849    
     99800   308.12601      6300.7536     -41191.043     -40855.803    
     99900   282.64484      2348.8715     -41188.623     -40881.106    
    100000   296.37762      4542.9898     -41206.16      -40883.702    
    100100   283.38177      2905.3364     -41188.419     -40880.101    
    100200   306.30907      13475.766     -41199.279     -40866.016    
    100300   316.85479      3942.1868     -41207.071     -40862.334    
    100400   305.0431       17464.996     -41204.126     -40872.24     
    100500   293.42683      360.19222     -41188.909     -40869.661    
    100600   319.98235      3057.4267     -41216.906     -40868.767    
    100700   298.60039      15352.741     -41201.453     -40876.577    
    100800   285.64799      18396.476     -41186.619     -40875.835    
    100900   304.79295      18950.547     -41202.027     -40870.413    
    101000   296.86704      22001.994     -41184.694     -40861.704    
    101100   318.0829       13058.949     -41192.301     -40846.228    
    101200   298.89209      6298.9848     -41167.024     -40841.831    
    101300   314.32946     -3241.4157     -41203.665     -40861.676    
    101400   294.06672     -3219.9915     -41208.903     -40888.96     
    101500   295.85506      8993.0614     -41213.159     -40891.27     
    101600   297.42203     -1834.4409     -41198.86      -40875.266    
    101700   325.62612      15581.078     -41193.16      -40838.88     
    101800   298.49846      26383.001     -41175.357     -40850.592    
    101900   294.63609      8410.2077     -41197.828     -40877.265    
    102000   301.05627      1911.8533     -41209.295     -40881.747    
    102100   306.09147      9792.8848     -41199.688     -40866.662    
    102200   326.49362      2299.4791     -41187.839     -40832.616    
    102300   315.63265      28702.578     -41172.23      -40828.823    
    102400   291.90807      16427.767     -41193.768     -40876.173    
    102500   283.77986      24997.656     -41189.806     -40881.055    
    102600   291.05077      23814.694     -41188.184     -40871.522    
    102700   295.15276      1389.3383     -41180.16      -40859.035    
    102800   316.63487     -1514.5056     -41181.447     -40836.95     
    102900   290.90699     -4630.0145     -41145.304     -40828.799    
    103000   307.48549     -1886.898      -41182.99      -40848.448    
    103100   306.26741      20132.451     -41213.042     -40879.824    
    103200   286.00857      15284.927     -41195.443     -40884.267    
    103300   292.53752      19321.329     -41193.764     -40875.484    
    103400   308.46638      14691.518     -41177.252     -40841.642    
    103500   296.02731      16502.549     -41157.402     -40835.326    
    103600   303.20453      8418.785      -41180.784     -40850.899    
    103700   318.55477      2781.9404     -41215.971     -40869.384    
[...]
    174300   290.66825      3939.4524     -41195.348     -40879.102    
    174400   269.98538      21201.115     -41171.448     -40877.705    
    174500   298.65497     -2439.0273     -41174.286     -40849.351    
    174600   323.68386      4782.6479     -41194.422     -40842.256    
    174700   294.35608      4172.5581     -41193.436     -40873.178    
    174800   289.2793       6942.7503     -41207.156     -40892.421    
    174900   304.23089     -3793.3446     -41219.579     -40888.577    
    175000   293.20816      13441.643     -41190.42      -40871.411    
    175100   295.78213      21760.429     -41173.119     -40851.309    
    175200   306.05017      429.97608     -41189.75      -40856.769    
    175300   308.14759      16237.397     -41206.706     -40871.443    
    175400   303.39532      10751.453     -41206.923     -40876.83     
    175500   284.19954      6908.1543     -41182.948     -40873.74     
    175600   313.66157      272.60111     -41178.631     -40837.369    
    175700   313.36422      9851.0014     -41164.082     -40823.143    
    175800   315.17543      7331.6933     -41189.983     -40847.073    
    175900   314.5521       9292.8766     -41204.427     -40862.196    
    176000   296.26527      5517.2644     -41198.213     -40875.877    
    176100   306.69382     -5330.841      -41216.932     -40883.25     
    176200   294.81635      15998.233     -41213.277     -40892.519    
    176300   272.37699      5694.7181     -41194.104     -40897.759    
    176400   308.19206     -371.62181     -41206.096     -40870.785    
    176500   308.55829      14969.25      -41189.47      -40853.76     
    176600   320.55731     -8620.278      -41201.823     -40853.058    
    176700   289.47455      5902.7856     -41192.925     -40877.978    
    176800   268.68599      3741.9303     -41192.076     -40899.747    
    176900   292.112        14985.501     -41202.196     -40884.379    
    177000   289.44405     -2947.2027     -41186.686     -40871.772    
    177100   293.32901      6643.4553     -41182.705     -40863.564    
    177200   299.06001      2859.9079     -41185.544     -40860.168    
    177300   316.98935      3090.6611     -41201.593     -40856.71     
    177400   289.43281      23276.967     -41193.295     -40878.394    
    177500   281.36145      10031.58      -41198.72      -40892.6      
    177600   289.51358      13592.048     -41191.812     -40876.822    
    177700   308.05313      13288.01      -41184.361     -40849.201    
    177800   306.75597      12501.143     -41181.269     -40847.52     
    177900   318.52312      14414.25      -41210.001     -40863.449    
    178000   273.86353      3158.1387     -41184.381     -40886.418    
    178100   281.76602      18569.922     -41189.789     -40883.229    
    178200   288.87624      18741.613     -41187.888     -40873.592    
    178300   306.33862      1434.2743     -41188.303     -40855.008    
    178400   328.42554      5395.454      -41198.185     -40840.859    
    178500   303.24866      20519.625     -41179.083     -40849.15     
    178600   298.73548      4608.6023     -41213.799     -40888.776    
    178700   276.7637       17513.057     -41197.465     -40896.347    
    178800   301.39872      343.10035     -41204.237     -40876.317    
    178900   298.75142      4169.6819     -41182.324     -40857.284    
    179000   285.35053      758.28065     -41166.21      -40855.75     
    179100   296.03219      15815.78      -41181.11      -40859.028    
    179200   297.03398      15538.922     -41183.067     -40859.895    
    179300   297.05102      9824.2401     -41185.022     -40861.832    
    179400   299.18431      2888.2502     -41201.034     -40875.523    
    179500   279.65776      16748.144     -41213.115     -40908.848    
    179600   303.15729      11752.701     -41222.879     -40893.045    
    179700   300.9235       13342.033     -41196.257     -40868.854    
    179800   308.54474      9518.5145     -41194.641     -40858.946    
    179900   321.81739      1012.9143     -41204.725     -40854.589    
    180000   307.19026      1832.1634     -41192.379     -40858.158    
    180100   294.44743      12471.514     -41199.922     -40879.564    
    180200   285.50531      2470.2207     -41210.443     -40899.814    
    180300   288.70266      4238.8298     -41197.672     -40883.564    
    180400   306.28937      11092.228     -41194.442     -40861.201    
    180500   310.86312      14161.417     -41199.263     -40861.045    
    180600   292.53426      30348.994     -41181.796     -40863.52     
    180700   306.90759      11428.937     -41197.872     -40863.958    
    180800   296.70895      6143.6193     -41187.696     -40864.878    
    180900   290.909        11429.372     -41186.844     -40870.336    
    181000   291.16781      14025.909     -41205.622     -40888.833    
    181100   289.85237      36320.359     -41199.87      -40884.512    
    181200   314.01256      6102.1778     -41195.539     -40853.895    
    181300   317.0572       5262.0456     -41185.216     -40840.26     
    181400   292.25753      16447.403     -41162.883     -40844.908    
    181500   296.62794      5519.8903     -41177.193     -40854.463    
    181600   312.78057      23321.765     -41195.59      -40855.286    
    181700   298.55703      6360.3964     -41184.328     -40859.499    
    181800   301.57998      6448.9325     -41198.481     -40870.363    
    181900   294.63311      10246.819     -41209.575     -40889.015    
    182000   281.02683      3711.2081     -41220.752     -40914.996    
    182100   289.18993      19003.168     -41217.647     -40903.009    
    182200   277.96039      25714.709     -41178.775     -40876.355    
    182300   305.9252       11973.706     -41196.399     -40863.554    
    182400   305.63232      4662.5058     -41192.344     -40859.817    
    182500   313.75567      14074.394     -41197.817     -40856.452    
    182600   311.94829     -2346.476      -41194.142     -40854.744    
    182700   294.90653     -460.61636     -41180.621     -40859.764    
    182800   306.39973      3428.7217     -41200.394     -40867.032    
    182900   298.47358      4270.4162     -41211.864     -40887.126    
    183000   293.25703      16126.813     -41204.49      -40885.427    
    183100   296.30835      7355.8759     -41172.88      -40850.498    
    183200   295.88038      1253.6339     -41160.962     -40839.045    
    183300   309.24551      18100.665     -41181.61      -40845.152    
    183400   313.344        2303.5372     -41202.359     -40861.442    
    183500   297.71934     -97.779714     -41200.844     -40876.927    
    183600   308.18595      8374.7324     -41212.66      -40877.355    
    183700   309.74097     -11988.492     -41210.044     -40873.047    
    183800   306.91378      7408.1754     -41187.346     -40853.425    
    183900   311.73459      8238.9436     -41172.199     -40833.033    
    184000   301.17211     -2510.8939     -41170.428     -40842.754    
    184100   300.74978      10998.089     -41216.047     -40888.833    
    184200   287.54133      4842.8471     -41203.493     -40890.65     
    184300   298.63932      2702.8602     -41192.559     -40867.64     
    184400   308.43789      283.14334     -41187.892     -40852.313    
    184500   316.56015      10962.008     -41181.575     -40837.159    
    184600   314.48699      1889.7095     -41187.237     -40845.076    
    184700   288.71895      10724.959     -41201.96      -40887.835    
    184800   292.27233      14773.733     -41198.75      -40880.759    
    184900   309.25709      6944.9917     -41196.814     -40860.344    
    185000   297.25979      5263.2738     -41168.798     -40845.38     
    185100   314.98755      3970.9751     -41184.555     -40841.85     
    185200   297.75022      8637.4946     -41198.186     -40874.235    
    185300   293.70185     -5751.0822     -41206.438     -40886.891    
    185400   290.74557      16231.541     -41190.861     -40874.531    
    185500   307.43858      4764.9715     -41183.239     -40848.747    
    185600   314.49685     -7398.3893     -41175.05      -40832.878    
    185700   314.34348      17416.153     -41186.356     -40844.352    
    185800   273.45805      5022.2386     -41190.874     -40893.353    
    185900   287.10656      22487.048     -41208.316     -40895.945    
    186000   302.3909       1681.2664     -41203.32      -40874.32     
    186100   318.63694      32510.462     -41197.261     -40850.585    
    186200   290.62656      11668.906     -41164.12      -40847.92     
    186300   304.31785      3570.0155     -41185.978     -40854.881    
    186400   300.56374      13184.277     -41199.625     -40872.613    
    186500   289.57141      21444.423     -41208.034     -40892.982    
    186600   289.8583       6360.0984     -41205.103     -40889.739    
    186700   304.60447      6604.6853     -41183.218     -40851.81     
    186800   291.4801       11774.286     -41155.766     -40838.637    
    186900   311.90532      3013.9992     -41180.694     -40841.343    
    187000   294.67401      1136.5641     -41184.287     -40863.683    
    187100   306.66604      2332.1414     -41212.078     -40878.427    
    187200   289.80814      7187.6136     -41193.103     -40877.793    
    187300   301.63003      6214.3739     -41198.348     -40870.175    
    187400   293.95982      23759.676     -41184.056     -40864.229    
    187500   304.29999      2955.6464     -41176.002     -40844.925    
    187600   314.72041      21105.617     -41174.806     -40832.392    
    187700   301.87463      4453.9725     -41173.949     -40845.511    
    187800   296.82316      4413.1957     -41201.162     -40878.219    
    187900   296.74622      10981.064     -41205.601     -40882.742    
    188000   301.20964      706.05299     -41194.265     -40866.55     
    188100   305.88109      16125.718     -41171.692     -40838.895    
    188200   327.35527      23596.481     -41173.699     -40817.538    
    188300   325.41983      17848.193     -41139.257     -40785.202    
    188400   322.04978      16399.125     -41155.403     -40805.015    
    188500   315.646        13994.269     -41185.041     -40841.62     
    188600   303.77451      13373.836     -41198.531     -40868.026    
    188700   284.31522      11884.838     -41189.977     -40880.644    
    188800   286.39413      15398.269     -41181.294     -40869.699    
    188900   301.73809      7526.3429     -41173.619     -40845.329    
    189000   324.12796      20636.247     -41179.107     -40826.458    
    189100   299.34742      16952.173     -41179.69      -40854.001    
    189200   317.66945      13679.704     -41222.007     -40876.384    
    189300   308.51956      7069.4736     -41205.216     -40869.548    
    189400   303.40134     -2967.0081     -41193.442     -40863.343    
    189500   291.41387      14873.203     -41169.423     -40852.366    
    189600   314.09902     -955.62925     -41165.686     -40823.948    
    189700   305.15989      7310.6623     -41165.71      -40833.698    
    189800   298.74336      26976.176     -41195.501     -40870.47     
    189900   311.03854      9257.3325     -41210.686     -40872.277    
    190000   294.63514      3909.3684     -41189.718     -40869.156    
    190100   310.46335      7688.802      -41200.042     -40862.259    
    190200   313.55904      18492.679     -41191.068     -40849.917    
    190300   310.34444      9315.2985     -41171.993     -40834.339    
    190400   295.15122      17918.78      -41169.681     -40848.558    
    190500   283.72754      18041.368     -41186.358     -40877.664    
    190600   290.87369      527.69603     -41197.948     -40881.479    
    190700   296.42219      16144.665     -41188.225     -40865.719    
    190800   296.96886      11457.126     -41160.103     -40837.002    
    190900   319.93635      15398.541     -41190.134     -40842.045    
    191000   306.12877      22741.149     -41184.403     -40851.336    
    191100   306.44271      2665.7395     -41202.704     -40869.296    
    191200   289.99055      16600.839     -41201.429     -40885.92     
    191300   293.33085      17293.6       -41214.312     -40895.169    
    191400   300.58764      16173.492     -41203.111     -40876.073    
    191500   316.38749      4663.1094     -41188.665     -40844.437    
    191600   305.16637      12251.147     -41174.362     -40842.342    
    191700   304.37215      20107.179     -41183.635     -40852.479    
    191800   293.79376      15056.744     -41185.656     -40866.01     
    191900   288.98896     -216.01692     -41217.927     -40903.509    
    192000   294.09226      4418.3807     -41235.318     -40915.347    
    192100   277.68132      4919.4762     -41197.869     -40895.753    
    192200   296.60558      11306.45      -41189.829     -40867.124    
    192300   303.82003      16168.886     -41185.162     -40854.607    
    192400   301.28089      8923.2083     -41177.937     -40850.145    
    192500   313.11374      4017.5923     -41183.306     -40842.639    
    192600   322.47962     -1158.3977     -41179.022     -40828.165    
    192700   301.55443      18265.431     -41176.734     -40848.644    
    192800   277.47031      8603.6439     -41175.99      -40874.104    
    192900   291.02358      13585.269     -41189.814     -40873.182    
    193000   316.49642      10379.758     -41215.76      -40871.413    
    193100   283.48308      23853.856     -41201.369     -40892.94     
    193200   290.04826      12448.221     -41230.399     -40914.827    
    193300   273.00339      1722.9953     -41193.234     -40896.207    
    193400   295.40479      18120.059     -41188.411     -40867.012    
    193500   288.13397      3428.0882     -41173.298     -40859.809    
    193600   298.97317      1229.1174     -41187.036     -40861.754    
    193700   291.77295      3129.4414     -41186.769     -40869.322    
    193800   308.22517      20281.779     -41206.427     -40871.079    
    193900   305.59483      14058.101     -41211.244     -40878.759    
    194000   295.67067      7584.3518     -41210.032     -40888.344    
    194100   289.12564      15471.528     -41192.927     -40878.36     
    194200   316.52629      3078.4485     -41191.769     -40847.39     
    194300   320.28268      19661.941     -41188.109     -40839.643    
    194400   297.55157      11047.338     -41171.93      -40848.195    
    194500   285.02197      18435.314     -41196.021     -40885.918    
    194600   282.30834      18874.306     -41209.249     -40902.099    
    194700   298.93166      11416.524     -41208.819     -40883.583    
    194800   300.0909      -8648.4822     -41190.02      -40863.523    
    194900   308.91771      24340.352     -41193.38      -40857.279    
    195000   290.07694      13207.243     -41172.979     -40857.377    
    195100   301.89126      3509.613      -41206.778     -40878.322    
    195200   286.79407      7648.0376     -41207.052     -40895.021    
    195300   304.65585      3314.7772     -41214.661     -40883.197    
    195400   315.39471     -5242.99       -41201.669     -40858.521    
    195500   298.12838     -2103.4652     -41174.714     -40850.351    
    195600   296.51917      13643.317     -41188.294     -40865.682    
    195700   290.14491      20225.804     -41224.635     -40908.958    
    195800   277.64719      10755.207     -41202.971     -40900.892    
    195900   289.05236      8667.086      -41188.19      -40873.702    
    196000   312.86999      27674.759     -41200.834     -40860.433    
    196100   295.06326      7426.3788     -41176.561     -40855.533    
    196200   320.46154      8084.6434     -41192.008     -40843.348    
    196300   296.39056      20070.746     -41166.95      -40844.478    
    196400   291.99956      7583.1946     -41180.422     -40862.728    
    196500   302.1093       27758.099     -41209.005     -40880.311    
    196600   291.04827      16460.149     -41205.543     -40888.883    
    196700   298.48712      2325.485      -41203.914     -40879.161    
    196800   308.1296      -248.48174     -41182.479     -40847.236    
    196900   312.89232      22419.791     -41174.655     -40834.229    
    197000   282.5475       9743.9467     -41153.331     -40845.92     
    197100   294.0989       10762.445     -41198.438     -40878.46     
    197200   290.10453     -406.9726      -41196.713     -40881.08     
    197300   328.7248       261.69412     -41231.464     -40873.813    
    197400   281.3429       21592.353     -41173.966     -40867.866    
    197500   309.95194      24869.525     -41174.721     -40837.495    
    197600   319.40917      30031.568     -41163.273     -40815.758    
    197700   325.716        4044.4988     -41194.519     -40840.142    
    197800   301.38786      5100.1377     -41187.88      -40859.971    
    197900   294.33533      6467.6069     -41186.832     -40866.596    
    198000   313.89511      7732.4743     -41200.596     -40859.08     
    198100   313.4147       5424.7631     -41187.183     -40846.189    
    198200   318.00918      12682.257     -41189.402     -40843.41     
    198300   298.8408       19025.797     -41198.602     -40873.464    
    198400   278.3404      -7418.9786     -41190.806     -40887.972    
    198500   294.32652      2089.3019     -41210.147     -40889.921    
    198600   296.00209      5050.6441     -41177.186     -40855.137    
    198700   311.29255      5495.0435     -41176.64      -40837.955    
    198800   321.06654     -440.87776     -41201.882     -40852.563    
    198900   282.14995      3538.0424     -41188.319     -40881.342    
    199000   293.6159      -3541.5813     -41198.237     -40878.784    
    199100   305.44283      6833.922      -41200.074     -40867.753    
    199200   313.5309       6652.7116     -41193.194     -40852.073    
    199300   333.07266      17791.939     -41176.942     -40814.561    
    199400   314.58081      8220.3087     -41167.355     -40825.093    
    199500   289.1899       13591.386     -41170.913     -40856.276    
    199600   305.85781      6813.4306     -41201.953     -40869.181    
    199700   305.00982      6435.2114     -41220.795     -40888.945    
    199800   266.68512      13089.087     -41184.491     -40894.339    
    199900   293.22012      7505.4731     -41178.726     -40859.704    
    200000   326.30211      8430.545      -41200.028     -40845.013    
Loop time of 18730.5 on 8 procs for 200000 steps with 366 atoms

Performance: 0.461 ns/day, 52.029 hours/ns, 10.678 timesteps/s, 3.908 katom-step/s
85.5% CPU use with 4 MPI tasks x 2 OpenMP threads

MPI task timing breakdown:
Section |  min time  |  avg time  |  max time  |%varavg| %total
---------------------------------------------------------------
Pair    | 12012      | 12155      | 12313      | 126.8 | 64.89
Bond    | 0.59112    | 0.67648    | 0.75733    |   7.5 |  0.00
Neigh   | 115.11     | 120.06     | 124.78     |  31.4 |  0.64
Comm    | 3710.7     | 3881.8     | 4039       | 243.7 | 20.72
Output  | 5.0082     | 6.7377     | 9.1812     |  68.7 |  0.04
Modify  | 2531.7     | 2544.1     | 2556.1     |  18.8 | 13.58
Other   |            | 22.07      |            |       |  0.12

Nlocal:           91.5 ave         100 max          78 min
Histogram: 1 0 0 0 0 0 1 0 1 1
Nghost:        4303.75 ave        4390 max        4219 min
Histogram: 1 0 0 1 0 0 1 0 0 1
Neighs:        63806.2 ave       69730 max       54981 min
Histogram: 1 0 0 0 0 1 0 0 1 1

Total # of neighbors = 255225
Ave neighs/atom = 697.33607
Ave special neighs/atom = 0
Neighbor list builds = 2194
Dangerous builds = 0
System init for write_data ...
WARNING: Compute rdf cutoff less than neighbor cutoff - forcing a needless neighbor list build (src/compute_rdf.cpp:179)
Total wall time: 5:12:46
