ITEM: TIMESTEP
0
ITEM: NUMBER OF ATOMS
371
ITEM: BOX BOUNDS xy xz yz pp pp pp
-8.8510000000000009e+00 1.7777500000000000e+01 -8.8510000000000009e+00
0.0000000000000000e+00 1.3020299999999999e+01 4.5889999999999997e-01
0.0000000000000000e+00 1.8640300000000000e+01 2.0540000000000000e-01
ITEM: ATOMS id type q x y z element
5 4 1.10986 -0.95753 3.06556 4.66472 Si
7 4 0.670743 0.159157 2.64885 7.29431 Si
11 4 0.901664 -0.303767 5.59709 3.46979 Si
14 4 1.07822 -1.43623 4.33153 8.78659 Si
223 3 -0.727834 -0.00904916 3.48619 5.91385 O
225 3 -0.764281 -0.777582 4.02059 3.32088 O
227 3 -0.686855 -1.04108 2.78944 8.35882 O
229 3 -0.694852 -1.84907 5.29657 7.51907 O
317 2 0.0729301 -1.00878 3.82197 1.16777 H
104 2 0.0148419 1.99336 2.48938 8.93699 H
2 2 0.23627 1.40756 1.79102 1.23527 H
70 2 0.0864393 -0.353088 3.67074 1.02885 H
16 4 0.863668 -3.07855 6.3531 7.36917 Si
80 2 0.370308 0.0624323 5.44434 5.83254 H
68 2 0.0332425 0.136122 0.929676 7.02716 H
71 2 -0.0138164 -2.02351 5.37446 0.105095 H
192 1 -0.093994 1.89796 3.19448 8.09036 C
102 2 0.0868794 1.72496 4.25116 8.3698 H
97 2 0.27754 1.3475 2.90997 2.46795 H
13 4 0.688283 -0.800573 6.40016 0.80629 Si
258 3 -0.678735 2.04539 2.40473 1.9192 O
333 2 0.0386624 1.97547 0.620226 5.62247 H
255 3 -0.673306 0.678179 5.98613 0.199664 O
244 3 -0.6612 0.0161879 6.36367 5.29633 O
324 2 0.0675151 3.81207 1.62366 8.72495 H
322 2 0.0114602 2.29284 0.71641 8.30628 H
89 2 0.0785662 3.23447 1.23625 3.18367 H
103 2 0.0601571 2.55244 3.07779 7.22147 H
35 4 0.616425 4.14862 4.81535 5.78836 Si
32 4 0.617134 2.99063 3.65991 0.546351 Si
343 1 -0.0831635 3.46432 5.47603 1.39789 C
245 3 -0.681594 4.36106 2.91713 0.166897 O
243 3 -0.648541 6.64284 1.71518 0.485168 O
342 2 0.0454385 4.50833 5.62552 1.17949 H
325 1 -0.113107 3.37074 0.755327 8.22608 C
341 2 0.097483 2.86353 6.24596 0.912878 H
203 1 -0.134692 5.35182 2.14813 3.24588 C
323 2 0.0419668 3.75144 0.573747 7.22682 H
133 2 0.024294 5.93141 3.0106 3.45998 H
135 2 0.0343878 4.24921 2.23813 3.49903 H
249 3 -0.653089 2.71503 5.26335 5.17878 O
340 2 0.107627 3.23121 5.32349 2.43919 H
134 2 0.0138296 5.82956 1.22536 3.47227 H
30 4 0.624747 5.15088 1.7248 1.03919 Si
250 3 -0.682322 4.42196 4.98376 7.39672 O
129 2 0.0569284 7.88477 0.606681 2.42171 H
33 4 0.984316 5.72604 4.43254 8.39681 Si
130 2 0.0510426 3.21813 0.036394 1.00816 H
345 2 0.0922071 7.29849 1.85413 8.97464 H
246 3 -0.772873 5.53183 2.96765 9.18025 O
139 2 0.0880048 2.53711 6.46184 8.42772 H
17 4 0.72372 -0.422331 4.49052 15.1351 Si
18 4 0.634907 -0.770619 6.03407 12.6258 Si
37 4 0.789207 1.38361 5.45828 17.3982 Si
73 2 0.0392396 -1.78237 4.86738 11.9116 H
110 2 0.0521035 0.641882 2.64086 10.3426 H
111 2 0.089224 0.951601 4.07404 11.4556 H
112 2 0.0403005 0.0813391 2.61577 12.0979 H
114 2 0.0622806 0.134999 2.16181 14.3295 H
115 2 0.0361805 0.0664683 2.27009 16.1064 H
195 1 -0.0992016 0.777075 3.00392 11.3566 C
196 1 -0.0903878 0.50323 2.68943 15.2119 C
231 3 -0.665112 0.0757649 5.24203 13.7854 O
253 3 -0.710361 0.144134 5.40189 16.4242 O
326 2 0.0413737 -0.760837 3.41627 17.7287 H
113 2 0.110631 1.56236 2.88634 15.2263 H
247 3 -0.791311 -0.204557 4.93436 9.64184 O
254 3 -0.666252 1.91239 3.57411 17.8974 O
78 2 0.299589 2.35823 3.23677 17.0357 H
144 2 0.0832755 1.94265 6.42629 12.5682 H
96 2 0.273113 -2.43664 4.89195 15.8936 H
34 4 0.9648 0.408675 6.44254 9.91838 Si
252 3 -0.806749 6.66873 3.32789 14.1404 O
143 2 0.0582146 2.70023 5.10048 11.6262 H
238 3 -0.76148 3.92133 3.07698 11.382 O
239 3 -0.778246 3.45479 1.58808 16.0768 O
319 2 0.345706 5.7813 0.553665 14.3879 H
206 1 -0.0905063 2.56729 5.59624 12.5545 C
205 1 -0.0759932 2.5224 6.25991 9.49049 C
140 2 0.071109 2.89985 5.26894 9.73505 H
142 2 0.0827745 2.5304 4.98014 13.4269 H
153 2 0.0807452 3.84897 5.90436 16.7255 H
224 3 -0.740921 2.8406 2.26417 13.6159 O
344 2 0.113258 8.06847 0.335224 9.54511 H
36 4 1.12181 5.40941 4.25074 14.4212 Si
10 4 0.613502 2.66956 2.29912 11.9894 Si
240 3 -0.723696 6.15753 1.56868 16.4729 O
251 3 -0.783944 4.62202 3.87085 15.7895 O
242 3 -0.763424 7.78095 0.979156 13.6891 O
8 4 1.18333 3.1683 1.0219 14.5725 Si
241 3 -0.827611 6.69283 2.2445 11.5688 O
24 4 0.756677 7.40362 1.39378 17.5195 Si
26 4 1.0833 5.34242 2.7162 10.766 Si
28 4 1.15664 4.75817 2.41674 16.5997 Si
69 2 0.214657 5.39912 0.304634 10.7902 H
209 1 -0.0827777 2.97227 6.53845 16.5729 C
321 2 0.300426 5.96513 0.356158 12.9161 H
152 2 0.0612212 2.71547 6.5762 15.5154 H
12 4 0.910267 -4.21651 6.67499 4.57235 Si
21 4 0.654805 -3.62694 10.2531 7.77285 Si
74 2 0.0535577 -4.12173 8.97922 6.68748 H
105 2 0.0217233 -3.42926 8.96462 3.74992 H
106 2 0.0421771 -4.36515 8.19778 2.37669 H
107 2 0.0881425 -2.70846 7.55838 2.78989 H
202 1 -0.122603 -4.57495 12.6564 1.048 C
193 1 -0.118693 -3.58159 8.08293 3.11628 C
208 1 -0.138778 -2.55405 11.3571 6.38545 C
228 3 -0.739729 -3.51291 7.02199 5.97599 O
234 3 -0.706641 -2.83387 9.60597 9.02432 O
235 3 -0.628288 -5.05743 10.9057 8.09008 O
332 2 0.0655302 -6.00911 11.9808 6.2802 H
334 1 -0.127253 -6.31124 12.5475 5.40512 C
331 2 0.00974904 -5.55409 12.5985 4.65036 H
132 2 0.0473587 -4.1863 12.3263 0.0943876 H
131 2 0.0119402 -4.23099 12.1108 1.90983 H
109 2 0.014983 -2.64001 7.72444 0.305803 H
148 2 0.00874615 -2.99428 11.1164 5.4304 H
123 2 0.0193206 -5.67179 10.254 3.48805 H
150 2 0.034678 -2.80319 12.3592 6.74182 H
370 3 -0.666516 -8.25265 12.2651 3.26428 O
199 1 -0.0967537 -6.53442 9.72914 3.8447 C
6 4 0.425596 -4.85637 12.0797 9.22394 Si
1 4 0.661729 -8.0949 12.0442 1.69487 Si
75 2 0.0061782 -2.67512 10.3175 2.48077 H
19 4 0.672105 -7.68858 11.3753 4.50382 Si
40 4 0.251855 1.26488 9.61373 4.17878 Si
226 3 -0.715133 -0.895903 6.5783 2.38757 O
147 2 0.0361781 -1.25299 9.6153 5.02858 H
201 1 -0.147112 -0.914668 12.3479 2.40902 C
108 2 0.0356682 -1.25354 8.81639 0.478857 H
79 2 0.00254071 2.71818 7.74723 6.1831 H
42 4 0.670007 0.51532 9.1766 8.45074 Si
149 2 0.0236021 -1.5329 11.0876 6.54356 H
260 3 -0.75795 1.83769 8.76617 1.29122 O
31 4 0.789324 2.03727 6.68598 4.94891 Si
207 1 -0.0931141 -0.767821 9.23606 4.15343 C
87 2 -0.00212559 0.260616 9.34476 6.76561 H
145 2 0.111922 -0.748571 8.15328 4.11575 H
146 2 0.0298306 -1.11547 9.69773 3.23885 H
128 2 0.0253519 -1.30722 11.9329 1.48908 H
262 3 -0.643728 -0.100068 7.78065 9.06451 O
257 3 -0.744477 2.5696 7.04165 3.47614 O
298 3 -0.666718 2.16136 9.31918 8.66428 O
335 2 0.00822479 -1.27311 11.8944 3.31352 H
39 4 1.08411 2.80148 8.38437 2.54748 Si
86 2 0.11675 -0.375391 10.4629 9.2696 H
22 4 0.286427 -2.81493 11.0143 14.4282 Si
312 2 0.0427724 -4.54994 10.1372 18.0841 H
100 2 0.0699184 -5.41451 11.788 11.7472 H
191 1 -0.079065 -6.09953 11.713 10.9219 C
200 1 -0.0926974 -4.22616 9.58373 14.3118 C
232 3 -0.728635 -4.96641 9.0105 10.7184 O
101 2 0.129324 -6.40031 10.6939 10.708 H
263 3 -0.764606 -2.40438 9.19313 11.543 O
310 2 0.0212815 -5.33474 9.20035 16.7494 H
20 4 1.18315 -3.38446 8.76734 10.3207 Si
125 2 0.084649 -4.32899 9.31127 13.2594 H
315 3 -0.713327 -6.79739 11.7152 17.2055 O
127 2 0.0217288 -3.81861 8.77545 14.8958 H
126 2 0.059102 -5.13243 9.99821 14.7401 H
236 3 -0.725809 -3.53941 12.8621 13.6868 O
121 2 0.0620717 -2.80432 7.36384 12.7365 H
120 2 0.0469022 -2.34497 6.65266 14.3055 H
93 2 0.278306 -2.37813 6.65823 9.52375 H
99 2 0.00929325 -6.94638 12.4371 10.986 H
237 3 -0.675806 -2.97655 12.4789 10.0445 O
316 3 -0.802245 -6.79033 12.7203 14.6817 O
88 2 0.279576 -2.65542 11.7051 10.4931 H
313 1 -0.131459 -5.25661 9.36229 17.8301 C
311 2 0.0332474 -5.21017 8.4737 18.4425 H
198 1 -0.0935434 -2.06207 7.27997 13.4789 C
314 4 1.13751 -7.67485 12.0929 15.9151 Si
233 3 -0.711685 -3.32756 6.81834 9.32913 O
248 3 -0.669322 0.175826 6.78545 11.5282 O
154 2 0.0685591 1.07514 7.32749 14.3757 H
194 1 -0.12783 -1.18896 8.17738 18.6003 C
119 2 0.0735282 -1.67127 8.21212 13.8006 H
151 2 0.0905447 2.96679 7.49507 17.0241 H
141 2 0.0821224 2.93358 7.08967 10.0853 H
27 4 1.08382 0.0157514 12.636 13.5797 Si
156 2 0.0714604 0.390103 8.98415 14.8265 H
266 3 -0.724253 0.0392047 10.2468 11.1958 O
339 1 -0.115125 -0.660753 12.1944 17.3719 C
330 2 0.0335558 -1.0408 8.11607 17.5386 H
336 2 0.100794 -0.0881722 12.2085 16.4491 H
155 2 0.107244 0.416951 8.48878 13.0904 H
320 2 -0.0354131 0.702672 10.0357 18.1574 H
264 3 -0.700588 -0.984866 10.7084 13.5985 O
210 1 -0.0926595 0.851305 8.35221 14.0743 C
43 4 0.979129 -1.37975 10.3944 12.008 Si
337 2 0.0226516 -1.5202 11.535 17.2844 H
45 4 0.960417 1.46122 10.9267 11.4417 Si
338 2 0.0297591 -0.0602719 12.0635 18.2571 H
38 4 1.12675 4.41368 6.69033 12.8326 Si
25 4 0.268471 9.57475 1.52965 8.0124 Si
137 2 0.0524968 5.24434 5.74284 3.72727 H
157 2 0.0636186 10.5649 1.51733 5.69779 H
158 2 0.0148313 9.00635 1.53188 4.6661 H
159 2 0.0343185 9.77124 3.09807 5.19028 H
171 2 0.0318385 8.80319 4.86478 5.66034 H
172 2 0.052196 8.857 6.09531 4.37554 H
211 1 -0.141535 9.91312 2.05494 5.01687 C
366 2 0.0991878 8.31359 3.4382 1.36698 H
368 2 0.0509045 8.36351 4.22272 3.00728 H
77 2 0.00575837 8.79333 2.54998 6.88788 H
369 1 -0.0817201 8.01638 4.27521 1.96358 C
357 2 0.124936 10.6209 2.18106 0.6232 H
56 4 0.319595 9.19074 5.9239 1.26332 Si
81 2 -0.0355189 6.91914 4.1937 7.20109 H
367 2 0.0415459 7.00204 4.5388 1.80483 H
282 3 -0.626142 10.6257 6.03648 1.95307 O
138 2 0.00260254 6.37136 4.68015 4.66136 H
216 1 -0.125517 8.78609 5.90864 5.4328 C
204 1 -0.128796 5.69897 5.50823 4.67536 C
269 3 -0.740353 10.7547 0.783798 2.51269 O
280 3 -0.75059 10.8765 3.36017 2.54352 O
136 2 0.0523014 6.04134 6.34168 5.2406 H
161 2 0.0740341 10.1167 5.44937 9.21848 H
271 3 -0.572083 10.9853 2.21463 8.42644 O
57 4 0.846874 12.5046 4.63116 7.3238 Si
360 2 0.0677696 13.977 4.24329 1.21309 H
166 2 0.0284879 13.1415 5.53445 0.331469 H
272 3 -0.775762 15.0872 2.15764 5.06128 O
355 2 0.119199 13.7711 1.55906 8.91125 H
371 3 -0.733485 13.0281 0.523984 0.212325 O
274 3 -0.751829 13.077 0.869442 6.52154 O
214 1 -0.0964061 13.0553 4.56968 0.709394 C
47 4 1.10784 11.184 2.04925 3.40489 Si
273 3 -0.770259 12.6625 2.0964 4.02684 O
281 3 -0.650885 13.2142 4.92316 3.63077 O
349 2 0.0191123 16.1934 1.05114 1.61237 H
288 3 -0.720925 11.2163 5.62262 7.26381 O
3 2 0.355399 12.8995 4.16418 4.27147 H
284 3 -0.758999 13.2258 3.74035 6.16555 O
283 3 -0.665175 13.1758 3.83846 9.07637 O
348 2 0.0897342 14.4622 1.52259 2.12669 H
351 1 -0.102503 15.2318 0.770535 2.06727 C
51 4 1.36154 13.5355 2.2138 5.5841 Si
55 4 0.829025 11.6163 4.80458 2.30775 Si
167 2 0.0818602 12.6578 3.88096 0.029792 H
350 2 0.0861816 15.3388 0.136494 2.93982 H
329 2 0.051178 14.7202 2.48892 0.0057809 H
82 2 0.301078 8.85185 2.41961 15.5682 H
163 2 0.0673093 9.5409 3.66242 13.8746 H
164 2 0.0326753 8.79843 4.31259 12.3003 H
165 2 0.0763511 9.80722 2.83378 12.2347 H
213 1 -0.103176 9.22117 3.47128 12.808 C
256 3 -0.788184 5.3846 5.70835 13.6264 O
356 2 0.0917424 10.4701 2.75021 17.6221 H
278 3 -0.696635 8.53188 2.87914 16.4488 O
318 2 0.347616 7.93084 3.36875 15.9575 H
162 2 0.027703 9.99899 5.0891 10.9504 H
364 2 0.0584028 10.059 5.27303 17.5619 H
347 2 0.101064 8.4493 1.95351 10.3133 H
362 1 -0.107405 9.64341 6.22526 17.8373 C
363 2 0.0407266 8.59126 6.35622 17.6018 H
175 2 0.0980716 7.49411 6.51045 13.9596 H
212 1 -0.116361 9.85408 4.71259 9.96457 C
160 2 0.0523044 8.90035 4.19738 9.80436 H
92 2 0.333603 10.298 0.857113 11.8028 H
358 2 0.0685488 10.1942 1.08811 18.3756 H
359 1 -0.0579448 10.7706 1.97178 18.3154 C
117 2 0.0274226 10.8008 6.13754 12.8474 H
29 4 1.06802 7.39822 2.44392 12.9673 Si
346 1 -0.0385921 8.14395 1.4089 9.43741 C
285 3 -0.794345 6.33748 5.50668 9.42231 O
230 3 -0.670493 14.8319 4.29628 15.156 O
354 1 -0.12006 14.2106 0.732052 9.48276 C
90 2 -0.00479002 15.7231 0.544088 12.461 H
116 2 0.0401364 12.2512 5.99692 11.815 H
353 2 0.051506 15.258 0.760441 9.71568 H
53 4 1.16283 11.5895 0.506088 14.6945 Si
60 4 0.662221 13.4227 2.60635 13.5814 Si
54 4 0.634545 13.1209 1.43889 11.2118 Si
72 2 0.265461 13.3511 4.70734 9.54593 H
290 3 -0.65055 13.8559 2.62964 11.9919 O
52 4 0.524245 14.5884 0.458755 13.7674 Si
50 4 0.733897 11.3794 3.13774 9.73584 Si
279 3 -0.659768 11.6253 2.01503 10.9369 O
289 3 -0.7098 11.9631 1.96803 14.0704 O
275 3 -0.672678 15.3689 0.800745 15.1594 O
270 3 -0.669859 13.2706 2.63491 16.9354 O
9 4 0.566262 14.6992 2.51522 16.1397 Si
48 4 0.874355 12.6283 1.29989 17.6021 Si
328 2 0.0522961 16.3326 1.6188 17.7736 H
327 1 -0.108535 15.8741 2.59756 17.8675 C
23 4 0.982585 1.24918 12.0694 2.39748 Si
46 4 1.06693 5.37984 12.3198 0.574881 Si
297 3 -0.675702 6.1141 8.44246 9.14344 O
62 4 1.03356 4.99738 10.5064 3.03048 Si
84 2 0.115041 4.43866 8.99244 7.04069 H
179 2 0.102082 3.59285 11.602 4.98084 H
41 4 1.08512 1.79031 10.0057 0.195694 Si
219 1 -0.0704942 4.14596 12.0443 4.1479 C
76 2 0.0696811 1.02258 12.7067 7.41695 H
261 3 -0.725288 1.76164 11.4257 0.969398 O
293 3 -0.752133 4.15211 9.13146 3.09889 O
294 3 -0.686453 5.02025 10.9639 1.44219 O
83 2 0.128564 4.77291 8.5588 7.35548 H
299 3 -0.736974 4.00353 11.2146 7.66758 O
304 3 -0.792855 6.41134 12.0417 6.67259 O
259 3 -0.664796 1.65468 11.124 3.6624 O
65 4 0.766773 3.11296 10.631 8.94785 Si
49 4 1.04753 4.95841 12.4734 7.35997 Si
181 2 0.0765249 4.99967 12.6258 4.45178 H
180 2 0.123026 3.49887 12.5025 3.42014 H
302 3 -0.775873 6.46599 10.3676 3.66206 O
85 2 0.313411 6.94003 9.51444 3.42782 H
187 2 0.071208 8.96727 10.7444 8.11932 H
215 1 -0.0867626 8.0787 7.55209 2.04547 C
168 2 0.09227 8.61244 8.37324 1.53666 H
365 2 0.0480651 7.04947 7.40563 1.7515 H
303 3 -0.734223 6.81693 9.43928 6.5867 O
220 1 -0.0925128 10.3371 8.58943 6.87925 C
124 2 0.0883912 10.1537 9.29189 3.09458 H
287 3 -0.692142 11.5134 6.83478 4.77416 O
301 3 -0.715333 8.55765 10.8019 5.59577 O
221 1 -0.110269 8.33754 10.5011 8.98637 C
59 4 0.652881 10.6174 6.61536 6.10047 Si
64 4 0.658398 7.22337 9.01879 8.15398 Si
66 4 1.23694 6.94426 10.813 5.79848 Si
98 2 0.00760929 8.39367 7.70194 8.02931 H
169 2 0.0489266 8.23852 7.53337 3.10787 H
4 3 -0.635967 9.37973 10.5227 1.0662 O
183 2 0.0598302 11.1152 9.09056 6.37315 H
182 2 0.072701 9.3457 8.83578 6.52943 H
184 2 0.0527101 10.4393 8.5696 7.96677 H
122 2 0.0678357 11.0022 9.07081 4.67782 H
170 2 0.0317838 8.04913 6.49158 5.96618 H
67 4 1.32083 3.83433 10.6385 16.1979 Si
188 2 0.0719715 5.47806 10.2389 9.88426 H
189 2 0.125982 4.30143 9.11631 10.7156 H
190 2 0.0680179 4.42586 10.8518 11.2772 H
222 1 -0.0709579 4.54061 10.1348 10.4507 C
267 3 -0.792125 2.5595 10.0669 12.2204 O
300 3 -0.677743 1.8772 12.0579 9.72056 O
305 3 -0.817716 2.9403 10.1449 14.9462 O
306 3 -0.802446 5.45817 10.7722 16.0104 O
307 3 -0.710178 4.3645 12.3535 13.4853 O
308 3 -0.765566 3.39551 10.1157 17.6411 O
95 2 0.314789 4.4277 11.4423 13.9809 H
63 4 1.26483 6.65351 11.8163 16.3637 Si
58 4 1.29582 6.3541 6.88355 10.2921 Si
286 3 -0.807097 5.18721 6.96322 11.4673 O
277 3 -0.745422 3.48785 12.7888 16.0412 O
265 3 -0.769039 3.8397 7.99326 13.6498 O
268 3 -0.742082 0.695415 12.9318 12.01 O
276 3 -0.771543 1.1568 12.9139 14.7522 O
44 4 1.06833 2.73614 9.22452 13.6173 Si
176 2 0.0579216 6.28896 9.49706 12.1921 H
352 2 -0.0258163 4.8524 12.6127 9.53217 H
91 2 0.316246 2.3078 12.8359 10.1294 H
197 1 -0.126705 11.6657 6.61734 12.4725 C
309 4 0.625219 10.3101 10.3954 18.1423 Si
94 2 0.0228063 10.5215 7.50086 9.76017 H
217 1 -0.0975104 8.37134 7.13321 14.0159 C
185 2 0.0553156 8.85046 9.97102 9.76902 H
361 2 0.0291603 10.2737 7.08417 17.5812 H
177 2 0.0369323 7.50593 10.7239 11.7422 H
296 3 -0.781071 6.80881 12.1466 17.9451 O
291 3 -0.660995 9.81108 8.85203 11.9315 O
178 2 0.0822103 7.35397 10.1537 13.492 H
61 4 0.64483 8.32176 8.23762 12.1723 Si
15 4 0.65452 11.0674 8.14716 11.2355 Si
173 2 0.0542161 8.38262 7.799 14.8493 H
295 3 -0.780818 8.17207 11.4813 15.7473 O
118 2 0.0327254 12.2986 7.11402 13.2369 H
218 1 -0.0949476 7.23175 9.94948 12.4411 C
292 3 -0.727448 7.82663 7.321 10.8938 O
174 2 0.0285877 9.30713 6.59076 13.9418 H
186 2 0.0337507 7.65594 11.2674 9.34636 H
ITEM: TIMESTEP
100
ITEM: NUMBER OF ATOMS
371
ITEM: BOX BOUNDS xy xz yz pp pp pp
-8.8510000000000009e+00 1.7777500000000000e+01 -8.8510000000000009e+00
0.0000000000000000e+00 1.3366671999999999e+01 4.5889999999999997e-01
0.0000000000000000e+00 1.8640300000000000e+01 5.5177199999999971e-01
ITEM: ATOMS id type q x y z element
5 4 1.28831 -1.09172 3.22085 4.8386 Si
7 4 0.68796 0.270856 2.59076 7.30187 Si
11 4 0.916424 -0.170153 5.57084 3.43191 Si
14 4 1.17042 -1.37419 4.3265 8.59118 Si
223 3 -0.759562 0.0414943 3.36694 5.91644 O
225 3 -0.821337 -0.80384 4.10112 3.56401 O
227 3 -0.736608 -0.929121 2.82886 8.34185 O
229 3 -0.755588 -1.8865 5.18598 7.28931 O
317 2 0.0751304 -0.245951 3.1836 1.51522 H
104 2 0.0387942 2.01871 3.23122 8.95114 H
2 2 0.24778 1.32386 1.9014 1.25147 H
70 2 0.0828788 -0.0579067 3.79833 1.23927 H
16 4 0.828531 -2.98739 6.37894 7.31009 Si
80 2 0.368372 -0.506483 5.97856 5.9575 H
68 2 0.0127053 0.60733 0.876583 7.23003 H
71 2 -0.00186037 -2.08867 5.42768 0.409088 H
192 1 -0.0742808 2.06296 3.36424 7.90418 C
102 2 0.124795 1.83037 4.34804 7.57708 H
97 2 0.231097 1.56792 3.3639 2.31987 H
33 4 1.12929 5.74674 4.45221 8.51518 Si
258 3 -0.653679 2.02272 2.46432 1.83704 O
333 2 0.0305077 2.27679 0.531137 5.58265 H
255 3 -0.698139 0.52623 6.05733 0.210574 O
246 3 -0.824833 5.34999 3.11758 9.18766 O
324 2 0.0140582 2.96929 1.51049 9.20218 H
322 2 0.0229088 2.87311 0.837449 7.53 H
89 2 0.094447 2.32162 2.29018 4.58719 H
103 2 0.0505649 2.79953 2.85585 7.30184 H
35 4 0.577914 4.25871 4.87268 5.9654 Si
32 4 0.546537 3.04723 3.55448 0.414755 Si
343 1 -0.0743263 3.21869 5.44333 1.22355 C
245 3 -0.672518 4.54418 2.91213 0.255615 O
243 3 -0.696133 6.86004 1.52769 0.298635 O
342 2 0.0589972 3.65696 6.04778 0.446642 H
325 1 -0.110296 3.49077 1.07109 8.38012 C
341 2 0.114924 2.20171 5.69267 1.39988 H
203 1 -0.13337 5.50696 2.34952 3.10317 C
323 2 0.0878313 4.46155 1.49512 8.13815 H
133 2 0.0238767 6.60009 2.2538 3.17894 H
135 2 0.0390525 5.09045 3.33053 3.00634 H
249 3 -0.623937 2.69009 5.0063 5.51701 O
340 2 0.0662182 3.83893 5.2581 2.10359 H
134 2 0.017778 4.94503 1.71651 3.78806 H
30 4 0.61663 5.33637 1.69409 1.00467 Si
250 3 -0.715974 4.56195 5.06987 7.56919 O
129 2 0.0741449 8.05815 0.664089 1.8807 H
17 4 0.786661 -0.312888 4.59575 15.1402 Si
18 4 0.642996 -0.80508 5.87891 12.6407 Si
37 4 0.786499 1.35544 5.48283 17.4948 Si
73 2 0.0445068 -1.63838 4.62043 11.8615 H
110 2 0.0335953 0.62646 2.62003 10.8147 H
111 2 0.0644657 1.32905 4.26449 11.1982 H
112 2 0.0516539 0.565802 3.30133 12.5213 H
114 2 0.0464018 -0.557922 2.39327 14.2227 H
115 2 0.0449145 0.213457 2.2358 15.8611 H
195 1 -0.102739 1.0713 3.28325 11.5655 C
196 1 -0.112641 0.215172 2.69858 14.8936 C
231 3 -0.691754 0.195246 5.33025 13.827 O
253 3 -0.712213 0.080346 5.38148 16.5175 O
326 2 0.058894 -0.765089 3.56971 17.7228 H
113 2 0.0757279 1.21067 2.79918 14.4829 H
247 3 -0.800926 -0.239754 5.07603 9.43259 O
254 3 -0.673597 1.81783 3.53586 17.8669 O
78 2 0.290431 2.24491 3.08921 17.0712 H
144 2 0.078891 2.02772 6.26393 12.3086 H
230 3 -0.678639 -2.36128 4.38385 15.2221 O
34 4 0.993433 0.466051 6.46026 9.91007 Si
96 2 0.265964 -2.62577 4.82825 16.0229 H
143 2 0.0826325 3.09492 5.02793 11.6372 H
238 3 -0.722101 4.01148 3.15492 11.5053 O
239 3 -0.806073 3.52359 1.56168 16.1227 O
319 2 0.313326 5.59751 0.747959 14.2507 H
206 1 -0.0910467 2.80816 5.56799 12.5072 C
205 1 -0.0745747 2.63966 6.30898 9.51315 C
140 2 0.0638774 2.8534 5.26459 9.685 H
142 2 0.0666144 2.73395 4.95697 13.3783 H
153 2 0.0747587 3.88193 6.08763 17.1254 H
224 3 -0.724733 3.12273 2.28327 13.6576 O
152 2 0.0676073 3.06844 5.85981 15.5979 H
36 4 1.18521 5.30618 4.17598 14.3126 Si
10 4 0.563825 2.74324 2.26601 12.0442 Si
240 3 -0.767652 6.062 1.48347 16.6073 O
251 3 -0.800475 4.96009 3.81395 15.8233 O
242 3 -0.753921 7.7107 1.01069 13.8484 O
8 4 1.14474 3.07247 1.00599 14.6392 Si
241 3 -0.786274 6.5963 2.05981 11.6309 O
24 4 0.869723 7.46794 1.45477 17.4096 Si
26 4 1.05741 5.30157 2.59451 10.7498 Si
28 4 1.23104 4.76227 2.41216 16.6307 Si
321 2 0.314254 5.86514 0.322561 12.7628 H
209 1 -0.0779666 3.03852 6.34874 16.5361 C
345 2 0.0945192 7.37189 1.31779 9.43426 H
12 4 0.86874 -4.34744 6.5887 4.60146 Si
21 4 0.601776 -3.92514 10.0267 7.66218 Si
74 2 0.0637354 -4.14077 8.52914 6.83268 H
105 2 0.0285356 -3.63323 8.93671 3.77331 H
106 2 0.0555607 -4.84607 8.24582 2.65384 H
107 2 0.0694116 -3.10669 7.663 2.59606 H
202 1 -0.119142 -4.38232 12.5876 0.960024 C
193 1 -0.104961 -3.92143 8.09848 3.18599 C
208 1 -0.128202 -2.62464 10.9899 6.4251 C
228 3 -0.734483 -3.45256 7.02984 5.89589 O
234 3 -0.728831 -2.96807 9.64955 8.98084 O
235 3 -0.629843 -5.23494 10.8959 8.0389 O
332 2 0.0832788 -6.00422 11.7722 6.27208 H
334 1 -0.126034 -6.22199 12.3455 5.3986 C
331 2 0.0113029 -5.43298 12.3672 4.65856 H
13 4 0.704862 -0.869962 6.56105 0.800823 Si
131 2 0.0193979 -3.50187 12.0056 1.18256 H
109 2 0.0179691 -2.77165 8.14538 0.347376 H
148 2 0.0125728 -2.76659 10.426 5.507 H
123 2 0.0190137 -5.68589 10.2329 3.34656 H
150 2 0.024847 -3.01529 11.9875 6.39953 H
244 3 -0.669823 -0.00723718 6.47481 5.1736 O
199 1 -0.101365 -6.63647 9.77793 3.60944 C
6 4 0.439109 -4.84207 12.0564 9.10098 Si
1 4 0.656787 -8.02793 12.1223 1.74953 Si
75 2 0.00584694 -3.79931 11.1806 2.57406 H
233 3 -0.693402 -3.18172 6.99533 9.25061 O
40 4 0.286571 1.27187 9.75158 4.18442 Si
226 3 -0.676995 -0.807476 6.69741 2.40508 O
147 2 0.019929 -1.04346 10.1789 4.63607 H
201 1 -0.141426 -0.794415 12.5202 2.37026 C
108 2 0.0323418 -1.23207 8.88711 0.6742 H
79 2 0.00336159 2.64898 7.61081 6.07292 H
42 4 0.648101 0.648579 9.03197 8.40587 Si
149 2 0.0426359 -1.67575 10.8409 6.94845 H
260 3 -0.756834 2.01761 8.80903 1.34989 O
312 2 0.0457082 -5.51321 8.95156 0.633376 H
207 1 -0.0886627 -0.705283 9.28862 4.10127 C
87 2 -0.000852124 0.129061 9.30081 6.75657 H
145 2 0.119287 -0.914301 8.35684 4.64679 H
146 2 0.057987 -0.861977 9.29262 3.02833 H
128 2 0.0193221 -1.15713 11.6746 1.82055 H
262 3 -0.682322 -0.0386255 7.6321 8.89218 O
257 3 -0.743783 2.59502 6.94291 3.47395 O
298 3 -0.668704 2.29037 9.18274 8.64801 O
335 2 0.0100961 -0.990297 12.5017 3.43209 H
39 4 1.07976 2.85975 8.38642 2.68728 Si
86 2 0.0973117 -0.0240631 10.4095 9.22092 H
130 2 0.0287224 -5.12433 12.6951 1.74478 H
139 2 0.0894185 2.58508 6.6154 8.46763 H
194 1 -0.135232 -1.7392 8.14012 0.0906965 C
31 4 0.726366 2.08258 6.48769 4.97827 Si
183 2 0.0658864 -6.06845 9.10753 6.84573 H
22 4 0.314462 -2.87853 11.1673 14.2975 Si
69 2 0.242718 -2.83903 12.1722 10.8025 H
100 2 0.0477372 -5.75853 12.3344 11.5345 H
191 1 -0.078363 -6.23724 11.8308 10.6909 C
200 1 -0.0835136 -4.29112 9.7071 14.2341 C
232 3 -0.704578 -4.93581 8.90201 10.7278 O
101 2 0.145298 -6.35829 10.7534 10.8499 H
263 3 -0.777337 -2.62686 9.41798 11.6827 O
310 2 0.025814 -4.50178 9.67772 17.6743 H
20 4 1.18718 -3.37462 8.84406 10.3305 Si
125 2 0.115642 -4.23762 9.30104 13.2295 H
315 3 -0.707383 -6.92855 11.8531 17.1062 O
127 2 0.0205785 -3.95894 8.98785 14.9882 H
126 2 0.057686 -5.20267 10.2241 14.4739 H
236 3 -0.703555 -3.67081 12.9372 13.4953 O
121 2 0.0380827 -3.10436 6.77344 12.6735 H
120 2 0.0540874 -2.45865 6.80678 14.3596 H
93 2 0.297653 -2.20931 6.89724 9.40931 H
99 2 0.0180423 -7.05486 12.3736 10.2563 H
237 3 -0.703082 -2.85894 12.3555 9.8067 O
316 3 -0.78873 -7.05993 12.8617 14.6064 O
88 2 0.311857 -2.61774 11.4224 9.65196 H
313 1 -0.133593 -5.31618 9.26574 18.23 C
132 2 0.0770553 -4.34338 12.6257 18.6184 H
198 1 -0.0964709 -2.28577 7.00148 13.3401 C
337 2 0.038372 -1.53933 11.7428 16.7587 H
338 2 0.0362062 -0.604102 11.9978 18.331 H
248 3 -0.691123 0.0231311 6.67649 11.5131 O
154 2 0.0637206 1.07646 7.43959 14.3533 H
344 2 0.128798 -0.309355 12.7563 9.7539 H
119 2 0.0874465 -1.79631 7.94128 13.1923 H
151 2 0.0865294 2.77104 7.42276 16.5477 H
141 2 0.097428 3.19466 6.96814 10.1585 H
27 4 1.05702 -0.0598607 12.5604 13.6616 Si
156 2 0.0766619 0.330693 9.08925 14.6598 H
266 3 -0.740884 0.135425 10.1792 11.2376 O
339 1 -0.109304 -0.726109 12.2235 17.2787 C
330 2 0.031444 -1.0667 8.32925 17.6766 H
336 2 0.0921197 0.197791 12.2845 16.7124 H
155 2 0.109717 0.329203 8.38037 12.9838 H
320 2 -0.0115742 0.805945 9.64298 18.2449 H
264 3 -0.728949 -1.09708 10.6259 13.5608 O
210 1 -0.0945845 0.801105 8.41205 13.9592 C
43 4 0.997931 -1.29757 10.3512 12.0142 Si
25 4 0.273848 9.42341 1.63167 7.9307 Si
137 2 0.0589836 5.07421 6.10551 3.87093 H
157 2 0.0429943 10.0125 1.75041 5.5107 H
158 2 0.00741671 8.83993 1.95632 4.19608 H
159 2 0.0378316 9.64719 3.4045 4.90011 H
171 2 0.0331627 8.82091 4.81718 5.78483 H
172 2 0.0356033 8.40826 6.33664 4.88887 H
211 1 -0.143628 9.6597 2.34207 4.70736 C
366 2 0.0828738 7.91368 3.66079 1.05931 H
368 2 0.0744887 8.81401 3.77981 2.63284 H
77 2 0.00430067 8.64142 2.93292 7.04846 H
369 1 -0.0914631 8.12936 4.23065 1.95155 C
357 2 0.119763 10.4283 2.27375 0.753305 H
56 4 0.31163 9.22649 5.91036 1.34205 Si
81 2 -0.0431314 6.83479 3.90395 7.25356 H
367 2 0.0246042 7.18742 4.6678 2.34899 H
282 3 -0.613534 10.7395 6.1118 1.93834 O
138 2 0.00595401 6.38555 4.97664 4.43395 H
216 1 -0.12682 8.68023 5.88174 5.82061 C
204 1 -0.129427 5.68055 5.75237 4.66394 C
269 3 -0.760845 10.8966 0.784551 2.47836 O
280 3 -0.779434 10.9908 3.47439 2.38711 O
350 2 0.0935925 15.7292 0.0946704 2.66665 H
161 2 0.0727326 9.68066 4.88565 9.01808 H
271 3 -0.583635 10.8881 2.08028 8.43685 O
57 4 0.855851 12.5001 4.65894 7.28463 Si
360 2 0.0447142 13.673 4.30808 0.627737 H
170 2 0.0308417 8.06411 6.22625 6.63172 H
272 3 -0.833149 15.0373 2.22532 5.07109 O
355 2 0.0848634 13.7703 1.5397 8.83065 H
371 3 -0.737513 13.0579 0.58037 0.172096 O
274 3 -0.78505 13.1842 0.785579 6.41519 O
214 1 -0.100653 12.753 4.66012 0.313694 C
47 4 1.11483 11.139 2.17248 3.30652 Si
273 3 -0.80915 12.5343 2.0116 4.10713 O
281 3 -0.660598 13.4098 4.91655 3.50749 O
349 2 0.00644395 16.1168 1.14836 1.24935 H
288 3 -0.731327 11.2863 5.7185 7.33767 O
3 2 0.349128 13.2256 4.13608 4.12515 H
284 3 -0.781403 12.9021 3.65234 6.06074 O
283 3 -0.685413 13.1845 4.16716 9.15717 O
348 2 0.0916712 14.8415 1.66455 2.42512 H
351 1 -0.113755 15.3785 0.835285 1.95751 C
51 4 1.43862 13.4054 2.14985 5.50769 Si
55 4 0.838359 11.7708 4.86584 2.25751 Si
76 2 0.0479305 9.60754 0.304587 6.81463 H
329 2 0.0369733 14.964 2.39005 0.0449174 H
82 2 0.314419 8.86989 1.97279 15.5446 H
163 2 0.0683527 9.42237 3.78831 13.6478 H
164 2 0.0508519 8.82009 4.40387 12.055 H
165 2 0.089104 9.9652 2.94054 12.1248 H
213 1 -0.0957911 9.22824 3.58062 12.6499 C
256 3 -0.739078 5.30409 5.83736 14.095 O
356 2 0.0941584 10.1879 2.59526 17.7555 H
278 3 -0.726426 8.64071 2.72356 16.2095 O
318 2 0.355717 8.10747 3.09365 15.5825 H
162 2 0.018542 10.4891 5.32908 10.6646 H
364 2 0.0706232 9.37604 5.03114 17.7079 H
347 2 0.100904 8.89638 1.59964 10.334 H
362 1 -0.102663 9.57538 6.08066 17.959 C
252 3 -0.809692 6.68584 3.58666 13.8498 O
48 4 0.922712 12.5102 1.26405 17.6013 Si
212 1 -0.108089 10.014 4.60364 9.98972 C
160 2 0.0399309 9.25503 4.00618 10.4513 H
92 2 0.321756 10.4534 0.681355 12.4613 H
358 2 0.0794927 10.2506 0.985765 18.6016 H
359 1 -0.0653627 10.6822 1.97053 18.4585 C
117 2 0.0245034 11.0298 5.70902 12.4592 H
327 1 -0.108527 16.0887 2.59783 17.827 C
346 1 -0.0245621 8.40093 0.984556 9.61554 C
285 3 -0.800021 6.57968 5.46937 9.41501 O
328 2 0.0682096 16.6779 1.70724 17.786 H
354 1 -0.125136 14.1503 0.721924 9.42567 C
90 2 0.00225278 15.6187 0.68594 12.5419 H
116 2 0.0427283 12.7731 6.09357 12.0618 H
353 2 0.0554974 15.1987 0.774278 9.64898 H
53 4 1.14732 11.6339 0.240755 14.7384 Si
60 4 0.668544 13.292 2.54285 13.5626 Si
54 4 0.597897 13.1212 1.43481 11.2377 Si
72 2 0.279441 12.9532 4.92915 9.74807 H
290 3 -0.650032 13.8534 2.65772 12.0392 O
52 4 0.549473 14.568 0.597073 13.9375 Si
50 4 0.720003 11.4817 3.06417 9.59749 Si
279 3 -0.631883 11.611 2.00035 10.881 O
289 3 -0.683521 11.941 1.79043 14.0964 O
275 3 -0.694579 15.1225 1.03594 15.3522 O
270 3 -0.696081 13.094 2.42573 16.7004 O
9 4 0.653046 14.6396 2.6269 16.2593 Si
167 2 0.0701146 12.5314 4.21048 18.4159 H
29 4 1.03578 7.42796 2.42225 12.9999 Si
197 1 -0.127185 11.8633 6.42334 12.5297 C
361 2 0.037377 10.5287 6.44957 17.6403 H
166 2 0.0298529 13.2993 5.87388 18.5631 H
23 4 1.02408 1.32883 12.1718 2.26204 Si
46 4 1.08734 5.43194 12.443 0.600271 Si
297 3 -0.668435 6.04293 8.34172 9.1333 O
62 4 1.06416 5.05539 10.5668 3.01186 Si
84 2 0.144709 4.36058 8.8825 7.30649 H
179 2 0.110441 3.56477 11.4318 4.79302 H
41 4 1.0982 1.83579 9.98289 0.249703 Si
219 1 -0.0474816 4.21361 12.055 4.20354 C
370 3 -0.651922 8.89991 12.1736 3.29523 O
261 3 -0.766332 1.55676 11.5152 0.750591 O
293 3 -0.776723 4.1159 9.25402 3.24 O
294 3 -0.754514 5.12216 11.1375 1.51269 O
83 2 0.149022 4.38633 8.30577 7.89228 H
299 3 -0.721298 3.87837 11.2874 7.70905 O
304 3 -0.776313 6.4151 11.9605 6.82718 O
259 3 -0.674175 1.64694 11.1782 3.51764 O
65 4 0.753309 3.05334 10.656 8.94633 Si
49 4 1.08947 4.96503 12.4781 7.39221 Si
181 2 0.0868491 5.14401 12.4539 4.62721 H
180 2 0.139582 3.64383 12.6122 3.5048 H
302 3 -0.761351 6.40754 10.2025 3.82658 O
85 2 0.308473 6.48501 9.23098 3.82909 H
187 2 0.0720707 9.14366 10.5318 8.47436 H
215 1 -0.0854299 8.08656 7.56844 1.91921 C
168 2 0.0837977 8.3136 8.37929 1.24918 H
365 2 0.0402083 7.06792 7.18264 1.91268 H
303 3 -0.717053 6.53973 9.36366 6.77129 O
220 1 -0.0955964 10.3598 8.55748 7.11582 C
124 2 0.103771 10.0718 9.56513 2.73458 H
287 3 -0.694519 11.3802 6.75256 4.81257 O
301 3 -0.719647 8.65318 10.8063 5.77044 O
221 1 -0.111492 8.43981 10.1097 9.15085 C
59 4 0.664844 10.5858 6.6317 6.21603 Si
64 4 0.676377 7.17665 8.84681 8.14967 Si
66 4 1.15921 7.00136 10.7355 5.96082 Si
98 2 -0.00867261 8.21919 7.55831 7.75734 H
169 2 0.0590472 8.4983 7.70419 2.9146 H
4 3 -0.674828 9.53565 10.6649 0.996424 O
136 2 0.0506262 6.03992 6.52845 5.28988 H
182 2 0.0643227 9.46839 8.93741 6.66796 H
184 2 0.0455257 10.3087 8.31332 8.13546 H
122 2 0.0675522 10.738 8.98974 4.33413 H
19 4 0.669206 9.57095 11.3194 4.55776 Si
67 4 1.26099 3.76227 10.5217 16.2857 Si
188 2 0.0763963 5.56571 10.2019 9.81191 H
189 2 0.132939 4.39091 9.10231 10.6887 H
190 2 0.0605536 4.48635 10.8854 11.1454 H
222 1 -0.0672189 4.63436 10.1323 10.3809 C