LAMMPS (2 Aug 2023 - Update 2)
  using 2 OpenMP thread(s) per MPI task
Reading data file ...
  triclinic box = (0 0 0) to (15.2382 14.5028 17.0085) with tilt (-6.2627 -0.4482 -0.642)
  2 by 2 by 2 MPI processor grid
  reading atoms ...
  350 atoms
Finding 1-2 1-3 1-4 neighbors ...
  special bond factors lj:    0        0        0       
  special bond factors coul:  0        0        0       
     0 = max # of 1-2 neighbors
     0 = max # of 1-3 neighbors
     0 = max # of 1-4 neighbors
     1 = max # of special neighbors
  special bonds CPU = 0.001 seconds
  read_data CPU = 0.006 seconds
WARNING: Van der Waals parameters for element SI indicate inner wall+shielding, but earlier atoms indicate a different van der Waals method. This may cause division-by-zero errors. Keeping van der Waals setting for earlier atoms. (src/REAXFF/reaxff_ffield.cpp:251)
*****Minimization starts.*****

CITE-CITE-CITE-CITE-CITE-CITE-CITE-CITE-CITE-CITE-CITE-CITE-CITE

Your simulation uses code contributions which should be cited:
- pair reaxff command: doi:10.1016/j.parco.2011.08.005
- fix qeq/reaxff command: doi:10.1016/j.parco.2011.08.005
The log file lists these citations in BibTeX format.

CITE-CITE-CITE-CITE-CITE-CITE-CITE-CITE-CITE-CITE-CITE-CITE-CITE

WARNING: Fix qeq/reaxff group is not charge neutral, net charge = -10.66 (src/REAXFF/fix_qeq_reaxff.cpp:392)
Neighbor list info ...
  update: every = 1 steps, delay = 0 steps, check = yes
  max neighbors/atom: 2000, page size: 100000
  master list distance cutoff = 12
  ghost atom cutoff = 12
  binsize = 6, bins = 4 3 3
  2 neighbor lists, perpetual/occasional/extra = 2 0 0
  (1) pair reaxff, perpetual
      attributes: half, newton off, ghost
      pair build: half/bin/newtoff/ghost
      stencil: full/ghost/bin/3d
      bin: standard
  (2) fix qeq/reaxff, perpetual, copy from (1)
      attributes: half, newton off
      pair build: copy
      stencil: none
      bin: none
Setting up cg style minimization ...
  Unit style    : real
  Current step  : 0
Per MPI rank memory allocation (min/avg/max) = 130 | 131.2 | 132.5 Mbytes
   Step          Temp          E_pair         E_mol          TotEng         Press     
         0   0             -30994.714      0             -30994.714      211972.8     
        34   0             -33904.063      0             -33904.063      12143.605    
Loop time of 6.49678 on 16 procs for 34 steps with 350 atoms

97.4% CPU use with 8 MPI tasks x 2 OpenMP threads

Minimization stats:
  Stopping criterion = energy tolerance
  Energy initial, next-to-last, final = 
     -30994.7139011732  -33904.0509453072  -33904.0632492595
  Force two-norm initial, final = 4820.5085 109.17524
  Force max component initial, final = 634.7278 26.777646
  Final line search alpha, max atom move = 0.00046196495 0.012370334
  Iterations, force evaluations = 34 140

MPI task timing breakdown:
Section |  min time  |  avg time  |  max time  |%varavg| %total
---------------------------------------------------------------
Pair    | 4.5666     | 4.9377     | 5.1427     |   9.0 | 76.00
Bond    | 6.6204e-05 | 7.7461e-05 | 8.8332e-05 |   0.0 |  0.00
Neigh   | 0          | 0          | 0          |   0.0 |  0.00
Comm    | 0.10393    | 0.30925    | 0.68094    |  35.9 |  4.76
Output  | 0.0091298  | 0.014904   | 0.020562   |   3.1 |  0.23
Modify  | 1.2199     | 1.2201     | 1.2202     |   0.0 | 18.78
Other   |            | 0.01477    |            |       |  0.23

Nlocal:          43.75 ave          50 max          39 min
Histogram: 2 0 1 0 2 0 2 0 0 1
Nghost:        3170.62 ave        3200 max        3138 min
Histogram: 2 0 0 1 1 0 0 2 0 2
Neighs:        28557.5 ave       32206 max       25644 min
Histogram: 2 0 0 1 1 1 2 0 0 1

Total # of neighbors = 228460
Ave neighs/atom = 652.74286
Ave special neighs/atom = 0
Neighbor list builds = 0
Dangerous builds = 0
System init for write_data ...
WARNING: Van der Waals parameters for element SI indicate inner wall+shielding, but earlier atoms indicate a different van der Waals method. This may cause division-by-zero errors. Keeping van der Waals setting for earlier atoms. (src/REAXFF/reaxff_ffield.cpp:251)
WARNING: New thermo_style command, previous thermo_modify settings will be lost (src/output.cpp:903)
Neighbor list info ...
  update: every = 10 steps, delay = 0 steps, check = no
  max neighbors/atom: 2000, page size: 100000
  master list distance cutoff = 12
  ghost atom cutoff = 12
  binsize = 6, bins = 4 3 3
  2 neighbor lists, perpetual/occasional/extra = 2 0 0
  (1) pair reaxff, perpetual
      attributes: half, newton off, ghost
      pair build: half/bin/newtoff/ghost
      stencil: full/ghost/bin/3d
      bin: standard
  (2) fix qeq/reaxff, perpetual, copy from (1)
      attributes: half, newton off
      pair build: copy
      stencil: none
      bin: none
Setting up Verlet run ...
  Unit style    : real
  Current step  : 0
  Time step     : 0.5
Per MPI rank memory allocation (min/avg/max) = 123.8 | 125.1 | 126.3 Mbytes
   Step          Temp          PotEng         Press         Density         Volume    
         0   300           -33904.063      15939.31       1.7278661      3758.8201    
       100   221.99909     -33783.651      3844.14        1.7278661      3758.8201    
       200   305.53142     -33818.561     -10229.258      1.7278661      3758.8201    
       300   323.03788     -33812.169      3796.3741      1.7278661      3758.8201    
       400   340.35508     -33872.464     -4016.1685      1.7278661      3758.8201    
       500   343.26966     -33937.024      3835.4815      1.7278661      3758.8201    
       600   329.86717     -33972.289      3419.6346      1.7278661      3758.8201    
       700   345.01426     -34047.484      8077.4914      1.7278661      3758.8201    
       800   335.84934     -34104.751      7306.8143      1.7278661      3758.8201    
       900   295.73685     -34130.471      7432.2457      1.7278661      3758.8201    
      1000   305.1749      -34185.788     -1111.0521      1.7278661      3758.8201    
      1100   324.54632     -34237.269      25876.54       1.7278661      3758.8201    
      1200   290.2674      -34230.974      13268.255      1.7278661      3758.8201    
      1300   302.23747     -34263.149     -3382.9932      1.7278661      3758.8201    
      1400   299.66953     -34276.784      6704.1229      1.7278661      3758.8201    
      1500   337.44065     -34339.567     -2789.8488      1.7278661      3758.8201    
      1600   355.39745     -34409.646      7162.0853      1.7278661      3758.8201    
      1700   354.78831     -34465.467      15530.043      1.7278661      3758.8201    
      1800   352.48992     -34507.972      11578.233      1.7278661      3758.8201    
      1900   286.41093     -34475.197     -4419.5423      1.7278661      3758.8201    
      2000   292.79007     -34516.827      12615.605      1.7278661      3758.8201    
      2100   324.12124     -34575.663      4369.8355      1.7278661      3758.8201    
      2200   299.41352     -34570.404      15488.642      1.7278661      3758.8201    
      2300   303.59335     -34578.892      11369.574      1.7278661      3758.8201    
      2400   315.78795     -34585.93      -1751.8259      1.7278661      3758.8201    
      2500   317.53014     -34578.307     -29.651861      1.7278661      3758.8201    
      2600   274.96169     -34566.046     -1475.4232      1.7278661      3758.8201    
      2700   295.01553     -34609.141      19558.289      1.7278661      3758.8201    
      2800   308.63664     -34632.867      12622.052      1.7278661      3758.8201    
      2900   307.78952     -34639.12       7387.7208      1.7278661      3758.8201    
      3000   282.40007     -34644.011      8268.6128      1.7278661      3758.8201    
      3100   280.10805     -34662.515      5775.9565      1.7278661      3758.8201    
      3200   330.18198     -34728.298      14847.443      1.7278661      3758.8201    
      3300   336.34452     -34760.004      12365.169      1.7278661      3758.8201    
      3400   308.93679     -34744.678      11118.752      1.7278661      3758.8201    
      3500   314.28542     -34763.269     -77.095519      1.7278661      3758.8201    
      3600   303.19927     -34754.059      191.512        1.7278661      3758.8201    
      3700   274.59572     -34719.161      9655.0408      1.7278661      3758.8201    
      3800   314.67381     -34729.524      7237.1743      1.7278661      3758.8201    
      3900   348.87313     -34770.619      16579.803      1.7278661      3758.8201    
      4000   317.75113     -34770.887      13017.928      1.7278661      3758.8201    
      4100   290.13359     -34765.261      9110.36        1.7278661      3758.8201    
      4200   314.10741     -34818.514      12756.859      1.7278661      3758.8201    
      4300   287.88657     -34804.382     -4736.5526      1.7278661      3758.8201    
      4400   330.98581     -34864.326      2588.4817      1.7278661      3758.8201    
      4500   285.37921     -34842.172      13207.255      1.7278661      3758.8201    
      4600   316.77983     -34892.255     -1656.299       1.7278661      3758.8201    
      4700   304.55421     -34887.251      7308.1315      1.7278661      3758.8201    
      4800   301.64199     -34890.233      13194.333      1.7278661      3758.8201    
      4900   309.6261      -34939.716      8741.2341      1.7278661      3758.8201    
      5000   353.64951     -35033.93      -911.76939      1.7278661      3758.8201    
Loop time of 233.406 on 16 procs for 5000 steps with 350 atoms

Performance: 0.925 ns/day, 25.934 hours/ns, 21.422 timesteps/s, 7.498 katom-step/s
99.3% CPU use with 8 MPI tasks x 2 OpenMP threads

MPI task timing breakdown:
Section |  min time  |  avg time  |  max time  |%varavg| %total
---------------------------------------------------------------
Pair    | 166.92     | 173.42     | 180.47     |  33.6 | 74.30
Bond    | 0.001505   | 0.0020098  | 0.0034725  |   1.3 |  0.00
Neigh   | 15.473     | 15.72      | 16.097     |   5.1 |  6.74
Comm    | 14.119     | 21.004     | 27.456     |  96.0 |  9.00
Output  | 0.031368   | 0.038117   | 0.045717   |   2.4 |  0.02
Modify  | 21.712     | 22.254     | 22.495     |   5.1 |  9.53
Other   |            | 0.9638     |            |       |  0.41

Nlocal:          43.75 ave          49 max          37 min
Histogram: 1 0 0 1 1 1 1 1 1 1
Nghost:        3179.38 ave        3196 max        3159 min
Histogram: 2 1 0 0 1 0 0 0 2 2
Neighs:        28479.5 ave       31683 max       24308 min
Histogram: 1 0 0 1 1 1 1 1 1 1

Total # of neighbors = 227836
Ave neighs/atom = 650.96
Ave special neighs/atom = 0
Neighbor list builds = 500
Dangerous builds not checked
System init for write_data ...
System init for write_restart ...
  using 2 OpenMP thread(s) per MPI task
Reading restart file ...
  restart file = 2 Aug 2023, LAMMPS = 2 Aug 2023
  restoring atom style full from restart
  triclinic box = (0 0 0) to (15.2382 14.5028 17.0085) with tilt (-6.2627 -0.4482 -0.642)
  2 by 2 by 2 MPI processor grid
  pair style reaxff stores no restart info
  350 atoms
Finding 1-2 1-3 1-4 neighbors ...
  special bond factors lj:    0        0        0       
  special bond factors coul:  0        0        0       
     0 = max # of 1-2 neighbors
     0 = max # of 1-3 neighbors
     0 = max # of 1-4 neighbors
     1 = max # of special neighbors
  special bonds CPU = 0.001 seconds
  read_restart CPU = 0.005 seconds
*****Positive-deform 1 starts.*****
WARNING: Van der Waals parameters for element SI indicate inner wall+shielding, but earlier atoms indicate a different van der Waals method. This may cause division-by-zero errors. Keeping van der Waals setting for earlier atoms. (src/REAXFF/reaxff_ffield.cpp:251)
Resetting global fix info from restart file:
  fix style: nvt, fix ID: fnvt
All restart file global fix info was re-assigned
Unused restart file peratom fix info:
  fix style: STORE/ATOM, fix ID: msd1_COMPUTE_STORE
Neighbor list info ...
  update: every = 10 steps, delay = 0 steps, check = no
  max neighbors/atom: 2000, page size: 100000
  master list distance cutoff = 12
  ghost atom cutoff = 12
  binsize = 6, bins = 4 3 3
  2 neighbor lists, perpetual/occasional/extra = 2 0 0
  (1) pair reaxff, perpetual
      attributes: half, newton off, ghost
      pair build: half/bin/newtoff/ghost
      stencil: full/ghost/bin/3d
      bin: standard
  (2) fix qeq/reaxff, perpetual, copy from (1)
      attributes: half, newton off
      pair build: copy
      stencil: none
      bin: none
Setting up Verlet run ...
  Unit style    : real
  Current step  : 0
  Time step     : 0.5
Per MPI rank memory allocation (min/avg/max) = 129 | 129.8 | 130.5 Mbytes
   Step          Temp          PotEng         Press          Volume           Lx             Ly             Lz      
         0   353.64951     -35033.93      -912.00495      3758.8201      15.2382        14.5028        17.0085      
       100   310.72041     -35048.895      386.53374      3833.9965      15.542964      14.5028        17.0085      
       200   373.49143     -34961.853     -4217.1326      3909.1729      15.847728      14.5028        17.0085      
       300   425.8597      -34925.005     -12066.513      3984.3493      16.152492      14.5028        17.0085      
       400   455.96334     -34918.233     -13485.652      4059.5257      16.457256      14.5028        17.0085      
       500   476.01161     -34987.911     -14180.504      4134.7021      16.76202       14.5028        17.0085      
       600   441.00189     -34930.208     -14578.367      4209.8785      17.066784      14.5028        17.0085      
       700   455.26693     -34957.375     -14896.993      4285.0549      17.371548      14.5028        17.0085      
       800   494.41666     -34960.082     -20768.787      4360.2313      17.676312      14.5028        17.0085      
       900   420.2031      -34911.655     -18042.433      4435.4077      17.981076      14.5028        17.0085      
      1000   380.99213     -34918.448     -20598.218      4510.5841      18.28584       14.5028        17.0085      
      1100   411.79478     -34932.195     -12935.696      4585.7605      18.590604      14.5028        17.0085      
      1200   371.65938     -34912.416     -14202.493      4660.9369      18.895368      14.5028        17.0085      
      1300   374.09542     -34875.739     -23325.65       4736.1133      19.200132      14.5028        17.0085      
      1400   401.46727     -34860.459     -13065.357      4811.2897      19.504896      14.5028        17.0085      
      1500   426.23906     -34874.795     -14891.268      4886.4661      19.80966       14.5028        17.0085      
      1600   395.85298     -34837.948     -18055.523      4961.6425      20.114424      14.5028        17.0085      
      1700   395.36322     -34916.451     -21758.266      5036.8189      20.419188      14.5028        17.0085      
      1800   454.27381     -34994.699     -17760.309      5111.9953      20.723952      14.5028        17.0085      
      1900   376.45274     -35002.872     -13916.25       5187.1718      21.028716      14.5028        17.0085      
      2000   437.03184     -35079.84      -9559.5981      5262.3482      21.33348       14.5028        17.0085      
      2100   412.66065     -35113.039     -14292.004      5337.5246      21.638244      14.5028        17.0085      
      2200   370.58497     -35179.564     -19106.633      5412.701       21.943008      14.5028        17.0085      
      2300   352.34286     -35169.85      -9681.6996      5487.8774      22.247772      14.5028        17.0085      
      2400   297.13609     -35168.19      -7704.199       5563.0538      22.552536      14.5028        17.0085      
      2500   366.23906     -35253.598     -18572.703      5638.2302      22.8573        14.5028        17.0085      
      2600   352.73586     -35257.587     -13026.046      5713.4066      23.162064      14.5028        17.0085      
      2700   292.863       -35173.726     -12058.146      5788.583       23.466828      14.5028        17.0085      
      2800   346.93624     -35204.146     -21152.251      5863.7594      23.771592      14.5028        17.0085      
      2900   361.52608     -35216.684     -19163.043      5938.9358      24.076356      14.5028        17.0085      
      3000   349.80333     -35205.111     -21147.181      6014.1122      24.38112       14.5028        17.0085      
      3100   294.97754     -35186.002     -16271.818      6089.2886      24.685884      14.5028        17.0085      
      3200   318.77891     -35165.652     -16681.661      6164.465       24.990648      14.5028        17.0085      
      3300   307.53272     -35141.651     -14225.759      6239.6414      25.295412      14.5028        17.0085      
      3400   313.93473     -35123.256     -11000.604      6314.8178      25.600176      14.5028        17.0085      
      3500   314.9863      -35160.555     -13325.806      6389.9942      25.90494       14.5028        17.0085      
      3600   304.40475     -35130.099     -10544.182      6465.1706      26.209704      14.5028        17.0085      
      3700   289.47165     -35126.928     -10134.261      6540.347       26.514468      14.5028        17.0085      
      3800   314.72755     -35133.61      -9071.8087      6615.5234      26.819232      14.5028        17.0085      
      3900   267.68709     -35066.272     -9975.21        6690.6998      27.123996      14.5028        17.0085      
      4000   279.02881     -35107.11      -15294.01       6765.8762      27.42876       14.5028        17.0085      
      4100   324.05926     -35151.794     -6644.8426      6841.0526      27.733524      14.5028        17.0085      
      4200   326.81426     -35241.166     -2322.2648      6916.229       28.038288      14.5028        17.0085      
      4300   291.8739      -35283.331     -2556.1128      6991.4054      28.343052      14.5028        17.0085      
      4400   296.32334     -35360.4        2093.0732      7066.5818      28.647816      14.5028        17.0085      
      4500   299.32227     -35399.905     -309.42511      7141.7582      28.95258       14.5028        17.0085      
      4600   316.98268     -35443.904      954.76391      7216.9346      29.257344      14.5028        17.0085      
      4700   318.24611     -35495.792     -2777.4969      7292.111       29.562108      14.5028        17.0085      
      4800   276.03382     -35491.821     -1759.3631      7367.2874      29.866872      14.5028        17.0085      
      4900   299.78043     -35535.607      2603.6998      7442.4638      30.171636      14.5028        17.0085      
      5000   289.39772     -35501.98       5045.9416      7517.6402      30.4764        14.5028        17.0085      
Loop time of 169.809 on 16 procs for 5000 steps with 350 atoms

Performance: 1.272 ns/day, 18.868 hours/ns, 29.445 timesteps/s, 10.306 katom-step/s
99.1% CPU use with 8 MPI tasks x 2 OpenMP threads

MPI task timing breakdown:
Section |  min time  |  avg time  |  max time  |%varavg| %total
---------------------------------------------------------------
Pair    | 116.88     | 121.42     | 127.02     |  30.2 | 71.51
Bond    | 0.0015033  | 0.0016842  | 0.0022348  |   0.6 |  0.00
Neigh   | 8.9914     | 9.2161     | 9.5563     |   6.1 |  5.43
Comm    | 12.569     | 18.092     | 22.704     |  78.2 | 10.65
Output  | 0.027135   | 0.033415   | 0.038812   |   2.2 |  0.02
Modify  | 19.638     | 19.96      | 20.201     |   4.8 | 11.75
Other   |            | 1.082      |            |       |  0.64

Nlocal:          43.75 ave          72 max          26 min
Histogram: 2 1 1 0 1 1 1 0 0 1
Nghost:         2197.5 ave        2405 max        1987 min
Histogram: 1 2 1 0 0 0 0 1 2 1
Neighs:        15166.8 ave       24171 max        8960 min
Histogram: 2 1 1 0 1 0 1 1 0 1

Total # of neighbors = 121334
Ave neighs/atom = 346.66857
Ave special neighs/atom = 0
Neighbor list builds = 500
Dangerous builds not checked
  using 2 OpenMP thread(s) per MPI task
Reading restart file ...
  restart file = 2 Aug 2023, LAMMPS = 2 Aug 2023
  restoring atom style full from restart
  triclinic box = (0 0 0) to (15.2382 14.5028 17.0085) with tilt (-6.2627 -0.4482 -0.642)
  2 by 2 by 2 MPI processor grid
  pair style reaxff stores no restart info
  350 atoms
Finding 1-2 1-3 1-4 neighbors ...
  special bond factors lj:    0        0        0       
  special bond factors coul:  0        0        0       
     0 = max # of 1-2 neighbors
     0 = max # of 1-3 neighbors
     0 = max # of 1-4 neighbors
     1 = max # of special neighbors
  special bonds CPU = 0.000 seconds
  read_restart CPU = 0.003 seconds
*****Positive-deform 2 starts.*****
WARNING: Van der Waals parameters for element SI indicate inner wall+shielding, but earlier atoms indicate a different van der Waals method. This may cause division-by-zero errors. Keeping van der Waals setting for earlier atoms. (src/REAXFF/reaxff_ffield.cpp:251)
Resetting global fix info from restart file:
  fix style: nvt, fix ID: fnvt
All restart file global fix info was re-assigned
Unused restart file peratom fix info:
  fix style: STORE/ATOM, fix ID: msd1_COMPUTE_STORE
Neighbor list info ...
  update: every = 10 steps, delay = 0 steps, check = no
  max neighbors/atom: 2000, page size: 100000
  master list distance cutoff = 12
  ghost atom cutoff = 12
  binsize = 6, bins = 4 3 3
  2 neighbor lists, perpetual/occasional/extra = 2 0 0
  (1) pair reaxff, perpetual
      attributes: half, newton off, ghost
      pair build: half/bin/newtoff/ghost
      stencil: full/ghost/bin/3d
      bin: standard
  (2) fix qeq/reaxff, perpetual, copy from (1)
      attributes: half, newton off
      pair build: copy
      stencil: none
      bin: none
Setting up Verlet run ...
  Unit style    : real
  Current step  : 0
  Time step     : 0.5
Per MPI rank memory allocation (min/avg/max) = 129 | 129.8 | 130.5 Mbytes
   Step          Temp          PotEng         Press          Volume           Lx             Ly             Lz      
         0   353.64951     -35033.93      -912.00495      3758.8201      15.2382        14.5028        17.0085      
       100   311.83856     -35048.525      78.366004      3833.9965      15.2382        14.792856      17.0085      
       200   385.75538     -34984.63      -4588.2805      3909.1729      15.2382        15.082912      17.0085      
       300   440.04133     -34929.988     -3362.1458      3984.3493      15.2382        15.372968      17.0085      
       400   454.96466     -34919.024      570.1166       4059.5257      15.2382        15.663024      17.0085      
       500   414.61044     -34941.561      9864.201       4134.7021      15.2382        15.95308       17.0085      
       600   354.69138     -34921.359      14315.165      4209.8785      15.2382        16.243136      17.0085      
       700   382.14246     -35022.97      -2718.4401      4285.0549      15.2382        16.533192      17.0085      
       800   394.46808     -35030.615     -10989.696      4360.2313      15.2382        16.823248      17.0085      
       900   382.45126     -35057.272     -13051.04       4435.4077      15.2382        17.113304      17.0085      
      1000   384.50921     -35065.39       1755.3284      4510.5841      15.2382        17.40336       17.0085      
      1100   351.37911     -35043.816     -5049.7261      4585.7605      15.2382        17.693416      17.0085      
      1200   374.14871     -35061.292     -24156.01       4660.9369      15.2382        17.983472      17.0085      
      1300   346.95764     -35060.01      -17970.951      4736.1133      15.2382        18.273528      17.0085      
      1400   333.32281     -35029.026     -19309.598      4811.2897      15.2382        18.563584      17.0085      
      1500   394.65354     -35063.192     -12344.273      4886.4661      15.2382        18.85364       17.0085      
      1600   338.52234     -35019.821     -10044.969      4961.6425      15.2382        19.143696      17.0085      
      1700   309.34379     -35063.742     -15573.304      5036.8189      15.2382        19.433752      17.0085      
      1800   276.59893     -35032.302     -11794.847      5111.9953      15.2382        19.723808      17.0085      
      1900   283.93944     -35043.217     -13570.99       5187.1718      15.2382        20.013864      17.0085      
      2000   387.05773     -35089.248     -15167.292      5262.3482      15.2382        20.30392       17.0085      
      2100   362.44425     -35079.755     -8920.0815      5337.5246      15.2382        20.593976      17.0085      
      2200   293.90465     -35035.878     -26236.638      5412.701       15.2382        20.884032      17.0085      
      2300   303.28521     -35033.26      -19800.754      5487.8774      15.2382        21.174088      17.0085      
      2400   340.69895     -35060.12      -7549.7003      5563.0538      15.2382        21.464144      17.0085      
      2500   399.52151     -35115.787     -8524.8052      5638.2302      15.2382        21.7542        17.0085      
      2600   392.58852     -35158.854     -3464.3143      5713.4066      15.2382        22.044256      17.0085      
      2700   377.50149     -35192.628     -17025.002      5788.583       15.2382        22.334312      17.0085      
      2800   368.81006     -35200.478     -13268.715      5863.7594      15.2382        22.624368      17.0085      
      2900   355.44747     -35160.438     -14742.425      5938.9358      15.2382        22.914424      17.0085      
      3000   324.72645     -35104.502     -7445.9503      6014.1122      15.2382        23.20448       17.0085      
      3100   304.99431     -35118.315     -11833.339      6089.2886      15.2382        23.494536      17.0085      
      3200   286.7128      -35131.754     -10415.407      6164.465       15.2382        23.784592      17.0085      
      3300   337.64508     -35164.237     -13241.263      6239.6414      15.2382        24.074648      17.0085      
      3400   282.59894     -35081.945     -19619.701      6314.8178      15.2382        24.364704      17.0085      
      3500   314.87696     -35116.38      -7171.8584      6389.9942      15.2382        24.65476       17.0085      
      3600   320.22601     -35118.906     -6333.7974      6465.1706      15.2382        24.944816      17.0085      
      3700   373.56004     -35219.994     -473.1523       6540.347       15.2382        25.234872      17.0085      
      3800   311.15781     -35216.063     -4444.2563      6615.5234      15.2382        25.524928      17.0085      
      3900   305.46937     -35263.336      834.61948      6690.6998      15.2382        25.814984      17.0085      
      4000   296.79054     -35277.469     -2348.6695      6765.8762      15.2382        26.10504       17.0085      
      4100   342.32909     -35365.621     -3202.9128      6841.0526      15.2382        26.395096      17.0085      
      4200   255.57805     -35316.965     -14043.562      6916.229       15.2382        26.685152      17.0085      
      4300   278.29928     -35389.831     -5980.2656      6991.4054      15.2382        26.975208      17.0085      
      4400   257.08361     -35384.305     -9378.4011      7066.5818      15.2382        27.265264      17.0085      
      4500   240.04075     -35373.325     -9305.8293      7141.7582      15.2382        27.55532       17.0085      
      4600   288.59358     -35437.29      -9560.0816      7216.9346      15.2382        27.845376      17.0085      
      4700   259.30234     -35416.396     -6476.7095      7292.111       15.2382        28.135432      17.0085      
      4800   275.2395      -35427.912     -10194.212      7367.2874      15.2382        28.425488      17.0085      
      4900   277.87344     -35432.673     -9274.2334      7442.4638      15.2382        28.715544      17.0085      
      5000   281.41084     -35473.724     -8279.6936      7517.6402      15.2382        29.0056        17.0085      
Loop time of 159.784 on 16 procs for 5000 steps with 350 atoms

Performance: 1.352 ns/day, 17.754 hours/ns, 31.292 timesteps/s, 10.952 katom-step/s
99.3% CPU use with 8 MPI tasks x 2 OpenMP threads

MPI task timing breakdown:
Section |  min time  |  avg time  |  max time  |%varavg| %total
---------------------------------------------------------------
Pair    | 104.84     | 112.38     | 118.67     |  41.1 | 70.33
Bond    | 0.001386   | 0.0016095  | 0.0020305  |   0.5 |  0.00
Neigh   | 8.4505     | 8.7701     | 9.1333     |   7.1 |  5.49
Comm    | 12.033     | 18.135     | 25.547     | 101.2 | 11.35
Output  | 0.026084   | 0.032402   | 0.03754    |   1.9 |  0.02
Modify  | 19.099     | 19.338     | 19.59      |   3.9 | 12.10
Other   |            | 1.129      |            |       |  0.71

Nlocal:          43.75 ave          69 max          16 min
Histogram: 2 0 1 1 0 0 1 0 1 2
Nghost:        1850.12 ave        2186 max        1518 min
Histogram: 3 1 0 0 0 0 0 0 2 2
Neighs:        15601.5 ave       26157 max        4576 min
Histogram: 2 0 2 0 0 0 1 0 1 2

Total # of neighbors = 124812
Ave neighs/atom = 356.60571
Ave special neighs/atom = 0
Neighbor list builds = 500
Dangerous builds not checked
  using 2 OpenMP thread(s) per MPI task
Reading restart file ...
  restart file = 2 Aug 2023, LAMMPS = 2 Aug 2023
  restoring atom style full from restart
  triclinic box = (0 0 0) to (15.2382 14.5028 17.0085) with tilt (-6.2627 -0.4482 -0.642)
  2 by 2 by 2 MPI processor grid
  pair style reaxff stores no restart info
  350 atoms
Finding 1-2 1-3 1-4 neighbors ...
  special bond factors lj:    0        0        0       
  special bond factors coul:  0        0        0       
     0 = max # of 1-2 neighbors
     0 = max # of 1-3 neighbors
     0 = max # of 1-4 neighbors
     1 = max # of special neighbors
  special bonds CPU = 0.000 seconds
  read_restart CPU = 0.003 seconds
*****Positive-deform 3 starts.*****
WARNING: Van der Waals parameters for element SI indicate inner wall+shielding, but earlier atoms indicate a different van der Waals method. This may cause division-by-zero errors. Keeping van der Waals setting for earlier atoms. (src/REAXFF/reaxff_ffield.cpp:251)
Resetting global fix info from restart file:
  fix style: nvt, fix ID: fnvt
All restart file global fix info was re-assigned
Unused restart file peratom fix info:
  fix style: STORE/ATOM, fix ID: msd1_COMPUTE_STORE
Neighbor list info ...
  update: every = 10 steps, delay = 0 steps, check = no
  max neighbors/atom: 2000, page size: 100000
  master list distance cutoff = 12
  ghost atom cutoff = 12
  binsize = 6, bins = 4 3 3
  2 neighbor lists, perpetual/occasional/extra = 2 0 0
  (1) pair reaxff, perpetual
      attributes: half, newton off, ghost
      pair build: half/bin/newtoff/ghost
      stencil: full/ghost/bin/3d
      bin: standard
  (2) fix qeq/reaxff, perpetual, copy from (1)
      attributes: half, newton off
      pair build: copy
      stencil: none
      bin: none
Setting up Verlet run ...
  Unit style    : real
  Current step  : 0
  Time step     : 0.5
Per MPI rank memory allocation (min/avg/max) = 129 | 129.8 | 130.5 Mbytes
   Step          Temp          PotEng         Press          Volume           Lx             Ly             Lz      
         0   353.64951     -35033.93      -912.00495      3758.8201      15.2382        14.5028        17.0085      
       100   310.56464     -35047.872     -280.68667      3833.9965      15.2382        14.5028        17.34867     
       200   382.32696     -34998.101     -7681.7782      3909.1729      15.2382        14.5028        17.68884     
       300   416.04996     -34956.755     -14563.169      3984.3493      15.2382        14.5028        18.02901     
       400   437.35414     -34932.999     -4618.7729      4059.5257      15.2382        14.5028        18.36918     
       500   482.3338      -34947.955      11085.458      4134.7021      15.2382        14.5028        18.70935     
       600   414.6034      -34904.738     -1832.0522      4209.8785      15.2382        14.5028        19.04952     
       700   447.85435     -34916.371     -6952.3101      4285.0549      15.2382        14.5028        19.38969     
       800   389.22983     -34863.885     -15905.52       4360.2313      15.2382        14.5028        19.72986     
       900   419.54264     -34903.645     -6312.5856      4435.4077      15.2382        14.5028        20.07003     
      1000   431.41754     -34997.981     -19355.113      4510.5841      15.2382        14.5028        20.4102      
      1100   363.67838     -34963.113     -24076.531      4585.7605      15.2382        14.5028        20.75037     
      1200   351.78309     -34911.942     -25980.15       4660.9369      15.2382        14.5028        21.09054     
      1300   368.13438     -34920.518     -32055.513      4736.1133      15.2382        14.5028        21.43071     
      1400   377.04307     -34920.844     -22980.719      4811.2897      15.2382        14.5028        21.77088     
      1500   371.87681     -34926.373     -20882.434      4886.4661      15.2382        14.5028        22.11105     
      1600   384.03327     -34925.922     -32510.359      4961.6425      15.2382        14.5028        22.45122     
      1700   411.8233      -34912.719     -26548.393      5036.8189      15.2382        14.5028        22.79139     
      1800   344.4776      -34840.663     -23059.557      5111.9953      15.2382        14.5028        23.13156     
      1900   321.50083     -34822.49      -23491.318      5187.1718      15.2382        14.5028        23.47173     
      2000   288.00858     -34785.427     -32739.869      5262.3482      15.2382        14.5028        23.8119      
      2100   375.15102     -34850.508     -20938.324      5337.5246      15.2382        14.5028        24.15207     
      2200   368.24676     -34815.092     -31426.468      5412.701       15.2382        14.5028        24.49224     
      2300   369.73938     -34840.309     -17818.304      5487.8774      15.2382        14.5028        24.83241     
      2400   419.03828     -34847.148     -17444.792      5563.0538      15.2382        14.5028        25.17258     
      2500   367.69376     -34830.506     -24030.206      5638.2302      15.2382        14.5028        25.51275     
      2600   312.517       -34761.173     -34143.556      5713.4066      15.2382        14.5028        25.85292     
      2700   290.20401     -34702.862     -30965.205      5788.583       15.2382        14.5028        26.19309     
      2800   308.74007     -34701.676     -29378.97       5863.7594      15.2382        14.5028        26.53326     
      2900   382.30989     -34770.533     -26485.93       5938.9358      15.2382        14.5028        26.87343     
      3000   435.30126     -34876.886     -5796.6449      6014.1122      15.2382        14.5028        27.2136      
      3100   476.48751     -35086.393     -8031.3277      6089.2886      15.2382        14.5028        27.55377     
      3200   392.27669     -35136.455     -5836.9527      6164.465       15.2382        14.5028        27.89394     
      3300   365.72478     -35256.875     -15006.642      6239.6414      15.2382        14.5028        28.23411     
      3400   313.50209     -35291.425     -6624.0027      6314.8178      15.2382        14.5028        28.57428     
      3500   310.31632     -35334.947     -5540.3707      6389.9942      15.2382        14.5028        28.91445     
      3600   268.41045     -35368.112     -5849.9855      6465.1706      15.2382        14.5028        29.25462     
      3700   235.84053     -35318.317     -6058.617       6540.347       15.2382        14.5028        29.59479     
      3800   267.30547     -35366.585     -3107.1094      6615.5234      15.2382        14.5028        29.93496     
      3900   309.04241     -35440.232     -5859.8273      6690.6998      15.2382        14.5028        30.27513     
      4000   292.94101     -35433.061     -1681.3411      6765.8762      15.2382        14.5028        30.6153      
      4100   314.10729     -35499.861     -5073.4168      6841.0526      15.2382        14.5028        30.95547     
      4200   305.02402     -35498.751     -100.00244      6916.229       15.2382        14.5028        31.29564     
      4300   332.62824     -35521.035      2690.7879      6991.4054      15.2382        14.5028        31.63581     
      4400   290.70363     -35508.231     -8210.4028      7066.5818      15.2382        14.5028        31.97598     
      4500   291.39555     -35535.168     -664.78131      7141.7582      15.2382        14.5028        32.31615     
      4600   271.87853     -35519.02      -4684.0693      7216.9346      15.2382        14.5028        32.65632     
      4700   267.10196     -35461.142     -13379.62       7292.111       15.2382        14.5028        32.99649     
      4800   306.91669     -35471.074     -9562.2936      7367.2874      15.2382        14.5028        33.33666     
      4900   379.25824     -35539.23      -9218.9684      7442.4638      15.2382        14.5028        33.67683     
      5000   319.50259     -35502.647     -2793.556       7517.6402      15.2382        14.5028        34.017       
Loop time of 163.108 on 16 procs for 5000 steps with 350 atoms

Performance: 1.324 ns/day, 18.123 hours/ns, 30.655 timesteps/s, 10.729 katom-step/s
99.2% CPU use with 8 MPI tasks x 2 OpenMP threads

MPI task timing breakdown:
Section |  min time  |  avg time  |  max time  |%varavg| %total
---------------------------------------------------------------
Pair    | 110.75     | 115.15     | 121.36     |  31.8 | 70.60
Bond    | 0.0014644  | 0.0016156  | 0.0019047  |   0.4 |  0.00
Neigh   | 8.6128     | 8.756      | 8.9045     |   3.1 |  5.37
Comm    | 12.078     | 18.414     | 22.931     |  80.1 | 11.29
Output  | 0.033235   | 0.039197   | 0.044815   |   1.9 |  0.02
Modify  | 19.457     | 19.698     | 19.949     |   4.2 | 12.08
Other   |            | 1.049      |            |       |  0.64

Nlocal:          43.75 ave          69 max          17 min
Histogram: 2 0 0 1 0 1 1 2 0 1
Nghost:        1957.62 ave        2131 max        1775 min
Histogram: 2 2 0 0 0 0 0 0 0 4
Neighs:        16168.9 ave       26946 max        6285 min
Histogram: 2 1 0 1 0 0 1 1 1 1

Total # of neighbors = 129351
Ave neighs/atom = 369.57429
Ave special neighs/atom = 0
Neighbor list builds = 500
Dangerous builds not checked
  using 2 OpenMP thread(s) per MPI task
Reading restart file ...
  restart file = 2 Aug 2023, LAMMPS = 2 Aug 2023
  restoring atom style full from restart
  triclinic box = (0 0 0) to (15.2382 14.5028 17.0085) with tilt (-6.2627 -0.4482 -0.642)
  2 by 2 by 2 MPI processor grid
  pair style reaxff stores no restart info
  350 atoms
Finding 1-2 1-3 1-4 neighbors ...
  special bond factors lj:    0        0        0       
  special bond factors coul:  0        0        0       
     0 = max # of 1-2 neighbors
     0 = max # of 1-3 neighbors
     0 = max # of 1-4 neighbors
     1 = max # of special neighbors
  special bonds CPU = 0.000 seconds
  read_restart CPU = 0.003 seconds
*****Positive-deform 4 starts.*****
WARNING: Van der Waals parameters for element SI indicate inner wall+shielding, but earlier atoms indicate a different van der Waals method. This may cause division-by-zero errors. Keeping van der Waals setting for earlier atoms. (src/REAXFF/reaxff_ffield.cpp:251)
Resetting global fix info from restart file:
  fix style: nvt, fix ID: fnvt
All restart file global fix info was re-assigned
Unused restart file peratom fix info:
  fix style: STORE/ATOM, fix ID: msd1_COMPUTE_STORE
Neighbor list info ...
  update: every = 10 steps, delay = 0 steps, check = no
  max neighbors/atom: 2000, page size: 100000
  master list distance cutoff = 12
  ghost atom cutoff = 12
  binsize = 6, bins = 4 3 3
  2 neighbor lists, perpetual/occasional/extra = 2 0 0
  (1) pair reaxff, perpetual
      attributes: half, newton off, ghost
      pair build: half/bin/newtoff/ghost
      stencil: full/ghost/bin/3d
      bin: standard
  (2) fix qeq/reaxff, perpetual, copy from (1)
      attributes: half, newton off
      pair build: copy
      stencil: none
      bin: none
Setting up Verlet run ...
  Unit style    : real
  Current step  : 0
  Time step     : 0.5
Per MPI rank memory allocation (min/avg/max) = 129 | 129.8 | 130.5 Mbytes
   Step          Temp          PotEng         Press          Volume           Lx             Ly             Lz      
         0   353.64951     -35033.93      -912.00495      3758.8201      15.2382        14.5028        17.0085      
       100   311.97464     -35047.386     -125.33001      3758.8201      15.2382        14.5028        17.0085      
       200   381.13828     -35051.147      3351.1352      3758.8201      15.2382        14.5028        17.0085      
       300   375.18845     -35038.013     -17068.231      3758.8201      15.2382        14.5028        17.0085      
       400   360.75923     -35051.209      4058.248       3758.8201      15.2382        14.5028        17.0085      
       500   354.4063      -34984.271      1994.5883      3758.8201      15.2382        14.5028        17.0085      
       600   500.80248     -35056.644     -8858.6613      3758.8201      15.2382        14.5028        17.0085      
       700   394.18248     -35047.693     -2041.5527      3758.8201      15.2382        14.5028        17.0085      
       800   445.05201     -35215.829     -900.13109      3758.8201      15.2382        14.5028        17.0085      
       900   408.5231      -35258.553     -1614.7959      3758.8201      15.2382        14.5028        17.0085      
      1000   351.49727     -35254.715      3112.0764      3758.8201      15.2382        14.5028        17.0085      
      1100   286.18758     -35250.227      14583.609      3758.8201      15.2382        14.5028        17.0085      
      1200   339.25217     -35302.542      3658.9848      3758.8201      15.2382        14.5028        17.0085      
      1300   308.48498     -35275.279      4969.7987      3758.8201      15.2382        14.5028        17.0085      
      1400   317.4963      -35246.666      1241.0849      3758.8201      15.2382        14.5028        17.0085      
      1500   336.82393     -35255.24       308.02176      3758.8201      15.2382        14.5028        17.0085      
      1600   336.78183     -35187.621      10933.201      3758.8201      15.2382        14.5028        17.0085      
      1700   388.02733     -35281.369      12413.389      3758.8201      15.2382        14.5028        17.0085      
      1800   332.22388     -35208.338      10657.413      3758.8201      15.2382        14.5028        17.0085      
      1900   325.64129     -35261.083     -11804.649      3758.8201      15.2382        14.5028        17.0085      
      2000   305.9988      -35219.874      3410.4085      3758.8201      15.2382        14.5028        17.0085      
      2100   358.71353     -35257.551      2567.238       3758.8201      15.2382        14.5028        17.0085      
      2200   304.4527      -35147.674     -372.46823      3758.8201      15.2382        14.5028        17.0085      
      2300   330.47274     -35170.651      11347.04       3758.8201      15.2382        14.5028        17.0085      
      2400   345.95473     -35215.344     -3275.2636      3758.8201      15.2382        14.5028        17.0085      
      2500   331.01942     -35234.626     -9272.3935      3758.8201      15.2382        14.5028        17.0085      
      2600   336.3569      -35289.499     -1654.1796      3758.8201      15.2382        14.5028        17.0085      
      2700   338.27637     -35333.073     -5077.2611      3758.8201      15.2382        14.5028        17.0085      
      2800   323.15952     -35359.959     -11203.1        3758.8201      15.2382        14.5028        17.0085      
      2900   343.5236      -35396.003      8652.7728      3758.8201      15.2382        14.5028        17.0085      
      3000   334.258       -35425.047     -1554.3712      3758.8201      15.2382        14.5028        17.0085      
      3100   317.8235      -35402.698     -7460.7781      3758.8201      15.2382        14.5028        17.0085      
      3200   327.37089     -35416.548      3196.802       3758.8201      15.2382        14.5028        17.0085      
      3300   309.15731     -35400.069     -10483.491      3758.8201      15.2382        14.5028        17.0085      
      3400   310.07201     -35399.748     -8429.8998      3758.8201      15.2382        14.5028        17.0085      
      3500   311.38987     -35367.905     -7784.8709      3758.8201      15.2382        14.5028        17.0085      
      3600   344.66067     -35390.864     -9403.305       3758.8201      15.2382        14.5028        17.0085      
      3700   298.96716     -35332.72      -14175.247      3758.8201      15.2382        14.5028        17.0085      
      3800   343.63947     -35375.803      4683.1338      3758.8201      15.2382        14.5028        17.0085      
      3900   370.31583     -35348.649      13366.869      3758.8201      15.2382        14.5028        17.0085      
      4000   356.75502     -35376.726      1956.2427      3758.8201      15.2382        14.5028        17.0085      
      4100   376.06629     -35419.868     -7486.3759      3758.8201      15.2382        14.5028        17.0085      
      4200   389.42603     -35525.976      6415.5118      3758.8201      15.2382        14.5028        17.0085      
      4300   384.30669     -35563.671     -22061.538      3758.8201      15.2382        14.5028        17.0085      
      4400   393.9918      -35614.958      2858.9849      3758.8201      15.2382        14.5028        17.0085      
      4500   303.42858     -35524.686      4626.5356      3758.8201      15.2382        14.5028        17.0085      
      4600   347.05053     -35616.598     -12748.373      3758.8201      15.2382        14.5028        17.0085      
      4700   333.87177     -35595.53      -17520.372      3758.8201      15.2382        14.5028        17.0085      
      4800   445.12308     -35664.525     -6463.8169      3758.8201      15.2382        14.5028        17.0085      
      4900   359.40653     -35612.946     -18509.268      3758.8201      15.2382        14.5028        17.0085      
      5000   384.5314      -35606.869     -7899.1457      3758.8201      15.2382        14.5028        17.0085      
Loop time of 253.823 on 16 procs for 5000 steps with 350 atoms

Performance: 0.851 ns/day, 28.203 hours/ns, 19.699 timesteps/s, 6.895 katom-step/s
99.2% CPU use with 8 MPI tasks x 2 OpenMP threads

MPI task timing breakdown:
Section |  min time  |  avg time  |  max time  |%varavg| %total
---------------------------------------------------------------
Pair    | 184.84     | 189.98     | 193.7      |  20.2 | 74.85
Bond    | 0.0015607  | 0.0018493  | 0.0021754  |   0.5 |  0.00
Neigh   | 16.544     | 16.804     | 17.1       |   3.8 |  6.62
Comm    | 18.574     | 22.368     | 27.55      |  59.0 |  8.81
Output  | 0.023043   | 0.027568   | 0.0317     |   1.8 |  0.01
Modify  | 23.306     | 23.583     | 23.921     |   4.1 |  9.29
Other   |            | 1.057      |            |       |  0.42

Nlocal:          43.75 ave          48 max          40 min
Histogram: 1 2 0 1 0 0 2 0 1 1
Nghost:           4021 ave        4060 max        3988 min
Histogram: 2 0 2 0 0 1 1 0 1 1
Neighs:          28490 ave       30978 max       26254 min
Histogram: 1 2 0 1 0 0 2 0 0 2

Total # of neighbors = 227920
Ave neighs/atom = 651.2
Ave special neighs/atom = 0
Neighbor list builds = 500
Dangerous builds not checked
  using 2 OpenMP thread(s) per MPI task
Reading restart file ...
  restart file = 2 Aug 2023, LAMMPS = 2 Aug 2023
  restoring atom style full from restart
  triclinic box = (0 0 0) to (15.2382 14.5028 17.0085) with tilt (-6.2627 -0.4482 -0.642)
  2 by 2 by 2 MPI processor grid
  pair style reaxff stores no restart info
  350 atoms
Finding 1-2 1-3 1-4 neighbors ...
  special bond factors lj:    0        0        0       
  special bond factors coul:  0        0        0       
     0 = max # of 1-2 neighbors
     0 = max # of 1-3 neighbors
     0 = max # of 1-4 neighbors
     1 = max # of special neighbors
  special bonds CPU = 0.001 seconds
  read_restart CPU = 0.006 seconds
*****Positive-deform 5 starts.*****
WARNING: Van der Waals parameters for element SI indicate inner wall+shielding, but earlier atoms indicate a different van der Waals method. This may cause division-by-zero errors. Keeping van der Waals setting for earlier atoms. (src/REAXFF/reaxff_ffield.cpp:251)
Resetting global fix info from restart file:
  fix style: nvt, fix ID: fnvt
All restart file global fix info was re-assigned
Unused restart file peratom fix info:
  fix style: STORE/ATOM, fix ID: msd1_COMPUTE_STORE
Neighbor list info ...
  update: every = 10 steps, delay = 0 steps, check = no
  max neighbors/atom: 2000, page size: 100000
  master list distance cutoff = 12
  ghost atom cutoff = 12
  binsize = 6, bins = 4 3 3
  2 neighbor lists, perpetual/occasional/extra = 2 0 0
  (1) pair reaxff, perpetual
      attributes: half, newton off, ghost
      pair build: half/bin/newtoff/ghost
      stencil: full/ghost/bin/3d
      bin: standard
  (2) fix qeq/reaxff, perpetual, copy from (1)
      attributes: half, newton off
      pair build: copy
      stencil: none
      bin: none
Setting up Verlet run ...
  Unit style    : real
  Current step  : 0
  Time step     : 0.5
Per MPI rank memory allocation (min/avg/max) = 129 | 129.8 | 130.5 Mbytes
   Step          Temp          PotEng         Press          Volume           Lx             Ly             Lz      
         0   353.64951     -35033.93      -912.00495      3758.8201      15.2382        14.5028        17.0085      
       100   311.45909     -35047.867      33.874153      3758.8201      15.2382        14.5028        17.0085      
       200   359.80333     -34991.912      4523.0342      3758.8201      15.2382        14.5028        17.0085      
       300   425.19091     -35038.247      1799.9903      3758.8201      15.2382        14.5028        17.0085      
       400   519.99409     -35125.053      3258.8361      3758.8201      15.2382        14.5028        17.0085      
       500   422.45361     -35095.453     -8025.3349      3758.8201      15.2382        14.5028        17.0085      
       600   449.22559     -35106.335     -3838.8834      3758.8201      15.2382        14.5028        17.0085      
       700   421.1457      -35181.083      3927.8596      3758.8201      15.2382        14.5028        17.0085      
       800   402.22474     -35216.19      -909.75783      3758.8201      15.2382        14.5028        17.0085      
       900   323.95418     -35132.504      2019.8562      3758.8201      15.2382        14.5028        17.0085      
      1000   354.80159     -35220.381      11257.945      3758.8201      15.2382        14.5028        17.0085      
      1100   365.25986     -35182.847      9014.9191      3758.8201      15.2382        14.5028        17.0085      
      1200   349.3781      -35054.931      5183.1016      3758.8201      15.2382        14.5028        17.0085      
      1300   381.75846     -35084.715      16213.942      3758.8201      15.2382        14.5028        17.0085      
      1400   391.59835     -34948.171      4355.3623      3758.8201      15.2382        14.5028        17.0085      
      1500   355.09116     -34994.425      6939.054       3758.8201      15.2382        14.5028        17.0085      
      1600   338.56347     -35001.909     -4067.036       3758.8201      15.2382        14.5028        17.0085      
      1700   424.56185     -35072.497      353.88104      3758.8201      15.2382        14.5028        17.0085      
      1800   493.11834     -34994.39       6635.9794      3758.8201      15.2382        14.5028        17.0085      
      1900   396.53636     -35070.07       10754.966      3758.8201      15.2382        14.5028        17.0085      
      2000   359.05557     -35091.643      3427.9909      3758.8201      15.2382        14.5028        17.0085      
      2100   287.23066     -35073.51      -10728.32       3758.8201      15.2382        14.5028        17.0085      
      2200   296.88078     -35156.996     -11745.351      3758.8201      15.2382        14.5028        17.0085      
      2300   287.13838     -35089.002      4760.0537      3758.8201      15.2382        14.5028        17.0085      
      2400   299.798       -35137.911     -6071.1564      3758.8201      15.2382        14.5028        17.0085      
      2500   276.67204     -35151.066     -4323.2705      3758.8201      15.2382        14.5028        17.0085      
      2600   329.24355     -35165.846     -3293.7866      3758.8201      15.2382        14.5028        17.0085      
      2700   382.99722     -35237.208      7463.588       3758.8201      15.2382        14.5028        17.0085      
      2800   377.88724     -35205.713     -2672.1753      3758.8201      15.2382        14.5028        17.0085      
      2900   343.79319     -35245.608      3088.0955      3758.8201      15.2382        14.5028        17.0085      
      3000   355.44542     -35292.583      1911.7306      3758.8201      15.2382        14.5028        17.0085      
      3100   329.88732     -35298.8        7217.6659      3758.8201      15.2382        14.5028        17.0085      
      3200   366.62435     -35348.234     -377.83399      3758.8201      15.2382        14.5028        17.0085      
      3300   341.22924     -35377.428     -3008.2654      3758.8201      15.2382        14.5028        17.0085      
      3400   341.6035      -35344.501     -3030.6692      3758.8201      15.2382        14.5028        17.0085      
      3500   358.59695     -35273.749     -5405.8738      3758.8201      15.2382        14.5028        17.0085      
      3600   336.0748      -35231.845      488.00166      3758.8201      15.2382        14.5028        17.0085      
      3700   303.66438     -35261.572     -5553.4752      3758.8201      15.2382        14.5028        17.0085      
      3800   337.16719     -35264.82      -555.85219      3758.8201      15.2382        14.5028        17.0085      
      3900   292.61454     -35181.95      -24971.697      3758.8201      15.2382        14.5028        17.0085      
      4000   344.17424     -35256.192      4138.6236      3758.8201      15.2382        14.5028        17.0085      
      4100   318.92511     -35214.486     -3058.8809      3758.8201      15.2382        14.5028        17.0085      
      4200   306.61106     -35200.769      13362.715      3758.8201      15.2382        14.5028        17.0085      
      4300   327.43432     -35203.953      2286.6875      3758.8201      15.2382        14.5028        17.0085      
      4400   316.79729     -35197.081      233.04672      3758.8201      15.2382        14.5028        17.0085      
      4500   302.10907     -35190.825     -15965.168      3758.8201      15.2382        14.5028        17.0085      
      4600   283.89183     -35138.446     -20576.419      3758.8201      15.2382        14.5028        17.0085      
      4700   362.70141     -35244.939     -9927.0913      3758.8201      15.2382        14.5028        17.0085      
      4800   351.616       -35283.858     -19209.1        3758.8201      15.2382        14.5028        17.0085      
      4900   351.78292     -35279.173     -20098.243      3758.8201      15.2382        14.5028        17.0085      
      5000   377.21985     -35314.295     -16212.023      3758.8201      15.2382        14.5028        17.0085      
Loop time of 246.887 on 16 procs for 5000 steps with 350 atoms

Performance: 0.875 ns/day, 27.432 hours/ns, 20.252 timesteps/s, 7.088 katom-step/s
99.3% CPU use with 8 MPI tasks x 2 OpenMP threads

MPI task timing breakdown:
Section |  min time  |  avg time  |  max time  |%varavg| %total
---------------------------------------------------------------
Pair    | 183.71     | 185.83     | 189.68     |  14.7 | 75.27
Bond    | 0.0016202  | 0.0018432  | 0.0023298  |   0.5 |  0.00
Neigh   | 15.397     | 15.76      | 15.97      |   4.6 |  6.38
Comm    | 17.677     | 21.321     | 23.271     |  41.2 |  8.64
Output  | 0.024611   | 0.029601   | 0.034337   |   1.9 |  0.01
Modify  | 22.662     | 22.854     | 23.091     |   2.7 |  9.26
Other   |            | 1.087      |            |       |  0.44

Nlocal:          43.75 ave          50 max          39 min
Histogram: 2 1 1 0 1 0 1 0 1 1
Nghost:        3730.25 ave        3784 max        3679 min
Histogram: 1 1 0 2 0 1 1 0 0 2
Neighs:        28542.6 ave       32409 max       25501 min
Histogram: 1 2 1 0 1 0 1 0 1 1

Total # of neighbors = 228341
Ave neighs/atom = 652.40286
Ave special neighs/atom = 0
Neighbor list builds = 500
Dangerous builds not checked
  using 2 OpenMP thread(s) per MPI task
Reading restart file ...
  restart file = 2 Aug 2023, LAMMPS = 2 Aug 2023
  restoring atom style full from restart
  triclinic box = (0 0 0) to (15.2382 14.5028 17.0085) with tilt (-6.2627 -0.4482 -0.642)
  2 by 2 by 2 MPI processor grid
  pair style reaxff stores no restart info
  350 atoms
Finding 1-2 1-3 1-4 neighbors ...
  special bond factors lj:    0        0        0       
  special bond factors coul:  0        0        0       
     0 = max # of 1-2 neighbors
     0 = max # of 1-3 neighbors
     0 = max # of 1-4 neighbors
     1 = max # of special neighbors
  special bonds CPU = 0.000 seconds
  read_restart CPU = 0.003 seconds
*****Positive-deform 6 starts.*****
WARNING: Van der Waals parameters for element SI indicate inner wall+shielding, but earlier atoms indicate a different van der Waals method. This may cause division-by-zero errors. Keeping van der Waals setting for earlier atoms. (src/REAXFF/reaxff_ffield.cpp:251)
Resetting global fix info from restart file:
  fix style: nvt, fix ID: fnvt
All restart file global fix info was re-assigned
Unused restart file peratom fix info:
  fix style: STORE/ATOM, fix ID: msd1_COMPUTE_STORE
Neighbor list info ...
  update: every = 10 steps, delay = 0 steps, check = no
  max neighbors/atom: 2000, page size: 100000
  master list distance cutoff = 12
  ghost atom cutoff = 12
  binsize = 6, bins = 4 3 3
  2 neighbor lists, perpetual/occasional/extra = 2 0 0
  (1) pair reaxff, perpetual
      attributes: half, newton off, ghost
      pair build: half/bin/newtoff/ghost
      stencil: full/ghost/bin/3d
      bin: standard
  (2) fix qeq/reaxff, perpetual, copy from (1)
      attributes: half, newton off
      pair build: copy
      stencil: none
      bin: none
Setting up Verlet run ...
  Unit style    : real
  Current step  : 0
  Time step     : 0.5
Per MPI rank memory allocation (min/avg/max) = 129 | 129.8 | 130.5 Mbytes
   Step          Temp          PotEng         Press          Volume           Lx             Ly             Lz      
         0   353.64951     -35033.93      -912.00495      3758.8201      15.2382        14.5028        17.0085      
       100   311.33527     -35047.217     -205.1995       3758.8201      15.2382        14.5028        17.0085      
       200   341.86141     -34988.815      9219.8147      3758.8201      15.2382        14.5028        17.0085      
       300   412.06161     -34972.251      1439.7604      3758.8201      15.2382        14.5028        17.0085      
       400   414.27602     -35054.967      7582.209       3758.8201      15.2382        14.5028        17.0085      
       500   377.77588     -35054.31      -2148.7158      3758.8201      15.2382        14.5028        17.0085      
       600   381.88007     -35007.661      623.07659      3758.8201      15.2382        14.5028        17.0085      
       700   508.25913     -35037.755      2668.856       3758.8201      15.2382        14.5028        17.0085      
       800   389.46531     -35049.588      1732.6313      3758.8201      15.2382        14.5028        17.0085      
       900   319.73104     -35072.531     -3110.1887      3758.8201      15.2382        14.5028        17.0085      
      1000   360.8587      -35122.837     -390.32253      3758.8201      15.2382        14.5028        17.0085      
      1100   385.2956      -35188.923     -459.65643      3758.8201      15.2382        14.5028        17.0085      
      1200   368.29831     -35173.245     -6535.4559      3758.8201      15.2382        14.5028        17.0085      
      1300   369.10182     -35141.483      1682.2915      3758.8201      15.2382        14.5028        17.0085      
      1400   401.71306     -35121.837     -3267.1542      3758.8201      15.2382        14.5028        17.0085      
      1500   353.80348     -34956.32      -12553.74       3758.8201      15.2382        14.5028        17.0085      
      1600   379.90107     -35025.46      -2582.7388      3758.8201      15.2382        14.5028        17.0085      
      1700   377.37949     -35086.561     -375.90799      3758.8201      15.2382        14.5028        17.0085      
      1800   358.08607     -35080.939     -10664.04       3758.8201      15.2382        14.5028        17.0085      
      1900   330.62365     -35001.498     -8246.8456      3758.8201      15.2382        14.5028        17.0085      
      2000   315.73787     -34991.913      5110.3442      3758.8201      15.2382        14.5028        17.0085      
      2100   336.97015     -34987.848      1430.1019      3758.8201      15.2382        14.5028        17.0085      
      2200   335.06791     -35012.551      5756.4166      3758.8201      15.2382        14.5028        17.0085      
      2300   334.14498     -35016.622     -2323.6902      3758.8201      15.2382        14.5028        17.0085      
      2400   341.71561     -35039.958      10462.835      3758.8201      15.2382        14.5028        17.0085      
      2500   326.26777     -35051.496      11068.151      3758.8201      15.2382        14.5028        17.0085      
      2600   345.31757     -35032.632      2347.7989      3758.8201      15.2382        14.5028        17.0085      
      2700   385.99559     -35022.717      6376.0171      3758.8201      15.2382        14.5028        17.0085      
      2800   348.72645     -35078.672      12782.95       3758.8201      15.2382        14.5028        17.0085      
      2900   393.54332     -35107.745     -2077.6431      3758.8201      15.2382        14.5028        17.0085      
      3000   390.10424     -35177.219      20942.144      3758.8201      15.2382        14.5028        17.0085      
      3100   378.27268     -35257.771      5240.5728      3758.8201      15.2382        14.5028        17.0085      
      3200   336.28573     -35222.507     -9535.7933      3758.8201      15.2382        14.5028        17.0085      
      3300   319.09501     -35235.031     -5198.1178      3758.8201      15.2382        14.5028        17.0085      
      3400   363.14521     -35224.802     -8575.3797      3758.8201      15.2382        14.5028        17.0085      
      3500   340.15488     -35184.395     -9843.4773      3758.8201      15.2382        14.5028        17.0085      
      3600   361.42952     -35124.77      -7285.5847      3758.8201      15.2382        14.5028        17.0085      
      3700   347.47011     -35071.896     -11624.642      3758.8201      15.2382        14.5028        17.0085      
      3800   352.35068     -35109.229     -7225.5964      3758.8201      15.2382        14.5028        17.0085      
      3900   367.74538     -35106.755     -8199.8862      3758.8201      15.2382        14.5028        17.0085      
      4000   374.42577     -35034.508     -18416.266      3758.8201      15.2382        14.5028        17.0085      
      4100   374.55534     -35046.875     -15854.574      3758.8201      15.2382        14.5028        17.0085      
      4200   371.07552     -35046.68       1869.3579      3758.8201      15.2382        14.5028        17.0085      
      4300   422.8344      -34997.172     -1818.6574      3758.8201      15.2382        14.5028        17.0085      
      4400   378.23753     -35002.303      1040.6548      3758.8201      15.2382        14.5028        17.0085      
      4500   351.17435     -34981.663     -13578.44       3758.8201      15.2382        14.5028        17.0085      
      4600   380.35298     -34980.105     -3302.4686      3758.8201      15.2382        14.5028        17.0085      
      4700   399.16455     -35065.004     -743.23735      3758.8201      15.2382        14.5028        17.0085      
      4800   408.30115     -35081.297      6452.1375      3758.8201      15.2382        14.5028        17.0085      
      4900   386.77173     -35121.737     -7271.504       3758.8201      15.2382        14.5028        17.0085      
      5000   371.94251     -35162.579      10292.996      3758.8201      15.2382        14.5028        17.0085      
Loop time of 218.556 on 16 procs for 5000 steps with 350 atoms

Performance: 0.988 ns/day, 24.284 hours/ns, 22.877 timesteps/s, 8.007 katom-step/s
99.4% CPU use with 8 MPI tasks x 2 OpenMP threads

MPI task timing breakdown:
Section |  min time  |  avg time  |  max time  |%varavg| %total
---------------------------------------------------------------
Pair    | 139.84     | 155.59     | 171.1      |  77.9 | 71.19
Bond    | 0.0014217  | 0.0015712  | 0.0019479  |   0.4 |  0.00
Neigh   | 12.462     | 13.884     | 15.216     |  23.7 |  6.35
Comm    | 11.377     | 26.941     | 42.602     | 187.2 | 12.33
Output  | 0.01958    | 0.024053   | 0.027913   |   1.8 |  0.01
Modify  | 20.209     | 21.634     | 23.055     |  19.7 |  9.90
Other   |            | 0.4828     |            |       |  0.22

Nlocal:          43.75 ave          53 max          29 min
Histogram: 1 0 0 0 1 1 1 3 0 1
Nghost:        3491.62 ave        3539 max        3438 min
Histogram: 1 0 1 0 3 0 0 1 1 1
Neighs:        28445.2 ave       34280 max       19236 min
Histogram: 1 0 0 0 1 1 1 3 0 1

Total # of neighbors = 227562
Ave neighs/atom = 650.17714
Ave special neighs/atom = 0
Neighbor list builds = 500
Dangerous builds not checked
Total wall time: 0:24:13
